FOO
138240
    1MOL0     O    1   6.241   6.284   3.444  0.7103  0.2796  0.3391
    1MOL0     C    2   6.134   6.220   3.447  0.5805  0.2939 -0.5521
    1MOL0     O    3   6.115   6.089   3.465 -0.1774  0.5595 -0.7147
    1MOL0     C    4   6.215   5.993   3.469  0.4446  0.5717 -0.9302
    1MOL0     C    5   6.191   5.866   3.531 -0.5395 -0.1226  0.7707
    1MOL0     C    6   6.291   5.765   3.536  0.5329  0.0113  0.1228
    1MOL0     C    7   6.414   5.790   3.486 -0.3937 -1.0768  0.0775
    1MOL0     O    8   6.510   5.691   3.498 -0.3303  0.2592 -0.4944
    1MOL0     C    9   6.644   5.721   3.470 -0.4310 -0.4031  0.3750
    1MOL0     C   10   6.667   5.668   3.329 -0.8326  0.3393 -0.5484
    1MOL0     C   11   6.810   5.641   3.275  0.2589 -0.3497 -0.0704
    1MOL0     C   12   6.869   5.503   3.327 -0.6881 -0.1240  0.6214
    1MOL0     C   13   6.969   5.521   3.448 -0.9880 -0.2359 -0.0615
    1MOL0     C   14   7.016   5.389   3.497  0.0807  0.7355 -0.6018
    1MOL0     C   15   7.137   5.382   3.599  0.0319 -0.8022  0.0323
    1MOL0     C   16   7.262   5.341   3.517 -0.9604  0.1956 -0.4793
    1MOL0     N   17   7.314   5.444   3.428  0.8529  0.7191 -0.4747
    1MOL0     C   18   7.333   5.575   3.450  1.0914  0.5395  0.6648
    1MOL0     C   19   7.379   5.621   3.331 -0.6668 -0.5281  0.1111
    1MOL0     C   20   7.388   5.760   3.286 -1.0440 -0.1047  0.1932
    1MOL0     C   21   7.499   5.827   3.357 -0.1717  0.0054  0.4779
    1MOL0     C   22   7.472   5.975   3.343  0.3651  0.7140 -0.5435
    1MOL0     C   23   7.573   6.058   3.429 -0.6431 -0.3665  0.0865
    1MOL0     O   24   7.585   6.196   3.381  0.2565  0.3227  0.1808
    1MOL0     C   25   7.478   6.268   3.402 -0.1439  0.2355 -1.6167
    1MOL0     C   26   7.385   6.281   3.304  0.5305  0.1659 -0.4363
    1MOL0     C   27   7.275   6.363   3.325  0.0224  0.4792 -0.2011
    1MOL0     C   28   7.183   6.378   3.208  0.4753  0.0332 -0.3648
    1MOL0     C   29   7.257   6.422   3.460  0.9292 -0.4914  0.1508
    1MOL0     C   30   7.161   6.539   3.480  1.4091  0.2194 -0.0552
    1MOL0     O   31   7.078   6.564   3.376 -0.5242  0.2960  0.2825
    1MOL0     C   32   7.022   6.696   3.377  0.0663 -0.9012 -0.1720
    1MOL0     C   33   7.108   6.807   3.377 -0.3115 -0.5492  0.6076
    1MOL0     C   34   7.049   6.939   3.366  0.4374 -0.1893 -0.4307
    1MOL0     C   35   6.908   6.949   3.324  0.5924 -0.2062 -0.0803
    1MOL0     O   36   6.856   7.079   3.334  0.3338 -0.5436  0.6696
    1MOL0     C   37   6.712   7.110   3.383 -0.3119 -0.3116  0.2856
    1MOL0     C   38   6.653   7.248   3.329  0.4537  0.5861  0.0585
    1MOL0     C   39   6.514   7.283   3.394 -0.8203 -1.2446 -0.1416
    1MOL0     C   40   6.419   7.381   3.302  0.1848 -0.7570 -0.0693
    1MOL0     C   41   6.490   7.514   3.266 -0.0292 -0.1661  0.6242
    1MOL0     C   42   6.524   7.589   3.389  0.0428  0.7118  0.1078
    1MOL0     C   43   6.584   7.727   3.331  0.1454  0.4233 -0.0977
    1MOL0     C   44   6.620   7.807   3.451  0.9055 -0.2410  0.4412
    1MOL0    Cl   45   6.475   7.865   3.544 -0.1808  0.4747  0.2880
    1MOL0     C   46   6.829   6.834   3.325  0.2735  0.5547  0.1775
    1MOL0     C   47   6.885   6.709   3.349 -0.4316 -0.1089 -0.2544
    1MOL0     O   48   7.149   6.601   3.594  0.2317  0.0710  0.2340
    1MOL0     C   49   7.350   6.398   3.563  0.4064 -0.9934  0.5014
    1MOL0     C   50   7.465   6.328   3.529  0.5991  0.0140  0.1725
    1MOL0     N   51   7.405   5.514   3.245 -0.4078  0.5136  0.7349
    1MOL0     N   52   7.356   5.409   3.306  0.3999 -0.5759 -0.2008
    1MOL0     C   53   6.444   5.912   3.422 -0.0617  0.3939  0.6771
    1MOL0     C   54   6.344   6.003   3.400  0.3911  0.4569  0.3417
    1MOL0     C   55   6.004   6.292   3.444  1.2803 -1.2010  0.7906
    1MOL0     C   56   5.998   6.429   3.437 -0.5531  0.0845  0.6777
    1MOL0     C   57   5.888   6.507   3.464 -0.4523 -0.7470  0.1714
    1MOL0     C   58   5.768   6.444   3.495 -0.4604  0.9709  0.2793
    1MOL0     O   59   5.664   6.520   3.525  0.7737  0.2216 -0.8309
    1MOL0     C   60   5.541   6.475   3.469  0.3897 -1.1843 -1.2906
    1MOL0     C   61   5.413   6.559   3.509 -0.5526 -0.0821 -0.0057
    1MOL0     C   62   5.381   6.544   3.653 -0.4864 -0.7596 -0.8875
    1MOL0     C   63   5.268   6.623   3.730 -0.8451 -0.3231  0.2192
    1MOL0     C   64   5.249   6.758   3.690 -1.8131 -0.1275  0.3060
    1MOL0     C   65   5.236   6.865   3.631  0.6986  0.2523  0.5254
    1MOL0     C   66   5.763   6.303   3.492 -1.5345  0.9014 -0.6096
    1MOL0     C   67   5.883   6.229   3.474  0.2714  0.3625  0.3311
    1MOL0     H   68   6.111   5.848   3.602  0.9486 -3.6934  1.7655
    1MOL0     H   69   6.272   5.667   3.576 -0.1906 -1.9928 -4.4659
    1MOL0     H   70   6.675   5.826   3.477 -0.9092 -0.3634  2.9925
    1MOL0     H   71   6.700   5.664   3.546 -1.0726 -0.1599  1.0440
    1MOL0     H   72   6.623   5.570   3.309  4.4354 -2.1616 -1.5526
    1MOL0     H   73   6.620   5.739   3.259 -0.0814  1.2437 -0.1541
    1MOL0     H   74   6.791   5.634   3.168 -0.8809  1.2671 -0.0229
    1MOL0     H   75   6.877   5.726   3.292 -0.2476  0.4876 -1.9292
    1MOL0     H   76   6.783   5.439   3.350 -0.5217 -0.3269  0.6824
    1MOL0     H   77   6.936   5.453   3.258 -0.3885  1.9605 -0.6949
    1MOL0     H   78   7.055   5.583   3.419  1.3156 -1.7649  2.8861
    1MOL0     H   79   6.912   5.583   3.517 -1.6926  1.7338 -2.3047
    1MOL0     H   80   6.929   5.348   3.549  1.8588 -1.5245  0.7679
    1MOL0     H   81   7.038   5.319   3.415 -2.2333 -1.4462  0.5065
    1MOL0     H   82   7.146   5.481   3.646  1.7507  0.1897 -2.2030
    1MOL0     H   83   7.108   5.311   3.676 -1.1734 -2.8676 -2.2115
    1MOL0     H   84   7.251   5.251   3.456  1.3014  0.9650 -2.1342
    1MOL0     H   85   7.338   5.321   3.593  0.1545  0.7174 -1.4301
    1MOL0     H   86   7.305   5.615   3.546  1.4062 -1.0449  1.4522
    1MOL0     H   87   7.408   5.765   3.179  5.7780  1.9625  1.1037
    1MOL0     H   88   7.300   5.813   3.324 -2.1633 -1.3080 -0.6582
    1MOL0     H   89   7.589   5.808   3.298 -0.9005  0.0346 -0.6808
    1MOL0     H   90   7.502   5.794   3.462 -1.7468  2.0192  1.2163
    1MOL0     H   91   7.371   6.003   3.376 -0.4926 -2.1575 -0.4114
    1MOL0     H   92   7.498   6.005   3.241  3.6383 -0.2985 -0.1316
    1MOL0     H   93   7.670   6.010   3.422  0.9181  2.1618  2.5322
    1MOL0     H   94   7.546   6.075   3.533 -0.9902  3.4999 -0.4574
    1MOL0     H   95   7.394   6.242   3.203  0.6962  1.7092 -1.0392
    1MOL0     H   96   7.078   6.396   3.231  0.0888 -3.2810  1.1181
    1MOL0     H   97   7.215   6.453   3.135 -0.8310  1.8881  0.9092
    1MOL0     H   98   7.182   6.284   3.151  1.9212 -0.2711  0.0650
    1MOL0     H   99   7.211   6.796   3.408 -0.2462 -2.2589 -0.0964
    1MOL0     H  100   7.108   7.029   3.381  1.2739 -0.2802 -2.8102
    1MOL0     H  101   6.641   7.038   3.342 -0.1395  1.0833 -2.7031
    1MOL0     H  102   6.699   7.103   3.491 -1.5946 -0.2460  0.1506
    1MOL0     H  103   6.724   7.324   3.366  1.5778  0.2630 -1.3251
    1MOL0     H  104   6.643   7.243   3.220 -0.9512 -0.5584  0.2182
    1MOL0     H  105   6.538   7.324   3.493  1.9025 -1.7348 -0.5394
    1MOL0     H  106   6.455   7.196   3.426 -1.4493 -1.5692 -2.0365
    1MOL0     H  107   6.385   7.313   3.223 -1.6321 -1.6266  1.3746
    1MOL0     H  108   6.329   7.408   3.357  2.0610 -1.7902  3.8813
    1MOL0     H  109   6.417   7.570   3.208  1.3044 -1.6961 -2.8122
    1MOL0     H  110   6.583   7.493   3.212 -1.0123 -2.0043 -0.4432
    1MOL0     H  111   6.436   7.602   3.453 -2.1365 -0.8983 -2.3474
    1MOL0     H  112   6.586   7.528   3.455 -1.3882  0.2504  1.0815
    1MOL0     H  113   6.506   7.786   3.283 -2.5102 -0.5630  2.6994
    1MOL0     H  114   6.655   7.709   3.250 -1.9009 -0.1144 -1.8564
    1MOL0     H  115   6.676   7.898   3.428 -0.0085  0.7518  1.9645
    1MOL0     H  116   6.686   7.744   3.512  1.8347  0.6565  0.3916
    1MOL0     H  117   6.723   6.852   3.317  0.6242  3.4294  0.9600
    1MOL0     H  118   6.830   6.615   3.350 -0.3080 -0.2347  2.4544
    1MOL0     H  119   7.333   6.445   3.659  0.2658  1.6859 -0.7368
    1MOL0     H  120   7.537   6.332   3.611  0.6844  2.1435  0.0328
    1MOL0     H  121   6.536   5.924   3.366 -0.9825  3.7037 -0.3371
    1MOL0     H  122   6.366   6.095   3.346  1.3810  0.4988  0.7966
    1MOL0     H  123   6.095   6.476   3.425 -1.0847  1.3690  1.2750
    1MOL0     H  124   5.883   6.614   3.480  2.3735 -0.6975  1.2121
    1MOL0     H  125   5.542   6.461   3.360 -2.9471 -2.9322 -1.2242
    1MOL0     H  126   5.515   6.380   3.514 -3.5239  0.7278  0.9883
    1MOL0     H  127   5.330   6.520   3.450  1.0059 -1.2643 -1.5039
    1MOL0     H  128   5.426   6.661   3.472  0.2846  1.0870  3.1460
    1MOL0     H  129   5.469   6.566   3.715 -1.2097 -1.3026  0.3735
    1MOL0     H  130   5.356   6.439   3.670  1.4195 -0.9399  1.3266
    1MOL0     H  131   5.289   6.616   3.837 -0.9734  0.8761  0.3262
    1MOL0     H  132   5.180   6.562   3.707 -1.0506  0.2237 -0.4736
    1MOL0     H  133   5.220   6.961   3.586 -2.2972 -0.3115  0.1648
    1MOL0     H  134   5.670   6.252   3.515 -0.2260 -2.0190 -1.3775
    1MOL0     H  135   5.868   6.122   3.483 -3.6917  0.5350 -1.9442
    2MOL0     O  136   4.015  10.786   2.822 -0.4562  0.1978  0.2746
    2MOL0     C  137   4.015  10.664   2.831  0.7889 -0.0131  0.4766
    2MOL0     O  138   4.015  10.586   2.736  0.1339  0.3042 -0.3535
    2MOL0     C  139   4.020  10.634   2.604 -0.5186 -0.0566 -0.1845
    2MOL0     C  140   4.138  10.675   2.538 -0.3574  0.8430 -0.0384
    2MOL0     C  141   4.140  10.712   2.401 -0.4561  0.2022 -0.5113
    2MOL0     C  142   4.016  10.741   2.336  0.4411  0.8892 -0.8566
    2MOL0     O  143   4.016  10.822   2.232  0.5068  0.2504  0.4394
    2MOL0     C  144   4.088  10.935   2.235 -0.2063 -0.3446  0.2113
    2MOL0     C  145   4.069  11.022   2.115  0.4146  0.3149 -1.1755
    2MOL0     C  146   4.162  11.133   2.086 -0.4482 -0.5171 -0.2941
    2MOL0     C  147   4.120  11.234   1.971  1.0119 -0.0833  0.3673
    2MOL0     C  148   4.218  11.352   1.955 -0.9013  0.7092  0.0284
    2MOL0     C  149   4.180  11.463   1.861  0.6609 -0.4638 -0.2834
    2MOL0     C  150   4.303  11.538   1.805  0.2564 -0.3185 -0.2523
    2MOL0     C  151   4.336  11.483   1.662  0.2387  0.7007 -0.5895
    2MOL0     N  152   4.405  11.359   1.668  0.1106  0.5545  0.1058
    2MOL0     C  153   4.540  11.329   1.698  0.7249 -0.6907  0.6278
    2MOL0     C  154   4.537  11.194   1.677  0.9301 -0.6825 -0.3435
    2MOL0     C  155   4.659  11.102   1.675 -0.6482 -1.3210 -0.2401
    2MOL0     C  156   4.731  11.108   1.806 -1.1852 -0.3138  1.2861
    2MOL0     C  157   4.650  11.065   1.921 -1.0128  0.5633  0.4016
    2MOL0     C  158   4.717  11.061   2.058 -0.5667 -0.2950 -0.2891
    2MOL0     O  159   4.627  11.024   2.168  0.4463  0.1567 -0.4851
    2MOL0     C  160   4.547  11.122   2.226 -0.6847  0.1014 -0.6753
    2MOL0     C  161   4.466  11.062   2.319  1.0657  0.3274  0.6808
    2MOL0     C  162   4.363  11.131   2.386 -0.0955 -0.9593  0.1096
    2MOL0     C  163   4.292  11.042   2.489 -0.0957 -0.0816  0.6711
    2MOL0     C  164   4.344  11.269   2.369  0.3259 -0.6557 -0.3629
    2MOL0     C  165   4.257  11.364   2.453  0.1122  0.7402  0.7533
    2MOL0     O  166   4.220  11.485   2.391  0.0759  0.4912 -0.1522
    2MOL0     C  167   4.118  11.548   2.441 -0.2929 -0.3441 -0.0085
    2MOL0     C  168   3.998  11.534   2.383 -0.0010  0.2381 -0.4215
    2MOL0     C  169   3.887  11.602   2.432 -0.7039  0.8981 -0.9440
    2MOL0     C  170   3.893  11.680   2.542  0.4126 -1.8305 -0.0201
    2MOL0     O  171   3.778  11.747   2.590  0.1849 -0.4290  0.1314
    2MOL0     C  172   3.748  11.720   2.728 -0.5685 -0.5052 -0.7882
    2MOL0     C  173   3.751  11.570   2.769 -0.5152 -0.8530  0.3109
    2MOL0     C  174   3.708  11.549   2.916 -0.0810 -0.3113  0.3163
    2MOL0     C  175   3.808  11.616   3.016 -0.1566  0.6124 -0.3454
    2MOL0     C  176   3.799  11.545   3.152 -0.2931 -0.5384 -0.7276
    2MOL0     C  177   3.929  11.570   3.235  0.2612  0.2050 -0.3416
    2MOL0     C  178   3.896  11.538   3.387  0.0555 -0.0031 -0.1668
    2MOL0     C  179   4.010  11.581   3.472 -0.3695  0.3387 -0.1609
    2MOL0    Cl  180   4.033  11.754   3.498 -0.6541 -0.5369 -0.2897
    2MOL0     C  181   4.013  11.684   2.616 -0.2615  0.3441  0.4899
    2MOL0     C  182   4.126  11.611   2.562  0.8876  0.2999  0.3354
    2MOL0     O  183   4.227  11.333   2.569 -0.3368 -0.3362  0.3518
    2MOL0     C  184   4.425  11.335   2.275  0.5411  0.5278  0.9941
    2MOL0     C  185   4.533  11.260   2.206  1.4662  0.5818  0.2893
    2MOL0     N  186   4.418  11.136   1.651  0.1698  0.2723 -0.3433
    2MOL0     N  187   4.346  11.236   1.630 -0.1341 -1.0658 -0.5017
    2MOL0     C  188   3.907  10.677   2.399  0.2738  0.2112  0.9752
    2MOL0     C  189   3.907  10.631   2.523 -0.1280  0.3678 -0.0724
    2MOL0     C  190   4.018  10.604   2.970 -0.6759 -0.2674 -0.1849
    2MOL0     C  191   4.021  10.468   2.980  0.6672 -0.0371 -0.5089
    2MOL0     C  192   4.020  10.408   3.109  0.1507  0.1584  0.0507
    2MOL0     C  193   3.995  10.480   3.227 -0.1492  0.6802  0.0746
    2MOL0     O  194   3.998  10.417   3.351  0.0324  0.0908 -0.5260
    2MOL0     C  195   3.934  10.290   3.374  0.2026  0.4158  0.2884
    2MOL0     C  196   3.877  10.291   3.510 -0.4318  0.0389  0.0367
    2MOL0     C  197   3.819  10.154   3.556  0.6739  0.0802 -0.0857
    2MOL0     C  198   3.800  10.165   3.710 -0.1716 -0.6583 -1.7987
    2MOL0     C  199   3.710  10.058   3.735  0.1434 -0.5477 -0.0091
    2MOL0     C  200   3.635   9.971   3.766 -0.8133  0.8649 -1.3574
    2MOL0     C  201   3.988  10.619   3.209 -0.4309  0.1292  0.2797
    2MOL0     C  202   4.005  10.685   3.084 -0.1869 -0.1478 -0.0923
    2MOL0     H  203   4.224  10.671   2.604 -0.8607 -0.5000  0.5803
    2MOL0     H  204   4.235  10.745   2.360 -1.4505  3.5414 -0.3529
    2MOL0     H  205   4.064  11.007   2.313  1.1834  2.3847 -1.6950
    2MOL0     H  206   4.196  10.918   2.247 -0.3120 -2.6294 -1.3375
    2MOL0     H  207   4.059  10.955   2.029 -0.0144 -1.9542  0.5363
    2MOL0     H  208   3.971  11.070   2.118 -0.9304 -2.1221 -2.7535
    2MOL0     H  209   4.171  11.197   2.174  0.6935  0.9575 -1.4230
    2MOL0     H  210   4.262  11.098   2.057  0.2146  0.8017  0.2939
    2MOL0     H  211   4.119  11.178   1.876  2.1223  1.6242 -0.7083
    2MOL0     H  212   4.017  11.270   1.982  1.1038  1.1491 -1.9860
    2MOL0     H  213   4.224  11.405   2.050 -2.7693 -0.7293  1.0438
    2MOL0     H  214   4.319  11.322   1.926 -0.7214  3.8140 -3.2122
    2MOL0     H  215   4.098  11.427   1.798 -1.3296  1.2800  1.1482
    2MOL0     H  216   4.113  11.534   1.911  0.0905 -0.3983 -1.1102
    2MOL0     H  217   4.282  11.646   1.798  0.1246 -0.1669  1.7760
    2MOL0     H  218   4.389  11.546   1.872  2.2559  1.4314 -2.8387
    2MOL0     H  219   4.402  11.552   1.608  1.5064  0.8572  1.0701
    2MOL0     H  220   4.242  11.477   1.607  0.4955  0.6465 -1.0307
    2MOL0     H  221   4.618  11.393   1.739  2.4232 -1.8657 -0.6208
    2MOL0     H  222   4.622  11.005   1.642 -2.5864 -0.5694 -0.3767
    2MOL0     H  223   4.730  11.133   1.598 -2.4116 -0.8167 -1.7486
    2MOL0     H  224   4.759  11.213   1.821  3.0159 -1.1580  0.4110
    2MOL0     H  225   4.827  11.056   1.800 -1.3530 -0.7298  2.1543
    2MOL0     H  226   4.622  10.964   1.889  2.6022  0.1542 -2.0942
    2MOL0     H  227   4.563  11.130   1.930  1.0150  3.3731  1.2202
    2MOL0     H  228   4.757  11.161   2.078 -0.7780  0.2250 -2.2611
    2MOL0     H  229   4.799  10.990   2.056  0.0256  0.3086  1.0925
    2MOL0     H  230   4.466  10.954   2.330 -0.2086 -0.0192 -2.0360
    2MOL0     H  231   4.186  11.070   2.498 -0.3528 -1.3911  2.0676
    2MOL0     H  232   4.298  10.936   2.464  1.2499 -0.0434  0.7864
    2MOL0     H  233   4.346  11.051   2.583  1.5346 -1.5294 -0.0863
    2MOL0     H  234   3.980  11.472   2.296  0.5238 -0.5832  0.0330
    2MOL0     H  235   3.795  11.602   2.375 -0.8346 -0.9227 -0.7692
    2MOL0     H  236   3.812  11.779   2.795 -1.1118 -1.0522  0.2342
    2MOL0     H  237   3.645  11.754   2.743 -0.1709  1.0108 -1.2518
    2MOL0     H  238   3.707  11.502   2.694 -2.7775  0.6225  0.2119
    2MOL0     H  239   3.854  11.532   2.769 -0.6557 -1.3408  2.3176
    2MOL0     H  240   3.684  11.443   2.931  1.7364 -1.0874 -1.7504
    2MOL0     H  241   3.620  11.613   2.934  0.3320  0.5523 -0.6341
    2MOL0     H  242   3.908  11.599   2.975 -0.5860  0.1597 -1.2266
    2MOL0     H  243   3.789  11.724   3.011 -2.8066  0.3682  1.9053
    2MOL0     H  244   3.794  11.436   3.144 -2.1110 -0.6665  1.1610
    2MOL0     H  245   3.713  11.583   3.208 -0.0818 -2.0037  0.6679
    2MOL0     H  246   4.014  11.504   3.214 -1.4548 -2.2231 -0.1303
    2MOL0     H  247   3.958  11.675   3.244 -0.1242  0.1581  2.4120
    2MOL0     H  248   3.901  11.429   3.396  1.8119  0.0794  0.1231
    2MOL0     H  249   3.796  11.577   3.406 -0.7720 -0.1934 -3.5429
    2MOL0     H  250   4.102  11.552   3.420 -0.6708 -1.6241  0.3582
    2MOL0     H  251   4.012  11.527   3.567 -0.8045  1.0349  0.2577
    2MOL0     H  252   4.032  11.741   2.706 -0.2251 -2.2349  2.2303
    2MOL0     H  253   4.219  11.599   2.616 -0.3925 -0.0852  2.5687
    2MOL0     H  254   4.430  11.440   2.250  1.4581  0.2233 -0.1797
    2MOL0     H  255   4.590  11.305   2.126 -1.9847 -1.7999 -3.9711
    2MOL0     H  256   3.826  10.672   2.328  1.3576  1.6376 -0.4441
    2MOL0     H  257   3.810  10.598   2.559 -0.0990  1.1879  0.8017
    2MOL0     H  258   4.048  10.397   2.902  2.1635 -2.4189  1.9943
    2MOL0     H  259   4.040  10.301   3.110 -0.1242  0.0953 -0.7331
    2MOL0     H  260   3.850  10.273   3.306 -0.7515  1.6810  1.1224
    2MOL0     H  261   4.010  10.211   3.371  1.2142  1.3432  1.1250
    2MOL0     H  262   3.790  10.358   3.520  0.3912  1.3474 -1.2029
    2MOL0     H  263   3.962  10.313   3.575 -2.2199 -0.4490  2.7167
    2MOL0     H  264   3.893  10.078   3.530 -0.1262 -0.4956 -0.7502
    2MOL0     H  265   3.731  10.120   3.501  2.1408 -2.0442 -1.3179
    2MOL0     H  266   3.754  10.261   3.734 -4.8131 -3.3107  1.8997
    2MOL0     H  267   3.891  10.163   3.771 -2.4446  1.4381  2.0893
    2MOL0     H  268   3.562   9.895   3.786 -0.3653 -0.3201 -3.9153
    2MOL0     H  269   3.961  10.696   3.281  1.5337  1.7916 -0.6594
    2MOL0     H  270   3.994  10.793   3.077  1.4810  0.3510  2.9474
    3MOL0     O  271   3.440   4.094  10.146  0.3614  0.0117 -1.3345
    3MOL0     C  272   3.493   4.175  10.081  0.0414 -0.2739  0.2845
    3MOL0     O  273   3.431   4.250   9.987 -0.6288 -0.7372  0.6906
    3MOL0     C  274   3.304   4.229   9.945  0.1439 -0.1564 -0.3876
    3MOL0     C  275   3.286   4.222   9.805 -0.8596  0.0089 -0.7060
    3MOL0     C  276   3.156   4.209   9.755 -0.3866  0.0257  0.2879
    3MOL0     C  277   3.041   4.197   9.828 -0.2919 -1.1448  0.0708
    3MOL0     O  278   2.919   4.190   9.781  0.5276 -0.4187 -0.7588
    3MOL0     C  279   2.897   4.201   9.639 -0.9407 -1.0790 -0.0375
    3MOL0     C  280   2.901   4.348   9.594  0.1776 -0.0804  0.3077
    3MOL0     C  281   2.878   4.359   9.442  0.2236 -1.0412 -0.7216
    3MOL0     C  282   2.989   4.325   9.344 -0.1889 -0.5011  0.4428
    3MOL0     C  283   2.965   4.363   9.199  0.0968 -0.5497 -0.1490
    3MOL0     C  284   3.097   4.364   9.115 -0.6690 -0.2109 -0.1450
    3MOL0     C  285   3.201   4.473   9.168  0.1591 -0.0026  1.0697
    3MOL0     C  286   3.319   4.486   9.073  0.2158 -0.9736  0.2393
    3MOL0     N  287   3.385   4.364   9.041 -0.3775  0.2187 -0.2958
    3MOL0     C  288   3.423   4.317   8.918  0.1469  0.4293 -0.7799
    3MOL0     C  289   3.501   4.210   8.946  0.2287  0.0938  0.2083
    3MOL0     C  290   3.568   4.118   8.840  1.1932 -0.5274 -0.2270
    3MOL0     C  291   3.716   4.124   8.847 -0.3294 -0.9144  0.9095
    3MOL0     C  292   3.782   4.044   8.958  0.2753  0.3096 -0.0100
    3MOL0     C  293   3.934   4.034   8.960 -0.0543 -0.7285 -1.1738
    3MOL0     O  294   3.997   4.159   8.918  0.2381 -0.3603  0.4518
    3MOL0     C  295   4.132   4.153   8.917 -0.1594  0.0584  0.7043
    3MOL0     C  296   4.187   4.277   8.894 -0.3580 -0.3316 -0.0922
    3MOL0     C  297   4.319   4.301   8.892  0.3099  0.9004 -0.0788
    3MOL0     C  298   4.364   4.433   8.847  0.3183  0.9820  0.7918
    3MOL0     C  299   4.412   4.188   8.905  0.4836  0.6824 -0.3085
    3MOL0     C  300   4.559   4.194   8.881  0.6232  0.5746  0.1734
    3MOL0     O  301   4.635   4.119   8.966  0.9386  0.3784 -0.5995
    3MOL0     C  302   4.772   4.105   8.972 -0.1312 -0.0177 -0.3230
    3MOL0     C  303   4.878   4.193   8.918  0.7382 -0.3003  0.3950
    3MOL0     C  304   5.017   4.164   8.938 -0.5190 -0.3039 -0.4167
    3MOL0     C  305   5.056   4.050   9.015  0.5925 -0.4897  0.6264
    3MOL0     O  306   5.183   4.015   9.034  0.2150 -0.4589  0.3375
    3MOL0     C  307   5.254   3.968   8.920  0.0910  0.4137 -0.6634
    3MOL0     C  308   5.368   3.862   8.956  0.6718 -0.3184 -0.2263
    3MOL0     C  309   5.435   3.799   8.828 -0.7711  0.0732  0.3123
    3MOL0     C  310   5.520   3.668   8.840  0.8254 -0.4270 -1.0273
    3MOL0     C  311   5.550   3.593   8.710 -0.1415  0.1031 -0.5242
    3MOL0     C  312   5.659   3.656   8.614  0.3844 -0.1707 -0.9509
    3MOL0     C  313   5.802   3.649   8.676  0.5510  0.3330 -0.1845
    3MOL0     C  314   5.903   3.751   8.624  1.2270 -0.2083  0.1338
    3MOL0    Cl  315   5.917   3.719   8.441  0.5463  0.4407  0.1504
    3MOL0     C  316   4.954   3.968   9.060  0.3534  1.0775 -0.0370
    3MOL0     C  317   4.822   3.990   9.037 -0.1368  0.7993  0.2372
    3MOL0     O  318   4.607   4.260   8.788  0.0823 -0.1538 -0.0340
    3MOL0     C  319   4.354   4.065   8.931  1.5375 -0.0380  0.3392
    3MOL0     C  320   4.219   4.045   8.934  0.2232 -0.0112 -1.3530
    3MOL0     N  321   3.519   4.197   9.085 -1.4442 -0.1688 -0.7644
    3MOL0     N  322   3.441   4.287   9.141  0.1971 -0.0853  0.2460
    3MOL0     C  323   3.058   4.210   9.967  0.2183  0.2524 -1.2879
    3MOL0     C  324   3.187   4.220  10.024  0.7159  0.7881  0.0709
    3MOL0     C  325   3.629   4.212  10.122 -0.3341  0.3897  0.2922
    3MOL0     C  326   3.681   4.336  10.094  0.2926  0.2458  0.4226
    3MOL0     C  327   3.811   4.368  10.144 -0.2980 -0.3014  0.1392
    3MOL0     C  328   3.891   4.267  10.204 -1.0279 -0.1656 -0.4616
    3MOL0     O  329   4.018   4.308  10.248 -0.1359  0.3001 -0.0223
    3MOL0     C  330   4.106   4.212  10.317  0.1880  0.6478 -0.8012
    3MOL0     C  331   4.086   4.187  10.469 -0.1203  0.0784  0.2977
    3MOL0     C  332   4.078   4.313  10.557  0.4848  0.2199  0.1639
    3MOL0     C  333   4.191   4.416  10.559  0.7304 -0.3899 -0.5407
    3MOL0     C  334   4.312   4.343  10.606 -0.0502 -0.6849  0.0627
    3MOL0     C  335   4.371   4.272  10.681 -0.9839 -0.8378  0.4176
    3MOL0     C  336   3.846   4.135  10.214 -0.0341 -0.1253 -0.6530
    3MOL0     C  337   3.712   4.107  10.175  0.3451 -0.9520  0.2804
    3MOL0     H  338   3.363   4.205   9.731 -0.8336 -2.1082 -0.2440
    3MOL0     H  339   3.148   4.207   9.647 -3.2422 -0.4052  0.4345
    3MOL0     H  340   2.971   4.139   9.587 -0.2877 -0.4449  0.1172
    3MOL0     H  341   2.794   4.178   9.610 -3.0754  6.3376 -0.4915
    3MOL0     H  342   2.823   4.394   9.655  0.1567 -1.3270  1.2501
    3MOL0     H  343   3.000   4.387   9.618  0.5475  0.6633 -2.1162
    3MOL0     H  344   2.794   4.301   9.401 -0.5201 -0.3790 -0.1717
    3MOL0     H  345   2.851   4.464   9.428  3.1943 -0.0796  0.0582
    3MOL0     H  346   3.076   4.386   9.371  0.2412 -1.2428  0.8038
    3MOL0     H  347   3.026   4.223   9.360  3.7644  1.0105  2.4110
    3MOL0     H  348   2.897   4.287   9.161 -0.7718 -1.1867  2.4533
    3MOL0     H  349   2.901   4.452   9.200  0.4346 -0.2814 -1.0505
    3MOL0     H  350   3.146   4.266   9.115 -0.5222 -0.1475  0.7339
    3MOL0     H  351   3.058   4.394   9.017 -3.9241 -1.2327  0.6814
    3MOL0     H  352   3.159   4.574   9.162 -0.6482 -0.4293 -2.6922
    3MOL0     H  353   3.239   4.437   9.264 -2.0394 -0.9936  1.6367
    3MOL0     H  354   3.379   4.555   9.133 -0.2844  0.6692 -1.0598
    3MOL0     H  355   3.291   4.537   8.980  5.2977  2.4931  0.1884
    3MOL0     H  356   3.383   4.337   8.820  0.1764  0.0755 -0.8658
    3MOL0     H  357   3.540   4.014   8.855  1.3573 -0.3190  1.8237
    3MOL0     H  358   3.540   4.139   8.736  0.5125 -1.3344 -0.2171
    3MOL0     H  359   3.749   4.227   8.834 -2.1993 -0.0836  2.3444
    3MOL0     H  360   3.742   4.066   8.757 -0.3992 -0.1668  0.3972
    3MOL0     H  361   3.739   3.943   8.953  1.7571 -0.2949 -1.0624
    3MOL0     H  362   3.740   4.080   9.053 -4.6853 -4.0050 -0.1062
    3MOL0     H  363   3.955   3.958   8.884 -3.0751 -0.2146 -2.6376
    3MOL0     H  364   3.949   3.989   9.058 -5.6641 -4.5836 -1.6139
    3MOL0     H  365   4.116   4.355   8.869  1.9097  1.4119 -1.5537
    3MOL0     H  366   4.340   4.456   8.743  4.2150  1.0261 -0.2853
    3MOL0     H  367   4.321   4.517   8.901  1.7150  1.3238  1.4181
    3MOL0     H  368   4.470   4.461   8.854  0.6055  0.0643  0.3471
    3MOL0     H  369   4.860   4.285   8.863  1.2577 -1.2177 -1.4095
    3MOL0     H  370   5.089   4.242   8.914 -0.0861 -0.6118 -0.1516
    3MOL0     H  371   5.181   3.927   8.850 -0.3534  4.1144 -2.5802
    3MOL0     H  372   5.304   4.046   8.864 -2.6485 -0.1634 -4.2878
    3MOL0     H  373   5.434   3.897   9.035 -0.8980  0.1810  0.9125
    3MOL0     H  374   5.319   3.778   9.005 -0.6257  1.1270  1.0622
    3MOL0     H  375   5.497   3.873   8.776 -2.0073 -1.4084 -3.6788
    3MOL0     H  376   5.348   3.775   8.766 -0.0127  2.0549 -1.6957
    3MOL0     H  377   5.616   3.697   8.883 -1.0520  0.5270  2.9565
    3MOL0     H  378   5.477   3.601   8.915  1.8204  0.7723  0.6801
    3MOL0     H  379   5.453   3.600   8.660 -0.4417  2.8264  0.2717
    3MOL0     H  380   5.568   3.488   8.732 -1.3541 -0.4658 -2.1036
    3MOL0     H  381   5.656   3.609   8.516 -2.6610 -2.1635 -0.0182
    3MOL0     H  382   5.639   3.760   8.587  1.1170  0.3815  0.4675
    3MOL0     H  383   5.843   3.554   8.640  0.2226  0.4370 -0.8491
    3MOL0     H  384   5.782   3.647   8.783  0.4037  0.6988 -0.2020
    3MOL0     H  385   6.006   3.753   8.659  1.2355 -0.3970  0.1242
    3MOL0     H  386   5.868   3.852   8.646  1.8662  0.1060 -0.2611
    3MOL0     H  387   4.978   3.874   9.111  0.5630 -0.0388 -2.1006
    3MOL0     H  388   4.745   3.921   9.071 -0.1371 -0.4868 -2.1976
    3MOL0     H  389   4.415   3.977   8.916 -3.3272 -3.5106 -1.5978
    3MOL0     H  390   4.199   3.939   8.940  0.0705  0.0065 -1.5289
    3MOL0     H  391   2.969   4.204  10.030 -2.4057  0.2429 -4.7184
    3MOL0     H  392   3.195   4.234  10.131 -3.3718 -3.5033  1.2559
    3MOL0     H  393   3.615   4.407  10.046  2.4588  2.6161  0.7318
    3MOL0     H  394   3.854   4.467  10.135  1.5122 -1.1518 -1.2893
    3MOL0     H  395   4.118   4.114  10.271 -0.4409  1.0342 -1.8141
    3MOL0     H  396   4.200   4.268  10.308  0.1543  0.7661 -0.4472
    3MOL0     H  397   4.171   4.130  10.508  3.4496  3.5604 -1.6949
    3MOL0     H  398   3.995   4.129  10.484  1.1034 -2.5906 -1.7046
    3MOL0     H  399   4.058   4.272  10.657 -2.8606  1.0641 -0.0189
    3MOL0     H  400   3.982   4.360  10.532  0.7943  0.2118 -1.0661
    3MOL0     H  401   4.170   4.500  10.626  2.0717  0.4706 -1.1439
    3MOL0     H  402   4.200   4.461  10.459 -0.4839 -0.7235 -0.8218
    3MOL0     H  403   4.420   4.201  10.745 -0.1254  1.5222  2.5699
    3MOL0     H  404   3.905   4.050  10.247  2.7017  0.8123 -2.7269
    3MOL0     H  405   3.664   4.011  10.192 -1.6086 -0.0787  0.0213
    4MOL0     O  406   8.138   2.501   7.366  0.4166  0.3280 -0.2534
    4MOL0     C  407   8.187   2.577   7.449 -0.1280 -0.4078  0.1091
    4MOL0     O  408   8.272   2.544   7.548  0.4925 -0.7250  0.5351
    4MOL0     C  409   8.353   2.432   7.559 -0.2596 -0.3584  0.7452
    4MOL0     C  410   8.368   2.325   7.473  0.0225  0.1044  0.6392
    4MOL0     C  411   8.470   2.234   7.493  0.5310 -0.1110 -1.1022
    4MOL0     C  412   8.560   2.244   7.607  0.9736 -0.7329 -0.0402
    4MOL0     O  413   8.662   2.152   7.608 -0.5183 -0.4139  0.0795
    4MOL0     C  414   8.772   2.187   7.697 -0.1197 -0.1740  0.2163
    4MOL0     C  415   8.900   2.112   7.673  0.5622 -0.4131 -0.3565
    4MOL0     C  416   8.884   1.955   7.691  0.2118 -0.2481 -0.4377
    4MOL0     C  417   8.870   1.884   7.554  0.2242  0.6611 -0.0946
    4MOL0     C  418   8.948   1.745   7.552 -1.0971 -0.1040  0.2878
    4MOL0     C  419   9.096   1.761   7.528 -0.3024  0.0620  0.2536
    4MOL0     C  420   9.164   1.629   7.513  0.5033 -1.2114  0.7148
    4MOL0     C  421   9.321   1.648   7.524  0.5372  0.0467  0.4276
    4MOL0     N  422   9.386   1.552   7.441 -0.0587 -0.5743  0.5549
    4MOL0     C  423   9.426   1.566   7.309  0.8147  0.6914 -0.1768
    4MOL0     C  424   9.483   1.443   7.292  0.3254 -1.2881 -0.0679
    4MOL0     C  425   9.553   1.411   7.158 -0.8097  0.0045  0.1461
    4MOL0     C  426   9.692   1.456   7.155 -0.8719  0.4332  0.1254
    4MOL0     C  427   9.716   1.595   7.076 -0.3432 -0.3318  0.0010
    4MOL0     C  428   9.854   1.655   7.104 -0.3182 -0.2922  0.1204
    4MOL0     O  429   9.846   1.798   7.142 -0.1931 -0.5359  0.7556
    4MOL0     C  430   9.788   1.833   7.256 -0.3533  0.5236 -0.5844
    4MOL0     C  431   9.767   1.965   7.290  0.4774 -0.6216 -1.3071
    4MOL0     C  432   9.718   2.016   7.411  1.2593  0.7662  0.2527
    4MOL0     C  433   9.680   2.166   7.412 -0.6445  0.4577  0.1075
    4MOL0     C  434   9.672   1.919   7.506 -0.2657 -0.4707 -0.0234
    4MOL0     C  435   9.581   1.951   7.629 -1.3539 -0.2507  0.5874
    4MOL0     O  436   9.587   2.073   7.678 -1.1217 -0.3717  0.4093
    4MOL0     C  437   9.499   2.097   7.783 -0.2825 -0.5040  0.9670
    4MOL0     C  438   9.558   2.124   7.902 -0.5858 -0.1151 -0.4377
    4MOL0     C  439   9.473   2.144   8.017  0.0283  0.6303  0.4650
    4MOL0     C  440   9.331   2.152   7.996  0.0055  0.1922 -0.3114
    4MOL0     O  441   9.251   2.186   8.095 -0.0361  0.1062 -0.5988
    4MOL0     C  442   9.173   2.071   8.135 -0.4792 -0.4904  0.0953
    4MOL0     C  443   9.094   2.120   8.254  0.0914 -0.0202  1.0777
    4MOL0     C  444   8.950   2.089   8.220 -0.1655  0.3621  0.0907
    4MOL0     C  445   8.870   2.132   8.338 -1.3080  0.1803 -0.5422
    4MOL0     C  446   8.719   2.110   8.310  0.0896  0.1736 -0.1144
    4MOL0     C  447   8.656   2.246   8.283  0.5385  0.1056  0.8558
    4MOL0     C  448   8.496   2.233   8.259 -0.6261  0.6649 -0.0576
    4MOL0     C  449   8.435   2.170   8.380  1.5928  0.0030 -0.6500
    4MOL0    Cl  450   8.489   2.238   8.529 -0.0183  0.3395 -0.3287
    4MOL0     C  451   9.278   2.146   7.868 -0.0648 -0.4287 -0.3769
    4MOL0     C  452   9.356   2.105   7.769  0.9163 -0.6098 -0.1551
    4MOL0     O  453   9.505   1.862   7.668  0.1755  0.7367  0.3782
    4MOL0     C  454   9.692   1.783   7.481  0.4291  0.0429  0.2935
    4MOL0     C  455   9.755   1.745   7.361  1.0380  0.4337 -0.3602
    4MOL0     N  456   9.469   1.357   7.399 -0.9176 -0.3114  0.9252
    4MOL0     N  457   9.403   1.422   7.488  0.0080 -0.5853  0.9392
    4MOL0     C  458   8.522   2.338   7.709 -1.1438  1.2424  0.1512
    4MOL0     C  459   8.415   2.427   7.678 -0.2369  0.2079 -0.2236
    4MOL0     C  460   8.140   2.718   7.423 -0.6637  0.5731 -0.1508
    4MOL0     C  461   8.029   2.740   7.349  0.6184 -0.1631  0.8838
    4MOL0     C  462   7.983   2.876   7.339  0.6552 -0.1098 -1.0377
    4MOL0     C  463   8.042   2.979   7.421  0.7432 -0.3814 -0.5012
    4MOL0     O  464   7.987   3.104   7.440 -0.9748 -0.1150 -0.8918
    4MOL0     C  465   7.876   3.138   7.361 -0.4500 -0.7521  0.1044
    4MOL0     C  466   7.855   3.284   7.366 -0.5401 -1.0230  0.9217
    4MOL0     C  467   7.738   3.332   7.283  0.5199 -0.2854 -0.3257
    4MOL0     C  468   7.781   3.377   7.142 -0.1557  0.4168  0.6264
    4MOL0     C  469   7.677   3.421   7.053  0.0981  0.6954 -0.1588
    4MOL0     C  470   7.597   3.457   6.975  1.2918  0.2545  1.0600
    4MOL0     C  471   8.151   2.950   7.500  0.2538 -0.0943 -0.4579
    4MOL0     C  472   8.197   2.816   7.497 -0.6565 -0.1166 -0.0346
    4MOL0     H  473   8.297   2.305   7.394 -1.3078  0.2099  1.7815
    4MOL0     H  474   8.493   2.151   7.428  0.3625 -0.6030 -0.5413
    4MOL0     H  475   8.807   2.287   7.669  0.4478 -0.5666 -0.5372
    4MOL0     H  476   8.743   2.188   7.802  1.6765  0.4353  0.7428
    4MOL0     H  477   8.932   2.133   7.571 -0.6400  0.7058 -0.5199
    4MOL0     H  478   8.975   2.149   7.743 -0.6771  1.6432 -0.0595
    4MOL0     H  479   8.965   1.921   7.756 -1.8119  1.5988  3.3728
    4MOL0     H  480   8.790   1.949   7.747 -1.4948  3.8363 -2.4542
    4MOL0     H  481   8.763   1.865   7.542  0.2351 -0.3511  1.1337
    4MOL0     H  482   8.918   1.944   7.477  1.6585  0.3508  0.5343
    4MOL0     H  483   8.936   1.694   7.648 -1.7749  1.4272  1.0496
    4MOL0     H  484   8.900   1.685   7.474 -1.3719  1.3534 -0.7077
    4MOL0     H  485   9.117   1.823   7.440  3.8337  0.1257  1.0679
    4MOL0     H  486   9.132   1.819   7.613 -4.4372  1.2720  1.4183
    4MOL0     H  487   9.123   1.557   7.584  0.6291 -1.4071  0.5923
    4MOL0     H  488   9.154   1.597   7.409 -3.3418 -1.6429  1.0771
    4MOL0     H  489   9.342   1.645   7.632  0.1372  0.7463  0.5258
    4MOL0     H  490   9.340   1.752   7.498 -4.2290  1.3203  1.2180
    4MOL0     H  491   9.404   1.644   7.237 -3.7360 -0.7246 -0.6622
    4MOL0     H  492   9.556   1.302   7.148 -0.5735 -0.0496  0.7423
    4MOL0     H  493   9.506   1.463   7.074  2.4268  4.6773  0.8934
    4MOL0     H  494   9.747   1.377   7.104 -1.8593 -1.0800  1.3095
    4MOL0     H  495   9.728   1.457   7.259  1.0846 -0.8644 -0.4842
    4MOL0     H  496   9.640   1.673   7.088  2.3331  2.4105  0.3459
    4MOL0     H  497   9.721   1.567   6.971 -0.2431 -1.7976  0.3771
    4MOL0     H  498   9.921   1.646   7.017 -0.1059  3.4685 -0.2619
    4MOL0     H  499   9.901   1.582   7.170  2.1606 -0.9637 -2.1940
    4MOL0     H  500   9.796   2.038   7.214  2.9616 -0.1753 -0.0476
    4MOL0     H  501   9.705   2.228   7.325 -0.4661 -1.7733 -1.5382
    4MOL0     H  502   9.572   2.174   7.430 -0.6944  0.0210  0.0119
    4MOL0     H  503   9.727   2.213   7.499 -1.6450  5.5419 -1.7582
    4MOL0     H  504   9.664   2.102   7.909 -0.1032  1.3896 -2.2261
    4MOL0     H  505   9.513   2.152   8.117  0.1409  3.1928  0.2752
    4MOL0     H  506   9.124   2.017   8.054  1.5153 -4.3916  1.2204
    4MOL0     H  507   9.239   1.990   8.170 -3.1694 -2.9199 -0.0570
    4MOL0     H  508   9.126   2.049   8.332 -0.5563 -1.0820  0.4104
    4MOL0     H  509   9.123   2.222   8.280  0.5524  0.2293 -0.3319
    4MOL0     H  510   8.944   1.983   8.193 -0.6123  0.9935 -2.6023
    4MOL0     H  511   8.913   2.145   8.134 -2.3302 -0.2035  0.5879
    4MOL0     H  512   8.909   2.073   8.421  0.4587  0.2455 -1.2687
    4MOL0     H  513   8.892   2.238   8.355 -1.1247 -0.1934  1.8532
    4MOL0     H  514   8.674   2.066   8.399  1.5976  2.9668  2.1883
    4MOL0     H  515   8.704   2.043   8.224 -1.1917  0.3061 -0.0098
    4MOL0     H  516   8.670   2.331   8.351 -0.1679  2.2026 -1.4754
    4MOL0     H  517   8.692   2.278   8.185  0.3365 -0.0551  0.7297
    4MOL0     H  518   8.480   2.178   8.166  3.6522 -0.5178 -0.3206
    4MOL0     H  519   8.456   2.334   8.259 -0.5226  0.8807  3.9782
    4MOL0     H  520   8.443   2.061   8.376  3.1220  0.1300 -1.8886
    4MOL0     H  521   8.330   2.201   8.374  0.9371 -1.2345  2.3211
    4MOL0     H  522   9.170   2.141   7.862 -0.2482 -1.3948  2.3206
    4MOL0     H  523   9.311   2.074   7.676 -0.3569  0.7951 -0.0367
    4MOL0     H  524   9.661   1.706   7.551  2.5338 -0.7495  0.3997
    4MOL0     H  525   9.769   1.637   7.366 -1.5984  0.1078  2.3897
    4MOL0     H  526   8.556   2.321   7.810 -2.0376  0.0609  0.2800
    4MOL0     H  527   8.387   2.482   7.767  2.6844  0.8071  0.4193
    4MOL0     H  528   7.975   2.664   7.294  2.9932 -0.5821 -0.9881
    4MOL0     H  529   7.906   2.884   7.263  0.4685  2.6249 -0.6441
    4MOL0     H  530   7.892   3.099   7.260  3.2353  0.9616 -0.0984
    4MOL0     H  531   7.784   3.089   7.396 -1.2714  0.0608 -0.8374
    4MOL0     H  532   7.943   3.343   7.340 -1.1628  0.6805  2.4467
    4MOL0     H  533   7.845   3.329   7.465 -0.4323  2.0958 -0.3750
    4MOL0     H  534   7.685   3.412   7.335  1.6594  1.0526 -1.1377
    4MOL0     H  535   7.654   3.262   7.279 -0.9608  1.3381  0.8888
    4MOL0     H  536   7.842   3.314   7.076  0.6359  4.2300 -2.7056
    4MOL0     H  537   7.849   3.460   7.164  1.1919 -0.2564 -0.7627
    4MOL0     H  538   7.513   3.469   6.909  0.9344 -1.4249  1.1637
    4MOL0     H  539   8.191   3.021   7.571 -6.8729  1.6634  2.6753
    4MOL0     H  540   8.289   2.805   7.555  0.6178  2.9029 -1.2303
    5MOL0     O  541   6.042   5.841   7.516 -0.3778  0.6321  1.2567
    5MOL0     C  542   6.028   5.924   7.420 -0.7368  1.7634 -1.1618
    5MOL0     O  543   5.958   5.909   7.308  0.4288  0.6194 -0.7061
    5MOL0     C  544   5.915   5.777   7.282  0.5333  0.1200 -0.6925
    5MOL0     C  545   5.793   5.735   7.331 -0.3749 -0.3740 -0.6051
    5MOL0     C  546   5.743   5.614   7.305  0.4410  1.1133 -0.3467
    5MOL0     C  547   5.819   5.511   7.245  0.5686  0.1991  0.1095
    5MOL0     O  548   5.768   5.391   7.216 -0.5549  0.6616  0.5417
    5MOL0     C  549   5.663   5.339   7.296 -0.2281  0.3280 -0.5028
    5MOL0     C  550   5.675   5.185   7.292  1.0838 -0.1418 -0.7102
    5MOL0     C  551   5.543   5.115   7.336 -0.1665  0.1895 -0.1579
    5MOL0     C  552   5.434   5.151   7.233  0.6979  0.0496  0.2646
    5MOL0     C  553   5.308   5.053   7.258 -0.3962 -0.0359 -0.0927
    5MOL0     C  554   5.322   4.924   7.192  0.1532  0.4073  0.5781
    5MOL0     C  555   5.202   4.831   7.231 -0.6204  0.1567  0.3670
    5MOL0     C  556   5.219   4.690   7.180 -0.0610 -0.0504 -0.3992
    5MOL0     N  557   5.178   4.685   7.037 -0.0248  0.1161 -0.6693
    5MOL0     C  558   5.257   4.653   6.928 -0.3651  0.1853  0.0003
    5MOL0     C  559   5.176   4.643   6.825  0.1534 -1.0917 -0.1270
    5MOL0     C  560   5.185   4.608   6.673 -0.0381 -1.0311  0.5437
    5MOL0     C  561   5.324   4.635   6.618 -0.8025 -0.3110  0.6371
    5MOL0     C  562   5.339   4.792   6.596 -0.3329  1.0927 -1.1525
    5MOL0     C  563   5.417   4.859   6.714  0.8585  0.3477 -0.4595
    5MOL0     O  564   5.538   4.791   6.733  0.3382  1.4342 -0.5612
    5MOL0     C  565   5.632   4.844   6.810 -0.1592 -0.6958 -0.3762
    5MOL0     C  566   5.746   4.894   6.756 -0.0491 -0.0090  0.1736
    5MOL0     C  567   5.847   4.930   6.840 -0.2229 -0.1877  0.8583
    5MOL0     C  568   5.983   4.974   6.769  0.2943 -0.3969 -0.1456
    5MOL0     C  569   5.825   4.952   6.985 -0.0675 -0.1891  0.0746
    5MOL0     C  570   5.929   4.984   7.085  1.0572 -1.6245  0.2483
    5MOL0     O  571   5.900   4.958   7.216  0.7843  0.2075 -0.3395
    5MOL0     C  572   5.996   4.983   7.313  0.1278 -0.2527  0.0421
    5MOL0     C  573   6.040   4.885   7.403  0.1877  0.1142 -0.7874
    5MOL0     C  574   6.120   4.921   7.507 -1.1326  0.1469 -0.6935
    5MOL0     C  575   6.185   5.047   7.515  0.3461 -0.1789  0.4426
    5MOL0     O  576   6.262   5.087   7.616 -0.0981 -1.1678 -0.7828
    5MOL0     C  577   6.284   5.019   7.740 -0.2433 -0.6487  0.3973
    5MOL0     C  578   6.402   5.083   7.802 -0.2615  0.1902 -0.5370
    5MOL0     C  579   6.433   5.012   7.941  0.3575 -0.6451  0.3159
    5MOL0     C  580   6.321   5.039   8.046 -0.4715 -0.2011  0.5025
    5MOL0     C  581   6.247   4.913   8.095 -0.0723  0.6428 -0.4043
    5MOL0     C  582   6.172   4.835   7.987  0.0328  0.5345 -0.8221
    5MOL0     C  583   6.112   4.701   8.037  0.4899  0.7629 -0.0051
    5MOL0     C  584   6.098   4.598   7.922 -0.4197 -1.1654 -0.1971
    5MOL0    Cl  585   6.017   4.662   7.780  0.2326  0.2165  0.4661
    5MOL0     C  586   6.148   5.144   7.420 -0.1899 -0.2521  0.1378
    5MOL0     C  587   6.051   5.113   7.327  0.5277 -0.0160 -0.1145
    5MOL0     O  588   6.036   5.028   7.047 -0.9704 -0.1710 -0.2541
    5MOL0     C  589   5.698   4.916   7.025  0.0122 -0.2760 -0.4190
    5MOL0     C  590   5.605   4.855   6.939 -0.5651 -0.2605 -0.3787
    5MOL0     N  591   5.046   4.670   6.867 -0.3052 -0.2164  0.3080
    5MOL0     N  592   5.053   4.689   6.999 -0.4622  0.1741  0.1974
    5MOL0     C  593   5.942   5.547   7.191  0.1884 -0.6586 -0.1901
    5MOL0     C  594   5.990   5.682   7.210  0.0269 -0.4456 -0.2927
    5MOL0     C  595   6.073   6.060   7.428  0.4522 -0.5401 -0.0855
    5MOL0     C  596   6.181   6.083   7.517 -0.4721  1.2795  0.5315
    5MOL0     C  597   6.239   6.208   7.530  0.1203 -0.5634  0.0957
    5MOL0     C  598   6.184   6.309   7.446  0.0009 -0.6712 -0.6453
    5MOL0     O  599   6.224   6.441   7.444  0.5773  0.9123 -0.3647
    5MOL0     C  600   6.334   6.476   7.516  0.2870  1.2191 -0.3933
    5MOL0     C  601   6.368   6.628   7.512  0.7836  0.0237 -0.6351
    5MOL0     C  602   6.322   6.703   7.389 -0.6175  0.3111  0.5935
    5MOL0     C  603   6.436   6.796   7.349  0.4250 -0.3772 -0.0200
    5MOL0     C  604   6.382   6.921   7.295  0.0307  0.0319  0.1018
    5MOL0     C  605   6.337   7.024   7.238  0.5656  0.7833 -0.1513
    5MOL0     C  606   6.067   6.290   7.354 -0.1744 -0.2689 -0.6158
    5MOL0     C  607   6.018   6.164   7.352  0.6063  0.0325  0.3439
    5MOL0     H  608   5.734   5.808   7.385  0.0232  1.8332 -2.9924
    5MOL0     H  609   5.651   5.586   7.355  1.5687 -2.6084 -0.0449
    5MOL0     H  610   5.686   5.376   7.397  3.4904  1.7710 -1.6883
    5MOL0     H  611   5.562   5.376   7.278 -0.2663  1.2249  1.2714
    5MOL0     H  612   5.710   5.145   7.196  2.0189  3.5930 -2.1033
    5MOL0     H  613   5.755   5.157   7.361  2.5451 -1.7625 -2.9328
    5MOL0     H  614   5.558   5.007   7.345 -0.9218  0.1464  0.6610
    5MOL0     H  615   5.519   5.146   7.438 -2.1826 -2.3633  0.2527
    5MOL0     H  616   5.416   5.258   7.246  3.0917  0.6474 -0.8011
    5MOL0     H  617   5.466   5.123   7.133  0.2563 -1.1095  0.4320
    5MOL0     H  618   5.286   5.045   7.364  0.5386 -2.6168 -0.0411
    5MOL0     H  619   5.224   5.109   7.216  1.8781  1.3192 -3.2814
    5MOL0     H  620   5.318   4.931   7.083 -1.5352 -2.8636  0.3245
    5MOL0     H  621   5.416   4.875   7.221  0.3726 -1.5711 -2.9630
    5MOL0     H  622   5.195   4.829   7.340  0.2195 -0.8476  0.4197
    5MOL0     H  623   5.104   4.863   7.193 -0.0450  1.7686  0.1601
    5MOL0     H  624   5.159   4.625   7.244 -0.7601  2.1010  1.2809
    5MOL0     H  625   5.325   4.664   7.175  0.0260  0.1680  0.2835
    5MOL0     H  626   5.364   4.633   6.923 -0.5671 -0.5199 -2.7764
    5MOL0     H  627   5.163   4.501   6.662 -2.0649 -0.9771  3.1402
    5MOL0     H  628   5.116   4.660   6.606  3.0684  1.3095 -1.0700
    5MOL0     H  629   5.320   4.586   6.520 -2.7632  1.6890 -0.3859
    5MOL0     H  630   5.401   4.594   6.683 -0.7264 -3.8333 -1.4503
    5MOL0     H  631   5.250   4.852   6.574 -1.1640 -0.0800 -1.0400
    5MOL0     H  632   5.399   4.802   6.505  0.2220 -1.0985 -1.0714
    5MOL0     H  633   5.347   4.857   6.798  1.4268 -0.8158  0.0055
    5MOL0     H  634   5.452   4.961   6.696  0.2042  0.9228  1.2741
    5MOL0     H  635   5.764   4.893   6.649  0.6402 -0.5162  0.2871
    5MOL0     H  636   6.023   5.071   6.801  0.1055 -0.3923  0.0803
    5MOL0     H  637   6.060   4.902   6.798 -1.2915 -1.9617  0.4105
    5MOL0     H  638   5.982   4.973   6.660 -3.5330 -0.0117 -0.2622
    5MOL0     H  639   6.011   4.780   7.397  1.1406 -0.0684 -4.2386
    5MOL0     H  640   6.166   4.834   7.552  2.9662  1.1326 -2.5026
    5MOL0     H  641   6.195   5.036   7.801 -0.3305 -5.8000  2.1703
    5MOL0     H  642   6.291   4.910   7.730 -1.3022 -0.8369  1.4712
    5MOL0     H  643   6.495   5.070   7.747  0.2770  1.3355  0.0734
    5MOL0     H  644   6.393   5.191   7.797  4.3883  0.7611 -0.3787
    5MOL0     H  645   6.520   5.066   7.981  0.8807 -1.7498  0.7219
    5MOL0     H  646   6.455   4.905   7.931  1.0068 -0.6374  1.4561
    5MOL0     H  647   6.360   5.077   8.141 -3.5162  0.3789  1.6253
    5MOL0     H  648   6.251   5.116   8.011  0.7929  0.4758 -0.6352
    5MOL0     H  649   6.178   4.944   8.174  2.2755  2.7223  1.0002
    5MOL0     H  650   6.326   4.850   8.138 -0.1366  0.9207  0.1373
    5MOL0     H  651   6.095   4.895   7.937  1.8726  3.5169 -0.2876
    5MOL0     H  652   6.242   4.815   7.905  1.8282  1.6251  0.3840
    5MOL0     H  653   6.011   4.721   8.075  0.5249 -0.8097  1.0282
    5MOL0     H  654   6.162   4.661   8.125  1.5538  2.7504  0.3515
    5MOL0     H  655   6.042   4.510   7.956 -2.6573  0.0465 -0.5424
    5MOL0     H  656   6.195   4.578   7.876 -1.8592 -1.3699 -3.3345
    5MOL0     H  657   6.181   5.246   7.439 -0.9202 -0.5274  3.6057
    5MOL0     H  658   6.031   5.186   7.250  1.6976  0.3061 -0.1287
    5MOL0     H  659   5.659   4.933   7.125 -1.6327 -5.4282  0.1383
    5MOL0     H  660   5.519   4.812   6.989  0.7797 -1.1585  1.2628
    5MOL0     H  661   5.992   5.476   7.126  2.2009 -2.0993  2.7480
    5MOL0     H  662   6.091   5.709   7.183 -0.3919  2.4118  0.6973
    5MOL0     H  663   6.236   6.008   7.573  0.3190  0.8141 -0.8142
    5MOL0     H  664   6.320   6.222   7.600 -0.8043  2.5484  0.7043
    5MOL0     H  665   6.315   6.465   7.624  0.8587  0.2394 -0.3725
    5MOL0     H  666   6.430   6.424   7.505  1.0437  2.7298 -1.2740
    5MOL0     H  667   6.476   6.641   7.528  0.7987 -0.9349  0.1109
    5MOL0     H  668   6.318   6.676   7.597 -1.5516  1.2076 -2.5821
    5MOL0     H  669   6.235   6.766   7.408 -0.6759  0.4525 -0.1452
    5MOL0     H  670   6.293   6.637   7.308 -2.4986 -1.0836  2.3075
    5MOL0     H  671   6.496   6.749   7.270  0.4598 -2.8288  1.3683
    5MOL0     H  672   6.492   6.834   7.434  0.1175  4.3581 -1.6257
    5MOL0     H  673   6.295   7.113   7.194 -0.1971  0.1022 -0.8383
    5MOL0     H  674   6.021   6.370   7.297  2.9834  2.1777 -0.0421
    5MOL0     H  675   5.924   6.144   7.302  0.6874  1.5140 -0.4543
    6MOL0     O  676   8.841   3.087   5.250  0.0779 -0.2620  0.2107
    6MOL0     C  677   8.812   3.135   5.354  0.6199  0.6092  0.4096
    6MOL0     O  678   8.685   3.146   5.416  0.3347 -0.3716 -0.8453
    6MOL0     C  679   8.571   3.100   5.345 -0.7380  0.1575 -0.3188
    6MOL0     C  680   8.455   3.093   5.429  0.1072 -0.3366  0.3645
    6MOL0     C  681   8.334   3.037   5.379  0.2139  0.0185 -0.5425
    6MOL0     C  682   8.326   2.976   5.255 -0.8922  0.3012  0.2067
    6MOL0     O  683   8.211   2.917   5.204 -0.1619 -0.0065 -0.0382
    6MOL0     C  684   8.097   2.876   5.290 -0.5873 -0.0376 -0.4465
    6MOL0     C  685   7.996   2.979   5.271 -0.1892  0.0515 -0.5339
    6MOL0     C  686   7.958   3.010   5.128 -0.5642 -0.5622 -0.7213
    6MOL0     C  687   7.865   3.128   5.127  0.3468  0.1385 -0.1282
    6MOL0     C  688   7.837   3.188   4.987  0.2179  0.2735  0.3121
    6MOL0     C  689   7.729   3.293   4.988 -0.7592 -0.6365  0.5018
    6MOL0     C  690   7.707   3.376   4.848  0.6694 -0.0858 -0.1252
    6MOL0     C  691   7.650   3.310   4.719  0.0573 -0.9050 -0.3195
    6MOL0     N  692   7.755   3.231   4.656  0.2002 -0.3126  0.3024
    6MOL0     C  693   7.769   3.095   4.671 -0.1281 -0.4552 -0.0882
    6MOL0     C  694   7.867   3.075   4.577  1.5114  0.1313 -0.1486
    6MOL0     C  695   7.913   2.943   4.539 -0.1664  0.5877  0.0622
    6MOL0     C  696   8.035   2.908   4.628 -0.0683 -0.3792 -0.0276
    6MOL0     C  697   7.997   2.852   4.769 -0.2738  0.0552  0.2973
    6MOL0     C  698   8.119   2.812   4.858 -0.0768 -0.4104 -0.2461
    6MOL0     O  699   8.196   2.718   4.788  0.3232  0.4888  0.0202
    6MOL0     C  700   8.323   2.758   4.786  0.2285  0.5464 -0.5061
    6MOL0     C  701   8.401   2.695   4.884 -0.4316 -0.2780  0.0287
    6MOL0     C  702   8.534   2.734   4.898 -0.2444 -0.2951  1.1084
    6MOL0     C  703   8.617   2.680   5.012  0.5938  0.0142  0.2543
    6MOL0     C  704   8.584   2.843   4.817  0.4250 -0.1871 -0.6928
    6MOL0     C  705   8.726   2.888   4.820 -0.3090 -0.2954 -0.1596
    6MOL0     O  706   8.746   3.028   4.814  0.5047  0.3999 -0.1356
    6MOL0     C  707   8.877   3.072   4.791  0.7885 -0.4745 -0.4027
    6MOL0     C  708   8.936   3.057   4.666  0.7048  0.5161 -1.2540
    6MOL0     C  709   9.064   3.111   4.633  0.2049  0.8392 -0.4026
    6MOL0     C  710   9.139   3.178   4.728 -0.5793  0.3347 -0.1541
    6MOL0     O  711   9.265   3.230   4.729  0.4973 -0.2546 -0.6976
    6MOL0     C  712   9.346   3.199   4.615 -0.5606  0.3879  0.4862
    6MOL0     C  713   9.461   3.297   4.608 -0.4154 -0.8479  0.0154
    6MOL0     C  714   9.422   3.428   4.547  0.7927  0.3267  0.4588
    6MOL0     C  715   9.542   3.527   4.529  0.0015 -1.0311 -0.6145
    6MOL0     C  716   9.506   3.652   4.447 -0.5047 -0.1926 -0.8568
    6MOL0     C  717   9.416   3.753   4.526 -0.2821 -0.3567  0.8991
    6MOL0     C  718   9.421   3.900   4.467  0.1025  0.0470  0.0760
    6MOL0     C  719   9.323   3.993   4.538  0.1234 -0.0835  0.8567
    6MOL0    Cl  720   9.377   4.021   4.699 -0.6692  0.1556  0.3825
    6MOL0     C  721   9.079   3.183   4.850  1.0371 -0.5220  0.3312
    6MOL0     C  722   8.954   3.135   4.886  0.7020  0.4857  0.9807
    6MOL0     O  723   8.817   2.801   4.829  0.7625 -0.0408  0.0704
    6MOL0     C  724   8.504   2.905   4.723 -0.0523  0.3353  0.9320
    6MOL0     C  725   8.374   2.850   4.709 -0.5497 -1.0262  1.4812
    6MOL0     N  726   7.900   3.186   4.504 -0.5806  0.2119  0.2485
    6MOL0     N  727   7.832   3.275   4.546  0.3328 -0.5402 -0.6898
    6MOL0     C  728   8.445   2.972   5.179  0.3483  0.0066  0.2820
    6MOL0     C  729   8.565   3.038   5.210 -0.8554 -0.1471 -0.3829
    6MOL0     C  730   8.930   3.168   5.445  0.7890  0.5362 -0.1185
    6MOL0     C  731   8.908   3.204   5.573  0.2720 -0.1529 -0.1634
    6MOL0     C  732   9.012   3.223   5.664 -0.8927 -0.4742 -0.4757
    6MOL0     C  733   9.145   3.201   5.627  0.3509  1.4273 -0.2227
    6MOL0     O  734   9.227   3.205   5.731  0.8059 -0.1331  0.0723
    6MOL0     C  735   9.367   3.195   5.711 -0.4735 -0.0930  0.8612
    6MOL0     C  736   9.446   3.183   5.843 -0.1345  1.2567  0.0214
    6MOL0     C  737   9.437   3.041   5.897  0.2768  0.6711 -0.7870
    6MOL0     C  738   9.452   3.023   6.052 -0.4211 -0.2077 -0.1530
    6MOL0     C  739   9.592   3.050   6.089 -1.0063 -0.1043 -0.0597
    6MOL0     C  740   9.714   3.066   6.093 -0.2824 -0.2061  0.6946
    6MOL0     C  741   9.178   3.161   5.493  1.0490  0.2225 -0.4268
    6MOL0     C  742   9.073   3.146   5.403  0.3350  0.5901 -0.1703
    6MOL0     H  743   8.454   3.132   5.530 -1.2790  2.6806 -0.7072
    6MOL0     H  744   8.242   3.039   5.436  0.7245  0.8365  0.2986
    6MOL0     H  745   8.063   2.775   5.266 -0.9117  0.5047 -2.4153
    6MOL0     H  746   8.106   2.867   5.399 -1.2148 -2.7000 -0.5613
    6MOL0     H  747   7.912   2.945   5.333 -0.7417 -0.8454 -1.7497
    6MOL0     H  748   8.038   3.067   5.322 -2.1516  0.2324  0.8608
    6MOL0     H  749   8.041   3.015   5.057 -0.1657 -1.9222 -0.3776
    6MOL0     H  750   7.899   2.932   5.080 -1.9563  1.5993 -2.7507
    6MOL0     H  751   7.762   3.114   5.162 -0.2824 -3.1354 -2.7561
    6MOL0     H  752   7.922   3.202   5.183  2.5476 -1.5555  0.0100
    6MOL0     H  753   7.924   3.241   4.948  1.2958 -1.0018  0.9171
    6MOL0     H  754   7.805   3.114   4.912 -0.2470  1.8865 -1.1320
    6MOL0     H  755   7.633   3.247   5.012 -1.1021 -1.9052 -2.7992
    6MOL0     H  756   7.762   3.366   5.063  1.0008 -0.7714 -0.0766
    6MOL0     H  757   7.645   3.466   4.860  0.0915 -0.3825 -0.8530
    6MOL0     H  758   7.806   3.410   4.816  0.6609  0.4648  0.4060
    6MOL0     H  759   7.625   3.387   4.646  1.1159 -1.2361 -1.0652
    6MOL0     H  760   7.562   3.246   4.734 -1.3437  0.7835 -1.0534
    6MOL0     H  761   7.722   3.023   4.738  2.9607 -1.9616  0.6746
    6MOL0     H  762   7.833   2.868   4.550  0.7355 -0.3998  0.0377
    6MOL0     H  763   7.948   2.936   4.436  2.0709 -1.2729  0.8721
    6MOL0     H  764   8.093   2.998   4.648  1.4220 -1.8432  2.9008
    6MOL0     H  765   8.087   2.831   4.571 -1.2914 -2.6052  1.6755
    6MOL0     H  766   7.946   2.756   4.758 -0.0890 -0.2852  2.0532
    6MOL0     H  767   7.938   2.924   4.826 -0.4807 -0.2755  0.5050
    6MOL0     H  768   8.097   2.776   4.959 -1.0399  4.0570  1.3618
    6MOL0     H  769   8.185   2.896   4.880  0.5252 -1.0123  0.3117
    6MOL0     H  770   8.356   2.627   4.955  0.8123  0.8444  1.9746
    6MOL0     H  771   8.628   2.760   5.086 -0.2797  1.2879 -0.9302
    6MOL0     H  772   8.558   2.603   5.062  1.5613 -0.6500  0.4046
    6MOL0     H  773   8.713   2.639   4.979  0.6985 -0.0769  0.6612
    6MOL0     H  774   8.892   3.009   4.579  0.2360 -1.4931  0.0381
    6MOL0     H  775   9.094   3.096   4.530 -0.7460 -0.6033 -0.4947
    6MOL0     H  776   9.391   3.102   4.638 -1.5432 -0.0960  0.3837
    6MOL0     H  777   9.297   3.189   4.518  0.8364 -1.9343 -0.0597
    6MOL0     H  778   9.475   3.328   4.712 -2.5682  3.3686 -0.7018
    6MOL0     H  779   9.551   3.247   4.572 -0.3399 -1.4351  0.9960
    6MOL0     H  780   9.336   3.469   4.600 -2.1271  0.4994 -3.9127
    6MOL0     H  781   9.382   3.407   4.448  0.1712  0.0301  0.7676
    6MOL0     H  782   9.581   3.559   4.626 -1.2166  4.4603 -1.6037
    6MOL0     H  783   9.620   3.479   4.469 -0.2238  0.7696 -2.4369
    6MOL0     H  784   9.457   3.622   4.353 -2.3889  2.4084 -0.8007
    6MOL0     H  785   9.609   3.684   4.428  0.5582 -1.7974  1.6732
    6MOL0     H  786   9.316   3.711   4.523  0.0589 -1.1153 -0.0322
    6MOL0     H  787   9.451   3.756   4.630  4.1580 -1.2491 -0.3506
    6MOL0     H  788   9.381   3.897   4.365 -2.9155 -0.3447  1.1992
    6MOL0     H  789   9.525   3.934   4.467  0.1778 -0.0322 -1.8724
    6MOL0     H  790   9.219   3.960   4.546 -0.1074  0.9301  3.3756
    6MOL0     H  791   9.305   4.091   4.493 -5.2376 -0.3776  1.6553
    6MOL0     H  792   9.122   3.242   4.930  2.1566  2.6450 -2.3846
    6MOL0     H  793   8.906   3.151   4.981  0.5813 -0.9088  1.1834
    6MOL0     H  794   8.521   2.991   4.660 -1.6964  0.4911  0.6747
    6MOL0     H  795   8.302   2.892   4.640  0.6336  1.9015  1.8540
    6MOL0     H  796   8.444   2.932   5.078  1.5684 -0.2385  0.3465
    6MOL0     H  797   8.650   3.019   5.146 -2.0710  0.1008 -2.1591
    6MOL0     H  798   8.808   3.234   5.601  0.9607 -0.1842  2.6377
    6MOL0     H  799   8.969   3.238   5.763 -2.6466 -3.1572 -0.7319
    6MOL0     H  800   9.382   3.111   5.642 -3.4851  1.9933 -2.6838
    6MOL0     H  801   9.412   3.274   5.650  0.4439 -1.8306 -0.8174
    6MOL0     H  802   9.399   3.252   5.914 -2.3166  1.2009 -1.2683
    6MOL0     H  803   9.550   3.210   5.824  0.3226 -0.0067  0.5845
    6MOL0     H  804   9.513   2.977   5.853  1.1374  0.6429  0.6612
    6MOL0     H  805   9.347   2.983   5.872  0.5820 -1.5596  2.6546
    6MOL0     H  806   9.434   2.917   6.071 -1.2365 -0.5245 -2.4530
    6MOL0     H  807   9.389   3.091   6.110  2.0323 -0.0192  2.5801
    6MOL0     H  808   9.821   3.074   6.089 -0.3690  1.7443  1.1379
    6MOL0     H  809   9.279   3.144   5.456  0.8839 -0.8038 -0.4476
    6MOL0     H  810   9.084   3.122   5.297  0.1050 -0.1544 -0.0352
    7MOL0     O  811   3.403   6.226   3.266 -0.9096 -0.1128  0.7072
    7MOL0     C  812   3.319   6.282   3.332 -0.5001 -0.6810  0.5591
    7MOL0     O  813   3.348   6.371   3.437 -0.5244 -0.2711  0.1157
    7MOL0     C  814   3.488   6.398   3.450  0.2822 -0.0926 -0.5077
    7MOL0     C  815   3.585   6.299   3.454  0.1664  0.1797 -0.4695
    7MOL0     C  816   3.725   6.329   3.473  0.3056 -0.0731 -0.2440
    7MOL0     C  817   3.765   6.456   3.471  0.0609  0.0618 -0.3715
    7MOL0     O  818   3.896   6.485   3.473  0.2573 -0.2692  0.0456
    7MOL0     C  819   3.934   6.619   3.426 -0.0205  0.0683 -0.4552
    7MOL0     C  820   4.089   6.639   3.421  0.4107  0.2469 -0.2313
    7MOL0     C  821   4.177   6.548   3.330  0.0954 -0.8200  0.7616
    7MOL0     C  822   4.146   6.549   3.186  0.2291  0.7170  0.2300
    7MOL0     C  823   4.018   6.470   3.147 -0.4014  0.3868  0.7759
    7MOL0     C  824   3.960   6.488   3.013 -1.1208  0.0362  0.1805
    7MOL0     C  825   3.851   6.371   2.984 -0.1296  1.1682  0.1194
    7MOL0     C  826   3.905   6.249   2.896  0.5412 -1.7383 -0.0145
    7MOL0     N  827   3.953   6.308   2.765  0.4436  0.7541 -0.4162
    7MOL0     C  828   3.911   6.429   2.719  0.5301 -0.0772 -0.4118
    7MOL0     C  829   3.957   6.429   2.593  0.5111  0.0059  1.6593
    7MOL0     C  830   3.944   6.538   2.485  0.3760 -0.1477 -0.7972
    7MOL0     C  831   3.802   6.575   2.446  0.1845 -0.3613 -0.8851
    7MOL0     C  832   3.787   6.689   2.333  0.0052  0.7990 -0.3321
    7MOL0     C  833   3.872   6.821   2.362 -0.1876 -0.1588  0.0824
    7MOL0     O  834   3.814   6.886   2.470  0.1066 -0.0368 -0.7369
    7MOL0     C  835   3.842   7.023   2.478 -0.0863  0.3496  0.3956
    7MOL0     C  836   3.757   7.102   2.547  0.1590  0.6386 -0.1955
    7MOL0     C  837   3.775   7.240   2.556  0.3550 -0.0774 -0.2530
    7MOL0     C  838   3.683   7.322   2.639 -0.6679  0.5667 -0.4234
    7MOL0     C  839   3.891   7.304   2.502  0.3912  0.4915 -0.4273
    7MOL0     C  840   3.919   7.448   2.502 -0.7222 -0.3039 -0.0099
    7MOL0     O  841   4.051   7.480   2.466  0.3898 -0.0518  0.4229
    7MOL0     C  842   4.077   7.609   2.420  0.4953  0.0348 -0.2075
    7MOL0     C  843   4.179   7.681   2.480 -0.4465 -0.3881 -0.3619
    7MOL0     C  844   4.219   7.810   2.453  0.2594 -0.3364  0.1517
    7MOL0     C  845   4.128   7.878   2.369  0.5368  0.7766 -0.1041
    7MOL0     O  846   4.144   8.007   2.332 -0.0803  0.1974 -0.2738
    7MOL0     C  847   4.282   8.055   2.331  0.0065 -0.4819 -0.1590
    7MOL0     C  848   4.384   7.983   2.240  0.4851 -0.6051 -0.1743
    7MOL0     C  849   4.339   7.969   2.091 -0.9944  1.1119  0.3223
    7MOL0     C  850   4.441   7.879   2.023  0.1108 -0.4804  0.0691
    7MOL0     C  851   4.401   7.828   1.892  0.3911  0.1622  0.3411
    7MOL0     C  852   4.516   7.754   1.823 -0.0214  0.5774 -0.1741
    7MOL0     C  853   4.480   7.681   1.694  0.3067 -0.5824  0.0809
    7MOL0     C  854   4.437   7.774   1.566  0.1119 -0.7760 -0.0327
    7MOL0    Cl  855   4.581   7.850   1.499  0.4078 -0.0197 -0.0834
    7MOL0     C  856   4.013   7.815   2.314 -0.5389 -0.2829 -0.1522
    7MOL0     C  857   3.997   7.677   2.332  1.6615  1.0872  0.3881
    7MOL0     O  858   3.829   7.529   2.530 -0.1809 -0.3110  0.1103
    7MOL0     C  859   3.986   7.218   2.445  0.2053 -0.2715 -0.4206
    7MOL0     C  860   3.957   7.080   2.428  0.0060 -0.1675  0.1505
    7MOL0     N  861   4.010   6.306   2.568 -0.2694 -0.6483 -0.1247
    7MOL0     N  862   4.003   6.229   2.668  0.0862 -0.3635 -0.4184
    7MOL0     C  863   3.665   6.567   3.466  0.0504  0.4237  0.0786
    7MOL0     C  864   3.526   6.531   3.453 -0.4230  0.4389  0.6920
    7MOL0     C  865   3.176   6.241   3.308 -0.6456 -0.4414  0.2718
    7MOL0     C  866   3.158   6.133   3.215 -0.1841 -0.2954 -0.5723
    7MOL0     C  867   3.024   6.100   3.184 -0.0001  0.8470  0.4616
    7MOL0     C  868   2.917   6.188   3.223  0.1392  0.5326 -0.4358
    7MOL0     O  869   2.781   6.161   3.195  0.3116 -0.1897  0.1911
    7MOL0     C  870   2.751   6.096   3.068  0.2153 -1.1274 -0.0246
    7MOL0     C  871   2.694   5.960   3.085  0.2913  0.7846  0.7427
    7MOL0     C  872   2.553   5.959   3.140 -0.1448  0.2499  0.0181
    7MOL0     C  873   2.446   6.018   3.059 -0.8389 -0.9014  0.0416
    7MOL0     C  874   2.412   5.940   2.936 -0.3320  0.5506 -1.2755
    7MOL0     C  875   2.374   5.868   2.846 -0.1578 -0.5516 -0.3274
    7MOL0     C  876   2.945   6.296   3.301  0.0361  0.8641  1.2575
    7MOL0     C  877   3.074   6.330   3.345  0.5499 -0.0295  0.9627
    7MOL0     H  878   3.553   6.195   3.454 -1.0366  0.5291  0.5621
    7MOL0     H  879   3.792   6.244   3.472 -0.4257 -0.7265  1.4707
    7MOL0     H  880   3.890   6.667   3.338  1.3868  1.5096 -0.4157
    7MOL0     H  881   3.902   6.688   3.506  1.3379 -1.0464  1.1063
    7MOL0     H  882   4.099   6.746   3.401  0.3851  1.3898  4.6984
    7MOL0     H  883   4.120   6.620   3.524 -2.7727  2.7271  1.3582
    7MOL0     H  884   4.277   6.590   3.330  0.0933 -0.6104  3.8197
    7MOL0     H  885   4.172   6.445   3.367 -3.8462 -1.1052 -0.0513
    7MOL0     H  886   4.131   6.652   3.151 -1.6360  0.8292  1.2074
    7MOL0     H  887   4.227   6.506   3.127  3.6061  1.2981  4.0235
    7MOL0     H  888   4.044   6.364   3.158  0.4953  0.6759  1.6868
    7MOL0     H  889   3.932   6.486   3.213 -2.3349 -0.8817 -1.3377
    7MOL0     H  890   3.919   6.589   2.999  0.6183  0.6218 -1.1180
    7MOL0     H  891   4.044   6.487   2.942 -0.5973  2.0206  0.6900
    7MOL0     H  892   3.816   6.329   3.079 -0.0467 -0.2654 -0.4635
    7MOL0     H  893   3.760   6.407   2.937 -0.4345 -0.1911 -0.3774
    7MOL0     H  894   3.814   6.192   2.875 -0.7503  0.3040 -0.1283
    7MOL0     H  895   3.971   6.171   2.937 -0.4580 -3.4937 -1.5540
    7MOL0     H  896   3.855   6.504   2.773  0.1178 -0.7826  0.1692
    7MOL0     H  897   3.994   6.626   2.526  2.9417 -1.9653  0.3324
    7MOL0     H  898   3.998   6.520   2.391 -0.7188 -1.3300 -1.2218
    7MOL0     H  899   3.741   6.592   2.535  3.6498 -2.3693  2.1428
    7MOL0     H  900   3.757   6.486   2.401  0.5540  0.3041 -2.6520
    7MOL0     H  901   3.685   6.720   2.310  0.7812  1.0740 -3.9569
    7MOL0     H  902   3.830   6.638   2.247 -0.9427 -0.6385  0.0169
    7MOL0     H  903   3.854   6.881   2.273 -1.9670  0.6059  0.9146
    7MOL0     H  904   3.979   6.808   2.379 -0.1110  1.6357  1.2122
    7MOL0     H  905   3.680   7.059   2.611  1.0363 -1.8149 -0.6637
    7MOL0     H  906   3.615   7.253   2.690 -3.7594  2.7013 -1.3501
    7MOL0     H  907   3.730   7.388   2.713 -3.8857  1.7120  0.7994
    7MOL0     H  908   3.620   7.380   2.572 -0.0036  0.3496 -1.2537
    7MOL0     H  909   4.222   7.632   2.567 -0.3138  1.9561  0.9589
    7MOL0     H  910   4.311   7.853   2.491  1.1852 -2.6240  0.6390
    7MOL0     H  911   4.281   8.160   2.299  1.2767 -0.3454  0.2292
    7MOL0     H  912   4.320   8.068   2.433 -1.4823 -1.8189  0.6133
    7MOL0     H  913   4.472   8.047   2.251  0.0948 -0.2428  1.0145
    7MOL0     H  914   4.411   7.888   2.288  0.0062 -1.1851 -1.0329
    7MOL0     H  915   4.335   8.067   2.044  3.5950  1.2014 -0.4107
    7MOL0     H  916   4.241   7.923   2.083 -0.8977  0.9351  0.1377
    7MOL0     H  917   4.536   7.934   2.016  1.1107 -1.2636  4.3185
    7MOL0     H  918   4.472   7.797   2.089  0.0387 -1.0576 -0.6044
    7MOL0     H  919   4.381   7.910   1.823  1.0362 -0.8896 -1.1496
    7MOL0     H  920   4.327   7.750   1.911  1.6932 -0.9229  1.1148
    7MOL0     H  921   4.593   7.828   1.799  0.9934 -0.7681 -1.2364
    7MOL0     H  922   4.576   7.696   1.894  2.8140  2.4328 -0.8751
    7MOL0     H  923   4.397   7.616   1.725 -0.1089  0.0414  0.2927
    7MOL0     H  924   4.566   7.629   1.651  0.3358  1.2848 -2.2956
    7MOL0     H  925   4.364   7.848   1.602  2.1817  1.1069  0.5026
    7MOL0     H  926   4.393   7.703   1.495  1.8552 -2.2691  0.2945
    7MOL0     H  927   3.942   7.877   2.261 -0.7736 -0.1497  0.3105
    7MOL0     H  928   3.915   7.631   2.278  1.6836  0.1574  1.1316
    7MOL0     H  929   4.081   7.255   2.409  1.3198 -3.2480 -0.8433
    7MOL0     H  930   4.032   7.022   2.375  2.7902  0.9700  2.5658
    7MOL0     H  931   3.694   6.670   3.483 -0.3034  0.4327  0.6439
    7MOL0     H  932   3.442   6.600   3.449  0.7337  1.9200  1.0112
    7MOL0     H  933   3.241   6.082   3.167 -3.3175 -2.1691 -4.5750
    7MOL0     H  934   2.998   6.015   3.121  0.0463  0.9605  0.2888
    7MOL0     H  935   2.669   6.147   3.018 -1.7777 -3.5364  0.6236
    7MOL0     H  936   2.835   6.096   2.997  0.8228 -0.4080  0.6641
    7MOL0     H  937   2.761   5.907   3.154  1.6070  2.3087  0.6890
    7MOL0     H  938   2.696   5.908   2.989  0.5650  3.4458 -0.7832
    7MOL0     H  939   2.556   6.017   3.232  0.0185 -0.4861  0.4851
    7MOL0     H  940   2.524   5.858   3.171  0.1636  0.4802  1.0956
    7MOL0     H  941   2.459   6.124   3.035 -2.4791 -0.4024  1.2103
    7MOL0     H  942   2.347   6.015   3.106  0.6502 -2.5535  3.4126
    7MOL0     H  943   2.348   5.816   2.756  1.1785  1.0557 -1.7160
    7MOL0     H  944   2.859   6.363   3.302 -1.6374 -1.1753  0.9512
    7MOL0     H  945   3.103   6.428   3.381  1.1562 -0.4746  1.7354
    8MOL0     O  946   8.935   7.448  11.233 -0.3113  0.2400  0.9059
    8MOL0     C  947   8.994   7.487  11.329 -0.0142 -0.3163 -0.4019
    8MOL0     O  948   8.936   7.554  11.436  0.4019 -0.1472  0.2823
    8MOL0     C  949   8.796   7.560  11.444  0.6747 -0.8891 -0.1419
    8MOL0     C  950   8.759   7.662  11.536 -0.2651  0.4735  0.1827
    8MOL0     C  951   8.618   7.692  11.572  0.0101  0.0142 -0.9562
    8MOL0     C  952   8.512   7.623  11.508 -0.7909  0.0055 -0.8597
    8MOL0     O  953   8.379   7.642  11.519  0.4952  0.6022  0.0033
    8MOL0     C  954   8.323   7.679  11.644  0.2905  0.4230 -2.3529
    8MOL0     C  955   8.266   7.558  11.719 -0.5563 -0.0383 -0.2783
    8MOL0     C  956   8.243   7.590  11.866 -0.5768 -0.1678 -0.0295
    8MOL0     C  957   8.156   7.711  11.905  0.6298 -0.2876  0.0824
    8MOL0     C  958   8.098   7.703  12.051 -0.3625  0.2196 -0.9468
    8MOL0     C  959   8.007   7.814  12.116  1.1494 -0.3928  0.4796
    8MOL0     C  960   8.068   7.958  12.127 -0.0682  0.4616  1.0419
    8MOL0     C  961   7.958   8.052  12.175  0.2070  0.1386  0.3248
    8MOL0     N  962   7.995   8.191  12.164  0.1502  0.2719 -0.1504
    8MOL0     C  963   7.942   8.285  12.075  0.5236  0.5314  0.1664
    8MOL0     C  964   8.026   8.392  12.082  0.0145 -0.8729 -0.4392
    8MOL0     C  965   8.007   8.526  12.020  0.0966 -0.3002  0.3444
    8MOL0     C  966   7.933   8.639  12.095 -0.8081  0.6492  0.5352
    8MOL0     C  967   7.968   8.784  12.040  0.2148 -0.4566 -0.4052
    8MOL0     C  968   7.913   8.800  11.899  0.4382  1.3437  0.3104
    8MOL0     O  969   7.925   8.938  11.865  1.0584 -0.7467  0.7014
    8MOL0     C  970   7.909   8.977  11.730 -1.3156  0.2362  0.4801
    8MOL0     C  971   7.919   8.898  11.615  0.2496 -1.1203  0.3919
    8MOL0     C  972   7.923   8.961  11.489  0.2813 -0.2466  0.5052
    8MOL0     C  973   7.950   8.874  11.373  0.4302 -0.9277 -0.4287
    8MOL0     C  974   7.891   9.108  11.483  0.6392 -0.6914 -0.4244
    8MOL0     C  975   7.886   9.183  11.356 -0.1454  0.1569  0.0850
    8MOL0     O  976   7.918   9.115  11.234 -0.3402 -0.7723  0.3977
    8MOL0     C  977   7.925   9.192  11.114 -0.2311  0.3012 -0.2270
    8MOL0     C  978   8.003   9.135  11.013  1.1325  0.1501  0.1500
    8MOL0     C  979   8.018   9.201  10.891  0.3872 -1.0685  0.6231
    8MOL0     C  980   7.957   9.320  10.860 -0.6117 -0.9520 -0.6938
    8MOL0     O  981   7.981   9.411  10.762  0.3580  0.2727  0.1024
    8MOL0     C  982   8.122   9.445  10.728  0.1740  0.8350 -0.4135
    8MOL0     C  983   8.184   9.541  10.824  0.8450  0.8626 -0.5188
    8MOL0     C  984   8.099   9.668  10.844 -0.8092  0.2470  0.1388
    8MOL0     C  985   8.117   9.736  10.985 -0.0761 -0.2377 -0.0273
    8MOL0     C  986   8.043   9.872  11.001 -0.9979  0.0315 -0.3713
    8MOL0     C  987   8.123   9.940  11.122 -0.0228 -1.2153  0.0707
    8MOL0     C  988   8.027  10.050  11.180 -0.0503 -0.6769  0.6765
    8MOL0     C  989   8.100  10.185  11.193  0.9273 -0.5977 -0.0083
    8MOL0    Cl  990   8.152  10.257  11.041  0.2401 -0.1625 -0.3238
    8MOL0     C  991   7.885   9.379  10.967 -0.1094 -0.7229  0.6214
    8MOL0     C  992   7.852   9.311  11.085  0.6692  0.2330 -0.1585
    8MOL0     O  993   7.849   9.299  11.365 -0.1905 -0.1525  0.3011
    8MOL0     C  994   7.871   9.174  11.601  0.4233 -0.2864 -0.7467
    8MOL0     C  995   7.878   9.115  11.725  0.2913 -0.6228  0.2601
    8MOL0     N  996   8.123   8.361  12.178 -0.2674 -0.1259 -0.8105
    8MOL0     N  997   8.110   8.243  12.231  0.7084 -0.2189 -0.1131
    8MOL0     C  998   8.548   7.527  11.410 -0.7788  0.1350 -0.3014
    8MOL0     C  999   8.683   7.495  11.381  0.3829 -0.4480  0.3833
    8MOL0     C 1000   9.144   7.489  11.330 -0.2422 -0.8206  0.7045
    8MOL0     C 1001   9.217   7.509  11.448  0.5968  0.1902 -0.2770
    8MOL0     C 1002   9.353   7.503  11.455  0.6693  0.1756 -0.0982
    8MOL0     C 1003   9.426   7.483  11.340 -0.0215  0.1666  0.1695
    8MOL0     O 1004   9.559   7.495  11.334  0.1308  0.3754 -0.3486
    8MOL0     C 1005   9.602   7.631  11.356  0.0325 -0.1445 -0.0408
    8MOL0     C 1006   9.729   7.664  11.279  0.2819 -0.0865 -0.6401
    8MOL0     C 1007   9.869   7.635  11.332  1.1637 -0.3909 -0.9250
    8MOL0     C 1008   9.980   7.722  11.274 -0.0919 -0.8400 -1.0589
    8MOL0     C 1009  10.014   7.681  11.139  0.3099 -1.0194  0.2234
    8MOL0     C 1010  10.041   7.669  11.018 -0.6021 -0.0554 -0.6910
    8MOL0     C 1011   9.359   7.446  11.221  0.4459  0.5180  0.1451
    8MOL0     C 1012   9.214   7.440  11.215 -0.6124 -1.0332  1.0791
    8MOL0     H 1013   8.835   7.726  11.579 -1.8438  1.7783  1.1607
    8MOL0     H 1014   8.600   7.771  11.644  1.3513 -0.0492 -0.5169
    8MOL0     H 1015   8.383   7.741  11.710  0.7859 -0.6716 -1.7508
    8MOL0     H 1016   8.239   7.748  11.631 -0.9590 -0.8925 -1.6211
    8MOL0     H 1017   8.174   7.526  11.669  0.6428 -1.1080 -1.8886
    8MOL0     H 1018   8.329   7.469  11.714 -2.3562 -1.3701 -0.0899
    8MOL0     H 1019   8.210   7.499  11.918  2.0239 -0.6783  0.8660
    8MOL0     H 1020   8.343   7.611  11.904 -0.0083  0.7267 -1.9450
    8MOL0     H 1021   8.219   7.800  11.890  2.4736 -1.8745 -2.4952
    8MOL0     H 1022   8.073   7.721  11.834 -0.7598 -0.6187  1.5937
    8MOL0     H 1023   8.042   7.609  12.054  2.8233 -1.8146 -0.3876
    8MOL0     H 1024   8.186   7.697  12.116 -0.6327  1.0752 -0.4903
    8MOL0     H 1025   7.912   7.825  12.062  1.6031  0.3625 -0.1844
    8MOL0     H 1026   7.976   7.781  12.216 -1.1573 -1.1559 -0.4145
    8MOL0     H 1027   8.154   7.942  12.192  0.2645 -0.6227  0.3543
    8MOL0     H 1028   8.102   7.977  12.025 -3.3080 -1.9370 -0.6633
    8MOL0     H 1029   7.946   8.028  12.281 -1.9115 -2.1330 -0.3245
    8MOL0     H 1030   7.862   8.034  12.127  0.3459 -5.0443  1.4017
    8MOL0     H 1031   7.861   8.277  12.002  3.3861  1.1698 -3.3949
    8MOL0     H 1032   8.106   8.562  11.989  0.0371  0.6528  1.2031
    8MOL0     H 1033   7.952   8.523  11.925  1.7437 -2.2598 -0.6267
    8MOL0     H 1034   7.986   8.652  12.190 -1.3257  2.4740  0.6178
    8MOL0     H 1035   7.825   8.624  12.107 -1.3406  3.2955 -0.3015
    8MOL0     H 1036   8.075   8.810  12.039  0.3836 -1.0282 -2.1811
    8MOL0     H 1037   7.927   8.857  12.111 -3.0442 -0.8806 -1.6780
    8MOL0     H 1038   7.808   8.772  11.895  0.6718  0.5433 -1.8632
    8MOL0     H 1039   7.973   8.740  11.831  0.3604  0.2525  1.1803
    8MOL0     H 1040   7.921   8.794  11.644  2.5418 -0.9236  1.1167
    8MOL0     H 1041   8.037   8.893  11.310  1.2414 -1.8905  0.3747
    8MOL0     H 1042   7.964   8.773  11.413 -2.7542 -1.1750  0.3104
    8MOL0     H 1043   7.860   8.862  11.311  1.1346 -1.7540 -1.3275
    8MOL0     H 1044   8.059   9.049  11.049  0.1529 -0.1458  0.9970
    8MOL0     H 1045   8.091   9.171  10.816 -0.4576  1.1413 -1.2093
    8MOL0     H 1046   8.190   9.360  10.731 -0.0085  0.7021  0.0032
    8MOL0     H 1047   8.130   9.477  10.624  2.2548  2.0443  0.0661
    8MOL0     H 1048   8.188   9.492  10.921 -1.3444 -1.9746 -1.7043
    8MOL0     H 1049   8.285   9.559  10.786  0.7652  1.3431 -0.5070
    8MOL0     H 1050   7.995   9.634  10.842  0.0838 -2.7796 -2.3622
    8MOL0     H 1051   8.111   9.741  10.764 -2.3762  3.0588  2.2665
    8MOL0     H 1052   8.073   9.665  11.056  0.7570 -0.9845 -0.2372
    8MOL0     H 1053   8.223   9.743  11.013 -0.7663  0.0430  2.8639
    8MOL0     H 1054   7.937   9.860  11.025 -0.8145  1.6202  1.4743
    8MOL0     H 1055   8.050   9.927  10.907 -3.5096  0.2547 -0.4893
    8MOL0     H 1056   8.141   9.864  11.199  0.2370  2.6152  4.2469
    8MOL0     H 1057   8.222   9.970  11.088 -1.5447  0.9232 -3.0028
    8MOL0     H 1058   7.999  10.020  11.282 -1.4222  1.4090  0.9755
    8MOL0     H 1059   7.939  10.059  11.115 -3.2890 -3.7451  4.1343
    8MOL0     H 1060   8.189  10.174  11.256 -1.6145  1.3433  4.4607
    8MOL0     H 1061   8.035  10.256  11.245 -2.0977 -2.3147 -1.1913
    8MOL0     H 1062   7.831   9.468  10.937  4.5348  1.8065 -1.2717
    8MOL0     H 1063   7.786   9.366  11.151  4.7141  2.7929  2.1941
    8MOL0     H 1064   7.840   9.278  11.608  1.8532  0.0450  1.3364
    8MOL0     H 1065   7.861   9.180  11.811 -0.1494 -1.2755  0.6818
    8MOL0     H 1066   8.466   7.473  11.363 -2.0029  0.8524  0.9243
    8MOL0     H 1067   8.702   7.413  11.313  2.0400 -2.1241  2.6831
    8MOL0     H 1068   9.164   7.522  11.542  0.8295 -1.0060  0.0279
    8MOL0     H 1069   9.385   7.532  11.554  1.1217  0.7825 -0.4199
    8MOL0     H 1070   9.525   7.698  11.315  0.4080  0.2105 -0.1674
    8MOL0     H 1071   9.597   7.657  11.462  0.6910  2.8426 -0.6489
    8MOL0     H 1072   9.721   7.772  11.268  0.1218  0.0580  0.7702
    8MOL0     H 1073   9.730   7.629  11.175  2.7206 -0.5217 -0.5426
    8MOL0     H 1074   9.896   7.532  11.307 -0.8290 -1.3798  0.7144
    8MOL0     H 1075   9.863   7.640  11.441  0.2038  0.7518 -0.9996
    8MOL0     H 1076  10.060   7.729  11.348 -2.0180  5.0334  1.0830
    8MOL0     H 1077   9.948   7.827  11.277 -1.9677 -1.3806 -0.9307
    8MOL0     H 1078  10.074   7.666  10.916  0.1077 -0.2996 -0.4578
    8MOL0     H 1079   9.421   7.411  11.139  1.8511  0.3374  1.2271
    8MOL0     H 1080   9.156   7.415  11.126 -1.3062  3.8228 -0.1407
    9MOL0     O 1081   2.040   5.573   9.687 -0.0026 -0.5539  0.5680
    9MOL0     C 1082   2.012   5.472   9.746  1.0983  1.1965 -1.1121
    9MOL0     O 1083   2.087   5.356   9.756 -0.1051 -0.1431 -0.1845
    9MOL0     C 1084   2.208   5.332   9.710  0.2234  0.5638  1.2370
    9MOL0     C 1085   2.310   5.423   9.734  0.0981 -0.0479  0.3865
    9MOL0     C 1086   2.438   5.388   9.691 -0.3498 -0.5489  0.5092
    9MOL0     C 1087   2.466   5.259   9.646 -0.6222 -0.0997  0.2793
    9MOL0     O 1088   2.587   5.212   9.596 -0.0378 -0.1747 -0.1254
    9MOL0     C 1089   2.712   5.256   9.659 -0.5388 -1.0658 -0.0998
    9MOL0     C 1090   2.825   5.172   9.634  0.5370  0.2915 -0.7647
    9MOL0     C 1091   2.925   5.248   9.543 -0.3698  0.1603  0.1889
    9MOL0     C 1092   3.031   5.141   9.488  0.0703  0.0077 -0.1438
    9MOL0     C 1093   3.158   5.207   9.418 -0.1994  0.5321  0.9364
    9MOL0     C 1094   3.283   5.117   9.391 -1.0342 -0.5562  0.9038
    9MOL0     C 1095   3.335   5.041   9.516 -0.1681  0.1361  0.1945
    9MOL0     C 1096   3.425   5.131   9.602  1.2756 -0.0297  0.3773
    9MOL0     N 1097   3.521   5.060   9.688  0.8669 -0.3284 -0.0050
    9MOL0     C 1098   3.653   5.038   9.656  0.5796 -0.6636 -0.7744
    9MOL0     C 1099   3.691   4.938   9.735  0.1418  0.4779  0.8851
    9MOL0     C 1100   3.823   4.870   9.709  0.6460  0.2528 -0.9000
    9MOL0     C 1101   3.815   4.719   9.742 -0.4158  0.9182  0.3774
    9MOL0     C 1102   3.949   4.670   9.717  0.3461  0.4268 -0.4163
    9MOL0     C 1103   3.948   4.512   9.716 -0.4990  0.3203  0.8570
    9MOL0     O 1104   4.029   4.445   9.820 -0.9563 -0.4442 -0.4814
    9MOL0     C 1105   4.166   4.424   9.810 -0.4556  0.1586 -0.3034
    9MOL0     C 1106   4.222   4.338   9.912 -0.5326  0.2010  0.3127
    9MOL0     C 1107   4.358   4.300   9.899 -0.6121 -0.1100 -0.0705
    9MOL0     C 1108   4.426   4.241  10.019 -1.4279  0.2335  0.8989
    9MOL0     C 1109   4.438   4.342   9.780 -0.1155  0.0063 -0.2763
    9MOL0     C 1110   4.566   4.294   9.727  0.6770  0.8124 -0.3057
    9MOL0     O 1111   4.619   4.185   9.796  0.7651  0.0750  0.7559
    9MOL0     C 1112   4.748   4.147   9.760 -0.5467 -0.1387  0.9570
    9MOL0     C 1113   4.865   4.231   9.761 -0.2144  0.6487  0.2676
    9MOL0     C 1114   4.991   4.184   9.719 -0.3563  0.2230 -0.2668
    9MOL0     C 1115   5.007   4.049   9.688 -0.1225 -1.3436  0.7377
    9MOL0     O 1116   5.128   4.018   9.649 -0.1643  0.2007 -0.2165
    9MOL0     C 1117   5.159   3.880   9.626  0.3573 -0.6279 -0.1337
    9MOL0     C 1118   5.310   3.865   9.610 -0.0676  0.2568 -1.5897
    9MOL0     C 1119   5.358   3.736   9.692 -0.5852  0.0280 -1.5719
    9MOL0     C 1120   5.510   3.700   9.663  0.2374  0.2840  0.6963
    9MOL0     C 1121   5.561   3.581   9.748 -0.2012  0.5363 -0.5934
    9MOL0     C 1122   5.705   3.543   9.704  0.2613 -1.0898  0.4398
    9MOL0     C 1123   5.812   3.634   9.750 -0.8160 -0.9721 -0.5777
    9MOL0     C 1124   5.855   3.726   9.644  0.7948 -1.2516  0.6093
    9MOL0    Cl 1125   6.001   3.822   9.692 -0.2680 -0.1494  0.4214
    9MOL0     C 1126   4.893   3.969   9.684 -0.5976  0.3229  0.1938
    9MOL0     C 1127   4.767   4.020   9.716  0.1772  0.1984 -0.0494
    9MOL0     O 1128   4.611   4.345   9.628  0.1403 -0.3699 -0.1895
    9MOL0     C 1129   4.385   4.451   9.705  1.1514 -0.7034  0.4156
    9MOL0     C 1130   4.249   4.485   9.717 -0.2128  0.3307  0.8606
    9MOL0     N 1131   3.582   4.896   9.811  0.5321 -0.9332 -0.0779
    9MOL0     N 1132   3.484   4.975   9.783  0.1571 -0.1541  0.2510
    9MOL0     C 1133   2.364   5.165   9.631 -0.8343  0.9011  0.7143
    9MOL0     C 1134   2.238   5.200   9.665 -0.2248 -0.2202  0.7742
    9MOL0     C 1135   1.890   5.465   9.835 -0.1084 -0.1640 -0.3179
    9MOL0     C 1136   1.873   5.365   9.938  0.3607  0.1212 -0.0491
    9MOL0     C 1137   1.764   5.373  10.029 -0.5086 -0.0460 -0.3521
    9MOL0     C 1138   1.666   5.477  10.015 -0.3138  0.9357 -0.2631
    9MOL0     O 1139   1.559   5.482  10.099 -0.6602  0.9429 -0.1731
    9MOL0     C 1140   1.485   5.355  10.101 -0.9005  0.6037 -0.1607
    9MOL0     C 1141   1.390   5.357   9.990 -0.3317  0.2254 -1.2169
    9MOL0     C 1142   1.265   5.442  10.026 -0.2547 -1.0260 -0.4913
    9MOL0     C 1143   1.173   5.464   9.905  0.3099 -0.8126  0.8404
    9MOL0     C 1144   1.052   5.531   9.949  0.5479  0.8787  1.1228
    9MOL0     C 1145   0.955   5.594   9.976  0.5734  0.2523  0.0537
    9MOL0     C 1146   1.666   5.558   9.902 -0.7247 -0.0210 -0.0473
    9MOL0     C 1147   1.783   5.555   9.820 -0.6362 -0.3784  0.4248
    9MOL0     H 1148   2.283   5.523   9.767 -1.9183  1.4744 -4.8651
    9MOL0     H 1149   2.515   5.464   9.682  1.2054 -1.4797  4.0328
    9MOL0     H 1150   2.741   5.357   9.631  0.6565 -0.9421  1.4493
    9MOL0     H 1151   2.685   5.270   9.764 -3.8065  3.2467 -1.2221
    9MOL0     H 1152   2.863   5.144   9.733  1.0201  0.1277 -0.9918
    9MOL0     H 1153   2.790   5.078   9.589 -0.9679 -0.2295  1.3815
    9MOL0     H 1154   2.879   5.303   9.460  2.2373  1.8363 -0.2678
    9MOL0     H 1155   2.974   5.316   9.614 -0.1571 -0.2646  0.4562
    9MOL0     H 1156   3.066   5.077   9.570  0.2460 -1.7427 -1.5042
    9MOL0     H 1157   2.975   5.078   9.418  0.7678 -0.0482 -0.6631
    9MOL0     H 1158   3.137   5.253   9.321 -0.1182 -1.4310 -0.0649
    9MOL0     H 1159   3.173   5.293   9.484 -1.6088  1.7333 -0.2344
    9MOL0     H 1160   3.258   5.053   9.306  0.4981  1.5067 -1.2162
    9MOL0     H 1161   3.371   5.172   9.357  0.3068 -1.5766  2.5244
    9MOL0     H 1162   3.252   4.999   9.574  0.0265  2.9743  2.7609
    9MOL0     H 1163   3.394   4.961   9.470  0.8308  1.9365 -1.7767
    9MOL0     H 1164   3.357   5.192   9.663  0.1765  0.7168 -1.4922
    9MOL0     H 1165   3.493   5.189   9.540 -0.2501 -2.5021 -4.0345
    9MOL0     H 1166   3.717   5.093   9.588  0.2855 -1.1814 -1.4831
    9MOL0     H 1167   3.851   4.883   9.604 -4.2241  4.5203 -2.1029
    9MOL0     H 1168   3.896   4.924   9.770 -2.1243  1.3528  1.6966
    9MOL0     H 1169   3.752   4.665   9.671  0.0347 -1.3236  1.5773
    9MOL0     H 1170   3.785   4.704   9.846 -1.1096 -0.6795 -0.0305
    9MOL0     H 1171   4.010   4.702   9.802 -1.2180  1.9236  0.1958
    9MOL0     H 1172   3.992   4.704   9.622  0.6837  1.8918  0.2284
    9MOL0     H 1173   3.966   4.478   9.614 -2.7066 -0.8340  0.7880
    9MOL0     H 1174   3.849   4.469   9.737 -1.0017  1.1447  0.2263
    9MOL0     H 1175   4.159   4.293   9.988 -2.1483  2.8136  0.6634
    9MOL0     H 1176   4.492   4.157   9.995  0.3433  1.1114  2.4336
    9MOL0     H 1177   4.491   4.323  10.050 -0.2720 -1.8100  4.4114
    9MOL0     H 1178   4.372   4.212  10.110 -0.6132 -1.2207  0.9482
    9MOL0     H 1179   4.849   4.334   9.789 -0.8298 -0.0235  2.6256
    9MOL0     H 1180   5.079   4.247   9.723  0.7581 -1.2758 -0.5093
    9MOL0     H 1181   5.112   3.810   9.695  1.2433 -2.1220 -0.9959
    9MOL0     H 1182   5.127   3.847   9.526 -1.2755  0.1099  0.0982
    9MOL0     H 1183   5.335   3.845   9.505 -0.2242 -0.8403 -1.4206
    9MOL0     H 1184   5.374   3.947   9.643  0.5633  0.6883 -3.6995
    9MOL0     H 1185   5.289   3.652   9.681 -1.4347  0.3345  0.8196
    9MOL0     H 1186   5.355   3.764   9.797  2.0068 -1.1526 -1.1204
    9MOL0     H 1187   5.512   3.675   9.557  0.6603  1.1037  0.5022
    9MOL0     H 1188   5.562   3.794   9.685  0.1180  0.3706  0.6123
    9MOL0     H 1189   5.489   3.500   9.738 -1.1120  1.3810 -1.0691
    9MOL0     H 1190   5.550   3.606   9.854  2.0178  0.0856 -0.1998
    9MOL0     H 1191   5.738   3.443   9.731 -2.5384 -1.8627  1.2997
    9MOL0     H 1192   5.698   3.556   9.595  1.1538  3.5040  0.7008
    9MOL0     H 1193   5.890   3.572   9.794  0.9838 -1.7762 -4.4244
    9MOL0     H 1194   5.773   3.703   9.825  3.9387  0.3797  0.9423
    9MOL0     H 1195   5.766   3.783   9.617  1.1672 -0.4479  1.0455
    9MOL0     H 1196   5.873   3.660   9.558  0.6167  0.9649 -1.2095
    9MOL0     H 1197   4.890   3.866   9.649 -2.5520  0.1279  0.7842
    9MOL0     H 1198   4.686   3.949   9.698  1.9917 -2.3017  1.0099
    9MOL0     H 1199   4.425   4.496   9.615 -0.0860 -3.1610 -1.4824
    9MOL0     H 1200   4.220   4.570   9.657 -0.6049  0.5457  1.3466
    9MOL0     H 1201   2.381   5.074   9.574  1.8902  2.6417 -1.4722
    9MOL0     H 1202   2.164   5.129   9.631  2.3806 -1.6757 -2.4100
    9MOL0     H 1203   1.954   5.298   9.965  0.1515  1.2399  4.0578
    9MOL0     H 1204   1.778   5.303  10.111 -1.0625  0.9953  0.6624
    9MOL0     H 1205   1.539   5.261  10.086 -0.3502  0.1952  3.4990
    9MOL0     H 1206   1.437   5.347  10.199  1.1654 -1.0259  0.7973
    9MOL0     H 1207   1.349   5.256   9.992 -2.6700  1.1264  0.9910
    9MOL0     H 1208   1.437   5.387   9.896 -0.7886  0.6180 -1.3227
    9MOL0     H 1209   1.297   5.533  10.078 -3.4089  0.1609 -0.3712
    9MOL0     H 1210   1.195   5.400  10.099 -0.4253  0.0041 -0.0337
    9MOL0     H 1211   1.143   5.365   9.870  1.3862 -1.3031  1.2527
    9MOL0     H 1212   1.224   5.523   9.828 -0.8761  0.2153  0.8177
    9MOL0     H 1213   0.872   5.654  10.006 -0.1532 -1.2014  1.0759
    9MOL0     H 1214   1.586   5.630   9.896 -1.6788 -0.6306  3.0859
    9MOL0     H 1215   1.792   5.628   9.741 -0.4499 -2.3499 -1.4937
   10MOL0     O 1216   6.444   1.840   9.456 -0.1173  0.1073  0.1881
   10MOL0     C 1217   6.420   1.953   9.508  0.7059 -0.1907  1.6671
   10MOL0     O 1218   6.322   1.983   9.603  0.2368 -0.2433  0.2563
   10MOL0     C 1219   6.248   1.879   9.660  0.1732 -0.1882  0.5034
   10MOL0     C 1220   6.326   1.784   9.735 -0.3297 -0.1777  0.3221
   10MOL0     C 1221   6.276   1.672   9.802  1.5211 -0.2280  0.5590
   10MOL0     C 1222   6.132   1.669   9.819 -0.1560  0.0160  0.2710
   10MOL0     O 1223   6.060   1.579   9.895 -0.1947 -0.2080  0.2649
   10MOL0     C 1224   6.123   1.453   9.891  1.4446  0.3958 -0.0666
   10MOL0     C 1225   6.032   1.331   9.914  0.1167  0.2968  0.6954
   10MOL0     C 1226   5.923   1.324   9.805  0.6337  0.3805 -0.1591
   10MOL0     C 1227   5.879   1.190   9.745  0.1107 -0.0489 -0.2208
   10MOL0     C 1228   5.721   1.166   9.736  0.9908 -1.4119 -1.0888
   10MOL0     C 1229   5.670   1.131   9.876 -0.2548  0.5178  0.2760
   10MOL0     C 1230   5.524   1.092   9.861  0.6122 -0.2080  0.4665
   10MOL0     C 1231   5.462   1.110   9.989  0.2684 -0.4529 -0.2641
   10MOL0     N 1232   5.323   1.069   9.978  0.7481 -0.6412  0.0851
   10MOL0     C 1233   5.234   1.087  10.082 -0.6889 -0.8682  0.6554
   10MOL0     C 1234   5.113   1.057  10.030 -0.1152  0.2266  0.1571
   10MOL0     C 1235   4.979   1.092  10.091 -0.2255 -0.0067 -0.0783
   10MOL0     C 1236   4.945   1.010  10.216 -0.2170 -0.1517  0.1310
   10MOL0     C 1237   4.815   1.061  10.268 -0.6960 -0.8673 -0.4236
   10MOL0     C 1238   4.806   1.071  10.425 -0.4832  0.0430 -0.5223
   10MOL0     O 1239   4.801   0.943  10.491  0.4685 -0.5849 -0.0213
   10MOL0     C 1240   4.810   0.941  10.631  0.7910  0.7796  0.0171
   10MOL0     C 1241   4.825   0.809  10.689 -1.3932  0.4681 -0.0719
   10MOL0     C 1242   4.839   0.785  10.823  0.1799  0.2027 -0.6924
   10MOL0     C 1243   4.863   0.638  10.872  0.4239 -0.2091  1.0121
   10MOL0     C 1244   4.848   0.899  10.915 -0.5796  0.5798 -1.0463
   10MOL0     C 1245   4.861   0.888  11.065 -0.2438  0.8111  0.2816
   10MOL0     O 1246   4.925   0.988  11.120  0.0090 -0.3156 -0.2874
   10MOL0     C 1247   4.926   0.984  11.259  0.1817 -0.2199  0.0604
   10MOL0     C 1248   4.859   1.086  11.324 -0.2883  0.9470 -0.1291
   10MOL0     C 1249   4.838   1.079  11.462 -0.0440  0.0702 -0.3777
   10MOL0     C 1250   4.908   0.982  11.538  1.1531 -0.0598 -0.6967
   10MOL0     O 1251   4.887   0.947  11.673  0.3057  0.7499  0.2058
   10MOL0     C 1252   4.820   1.042  11.759  0.1844 -0.1579 -0.1552
   10MOL0     C 1253   4.920   1.132  11.831  0.4178  0.9196 -0.3960
   10MOL0     C 1254   4.849   1.207  11.940  0.8288 -0.0322  0.4233
   10MOL0     C 1255   4.949   1.286  12.022  0.4488 -0.3979 -0.4589
   10MOL0     C 1256   4.916   1.291  12.175  0.1417  1.4500  0.3594
   10MOL0     C 1257   4.936   1.148  12.236 -0.0063 -0.4679  0.3820
   10MOL0     C 1258   4.944   1.164  12.395  0.2049  0.6136 -0.0536
   10MOL0     C 1259   4.991   1.038  12.473  0.0664  0.6452 -1.1314
   10MOL0    Cl 1260   5.042   1.091  12.637  0.1939  0.2155 -0.5363
   10MOL0     C 1261   4.981   0.887  11.470 -1.1909  0.6266 -0.3432
   10MOL0     C 1262   4.990   0.886  11.335  0.3516 -0.7023 -0.0123
   10MOL0     O 1263   4.824   0.780  11.121 -0.5653  0.5458  0.2779
   10MOL0     C 1264   4.858   1.025  10.852  0.6866  0.3379  0.3497
   10MOL0     C 1265   4.826   1.049  10.721 -0.6085  0.2993  1.3947
   10MOL0     N 1266   5.127   1.014   9.898  0.6380 -0.2680  0.4146
   10MOL0     N 1267   5.260   1.013   9.876  0.9032  0.2940  0.1331
   10MOL0     C 1268   6.052   1.769   9.754  0.0574 -1.0116  0.3698
   10MOL0     C 1269   6.107   1.878   9.676 -0.8394  0.3833  0.6332
   10MOL0     C 1270   6.493   2.074   9.457 -0.1834  0.1237 -0.4957
   10MOL0     C 1271   6.469   2.200   9.516  1.1930  0.4256  0.3931
   10MOL0     C 1272   6.525   2.311   9.462 -0.4317 -0.4957 -0.6757
   10MOL0     C 1273   6.608   2.314   9.351  0.1275 -0.1135 -0.1545
   10MOL0     O 1274   6.646   2.427   9.286 -0.5101 -0.1748  0.7170
   10MOL0     C 1275   6.745   2.502   9.347 -0.3511 -0.9537  0.0864
   10MOL0     C 1276   6.685   2.627   9.386  0.0194  1.3660  0.5582
   10MOL0     C 1277   6.765   2.729   9.464 -0.5762 -0.4408 -1.0290
   10MOL0     C 1278   6.827   2.839   9.362 -0.6387 -0.3477 -0.3736
   10MOL0     C 1279   6.954   2.901   9.406  0.1674 -0.3295 -0.8909
   10MOL0     C 1280   7.052   2.956   9.457 -0.5931  0.1393  0.4546
   10MOL0     C 1281   6.642   2.190   9.304 -0.0445  0.6127  0.5563
   10MOL0     C 1282   6.574   2.067   9.348  0.8087  0.6331 -0.1045
   10MOL0     H 1283   6.432   1.797   9.718 -0.7720 -0.4517 -3.4458
   10MOL0     H 1284   6.347   1.605   9.850  0.4171 -2.8036 -1.1855
   10MOL0     H 1285   6.174   1.443   9.795  0.3748  0.0411 -0.6002
   10MOL0     H 1286   6.193   1.464   9.975  3.4941  2.3691 -1.8778
   10MOL0     H 1287   6.083   1.235   9.903 -1.8412 -0.6694 -0.3431
   10MOL0     H 1288   5.979   1.325  10.009 -1.8696 -3.9967 -0.4178
   10MOL0     H 1289   5.841   1.389   9.839  0.7483  0.6201 -0.3359
   10MOL0     H 1290   5.965   1.383   9.723 -2.1238  3.9153  0.7216
   10MOL0     H 1291   5.928   1.177   9.648  1.5203 -3.0664  0.7699
   10MOL0     H 1292   5.917   1.102   9.798 -4.1518 -2.4699 -0.7188
   10MOL0     H 1293   5.669   1.259   9.710  1.5898 -0.1744  1.7618
   10MOL0     H 1294   5.702   1.094   9.656  0.4596 -1.1385 -1.2200
   10MOL0     H 1295   5.721   1.048   9.924 -1.8234  0.9681  2.9186
   10MOL0     H 1296   5.678   1.216   9.944  2.2394 -0.6728  1.5871
   10MOL0     H 1297   5.481   1.152   9.780 -0.7531 -0.5087  0.9413
   10MOL0     H 1298   5.515   0.987   9.834  0.0578 -0.6150  2.1143
   10MOL0     H 1299   5.454   1.217  10.011  1.3302 -0.0552 -1.6664
   10MOL0     H 1300   5.520   1.056  10.063  0.3053  0.3628  0.3206
   10MOL0     H 1301   5.265   1.135  10.174  2.9315  1.0976 -1.3694
   10MOL0     H 1302   4.979   1.198  10.115 -0.2029 -0.0467  0.0992
   10MOL0     H 1303   4.904   1.078  10.012 -2.5344  3.4153  1.2992
   10MOL0     H 1304   5.017   1.018  10.298 -2.0590 -1.8149  2.0379
   10MOL0     H 1305   4.950   0.906  10.183  0.8273  0.3386 -1.3758
   10MOL0     H 1306   4.731   0.998  10.238  1.6398 -3.6202 -1.6994
   10MOL0     H 1307   4.804   1.166  10.240  0.3571 -0.4206  0.7160
   10MOL0     H 1308   4.709   1.120  10.436 -0.7293  0.2748 -3.0403
   10MOL0     H 1309   4.884   1.133  10.470 -0.7678 -0.1569  0.2526
   10MOL0     H 1310   4.849   0.738  10.611  1.8464  1.2353  0.0931
   10MOL0     H 1311   4.761   0.606  10.894 -0.8460 -0.4260 -3.8935
   10MOL0     H 1312   4.879   0.577  10.782 -2.4994  0.6891 -0.2411
   10MOL0     H 1313   4.942   0.638  10.948  0.2078  1.7171  1.2897
   10MOL0     H 1314   4.806   1.160  11.265 -0.7421 -0.3752 -1.4641
   10MOL0     H 1315   4.776   1.161  11.497  0.0902  1.2064 -2.6168
   10MOL0     H 1316   4.742   1.101  11.711  0.5506  2.9521  2.7147
   10MOL0     H 1317   4.766   0.981  11.832 -4.3205  3.5973  0.0561
   10MOL0     H 1318   4.992   1.060  11.870 -0.1866  0.9589  0.8302
   10MOL0     H 1319   4.964   1.207  11.764  3.5494 -0.2347  0.1633
   10MOL0     H 1320   4.784   1.146  12.002  1.2602 -0.7205  0.2049
   10MOL0     H 1321   4.774   1.269  11.889 -0.7846 -0.3998  2.2447
   10MOL0     H 1322   5.047   1.242  12.000  0.6465  0.2250 -0.8522
   10MOL0     H 1323   4.955   1.389  11.987  0.4715 -1.4114 -3.7886
   10MOL0     H 1324   4.809   1.311  12.187  0.1554  2.0249 -0.3882
   10MOL0     H 1325   4.979   1.367  12.221  1.8643 -0.9507  2.2351
   10MOL0     H 1326   4.847   1.085  12.219  1.6918 -2.4122 -2.1718
   10MOL0     H 1327   5.027   1.096  12.204  2.2747  1.6435  2.9565
   10MOL0     H 1328   4.849   1.195  12.439  0.3574 -0.4758  1.1206
   10MOL0     H 1329   5.012   1.245  12.424 -0.2320  0.8821  0.2394
   10MOL0     H 1330   5.067   0.982  12.418  0.1958  1.3296 -1.6766
   10MOL0     H 1331   4.900   0.981  12.493  0.1292  0.9713  0.1146
   10MOL0     H 1332   5.034   0.809  11.524 -0.0820  1.0557 -0.7730
   10MOL0     H 1333   5.058   0.809  11.301  0.6551 -1.2851  1.7901
   10MOL0     H 1334   4.883   1.105  10.921 -0.0573 -0.0235  1.0636
   10MOL0     H 1335   4.818   1.156  10.708  1.8113  0.2735 -1.2551
   10MOL0     H 1336   5.945   1.750   9.752  0.1033 -1.2297 -0.8277
   10MOL0     H 1337   6.055   1.954   9.619  1.2724  1.4532  0.0570
   10MOL0     H 1338   6.392   2.211   9.592 -0.3069  0.6631 -1.0910
   10MOL0     H 1339   6.495   2.412   9.491 -0.2005 -1.6398  4.4590
   10MOL0     H 1340   6.793   2.443   9.426  1.1156 -0.3192 -0.3136
   10MOL0     H 1341   6.816   2.532   9.269  0.5401 -1.7244  0.5739
   10MOL0     H 1342   6.586   2.616   9.433  0.1287  3.3316  1.3682
   10MOL0     H 1343   6.647   2.668   9.292 -2.1221 -0.6718  0.4281
   10MOL0     H 1344   6.834   2.685   9.536 -1.4371  1.3818  1.0139
   10MOL0     H 1345   6.696   2.774   9.535 -1.8274 -1.0808 -1.8016
   10MOL0     H 1346   6.750   2.913   9.340  0.3290  0.6566 -0.4354
   10MOL0     H 1347   6.850   2.787   9.268  2.5447 -1.4482  0.8671
   10MOL0     H 1348   7.141   3.010   9.479 -0.1441 -0.9250  1.3618
   10MOL0     H 1349   6.706   2.186   9.217  2.0280 -1.6894  2.0190
   10MOL0     H 1350   6.589   1.975   9.291  1.6437  0.4175  0.4473
   11MOL0     O 1351  10.385   1.870   3.644  0.1875 -1.2384  0.4455
   11MOL0     C 1352  10.277   1.928   3.659  0.1834 -0.3062 -0.2972
   11MOL0     O 1353  10.215   1.963   3.780  0.1705  0.7438  0.8026
   11MOL0     C 1354  10.275   1.937   3.902  1.0529 -0.2991  0.3303
   11MOL0     C 1355  10.181   1.925   4.008  0.8421  0.1256  0.4784
   11MOL0     C 1356  10.216   1.904   4.141 -0.6832 -0.0597 -0.2505
   11MOL0     C 1357  10.356   1.887   4.178  0.1565  0.1456 -0.9500
   11MOL0     O 1358  10.391   1.888   4.305 -0.5542  0.2155  0.0672
   11MOL0     C 1359  10.464   1.781   4.353  0.3759  0.0859 -0.7123
   11MOL0     C 1360  10.475   1.776   4.504 -1.2676 -0.3475  0.7470
   11MOL0     C 1361  10.545   1.905   4.558  0.2038 -0.3115  0.7737
   11MOL0     C 1362  10.703   1.901   4.550  0.0209  0.6421 -0.9195
   11MOL0     C 1363  10.761   2.018   4.611 -0.3845 -0.0168 -0.3717
   11MOL0     C 1364  10.909   2.017   4.597 -0.8689  0.1980 -0.8630
   11MOL0     C 1365  10.964   2.160   4.612  0.2710  0.3194  1.0628
   11MOL0     C 1366  11.023   2.196   4.477 -0.9842 -0.4208 -0.2136
   11MOL0     N 1367  10.923   2.202   4.363 -0.6491 -0.7097 -0.3503
   11MOL0     C 1368  10.870   2.316   4.320  0.0518 -0.0424  0.6719
   11MOL0     C 1369  10.818   2.284   4.196 -0.8891  1.1529 -0.9086
   11MOL0     C 1370  10.748   2.389   4.119 -0.0499  1.5089 -0.0141
   11MOL0     C 1371  10.800   2.384   3.974 -0.5568  0.6057  0.2994
   11MOL0     C 1372  10.772   2.253   3.889 -0.8090 -0.2723  0.5214
   11MOL0     C 1373  10.619   2.207   3.878 -0.8675  0.4466 -0.4401
   11MOL0     O 1374  10.537   2.313   3.836  0.3388 -0.7569  0.5796
   11MOL0     C 1375  10.512   2.333   3.695 -0.4858  0.2354 -1.4023
   11MOL0     C 1376  10.570   2.275   3.586  0.8267  0.0518 -0.2188
   11MOL0     C 1377  10.530   2.294   3.452  0.0976  0.2582 -0.3030
   11MOL0     C 1378  10.609   2.209   3.348 -0.2889 -0.9420  0.6064
   11MOL0     C 1379  10.428   2.377   3.425  0.0635  0.2390 -0.4140
   11MOL0     C 1380  10.378   2.404   3.288  0.0037 -0.2815 -0.2203
   11MOL0     O 1381  10.310   2.524   3.281 -0.8088 -0.2101  0.1494
   11MOL0     C 1382  10.265   2.562   3.163 -1.0430  0.6008 -0.1420
   11MOL0     C 1383  10.131   2.580   3.155  0.0897  0.1811 -0.9230
   11MOL0     C 1384  10.082   2.620   3.036 -0.0310 -1.0885 -0.5229
   11MOL0     C 1385  10.155   2.640   2.918 -0.3155  0.5086  0.6713
   11MOL0     O 1386  10.081   2.678   2.813  0.0521  0.1868  0.1754
   11MOL0     C 1387  10.149   2.710   2.688  0.2150  0.6861 -0.2983
   11MOL0     C 1388  10.048   2.703   2.574 -0.0301  1.1768 -0.0827
   11MOL0     C 1389  10.104   2.747   2.444  0.3475 -0.9255  0.4662
   11MOL0     C 1390  10.217   2.668   2.378 -0.0427 -0.0092 -0.0275
   11MOL0     C 1391  10.169   2.543   2.310  0.2270  0.4976  0.0371
   11MOL0     C 1392  10.178   2.407   2.388 -0.2237 -0.6716 -0.4355
   11MOL0     C 1393  10.105   2.298   2.308  0.1684 -0.2011  0.5432
   11MOL0     C 1394  10.103   2.167   2.389  0.2191 -0.1394 -1.1019
   11MOL0    Cl 1395  10.257   2.070   2.370 -0.3515  0.2714  0.3230
   11MOL0     C 1396  10.295   2.633   2.934  0.2918  1.0432  0.1191
   11MOL0     C 1397  10.353   2.594   3.057  0.4730  1.5435  0.4335
   11MOL0     O 1398  10.372   2.318   3.206  0.0009 -0.0387 -0.1587
   11MOL0     C 1399  10.360   2.438   3.539 -0.1258 -0.4041  0.3248
   11MOL0     C 1400  10.412   2.426   3.668 -0.3850  0.1787 -0.2276
   11MOL0     N 1401  10.832   2.144   4.183  0.2264  0.1509 -0.7304
   11MOL0     N 1402  10.902   2.102   4.278  0.1624  0.4039  0.0191
   11MOL0     C 1403  10.445   1.896   4.068 -0.1026  0.6976  0.5775
   11MOL0     C 1404  10.410   1.917   3.937  0.4702 -0.1844 -0.1893
   11MOL0     C 1405  10.212   1.987   3.536 -0.4548 -0.0551  1.2245
   11MOL0     C 1406  10.236   1.934   3.411 -0.9189 -0.3597  0.4883
   11MOL0     C 1407  10.201   2.004   3.296  0.5305  0.2184  0.9124
   11MOL0     C 1408  10.122   2.114   3.302  0.9604  0.3580  0.3572
   11MOL0     O 1409  10.080   2.191   3.195 -0.2377  0.6490 -0.3732
   11MOL0     C 1410  10.120   2.150   3.062  0.0270  0.1106  0.3105
   11MOL0     C 1411  10.067   2.252   2.961  0.7281 -0.4718  0.3404
   11MOL0     C 1412   9.912   2.244   2.933 -0.8906 -0.1528  0.0973
   11MOL0     C 1413   9.812   2.193   3.045  0.7397  1.0324  1.1718
   11MOL0     C 1414   9.788   2.304   3.136 -0.5120 -0.3659  0.3426
   11MOL0     C 1415   9.801   2.405   3.209 -0.0994  0.3686  0.5252
   11MOL0     C 1416  10.088   2.159   3.430  0.7651 -0.3347 -0.8703
   11MOL0     C 1417  10.131   2.098   3.546 -0.0535 -0.4788 -0.6296
   11MOL0     H 1418  10.075   1.925   3.983  0.0199 -1.4154  3.5063
   11MOL0     H 1419  10.143   1.899   4.221  0.8446 -2.6578  1.1144
   11MOL0     H 1420  10.415   1.684   4.337  1.6001 -1.1338  2.1896
   11MOL0     H 1421  10.559   1.785   4.299  2.3991  0.2302  2.5944
   11MOL0     H 1422  10.375   1.775   4.549 -0.0425 -0.9050  3.6770
   11MOL0     H 1423  10.535   1.691   4.535  2.4220  0.3216 -3.6174
   11MOL0     H 1424  10.510   1.995   4.506  0.5373  0.5209  1.9397
   11MOL0     H 1425  10.515   1.916   4.663 -0.1601 -0.3319  0.6703
   11MOL0     H 1426  10.728   1.807   4.601 -1.8820  1.5071  1.8341
   11MOL0     H 1427  10.739   1.876   4.450  2.4538 -0.4757  0.1486
   11MOL0     H 1428  10.727   2.112   4.567  1.8826 -0.2924 -3.0407
   11MOL0     H 1429  10.740   2.015   4.718 -0.4152 -1.4325 -0.4046
   11MOL0     H 1430  10.944   1.961   4.684 -2.6055  3.7180  2.4266
   11MOL0     H 1431  10.948   1.964   4.510  3.9187  1.7014  0.0919
   11MOL0     H 1432  10.884   2.230   4.640  0.0101  0.2725  0.4585
   11MOL0     H 1433  11.035   2.169   4.695  0.2449  0.1035  1.1088
   11MOL0     H 1434  11.103   2.127   4.449 -0.9152 -0.3688 -0.1446
   11MOL0     H 1435  11.084   2.286   4.479  1.9363 -2.2951  0.9780
   11MOL0     H 1436  10.866   2.412   4.370  0.1521 -0.8190  2.2404
   11MOL0     H 1437  10.640   2.380   4.126 -0.0833  0.7912 -1.1366
   11MOL0     H 1438  10.774   2.493   4.142 -0.2389  1.1077  2.2019
   11MOL0     H 1439  10.908   2.399   3.975 -0.4687  1.0126 -2.9730
   11MOL0     H 1440  10.753   2.471   3.927 -0.5331 -0.5691 -2.0803
   11MOL0     H 1441  10.823   2.169   3.937  0.8189 -0.0264 -0.6946
   11MOL0     H 1442  10.813   2.266   3.789 -4.2190  1.3551 -0.8391
   11MOL0     H 1443  10.585   2.166   3.974 -1.1630 -3.5092 -2.0254
   11MOL0     H 1444  10.612   2.126   3.804 -2.5237 -0.2400  0.4164
   11MOL0     H 1445  10.657   2.217   3.614  0.7662  0.7026  1.4210
   11MOL0     H 1446  10.590   2.101   3.355 -2.4946 -0.7019 -0.9521
   11MOL0     H 1447  10.594   2.237   3.244 -0.8958 -0.7144  0.7501
   11MOL0     H 1448  10.717   2.207   3.369 -0.1330 -3.0308 -0.1073
   11MOL0     H 1449  10.073   2.563   3.245  0.2942  3.0769 -0.1389
   11MOL0     H 1450   9.975   2.640   3.025  0.0367  0.1207  0.6970
   11MOL0     H 1451  10.196   2.809   2.697  3.7504 -0.9633  1.5030
   11MOL0     H 1452  10.232   2.642   2.670  1.5200  1.6565  1.6892
   11MOL0     H 1453  10.013   2.601   2.562  1.2362  0.7190 -0.0681
   11MOL0     H 1454   9.956   2.755   2.601 -2.0580 -1.7201 -1.0392
   11MOL0     H 1455  10.141   2.848   2.468  1.2479 -1.7281  2.7144
   11MOL0     H 1456  10.022   2.765   2.374 -1.3690 -0.1426  2.5296
   11MOL0     H 1457  10.253   2.737   2.301  0.6437  3.1791  2.8853
   11MOL0     H 1458  10.304   2.649   2.442 -0.8827 -1.3298  0.7662
   11MOL0     H 1459  10.233   2.535   2.222 -1.7231  1.7470 -1.5783
   11MOL0     H 1460  10.063   2.554   2.285  0.6666 -0.0095 -2.3600
   11MOL0     H 1461  10.286   2.396   2.399  0.7411  4.6065 -1.7588
   11MOL0     H 1462  10.131   2.430   2.484  1.1863  1.1971 -0.1385
   11MOL0     H 1463  10.156   2.298   2.212  1.8997 -1.2548  1.4034
   11MOL0     H 1464  10.000   2.319   2.285  0.2090 -0.3058  0.2664
   11MOL0     H 1465  10.029   2.102   2.342  1.3288 -0.5853 -2.3245
   11MOL0     H 1466  10.082   2.175   2.496 -2.4584 -1.9135 -1.4040
   11MOL0     H 1467  10.365   2.656   2.854 -0.7101  0.0294 -1.0974
   11MOL0     H 1468  10.459   2.574   3.067  0.2038 -3.3093 -2.7979
   11MOL0     H 1469  10.275   2.505   3.527  0.1776 -0.0908 -0.0719
   11MOL0     H 1470  10.370   2.475   3.756 -2.1559  1.5737 -1.7710
   11MOL0     H 1471  10.551   1.905   4.090 -0.6835  2.5474  2.9910
   11MOL0     H 1472  10.479   1.928   3.854 -0.6665  0.4197 -1.0793
   11MOL0     H 1473  10.294   1.843   3.399  1.7080  1.3693 -1.0618
   11MOL0     H 1474  10.228   1.955   3.203 -0.5872  2.1018 -0.4677
   11MOL0     H 1475  10.227   2.138   3.043  0.4040  2.5409  0.5659
   11MOL0     H 1476  10.076   2.052   3.040 -3.7251  1.5603  0.5372
   11MOL0     H 1477  10.132   2.248   2.873 -0.6124 -2.4941 -0.6468
   11MOL0     H 1478  10.098   2.352   2.993  2.5565  0.9039 -4.7372
   11MOL0     H 1479   9.900   2.169   2.855  1.8316  0.5924 -1.1571
   11MOL0     H 1480   9.888   2.345   2.897 -2.2051 -0.5561 -0.1926
   11MOL0     H 1481   9.860   2.106   3.090  1.2392  0.6052 -0.1395
   11MOL0     H 1482   9.726   2.157   2.986  1.9315  1.4256 -0.9044
   11MOL0     H 1483   9.814   2.494   3.268  2.4508  0.7258 -0.4614
   11MOL0     H 1484  10.024   2.246   3.442  0.8451 -0.4974  1.1021
   11MOL0     H 1485  10.108   2.142   3.643 -0.6847  0.5636 -1.2283
   12MOL0     O 1486  10.105   0.560   9.975 -0.7576  0.4930  0.5277
   12MOL0     C 1487  10.100   0.680   9.982  1.3945  0.5650 -0.6242
   12MOL0     O 1488  10.195   0.774   9.952 -0.0959 -0.0193 -0.0995
   12MOL0     C 1489  10.279   0.766   9.838  0.3023  0.6224 -1.0670
   12MOL0     C 1490  10.284   0.655   9.754  0.5496  0.6673 -0.0529
   12MOL0     C 1491  10.369   0.644   9.644  0.5015 -1.4351  0.8116
   12MOL0     C 1492  10.457   0.747   9.617 -0.3266  0.3958 -0.1570
   12MOL0     O 1493  10.549   0.737   9.518 -0.1404 -0.8554  0.2666
   12MOL0     C 1494  10.476   0.722   9.391 -0.2275 -0.8486 -1.4541
   12MOL0     C 1495  10.528   0.826   9.300 -0.3011  0.8942  0.6115
   12MOL0     C 1496  10.527   0.967   9.349  0.7298 -0.3866  0.1120
   12MOL0     C 1497  10.390   1.018   9.368  0.8743 -0.1326 -0.5941
   12MOL0     C 1498  10.392   1.155   9.441  0.6027  0.7724  0.0580
   12MOL0     C 1499  10.400   1.270   9.341 -1.0033 -0.0350 -0.4806
   12MOL0     C 1500  10.249   1.296   9.301 -0.1687  0.3044  0.0110
   12MOL0     C 1501  10.194   1.417   9.360 -0.6210 -0.1485  0.0678
   12MOL0     N 1502  10.051   1.435   9.363  0.3768 -0.3970 -0.7726
   12MOL0     C 1503   9.961   1.397   9.275  0.5604  0.2494 -0.3957
   12MOL0     C 1504   9.841   1.454   9.315 -0.3436 -0.7903 -0.2813
   12MOL0     C 1505   9.714   1.421   9.229  0.1150  0.8020 -0.7452
   12MOL0     C 1506   9.712   1.510   9.106  0.3536  0.4253 -0.1246
   12MOL0     C 1507   9.713   1.653   9.137 -0.6333 -1.1943 -0.0068
   12MOL0     C 1508   9.664   1.727   9.009  0.5172  0.5131 -0.5249
   12MOL0     O 1509   9.540   1.694   8.955  1.0574  0.6054  0.1236
   12MOL0     C 1510   9.425   1.758   9.002  0.5448 -0.0945  1.3616
   12MOL0     C 1511   9.352   1.825   8.902 -0.9331 -0.5218 -0.0131
   12MOL0     C 1512   9.236   1.893   8.940 -0.1550 -0.7157 -0.1944
   12MOL0     C 1513   9.157   1.955   8.829  0.4060 -0.5621 -0.5162
   12MOL0     C 1514   9.182   1.891   9.076  0.3754 -0.6531  0.3845
   12MOL0     C 1515   9.051   1.947   9.128  0.9422 -0.5015 -0.0783
   12MOL0     O 1516   9.025   1.939   9.263 -0.0489  0.5538 -0.1967
   12MOL0     C 1517   8.907   1.977   9.319 -0.5531 -0.2641 -1.1569
   12MOL0     C 1518   8.776   1.945   9.268  0.7099 -0.1687  0.0148
   12MOL0     C 1519   8.661   1.984   9.338 -0.1771 -0.7061  1.1174
   12MOL0     C 1520   8.665   2.052   9.465  0.2137 -0.0352  0.7407
   12MOL0     O 1521   8.553   2.080   9.546 -0.2940  0.1977 -0.5503
   12MOL0     C 1522   8.458   1.974   9.566  0.5409 -0.3688 -0.7011
   12MOL0     C 1523   8.339   2.035   9.605  1.5746 -0.3699 -0.7945
   12MOL0     C 1524   8.231   1.942   9.665 -1.2313 -0.1580 -0.7481
   12MOL0     C 1525   8.089   2.007   9.663  0.4013  0.6168 -0.1756
   12MOL0     C 1526   7.981   1.910   9.737 -0.3795 -0.6542  0.1441
   12MOL0     C 1527   7.987   1.767   9.677 -0.0653 -0.1912 -0.7682
   12MOL0     C 1528   8.082   1.670   9.753 -0.3732 -0.5305  0.1337
   12MOL0     C 1529   8.112   1.537   9.674  0.5825 -0.5332 -0.5018
   12MOL0    Cl 1530   8.241   1.553   9.544  0.5142 -0.1496  0.2006
   12MOL0     C 1531   8.795   2.084   9.510  0.7553 -0.3488  0.3141
   12MOL0     C 1532   8.916   2.051   9.442 -0.0677 -0.3554 -0.5808
   12MOL0     O 1533   8.984   2.009   9.050  0.1883 -0.3249 -0.0044
   12MOL0     C 1534   9.257   1.817   9.165  0.1229 -0.2998 -0.5274
   12MOL0     C 1535   9.374   1.757   9.132 -0.6126  0.4437 -0.0161
   12MOL0     N 1536   9.868   1.544   9.421  0.1071 -0.2968  0.3085
   12MOL0     N 1537   9.979   1.510   9.454 -1.1894 -1.0277 -0.8102
   12MOL0     C 1538  10.449   0.868   9.693  0.0375  0.3228  0.3567
   12MOL0     C 1539  10.356   0.873   9.803  0.5102  0.5760 -0.7287
   12MOL0     C 1540   9.969   0.737  10.027  0.7311 -0.7057  0.6313
   12MOL0     C 1541   9.958   0.878  10.064 -0.0774 -0.7055 -0.2642
   12MOL0     C 1542   9.841   0.932  10.114  0.3733  0.4025  0.6955
   12MOL0     C 1543   9.725   0.849  10.128  0.3388 -0.2150  0.5989
   12MOL0     O 1544   9.604   0.913  10.167 -0.6496 -0.6657 -0.0165
   12MOL0     C 1545   9.480   0.849  10.152 -0.2824 -0.1079  0.4431
   12MOL0     C 1546   9.447   0.776  10.273  0.1771 -0.6498  0.4730
   12MOL0     C 1547   9.300   0.749  10.295 -0.1175  0.9449  0.3596
   12MOL0     C 1548   9.280   0.700  10.446  0.0433  0.4075  0.0915
   12MOL0     C 1549   9.134   0.695  10.469  0.7311  0.0792  0.0998
   12MOL0     C 1550   9.017   0.696  10.489  0.7281  0.3909 -0.7153
   12MOL0     C 1551   9.741   0.710  10.105  0.4455  0.3341 -0.4979
   12MOL0     C 1552   9.854   0.653  10.056 -1.0821  1.0677  0.2074
   12MOL0     H 1553  10.214   0.574   9.773  1.1596 -0.0580 -0.7854
   12MOL0     H 1554  10.360   0.575   9.561  1.0319  1.8172 -2.2068
   12MOL0     H 1555  10.505   0.630   9.339 -0.8103 -0.6515 -2.1425
   12MOL0     H 1556  10.367   0.731   9.399 -0.0571  0.8212 -0.5213
   12MOL0     H 1557  10.625   0.791   9.262 -1.6669  0.3774 -2.8067
   12MOL0     H 1558  10.460   0.819   9.214 -0.9544 -3.3120  1.2478
   12MOL0     H 1559  10.590   0.972   9.439 -0.9837  2.3322  1.2653
   12MOL0     H 1560  10.574   1.026   9.270 -1.3684 -3.0603 -3.4522
   12MOL0     H 1561  10.331   1.012   9.276  1.1911 -2.8737 -0.7163
   12MOL0     H 1562  10.339   0.953   9.439  0.6423 -0.5390 -1.1262
   12MOL0     H 1563  10.303   1.179   9.500  0.1311  4.8298 -1.9575
   12MOL0     H 1564  10.480   1.146   9.506  0.0931 -1.0791  0.5578
   12MOL0     H 1565  10.444   1.352   9.397  0.6530 -0.1451 -1.5392
   12MOL0     H 1566  10.472   1.249   9.261 -0.1762 -0.6694  0.4010
   12MOL0     H 1567  10.250   1.302   9.192 -0.9733 -1.9233 -0.1654
   12MOL0     H 1568  10.197   1.206   9.333  3.2557 -0.8196  3.1801
   12MOL0     H 1569  10.235   1.503   9.307  0.6752  0.1426  1.4725
   12MOL0     H 1570  10.231   1.428   9.463  1.0032  4.9369 -0.7887
   12MOL0     H 1571   9.981   1.334   9.188 -3.8459 -2.6289  0.3517
   12MOL0     H 1572   9.717   1.313   9.216 -2.0368  0.8578 -2.2285
   12MOL0     H 1573   9.628   1.435   9.296  0.7158 -1.3780  0.5753
   12MOL0     H 1574   9.622   1.479   9.052  1.7890  0.7138 -2.8544
   12MOL0     H 1575   9.794   1.477   9.042 -1.3747 -2.4427 -1.0102
   12MOL0     H 1576   9.812   1.691   9.161  0.0253 -3.2201  0.6557
   12MOL0     H 1577   9.653   1.666   9.228  0.1293 -0.8211  0.4554
   12MOL0     H 1578   9.747   1.699   8.942  2.7145 -2.8526  3.1633
   12MOL0     H 1579   9.660   1.835   9.024 -0.7940  0.7586 -2.3119
   12MOL0     H 1580   9.384   1.821   8.799  2.5583  0.0561  0.8962
   12MOL0     H 1581   9.054   1.921   8.815  0.1522  0.6840 -1.8332
   12MOL0     H 1582   9.147   2.062   8.850 -1.0661 -0.9685  1.1532
   12MOL0     H 1583   9.207   1.939   8.733 -2.6906 -1.8699 -2.0449
   12MOL0     H 1584   8.785   1.895   9.172  0.4442  2.1505 -1.2760
   12MOL0     H 1585   8.567   1.980   9.282  1.9446 -0.8888 -2.7997
   12MOL0     H 1586   8.448   1.902   9.484  3.2921 -1.4125 -0.2039
   12MOL0     H 1587   8.496   1.927   9.657  2.1013  1.8245 -0.1208
   12MOL0     H 1588   8.354   2.130   9.656 -2.9271 -0.9544  2.1837
   12MOL0     H 1589   8.293   2.080   9.516  0.4938  4.2679  1.8164
   12MOL0     H 1590   8.262   1.923   9.768 -2.3696  1.6348 -0.0226
   12MOL0     H 1591   8.222   1.846   9.615  2.7689 -1.6249  0.8977
   12MOL0     H 1592   8.092   2.114   9.687  1.3108  1.0657 -2.0248
   12MOL0     H 1593   8.059   2.007   9.558 -1.7236  2.9495  0.3473
   12MOL0     H 1594   7.887   1.956   9.706 -0.5970 -1.7227 -0.8873
   12MOL0     H 1595   7.977   1.903   9.846  0.4662  0.1678  0.2433
   12MOL0     H 1596   7.888   1.723   9.689  0.2104 -0.3134  1.6282
   12MOL0     H 1597   8.006   1.766   9.569 -0.5288 -1.8104 -0.8624
   12MOL0     H 1598   8.030   1.646   9.846 -0.0846  3.6334  1.5575
   12MOL0     H 1599   8.180   1.706   9.787 -0.2043  0.6402 -1.4683
   12MOL0     H 1600   8.026   1.508   9.613 -0.1959  3.3405 -1.5619
   12MOL0     H 1601   8.137   1.461   9.748 -0.4522  2.0341  2.7456
   12MOL0     H 1602   8.798   2.137   9.605 -0.7722 -0.9867  0.7409
   12MOL0     H 1603   9.001   2.094   9.493 -1.2293  1.4384 -0.0671
   12MOL0     H 1604   9.214   1.792   9.261  0.4889  0.1197 -0.2504
   12MOL0     H 1605   9.427   1.694   9.202 -0.7974  1.4550  1.0571
   12MOL0     H 1606  10.516   0.951   9.674 -0.5060  0.7771  0.4002
   12MOL0     H 1607  10.353   0.963   9.864  3.9983  0.0544  0.4434
   12MOL0     H 1608  10.040   0.948  10.056  2.1940 -2.7729  2.7666
   12MOL0     H 1609   9.845   1.037  10.140  0.9982  0.2889  1.0989
   12MOL0     H 1610   9.415   0.934  10.127 -1.7358  0.0632  4.2253
   12MOL0     H 1611   9.491   0.779  10.068  3.1000  0.3694  0.3567
   12MOL0     H 1612   9.495   0.834  10.352  1.1682  1.2716 -1.4325
   12MOL0     H 1613   9.502   0.681  10.277  2.3249  0.5719  1.7500
   12MOL0     H 1614   9.260   0.671  10.229  1.0160 -0.4211  1.2232
   12MOL0     H 1615   9.246   0.843  10.286 -3.0560 -0.7691 -2.2397
   12MOL0     H 1616   9.332   0.766  10.516  0.7777 -0.2924  0.2258
   12MOL0     H 1617   9.309   0.595  10.460 -2.9191 -0.7112 -1.3049
   12MOL0     H 1618   8.911   0.680  10.492  1.1312 -4.0722 -2.1548
   12MOL0     H 1619   9.655   0.644  10.102 -0.2915  1.1332  1.4256
   12MOL0     H 1620   9.865   0.546  10.039 -0.1529  1.4067 -1.6458
   13MOL0     O 1621   9.636   5.765   4.643  0.8721 -0.6109 -0.4657
   13MOL0     C 1622   9.541   5.836   4.684 -0.3140  0.7506 -0.1163
   13MOL0     O 1623   9.443   5.809   4.780  0.3750 -0.0784  0.3687
   13MOL0     C 1624   9.437   5.682   4.839  0.2671  0.5182 -0.7806
   13MOL0     C 1625   9.460   5.556   4.788  0.6468  1.5284 -0.8492
   13MOL0     C 1626   9.410   5.437   4.854 -0.8439 -0.1366  0.4781
   13MOL0     C 1627   9.354   5.454   4.977  0.2088 -0.2414 -0.0256
   13MOL0     O 1628   9.292   5.341   5.029  0.1825 -0.4857 -0.4528
   13MOL0     C 1629   9.385   5.252   5.097  0.6170  0.4028  0.3573
   13MOL0     C 1630   9.296   5.126   5.141 -0.6583  1.0114  0.3321
   13MOL0     C 1631   9.392   5.004   5.179 -0.6564  0.6597  0.9874
   13MOL0     C 1632   9.309   4.910   5.261  0.0551  0.2634 -1.3649
   13MOL0     C 1633   9.308   4.951   5.412  0.2267 -0.0195  0.2671
   13MOL0     C 1634   9.210   4.857   5.494 -0.2568 -0.2432 -0.1119
   13MOL0     C 1635   9.210   4.886   5.647  0.2284 -0.5739 -0.7480
   13MOL0     C 1636   9.358   4.907   5.716  0.7633 -0.1202 -0.0178
   13MOL0     N 1637   9.449   4.793   5.715  0.1544  0.5310 -0.5583
   13MOL0     C 1638   9.550   4.766   5.628  0.3383  0.3223 -0.3480
   13MOL0     C 1639   9.618   4.663   5.674 -0.1556  0.3444 -0.1889
   13MOL0     C 1640   9.751   4.630   5.605  0.0286  0.0078 -0.0272
   13MOL0     C 1641   9.874   4.700   5.663  0.9190  0.5595 -0.0512
   13MOL0     C 1642   9.902   4.645   5.801  0.4420 -1.1990 -0.6984
   13MOL0     C 1643   9.992   4.735   5.877  0.2322 -0.1963  0.1100
   13MOL0     O 1644  10.000   4.698   6.018  0.2413 -0.6158  0.1120
   13MOL0     C 1645  10.035   4.797   6.098  0.1744 -0.6164  0.0899
   13MOL0     C 1646  10.141   4.878   6.071 -1.1830  0.0127 -1.7429
   13MOL0     C 1647  10.182   4.974   6.170  0.5744 -0.9782 -0.3052
   13MOL0     C 1648  10.291   5.069   6.142  0.2073  0.3727  0.2853
   13MOL0     C 1649  10.116   4.981   6.296  0.6779  0.2741  1.1690
   13MOL0     C 1650  10.151   5.071   6.405 -0.4529  0.2778  0.1410
   13MOL0     O 1651  10.248   5.026   6.489 -0.1288  0.1586 -0.6212
   13MOL0     C 1652  10.287   5.088   6.606  0.8107 -0.2363 -0.6628
   13MOL0     C 1653  10.309   5.011   6.721 -0.9577  0.1089 -0.4789
   13MOL0     C 1654  10.380   5.060   6.832  0.6086 -0.0295  0.0990
   13MOL0     C 1655  10.438   5.188   6.821 -0.0403 -0.0090 -0.1829
   13MOL0     O 1656  10.505   5.222   6.936 -0.0149  1.0697 -0.0651
   13MOL0     C 1657  10.600   5.324   6.926  0.2504 -0.6438  0.5088
   13MOL0     C 1658  10.552   5.440   7.024  0.5343  0.9261 -0.1436
   13MOL0     C 1659  10.649   5.555   7.029  0.3415  0.8714  0.0346
   13MOL0     C 1660  10.782   5.520   7.111  0.5770 -0.6024 -0.5282
   13MOL0     C 1661  10.883   5.640   7.122  0.8527 -0.5256  0.4507
   13MOL0     C 1662  10.827   5.765   7.203 -0.1999 -1.1131 -0.7072
   13MOL0     C 1663  10.928   5.833   7.284 -0.1736  0.0424  0.3080
   13MOL0     C 1664  10.867   5.961   7.352  0.0511 -1.7137  0.7655
   13MOL0    Cl 1665  10.790   6.076   7.242  0.1539 -0.4543  0.1178
   13MOL0     C 1666  10.401   5.280   6.716  0.4281  0.5554  0.3131
   13MOL0     C 1667  10.325   5.227   6.609 -0.4702  0.4166 -0.4034
   13MOL0     O 1668  10.073   5.168   6.433 -0.5287 -0.3269 -0.2901
   13MOL0     C 1669  10.008   4.899   6.314  0.4410 -0.5970 -0.2388
   13MOL0     C 1670   9.974   4.807   6.220  0.1848  0.8076  1.6070
   13MOL0     N 1671   9.549   4.606   5.785 -0.0794  0.1730 -0.3743
   13MOL0     N 1672   9.441   4.683   5.800 -0.4012  0.6150 -0.1571
   13MOL0     C 1673   9.331   5.575   5.035  0.4018  0.6758 -0.5468
   13MOL0     C 1674   9.370   5.684   4.961  1.2004 -0.7290 -1.2132
   13MOL0     C 1675   9.536   5.971   4.610 -0.4567 -0.1826 -0.2969
   13MOL0     C 1676   9.475   6.089   4.657  0.0850  0.5354  0.1389
   13MOL0     C 1677   9.460   6.204   4.578 -0.4296  0.4606 -0.2750
   13MOL0     C 1678   9.494   6.205   4.449  0.9604 -0.6652 -0.1868
   13MOL0     O 1679   9.491   6.323   4.389  0.1325 -0.4707 -0.2295
   13MOL0     C 1680   9.542   6.334   4.259  0.3984  0.7703  0.0220
   13MOL0     C 1681   9.534   6.473   4.183 -0.1460 -0.8560  0.2598
   13MOL0     C 1682   9.389   6.520   4.153 -0.9131 -0.4822  0.0398
   13MOL0     C 1683   9.387   6.673   4.105 -0.8340  0.1375 -0.8139
   13MOL0     C 1684   9.392   6.763   4.217  0.0724  0.6075 -0.7861
   13MOL0     C 1685   9.404   6.846   4.312  0.7780  0.5259  0.6755
   13MOL0     C 1686   9.551   6.083   4.400  0.2870  0.5748 -0.5046
   13MOL0     C 1687   9.586   5.980   4.486  0.1903 -0.5757  0.4321
   13MOL0     H 1688   9.492   5.547   4.685 -0.1013 -1.3099 -0.9423
   13MOL0     H 1689   9.411   5.344   4.799 -1.4554  0.2787 -0.2500
   13MOL0     H 1690   9.462   5.223   5.026  0.7076  2.4673 -0.4514
   13MOL0     H 1691   9.420   5.304   5.187 -1.1581  0.8174  0.8483
   13MOL0     H 1692   9.241   5.164   5.227 -0.4887  0.0164  0.9074
   13MOL0     H 1693   9.219   5.104   5.067 -1.3935 -0.5630  1.4981
   13MOL0     H 1694   9.409   4.952   5.084 -1.1162 -3.0663  2.7612
   13MOL0     H 1695   9.490   5.032   5.217  1.7345 -1.7480 -2.6922
   13MOL0     H 1696   9.211   4.889   5.218 -0.4897  1.9230 -1.0235
   13MOL0     H 1697   9.364   4.816   5.253 -1.1761 -0.6443  0.3013
   13MOL0     H 1698   9.409   4.938   5.450  0.7457 -2.9460 -1.7876
   13MOL0     H 1699   9.279   5.055   5.432  1.1108 -0.2066  2.7896
   13MOL0     H 1700   9.111   4.872   5.452 -1.0893  1.0928  2.1814
   13MOL0     H 1701   9.250   4.757   5.476 -0.8777 -0.3052 -1.2171
   13MOL0     H 1702   9.171   4.987   5.665  5.6710  1.7809 -0.3247
   13MOL0     H 1703   9.152   4.813   5.705 -4.0409  0.5758 -3.1281
   13MOL0     H 1704   9.352   4.928   5.823 -0.7150 -0.4406 -0.0249
   13MOL0     H 1705   9.412   4.990   5.668 -0.7249  1.7698  1.4301
   13MOL0     H 1706   9.579   4.828   5.543  0.6481 -2.5860 -2.5349
   13MOL0     H 1707   9.755   4.521   5.606  0.5888 -0.1065 -3.3523
   13MOL0     H 1708   9.743   4.651   5.498 -2.3832  3.1856  0.5992
   13MOL0     H 1709   9.855   4.807   5.649  1.4644  0.7944  0.9107
   13MOL0     H 1710   9.951   4.672   5.590  0.4478  1.3467 -0.8709
   13MOL0     H 1711   9.950   4.547   5.802  0.2517 -1.2916 -0.2735
   13MOL0     H 1712   9.812   4.640   5.863 -0.6708 -0.8149 -2.2463
   13MOL0     H 1713   9.938   4.830   5.872 -1.1352 -0.6430  3.5046
   13MOL0     H 1714  10.091   4.734   5.831  1.1003 -0.4687  1.8690
   13MOL0     H 1715  10.202   4.871   5.981  2.7454 -1.4545  0.7889
   13MOL0     H 1716  10.382   5.032   6.190 -0.0511 -0.9296 -0.1804
   13MOL0     H 1717  10.298   5.063   6.033 -1.1105  1.1376  0.1326
   13MOL0     H 1718  10.276   5.173   6.171  4.2382  0.7435  1.6761
   13MOL0     H 1719  10.284   4.906   6.708 -0.1729 -0.1799  0.2305
   13MOL0     H 1720  10.378   5.010   6.928 -2.0276 -0.7277 -0.2266
   13MOL0     H 1721  10.700   5.291   6.954  1.8303  2.8217 -0.4485
   13MOL0     H 1722  10.611   5.371   6.827 -5.1483 -0.8464 -0.4735
   13MOL0     H 1723  10.453   5.472   6.990  0.1828 -0.3257 -0.3287
   13MOL0     H 1724  10.541   5.394   7.122  1.5385  0.2981 -0.3130
   13MOL0     H 1725  10.604   5.636   7.086  1.4110  1.8792 -0.4979
   13MOL0     H 1726  10.664   5.600   6.931  3.4000  1.6457  0.7527
   13MOL0     H 1727  10.747   5.493   7.212 -0.8699 -0.4102 -0.9517
   13MOL0     H 1728  10.835   5.434   7.070  1.1529 -0.3156 -0.3956
   13MOL0     H 1729  10.914   5.684   7.027 -2.1921  0.2760 -0.2858
   13MOL0     H 1730  10.968   5.608   7.183  1.7314  3.5152  1.6218
   13MOL0     H 1731  10.786   5.824   7.121  1.3732 -2.2759 -2.4119
   13MOL0     H 1732  10.755   5.733   7.279  0.2652  1.7135  1.0517
   13MOL0     H 1733  11.018   5.863   7.231 -0.6140  0.8234 -0.0137
   13MOL0     H 1734  10.959   5.756   7.354 -0.8702  1.3508  2.1369
   13MOL0     H 1735  10.947   6.012   7.407  0.2480 -0.9787 -0.1819
   13MOL0     H 1736  10.798   5.932   7.432 -0.9967  0.6727  0.8059
   13MOL0     H 1737  10.431   5.384   6.726 -0.7717  0.6872  4.6512
   13MOL0     H 1738  10.304   5.286   6.520 -0.4023  2.5814  0.9485
   13MOL0     H 1739   9.958   4.899   6.411  0.0028 -1.6609 -0.4597
   13MOL0     H 1740   9.909   4.728   6.257 -0.8432  1.0885  0.4403
   13MOL0     H 1741   9.276   5.579   5.129 -1.1165 -1.4640 -1.2433
   13MOL0     H 1742   9.363   5.770   5.027 -0.0815 -2.8955  1.7265
   13MOL0     H 1743   9.450   6.089   4.763  0.0370 -0.5521  0.1405
   13MOL0     H 1744   9.429   6.301   4.616  0.4427  0.0528  1.6360
   13MOL0     H 1745   9.650   6.318   4.254  0.9619  3.6070  1.0666
   13MOL0     H 1746   9.493   6.258   4.198  2.6922 -0.4866 -0.3654
   13MOL0     H 1747   9.579   6.473   4.083  0.8624  0.9422  0.6783
   13MOL0     H 1748   9.588   6.548   4.241  0.4847 -0.0361 -1.3326
   13MOL0     H 1749   9.335   6.499   4.246 -0.0698  0.1606  0.6902
   13MOL0     H 1750   9.354   6.455   4.072  2.6355 -1.5392 -0.7904
   13MOL0     H 1751   9.294   6.696   4.051 -2.5152 -4.0457 -0.0678
   13MOL0     H 1752   9.474   6.698   4.045 -1.2966 -1.4155 -2.1816
   13MOL0     H 1753   9.412   6.919   4.390  2.7859 -0.5687  1.5737
   13MOL0     H 1754   9.583   6.071   4.297 -0.0516  3.9961 -1.1408
   13MOL0     H 1755   9.616   5.885   4.441 -2.6209 -1.5857  0.4832
   14MOL0     O 1756   5.572  10.058   2.622 -0.5792  0.4535 -0.3965
   14MOL0     C 1757   5.467  10.025   2.684 -0.2624 -0.7174  0.1024
   14MOL0     O 1758   5.449  10.018   2.819  0.5844  0.2910 -0.6943
   14MOL0     C 1759   5.553  10.004   2.914 -0.5892 -0.0377 -0.5750
   14MOL0     C 1760   5.662   9.929   2.900 -0.2139  1.2994 -0.3308
   14MOL0     C 1761   5.760   9.910   3.009  0.0015 -0.6486 -0.0324
   14MOL0     C 1762   5.735   9.966   3.137 -0.7587  1.0707  0.0657
   14MOL0     O 1763   5.819   9.955   3.237  0.0554  0.5749  0.3071
   14MOL0     C 1764   5.936   9.870   3.236  0.0241 -0.1668 -0.4021
   14MOL0     C 1765   6.000   9.914   3.365 -0.5010  1.3039  0.6764
   14MOL0     C 1766   5.897   9.882   3.478  0.0641 -0.8346 -0.5712
   14MOL0     C 1767   5.977   9.862   3.608  0.3852 -1.1117 -0.0737
   14MOL0     C 1768   5.881   9.812   3.714 -0.8183  0.0090 -0.2899
   14MOL0     C 1769   5.962   9.765   3.845 -0.9535 -0.8484 -0.1339
   14MOL0     C 1770   5.886   9.658   3.923  0.3030 -1.0479 -0.3275
   14MOL0     C 1771   5.797   9.711   4.037  0.1393 -0.0565 -0.1690
   14MOL0     N 1772   5.717   9.613   4.096 -0.8155  0.2959  0.4143
   14MOL0     C 1773   5.691   9.609   4.227  0.5316  0.3076  0.4351
   14MOL0     C 1774   5.612   9.506   4.254  0.3851 -0.3187 -0.0607
   14MOL0     C 1775   5.568   9.471   4.389  1.4437 -0.2666  0.1085
   14MOL0     C 1776   5.645   9.341   4.443 -1.2674 -0.4918  0.2790
   14MOL0     C 1777   5.799   9.351   4.425  0.2716  0.4616  0.6433
   14MOL0     C 1778   5.864   9.314   4.557 -0.6472  0.9789  0.8712
   14MOL0     O 1779   5.871   9.430   4.638 -0.2388  0.0127 -0.2698
   14MOL0     C 1780   5.918   9.414   4.764 -0.0855  0.1563  0.3195
   14MOL0     C 1781   5.885   9.515   4.858  1.0344 -0.2327  0.0293
   14MOL0     C 1782   5.893   9.492   4.997  0.1869  0.3883  0.4418
   14MOL0     C 1783   5.815   9.590   5.086  0.3343  0.4867 -0.1605
   14MOL0     C 1784   5.961   9.378   5.046  0.2692 -0.7790  0.5171
   14MOL0     C 1785   5.981   9.342   5.186  0.2667 -0.0460 -1.6200
   14MOL0     O 1786   6.016   9.214   5.219  0.2629 -0.3475  0.6666
   14MOL0     C 1787   6.011   9.189   5.357 -0.2710  0.0425 -0.0785
   14MOL0     C 1788   6.128   9.150   5.427  0.7122  0.0983 -0.2964
   14MOL0     C 1789   6.119   9.111   5.555 -0.4299 -0.2714 -0.7029
   14MOL0     C 1790   5.999   9.123   5.626 -0.0559  0.3174  0.3775
   14MOL0     O 1791   5.983   9.063   5.749 -0.1553  0.4373  0.2276
   14MOL0     C 1792   6.059   8.949   5.779 -0.9604  0.2292  0.5144
   14MOL0     C 1793   6.029   8.915   5.925  0.3768  0.2007  0.5659
   14MOL0     C 1794   6.131   8.807   5.973  0.4577 -0.1401  0.3509
   14MOL0     C 1795   6.104   8.776   6.117  0.7491 -0.4149 -0.1980
   14MOL0     C 1796   6.170   8.654   6.163  0.1953 -0.0993  1.0961
   14MOL0     C 1797   6.179   8.635   6.313  1.0123  0.3850 -0.6658
   14MOL0     C 1798   6.202   8.491   6.361  0.6048 -0.0706  0.2285
   14MOL0     C 1799   6.326   8.422   6.309  0.2123  0.3204 -0.0178
   14MOL0    Cl 1800   6.437   8.405   6.445 -0.1369 -0.0444 -0.0532
   14MOL0     C 1801   5.886   9.149   5.551 -0.4467 -0.0762 -0.6150
   14MOL0     C 1802   5.888   9.175   5.417  0.6542 -0.0527  0.1868
   14MOL0     O 1803   5.983   9.436   5.267  0.1180 -0.4360 -0.5081
   14MOL0     C 1804   6.015   9.295   4.946 -0.1265  0.3938 -0.8729
   14MOL0     C 1805   5.985   9.301   4.810  0.2462  0.6390  0.5236
   14MOL0     N 1806   5.589   9.443   4.133 -0.3504 -0.6082 -0.3766
   14MOL0     N 1807   5.658   9.501   4.033  0.5042 -0.4405 -0.5576
   14MOL0     C 1808   5.610  10.033   3.152  0.2781 -0.1106  0.0652
   14MOL0     C 1809   5.526  10.041   3.043  0.9314 -0.1603 -0.0415
   14MOL0     C 1810   5.338  10.022   2.596  0.3343  0.1414 -0.9760
   14MOL0     C 1811   5.321  10.084   2.466  0.7083  0.1660  0.5265
   14MOL0     C 1812   5.199  10.067   2.398 -0.3695  0.0924 -0.1398
   14MOL0     C 1813   5.090  10.001   2.462 -0.6441  0.3839  0.1494
   14MOL0     O 1814   4.965  10.000   2.398  0.3851 -1.3067  1.1085
   14MOL0     C 1815   4.874  10.105   2.454  0.8648 -0.4187  0.5403
   14MOL0     C 1816   4.934  10.245   2.433  0.6502 -0.4627 -0.7375
   14MOL0     C 1817   4.858  10.366   2.485 -0.6085  0.7303  0.1581
   14MOL0     C 1818   4.834  10.378   2.640 -0.1480 -0.3621 -0.5951
   14MOL0     C 1819   4.721  10.287   2.686  0.2683  0.2376  0.0080
   14MOL0     C 1820   4.644  10.200   2.722  0.5636 -0.1985  0.7711
   14MOL0     C 1821   5.107   9.948   2.592  0.4286 -0.3896 -0.0856
   14MOL0     C 1822   5.224   9.961   2.659  0.1504  0.5288 -0.6396
   14MOL0     H 1823   5.679   9.873   2.809 -2.8692 -0.8272  0.3597
   14MOL0     H 1824   5.851   9.853   2.994 -0.2062 -0.5992 -1.6855
   14MOL0     H 1825   5.899   9.767   3.234  1.2778 -0.7088  1.6015
   14MOL0     H 1826   6.004   9.894   3.154 -2.6184  2.4631 -2.0444
   14MOL0     H 1827   6.095   9.860   3.374 -0.8618  0.2725 -1.2571
   14MOL0     H 1828   6.024  10.020   3.356 -0.7064  1.2307 -0.8619
   14MOL0     H 1829   5.823   9.962   3.490  0.1654 -1.0158  1.5403
   14MOL0     H 1830   5.832   9.800   3.444 -2.5694  0.3484  1.2592
   14MOL0     H 1831   6.044   9.784   3.570 -3.7715 -3.1772 -4.0097
   14MOL0     H 1832   6.035   9.952   3.633 -1.3945  0.0969 -0.0966
   14MOL0     H 1833   5.808   9.888   3.743 -0.7670 -0.6565  1.7287
   14MOL0     H 1834   5.827   9.722   3.685 -0.1278 -1.4107  2.4991
   14MOL0     H 1835   6.059   9.724   3.815 -0.1254  0.4534  0.6988
   14MOL0     H 1836   5.985   9.846   3.914 -0.6348 -0.8258 -0.2626
   14MOL0     H 1837   5.829   9.597   3.852 -1.9132 -1.5229  1.7340
   14MOL0     H 1838   5.965   9.600   3.973 -1.3014 -1.9564  1.2646
   14MOL0     H 1839   5.741   9.802   4.011 -2.8147 -1.8181 -0.3362
   14MOL0     H 1840   5.863   9.758   4.111  1.1194 -0.9122 -0.4872
   14MOL0     H 1841   5.728   9.681   4.299  1.6933 -0.6105  0.7872
   14MOL0     H 1842   5.592   9.550   4.461 -1.8984  0.6851  0.3645
   14MOL0     H 1843   5.460   9.452   4.385  1.6811 -1.9778  0.8724
   14MOL0     H 1844   5.614   9.250   4.391  1.6556 -1.5330  0.1404
   14MOL0     H 1845   5.623   9.332   4.550 -0.3958  2.4773  0.7960
   14MOL0     H 1846   5.849   9.442   4.392  1.0150  0.8964  2.8336
   14MOL0     H 1847   5.818   9.276   4.347 -3.6946  1.1943 -1.2894
   14MOL0     H 1848   5.968   9.286   4.538  0.1557  3.9753  0.2917
   14MOL0     H 1849   5.811   9.233   4.606  3.0433 -0.0046  3.7179
   14MOL0     H 1850   5.830   9.599   4.818  1.2229  1.2643  2.7224
   14MOL0     H 1851   5.777   9.544   5.179  2.3206 -1.7500 -0.3515
   14MOL0     H 1852   5.867   9.679   5.120  0.6432 -0.5995  2.4726
   14MOL0     H 1853   5.732   9.621   5.022 -0.9975 -0.7696  0.8747
   14MOL0     H 1854   6.218   9.152   5.367 -0.6721 -1.9994 -2.6436
   14MOL0     H 1855   6.207   9.079   5.610 -1.9906 -3.8901 -0.0026
   14MOL0     H 1856   6.034   8.865   5.714  3.4046 -2.4625  1.9206
   14MOL0     H 1857   6.164   8.979   5.780 -0.7330 -0.5554  0.8593
   14MOL0     H 1858   6.034   9.006   5.986 -0.3331  1.3462 -1.0142
   14MOL0     H 1859   5.934   8.865   5.941 -0.7378  1.9519 -0.2810
   14MOL0     H 1860   6.232   8.844   5.953 -0.0509  2.5906  2.3318
   14MOL0     H 1861   6.124   8.718   5.909  2.2189  1.0533 -1.6293
   14MOL0     H 1862   6.148   8.852   6.181  2.3909 -0.1856 -1.5205
   14MOL0     H 1863   5.999   8.755   6.139  0.7742 -0.0387  0.3047
   14MOL0     H 1864   6.273   8.657   6.127 -0.7049 -1.2217 -1.8293
   14MOL0     H 1865   6.117   8.567   6.122  1.1567 -1.1272  1.9460
   14MOL0     H 1866   6.261   8.695   6.354  0.9050  0.7354 -0.9677
   14MOL0     H 1867   6.081   8.661   6.353 -0.1225 -1.6074 -1.9430
   14MOL0     H 1868   6.118   8.426   6.336  1.5937 -1.7878  1.1445
   14MOL0     H 1869   6.203   8.498   6.471 -0.4036 -0.1524  0.2491
   14MOL0     H 1870   6.375   8.487   6.236  0.6159 -1.4835 -1.4234
   14MOL0     H 1871   6.309   8.328   6.255  1.7516  0.0409 -0.0506
   14MOL0     H 1872   5.788   9.156   5.596 -0.7026 -2.3218 -0.7276
   14MOL0     H 1873   5.801   9.197   5.356  2.1533 -1.7028 -2.7846
   14MOL0     H 1874   6.075   9.216   4.991 -0.8143 -0.0780 -0.7563
   14MOL0     H 1875   6.022   9.212   4.759  0.7082  1.8427 -1.3391
   14MOL0     H 1876   5.596  10.061   3.256  1.9019  1.7300 -0.1611
   14MOL0     H 1877   5.428  10.080   3.069 -0.2241 -1.1693 -2.4759
   14MOL0     H 1878   5.393  10.157   2.430  0.0471  1.7640  2.2982
   14MOL0     H 1879   5.203  10.118   2.303  0.1737  0.6932  0.1910
   14MOL0     H 1880   4.781  10.094   2.398  0.2896  0.6800  1.2305
   14MOL0     H 1881   4.844  10.084   2.557  1.3743  1.3836  1.0924
   14MOL0     H 1882   4.950  10.273   2.328  0.5262  1.6276 -0.2393
   14MOL0     H 1883   5.034  10.253   2.477 -0.5558  1.2243  1.9901
   14MOL0     H 1884   4.765  10.358   2.427  1.3177 -1.4920 -2.9182
   14MOL0     H 1885   4.911  10.458   2.460  0.9732 -0.5544 -1.4910
   14MOL0     H 1886   4.815  10.483   2.661  0.5688 -0.2679 -0.3844
   14MOL0     H 1887   4.929  10.346   2.684  1.7344  1.5200 -2.9737
   14MOL0     H 1888   4.575  10.132   2.767  0.9927 -0.0995  1.5935
   14MOL0     H 1889   5.022   9.901   2.642 -0.1193  1.8253  1.1983
   14MOL0     H 1890   5.237   9.914   2.756  2.0397  1.4420 -0.4023
   15MOL0     O 1891   3.373   6.007   6.482  0.0451  0.0245 -0.1552
   15MOL0     C 1892   3.494   5.984   6.461 -0.0905 -0.0392 -0.9601
   15MOL0     O 1893   3.539   5.926   6.341  0.7257 -1.2431 -1.2086
   15MOL0     C 1894   3.438   5.861   6.272 -0.6886  0.1575  0.7629
   15MOL0     C 1895   3.349   5.931   6.199 -1.1348 -0.1457 -0.0320
   15MOL0     C 1896   3.238   5.862   6.143 -0.3890  0.1652  0.9884
   15MOL0     C 1897   3.234   5.722   6.143  0.0321 -0.4621 -0.8136
   15MOL0     O 1898   3.152   5.642   6.077 -0.1884 -0.5814  1.0967
   15MOL0     C 1899   3.153   5.651   5.931 -0.1493 -0.6960  0.2088
   15MOL0     C 1900   3.233   5.550   5.850  0.7364  0.2609 -0.0240
   15MOL0     C 1901   3.212   5.559   5.698  0.7612 -0.5535 -0.0758
   15MOL0     C 1902   3.315   5.495   5.603 -0.1529 -0.0224  0.9431
   15MOL0     C 1903   3.310   5.552   5.463 -0.8800 -0.3085 -0.1896
   15MOL0     C 1904   3.426   5.531   5.367  0.3191 -0.4824  0.3697
   15MOL0     C 1905   3.409   5.562   5.213 -0.1220 -0.6025  0.6509
   15MOL0     C 1906   3.383   5.710   5.172 -0.4279 -0.0925  0.5591
   15MOL0     N 1907   3.247   5.745   5.136 -0.4355  0.2148 -0.1857
   15MOL0     C 1908   3.193   5.749   5.011  0.3270  0.5697 -0.5388
   15MOL0     C 1909   3.071   5.792   5.024 -0.5387  1.2599  0.8183
   15MOL0     C 1910   2.968   5.820   4.919  0.2963  0.3050  0.2940
   15MOL0     C 1911   2.907   5.701   4.856  1.1493  0.4686 -0.1019
   15MOL0     C 1912   2.992   5.652   4.734  0.5605 -0.2193  0.0178
   15MOL0     C 1913   2.942   5.521   4.672 -0.7981  0.6411  0.5481
   15MOL0     O 1914   3.059   5.439   4.618 -1.0152  0.3809 -0.0053
   15MOL0     C 1915   3.045   5.310   4.578  0.8295 -0.0993 -0.3073
   15MOL0     C 1916   2.922   5.258   4.580 -0.1109  0.3683  1.0472
   15MOL0     C 1917   2.895   5.129   4.547  0.4568  0.5362  0.9272
   15MOL0     C 1918   2.757   5.074   4.582  0.1768  0.0124  0.1440
   15MOL0     C 1919   3.006   5.054   4.493  1.0085 -0.4795 -0.3544
   15MOL0     C 1920   2.982   4.914   4.452  0.1074  0.4087  0.4588
   15MOL0     O 1921   3.094   4.848   4.433 -0.6493 -0.1514  0.4428
   15MOL0     C 1922   3.095   4.709   4.399  0.5102  0.1341  0.1518
   15MOL0     C 1923   3.189   4.629   4.452 -0.4517  0.3641  0.3574
   15MOL0     C 1924   3.212   4.496   4.426 -0.4191 -0.2408  0.8070
   15MOL0     C 1925   3.115   4.428   4.342 -0.0989 -0.7353 -0.0286
   15MOL0     O 1926   3.121   4.286   4.324 -0.9591  0.1092 -1.0610
   15MOL0     C 1927   3.251   4.221   4.325 -0.5196 -0.2817  0.6784
   15MOL0     C 1928   3.235   4.064   4.294  0.1287 -0.9705  0.6524
   15MOL0     C 1929   3.357   4.001   4.242  0.3577  0.6789  0.5697
   15MOL0     C 1930   3.488   4.036   4.325 -0.0817  0.1687 -0.8919
   15MOL0     C 1931   3.599   3.938   4.285 -0.1063  1.2279 -0.1540
   15MOL0     C 1932   3.708   3.985   4.386 -0.1973  0.1584 -0.0035
   15MOL0     C 1933   3.827   3.897   4.376  0.0136  0.0651 -0.4487
   15MOL0     C 1934   3.943   3.927   4.481  0.0246 -0.4735  0.1460
   15MOL0    Cl 1935   3.996   3.787   4.584  0.3521  0.1814  0.1982
   15MOL0     C 1936   3.002   4.503   4.299 -0.2854 -0.1366  0.5279
   15MOL0     C 1937   2.999   4.639   4.322  0.1875  0.0031  1.0785
   15MOL0     O 1938   2.868   4.877   4.415 -0.0954  0.4272  0.4022
   15MOL0     C 1939   3.132   5.108   4.485  0.3905 -1.3775  0.2560
   15MOL0     C 1940   3.149   5.235   4.533 -0.1552 -1.1713  0.7797
   15MOL0     N 1941   3.042   5.807   5.162  0.3169  0.5219  0.0074
   15MOL0     N 1942   3.151   5.781   5.226 -0.1906 -0.0847  0.1945
   15MOL0     C 1943   3.332   5.656   6.220 -1.1276 -0.3690  0.1270
   15MOL0     C 1944   3.432   5.728   6.280  0.4800 -0.1957 -0.3238
   15MOL0     C 1945   3.595   6.042   6.556  0.7067 -0.1108 -0.0101
   15MOL0     C 1946   3.551   6.133   6.663  0.1363  0.6051 -0.0070
   15MOL0     C 1947   3.645   6.177   6.755 -0.2235  1.0702 -0.7143
   15MOL0     C 1948   3.780   6.149   6.744  0.3278  0.0660  0.3553
   15MOL0     O 1949   3.858   6.182   6.848  0.3695  0.0985  0.3539
   15MOL0     C 1950   3.805   6.143   6.977  0.0017 -0.2003  0.0570
   15MOL0     C 1951   3.886   6.183   7.087 -0.1646  0.7597  0.8225
   15MOL0     C 1952   3.899   6.335   7.105  0.4466  0.6319 -0.4481
   15MOL0     C 1953   4.013   6.354   7.217  0.8391  0.3793  0.4531
   15MOL0     C 1954   4.058   6.486   7.237 -1.1133 -0.3864  0.7399
   15MOL0     C 1955   4.099   6.595   7.273 -0.5143  0.1315  0.2145
   15MOL0     C 1956   3.819   6.059   6.642 -0.0559  0.3681  0.4088
   15MOL0     C 1957   3.730   6.018   6.545 -0.6883  0.7518 -0.3110
   15MOL0     H 1958   3.359   6.039   6.194 -0.1696 -0.1015  1.9257
   15MOL0     H 1959   3.177   5.933   6.088  3.1770  2.2141 -0.6861
   15MOL0     H 1960   3.046   5.639   5.910 -0.1623 -0.0965 -0.0710
   15MOL0     H 1961   3.183   5.752   5.903  0.9331 -1.2963 -0.9131
   15MOL0     H 1962   3.335   5.554   5.889 -0.3374 -0.6861  3.2585
   15MOL0     H 1963   3.207   5.450   5.887 -2.1539  1.0921  0.4557
   15MOL0     H 1964   3.112   5.520   5.676 -1.1394  2.9053  1.5965
   15MOL0     H 1965   3.200   5.666   5.683 -1.8217 -0.9666 -1.5367
   15MOL0     H 1966   3.414   5.530   5.635  1.7750 -2.7285 -1.5444
   15MOL0     H 1967   3.311   5.386   5.608 -3.2616 -0.0941 -0.9435
   15MOL0     H 1968   3.224   5.497   5.423 -0.1975 -1.7165  0.2077
   15MOL0     H 1969   3.283   5.658   5.470  0.7009  0.0369  4.8165
   15MOL0     H 1970   3.500   5.604   5.400  0.8490 -0.6724 -0.3584
   15MOL0     H 1971   3.467   5.430   5.380  1.9440  0.1792  0.7098
   15MOL0     H 1972   3.504   5.538   5.165 -0.4142 -1.0061  0.2727
   15MOL0     H 1973   3.343   5.483   5.175 -1.8814  1.4266 -0.7097
   15MOL0     H 1974   3.438   5.723   5.079 -0.9251 -0.5600  0.1957
   15MOL0     H 1975   3.421   5.776   5.251 -0.4394 -1.8108  2.0652
   15MOL0     H 1976   3.232   5.727   4.912 -2.2672 -2.0394 -1.1125
   15MOL0     H 1977   2.891   5.891   4.950  0.1247  0.3467 -0.2091
   15MOL0     H 1978   3.022   5.873   4.839  2.5451  2.0005  2.7541
   15MOL0     H 1979   2.809   5.734   4.819  1.7143  0.5676 -1.5459
   15MOL0     H 1980   2.902   5.630   4.939  2.8989 -0.3117 -0.6238
   15MOL0     H 1981   3.094   5.645   4.772  0.1967 -0.9054  0.8933
   15MOL0     H 1982   2.978   5.728   4.657 -0.3834  0.9106  1.2566
   15MOL0     H 1983   2.871   5.556   4.596 -1.3619 -0.1787  0.6819
   15MOL0     H 1984   2.892   5.474   4.758 -0.1647  0.1658  0.6646
   15MOL0     H 1985   2.829   5.305   4.612 -2.0927 -1.2067 -1.9934
   15MOL0     H 1986   2.691   5.069   4.494  1.8508  2.0607 -1.3270
   15MOL0     H 1987   2.767   4.974   4.626  1.0952  1.0987  2.5200
   15MOL0     H 1988   2.705   5.143   4.648  1.3757  0.7147  0.3789
   15MOL0     H 1989   3.251   4.671   4.531  0.6111  3.1556 -1.7854
   15MOL0     H 1990   3.286   4.450   4.490 -0.3009  0.6090  1.2934
   15MOL0     H 1991   3.312   4.266   4.247  1.1381 -0.6902  1.6806
   15MOL0     H 1992   3.299   4.217   4.424  0.9626 -0.7843 -0.0282
   15MOL0     H 1993   3.205   4.008   4.383  3.2459 -0.3088  2.2630
   15MOL0     H 1994   3.157   4.059   4.218  0.4684  3.1397 -0.2006
   15MOL0     H 1995   3.377   4.016   4.135  2.0872  0.5842  0.8491
   15MOL0     H 1996   3.331   3.897   4.260 -2.1354  1.4386  1.9232
   15MOL0     H 1997   3.514   4.132   4.282 -1.6201  0.6280 -0.8761
   15MOL0     H 1998   3.471   4.045   4.433 -0.8405 -0.5686 -0.9373
   15MOL0     H 1999   3.610   3.961   4.179 -0.7856  3.6533  0.2503
   15MOL0     H 2000   3.571   3.833   4.298  0.8956  1.0399  0.6529
   15MOL0     H 2001   3.732   4.092   4.389  0.6952 -0.0389  0.0055
   15MOL0     H 2002   3.664   3.970   4.486  2.5379  2.0548  1.6099
   15MOL0     H 2003   3.871   3.905   4.276 -1.6108 -2.2520 -1.4503
   15MOL0     H 2004   3.797   3.791   4.376  2.2447 -0.6223 -0.3777
   15MOL0     H 2005   3.913   4.007   4.549  2.2746 -0.6619  1.4472
   15MOL0     H 2006   4.023   3.967   4.419 -2.6438  1.0480 -2.5917
   15MOL0     H 2007   2.915   4.461   4.248 -1.4154  1.5069  1.0305
   15MOL0     H 2008   2.909   4.685   4.282  0.3096 -1.1674 -0.6270
   15MOL0     H 2009   3.219   5.054   4.449  1.6371  0.7169 -0.0479
   15MOL0     H 2010   3.239   5.293   4.511 -1.7425  0.8692 -0.7411
   15MOL0     H 2011   3.335   5.550   6.244  0.2651  0.0493  2.1280
   15MOL0     H 2012   3.506   5.682   6.345  0.5720  0.2778 -0.0918
   15MOL0     H 2013   3.447   6.164   6.660 -0.6983 -1.9044  0.3708
   15MOL0     H 2014   3.603   6.236   6.835  0.3641  1.7189 -0.8695
   15MOL0     H 2015   3.717   6.208   6.991  0.0801 -0.0918  0.0450
   15MOL0     H 2016   3.779   6.037   6.978 -0.1596 -0.2754 -3.1790
   15MOL0     H 2017   3.980   6.137   7.056 -1.6507 -0.4869 -2.1428
   15MOL0     H 2018   3.837   6.131   7.170 -1.5815 -1.6183 -1.3804
   15MOL0     H 2019   3.806   6.378   7.144  0.4872 -0.1682  0.6081
   15MOL0     H 2020   3.934   6.394   7.020  2.9422  0.4369  0.3354
   15MOL0     H 2021   4.102   6.293   7.196  0.4302 -0.2329  0.4604
   15MOL0     H 2022   3.973   6.317   7.312 -2.3527 -0.5826 -1.1189
   15MOL0     H 2023   4.149   6.688   7.292  2.6412 -1.5610  0.8533
   15MOL0     H 2024   3.925   6.040   6.628 -0.1957  0.5513 -1.0570
   15MOL0     H 2025   3.761   5.951   6.465  0.6572 -1.8756  2.2396
   16MOL0     O 2026   0.207   4.758   1.254  0.3192  0.0264  0.9422
   16MOL0     C 2027   0.205   4.852   1.338 -0.0602  0.2573 -0.0606
   16MOL0     O 2028   0.133   4.851   1.451 -0.1137 -0.1513 -0.2919
   16MOL0     C 2029   0.074   4.728   1.496  1.2008  0.4809 -0.5571
   16MOL0     C 2030   0.135   4.602   1.490 -0.3062  0.1624  0.2367
   16MOL0     C 2031   0.056   4.490   1.490 -0.8759  0.9809 -0.3663
   16MOL0     C 2032  -0.080   4.484   1.517 -0.0643  0.2299 -0.1472
   16MOL0     O 2033  -0.144   4.362   1.515  0.2615  0.8848  0.1644
   16MOL0     C 2034  -0.294   4.350   1.509 -0.4021 -0.9733 -1.4565
   16MOL0     C 2035  -0.357   4.365   1.648 -0.5287 -0.5074 -0.1327
   16MOL0     C 2036  -0.476   4.275   1.688  0.3276  0.1208 -0.2126
   16MOL0     C 2037  -0.599   4.323   1.613 -0.2224  0.2065  0.2255
   16MOL0     C 2038  -0.712   4.225   1.622 -0.6398  0.2282  0.3578
   16MOL0     C 2039  -0.850   4.280   1.590 -0.0172 -0.1182 -0.2859
   16MOL0     C 2040  -0.867   4.314   1.442 -0.0681 -0.7157  0.5053
   16MOL0     C 2041  -0.913   4.198   1.350 -1.1863 -0.6445 -0.1118
   16MOL0     N 2042  -1.029   4.127   1.382  0.7629 -0.0114 -0.1473
   16MOL0     C 2043  -1.159   4.153   1.349 -0.0404 -0.7144  0.7480
   16MOL0     C 2044  -1.229   4.039   1.375  0.0308  0.1264 -0.6789
   16MOL0     C 2045  -1.381   4.029   1.365  0.4096  0.4764 -1.2287
   16MOL0     C 2046  -1.439   3.923   1.264 -0.7119 -0.0161  0.2554
   16MOL0     C 2047  -1.578   3.864   1.287 -0.8060 -0.4545 -0.9556
   16MOL0     C 2048  -1.592   3.738   1.204  0.6881 -0.3777  0.1650
   16MOL0     O 2049  -1.552   3.744   1.061  0.8356  0.2180 -0.1494
   16MOL0     C 2050  -1.639   3.791   0.962 -0.3668  0.6414 -0.8128
   16MOL0     C 2051  -1.770   3.828   0.971  0.2647 -0.1251 -0.2141
   16MOL0     C 2052  -1.849   3.868   0.863  0.9470 -1.5137  0.4447
   16MOL0     C 2053  -1.992   3.914   0.877  0.3530 -0.1428  0.1783
   16MOL0     C 2054  -1.781   3.883   0.735 -0.4615 -0.3288 -0.7656
   16MOL0     C 2055  -1.835   3.948   0.611  0.1402  1.1097  0.2545
   16MOL0     O 2056  -1.970   3.946   0.592 -0.2781  0.3451 -0.1924
   16MOL0     C 2057  -2.018   3.963   0.471  0.5745  0.4841 -0.0448
   16MOL0     C 2058  -2.062   3.852   0.395 -1.6559  0.5471 -0.1271
   16MOL0     C 2059  -2.112   3.865   0.264  0.2844  0.1496 -1.0428
   16MOL0     C 2060  -2.118   3.992   0.210  0.7801 -0.2091  0.9855
   16MOL0     O 2061  -2.171   3.998   0.084 -0.3471  0.2329 -0.3888
   16MOL0     C 2062  -2.107   4.067  -0.020 -0.0229  0.1804  0.2520
   16MOL0     C 2063  -2.128   3.974  -0.148 -0.0294  1.4073  0.5006
   16MOL0     C 2064  -2.047   3.835  -0.142 -0.2800 -0.1633  1.0712
   16MOL0     C 2065  -2.140   3.718  -0.120 -0.0194 -0.6140  0.6806
   16MOL0     C 2066  -2.071   3.589  -0.162  0.3713  0.2854 -0.1441
   16MOL0     C 2067  -1.936   3.558  -0.092  0.3999 -0.3361 -0.1142
   16MOL0     C 2068  -1.880   3.433  -0.155  0.3080 -0.8795  0.3590
   16MOL0     C 2069  -1.947   3.299  -0.144  0.2404 -0.9831  0.0045
   16MOL0    Cl 2070  -1.852   3.191  -0.249 -0.5890  0.2414 -0.1662
   16MOL0     C 2071  -2.082   4.112   0.285 -0.4484 -0.1637  0.3036
   16MOL0     C 2072  -2.041   4.090   0.415 -1.0693 -0.2943 -0.6872
   16MOL0     O 2073  -1.747   3.985   0.531  0.1509  0.1805  0.9212
   16MOL0     C 2074  -1.644   3.840   0.722  0.1856  0.4926 -0.1614
   16MOL0     C 2075  -1.576   3.796   0.838  0.1460 -0.2071  0.0116
   16MOL0     N 2076  -1.140   3.956   1.442  0.1165 -0.1136 -0.7904
   16MOL0     N 2077  -1.019   4.003   1.448 -0.1125 -0.3066  0.8582
   16MOL0     C 2078  -0.140   4.607   1.536  0.3079 -0.7491 -0.4622
   16MOL0     C 2079  -0.063   4.730   1.522  0.3624 -0.1046 -0.0634
   16MOL0     C 2080   0.282   4.981   1.312 -0.6987 -0.0574  0.4886
   16MOL0     C 2081   0.371   4.989   1.199 -0.1667  0.1205 -0.0827
   16MOL0     C 2082   0.463   5.096   1.184  0.7734  0.0864 -0.7170
   16MOL0     C 2083   0.451   5.202   1.265 -0.1750 -0.4571 -0.0215
   16MOL0     O 2084   0.566   5.274   1.248  0.1075  0.6539 -1.0178
   16MOL0     C 2085   0.598   5.362   1.359 -0.1829  0.0180 -0.4055
   16MOL0     C 2086   0.721   5.461   1.339  0.2072 -0.2310  1.3159
   16MOL0     C 2087   0.736   5.579   1.426 -0.2046 -0.3404  0.0315
   16MOL0     C 2088   0.876   5.636   1.418 -0.9450 -0.2988 -0.2029
   16MOL0     C 2089   0.878   5.760   1.496  0.5049  0.1407 -0.3301
   16MOL0     C 2090   0.887   5.864   1.559  0.5553 -0.1366  0.2507
   16MOL0     C 2091   0.348   5.207   1.366 -0.6005  0.6195  0.6717
   16MOL0     C 2092   0.265   5.091   1.393 -0.2493  0.1644  0.0663
   16MOL0     H 2093   0.240   4.594   1.464  0.2839 -1.0394  2.6741
   16MOL0     H 2094   0.102   4.392   1.488  0.2875  1.4655  1.0501
   16MOL0     H 2095  -0.349   4.401   1.429 -2.5402 -0.4878  0.2203
   16MOL0     H 2096  -0.307   4.246   1.478 -2.7153 -1.0626 -0.3575
   16MOL0     H 2097  -0.281   4.362   1.726  1.4481  2.9745 -1.6695
   16MOL0     H 2098  -0.402   4.465   1.650  2.1722  0.7768  0.1244
   16MOL0     H 2099  -0.457   4.173   1.654  0.8073  0.1850 -0.1479
   16MOL0     H 2100  -0.486   4.269   1.797 -0.8796 -2.4343 -0.4013
   16MOL0     H 2101  -0.640   4.419   1.646  0.8686  1.6124 -2.2072
   16MOL0     H 2102  -0.569   4.343   1.510  1.9918 -4.4385 -0.2759
   16MOL0     H 2103  -0.702   4.137   1.558  0.3597 -0.4772  1.4416
   16MOL0     H 2104  -0.710   4.183   1.724 -2.3284 -0.9751 -0.0752
   16MOL0     H 2105  -0.916   4.196   1.615 -0.1958  0.0098 -0.3201
   16MOL0     H 2106  -0.884   4.367   1.648  0.4535  0.3118 -0.6530
   16MOL0     H 2107  -0.946   4.390   1.435  1.5539  0.9585 -0.4523
   16MOL0     H 2108  -0.776   4.358   1.399 -2.0591  2.3977 -0.9126
   16MOL0     H 2109  -0.834   4.123   1.339  0.0351  0.9266 -3.0637
   16MOL0     H 2110  -0.922   4.246   1.253 -1.2233  0.4965  0.4409
   16MOL0     H 2111  -1.203   4.245   1.312  2.2948  0.0457 -0.3200
   16MOL0     H 2112  -1.411   3.995   1.464 -0.1767  0.1583 -1.5095
   16MOL0     H 2113  -1.432   4.124   1.343 -1.3254  0.6490  2.8174
   16MOL0     H 2114  -1.357   3.851   1.269 -0.3358  0.4903  3.3130
   16MOL0     H 2115  -1.442   3.971   1.165 -1.8585 -1.7279 -0.5891
   16MOL0     H 2116  -1.652   3.940   1.261  1.2214  1.4222 -1.5549
   16MOL0     H 2117  -1.590   3.827   1.389 -0.8386  1.4919 -0.2107
   16MOL0     H 2118  -1.694   3.701   1.195 -0.5298  3.0087 -1.5492
   16MOL0     H 2119  -1.537   3.660   1.258  1.2067  0.4079  0.7987
   16MOL0     H 2120  -1.824   3.825   1.066  1.3113 -1.9489  0.3867
   16MOL0     H 2121  -2.048   3.827   0.841  1.0045  0.2765 -1.9313
   16MOL0     H 2122  -2.013   3.934   0.983  0.8700 -0.0650  0.2651
   16MOL0     H 2123  -2.027   4.005   0.828 -0.3833 -0.7655 -0.4892
   16MOL0     H 2124  -2.050   3.751   0.432  0.4970  0.3615 -1.1912
   16MOL0     H 2125  -2.160   3.787   0.205 -1.5147 -0.6312  1.2879
   16MOL0     H 2126  -2.148   4.169  -0.025  1.8802  0.9152 -1.7596
   16MOL0     H 2127  -1.999   4.074  -0.009  0.1428  0.9035 -1.4540
   16MOL0     H 2128  -2.233   3.956  -0.169  0.4207  0.5127 -1.2048
   16MOL0     H 2129  -2.093   4.024  -0.238  2.5340  2.0022  1.7212
   16MOL0     H 2130  -1.961   3.842  -0.075  0.2157 -0.3016  0.4635
   16MOL0     H 2131  -2.010   3.827  -0.245 -0.7347  1.7339  0.7137
   16MOL0     H 2132  -2.189   3.720  -0.023 -3.3982 -0.0194 -0.8934
   16MOL0     H 2133  -2.222   3.739  -0.189  1.7482  2.8578 -0.5670
   16MOL0     H 2134  -2.046   3.599  -0.268  2.0519  0.2277  0.2279
   16MOL0     H 2135  -2.142   3.507  -0.151  2.6366 -1.9002 -0.9465
   16MOL0     H 2136  -1.863   3.640  -0.102  1.4106 -1.2663 -0.6128
   16MOL0     H 2137  -1.945   3.543   0.015  1.9109  1.1544  0.2740
   16MOL0     H 2138  -1.779   3.422  -0.115  1.5489  2.2776 -1.4824
   16MOL0     H 2139  -1.859   3.455  -0.260  0.9778 -0.3515  0.5950
   16MOL0     H 2140  -2.041   3.299  -0.201 -0.9582 -2.8427  1.8545
   16MOL0     H 2141  -1.957   3.259  -0.043  2.1637  0.2753  0.7418
   16MOL0     H 2142  -2.078   4.213   0.246 -1.3537 -0.5273 -0.7511
   16MOL0     H 2143  -2.018   4.180   0.471 -1.1247  0.0527 -1.2117
   16MOL0     H 2144  -1.580   3.867   0.639  3.8918 -2.4195  1.4420
   16MOL0     H 2145  -1.468   3.783   0.842  0.5440  2.1750  5.0496
   16MOL0     H 2146  -0.246   4.605   1.557  1.0256 -0.9638  4.1030
   16MOL0     H 2147  -0.120   4.821   1.542  3.1139  1.5789  0.5707
   16MOL0     H 2148   0.381   4.908   1.128  2.0193  1.0617 -0.9355
   16MOL0     H 2149   0.524   5.100   1.094  0.7946 -1.0537 -0.7620
   16MOL0     H 2150   0.510   5.424   1.378 -1.4909 -2.4183  2.0872
   16MOL0     H 2151   0.607   5.307   1.453 -0.9678  0.1726 -0.2384
   16MOL0     H 2152   0.722   5.497   1.236 -0.1115  0.7753  1.6562
   16MOL0     H 2153   0.802   5.389   1.356 -0.6301 -1.6414 -0.3584
   16MOL0     H 2154   0.709   5.565   1.532 -0.5131 -1.6154 -0.2033
   16MOL0     H 2155   0.663   5.658   1.402  1.8144  1.0210 -1.9692
   16MOL0     H 2156   0.920   5.655   1.319  1.4338  3.1149  1.2772
   16MOL0     H 2157   0.930   5.557   1.470 -1.7888 -2.1778 -2.0539
   16MOL0     H 2158   0.913   5.948   1.620 -0.9043 -1.4262  2.8799
   16MOL0     H 2159   0.342   5.281   1.446  0.5826 -0.1986  1.5461
   16MOL0     H 2160   0.203   5.087   1.482  0.3458 -5.0853  0.5482
   17MOL0     O 2161   9.857   5.372   8.884 -0.7206  0.1538  0.6631
   17MOL0     C 2162   9.869   5.407   8.998  0.6323  0.9171  0.5303
   17MOL0     O 2163   9.980   5.456   9.056  0.0516  0.1385 -0.0369
   17MOL0     C 2164  10.101   5.471   8.995 -0.3779  0.0685 -0.0508
   17MOL0     C 2165  10.174   5.591   8.997 -0.3630 -1.8071 -0.5750
   17MOL0     C 2166  10.289   5.612   8.924  0.5544  0.7355  0.2383
   17MOL0     C 2167  10.343   5.510   8.844 -1.3011  0.2734 -0.5691
   17MOL0     O 2168  10.448   5.522   8.763  0.4009  0.0691 -0.2307
   17MOL0     C 2169  10.536   5.643   8.753  1.1627 -0.1419  0.9274
   17MOL0     C 2170  10.611   5.623   8.622 -0.1040  0.8033 -0.3774
   17MOL0     C 2171  10.725   5.722   8.606  0.6112  0.0775 -0.1746
   17MOL0     C 2172  10.776   5.727   8.462  0.1406 -0.1163  0.2917
   17MOL0     C 2173  10.851   5.593   8.424 -0.3188 -0.1425 -0.7175
   17MOL0     C 2174  10.902   5.561   8.276  0.1930  0.2671 -0.9220
   17MOL0     C 2175  11.005   5.664   8.244 -0.6802 -0.4161 -0.4690
   17MOL0     C 2176  11.135   5.683   8.330 -0.6003 -0.2400 -0.6034
   17MOL0     N 2177  11.209   5.804   8.287  0.2210 -0.1921  0.1872
   17MOL0     C 2178  11.157   5.924   8.258 -0.1883  0.2145  1.3720
   17MOL0     C 2179  11.251   5.991   8.183 -0.5943  0.3567 -0.3118
   17MOL0     C 2180  11.219   6.110   8.099 -0.2779 -1.0180 -0.1191
   17MOL0     C 2181  11.109   6.083   8.001 -0.1110 -0.2553 -0.0613
   17MOL0     C 2182  11.158   5.995   7.885 -0.0038  0.0746  0.6612
   17MOL0     C 2183  11.046   5.975   7.782  0.4314 -0.2016  1.2821
   17MOL0     O 2184  10.981   6.090   7.708 -0.0970  0.2001 -0.4831
   17MOL0     C 2185  11.067   6.141   7.612  0.0130 -0.2645 -1.0223
   17MOL0     C 2186  11.018   6.243   7.531  0.0984  0.2483 -0.0222
   17MOL0     C 2187  11.083   6.274   7.408 -0.2545 -0.6933  0.6100
   17MOL0     C 2188  11.029   6.386   7.322 -1.6670 -0.4389 -0.8178
   17MOL0     C 2189  11.202   6.210   7.370 -0.3954  0.1020  0.0620
   17MOL0     C 2190  11.273   6.242   7.238  0.0156 -0.1052 -0.5247
   17MOL0     O 2191  11.412   6.219   7.237 -0.4403  0.1637 -0.8063
   17MOL0     C 2192  11.514   6.267   7.159  0.5806 -0.8646 -0.1864
   17MOL0     C 2193  11.487   6.377   7.066  0.6007 -0.1960  0.0164
   17MOL0     C 2194  11.589   6.461   7.013 -0.1872  0.9232 -0.5008
   17MOL0     C 2195  11.720   6.441   7.052  0.0690  0.0564  0.0010
   17MOL0     O 2196  11.821   6.535   7.035  0.5208  0.3685 -0.0642
   17MOL0     C 2197  11.804   6.655   6.958 -0.8138 -1.1790 -0.2331
   17MOL0     C 2198  11.942   6.723   6.928 -0.1879  0.2380 -1.7076
   17MOL0     C 2199  11.941   6.822   6.805  0.3652 -0.2481 -0.1347
   17MOL0     C 2200  11.880   6.957   6.848  0.3564 -0.5687 -0.1675
   17MOL0     C 2201  11.895   7.062   6.740 -0.3260  0.3432  0.2343
   17MOL0     C 2202  12.037   7.123   6.725  0.5505  1.9709  0.3847
   17MOL0     C 2203  12.080   7.205   6.848  0.0861 -0.1229  0.3156
   17MOL0     C 2204  12.172   7.319   6.785 -1.3329  0.3684 -0.3900
   17MOL0    Cl 2205  12.247   7.417   6.921 -0.0532  0.1592 -0.0328
   17MOL0     C 2206  11.750   6.325   7.126  0.3717 -0.4010 -0.2388
   17MOL0     C 2207  11.650   6.245   7.179  0.0497  0.0339  0.3801
   17MOL0     O 2208  11.216   6.294   7.145 -0.4640  0.3731  0.1434
   17MOL0     C 2209  11.254   6.116   7.452  0.2167 -0.8397 -0.3590
   17MOL0     C 2210  11.186   6.079   7.564  0.6593  0.1676 -0.2323
   17MOL0     N 2211  11.358   5.910   8.171  0.2698 -0.9441  0.2924
   17MOL0     N 2212  11.333   5.804   8.233 -0.6639 -0.5772 -0.5724
   17MOL0     C 2213  10.276   5.383   8.851  0.2220  0.0134 -0.0451
   17MOL0     C 2214  10.158   5.368   8.906 -0.5746 -0.3081 -0.0253
   17MOL0     C 2215   9.746   5.406   9.077  0.7108  0.7038  0.4999
   17MOL0     C 2216   9.740   5.452   9.207  0.3330  0.5571  0.2412
   17MOL0     C 2217   9.620   5.447   9.276 -0.8190  0.1093 -0.2342
   17MOL0     C 2218   9.498   5.400   9.223  0.0482 -0.2440 -0.5887
   17MOL0     O 2219   9.383   5.407   9.284  0.2621 -0.4883 -0.0961
   17MOL0     C 2220   9.267   5.324   9.257 -0.0280 -0.1470 -0.5715
   17MOL0     C 2221   9.302   5.174   9.293 -0.0366 -0.1450 -0.7647
   17MOL0     C 2222   9.183   5.085   9.290 -0.3115  0.0907 -0.9185
   17MOL0     C 2223   9.202   4.945   9.350 -0.5688  1.3201 -0.3876
   17MOL0     C 2224   9.077   4.875   9.376 -0.0674 -0.1132 -0.5549
   17MOL0     C 2225   8.965   4.837   9.380 -0.5821 -0.4541  0.2192
   17MOL0     C 2226   9.511   5.350   9.095 -0.8223  0.4122  0.6198
   17MOL0     C 2227   9.631   5.344   9.024 -0.0336  0.3960 -0.2268
   17MOL0     H 2228  10.138   5.661   9.072  1.8942  1.4752 -2.2756
   17MOL0     H 2229  10.347   5.701   8.943  0.8383 -0.0122  3.4447
   17MOL0     H 2230  10.487   5.740   8.747 -0.3292 -0.9348 -0.9660
   17MOL0     H 2231  10.604   5.639   8.839  1.7696 -0.4598  0.4393
   17MOL0     H 2232  10.643   5.519   8.613 -0.3464  0.6388  0.4971
   17MOL0     H 2233  10.535   5.634   8.544  0.5851 -1.7424 -1.5219
   17MOL0     H 2234  10.681   5.821   8.623  1.4178  1.1750 -3.5068
   17MOL0     H 2235  10.810   5.699   8.670 -0.1808  0.8878  1.2037
   17MOL0     H 2236  10.688   5.735   8.399 -1.3322 -0.8485  2.1547
   17MOL0     H 2237  10.835   5.816   8.435 -1.4348  1.3245  1.3401
   17MOL0     H 2238  10.927   5.570   8.500  1.4311  0.5380 -2.1849
   17MOL0     H 2239  10.782   5.509   8.434 -0.5342 -0.0651 -1.4991
   17MOL0     H 2240  10.954   5.466   8.258 -0.6509 -1.2197  3.3342
   17MOL0     H 2241  10.818   5.569   8.207 -1.4535 -1.4750  0.7645
   17MOL0     H 2242  11.048   5.655   8.143 -0.0146 -3.0708 -0.0393
   17MOL0     H 2243  10.953   5.759   8.253  1.6226  0.9435 -0.8491
   17MOL0     H 2244  11.197   5.593   8.326  0.8090  0.6074  0.7294
   17MOL0     H 2245  11.120   5.701   8.437  4.3675  1.6273  0.0548
   17MOL0     H 2246  11.052   5.950   8.265 -0.3495  0.0010  0.0411
   17MOL0     H 2247  11.189   6.195   8.162 -0.9380  0.2528 -2.0428
   17MOL0     H 2248  11.312   6.147   8.056  0.2692 -3.1415 -0.9077
   17MOL0     H 2249  11.064   6.175   7.963 -0.0319 -0.8923 -1.7615
   17MOL0     H 2250  11.031   6.021   8.045 -0.7511  0.8679  0.4119
   17MOL0     H 2251  11.196   5.901   7.927 -0.1398 -3.0996 -5.3482
   17MOL0     H 2252  11.233   6.057   7.835 -1.7395  1.2671 -0.5779
   17MOL0     H 2253  10.962   5.925   7.831  0.7094 -1.2092  0.7517
   17MOL0     H 2254  11.086   5.910   7.704  2.4128  0.4450  1.6815
   17MOL0     H 2255  10.937   6.306   7.568  0.3310 -0.7318  2.3128
   17MOL0     H 2256  10.998   6.350   7.224  0.3757 -0.1696 -1.6023
   17MOL0     H 2257  10.949   6.433   7.380 -0.2585  0.8157  0.2141
   17MOL0     H 2258  11.112   6.449   7.290  1.5823 -2.7476  2.2473
   17MOL0     H 2259  11.386   6.410   7.043  0.3573  1.2975  2.7565
   17MOL0     H 2260  11.551   6.540   6.949  1.6419 -0.2102 -3.1912
   17MOL0     H 2261  11.763   6.633   6.859  1.5305 -0.9033 -1.3360
   17MOL0     H 2262  11.743   6.730   7.009  0.4674  1.5558 -2.5201
   17MOL0     H 2263  11.968   6.774   7.021 -2.1212 -1.1771 -0.2973
   17MOL0     H 2264  12.025   6.653   6.920  0.6743  0.9414  0.4421
   17MOL0     H 2265  11.868   6.793   6.730 -0.1583  2.0061 -0.5701
   17MOL0     H 2266  12.039   6.840   6.760  1.2253  1.3341  2.1477
   17MOL0     H 2267  11.773   6.953   6.871  0.3750  1.9645  0.6094
   17MOL0     H 2268  11.929   6.987   6.941 -0.3528  3.1819 -0.8687
   17MOL0     H 2269  11.831   7.145   6.770 -1.1431 -0.4203  0.6381
   17MOL0     H 2270  11.869   7.018   6.644 -2.1746 -3.4085  2.2423
   17MOL0     H 2271  12.110   7.043   6.715  0.9406  2.5350 -1.7697
   17MOL0     H 2272  12.037   7.174   6.628 -4.3741 -3.0612 -2.8591
   17MOL0     H 2273  12.140   7.141   6.914  0.8544  0.4893  0.2286
   17MOL0     H 2274  11.993   7.246   6.899  2.2269  4.6545  0.6189
   17MOL0     H 2275  12.111   7.381   6.717 -3.3015 -0.4072  0.6085
   17MOL0     H 2276  12.246   7.269   6.722 -1.8370 -1.7780  0.6474
   17MOL0     H 2277  11.857   6.326   7.149 -0.1800  0.0525  2.7227
   17MOL0     H 2278  11.669   6.164   7.249  3.5592  1.0132  0.7400
   17MOL0     H 2279  11.350   6.069   7.438  0.1371 -0.7219 -1.3808
   17MOL0     H 2280  11.230   6.004   7.629 -0.5130  2.4744  3.5816
   17MOL0     H 2281  10.308   5.305   8.783  1.0365  0.4306 -0.1482
   17MOL0     H 2282  10.105   5.274   8.897 -0.8570 -0.2124  0.5453
   17MOL0     H 2283   9.832   5.492   9.248 -0.2507  3.0583 -0.7147
   17MOL0     H 2284   9.604   5.481   9.378 -0.0604 -0.4108  0.0685
   17MOL0     H 2285   9.177   5.363   9.305  0.3380  1.5234 -1.1705
   17MOL0     H 2286   9.225   5.330   9.156 -0.1913 -0.0849 -0.5018
   17MOL0     H 2287   9.359   5.181   9.386  2.0365  0.2925 -2.0092
   17MOL0     H 2288   9.365   5.131   9.215  0.8370 -2.0991  0.9215
   17MOL0     H 2289   9.150   5.072   9.187 -0.0041  1.7525 -1.2494
   17MOL0     H 2290   9.099   5.131   9.343 -0.4452 -0.4375 -0.6590
   17MOL0     H 2291   9.240   4.956   9.452 -0.5180 -0.6336 -0.1548
   17MOL0     H 2292   9.260   4.872   9.292 -1.4079 -0.9130  1.4222
   17MOL0     H 2293   8.862   4.822   9.406 -0.1814 -3.3908  0.3985
   17MOL0     H 2294   9.430   5.317   9.030 -1.9949  2.3861  1.0067
   17MOL0     H 2295   9.621   5.299   8.925  4.2743  2.5655 -1.8929
   18MOL0     O 2296  11.006  10.714   2.230 -0.1175 -0.1187  0.6494
   18MOL0     C 2297  11.096  10.702   2.304 -0.3895  0.6119  0.4878
   18MOL0     O 2298  11.124  10.591   2.385  0.6702 -0.3006  0.1642
   18MOL0     C 2299  11.066  10.467   2.344  0.4359 -0.1048 -0.2614
   18MOL0     C 2300  11.031  10.429   2.211  0.0102  1.4460  0.4789
   18MOL0     C 2301  10.980  10.299   2.185 -0.5654  0.0175  1.0195
   18MOL0     C 2302  10.956  10.206   2.288  0.5752  0.8001  0.8952
   18MOL0     O 2303  10.917  10.067   2.266  1.2884 -0.2197  0.1000
   18MOL0     C 2304  10.813  10.006   2.346 -1.0935  0.7695  0.1793
   18MOL0     C 2305  10.707   9.966   2.254 -0.4810  0.3653  0.1828
   18MOL0     C 2306  10.754   9.851   2.161  0.8774 -0.0035 -0.1114
   18MOL0     C 2307  10.666   9.832   2.042  0.5229 -0.5376  0.5596
   18MOL0     C 2308  10.535   9.768   2.087  0.4180 -0.5772  0.3735
   18MOL0     C 2309  10.472   9.718   1.960  0.1082 -0.0874  0.1155
   18MOL0     C 2310  10.330   9.671   1.978  0.1347  0.4236  0.1869
   18MOL0     C 2311  10.318   9.524   2.022  0.7148  0.0351  0.0493
   18MOL0     N 2312  10.177   9.476   2.032  0.0582 -1.5201  0.2930
   18MOL0     C 2313  10.087   9.482   1.926 -0.9415 -0.4359 -0.2964
   18MOL0     C 2314   9.974   9.461   1.981  1.3138 -0.4661  0.3471
   18MOL0     C 2315   9.848   9.481   1.902  1.0696  0.3964 -0.4982
   18MOL0     C 2316   9.846   9.398   1.769  0.0059 -1.4691 -0.1350
   18MOL0     C 2317   9.726   9.421   1.675  0.5207 -1.2803 -0.5683
   18MOL0     C 2318   9.610   9.322   1.723  0.3436  0.0458  0.4176
   18MOL0     O 2319   9.496   9.349   1.642  0.3878  0.3894  0.7780
   18MOL0     C 2320   9.416   9.240   1.639 -0.0244  0.3549 -0.2869
   18MOL0     C 2321   9.349   9.182   1.744  1.0790  0.5233  0.7391
   18MOL0     C 2322   9.279   9.055   1.735  1.1306 -0.7930  0.3819
   18MOL0     C 2323   9.231   8.988   1.860 -0.2250 -0.7273 -0.1674
   18MOL0     C 2324   9.260   9.001   1.599 -0.3700  0.1188 -0.1713
   18MOL0     C 2325   9.216   8.856   1.567  0.1953 -0.9264  1.3075
   18MOL0     O 2326   9.166   8.851   1.438 -0.4979 -0.4624  0.5678
   18MOL0     C 2327   9.056   8.769   1.412 -0.4903 -0.6352  0.2641
   18MOL0     C 2328   8.975   8.725   1.516  0.0634 -0.3148 -0.0473
   18MOL0     C 2329   8.864   8.662   1.484 -0.5955  0.6248 -0.3638
   18MOL0     C 2330   8.830   8.620   1.354 -0.6325  0.3142  0.0819
   18MOL0     O 2331   8.720   8.535   1.337 -0.6407  0.5660 -0.1355
   18MOL0     C 2332   8.623   8.591   1.254  0.0895  0.3085  0.2159
   18MOL0     C 2333   8.490   8.596   1.316  1.0043  0.1549 -0.6429
   18MOL0     C 2334   8.383   8.671   1.240  0.2602 -1.2744  0.1117
   18MOL0     C 2335   8.241   8.653   1.298 -0.3896 -0.5160 -1.1690
   18MOL0     C 2336   8.174   8.523   1.259  0.4435 -0.1671  0.2872
   18MOL0     C 2337   8.072   8.540   1.149  0.4593  0.2413  0.7363
   18MOL0     C 2338   8.010   8.391   1.121  0.7133 -0.7684 -0.1133
   18MOL0     C 2339   7.958   8.387   0.980 -0.4927 -0.2848  0.9674
   18MOL0    Cl 2340   7.824   8.506   0.963  0.0543 -0.6400  0.1198
   18MOL0     C 2341   8.920   8.662   1.246  0.4896  0.8497  0.0322
   18MOL0     C 2342   9.030   8.739   1.272 -0.9271  0.0362 -1.2822
   18MOL0     O 2343   9.225   8.764   1.645 -0.0059 -0.7852 -0.0770
   18MOL0     C 2344   9.331   9.063   1.497 -0.5438  0.4277  0.9030
   18MOL0     C 2345   9.405   9.179   1.515 -0.6606 -0.4478  0.3825
   18MOL0     N 2346   9.979   9.410   2.110 -0.9190 -1.2883 -0.7240
   18MOL0     N 2347  10.107   9.430   2.141  0.3165  0.4744  0.3616
   18MOL0     C 2348  10.988  10.248   2.421  0.5899 -0.4057 -0.4404
   18MOL0     C 2349  11.045  10.371   2.453  0.6648  0.2850 -0.6200
   18MOL0     C 2350  11.193  10.811   2.313  0.3063  0.4924  0.2898
   18MOL0     C 2351  11.295  10.813   2.409  0.8999 -0.4171 -0.1167
   18MOL0     C 2352  11.392  10.919   2.401 -0.0085  0.0966  0.1195
   18MOL0     C 2353  11.392  11.022   2.302  0.2855 -0.1500 -0.1533
   18MOL0     O 2354  11.489  11.119   2.273 -0.9132  0.4320 -0.2787
   18MOL0     C 2355  11.620  11.124   2.350 -0.1987  0.2010  1.0708
   18MOL0     C 2356  11.609  11.231   2.458 -0.6349  0.4736  0.3027
   18MOL0     C 2357  11.627  11.364   2.385  0.6067  0.2908  0.1593
   18MOL0     C 2358  11.584  11.479   2.484  0.5515 -0.5661 -0.7841
   18MOL0     C 2359  11.590  11.616   2.429 -0.0151  0.7569 -0.8870
   18MOL0     C 2360  11.595  11.724   2.378 -0.5970 -0.3911 -0.3807
   18MOL0     C 2361  11.291  11.007   2.208 -1.1153  0.5432 -0.5009
   18MOL0     C 2362  11.191  10.911   2.219 -0.3495  0.2638 -0.0663
   18MOL0     H 2363  11.045  10.501   2.131 -0.8182  0.6721 -0.3935
   18MOL0     H 2364  10.974  10.265   2.082  2.4563  1.2243  0.3191
   18MOL0     H 2365  10.840   9.914   2.398 -0.5682  0.1447 -1.1549
   18MOL0     H 2366  10.786  10.080   2.423  0.0073  3.9857 -2.2944
   18MOL0     H 2367  10.611   9.939   2.298 -1.0897  1.3443 -0.5078
   18MOL0     H 2368  10.696  10.059   2.198  1.4804 -0.1885 -1.2288
   18MOL0     H 2369  10.853   9.879   2.124  0.1075  0.4356 -1.9784
   18MOL0     H 2370  10.762   9.759   2.221 -2.2115  0.6242  1.4644
   18MOL0     H 2371  10.652   9.928   1.991  1.6935  0.4423  1.9808
   18MOL0     H 2372  10.715   9.764   1.972  0.8208 -0.0393  0.2753
   18MOL0     H 2373  10.556   9.683   2.152  3.9069 -0.1465  0.0085
   18MOL0     H 2374  10.461   9.832   2.136 -0.6320  1.8091 -3.8269
   18MOL0     H 2375  10.481   9.789   1.877  1.9855 -2.5367 -1.9799
   18MOL0     H 2376  10.525   9.631   1.919 -0.4374  1.0971 -3.5186
   18MOL0     H 2377  10.267   9.737   2.039  0.8690 -1.6350  3.4168
   18MOL0     H 2378  10.275   9.677   1.883 -1.8697 -0.3209  1.2277
   18MOL0     H 2379  10.376   9.520   2.115 -1.1899 -1.5033  1.2388
   18MOL0     H 2380  10.365   9.469   1.941  0.2141  0.5390 -0.5953
   18MOL0     H 2381  10.116   9.509   1.825  0.3447 -0.1563  0.1234
   18MOL0     H 2382   9.758   9.457   1.959  2.5306 -2.1231  0.9203
   18MOL0     H 2383   9.840   9.589   1.886  0.4351  0.2500 -1.2325
   18MOL0     H 2384   9.862   9.293   1.795  2.0302 -1.5070 -1.3411
   18MOL0     H 2385   9.934   9.423   1.709  2.1151 -0.4425  3.1283
   18MOL0     H 2386   9.754   9.428   1.570 -3.0477 -0.7263 -1.5776
   18MOL0     H 2387   9.677   9.514   1.704 -1.1204 -2.3149  0.0922
   18MOL0     H 2388   9.593   9.337   1.830 -0.1390 -2.3643  0.7444
   18MOL0     H 2389   9.640   9.217   1.707 -5.9696 -2.7042  3.2058
   18MOL0     H 2390   9.374   9.223   1.842  2.9016 -0.6506  0.8101
   18MOL0     H 2391   9.268   9.043   1.947  3.1736 -1.0798 -1.2571
   18MOL0     H 2392   9.122   8.977   1.856 -0.1970 -0.7429 -1.1270
   18MOL0     H 2393   9.279   8.890   1.861 -1.8290 -1.7145  4.2003
   18MOL0     H 2394   8.994   8.750   1.619  3.6006 -0.6264 -0.4936
   18MOL0     H 2395   8.805   8.608   1.558 -0.9559 -2.0710 -2.4453
   18MOL0     H 2396   8.649   8.688   1.211  0.8481  0.1032  0.1815
   18MOL0     H 2397   8.596   8.519   1.176 -2.0083 -3.4577  4.0114
   18MOL0     H 2398   8.466   8.490   1.328  3.2712 -0.4048 -0.4633
   18MOL0     H 2399   8.509   8.631   1.418  3.1825  0.8067 -1.2126
   18MOL0     H 2400   8.391   8.629   1.140  1.7756  0.3633 -0.5099
   18MOL0     H 2401   8.411   8.777   1.247 -0.2265 -0.9582 -1.9825
   18MOL0     H 2402   8.251   8.662   1.407 -0.8614 -0.8865 -1.0881
   18MOL0     H 2403   8.186   8.737   1.256  3.7890  0.9185 -4.5155
   18MOL0     H 2404   8.117   8.488   1.345 -0.1126  2.5604  1.1283
   18MOL0     H 2405   8.240   8.443   1.224 -1.9433 -2.7253  1.3184
   18MOL0     H 2406   7.990   8.604   1.183 -0.3216 -0.5195  0.3459
   18MOL0     H 2407   8.116   8.568   1.053  1.0517  2.2582  1.5632
   18MOL0     H 2408   7.929   8.374   1.192 -0.5064  2.2508 -0.6437
   18MOL0     H 2409   8.088   8.316   1.136  2.0492  0.7298  0.7704
   18MOL0     H 2410   7.922   8.285   0.967 -1.3605  0.1589 -0.3532
   18MOL0     H 2411   8.046   8.393   0.916  0.1332 -2.5346  1.5338
   18MOL0     H 2412   8.908   8.609   1.152  1.3078 -1.6046  1.1967
   18MOL0     H 2413   9.097   8.761   1.189 -2.1341 -0.6724 -2.4662
   18MOL0     H 2414   9.332   9.018   1.398 -0.8169  1.5306  0.3924
   18MOL0     H 2415   9.457   9.227   1.433 -0.0583  2.2066  2.2100
   18MOL0     H 2416  10.957  10.175   2.495 -2.5528 -0.4852 -1.7203
   18MOL0     H 2417  11.074  10.397   2.555  4.2277 -1.6888 -0.9677
   18MOL0     H 2418  11.306  10.722   2.467  1.7507 -0.0513  0.3159
   18MOL0     H 2419  11.465  10.913   2.481  0.9398 -2.4401 -0.8365
   18MOL0     H 2420  11.645  11.027   2.394 -0.3789  1.1132  3.3681
   18MOL0     H 2421  11.701  11.142   2.280 -0.1220  2.7300  1.7150
   18MOL0     H 2422  11.687  11.217   2.534 -0.3915  0.8689  0.1311
   18MOL0     H 2423  11.519  11.201   2.512  0.7322 -0.0871  2.3859
   18MOL0     H 2424  11.554  11.370   2.303 -1.7814  1.6312  2.2510
   18MOL0     H 2425  11.724  11.381   2.338 -1.0679  2.8656 -2.7201
   18MOL0     H 2426  11.651  11.464   2.569  1.0336  0.4765 -0.9705
   18MOL0     H 2427  11.482  11.454   2.516 -0.1489 -1.4498 -3.4207
   18MOL0     H 2428  11.616  11.823   2.343  1.0629 -0.7380 -0.4472
   18MOL0     H 2429  11.293  11.068   2.117  2.5130  2.5772  0.7282
   18MOL0     H 2430  11.115  10.921   2.142  0.7010  1.9671 -0.9358
   19MOL0     O 2431   6.136   0.779   6.454 -0.3044  0.3147  0.2145
   19MOL0     C 2432   6.111   0.663   6.401  0.1277 -0.7909  0.2054
   19MOL0     O 2433   6.150   0.548   6.446  0.3451 -0.0901 -0.6152
   19MOL0     C 2434   6.216   0.545   6.562 -1.0866 -0.2463  0.5951
   19MOL0     C 2435   6.165   0.461   6.669 -0.2512  0.5763  0.0173
   19MOL0     C 2436   6.247   0.444   6.783 -0.2021  0.0341 -0.6921
   19MOL0     C 2437   6.375   0.503   6.794 -0.8741  0.1528  1.5232
   19MOL0     O 2438   6.436   0.482   6.910 -0.2918  0.2248  0.0190
   19MOL0     C 2439   6.575   0.511   6.919 -0.4618  0.1789 -0.0979
   19MOL0     C 2440   6.601   0.655   6.958 -0.2927  0.2257  0.1753
   19MOL0     C 2441   6.525   0.687   7.083 -0.2112 -0.2812 -0.5011
   19MOL0     C 2442   6.539   0.836   7.123 -0.2948 -0.6806  0.6789
   19MOL0     C 2443   6.453   0.862   7.253 -0.3707 -0.1620 -0.2992
   19MOL0     C 2444   6.461   1.016   7.270  0.0452 -0.8383 -0.9866
   19MOL0     C 2445   6.417   1.078   7.406  0.6745 -0.3199  0.0111
   19MOL0     C 2446   6.288   1.006   7.462 -0.4054  0.1028  0.8907
   19MOL0     N 2447   6.164   1.048   7.398  0.9396  0.6988  1.1160
   19MOL0     C 2448   6.078   0.970   7.328 -0.0289 -0.3221 -0.0110
   19MOL0     C 2449   5.982   1.052   7.280  0.3342 -0.0755  1.7587
   19MOL0     C 2450   5.858   0.995   7.216 -0.2619  0.1662 -0.6933
   19MOL0     C 2451   5.753   1.093   7.158 -0.9163 -0.2301 -0.4049
   19MOL0     C 2452   5.648   1.019   7.075 -0.0482 -0.6496 -0.3448
   19MOL0     C 2453   5.620   0.875   7.126 -0.6050 -0.0469  0.3933
   19MOL0     O 2454   5.547   0.902   7.247 -0.3994  0.1971 -0.8909
   19MOL0     C 2455   5.494   0.796   7.315  0.9009  0.0163 -0.7415
   19MOL0     C 2456   5.541   0.663   7.308 -1.1981 -0.0631 -0.5942
   19MOL0     C 2457   5.462   0.559   7.361  0.2806 -0.1615  0.1489
   19MOL0     C 2458   5.528   0.424   7.360  0.1090  1.0211  0.2160
   19MOL0     C 2459   5.340   0.581   7.425 -0.7238 -0.2089 -0.3385
   19MOL0     C 2460   5.256   0.481   7.487 -0.7670  0.7462 -0.2762
   19MOL0     O 2461   5.128   0.523   7.514 -0.3906 -0.5048  0.4538
   19MOL0     C 2462   5.025   0.436   7.531  0.1866  0.3228  0.3564
   19MOL0     C 2463   4.987   0.408   7.663 -1.0654  0.0581  0.1411
   19MOL0     C 2464   4.893   0.312   7.676  0.5634  0.4934 -0.5084
   19MOL0     C 2465   4.830   0.251   7.571 -0.7099 -0.2344 -0.1334
   19MOL0     O 2466   4.742   0.145   7.590 -0.3975 -0.0739  0.2008
   19MOL0     C 2467   4.645   0.136   7.483  0.4337  0.7436 -0.1823
   19MOL0     C 2468   4.526   0.043   7.524  0.6230  0.0852 -0.3256
   19MOL0     C 2469   4.415   0.110   7.619  0.3061 -0.1640  0.1121
   19MOL0     C 2470   4.280   0.090   7.542 -0.2565  0.3385 -0.4912
   19MOL0     C 2471   4.187   0.182   7.619  0.7911 -0.6758 -0.3358
   19MOL0     C 2472   4.048   0.163   7.563  0.5995 -0.6026  0.7788
   19MOL0     C 2473   3.929   0.231   7.636 -0.3737 -0.3032 -0.0991
   19MOL0     C 2474   3.822   0.133   7.686  0.6951  0.4873  0.2321
   19MOL0    Cl 2475   3.755   0.014   7.558 -0.5444  0.1615  0.2956
   19MOL0     C 2476   4.868   0.290   7.437  0.0798 -0.4260 -0.8639
   19MOL0     C 2477   4.970   0.384   7.417  0.1419 -1.0248  0.1095
   19MOL0     O 2478   5.303   0.372   7.521 -0.1633  0.7579  0.1194
   19MOL0     C 2479   5.293   0.713   7.435 -0.6476  0.7032  0.3059
   19MOL0     C 2480   5.363   0.818   7.374 -0.0000  0.5429 -0.3452
   19MOL0     N 2481   6.004   1.180   7.329 -0.9493  0.5179  0.4781
   19MOL0     N 2482   6.112   1.178   7.410  0.4152 -0.9562  0.1953
   19MOL0     C 2483   6.436   0.567   6.681 -0.9993 -0.2362  0.1623
   19MOL0     C 2484   6.349   0.597   6.569 -0.0567 -0.2529 -0.7684
   19MOL0     C 2485   6.037   0.652   6.276 -0.5255  0.4579 -0.9533
   19MOL0     C 2486   6.007   0.527   6.219  1.5560 -0.2118 -0.1033
   19MOL0     C 2487   5.947   0.527   6.099  1.1525 -1.5483  0.7288
   19MOL0     C 2488   5.898   0.641   6.035 -1.6432  0.8553  0.7770
   19MOL0     O 2489   5.846   0.619   5.914 -0.0733 -0.6743  0.7343
   19MOL0     C 2490   5.790   0.724   5.833  0.7564 -0.4839  0.1188
   19MOL0     C 2491   5.749   0.653   5.699 -0.5809 -0.6526 -0.4888
   19MOL0     C 2492   5.870   0.597   5.622 -0.3771 -0.0682  0.4654
   19MOL0     C 2493   5.858   0.543   5.478 -0.1432  0.6615  0.2603
   19MOL0     C 2494   5.801   0.637   5.381 -0.1589 -0.6883 -0.0521
   19MOL0     C 2495   5.741   0.716   5.311  0.3292  0.2160  0.1721
   19MOL0     C 2496   5.922   0.767   6.086 -1.2206  0.4834  0.1972
   19MOL0     C 2497   5.992   0.776   6.208 -0.6067 -0.1085 -0.6154
   19MOL0     H 2498   6.070   0.411   6.654  1.4049 -3.2473  0.8787
   19MOL0     H 2499   6.222   0.373   6.861  0.0426  0.3842 -0.2884
   19MOL0     H 2500   6.618   0.444   6.993  2.4005  0.5895 -1.2683
   19MOL0     H 2501   6.633   0.486   6.830 -1.2818  1.8988 -1.1753
   19MOL0     H 2502   6.707   0.677   6.971 -0.4602  0.6530  0.8841
   19MOL0     H 2503   6.561   0.711   6.873 -0.0659 -1.5870 -1.1967
   19MOL0     H 2504   6.417   0.666   7.080 -0.4455  0.6563  0.5653
   19MOL0     H 2505   6.562   0.621   7.162 -0.2938 -2.2003 -2.0025
   19MOL0     H 2506   6.641   0.875   7.131  0.2496 -1.9317  0.0424
   19MOL0     H 2507   6.504   0.906   7.047  1.0946 -1.4879 -0.7453
   19MOL0     H 2508   6.350   0.825   7.249 -0.0190 -1.3266  0.7736
   19MOL0     H 2509   6.501   0.819   7.342  0.3183  2.2951  0.6004
   19MOL0     H 2510   6.566   1.048   7.262  0.2694 -1.3223 -0.1013
   19MOL0     H 2511   6.410   1.068   7.189  1.9152  1.2927 -0.9030
   19MOL0     H 2512   6.502   1.047   7.468  0.0418 -1.5687  0.2890
   19MOL0     H 2513   6.415   1.187   7.402 -1.7406 -0.2822  0.9534
   19MOL0     H 2514   6.262   1.033   7.565 -2.8334 -0.7860  0.5631
   19MOL0     H 2515   6.299   0.898   7.467  2.6004  0.3513  1.9765
   19MOL0     H 2516   6.094   0.864   7.309 -1.8916 -1.0030  1.8747
   19MOL0     H 2517   5.893   0.926   7.138 -2.1474  1.6394 -2.9703
   19MOL0     H 2518   5.815   0.940   7.300  0.7009 -2.5603 -1.8749
   19MOL0     H 2519   5.809   1.151   7.084 -2.0451 -2.0406 -2.7821
   19MOL0     H 2520   5.711   1.155   7.238 -2.3025 -2.0369  0.3422
   19MOL0     H 2521   5.676   1.018   6.969  3.3603  3.0588  0.2842
   19MOL0     H 2522   5.549   1.066   7.077 -0.8374 -2.2498  1.6115
   19MOL0     H 2523   5.714   0.818   7.133  1.2060  1.7629 -4.7365
   19MOL0     H 2524   5.562   0.824   7.049 -0.7584 -1.7708  1.5742
   19MOL0     H 2525   5.642   0.640   7.276 -0.4250  1.0425  0.9041
   19MOL0     H 2526   5.447   0.352   7.346  0.2650  1.0070 -0.7020
   19MOL0     H 2527   5.607   0.412   7.285  0.5138  1.2107  0.6117
   19MOL0     H 2528   5.581   0.411   7.455 -0.4535 -2.3529  0.1799
   19MOL0     H 2529   5.042   0.447   7.748  3.6351  1.4177 -3.1552
   19MOL0     H 2530   4.864   0.290   7.778  0.6437  1.0076 -0.3674
   19MOL0     H 2531   4.596   0.233   7.469 -0.6208 -0.0775 -2.8792
   19MOL0     H 2532   4.672   0.101   7.383 -2.6224  1.3256 -1.3274
   19MOL0     H 2533   4.488  -0.000   7.432  0.6864 -0.1660 -0.2349
   19MOL0     H 2534   4.579  -0.035   7.580 -0.7953  0.4850  1.7194
   19MOL0     H 2535   4.440   0.216   7.633  0.9041 -0.3573  0.5857
   19MOL0     H 2536   4.414   0.062   7.718 -1.0515 -2.4133 -0.9204
   19MOL0     H 2537   4.287   0.118   7.437  0.3853  2.4261  0.0622
   19MOL0     H 2538   4.247  -0.014   7.553  0.8452  0.2344  4.5156
   19MOL0     H 2539   4.214   0.287   7.606 -0.1594 -0.4698 -0.6574
   19MOL0     H 2540   4.193   0.160   7.726  2.7244 -0.1887 -0.3002
   19MOL0     H 2541   4.042   0.172   7.454 -1.9084 -1.2889  0.8038
   19MOL0     H 2542   4.030   0.057   7.577  1.0408 -0.8985 -0.6918
   19MOL0     H 2543   3.869   0.307   7.586 -2.2810 -1.8290 -0.2546
   19MOL0     H 2544   3.966   0.289   7.721  1.6983  0.2477 -1.3141
   19MOL0     H 2545   3.738   0.198   7.712  0.6599  1.9285 -3.0439
   19MOL0     H 2546   3.860   0.077   7.772  0.3090  0.1416  0.1783
   19MOL0     H 2547   4.823   0.258   7.343  0.4950 -0.9487 -0.8893
   19MOL0     H 2548   5.005   0.413   7.319  1.8791  0.1166  1.0198
   19MOL0     H 2549   5.205   0.747   7.490 -0.5665  0.9222  0.3020
   19MOL0     H 2550   5.329   0.920   7.383 -1.5680  0.3052 -2.7577
   19MOL0     H 2551   6.537   0.608   6.676 -0.6661 -1.0997 -0.3709
   19MOL0     H 2552   6.405   0.668   6.508 -0.5861  3.7477  2.9192
   19MOL0     H 2553   6.030   0.431   6.263 -1.9182 -1.2191 -0.1708
   19MOL0     H 2554   5.930   0.427   6.058  0.8272 -1.6999  1.2310
   19MOL0     H 2555   5.706   0.769   5.885  1.0624  0.6752 -0.3538
   19MOL0     H 2556   5.852   0.813   5.821 -1.9142  1.7801  2.1121
   19MOL0     H 2557   5.687   0.725   5.645 -2.8868 -0.3821  2.2831
   19MOL0     H 2558   5.687   0.566   5.723  1.7071 -2.7335 -1.6799
   19MOL0     H 2559   5.914   0.522   5.688 -0.6952 -0.7071 -0.0467
   19MOL0     H 2560   5.941   0.681   5.623  0.7177 -0.9716  1.3980
   19MOL0     H 2561   5.798   0.452   5.472 -0.4569  0.9285 -1.1593
   19MOL0     H 2562   5.962   0.518   5.456 -0.4992  1.0201 -2.1786
   19MOL0     H 2563   5.694   0.776   5.237  0.0497 -1.3882 -1.0115
   19MOL0     H 2564   5.895   0.861   6.039 -1.5951  0.3190  0.0859
   19MOL0     H 2565   6.016   0.867   6.262 -3.3933  0.6531 -0.5251
   20MOL0     O 2566   5.676   7.456   8.758  0.2533 -0.7494  0.7627
   20MOL0     C 2567   5.591   7.370   8.732 -0.5849 -0.8503 -0.7562
   20MOL0     O 2568   5.466   7.370   8.794 -0.1685  0.5768  0.1698
   20MOL0     C 2569   5.445   7.421   8.920 -0.0214 -0.5860 -0.3911
   20MOL0     C 2570   5.311   7.453   8.964  0.6402 -0.1167  0.2016
   20MOL0     C 2571   5.288   7.481   9.094 -0.2054 -0.5468  0.9596
   20MOL0     C 2572   5.390   7.495   9.191  0.3523 -0.3145 -0.7037
   20MOL0     O 2573   5.352   7.528   9.325  0.3445  0.1346  0.7951
   20MOL0     C 2574   5.449   7.567   9.426 -0.4220  1.3502 -0.2062
   20MOL0     C 2575   5.499   7.438   9.495  0.3194 -0.5989 -0.9220
   20MOL0     C 2576   5.636   7.456   9.564  1.0719  0.7854  0.6815
   20MOL0     C 2577   5.619   7.537   9.698 -0.5840  0.0411  0.3432
   20MOL0     C 2578   5.750   7.572   9.771 -0.2205 -0.4590 -0.4866
   20MOL0     C 2579   5.730   7.651   9.906 -0.2455 -0.1465 -0.0873
   20MOL0     C 2580   5.851   7.650  10.008  0.5923 -0.3509 -0.4481
   20MOL0     C 2581   5.827   7.724  10.139  0.7539 -0.7607 -0.8280
   20MOL0     N 2582   5.926   7.687  10.246  0.4717  0.1499  0.5619
   20MOL0     C 2583   5.944   7.563  10.300  0.5241  0.0179 -0.3385
   20MOL0     C 2584   6.023   7.592  10.413  0.6629 -0.5730  0.2717
   20MOL0     C 2585   6.063   7.487  10.515 -0.0591  0.5284 -1.0616
   20MOL0     C 2586   5.977   7.509  10.642 -0.1325 -0.3508  0.3336
   20MOL0     C 2587   5.992   7.395  10.740 -0.6322 -0.2901  0.5125
   20MOL0     C 2588   5.954   7.429  10.882  0.9827 -0.6814 -0.6983
   20MOL0     O 2589   5.959   7.327  10.978 -0.3479  0.6300 -0.4874
   20MOL0     C 2590   5.913   7.357  11.111 -0.2336  0.1474 -0.3610
   20MOL0     C 2591   5.983   7.290  11.214  0.0090  0.3289  0.6275
   20MOL0     C 2592   5.969   7.324  11.345 -0.2569 -0.3908 -0.4621
   20MOL0     C 2593   6.069   7.250  11.447  0.1269 -0.3998  0.4937
   20MOL0     C 2594   5.863   7.414  11.382  0.4328  0.7120  0.2836
   20MOL0     C 2595   5.854   7.470  11.517  0.7937  1.2165 -0.0096
   20MOL0     O 2596   5.720   7.481  11.556 -0.0823 -0.4446  0.2788
   20MOL0     C 2597   5.681   7.522  11.689  0.3789 -0.4260 -0.3378
   20MOL0     C 2598   5.549   7.503  11.727 -0.2970 -0.2576 -1.4712
   20MOL0     C 2599   5.506   7.562  11.844 -0.7447 -0.3497  0.4399
   20MOL0     C 2600   5.589   7.645  11.923 -0.6362  0.5297  0.4796
   20MOL0     O 2601   5.558   7.711  12.047  0.6672 -0.3368 -0.1164
   20MOL0     C 2602   5.420   7.764  12.053  0.0806 -0.6407 -0.2364
   20MOL0     C 2603   5.445   7.901  12.117 -0.4148  0.0336  1.0352
   20MOL0     C 2604   5.529   7.997  12.029  0.4268 -0.2012 -0.3158
   20MOL0     C 2605   5.485   8.149  12.051 -0.7680 -0.3582  0.1640
   20MOL0     C 2606   5.590   8.240  11.980 -0.0724 -0.1536  0.3733
   20MOL0     C 2607   5.568   8.247  11.824  0.4728  0.2144  0.2524
   20MOL0     C 2608   5.671   8.329  11.755 -0.4619 -0.1311  0.3823
   20MOL0     C 2609   5.819   8.330  11.806  1.5239 -0.2547  0.8965
   20MOL0    Cl 2610   5.830   8.450  11.938  0.4772  0.5416 -0.2263
   20MOL0     C 2611   5.725   7.651  11.881 -0.0150 -1.0349 -0.4737
   20MOL0     C 2612   5.771   7.586  11.773 -0.2267 -0.2594  0.3491
   20MOL0     O 2613   5.952   7.492  11.575 -0.5762 -0.6503  1.0169
   20MOL0     C 2614   5.777   7.455  11.281 -0.3278  0.0839 -0.9087
   20MOL0     C 2615   5.801   7.430  11.150 -0.0333  0.1467 -0.1352
   20MOL0     N 2616   6.060   7.727  10.411  0.2704 -0.3894  0.8262
   20MOL0     N 2617   6.004   7.781  10.304  0.1271  1.0054 -0.2806
   20MOL0     C 2618   5.522   7.467   9.152 -0.0843  0.0223  1.1949
   20MOL0     C 2619   5.552   7.443   9.018  0.6591 -0.2534  0.0337
   20MOL0     C 2620   5.620   7.264   8.628  0.2241 -0.2608 -0.1886
   20MOL0     C 2621   5.744   7.266   8.559  0.3790  0.6454  0.8377
   20MOL0     C 2622   5.769   7.170   8.463 -0.3637  0.1314  0.3247
   20MOL0     C 2623   5.683   7.062   8.439 -0.6834  0.8521 -0.1465
   20MOL0     O 2624   5.720   6.959   8.357  0.7242 -0.1348 -0.5098
   20MOL0     C 2625   5.851   6.918   8.331 -0.3764 -0.1496  0.4217
   20MOL0     C 2626   5.871   6.783   8.259  0.2576  0.5034  0.0776
   20MOL0     C 2627   5.804   6.675   8.332  1.2769  0.3856 -0.4712
   20MOL0     C 2628   5.821   6.538   8.266  0.0343 -0.6975  0.4124
   20MOL0     C 2629   5.750   6.528   8.139  1.0368 -1.1371 -0.0956
   20MOL0     C 2630   5.707   6.529   8.029  0.6223 -0.1272  0.5590
   20MOL0     C 2631   5.559   7.067   8.505 -0.2507  0.6205 -0.3219
   20MOL0     C 2632   5.520   7.168   8.594 -0.3568 -0.4131  0.1676
   20MOL0     H 2633   5.221   7.453   8.903 -0.5213 -3.9648  1.6123
   20MOL0     H 2634   5.185   7.510   9.109 -0.5816 -1.2604 -0.1751
   20MOL0     H 2635   5.532   7.626   9.386  0.8455 -0.6615 -0.6285
   20MOL0     H 2636   5.397   7.616   9.509 -0.4734 -2.8985  2.5292
   20MOL0     H 2637   5.431   7.387   9.564  1.8484 -0.8530  0.4625
   20MOL0     H 2638   5.512   7.369   9.412 -3.8792 -2.5357 -0.2022
   20MOL0     H 2639   5.673   7.353   9.573 -0.8123 -0.1295 -1.0432
   20MOL0     H 2640   5.700   7.520   9.504  2.3917  0.6286  1.8798
   20MOL0     H 2641   5.577   7.631   9.660  0.1115  0.4884  0.6683
   20MOL0     H 2642   5.547   7.487   9.763 -2.3624  1.6682 -0.2768
   20MOL0     H 2643   5.801   7.478   9.797  3.6911  0.9911 -2.2311
   20MOL0     H 2644   5.810   7.639   9.709  1.3827 -1.0611  0.3522
   20MOL0     H 2645   5.703   7.753   9.876  0.1557  0.1279  0.4826
   20MOL0     H 2646   5.639   7.614   9.956  0.9118 -3.1433  0.0019
   20MOL0     H 2647   5.868   7.546  10.039  0.1276  0.2973  2.2382
   20MOL0     H 2648   5.942   7.695   9.969 -1.4447  2.9647 -1.8084
   20MOL0     H 2649   5.733   7.708  10.194  0.7306  2.9244  0.4857
   20MOL0     H 2650   5.841   7.832  10.127  3.5554 -0.8436  0.9136
   20MOL0     H 2651   5.902   7.464  10.284 -2.6048  1.0941  0.4088
   20MOL0     H 2652   6.039   7.390  10.470  2.7283  0.1443 -1.9230
   20MOL0     H 2653   6.172   7.487  10.530  0.5416 -2.1041 -4.3660
   20MOL0     H 2654   5.872   7.525  10.616 -0.2181  1.8013  1.7008
   20MOL0     H 2655   6.021   7.603  10.678  3.4658 -1.7494 -0.0184
   20MOL0     H 2656   6.096   7.365  10.759 -0.1031  1.7513  1.0194
   20MOL0     H 2657   5.941   7.308  10.699  1.0083 -1.8832  1.6604
   20MOL0     H 2658   5.850   7.462  10.879  1.2722  0.2406 -2.6694
   20MOL0     H 2659   6.013   7.512  10.923 -3.9158  1.4913  2.9620
   20MOL0     H 2660   6.066   7.225  11.190  1.0214  1.1758  1.7161
   20MOL0     H 2661   6.163   7.306  11.450 -1.4877  2.6013 -0.2869
   20MOL0     H 2662   6.035   7.263  11.550  1.0041  0.6372  0.6819
   20MOL0     H 2663   6.079   7.145  11.418  2.0431  0.6337 -3.2402
   20MOL0     H 2664   5.479   7.449  11.662 -2.3312 -1.1283  1.2390
   20MOL0     H 2665   5.399   7.548  11.857 -1.1744  0.8431 -1.4258
   20MOL0     H 2666   5.368   7.756  11.957  1.0134 -3.0531 -0.6075
   20MOL0     H 2667   5.362   7.701  12.121  0.1143 -1.1926 -0.7114
   20MOL0     H 2668   5.346   7.938  12.141  0.4341  2.8035  0.6094
   20MOL0     H 2669   5.498   7.882  12.211  2.3186 -0.1594 -0.4088
   20MOL0     H 2670   5.503   7.982  11.924 -1.1447  1.0159 -0.1353
   20MOL0     H 2671   5.636   7.980  12.043  1.0323  0.0455 -3.8693
   20MOL0     H 2672   5.388   8.171  12.005  0.2064  0.0834 -1.7707
   20MOL0     H 2673   5.476   8.160  12.160  3.2096 -1.3939  0.7646
   20MOL0     H 2674   5.688   8.210  12.017 -0.6401  0.6630  2.7947
   20MOL0     H 2675   5.565   8.342  12.013 -1.1641 -0.0441 -0.7085
   20MOL0     H 2676   5.564   8.144  11.788 -4.2892  0.0648  0.5946
   20MOL0     H 2677   5.469   8.292  11.808  0.3183 -0.4919 -0.8656
   20MOL0     H 2678   5.630   8.428  11.734 -1.6967 -0.5383  0.7913
   20MOL0     H 2679   5.690   8.276  11.661  1.0974 -0.0081  0.5967
   20MOL0     H 2680   5.875   8.361  11.718 -0.7598 -1.6208 -1.1406
   20MOL0     H 2681   5.849   8.227  11.830  1.2270 -1.0833 -1.9882
   20MOL0     H 2682   5.807   7.703  11.929 -0.7074 -0.4906  0.1407
   20MOL0     H 2683   5.879   7.587  11.765 -0.2486 -0.4195  0.0421
   20MOL0     H 2684   5.690   7.507  11.318  0.2412 -1.0805  2.4256
   20MOL0     H 2685   5.736   7.472  11.074  1.9959  0.9089 -1.5686
   20MOL0     H 2686   5.603   7.501   9.216 -0.1642  1.5599  0.5171
   20MOL0     H 2687   5.654   7.435   8.984 -0.2199  1.5540 -3.5762
   20MOL0     H 2688   5.813   7.347   8.579 -0.3801  1.8871 -1.2809
   20MOL0     H 2689   5.865   7.174   8.414 -0.9410  0.4466 -0.8102
   20MOL0     H 2690   5.894   6.989   8.259 -1.7745 -0.9839 -1.3031
   20MOL0     H 2691   5.907   6.910   8.425 -0.1820  1.7335  0.5089
   20MOL0     H 2692   5.972   6.742   8.255 -1.4529 -4.5962  1.8655
   20MOL0     H 2693   5.832   6.783   8.157  2.2447 -1.0991 -0.7262
   20MOL0     H 2694   5.700   6.697   8.356  0.8043 -1.9498 -0.0936
   20MOL0     H 2695   5.856   6.671   8.428  0.4438 -0.8273 -0.0427
   20MOL0     H 2696   5.773   6.458   8.324 -1.0907 -0.6754 -0.4420
   20MOL0     H 2697   5.929   6.526   8.260  0.7792  4.3088 -1.6739
   20MOL0     H 2698   5.682   6.558   7.929  2.4817 -0.9198 -0.1929
   20MOL0     H 2699   5.494   6.983   8.485  0.1083  0.0069  0.9846
   20MOL0     H 2700   5.421   7.172   8.639 -0.2436  0.3966  0.3678
   21MOL0     O 2701   9.065   6.547   9.058  0.2135  0.0099  0.3746
   21MOL0     C 2702   8.993   6.459   9.100 -0.7957 -0.0413 -0.4241
   21MOL0     O 2703   9.032   6.333   9.128 -0.6989  0.0106 -0.5660
   21MOL0     C 2704   9.150   6.278   9.077 -0.5848  0.2422  0.2162
   21MOL0     C 2705   9.260   6.230   9.154 -0.1365 -0.0781 -0.6199
   21MOL0     C 2706   9.377   6.178   9.089 -0.3603  0.2602  0.5652
   21MOL0     C 2707   9.384   6.172   8.950  0.4165 -0.1730 -0.3192
   21MOL0     O 2708   9.500   6.113   8.904 -0.2037 -0.0727  0.3384
   21MOL0     C 2709   9.548   6.174   8.788 -0.8793  0.0186 -0.1944
   21MOL0     C 2710   9.707   6.171   8.791  0.4133  0.2197  0.5328
   21MOL0     C 2711   9.770   6.049   8.851 -0.4968  0.7300 -0.0763
   21MOL0     C 2712   9.820   5.952   8.746  0.1295 -0.3381 -0.3000
   21MOL0     C 2713   9.909   5.835   8.807  0.0115  0.2717  0.2285
   21MOL0     C 2714   9.965   5.740   8.705  0.4947 -0.5718 -0.0054
   21MOL0     C 2715   9.851   5.636   8.659 -0.1866 -0.3997 -0.7585
   21MOL0     C 2716   9.906   5.545   8.537  0.0238 -0.8528  0.6095
   21MOL0     N 2717   9.963   5.625   8.427 -0.2831  0.0136  0.2534
   21MOL0     C 2718   9.885   5.688   8.328  0.9999 -0.8359 -0.0737
   21MOL0     C 2719   9.973   5.734   8.229 -0.4860  0.6318 -0.0228
   21MOL0     C 2720   9.948   5.824   8.116 -0.2199 -0.5484 -0.0407
   21MOL0     C 2721   9.933   5.761   7.979 -0.2809  0.7594 -0.0462
   21MOL0     C 2722   9.855   5.629   7.994  0.1808 -0.1292 -0.4195
   21MOL0     C 2723   9.811   5.560   7.865  0.3086  0.5547  0.1483
   21MOL0     O 2724   9.759   5.645   7.770 -0.0944 -0.5744  1.3521
   21MOL0     C 2725   9.711   5.564   7.662 -0.4877 -0.1715  0.2311
   21MOL0     C 2726   9.767   5.443   7.615 -0.1409 -0.0667 -0.1448
   21MOL0     C 2727   9.719   5.366   7.516 -0.3265  0.5583  0.1737
   21MOL0     C 2728   9.787   5.235   7.487  0.0843 -0.1224  0.0353
   21MOL0     C 2729   9.605   5.423   7.437  0.5205  1.6952 -0.3174
   21MOL0     C 2730   9.538   5.363   7.323  0.1587 -0.7052  0.1679
   21MOL0     O 2731   9.404   5.385   7.297  0.6336 -0.4651  0.4366
   21MOL0     C 2732   9.337   5.329   7.196  0.6127  0.0602  0.8674
   21MOL0     C 2733   9.341   5.187   7.162  0.2183 -0.8641 -1.0801
   21MOL0     C 2734   9.268   5.145   7.060 -0.2220  1.2916 -0.0428
   21MOL0     C 2735   9.213   5.230   6.966 -0.9192 -0.7761  0.4262
   21MOL0     O 2736   9.178   5.179   6.837 -0.7017  0.4128  0.0697
   21MOL0     C 2737   9.110   5.270   6.752  0.6146  0.3891  0.0828
   21MOL0     C 2738   9.052   5.189   6.630  0.2978 -0.3834 -0.1915
   21MOL0     C 2739   9.166   5.156   6.530 -0.2753  1.3997  0.1420
   21MOL0     C 2740   9.132   5.074   6.404  0.2777  0.4314 -0.4052
   21MOL0     C 2741   9.249   5.041   6.316 -0.5526 -0.2655  0.5314
   21MOL0     C 2742   9.202   4.998   6.177 -0.2088  0.8639  1.1971
   21MOL0     C 2743   9.129   4.860   6.165 -0.4404  0.7206  0.1854
   21MOL0     C 2744   9.110   4.814   6.016  0.9380 -0.7540 -0.2398
   21MOL0    Cl 2745   9.002   4.660   6.005 -0.7607  0.5308  0.1045
   21MOL0     C 2746   9.204   5.366   6.996  0.7293  0.5938  0.4601
   21MOL0     C 2747   9.262   5.418   7.113 -0.0409  0.0996  0.0630
   21MOL0     O 2748   9.606   5.294   7.257 -1.1551  0.0687 -0.5742
   21MOL0     C 2749   9.554   5.540   7.480 -0.0701 -0.2176 -0.1523
   21MOL0     C 2750   9.600   5.610   7.592 -0.4916  0.5389 -0.9066
   21MOL0     N 2751  10.098   5.697   8.283 -0.4783  1.1244  0.3132
   21MOL0     N 2752  10.095   5.644   8.394 -0.5362  0.3614 -0.1777
   21MOL0     C 2753   9.276   6.214   8.873  0.1323  0.2719  0.0625
   21MOL0     C 2754   9.162   6.261   8.937  0.5569  0.4526  0.1841
   21MOL0     C 2755   8.849   6.496   9.120  0.8531  0.2772  0.9534
   21MOL0     C 2756   8.791   6.620   9.070  0.4760 -0.3724 -0.6338
   21MOL0     C 2757   8.644   6.630   9.085 -0.9409 -0.7025 -0.3415
   21MOL0     C 2758   8.557   6.536   9.139 -1.6099 -0.8005 -0.6930
   21MOL0     O 2759   8.423   6.561   9.140  0.2082 -0.2443  0.5102
   21MOL0     C 2760   8.353   6.445   9.081 -0.1653  0.8780 -0.9293
   21MOL0     C 2761   8.257   6.482   8.973 -0.2277  1.1273 -0.2012
   21MOL0     C 2762   8.164   6.364   8.912 -0.4247 -0.3000 -1.1147
   21MOL0     C 2763   8.090   6.285   9.019  0.0493 -0.7545 -0.1076
   21MOL0     C 2764   8.006   6.366   9.100  1.2250 -1.0227  0.2701
   21MOL0     C 2765   7.938   6.457   9.156 -0.3418  0.1446 -0.0611
   21MOL0     C 2766   8.625   6.419   9.194  0.3660  0.4502 -0.2461
   21MOL0     C 2767   8.759   6.395   9.179 -0.3050 -0.1266 -0.1112
   21MOL0     H 2768   9.241   6.241   9.261  2.2936  0.1159 -0.1522
   21MOL0     H 2769   9.456   6.141   9.154  1.8742  3.6021 -0.0351
   21MOL0     H 2770   9.513   6.132   8.693 -3.1752 -1.1931  1.1073
   21MOL0     H 2771   9.511   6.276   8.779 -1.3216  0.0128  1.3017
   21MOL0     H 2772   9.752   6.186   8.693  0.7918 -1.4729  0.4249
   21MOL0     H 2773   9.732   6.266   8.839 -0.1804 -0.3879  2.1169
   21MOL0     H 2774   9.860   6.076   8.907 -1.0013  1.7821  0.2610
   21MOL0     H 2775   9.706   6.007   8.929 -3.7576 -0.4855 -3.1417
   21MOL0     H 2776   9.740   5.909   8.685  2.5669 -2.8122 -1.9953
   21MOL0     H 2777   9.891   6.013   8.690  0.4032  3.4691  3.6371
   21MOL0     H 2778   9.992   5.877   8.864  0.6324  0.5836 -0.8853
   21MOL0     H 2779   9.840   5.786   8.877 -2.4470  1.5054 -1.1598
   21MOL0     H 2780   9.994   5.798   8.617 -1.8051 -1.4162 -1.4271
   21MOL0     H 2781  10.048   5.684   8.750  0.2167 -1.6649 -0.7971
   21MOL0     H 2782   9.822   5.567   8.739 -0.6813  0.2700 -0.3478
   21MOL0     H 2783   9.755   5.686   8.639 -1.4295 -0.8083  3.2680
   21MOL0     H 2784   9.835   5.478   8.487 -0.0006 -0.1208 -0.3705
   21MOL0     H 2785   9.990   5.482   8.567  0.3191 -1.4411 -1.3482
   21MOL0     H 2786   9.777   5.696   8.336  0.6583 -2.2167 -2.5575
   21MOL0     H 2787   9.848   5.867   8.128 -0.2092 -0.4225 -0.3816
   21MOL0     H 2788  10.024   5.902   8.120 -2.6640  2.1241 -1.7055
   21MOL0     H 2789  10.027   5.746   7.925 -0.3165 -0.4702  0.2056
   21MOL0     H 2790   9.871   5.827   7.918  0.6382  1.8612  0.1714
   21MOL0     H 2791   9.761   5.667   8.036  0.3671  0.2709 -0.3568
   21MOL0     H 2792   9.900   5.554   8.059 -1.6515  1.1118  2.5232
   21MOL0     H 2793   9.739   5.480   7.886  2.0744 -1.0751  0.2214
   21MOL0     H 2794   9.902   5.517   7.823 -1.5300 -1.6008 -1.8870
   21MOL0     H 2795   9.858   5.406   7.660  2.4636  2.2360 -3.0908
   21MOL0     H 2796   9.845   5.203   7.574 -3.2393  2.0162  3.3688
   21MOL0     H 2797   9.710   5.164   7.457 -1.3027  2.1761 -2.1811
   21MOL0     H 2798   9.847   5.230   7.396  0.9997 -1.5605  0.6740
   21MOL0     H 2799   9.395   5.118   7.226  0.0168 -0.2189 -0.1970
   21MOL0     H 2800   9.276   5.042   7.025 -1.8322  1.7123 -1.8049
   21MOL0     H 2801   9.028   5.316   6.808  2.2383  1.5683  1.6354
   21MOL0     H 2802   9.189   5.339   6.721  2.6954 -2.2166 -0.8025
   21MOL0     H 2803   8.998   5.096   6.651 -0.6203 -0.6099 -3.1566
   21MOL0     H 2804   8.986   5.259   6.580  0.6747 -0.5220 -0.9045
   21MOL0     H 2805   9.242   5.099   6.585  1.3663  1.8204 -1.6295
   21MOL0     H 2806   9.213   5.249   6.497  0.7957  1.8153  2.6215
   21MOL0     H 2807   9.087   4.979   6.435 -1.0839  1.5926  1.3353
   21MOL0     H 2808   9.051   5.124   6.352 -1.2342  0.2571  1.6489
   21MOL0     H 2809   9.310   4.964   6.366 -1.6892 -0.2557  2.0162
   21MOL0     H 2810   9.315   5.127   6.304  2.5531 -2.4471  0.7467
   21MOL0     H 2811   9.140   5.078   6.135 -1.7444  0.1842  2.1120
   21MOL0     H 2812   9.284   4.999   6.104 -2.8360 -1.6146 -2.1212
   21MOL0     H 2813   9.037   4.875   6.223  0.2699  0.6105  1.3656
   21MOL0     H 2814   9.197   4.789   6.214 -0.6465  2.1910  2.8020
   21MOL0     H 2815   9.209   4.802   5.973  0.6841  0.8200 -1.3558
   21MOL0     H 2816   9.055   4.892   5.962  2.8989  0.4870 -0.5505
   21MOL0     H 2817   9.164   5.439   6.926 -3.0148 -3.9326 -2.7626
   21MOL0     H 2818   9.250   5.524   7.136  0.0329  0.0507  0.3214
   21MOL0     H 2819   9.471   5.567   7.416  0.4791 -2.8800 -2.1859
   21MOL0     H 2820   9.567   5.708   7.625  2.0759  1.1466  0.0584
   21MOL0     H 2821   9.280   6.211   8.765  0.2981  2.8319 -0.0539
   21MOL0     H 2822   9.087   6.306   8.873 -0.3287 -1.1228  0.0551
   21MOL0     H 2823   8.838   6.710   9.030  1.3304  1.4842  3.9400
   21MOL0     H 2824   8.592   6.720   9.054 -3.3194 -1.8888 -0.0251
   21MOL0     H 2825   8.421   6.365   9.049 -1.5527 -0.8531  0.2273
   21MOL0     H 2826   8.307   6.398   9.169 -0.9583  1.4222 -1.0427
   21MOL0     H 2827   8.314   6.517   8.887  0.8460  1.5371  0.6648
   21MOL0     H 2828   8.179   6.553   9.001 -0.5000  1.3930 -1.5772
   21MOL0     H 2829   8.236   6.302   8.858  0.8873 -3.0070  3.1949
   21MOL0     H 2830   8.092   6.407   8.842  0.3234 -0.3117 -1.8992
   21MOL0     H 2831   8.158   6.247   9.095 -0.8256 -0.8731  0.6383
   21MOL0     H 2832   8.030   6.203   8.979 -2.7331 -0.6780  3.3219
   21MOL0     H 2833   7.879   6.512   9.227  3.8565  1.7269  2.6137
   21MOL0     H 2834   8.559   6.342   9.231 -0.5481 -1.0183 -4.3399
   21MOL0     H 2835   8.807   6.303   9.211 -0.1486  0.1349  0.4212
   22MOL0     O 2836   3.960   0.273   4.034 -0.0760 -0.2970 -0.5284
   22MOL0     C 2837   3.858   0.251   4.098  0.5040 -0.5201  0.4738
   22MOL0     O 2838   3.735   0.217   4.043  0.0996 -0.1764  0.2552
   22MOL0     C 2839   3.710   0.221   3.911 -0.7668  0.0393 -0.2722
   22MOL0     C 2840   3.698   0.107   3.821  0.2970 -0.8461  0.1788
   22MOL0     C 2841   3.696   0.126   3.684 -0.0804  0.5410 -0.8815
   22MOL0     C 2842   3.695   0.253   3.627  0.2852 -0.2304  0.0819
   22MOL0     O 2843   3.678   0.252   3.488  0.1049  0.0416 -0.1462
   22MOL0     C 2844   3.710   0.369   3.421 -0.3299 -0.5313 -0.2870
   22MOL0     C 2845   3.725   0.347   3.270 -0.9941 -1.4236  0.0757
   22MOL0     C 2846   3.797   0.461   3.189  0.6393 -0.8495  0.7543
   22MOL0     C 2847   3.792   0.431   3.045  0.4985 -1.3378 -0.7423
   22MOL0     C 2848   3.759   0.559   2.970  0.4704 -0.7015  0.3853
   22MOL0     C 2849   3.797   0.538   2.828 -0.2107 -0.5828  0.6006
   22MOL0     C 2850   3.765   0.674   2.763  0.9793 -0.1606  0.8161
   22MOL0     C 2851   3.756   0.671   2.613  0.6516 -1.7751 -0.0733
   22MOL0     N 2852   3.883   0.628   2.552 -0.8647 -1.1505 -0.0741
   22MOL0     C 2853   3.942   0.496   2.539 -0.4261 -0.2940  0.1562
   22MOL0     C 2854   4.058   0.511   2.475  1.6018  0.2699  0.3779
   22MOL0     C 2855   4.170   0.412   2.433 -1.0516 -0.1546  0.1086
   22MOL0     C 2856   4.293   0.425   2.537  0.5472  0.3462  0.3356
   22MOL0     C 2857   4.419   0.364   2.462 -0.6293 -0.0648 -0.5524
   22MOL0     C 2858   4.543   0.370   2.544 -0.5043  0.0788 -0.3068
   22MOL0     O 2859   4.511   0.313   2.681  0.4121 -0.2828  0.3629
   22MOL0     C 2860   4.617   0.302   2.766 -0.8827  0.1409 -0.1894
   22MOL0     C 2861   4.598   0.245   2.889  0.3717  0.3640  0.0108
   22MOL0     C 2862   4.705   0.216   2.975 -0.2714 -0.8745  0.0815
   22MOL0     C 2863   4.657   0.159   3.112 -1.1625 -0.1742  0.5347
   22MOL0     C 2864   4.839   0.234   2.939 -0.7141 -0.3016  0.4737
   22MOL0     C 2865   4.950   0.196   3.024 -0.7017 -0.1449  0.8157
   22MOL0     O 2866   4.948   0.079   3.091 -0.3255  0.5067 -0.2207
   22MOL0     C 2867   5.055   0.024   3.152 -0.5608 -1.1652 -0.7314
   22MOL0     C 2868   5.189   0.042   3.122 -0.9096 -0.0269  0.6494
   22MOL0     C 2869   5.291  -0.027   3.193  0.5198  0.3595  0.1552
   22MOL0     C 2870   5.260  -0.085   3.313 -1.2269 -0.5220 -1.0164
   22MOL0     O 2871   5.371  -0.126   3.378 -0.2094  0.8322  1.0289
   22MOL0     C 2872   5.385  -0.223   3.484 -0.1503 -0.6791 -0.0004
   22MOL0     C 2873   5.354  -0.366   3.429 -0.4613 -0.4290 -0.2076
   22MOL0     C 2874   5.460  -0.431   3.325  0.1176 -0.2685 -0.4213
   22MOL0     C 2875   5.451  -0.362   3.192 -0.2485 -0.0282  0.0922
   22MOL0     C 2876   5.498  -0.435   3.076 -0.1890  0.1297  0.8337
   22MOL0     C 2877   5.460  -0.355   2.956 -0.2147 -0.4529  0.2135
   22MOL0     C 2878   5.519  -0.395   2.815 -1.2252 -0.1229  0.3614
   22MOL0     C 2879   5.447  -0.325   2.703  0.8733  0.2170  0.4477
   22MOL0    Cl 2880   5.294  -0.397   2.653 -0.2707  0.2770  0.2607
   22MOL0     C 2881   5.129  -0.087   3.358  0.1599  0.0516 -0.7306
   22MOL0     C 2882   5.025  -0.039   3.276  0.7941 -0.0274  0.3541
   22MOL0     O 2883   5.037   0.280   3.024 -0.2315  0.0923  0.0271
   22MOL0     C 2884   4.861   0.284   2.813  0.1012 -0.9793  0.4752
   22MOL0     C 2885   4.753   0.320   2.722  0.1651  0.1521 -0.7893
   22MOL0     N 2886   4.071   0.641   2.441 -0.8487  0.2812 -0.4781
   22MOL0     N 2887   3.975   0.714   2.495 -0.0044  0.0214 -0.3089
   22MOL0     C 2888   3.717   0.359   3.715  0.2681  0.0674 -0.1623
   22MOL0     C 2889   3.707   0.344   3.849  0.2452 -0.1183 -0.0596
   22MOL0     C 2890   3.858   0.268   4.243 -1.3301 -0.4495 -0.1125
   22MOL0     C 2891   3.967   0.297   4.326  1.3084 -0.4091  0.0211
   22MOL0     C 2892   3.966   0.296   4.464 -0.8907 -0.1860  0.4738
   22MOL0     C 2893   3.849   0.263   4.531 -0.9883 -0.2892  0.5365
   22MOL0     O 2894   3.851   0.253   4.667 -0.6361  0.3346  0.3922
   22MOL0     C 2895   3.984   0.240   4.735 -0.4860  0.8299  0.4516
   22MOL0     C 2896   3.970   0.278   4.884 -0.0973 -0.1612 -0.0720
   22MOL0     C 2897   3.893   0.159   4.945  0.6546  0.8393  0.5962
   22MOL0     C 2898   3.866   0.172   5.099 -0.3545  0.3807  1.0878
   22MOL0     C 2899   3.836   0.045   5.176 -0.5582 -0.0094 -0.9348
   22MOL0     C 2900   3.792  -0.043   5.247  0.1439 -0.2403 -0.8333
   22MOL0     C 2901   3.742   0.226   4.454 -0.1542 -0.0998 -0.0780
   22MOL0     C 2902   3.748   0.214   4.313 -0.9403 -0.3465 -0.2259
   22MOL0     H 2903   3.712   0.004   3.855  2.0814  0.0409  2.3826
   22MOL0     H 2904   3.692   0.043   3.615  0.2566  0.3538 -0.6783
   22MOL0     H 2905   3.632   0.446   3.414 -2.1341 -2.4206 -2.2821
   22MOL0     H 2906   3.805   0.410   3.458 -1.7721  1.9349  0.9294
   22MOL0     H 2907   3.770   0.249   3.253 -0.6282 -1.1216 -0.7595
   22MOL0     H 2908   3.622   0.333   3.235 -2.0613  0.3785  2.2122
   22MOL0     H 2909   3.755   0.559   3.213 -1.3612 -1.7722  1.1851
   22MOL0     H 2910   3.904   0.469   3.212  0.5823  0.0270  0.7658
   22MOL0     H 2911   3.893   0.410   3.009  1.5104  2.4335 -0.5164
   22MOL0     H 2912   3.714   0.358   3.022 -1.2922  0.8662 -2.1324
   22MOL0     H 2913   3.658   0.592   2.997 -0.0073 -3.4231  2.2997
   22MOL0     H 2914   3.823   0.643   2.997  2.4231 -1.0146 -2.6967
   22MOL0     H 2915   3.905   0.523   2.828 -0.3599 -1.8080 -0.2397
   22MOL0     H 2916   3.759   0.458   2.764  1.2463  0.9008 -2.3531
   22MOL0     H 2917   3.662   0.692   2.795 -0.5854 -1.4952 -2.9339
   22MOL0     H 2918   3.827   0.755   2.803  2.9398 -1.7223  1.1256
   22MOL0     H 2919   3.736   0.771   2.575  2.9994 -1.9324 -1.9429
   22MOL0     H 2920   3.688   0.601   2.564 -1.9484  1.8145 -2.0412
   22MOL0     H 2921   3.905   0.403   2.581  2.4086  0.4224  4.9931
   22MOL0     H 2922   4.133   0.309   2.428  2.8257 -1.6586 -1.9476
   22MOL0     H 2923   4.205   0.440   2.333  1.4820 -1.1755  0.6280
   22MOL0     H 2924   4.266   0.363   2.623 -2.6993 -0.2976 -1.0210
   22MOL0     H 2925   4.304   0.526   2.579 -1.8187  0.2451  1.3818
   22MOL0     H 2926   4.443   0.409   2.365 -2.6451 -0.7865 -1.4358
   22MOL0     H 2927   4.395   0.259   2.444  0.2400 -1.2534  4.0776
   22MOL0     H 2928   4.579   0.474   2.541 -1.4882  0.4728  0.7273
   22MOL0     H 2929   4.616   0.302   2.499 -0.6348 -1.1226  1.1982
   22MOL0     H 2930   4.496   0.241   2.925 -0.9194  1.6571 -3.1660
   22MOL0     H 2931   4.744   0.154   3.177  1.5221  2.1172 -2.5477
   22MOL0     H 2932   4.573   0.212   3.158  0.9970  1.1754  3.1423
   22MOL0     H 2933   4.621   0.061   3.077 -0.9232  0.1300 -0.6271
   22MOL0     H 2934   5.215   0.104   3.037  0.2743  0.3255  1.2487
   22MOL0     H 2935   5.395  -0.008   3.169  0.1498 -1.6236 -4.0578
   22MOL0     H 2936   5.488  -0.218   3.520 -0.6916  1.4041  1.3792
   22MOL0     H 2937   5.310  -0.193   3.558  1.3715  0.4059  1.1454
   22MOL0     H 2938   5.335  -0.430   3.516  0.8694 -0.3277  0.1840
   22MOL0     H 2939   5.262  -0.355   3.372 -1.3759 -0.9414  1.1031
   22MOL0     H 2940   5.437  -0.538   3.320  0.1504 -0.3874  1.3556
   22MOL0     H 2941   5.563  -0.422   3.361 -0.6539  3.5031  1.3211
   22MOL0     H 2942   5.346  -0.342   3.171 -0.4465  0.2426  1.2806
   22MOL0     H 2943   5.502  -0.265   3.201 -1.4456  0.5877  0.3712
   22MOL0     H 2944   5.447  -0.532   3.084  0.0353  0.0315  1.0935
   22MOL0     H 2945   5.605  -0.458   3.078  0.2168  1.9058  2.9440
   22MOL0     H 2946   5.354  -0.369   2.933  0.1099 -2.4578 -0.2382
   22MOL0     H 2947   5.491  -0.252   2.970 -2.9544  0.9159 -2.5320
   22MOL0     H 2948   5.516  -0.504   2.810  2.1620 -0.3721  1.1439
   22MOL0     H 2949   5.624  -0.364   2.819 -0.6143 -1.7623 -1.5008
   22MOL0     H 2950   5.506  -0.330   2.612  1.1827 -1.8052  0.7117
   22MOL0     H 2951   5.430  -0.222   2.734 -1.1853 -0.0368  0.3125
   22MOL0     H 2952   5.106  -0.145   3.447  0.5372 -2.5055 -2.1912
   22MOL0     H 2953   4.919  -0.051   3.298 -0.1376 -0.9147 -3.8540
   22MOL0     H 2954   4.962   0.297   2.774 -1.5143  1.5301 -3.4321
   22MOL0     H 2955   4.778   0.360   2.624 -0.4844 -2.4826 -2.1360
   22MOL0     H 2956   3.722   0.457   3.668  2.1019 -1.4029 -3.3557
   22MOL0     H 2957   3.694   0.426   3.919 -0.6161  0.0653 -0.4154
   22MOL0     H 2958   4.052   0.318   4.262  4.5985  0.0398  4.1309
   22MOL0     H 2959   4.065   0.320   4.500  0.1293 -0.7261 -1.8072
   22MOL0     H 2960   4.030   0.142   4.718 -2.5849 -0.7287  2.8758
   22MOL0     H 2961   4.061   0.310   4.703  0.9678  1.0694  3.9835
   22MOL0     H 2962   3.914   0.370   4.901  1.9700  1.0567  0.4880
   22MOL0     H 2963   4.065   0.291   4.935 -1.5185  0.2718  2.6391
   22MOL0     H 2964   3.956   0.071   4.928 -2.1113 -1.0418 -0.6804
   22MOL0     H 2965   3.801   0.145   4.887  1.1855 -0.2829 -0.0131
   22MOL0     H 2966   3.776   0.233   5.112  1.7466  4.0926 -0.2795
   22MOL0     H 2967   3.950   0.221   5.149 -3.6065  5.3113  2.4065
   22MOL0     H 2968   3.749  -0.125   5.300  1.2237 -1.3846 -1.6605
   22MOL0     H 2969   3.648   0.194   4.498  0.6634 -1.0343  1.0636
   22MOL0     H 2970   3.664   0.173   4.259  2.7493 -4.6332 -3.5900
   23MOL0     O 2971   8.580   8.215   7.200 -0.4317  0.2508  0.0494
   23MOL0     C 2972   8.476   8.194   7.260  0.2771  0.1787  0.2984
   23MOL0     O 2973   8.381   8.111   7.214  0.4561 -0.3456  0.3582
   23MOL0     C 2974   8.400   8.019   7.119  1.0838 -0.1471 -0.8204
   23MOL0     C 2975   8.416   8.056   6.982 -0.8601 -0.4001  0.6566
   23MOL0     C 2976   8.420   7.960   6.884 -0.3101 -0.5805 -0.6895
   23MOL0     C 2977   8.409   7.821   6.921 -0.4306  0.3050  0.5489
   23MOL0     O 2978   8.437   7.714   6.835  0.4091 -0.3047  0.1166
   23MOL0     C 2979   8.515   7.749   6.716 -0.5479  0.4558  0.5205
   23MOL0     C 2980   8.546   7.634   6.616 -0.1248  0.8714 -0.0185
   23MOL0     C 2981   8.634   7.517   6.648  0.4924 -0.1298 -1.9216
   23MOL0     C 2982   8.644   7.414   6.532 -0.4964  0.4494 -0.2216
   23MOL0     C 2983   8.729   7.300   6.555 -0.2847 -0.0895  0.4196
   23MOL0     C 2984   8.729   7.217   6.435 -0.1440  0.6948 -0.5963
   23MOL0     C 2985   8.802   7.090   6.441  1.1747 -0.9174 -0.6456
   23MOL0     C 2986   8.751   6.999   6.565 -0.2839  0.2489  0.8052
   23MOL0     N 2987   8.800   6.860   6.556  0.1548  0.2120  0.3928
   23MOL0     C 2988   8.721   6.752   6.506 -0.3710  1.4394  0.2895
   23MOL0     C 2989   8.818   6.656   6.471  1.0933  0.1744  1.1303
   23MOL0     C 2990   8.801   6.525   6.391  1.0092  0.1377  1.0845
   23MOL0     C 2991   8.709   6.419   6.462 -0.0766  0.3389  0.3975
   23MOL0     C 2992   8.683   6.276   6.400  0.0895 -1.1120  0.8551
   23MOL0     C 2993   8.639   6.287   6.257  0.1450 -0.1452 -0.5462
   23MOL0     O 2994   8.750   6.308   6.159 -0.5113  0.5113 -0.0995
   23MOL0     C 2995   8.717   6.289   6.029  0.1448  0.6106 -0.3232
   23MOL0     C 2996   8.809   6.338   5.937  0.5377  0.2053  0.6616
   23MOL0     C 2997   8.789   6.321   5.794 -0.0026 -0.7492 -0.0664
   23MOL0     C 2998   8.884   6.399   5.701  0.6984  0.3966 -0.1891
   23MOL0     C 2999   8.672   6.252   5.752 -0.4385 -0.4089  1.1377
   23MOL0     C 3000   8.629   6.235   5.606 -0.6746 -0.2127 -1.4619
   23MOL0     O 3001   8.656   6.340   5.526 -0.6207 -0.2675  0.1831
   23MOL0     C 3002   8.602   6.345   5.397 -0.4697 -0.8877  0.0821
   23MOL0     C 3003   8.588   6.232   5.309 -1.3061  0.3858 -0.8872
   23MOL0     C 3004   8.530   6.231   5.185  0.1187 -0.8125 -0.7009
   23MOL0     C 3005   8.504   6.356   5.136  0.1487 -1.0895  0.0814
   23MOL0     O 3006   8.440   6.362   5.013  0.5914  0.8639 -0.4035
   23MOL0     C 3007   8.511   6.307   4.900  0.2075  0.2086 -0.2181
   23MOL0     C 3008   8.578   6.422   4.826 -0.3245 -0.4898 -0.1440
   23MOL0     C 3009   8.683   6.372   4.733 -1.0068  0.1656 -0.0207
   23MOL0     C 3010   8.640   6.245   4.650 -0.4029  0.1261 -0.5221
   23MOL0     C 3011   8.750   6.176   4.565  0.5667  0.1987  0.7801
   23MOL0     C 3012   8.850   6.272   4.506  0.7219  0.1900 -0.2749
   23MOL0     C 3013   8.788   6.358   4.389 -0.7218  1.1891 -1.0932
   23MOL0     C 3014   8.885   6.461   4.329 -0.3331 -0.1483  1.1329
   23MOL0    Cl 3015   8.823   6.514   4.165 -0.0211  0.0421 -0.0911
   23MOL0     C 3016   8.520   6.477   5.208 -0.3033  0.3221 -0.2770
   23MOL0     C 3017   8.559   6.463   5.340 -0.3058 -0.6876  0.1319
   23MOL0     O 3018   8.570   6.131   5.581  0.1878  0.2308 -0.2169
   23MOL0     C 3019   8.587   6.205   5.847  0.2654 -0.3620 -0.4467
   23MOL0     C 3020   8.606   6.218   5.983 -0.6347 -0.8327 -0.0924
   23MOL0     N 3021   8.941   6.706   6.494  0.3782 -0.6007  0.8261
   23MOL0     N 3022   8.929   6.826   6.543  0.3634 -1.2786  0.5800
   23MOL0     C 3023   8.396   7.782   7.054 -0.4387 -0.5903 -0.4756
   23MOL0     C 3024   8.382   7.884   7.160 -0.1825  0.4849 -0.0871
   23MOL0     C 3025   8.443   8.276   7.378 -0.2253 -0.0940  0.7048
   23MOL0     C 3026   8.319   8.248   7.443  0.3943  0.2360 -1.2903
   23MOL0     C 3027   8.298   8.323   7.555  1.1016  1.4144  0.1319
   23MOL0     C 3028   8.378   8.428   7.603  0.6846 -0.2793 -0.1919
   23MOL0     O 3029   8.333   8.495   7.711 -0.4235 -0.0080 -0.0652
   23MOL0     C 3030   8.388   8.616   7.765  0.5594 -0.3964  0.6362
   23MOL0     C 3031   8.461   8.591   7.893  0.0947  0.3102  0.3926
   23MOL0     C 3032   8.546   8.463   7.883  0.4958 -0.4947 -0.1468
   23MOL0     C 3033   8.651   8.434   7.989 -0.0650 -1.3140  0.7007
   23MOL0     C 3034   8.770   8.505   7.938 -1.1075  0.2444 -1.3304
   23MOL0     C 3035   8.881   8.535   7.889  0.8719  0.1069 -0.1849
   23MOL0     C 3036   8.502   8.455   7.537  0.2986 -0.1736 -0.1076
   23MOL0     C 3037   8.530   8.379   7.420 -0.0906  0.1441  0.7078
   23MOL0     H 3038   8.426   8.160   6.953  0.9935 -1.1801 -1.9494
   23MOL0     H 3039   8.433   7.983   6.779  0.2889 -3.3805 -1.3164
   23MOL0     H 3040   8.456   7.821   6.659  0.5328  1.7113  0.9491
   23MOL0     H 3041   8.607   7.795   6.752  0.0332 -2.7592  3.7842
   23MOL0     H 3042   8.451   7.584   6.599 -0.9338  1.2825  2.7625
   23MOL0     H 3043   8.588   7.680   6.526  2.9459 -2.7203 -0.6627
   23MOL0     H 3044   8.732   7.558   6.674  0.1912 -0.2931 -0.4489
   23MOL0     H 3045   8.593   7.469   6.737  1.8465  1.9777 -0.0337
   23MOL0     H 3046   8.547   7.370   6.508 -0.3605  0.9642 -1.7948
   23MOL0     H 3047   8.680   7.466   6.443  1.9387 -3.3707 -1.6911
   23MOL0     H 3048   8.830   7.331   6.580 -0.0593 -0.4648 -0.0131
   23MOL0     H 3049   8.692   7.254   6.647  1.9877 -0.2373  1.3104
   23MOL0     H 3050   8.623   7.193   6.419  0.3446 -1.2416 -1.1437
   23MOL0     H 3051   8.780   7.271   6.355 -1.2066  0.0479 -1.7517
   23MOL0     H 3052   8.790   7.039   6.345 -1.8131  0.0904 -0.9016
   23MOL0     H 3053   8.909   7.114   6.447  1.0503 -0.2571 -1.0275
   23MOL0     H 3054   8.642   6.994   6.572 -0.2908  0.4590  0.8541
   23MOL0     H 3055   8.780   7.041   6.662 -3.1040  0.9268  1.4501
   23MOL0     H 3056   8.614   6.738   6.498 -0.0873 -0.3832 -0.9623
   23MOL0     H 3057   8.754   6.559   6.298  2.4411  1.7835  0.9084
   23MOL0     H 3058   8.902   6.491   6.365  3.0689  3.9722  3.0326
   23MOL0     H 3059   8.614   6.470   6.484  0.3698  0.8953  1.0883
   23MOL0     H 3060   8.747   6.395   6.562  0.1848  3.1771  1.0749
   23MOL0     H 3061   8.603   6.220   6.448 -0.9881  1.0531  1.6976
   23MOL0     H 3062   8.780   6.225   6.401  0.4615 -0.4942 -0.4569
   23MOL0     H 3063   8.578   6.377   6.246 -0.5929 -0.7327 -1.3911
   23MOL0     H 3064   8.593   6.190   6.236  1.6631 -0.1043 -5.1572
   23MOL0     H 3065   8.902   6.375   5.979  1.6775 -0.6404 -1.0188
   23MOL0     H 3066   8.844   6.499   5.683  0.7467  0.1301 -1.8824
   23MOL0     H 3067   8.980   6.417   5.751  0.0821  2.1513  0.4637
   23MOL0     H 3068   8.904   6.345   5.608  0.6030  1.5832 -0.9229
   23MOL0     H 3069   8.635   6.140   5.344 -3.4729 -0.0634  1.1033
   23MOL0     H 3070   8.518   6.128   5.152  1.9218 -2.7489  3.8594
   23MOL0     H 3071   8.595   6.247   4.937  0.6108 -0.5559 -2.2572
   23MOL0     H 3072   8.430   6.251   4.853  0.1741  1.6058 -1.9349
   23MOL0     H 3073   8.501   6.483   4.778 -1.1444 -0.1465  1.5330
   23MOL0     H 3074   8.631   6.490   4.893 -3.2038  2.9589 -1.0787
   23MOL0     H 3075   8.766   6.345   4.798 -0.6523 -0.7010 -0.8085
   23MOL0     H 3076   8.732   6.447   4.670  1.7231 -2.2956 -1.0823
   23MOL0     H 3077   8.599   6.165   4.713 -1.7091  2.5086  1.8688
   23MOL0     H 3078   8.560   6.265   4.578 -0.6304  0.6260 -0.1396
   23MOL0     H 3079   8.693   6.139   4.479  2.2756  1.6636 -1.0832
   23MOL0     H 3080   8.794   6.094   4.621 -0.0357 -0.3130  0.5175
   23MOL0     H 3081   8.889   6.342   4.581 -0.2982 -0.6221  1.0603
   23MOL0     H 3082   8.936   6.215   4.470 -0.6685  0.4858 -4.5713
   23MOL0     H 3083   8.693   6.405   4.415 -0.0799  2.8909 -1.7229
   23MOL0     H 3084   8.764   6.294   4.303 -2.9592  1.4620 -0.7389
   23MOL0     H 3085   8.986   6.424   4.307 -0.8864 -0.7680 -0.5332
   23MOL0     H 3086   8.895   6.540   4.404  0.8330 -0.6559  1.5421
   23MOL0     H 3087   8.494   6.571   5.160 -1.2124  1.1771  1.8025
   23MOL0     H 3088   8.549   6.558   5.392  1.5344  0.6619 -1.8448
   23MOL0     H 3089   8.506   6.146   5.808  0.8997 -3.0789  2.0029
   23MOL0     H 3090   8.534   6.173   6.051 -0.9142  0.3859  0.4452
   23MOL0     H 3091   8.415   7.679   7.084 -2.2106 -0.8167 -0.0424
   23MOL0     H 3092   8.385   7.856   7.265 -0.6154 -1.8418 -0.6509
   23MOL0     H 3093   8.247   8.173   7.413 -0.7167  1.4349 -1.7526
   23MOL0     H 3094   8.199   8.312   7.600  1.7471  0.9243  1.4995
   23MOL0     H 3095   8.438   8.666   7.681 -3.0259  2.1458 -0.2765
   23MOL0     H 3096   8.306   8.688   7.779  0.5347 -0.4929  0.9938
   23MOL0     H 3097   8.389   8.584   7.975 -0.9896 -0.9036 -0.6231
   23MOL0     H 3098   8.524   8.676   7.920  0.1056 -0.2989  2.4742
   23MOL0     H 3099   8.594   8.460   7.785  1.7818  0.0922  0.4426
   23MOL0     H 3100   8.478   8.380   7.905 -0.3552  0.2447  0.0602
   23MOL0     H 3101   8.685   8.331   8.004  0.6876 -1.3039 -0.7285
   23MOL0     H 3102   8.621   8.475   8.086 -0.1156 -3.8606  1.8243
   23MOL0     H 3103   8.967   8.564   7.832  1.5036  3.1832  2.0664
   23MOL0     H 3104   8.562   8.537   7.575 -0.8308  0.5842  0.1153
   23MOL0     H 3105   8.624   8.387   7.366 -0.3052 -6.5584 -1.5877
   24MOL0     O 3106   5.686   0.879   1.691 -0.2812  0.0950  0.0276
   24MOL0     C 3107   5.570   0.909   1.721  0.1889  0.1255  0.1279
   24MOL0     O 3108   5.484   0.976   1.633 -0.2771 -0.1782 -0.0656
   24MOL0     C 3109   5.510   1.020   1.504  0.8919 -0.5576  0.0264
   24MOL0     C 3110   5.405   1.013   1.415  0.1612  0.2106  0.3296
   24MOL0     C 3111   5.401   1.053   1.278  0.1252  0.1502  0.8540
   24MOL0     C 3112   5.527   1.096   1.234 -0.4221 -0.1701 -0.3293
   24MOL0     O 3113   5.553   1.121   1.099 -0.3799  0.1343 -0.5534
   24MOL0     C 3114   5.446   1.113   1.007  0.2847 -1.5113  0.8866
   24MOL0     C 3115   5.513   1.156   0.882 -0.1493  0.2317  0.1853
   24MOL0     C 3116   5.591   1.047   0.811 -0.2213  0.1442  0.3702
   24MOL0     C 3117   5.612   1.083   0.665 -0.7404 -0.0800 -0.8831
   24MOL0     C 3118   5.700   0.973   0.592 -0.2591  0.6765 -0.4888
   24MOL0     C 3119   5.717   0.992   0.442 -0.6778  0.5781 -0.0958
   24MOL0     C 3120   5.804   0.878   0.377 -0.6930 -0.6477 -0.7806
   24MOL0     C 3121   5.955   0.897   0.426  1.5393  0.4473 -0.3381
   24MOL0     N 3122   6.056   0.878   0.325  0.1474  0.3136 -0.0790
   24MOL0     C 3123   6.093   0.747   0.285  0.5616 -1.0932 -0.4723
   24MOL0     C 3124   6.217   0.776   0.220  0.9480  1.1615  0.7805
   24MOL0     C 3125   6.306   0.677   0.162 -0.4146 -1.0971  0.5298
   24MOL0     C 3126   6.237   0.569   0.074 -0.0528 -0.2974 -0.2777
   24MOL0     C 3127   6.330   0.449   0.060 -0.4845 -0.1698  0.8066
   24MOL0     C 3128   6.450   0.477  -0.032  0.1242  0.2067 -0.3252
   24MOL0     O 3129   6.524   0.365  -0.044  0.2318  0.5501  0.1223
   24MOL0     C 3130   6.630   0.376  -0.134  0.3519  0.0183  0.2527
   24MOL0     C 3131   6.708   0.259  -0.152  0.3185  0.2030 -1.1345
   24MOL0     C 3132   6.813   0.250  -0.242 -0.0700 -0.0926  1.0689
   24MOL0     C 3133   6.880   0.116  -0.266 -0.7334  0.1065 -0.0973
   24MOL0     C 3134   6.848   0.374  -0.308  0.3729 -0.5650  0.3241
   24MOL0     C 3135   6.976   0.402  -0.393 -0.2557  0.0345 -1.2482
   24MOL0     O 3136   7.034   0.522  -0.385  0.2627  1.2028  0.2031
   24MOL0     C 3137   7.156   0.551  -0.442 -0.0113  0.4980 -0.3498
   24MOL0     C 3138   7.252   0.615  -0.356  0.7661  0.5254  0.9243
   24MOL0     C 3139   7.369   0.653  -0.416 -1.1630  0.2564  0.8608
   24MOL0     C 3140   7.403   0.633  -0.551  0.2182  0.2954 -0.2518
   24MOL0     O 3141   7.522   0.675  -0.608  0.3454  0.2791 -0.9963
   24MOL0     C 3142   7.513   0.766  -0.722 -0.0534  0.3093 -0.5717
   24MOL0     C 3143   7.492   0.904  -0.675 -0.2219  0.9337  0.5927
   24MOL0     C 3144   7.418   0.975  -0.788  0.2768  0.6919  0.8980
   24MOL0     C 3145   7.424   1.127  -0.764  0.1666  0.6177  0.5728
   24MOL0     C 3146   7.385   1.197  -0.895  0.0913  0.1748  0.9305
   24MOL0     C 3147   7.360   1.348  -0.867 -0.5211 -0.0488 -0.1925
   24MOL0     C 3148   7.333   1.435  -0.989 -0.0162 -0.0055  0.9000
   24MOL0     C 3149   7.420   1.412  -1.123 -0.0409  0.0799  0.0084
   24MOL0    Cl 3150   7.589   1.395  -1.091 -0.1310  0.0340  0.2329
   24MOL0     C 3151   7.309   0.562  -0.630  0.5047 -1.1878 -0.7204
   24MOL0     C 3152   7.183   0.517  -0.577 -0.4596 -0.3206  0.4602
   24MOL0     O 3153   7.020   0.301  -0.441 -0.8476  0.7583 -0.1799
   24MOL0     C 3154   6.764   0.487  -0.292 -0.1994  0.1464 -0.3577
   24MOL0     C 3155   6.650   0.486  -0.208  0.6338  0.5219  0.9534
   24MOL0     N 3156   6.246   0.909   0.226  0.5185  0.0409  0.5414
   24MOL0     N 3157   6.143   0.972   0.279  0.2244  0.3229 -0.6702
   24MOL0     C 3158   5.640   1.119   1.320  0.1790 -1.0060 -0.1400
   24MOL0     C 3159   5.631   1.078   1.460  0.2838  0.5885  0.5060
   24MOL0     C 3160   5.515   0.881   1.860  0.6396  0.9623  0.4546
   24MOL0     C 3161   5.387   0.923   1.898  0.0831 -0.1040 -0.2710
   24MOL0     C 3162   5.341   0.901   2.027 -0.7704 -0.6673 -0.0599
   24MOL0     C 3163   5.422   0.841   2.123  0.3501  0.4960 -0.0135
   24MOL0     O 3164   5.388   0.816   2.254 -0.0020 -0.6400  0.1406
   24MOL0     C 3165   5.265   0.873   2.323 -0.9640  0.2271  0.3345
   24MOL0     C 3166   5.267   0.832   2.472 -0.5962 -0.0755  1.2184
   24MOL0     C 3167   5.136   0.839   2.547 -0.3729 -0.7025  0.4464
   24MOL0     C 3168   5.159   0.806   2.693 -0.1060 -0.0052  1.1066
   24MOL0     C 3169   5.050   0.716   2.739 -0.1981  0.0442 -0.2269
   24MOL0     C 3170   4.945   0.650   2.765 -0.2438  0.9754  0.4414
   24MOL0     C 3171   5.552   0.798   2.091 -0.7624 -0.8757  1.2222
   24MOL0     C 3172   5.593   0.814   1.957 -0.0842  0.4010 -0.0218
   24MOL0     H 3173   5.309   0.977   1.451 -0.5136  2.9416  1.4934
   24MOL0     H 3174   5.314   1.056   1.214  2.2459 -0.7282 -2.3383
   24MOL0     H 3175   5.382   1.026   0.992  1.6007 -2.3872  0.1846
   24MOL0     H 3176   5.381   1.197   1.035 -1.2445 -2.4417  0.2480
   24MOL0     H 3177   5.437   1.191   0.811 -2.2097  0.6598  2.4590
   24MOL0     H 3178   5.578   1.239   0.911 -0.9471  0.4124  1.5345
   24MOL0     H 3179   5.681   1.033   0.873 -1.9061 -3.3994  2.2819
   24MOL0     H 3180   5.536   0.954   0.824 -3.4132  1.4619 -2.2170
   24MOL0     H 3181   5.513   1.099   0.622 -1.2592  2.3654  1.0057
   24MOL0     H 3182   5.662   1.180   0.663 -0.0036 -0.4435 -0.8023
   24MOL0     H 3183   5.802   0.987   0.630  0.0528  0.4587 -1.2225
   24MOL0     H 3184   5.669   0.871   0.616 -4.9293  2.4279  2.2540
   24MOL0     H 3185   5.611   0.978   0.423 -0.9794  1.0316  1.1182
   24MOL0     H 3186   5.760   1.092   0.426  1.0179  0.3530  2.4445
   24MOL0     H 3187   5.777   0.783   0.423  0.1450 -0.6840 -0.3286
   24MOL0     H 3188   5.792   0.865   0.269 -1.5204 -1.5268 -0.5898
   24MOL0     H 3189   5.982   0.820   0.499  1.3095 -2.4215 -3.0205
   24MOL0     H 3190   5.978   0.998   0.459  0.6194  1.3667 -2.3551
   24MOL0     H 3191   6.059   0.650   0.321  6.7226 -3.1071  1.1047
   24MOL0     H 3192   6.366   0.735   0.092 -3.8652  3.4146  0.8393
   24MOL0     H 3193   6.361   0.627   0.243 -0.7888 -2.7029 -0.1670
   24MOL0     H 3194   6.206   0.605  -0.025 -0.2019  1.8998  0.5156
   24MOL0     H 3195   6.146   0.532   0.123  2.6668 -2.0207  4.0651
   24MOL0     H 3196   6.277   0.363   0.019  1.1514 -0.7390 -0.2055
   24MOL0     H 3197   6.359   0.424   0.162  1.0597  1.5238  0.8302
   24MOL0     H 3198   6.516   0.555   0.008  0.7691 -1.5236  2.1725
   24MOL0     H 3199   6.405   0.507  -0.127 -1.7011 -2.2463 -0.3204
   24MOL0     H 3200   6.687   0.170  -0.093  0.9068  1.7507  1.5802
   24MOL0     H 3201   6.835   0.043  -0.198 -1.4474 -0.0558 -0.7211
   24MOL0     H 3202   6.876   0.101  -0.374  0.8969 -0.7034 -0.0642
   24MOL0     H 3203   6.987   0.113  -0.244 -0.3993 -1.3459 -1.6896
   24MOL0     H 3204   7.213   0.629  -0.255 -1.9799  2.4731 -0.2901
   24MOL0     H 3205   7.448   0.714  -0.373 -2.8669  2.4533  1.0499
   24MOL0     H 3206   7.611   0.765  -0.771  1.4144 -1.0913  2.1425
   24MOL0     H 3207   7.438   0.747  -0.799 -1.3175 -3.0346  1.2727
   24MOL0     H 3208   7.415   0.904  -0.597 -2.4771  5.6164 -1.2190
   24MOL0     H 3209   7.587   0.940  -0.635  0.0356 -1.4672  2.4297
   24MOL0     H 3210   7.312   0.949  -0.795 -0.1611  2.6794 -1.9189
   24MOL0     H 3211   7.458   0.952  -0.887  1.3831 -3.5351  2.1085
   24MOL0     H 3212   7.351   1.144  -0.685  1.7284  1.3610  1.9339
   24MOL0     H 3213   7.521   1.164  -0.728 -1.1768  5.8675 -0.4132
   24MOL0     H 3214   7.292   1.152  -0.933 -0.1994  1.9982 -0.6775
   24MOL0     H 3215   7.469   1.189  -0.965  0.5695  0.0772  1.5121
   24MOL0     H 3216   7.272   1.369  -0.806 -0.2294  1.1697 -0.1718
   24MOL0     H 3217   7.454   1.388  -0.830 -0.3189  0.0177 -0.7622
   24MOL0     H 3218   7.351   1.538  -0.956  1.1972  0.2215 -0.3981
   24MOL0     H 3219   7.233   1.435  -1.035  1.6749  0.6861 -3.1873
   24MOL0     H 3220   7.409   1.500  -1.188 -2.2729  1.9574  2.6850
   24MOL0     H 3221   7.387   1.318  -1.167 -0.0441  0.5152 -0.9350
   24MOL0     H 3222   7.333   0.544  -0.734  0.0938  0.8394 -1.2010
   24MOL0     H 3223   7.122   0.455  -0.642  0.4901 -2.5050  1.5354
   24MOL0     H 3224   6.802   0.580  -0.333  4.0347 -1.8206 -1.4053
   24MOL0     H 3225   6.604   0.584  -0.196  1.7221  1.0355  1.0634
   24MOL0     H 3226   5.724   1.167   1.272 -0.7284 -0.6031 -1.3744
   24MOL0     H 3227   5.707   1.091   1.537 -0.0746  1.4319  0.7353
   24MOL0     H 3228   5.322   0.982   1.834  3.8983  5.2728  0.1630
   24MOL0     H 3229   5.239   0.931   2.045 -0.7494 -0.8755  0.4381
   24MOL0     H 3230   5.271   0.982   2.319  0.0351  0.1706  0.0941
   24MOL0     H 3231   5.174   0.829   2.279 -0.3208 -1.0686  0.2448
   24MOL0     H 3232   5.340   0.897   2.521 -1.1054  1.4078  0.0710
   24MOL0     H 3233   5.310   0.731   2.472  1.9421  0.8717 -0.9176
   24MOL0     H 3234   5.071   0.774   2.487 -2.3130  1.7939 -0.3699
   24MOL0     H 3235   5.094   0.940   2.537  3.6523  1.1002  0.0598
   24MOL0     H 3236   5.164   0.894   2.757 -2.5668 -0.7796  2.5058
   24MOL0     H 3237   5.252   0.750   2.705 -0.5456 -0.4391  2.7786
   24MOL0     H 3238   4.856   0.606   2.806  0.7332 -0.7065  0.8504
   24MOL0     H 3239   5.618   0.760   2.169 -0.7316  0.3960  1.8472
   24MOL0     H 3240   5.695   0.793   1.927 -0.4977  2.1871 -3.0427
   25MOL0     O 3241   7.730   9.377   9.793  0.9346 -0.3468 -0.6223
   25MOL0     C 3242   7.768   9.403   9.674 -0.3484  1.3677  0.0103
   25MOL0     O 3243   7.815   9.311   9.575 -1.0292 -0.1876 -0.6719
   25MOL0     C 3244   7.857   9.184   9.596 -0.0732  0.0742  0.8168
   25MOL0     C 3245   7.922   9.124   9.493 -1.0599  0.0019 -0.0731
   25MOL0     C 3246   7.952   8.983   9.506  0.7414 -0.0596  0.2391
   25MOL0     C 3247   7.929   8.910   9.616 -0.3393  0.5847 -0.7983
   25MOL0     O 3248   7.932   8.774   9.610 -0.3936  0.1688  0.0189
   25MOL0     C 3249   8.038   8.711   9.683  0.4573 -0.4902  0.2696
   25MOL0     C 3250   8.177   8.730   9.615  0.1138 -0.3179 -0.1919
   25MOL0     C 3251   8.257   8.598   9.623 -0.6235  0.2343 -0.3974
   25MOL0     C 3252   8.279   8.531   9.757  0.9872  0.4265  1.1123
   25MOL0     C 3253   8.359   8.407   9.746  0.2160  0.5519  0.7851
   25MOL0     C 3254   8.353   8.312   9.871  0.3054 -0.0293  0.0108
   25MOL0     C 3255   8.428   8.177   9.840 -0.1320 -0.5719 -0.1066
   25MOL0     C 3256   8.571   8.165   9.888  1.5193 -0.3326  0.4988
   25MOL0     N 3257   8.670   8.257   9.828 -0.2199  0.1721 -0.5544
   25MOL0     C 3258   8.701   8.263   9.689 -0.1192  0.6912 -0.5111
   25MOL0     C 3259   8.801   8.349   9.693 -0.5242  0.0196 -0.5017
   25MOL0     C 3260   8.881   8.416   9.590 -0.0181  0.2068  0.9204
   25MOL0     C 3261   8.817   8.537   9.514 -0.9211  0.1019 -1.1645
   25MOL0     C 3262   8.759   8.651   9.592  0.4338  0.5351 -0.9108
   25MOL0     C 3263   8.871   8.734   9.652 -0.6954 -0.6016 -0.0510
   25MOL0     O 3264   8.805   8.847   9.708  0.3873 -1.1961 -1.1585
   25MOL0     C 3265   8.755   8.949   9.622 -0.0871 -0.5983  0.5891
   25MOL0     C 3266   8.665   9.031   9.678 -0.6271  1.1584  1.0735
   25MOL0     C 3267   8.607   9.140   9.607 -0.9992  0.4918 -0.2579
   25MOL0     C 3268   8.511   9.222   9.686 -0.4518 -1.0083  0.1090
   25MOL0     C 3269   8.655   9.170   9.479  0.2940 -0.1049  0.3779
   25MOL0     C 3270   8.604   9.281   9.399  0.5187 -0.1741 -0.4131
   25MOL0     O 3271   8.613   9.266   9.262 -0.2790 -0.7516 -0.8994
   25MOL0     C 3272   8.597   9.386   9.192 -0.0306  0.0384 -1.1302
   25MOL0     C 3273   8.498   9.394   9.094 -0.3476  0.1266  0.2444
   25MOL0     C 3274   8.496   9.520   9.024  0.4393  0.2730  0.2329
   25MOL0     C 3275   8.591   9.615   9.032 -0.2941 -0.1189  0.9601
   25MOL0     O 3276   8.587   9.726   8.942 -0.0259  0.2963  0.1428
   25MOL0     C 3277   8.669   9.839   8.967 -0.7108  0.0571 -0.0750
   25MOL0     C 3278   8.803   9.820   8.908  0.1590 -0.1398  0.5097
   25MOL0     C 3279   8.909   9.924   8.945  0.8204  0.0149  0.6339
   25MOL0     C 3280   9.024   9.940   8.832  0.1326  0.3389  0.9945
   25MOL0     C 3281   9.129  10.044   8.862  0.6673  0.0216 -0.2023
   25MOL0     C 3282   9.070  10.192   8.843  0.3865  0.0646 -1.5603
   25MOL0     C 3283   9.183  10.296   8.863  0.0054 -1.3349  0.1573
   25MOL0     C 3284   9.123  10.437   8.871 -0.7286  0.5526 -0.6580
   25MOL0    Cl 3285   8.990  10.479   8.758 -0.4416  0.3826 -0.1467
   25MOL0     C 3286   8.683   9.599   9.129 -0.3506  0.1904  0.6238
   25MOL0     C 3287   8.691   9.489   9.212 -0.5633 -0.0111 -0.7037
   25MOL0     O 3288   8.566   9.379   9.467  0.3246  0.4214  0.4871
   25MOL0     C 3289   8.745   9.074   9.412  0.5535 -0.2719 -0.3315
   25MOL0     C 3290   8.801   8.977   9.493  0.7684  0.4747  0.3120
   25MOL0     N 3291   8.825   8.397   9.821  0.5705  0.5778 -0.2526
   25MOL0     N 3292   8.738   8.335   9.901 -0.1643  0.7767 -0.4644
   25MOL0     C 3293   7.870   8.976   9.725  0.3261  0.0881 -1.0113
   25MOL0     C 3294   7.832   9.108   9.715  1.2988 -1.0639  0.0753
   25MOL0     C 3295   7.763   9.542   9.620  0.3191 -0.1730 -0.2351
   25MOL0     C 3296   7.734   9.653   9.708  0.4378 -0.7049 -0.7193
   25MOL0     C 3297   7.722   9.784   9.657  0.5515 -0.2844 -0.1525
   25MOL0     C 3298   7.724   9.798   9.517  0.6139 -0.6181 -0.8293
   25MOL0     O 3299   7.694   9.906   9.436 -0.5717  0.6794  0.4394
   25MOL0     C 3300   7.637  10.016   9.485 -0.8383 -1.2246 -0.5953
   25MOL0     C 3301   7.623  10.131   9.379 -0.8131 -0.5571  1.9754
   25MOL0     C 3302   7.757  10.218   9.368 -0.4047  0.0717 -0.0574
   25MOL0     C 3303   7.880  10.132   9.341  0.0979  0.2687 -0.2415
   25MOL0     C 3304   7.880  10.071   9.210 -0.5118 -0.5354  0.4216
   25MOL0     C 3305   7.862  10.031   9.098  0.0758  0.3361  0.3112
   25MOL0     C 3306   7.749   9.690   9.438 -1.4802  0.3562  0.1208
   25MOL0     C 3307   7.762   9.565   9.484  0.0811  0.2721 -0.1891
   25MOL0     H 3308   7.944   9.170   9.397 -1.3088  1.5556  0.5872
   25MOL0     H 3309   7.991   8.928   9.420  0.5834 -1.6402  1.1351
   25MOL0     H 3310   8.034   8.748   9.786  1.6134  2.2188 -0.5545
   25MOL0     H 3311   8.022   8.603   9.685  0.8694 -0.5952 -1.1417
   25MOL0     H 3312   8.165   8.754   9.509  2.7974  0.8043 -0.3005
   25MOL0     H 3313   8.226   8.822   9.648 -3.6915  1.1065  2.2664
   25MOL0     H 3314   8.199   8.533   9.556 -1.2645  1.2207 -0.8228
   25MOL0     H 3315   8.356   8.606   9.578 -0.5836  0.8126 -0.2123
   25MOL0     H 3316   8.301   8.598   9.841  1.7934 -1.2506  2.3053
   25MOL0     H 3317   8.182   8.494   9.790  0.8265 -0.4123 -0.2724
   25MOL0     H 3318   8.330   8.345   9.660 -1.1033 -1.0214  2.2745
   25MOL0     H 3319   8.461   8.441   9.725 -0.5080  0.3018 -4.6850
   25MOL0     H 3320   8.408   8.364   9.951  0.3537 -0.0978  0.0220
   25MOL0     H 3321   8.254   8.287   9.909 -0.0267 -0.0168 -0.8310
   25MOL0     H 3322   8.383   8.100   9.905 -0.6323 -0.1695  0.0285
   25MOL0     H 3323   8.419   8.144   9.736  1.9699  1.7741 -1.1107
   25MOL0     H 3324   8.606   8.063   9.874  0.0742 -0.7676 -0.1642
   25MOL0     H 3325   8.580   8.171   9.997  0.7323  1.6363  0.5057
   25MOL0     H 3326   8.671   8.188   9.616 -0.6894  0.4192 -0.0030
   25MOL0     H 3327   8.964   8.447   9.654 -0.0517 -2.5516  2.4655
   25MOL0     H 3328   8.901   8.343   9.511  0.3504  0.1376  1.0778
   25MOL0     H 3329   8.735   8.500   9.452 -1.4194  4.0619 -3.1744
   25MOL0     H 3330   8.878   8.576   9.433 -0.6965  2.0090 -0.1337
   25MOL0     H 3331   8.689   8.612   9.666 -1.0763  0.3352 -2.4039
   25MOL0     H 3332   8.691   8.710   9.531 -0.7320 -0.3160 -0.4710
   25MOL0     H 3333   8.947   8.765   9.579  0.0875  0.3704  1.1273
   25MOL0     H 3334   8.925   8.677   9.728  1.2106  1.8543  0.5949
   25MOL0     H 3335   8.636   9.017   9.781 -0.0506 -1.5734  0.9371
   25MOL0     H 3336   8.485   9.171   9.779 -0.6845 -1.3337 -0.1327
   25MOL0     H 3337   8.566   9.307   9.728 -1.2258 -1.1386  1.4597
   25MOL0     H 3338   8.420   9.259   9.637  0.5429  0.3631 -0.7840
   25MOL0     H 3339   8.424   9.316   9.080  0.7579 -1.5358  2.7952
   25MOL0     H 3340   8.416   9.542   8.954  2.0769  1.8218 -1.2385
   25MOL0     H 3341   8.625   9.923   8.913 -0.3567 -1.1385 -2.3033
   25MOL0     H 3342   8.670   9.868   9.073 -0.2012 -2.4653  0.6780
   25MOL0     H 3343   8.838   9.719   8.933 -3.1271 -1.0874  1.8494
   25MOL0     H 3344   8.793   9.815   8.799  0.6797 -0.2099  0.4638
   25MOL0     H 3345   8.959   9.905   9.040  2.6138  1.8015  0.1142
   25MOL0     H 3346   8.851  10.017   8.949  1.8209  0.6571  0.4407
   25MOL0     H 3347   9.056   9.840   8.798  0.2616  1.2029 -1.6921
   25MOL0     H 3348   8.977   9.994   8.750  0.9693  0.1014  0.3472
   25MOL0     H 3349   9.215  10.033   8.795  0.9364 -0.8133  0.2708
   25MOL0     H 3350   9.163  10.037   8.966 -1.8689 -0.0660  0.6856
   25MOL0     H 3351   9.037  10.204   8.740 -0.4175  2.8750 -1.0655
   25MOL0     H 3352   9.000  10.219   8.923  0.5782 -1.5207 -0.8075
   25MOL0     H 3353   9.259  10.293   8.784  0.8295  1.6918  0.7383
   25MOL0     H 3354   9.241  10.269   8.952  1.0405  1.0904  0.2799
   25MOL0     H 3355   9.204  10.512   8.866 -0.3499  0.3280  1.2827
   25MOL0     H 3356   9.093  10.443   8.976 -0.4090  4.3910 -0.6218
   25MOL0     H 3357   8.736   9.691   9.150 -3.3321  2.0244  0.7031
   25MOL0     H 3358   8.765   9.467   9.288  0.1382 -1.7055 -1.8276
   25MOL0     H 3359   8.782   9.101   9.314 -2.4192  2.7313 -0.7860
   25MOL0     H 3360   8.877   8.915   9.446 -0.6614 -2.1756  1.2551
   25MOL0     H 3361   7.845   8.925   9.817 -1.8637  2.6807 -0.0106
   25MOL0     H 3362   7.771   9.164   9.785  0.5834 -2.0088  0.2359
   25MOL0     H 3363   7.709   9.644   9.813  0.1345  1.5337 -0.5643
   25MOL0     H 3364   7.679   9.862   9.720 -0.9392 -0.8377 -0.4454
   25MOL0     H 3365   7.532   9.991   9.505 -1.3097 -0.0641 -1.5019
   25MOL0     H 3366   7.695  10.049   9.571  0.2501 -0.9540 -1.4110
   25MOL0     H 3367   7.551  10.206   9.414 -3.4291 -0.3517 -2.9969
   25MOL0     H 3368   7.592  10.088   9.283  1.4677 -0.5951  1.1846
   25MOL0     H 3369   7.768  10.297   9.443  2.7301 -0.7141  0.4457
   25MOL0     H 3370   7.741  10.282   9.280 -1.2324  0.7754  0.5830
   25MOL0     H 3371   7.899  10.046   9.406  2.7032 -0.6088 -1.9959
   25MOL0     H 3372   7.970  10.190   9.363  1.3981 -2.4911  2.5398
   25MOL0     H 3373   7.838   9.985   9.004  0.9243 -2.4963  1.3754
   25MOL0     H 3374   7.799   9.708   9.343  2.7038  0.8627  2.1659
   25MOL0     H 3375   7.791   9.489   9.412 -0.5001  0.8198 -1.0127
   26MOL0     O 3376   0.446  10.232   9.353 -0.4070  0.1496 -0.2697
   26MOL0     C 3377   0.552  10.206   9.407 -0.2432  0.4386 -0.3926
   26MOL0     O 3378   0.634  10.298   9.466  0.8544  0.2677 -0.1128
   26MOL0     C 3379   0.601  10.430   9.506  0.1130 -0.5480 -0.2292
   26MOL0     C 3380   0.697  10.492   9.588 -0.1005 -0.5047  0.6938
   26MOL0     C 3381   0.679  10.620   9.614 -0.0198 -1.0054 -0.1799
   26MOL0     C 3382   0.570  10.696   9.575 -0.4949 -0.3844  0.0826
   26MOL0     O 3383   0.572  10.832   9.608 -0.2725 -0.7338 -0.3288
   26MOL0     C 3384   0.531  10.922   9.501 -0.5265 -0.6572 -0.1735
   26MOL0     C 3385   0.559  11.070   9.538  0.0228 -1.0933 -0.3344
   26MOL0     C 3386   0.720  11.104   9.539 -0.1855  0.0531  0.1626
   26MOL0     C 3387   0.767  11.127   9.396  0.1532 -1.5147 -0.2093
   26MOL0     C 3388   0.894  11.224   9.388 -0.5738 -0.9966  1.5320
   26MOL0     C 3389   0.926  11.272   9.239 -1.1241 -0.2543 -0.4422
   26MOL0     C 3390   1.051  11.355   9.219  0.6462 -0.1747 -0.7957
   26MOL0     C 3391   1.057  11.477   9.321 -1.2859 -0.2696 -0.0642
   26MOL0     N 3392   0.953  11.573   9.290 -0.3417  0.7661  0.0140
   26MOL0     C 3393   0.815  11.575   9.339 -0.8541 -0.5014 -0.1165
   26MOL0     C 3394   0.761  11.689   9.278 -0.2138  0.3879 -1.8765
   26MOL0     C 3395   0.618  11.738   9.314  0.5964  0.7716  0.1890
   26MOL0     C 3396   0.576  11.846   9.223  0.7024  0.9110 -0.1163
   26MOL0     C 3397   0.431  11.890   9.237 -0.1062  0.1589 -1.2496
   26MOL0     C 3398   0.400  11.977   9.355 -0.1353 -0.3496  0.3520
   26MOL0     O 3399   0.391  11.888   9.470 -0.3181  0.1282  0.3844
   26MOL0     C 3400   0.276  11.834   9.517  0.2104  0.0997  0.8887
   26MOL0     C 3401   0.149  11.859   9.457  0.9134  0.4301  0.1518
   26MOL0     C 3402   0.027  11.801   9.502 -0.4619 -0.6571 -0.2845
   26MOL0     C 3403  -0.100  11.816   9.415  0.3238 -0.1962 -0.1392
   26MOL0     C 3404   0.042  11.709   9.606  0.0845 -0.2544 -1.0441
   26MOL0     C 3405  -0.062  11.630   9.667 -1.1026 -0.1630 -0.0192
   26MOL0     O 3406  -0.189  11.680   9.638  0.0704 -1.1055 -1.3046
   26MOL0     C 3407  -0.305  11.601   9.658 -0.1354  0.9050 -0.0861
   26MOL0     C 3408  -0.418  11.645   9.735 -0.3395  0.3456 -0.6953
   26MOL0     C 3409  -0.528  11.560   9.771 -0.3619  0.8705  0.8003
   26MOL0     C 3410  -0.519  11.432   9.719  0.0304  1.3999  1.1521
   26MOL0     O 3411  -0.619  11.334   9.729  0.2332  0.3725  0.3146
   26MOL0     C 3412  -0.583  11.214   9.791  0.0083 -1.0529  0.4330
   26MOL0     C 3413  -0.710  11.151   9.843 -0.7798 -0.2314 -0.1816
   26MOL0     C 3414  -0.788  11.241   9.934 -0.4518  0.3081  0.3489
   26MOL0     C 3415  -0.901  11.166  10.004  0.2340  0.0066 -0.0715
   26MOL0     C 3416  -0.971  11.250  10.106 -0.5074  0.5232 -0.1848
   26MOL0     C 3417  -1.059  11.173  10.195  0.5486  0.7387 -0.3549
   26MOL0     C 3418  -1.155  11.256  10.288 -0.1107  1.2288  0.3761
   26MOL0     C 3419  -1.259  11.162  10.350 -0.0814 -0.2287  0.0853
   26MOL0    Cl 3420  -1.177  11.030  10.436  0.5878 -0.8152 -0.4687
   26MOL0     C 3421  -0.413  11.382   9.637  0.2085  0.3695 -0.9835
   26MOL0     C 3422  -0.303  11.462   9.619 -0.4954  0.2476  0.0396
   26MOL0     O 3423  -0.043  11.522   9.732  0.4184 -0.3253  0.0690
   26MOL0     C 3424   0.165  11.695   9.671  0.1875  0.4241 -0.3028
   26MOL0     C 3425   0.275  11.763   9.631  0.7006 -0.4369  0.0069
   26MOL0     N 3426   0.860  11.745   9.202 -0.2679 -1.1377  0.6142
   26MOL0     N 3427   0.970  11.676   9.208 -0.1041 -0.5309 -0.1990
   26MOL0     C 3428   0.472  10.629   9.498 -0.0257 -0.3160  0.4428
   26MOL0     C 3429   0.483  10.495   9.464 -0.3631 -0.3357  0.5489
   26MOL0     C 3430   0.618  10.077   9.385  0.0215 -0.3462  1.1397
   26MOL0     C 3431   0.752  10.049   9.437  0.9306 -0.2281  0.3498
   26MOL0     C 3432   0.814   9.927   9.407 -0.8265  1.0416  0.1041
   26MOL0     C 3433   0.749   9.825   9.340  0.1554 -0.4378  0.2034
   26MOL0     O 3434   0.821   9.711   9.335  0.1316 -0.1296 -0.3009
   26MOL0     C 3435   0.778   9.587   9.284 -0.2057 -0.2172 -0.5531
   26MOL0     C 3436   0.886   9.480   9.282 -0.6638 -0.4325  1.0082
   26MOL0     C 3437   0.823   9.338   9.255 -0.3644  0.1383  0.6099
   26MOL0     C 3438   0.933   9.226   9.265 -0.6255  0.2603 -0.0202
   26MOL0     C 3439   1.044   9.246   9.171 -0.1317 -0.1984  0.1606
   26MOL0     C 3440   1.139   9.258   9.088 -0.6243 -1.1419 -0.6040
   26MOL0     C 3441   0.618   9.843   9.297  0.2471 -0.3161  0.7153
   26MOL0     C 3442   0.559   9.968   9.317  0.3031  0.2218 -0.6639
   26MOL0     H 3443   0.789  10.437   9.605 -0.8130 -1.9785 -0.0222
   26MOL0     H 3444   0.771  10.665   9.652 -0.5076 -0.7011  0.6829
   26MOL0     H 3445   0.592  10.892   9.415  0.2371 -2.7435  1.0323
   26MOL0     H 3446   0.423  10.914   9.486 -0.5107 -2.3625  0.3854
   26MOL0     H 3447   0.502  11.132   9.467 -1.8417 -2.7339 -0.3647
   26MOL0     H 3448   0.516  11.095   9.635  2.5260 -0.0571  0.5946
   26MOL0     H 3449   0.741  11.186   9.609 -2.9996 -1.1262  2.6175
   26MOL0     H 3450   0.783  11.022   9.577 -0.0566 -0.5277 -1.2537
   26MOL0     H 3451   0.791  11.023   9.372  1.9106 -1.9931  3.0044
   26MOL0     H 3452   0.696  11.178   9.332  0.9010  2.1366  1.6225
   26MOL0     H 3453   0.872  11.317   9.441  1.2055  1.2227 -1.3472
   26MOL0     H 3454   0.973  11.166   9.436 -1.2805 -2.0985  1.4051
   26MOL0     H 3455   0.928  11.187   9.170 -2.7728 -1.1729  0.5772
   26MOL0     H 3456   0.841  11.333   9.207 -0.6386  0.3714 -0.5476
   26MOL0     H 3457   1.135  11.287   9.233  0.1395 -0.7217 -0.3365
   26MOL0     H 3458   1.058  11.398   9.119  3.6390  3.5645  0.7951
   26MOL0     H 3459   1.156  11.522   9.312 -0.5924 -1.4508  1.1364
   26MOL0     H 3460   1.054  11.452   9.428 -4.0127  1.7778  0.4395
   26MOL0     H 3461   0.753  11.524   9.411 -2.3482 -0.8655 -1.5901
   26MOL0     H 3462   0.566  11.641   9.315  3.5607 -0.9254  0.9948
   26MOL0     H 3463   0.603  11.778   9.415 -2.8530 -0.7138  0.4081
   26MOL0     H 3464   0.569  11.808   9.121 -2.2947  2.5101 -0.6252
   26MOL0     H 3465   0.659  11.916   9.235  2.7556 -1.3317 -0.3025
   26MOL0     H 3466   0.372  11.798   9.237 -0.5251  0.4178 -2.1715
   26MOL0     H 3467   0.392  11.938   9.147  0.1765  1.8643 -0.4978
   26MOL0     H 3468   0.313  12.043   9.353 -0.4139 -0.4546  3.6682
   26MOL0     H 3469   0.484  12.046   9.368 -0.6873  0.1382  1.4538
   26MOL0     H 3470   0.138  11.912   9.363 -0.0442 -3.3864 -2.0661
   26MOL0     H 3471  -0.171  11.886   9.460  2.3649  1.2189  1.0715
   26MOL0     H 3472  -0.082  11.859   9.316 -0.4706 -0.5205 -0.4313
   26MOL0     H 3473  -0.145  11.717   9.406 -3.2759  1.3951 -1.3004
   26MOL0     H 3474  -0.416  11.752   9.748 -3.3550  0.4500 -0.3204
   26MOL0     H 3475  -0.615  11.608   9.814  0.5229  1.1879  2.2825
   26MOL0     H 3476  -0.533  11.152   9.716  1.7468 -0.8630  1.3714
   26MOL0     H 3477  -0.510  11.226   9.872  1.3339  0.3696 -0.8922
   26MOL0     H 3478  -0.777  11.122   9.762  0.1548 -1.0901 -0.6601
   26MOL0     H 3479  -0.685  11.060   9.899 -2.2062 -0.2667  0.4470
   26MOL0     H 3480  -0.826  11.324   9.874 -3.3530 -0.9892  0.2127
   26MOL0     H 3481  -0.722  11.274  10.015 -0.1509 -2.3852  1.3093
   26MOL0     H 3482  -0.979  11.148   9.929  2.7649 -1.7894 -2.4512
   26MOL0     H 3483  -0.869  11.073  10.051 -0.7795 -0.1274  0.3793
   26MOL0     H 3484  -1.022  11.327  10.048 -0.9041 -0.0299 -0.5825
   26MOL0     H 3485  -0.900  11.306  10.168 -0.0755  0.5186 -0.6715
   26MOL0     H 3486  -1.125  11.121  10.125  1.5799 -0.9951 -0.0969
   26MOL0     H 3487  -1.006  11.103  10.259  1.5192 -2.2769 -4.0854
   26MOL0     H 3488  -1.208  11.331  10.228 -0.4176 -0.2522 -1.2572
   26MOL0     H 3489  -1.090  11.301  10.364 -0.8861  1.0450  1.1669
   26MOL0     H 3490  -1.311  11.104  10.273  2.7193 -2.0361 -0.6049
   26MOL0     H 3491  -1.321  11.220  10.419 -0.2370  2.2875 -1.9934
   26MOL0     H 3492  -0.408  11.284   9.592 -0.4247 -0.4357  0.6031
   26MOL0     H 3493  -0.227  11.444   9.544 -1.2805  1.8154 -1.2156
   26MOL0     H 3494   0.175  11.652   9.771 -4.6377 -2.1356 -0.6522
   26MOL0     H 3495   0.372  11.751   9.679 -0.1264 -1.6415  1.4831
   26MOL0     H 3496   0.381  10.682   9.471 -0.7497 -0.5711  2.2374
   26MOL0     H 3497   0.406  10.452   9.402  0.8339 -1.7507 -0.0306
   26MOL0     H 3498   0.806  10.118   9.501  1.7768 -1.7667  1.3599
   26MOL0     H 3499   0.909   9.904   9.453 -0.1987  2.3735 -0.4737
   26MOL0     H 3500   0.695   9.560   9.350 -0.8865  1.1931 -0.8014
   26MOL0     H 3501   0.743   9.602   9.182 -0.3539 -2.9282 -0.9705
   26MOL0     H 3502   0.939   9.478   9.378 -0.9175  2.3332  1.2921
   26MOL0     H 3503   0.954   9.518   9.206 -3.1358  3.2734  0.3907
   26MOL0     H 3504   0.781   9.333   9.154  1.2856 -2.3066 -0.0377
   26MOL0     H 3505   0.756   9.319   9.339  2.1577 -0.3826  2.6060
   26MOL0     H 3506   0.901   9.127   9.233 -4.1488  2.0660 -2.8045
   26MOL0     H 3507   0.968   9.215   9.368  0.3644  3.2606  0.0704
   26MOL0     H 3508   1.218   9.275   9.017 -0.7498 -2.3544 -1.0608
   26MOL0     H 3509   0.556   9.763   9.259 -1.2457  1.0970  0.0062
   26MOL0     H 3510   0.456   9.973   9.284  0.7719  5.3751 -2.1545
   27MOL0     O 3511   4.752   1.992   4.819  0.3313 -0.0253  0.3027
   27MOL0     C 3512   4.696   1.998   4.707  0.8119 -0.1691  0.1957
   27MOL0     O 3513   4.561   1.969   4.690  0.0058 -0.0714  0.1324
   27MOL0     C 3514   4.494   1.951   4.804 -0.0524  0.6088  0.1950
   27MOL0     C 3515   4.486   1.827   4.872 -0.4536 -0.7321 -0.2726
   27MOL0     C 3516   4.416   1.821   4.992 -0.4183 -0.5403 -0.8499
   27MOL0     C 3517   4.350   1.931   5.050  0.6758 -0.3824 -0.8599
   27MOL0     O 3518   4.264   1.912   5.157 -0.2492  0.3310  1.1337
   27MOL0     C 3519   4.248   1.770   5.197  1.3095  0.2678 -0.6063
   27MOL0     C 3520   4.150   1.776   5.319 -0.3669 -0.0982 -0.2349
   27MOL0     C 3521   4.047   1.655   5.311 -0.2231  0.4419  0.2590
   27MOL0     C 3522   3.929   1.654   5.401 -0.2890 -0.3680 -0.4041
   27MOL0     C 3523   3.819   1.559   5.364 -0.7567 -0.1952  0.1111
   27MOL0     C 3524   3.721   1.527   5.480 -0.1044  0.3038  0.4786
   27MOL0     C 3525   3.622   1.414   5.435 -0.0751 -0.2933  0.5787
   27MOL0     C 3526   3.527   1.465   5.318 -0.3301 -1.2695 -0.6900
   27MOL0     N 3527   3.385   1.441   5.361  0.1230  0.2377 -0.7225
   27MOL0     C 3528   3.307   1.329   5.332 -0.6441  0.2648  0.2521
   27MOL0     C 3529   3.192   1.345   5.399  0.2208  0.2982  0.6811
   27MOL0     C 3530   3.078   1.243   5.400  0.6461 -0.8505 -0.1489
   27MOL0     C 3531   2.976   1.276   5.514  0.4177 -0.2264  0.4823
   27MOL0     C 3532   2.842   1.219   5.483 -0.2836 -0.8934  0.3869
   27MOL0     C 3533   2.775   1.219   5.620 -0.1961  0.3859  0.0410
   27MOL0     O 3534   2.635   1.193   5.604 -0.2019  0.3203  1.1787
   27MOL0     C 3535   2.567   1.113   5.699 -0.1175 -0.6661 -0.0706
   27MOL0     C 3536   2.611   1.099   5.827  0.2155 -0.3511 -1.2411
   27MOL0     C 3537   2.536   1.024   5.918  0.6726  0.0731  0.1896
   27MOL0     C 3538   2.592   1.027   6.049  0.8956 -0.7228 -0.1081
   27MOL0     C 3539   2.427   0.942   5.879 -0.5960  0.2721  0.5596
   27MOL0     C 3540   2.351   0.860   5.968  0.0770  0.7320 -0.0106
   27MOL0     O 3541   2.367   0.858   6.109 -0.6614 -0.1942  0.6503
   27MOL0     C 3542   2.267   0.791   6.182 -0.1754 -0.4682 -0.0095
   27MOL0     C 3543   2.287   0.685   6.275  0.2600  1.0155 -0.2286
   27MOL0     C 3544   2.200   0.660   6.378  0.1554  0.9502 -0.2802
   27MOL0     C 3545   2.077   0.720   6.374 -0.4849 -1.3808  0.3365
   27MOL0     O 3546   1.965   0.683   6.443 -0.6841  0.0600  0.5597
   27MOL0     C 3547   1.989   0.609   6.567  0.3624 -0.3530 -0.8808
   27MOL0     C 3548   1.849   0.614   6.624 -0.7582  0.8939 -0.7575
   27MOL0     C 3549   1.784   0.478   6.582  1.2088 -0.4884  0.3241
   27MOL0     C 3550   1.643   0.476   6.648 -0.2812  0.2801 -0.0569
   27MOL0     C 3551   1.567   0.345   6.636 -0.5250  0.4474 -0.9703
   27MOL0     C 3552   1.439   0.329   6.726 -0.1907  0.6103 -0.0898
   27MOL0     C 3553   1.394   0.186   6.750 -0.4465  0.8966  0.0303
   27MOL0     C 3554   1.476   0.120   6.864 -0.3447  0.3138  0.6613
   27MOL0    Cl 3555   1.658   0.083   6.832 -0.2396 -0.1859  0.5514
   27MOL0     C 3556   2.050   0.818   6.279  0.3475  0.3788 -0.3797
   27MOL0     C 3557   2.142   0.857   6.182 -0.7390 -0.1114  0.1458
   27MOL0     O 3558   2.264   0.797   5.912  0.8199 -0.8086  1.2717
   27MOL0     C 3559   2.374   0.970   5.752 -0.1556 -0.0346 -0.6326
   27MOL0     C 3560   2.447   1.052   5.669 -0.2993  0.4007  0.5513
   27MOL0     N 3561   3.199   1.459   5.480 -0.2022  0.4817 -0.3316
   27MOL0     N 3562   3.316   1.509   5.449  0.4596 -0.5401 -0.5336
   27MOL0     C 3563   4.354   2.057   4.981  0.2427 -0.2306 -0.3725
   27MOL0     C 3564   4.424   2.060   4.856  0.2842 -0.4033 -0.1046
   27MOL0     C 3565   4.782   2.019   4.586  0.4794  0.2377  1.4522
   27MOL0     C 3566   4.918   1.985   4.594 -0.5666  0.1531  0.4150
   27MOL0     C 3567   4.995   2.002   4.479 -0.3276  0.5224 -0.1724
   27MOL0     C 3568   4.942   2.037   4.356  0.7830 -0.0204  0.2844
   27MOL0     O 3569   5.032   2.047   4.253 -0.4440  0.1040 -0.1325
   27MOL0     C 3570   4.976   2.062   4.123  0.2194  0.2655 -0.0523
   27MOL0     C 3571   4.906   1.933   4.087 -0.3658 -0.8125  0.7637
   27MOL0     C 3572   4.885   1.941   3.931  0.1709 -0.1384 -0.9810
   27MOL0     C 3573   5.011   1.881   3.862  1.0397 -0.2495  0.5977
   27MOL0     C 3574   5.009   1.734   3.869 -0.0543  0.5338 -0.6010
   27MOL0     C 3575   4.992   1.609   3.869 -0.4702  0.1276  0.0237
   27MOL0     C 3576   4.808   2.061   4.347  0.5456  0.0333 -0.6642
   27MOL0     C 3577   4.727   2.041   4.459 -0.3419  1.2118 -0.4128
   27MOL0     H 3578   4.545   1.749   4.825  2.2313  1.1192 -0.2033
   27MOL0     H 3579   4.428   1.721   5.033 -2.2767 -1.1828 -1.7429
   27MOL0     H 3580   4.188   1.711   5.127 -1.4560 -0.3798  2.1421
   27MOL0     H 3581   4.337   1.719   5.235  1.5035  1.9612  1.3584
   27MOL0     H 3582   4.208   1.778   5.412  0.2818  1.5836 -0.6521
   27MOL0     H 3583   4.098   1.872   5.316  1.2301  0.8828  1.4027
   27MOL0     H 3584   4.013   1.643   5.207  2.8322 -1.2956 -0.6769
   27MOL0     H 3585   4.106   1.567   5.340 -1.6418 -0.6113  0.0349
   27MOL0     H 3586   3.961   1.613   5.497 -1.7821  0.1144  0.3487
   27MOL0     H 3587   3.897   1.759   5.407 -1.4538 -0.6845 -0.7107
   27MOL0     H 3588   3.760   1.599   5.280 -0.4572  1.9486  0.8707
   27MOL0     H 3589   3.865   1.466   5.329 -0.7484  0.3193 -1.3187
   27MOL0     H 3590   3.785   1.490   5.561  1.9200  2.0639 -0.2469
   27MOL0     H 3591   3.663   1.616   5.506  2.3824  2.1728 -0.0320
   27MOL0     H 3592   3.679   1.327   5.401 -1.3565 -0.4914 -1.2305
   27MOL0     H 3593   3.558   1.375   5.515 -0.2138 -0.1648  0.5302
   27MOL0     H 3594   3.549   1.412   5.225 -1.1528 -1.0372 -1.0252
   27MOL0     H 3595   3.541   1.573   5.305 -1.6110 -1.0663 -0.5064
   27MOL0     H 3596   3.336   1.253   5.260  2.8531  1.9248 -0.3091
   27MOL0     H 3597   3.024   1.237   5.305  1.0548 -1.1072 -0.3696
   27MOL0     H 3598   3.117   1.146   5.435 -0.8259 -0.7341  2.0100
   27MOL0     H 3599   2.956   1.383   5.497 -0.1583 -0.8349 -3.6967
   27MOL0     H 3600   3.016   1.268   5.615 -0.7847  2.9159  1.3125
   27MOL0     H 3601   2.851   1.123   5.433 -3.2624  0.4320 -3.1018
   27MOL0     H 3602   2.792   1.262   5.396  3.0302  0.8550 -0.8540
   27MOL0     H 3603   2.783   1.313   5.675 -1.1089 -0.4786  1.7658
   27MOL0     H 3604   2.817   1.141   5.686 -2.2337  1.1153  2.3528
   27MOL0     H 3605   2.697   1.151   5.868 -0.8324  0.1876  0.3634
   27MOL0     H 3606   2.516   1.082   6.105 -0.8454 -2.4806 -0.6279
   27MOL0     H 3607   2.606   0.927   6.091  1.1021 -0.7030 -0.1282
   27MOL0     H 3608   2.683   1.084   6.066  0.1874  0.3071  0.3481
   27MOL0     H 3609   2.383   0.637   6.289  0.0599  1.2586  2.5046
   27MOL0     H 3610   2.216   0.592   6.461 -0.0917 -0.6396 -1.4643
   27MOL0     H 3611   2.011   0.507   6.536 -3.4472 -1.1543 -1.4825
   27MOL0     H 3612   2.057   0.656   6.638 -2.3630  0.1584  1.5956
   27MOL0     H 3613   1.854   0.612   6.733  0.3403 -0.1355 -0.8012
   27MOL0     H 3614   1.785   0.694   6.587  0.2467  1.7749 -0.6227
   27MOL0     H 3615   1.835   0.390   6.620 -0.3451 -1.9191 -0.7406
   27MOL0     H 3616   1.776   0.459   6.474 -3.2298  0.9279  0.2024
   27MOL0     H 3617   1.658   0.468   6.756 -1.1747 -5.8615 -0.0277
   27MOL0     H 3618   1.583   0.564   6.624 -0.3374  0.6623  1.3860
   27MOL0     H 3619   1.634   0.271   6.681 -1.7939  1.0857  2.2002
   27MOL0     H 3620   1.551   0.308   6.534 -0.8259  1.1115 -1.1686
   27MOL0     H 3621   1.455   0.380   6.821  3.3387  0.4323 -0.4577
   27MOL0     H 3622   1.360   0.385   6.674 -2.2342 -0.8962  1.2527
   27MOL0     H 3623   1.403   0.126   6.659 -0.5956 -0.8957  1.1433
   27MOL0     H 3624   1.286   0.192   6.767 -1.6648  0.2597 -5.4954
   27MOL0     H 3625   1.428   0.023   6.877  2.6274 -1.0853  2.4042
   27MOL0     H 3626   1.456   0.169   6.960 -1.9928  0.2458  0.3747
   27MOL0     H 3627   1.951   0.860   6.288  0.5296  0.3543  3.7134
   27MOL0     H 3628   2.130   0.937   6.110 -3.8682 -0.8195 -0.2624
   27MOL0     H 3629   2.279   0.930   5.718 -0.8346  0.4844  0.5687
   27MOL0     H 3630   2.406   1.082   5.573  0.1607  0.6071  0.4160
   27MOL0     H 3631   4.295   2.143   5.012  1.0353 -0.0661  0.7272
   27MOL0     H 3632   4.422   2.149   4.793 -0.2619  0.2274  0.7620
   27MOL0     H 3633   4.964   1.972   4.692 -0.8386  2.5579  0.9131
   27MOL0     H 3634   5.101   1.980   4.486 -0.1776  0.7931 -1.3984
   27MOL0     H 3635   4.903   2.142   4.116 -0.9098 -0.6213  1.1129
   27MOL0     H 3636   5.050   2.082   4.045  1.8659 -1.7102  0.8967
   27MOL0     H 3637   4.802   1.936   4.119 -0.8265 -1.4595 -0.6112
   27MOL0     H 3638   4.945   1.838   4.126  0.3071 -0.2131  1.5913
   27MOL0     H 3639   4.862   2.045   3.904 -3.2070 -1.0436 -2.1854
   27MOL0     H 3640   4.798   1.882   3.898  0.1089  0.2353 -1.4981
   27MOL0     H 3641   5.106   1.916   3.902  1.2837  0.9734 -0.9275
   27MOL0     H 3642   5.016   1.909   3.756  2.0436 -0.1656  0.6623
   27MOL0     H 3643   4.965   1.505   3.869  1.1789 -0.3202 -0.3544
   27MOL0     H 3644   4.757   2.086   4.255  1.9271 -1.8233 -2.0003
   27MOL0     H 3645   4.618   2.044   4.455 -0.4847 -1.3041 -0.1736
   28MOL0     O 3646  11.347   2.063   5.488 -0.5884 -0.0770  0.2444
   28MOL0     C 3647  11.270   1.990   5.426 -0.2058 -0.0583  0.3678
   28MOL0     O 3648  11.137   2.011   5.433 -0.0428  0.5516  0.2477
   28MOL0     C 3649  11.075   2.113   5.496  0.3710  0.4844 -0.3345
   28MOL0     C 3650  10.954   2.090   5.561  0.7071  0.3172 -0.5635
   28MOL0     C 3651  10.882   2.188   5.636 -0.3668 -1.4510 -0.3368
   28MOL0     C 3652  10.934   2.317   5.628 -0.6581  0.3089  0.3548
   28MOL0     O 3653  10.852   2.416   5.680 -0.5709  0.2706 -0.4709
   28MOL0     C 3654  10.895   2.559   5.666  0.6930  0.0539 -1.2217
   28MOL0     C 3655  10.783   2.643   5.727 -0.6248  0.0541  0.0007
   28MOL0     C 3656  10.777   2.611   5.873  0.7124 -0.3509 -0.3670
   28MOL0     C 3657  10.667   2.705   5.937  0.3868  0.2596  0.4932
   28MOL0     C 3658  10.645   2.690   6.092  0.0343 -0.5837 -0.2556
   28MOL0     C 3659  10.558   2.814   6.138 -0.0348  0.2846 -0.0575
   28MOL0     C 3660  10.571   2.829   6.294  0.0397 -0.7905  0.1041
   28MOL0     C 3661  10.497   2.719   6.379  0.6917 -0.1978  0.5121
   28MOL0     N 3662  10.499   2.754   6.527 -0.5967 -0.7558 -0.3779
   28MOL0     C 3663  10.387   2.768   6.599  0.2703  0.1474 -0.4747
   28MOL0     C 3664  10.410   2.775   6.726 -0.3608  0.0396 -0.6438
   28MOL0     C 3665  10.294   2.776   6.820 -0.1191  0.2623 -0.5393
   28MOL0     C 3666  10.338   2.895   6.907  0.0507 -0.4884  1.1478
   28MOL0     C 3667  10.266   2.905   7.036  0.4282 -0.2780 -0.7272
   28MOL0     C 3668  10.117   2.896   7.017 -0.4566  0.8632 -0.1029
   28MOL0     O 3669  10.044   2.907   7.138 -0.2616 -0.5672  0.2441
   28MOL0     C 3670  10.017   2.787   7.207  0.4798 -0.2385  0.1370
   28MOL0     C 3671   9.910   2.787   7.308  0.2027  0.1310  0.5466
   28MOL0     C 3672   9.893   2.672   7.383  0.3401 -0.0312 -0.8040
   28MOL0     C 3673   9.777   2.692   7.491 -0.4421  0.3386  0.1949
   28MOL0     C 3674   9.971   2.553   7.364  0.1397  0.4391  0.6946
   28MOL0     C 3675   9.947   2.424   7.439 -0.2838 -0.6981  0.3199
   28MOL0     O 3676  10.037   2.314   7.424  0.0658 -0.3103  0.4784
   28MOL0     C 3677  10.028   2.203   7.501  0.2147  0.5328  0.1449
   28MOL0     C 3678  10.003   2.202   7.636  0.5454 -0.4634 -0.5117
   28MOL0     C 3679   9.991   2.083   7.697 -0.0269 -0.4956 -0.5252
   28MOL0     C 3680  10.010   1.958   7.644  0.5588 -0.0127  0.7376
   28MOL0     O 3681  10.034   1.844   7.711 -0.5274 -0.0264  0.3944
   28MOL0     C 3682  10.137   1.840   7.811  0.5128 -0.5705 -0.4179
   28MOL0     C 3683  10.089   1.751   7.932  0.3775  0.1964  0.6362
   28MOL0     C 3684   9.994   1.808   8.047 -0.4612  0.1425  0.4099
   28MOL0     C 3685   9.950   1.704   8.153  0.4004  0.4315  0.1948
   28MOL0     C 3686   9.852   1.760   8.251  0.8364  0.2288 -1.0257
   28MOL0     C 3687   9.704   1.741   8.198 -0.0611  0.3728 -0.2701
   28MOL0     C 3688   9.590   1.758   8.311 -0.3564  1.2607 -0.6071
   28MOL0     C 3689   9.591   1.906   8.352 -0.5870 -0.0539  1.1441
   28MOL0    Cl 3690   9.480   1.927   8.504 -0.2441 -0.2874  0.0357
   28MOL0     C 3691  10.021   1.955   7.507 -0.2128 -0.3417  0.6177
   28MOL0     C 3692  10.030   2.084   7.440  0.7898  1.1990 -0.3811
   28MOL0     O 3693   9.868   2.430   7.531  1.0254 -0.2586  0.1118
   28MOL0     C 3694  10.062   2.552   7.261  0.7046 -0.4793  0.4617
   28MOL0     C 3695  10.086   2.665   7.190 -0.5853  0.3315  0.2217
   28MOL0     N 3696  10.544   2.748   6.744 -0.4581 -0.1096  0.1373
   28MOL0     N 3697  10.594   2.746   6.626  1.1277 -0.3776 -0.1638
   28MOL0     C 3698  11.062   2.349   5.566  0.2089  0.4519  0.9561
   28MOL0     C 3699  11.128   2.246   5.492  0.8143  0.1959  0.6755
   28MOL0     C 3700  11.325   1.878   5.353  0.9473  0.8220  0.4782
   28MOL0     C 3701  11.243   1.794   5.268  0.5248 -0.2612  0.1893
   28MOL0     C 3702  11.304   1.705   5.184  0.0106  0.2832  0.0507
   28MOL0     C 3703  11.439   1.664   5.202 -0.4869  0.1439 -1.1393
   28MOL0     O 3704  11.499   1.577   5.119 -0.4589  0.1888 -0.1443
   28MOL0     C 3705  11.425   1.466   5.059 -1.2059  0.5140 -0.1081
   28MOL0     C 3706  11.406   1.356   5.167 -0.2427  0.3160  0.0427
   28MOL0     C 3707  11.347   1.230   5.112 -0.1024  0.3604 -0.1385
   28MOL0     C 3708  11.193   1.213   5.098  0.2923 -0.2679 -0.0758
   28MOL0     C 3709  11.138   1.311   5.004  0.2398  0.2248  0.7003
   28MOL0     C 3710  11.068   1.396   4.956 -0.0555 -0.4415  0.0090
   28MOL0     C 3711  11.515   1.732   5.294 -0.5483 -0.2532 -0.2718
   28MOL0     C 3712  11.454   1.835   5.372  0.1720  0.7425  0.9487
   28MOL0     H 3713  10.911   1.990   5.565 -0.2058  0.6637 -1.2769
   28MOL0     H 3714  10.783   2.170   5.677  0.3534 -1.5146  1.4734
   28MOL0     H 3715  10.986   2.581   5.723 -0.8734 -0.2364  1.5558
   28MOL0     H 3716  10.914   2.585   5.561 -0.6418  0.1186 -1.4595
   28MOL0     H 3717  10.807   2.750   5.718  1.4317 -0.3711 -0.2250
   28MOL0     H 3718  10.689   2.609   5.683 -0.2746 -2.6669  1.1358
   28MOL0     H 3719  10.739   2.510   5.888 -0.3606 -0.2030 -1.9102
   28MOL0     H 3720  10.871   2.634   5.924 -0.1519  4.3343 -0.4804
   28MOL0     H 3721  10.686   2.810   5.913  0.9845  0.1100  0.2838
   28MOL0     H 3722  10.575   2.681   5.884  0.8891  1.3690 -0.9344
   28MOL0     H 3723  10.609   2.593   6.127  0.6687 -0.8031 -0.1997
   28MOL0     H 3724  10.737   2.700   6.151 -1.5275  2.7669  1.9312
   28MOL0     H 3725  10.592   2.907   6.092 -1.3764  0.0878 -1.5400
   28MOL0     H 3726  10.454   2.804   6.104  0.9207 -0.6182 -2.9242
   28MOL0     H 3727  10.676   2.808   6.316 -0.2428 -1.8446  0.5332
   28MOL0     H 3728  10.560   2.935   6.319  2.1564 -0.8449  1.5623
   28MOL0     H 3729  10.547   2.624   6.359  2.0467  0.3548  1.1203
   28MOL0     H 3730  10.394   2.715   6.342 -0.6304 -1.4592  3.9580
   28MOL0     H 3731  10.290   2.777   6.551  0.1053 -2.4159 -0.7707
   28MOL0     H 3732  10.195   2.790   6.775 -2.1092  0.6575  3.4844
   28MOL0     H 3733  10.291   2.684   6.879  3.2834  0.0662 -0.4465
   28MOL0     H 3734  10.323   2.973   6.832 -0.4214 -2.5260 -1.0071
   28MOL0     H 3735  10.445   2.917   6.919  0.7849 -0.9086 -2.9990
   28MOL0     H 3736  10.286   2.997   7.090  0.8816 -1.9129  2.0755
   28MOL0     H 3737  10.295   2.826   7.106 -1.6839  0.5750  1.2417
   28MOL0     H 3738  10.089   2.805   6.963  0.9833 -0.4546  1.2609
   28MOL0     H 3739  10.098   2.981   6.950 -2.0522 -0.7042 -1.7226
   28MOL0     H 3740   9.851   2.874   7.332 -0.5374 -0.4114  0.7185
   28MOL0     H 3741   9.709   2.772   7.461 -1.2166 -0.4021 -0.0379
   28MOL0     H 3742   9.716   2.602   7.498  3.1829 -2.3137  0.4994
   28MOL0     H 3743   9.812   2.728   7.588 -1.5885  2.8133 -0.2382
   28MOL0     H 3744   9.967   2.289   7.691 -0.8274 -0.0965 -1.9084
   28MOL0     H 3745   9.979   2.076   7.804  1.2862 -3.2801 -0.4517
   28MOL0     H 3746  10.228   1.796   7.771  1.0286  0.9614 -0.9847
   28MOL0     H 3747  10.162   1.937   7.855 -2.2458  0.6190 -1.2812
   28MOL0     H 3748  10.052   1.657   7.891 -0.5037  0.9992 -0.5090
   28MOL0     H 3749  10.177   1.708   7.980 -0.8377 -2.6558  0.4724
   28MOL0     H 3750   9.898   1.840   8.004 -0.1049  0.0566 -0.4726
   28MOL0     H 3751  10.047   1.884   8.104  1.5185 -2.3381  2.1108
   28MOL0     H 3752   9.910   1.618   8.098 -1.2920  1.2218  0.1373
   28MOL0     H 3753  10.038   1.670   8.208  0.9887 -0.7732 -1.4208
   28MOL0     H 3754   9.886   1.859   8.283  1.0335 -0.2578  0.3714
   28MOL0     H 3755   9.859   1.711   8.349 -1.1621 -2.7165 -2.2322
   28MOL0     H 3756   9.674   1.807   8.116 -0.4072 -1.7654 -1.9562
   28MOL0     H 3757   9.709   1.636   8.168 -0.6899  0.6774 -1.4988
   28MOL0     H 3758   9.602   1.696   8.400 -0.3371  3.3181  0.8843
   28MOL0     H 3759   9.501   1.718   8.262  1.3271 -3.3370 -0.4353
   28MOL0     H 3760   9.549   1.966   8.271 -3.4467 -0.7858  1.9948
   28MOL0     H 3761   9.697   1.928   8.371 -0.3992 -0.2928  0.4168
   28MOL0     H 3762  10.043   1.857   7.465  5.8540 -0.3892  2.8779
   28MOL0     H 3763  10.049   2.080   7.333 -3.9400 -0.9298 -1.4196
   28MOL0     H 3764  10.118   2.463   7.233  0.5933 -0.5153  0.3497
   28MOL0     H 3765  10.161   2.656   7.112 -2.2010  3.1577 -1.8263
   28MOL0     H 3766  11.110   2.446   5.554  0.3674  0.1439 -1.3705
   28MOL0     H 3767  11.213   2.260   5.426 -0.1150 -1.8042 -1.0554
   28MOL0     H 3768  11.136   1.807   5.253  0.2294 -2.6893 -0.2213
   28MOL0     H 3769  11.247   1.654   5.107  2.1766  0.2253 -1.6123
   28MOL0     H 3770  11.330   1.494   5.014 -1.1084  0.8228 -0.1256
   28MOL0     H 3771  11.472   1.421   4.972 -1.6387  0.1645 -0.1608
   28MOL0     H 3772  11.341   1.383   5.251 -0.1514 -1.4539  0.7236
   28MOL0     H 3773  11.508   1.343   5.205 -1.6231  2.0883  5.1967
   28MOL0     H 3774  11.372   1.149   5.181  0.4177 -0.2429 -1.0226
   28MOL0     H 3775  11.392   1.204   5.016  0.8600 -1.1265  0.6699
   28MOL0     H 3776  11.152   1.223   5.199 -1.7928  1.7963 -1.0520
   28MOL0     H 3777  11.173   1.110   5.064  1.2302  0.0880 -1.8142
   28MOL0     H 3778  11.007   1.477   4.920 -2.7220 -2.4662 -0.3680
   28MOL0     H 3779  11.622   1.717   5.305 -0.3508  1.2885  0.0495
   28MOL0     H 3780  11.517   1.890   5.441 -0.0919  0.6514  1.2660
   29MOL0     O 3781   5.878   0.965   9.127  0.3277  0.5552 -0.0129
   29MOL0     C 3782   5.870   0.897   9.028  0.5038 -0.2992 -0.1119
   29MOL0     O 3783   5.974   0.837   8.963  0.0742  0.8636 -0.2148
   29MOL0     C 3784   6.096   0.869   9.020 -0.7999  0.3691  1.1954
   29MOL0     C 3785   6.119   0.817   9.143  0.2833  0.2841  0.4629
   29MOL0     C 3786   6.238   0.836   9.207 -0.7052 -0.6460  0.9272
   29MOL0     C 3787   6.336   0.914   9.149 -0.1982  0.3955 -0.2958
   29MOL0     O 3788   6.451   0.952   9.201  0.0442 -0.5203 -0.1032
   29MOL0     C 3789   6.529   0.840   9.247  0.3003 -0.3220 -0.8594
   29MOL0     C 3790   6.685   0.871   9.254  0.0841 -0.6236 -0.5635
   29MOL0     C 3791   6.723   0.975   9.364  0.3776 -0.0711 -0.1464
   29MOL0     C 3792   6.869   0.970   9.404  0.2960  0.3333  0.9129
   29MOL0     C 3793   6.912   1.088   9.484 -0.4344 -0.5596  0.0192
   29MOL0     C 3794   7.065   1.079   9.529 -0.0792  0.0144  0.0737
   29MOL0     C 3795   7.104   1.204   9.611 -0.1380 -0.7334  1.2332
   29MOL0     C 3796   7.022   1.237   9.740 -0.9939 -0.1920  0.4301
   29MOL0     N 3797   7.095   1.334   9.815 -0.4855  0.2536 -0.2716
   29MOL0     C 3798   7.117   1.467   9.777 -0.3579  0.0453  0.8255
   29MOL0     C 3799   7.231   1.501   9.830 -1.0377 -0.6281 -0.4774
   29MOL0     C 3800   7.293   1.637   9.832 -0.3504  0.1400 -0.5073
   29MOL0     C 3801   7.199   1.755   9.798 -0.9474  1.1592 -0.5114
   29MOL0     C 3802   7.308   1.862   9.781  1.0696  0.0775 -0.0808
   29MOL0     C 3803   7.234   1.997   9.735  0.5319  0.6799  0.3614
   29MOL0     O 3804   7.328   2.112   9.754 -0.1503  0.0460  0.0015
   29MOL0     C 3805   7.401   2.134   9.639  0.0205  0.9348  0.5423
   29MOL0     C 3806   7.516   2.062   9.617  0.0334 -0.9898 -0.3914
   29MOL0     C 3807   7.593   2.071   9.501  0.0271  0.1608  0.8000
   29MOL0     C 3808   7.722   1.982   9.486 -0.5216 -0.0255  1.2257
   29MOL0     C 3809   7.542   2.162   9.404  0.1528 -0.2308  0.0824
   29MOL0     C 3810   7.588   2.169   9.269 -0.1101  0.8301  0.9203
   29MOL0     O 3811   7.498   2.207   9.187  0.6605 -0.2828  0.8059
   29MOL0     C 3812   7.527   2.239   9.053 -0.1563 -0.8491  0.3335
   29MOL0     C 3813   7.424   2.218   8.957 -1.1413 -0.7292 -0.6714
   29MOL0     C 3814   7.449   2.240   8.826 -0.0342  0.6024 -0.5028
   29MOL0     C 3815   7.575   2.282   8.773  0.9030  0.0108 -0.3072
   29MOL0     O 3816   7.604   2.308   8.641  0.1036  0.5639  0.2124
   29MOL0     C 3817   7.545   2.240   8.537 -0.3634 -1.2180 -0.4074
   29MOL0     C 3818   7.633   2.282   8.419 -0.6348 -0.2067 -0.5039
   29MOL0     C 3819   7.586   2.413   8.355  0.7144 -0.1272  0.4879
   29MOL0     C 3820   7.459   2.410   8.275  0.5899 -0.8711  0.1274
   29MOL0     C 3821   7.406   2.553   8.233 -0.0586  0.1343 -0.6989
   29MOL0     C 3822   7.485   2.609   8.114  0.4714 -0.8831  1.2460
   29MOL0     C 3823   7.480   2.761   8.098 -0.3638 -0.8327  0.1216
   29MOL0     C 3824   7.351   2.807   8.042  1.1586  1.2167  0.3912
   29MOL0    Cl 3825   7.342   2.984   8.051 -0.3853 -0.2032  0.4874
   29MOL0     C 3826   7.671   2.306   8.864 -0.1899  0.7748 -0.3621
   29MOL0     C 3827   7.655   2.285   9.003 -0.7258 -0.4468 -0.5252
   29MOL0     O 3828   7.701   2.130   9.244 -0.2791 -0.4098 -0.6511
   29MOL0     C 3829   7.435   2.245   9.433  1.1600 -0.3436 -0.0446
   29MOL0     C 3830   7.356   2.217   9.543 -0.8186  0.6155  0.9729
   29MOL0     N 3831   7.274   1.395   9.915  0.3169 -0.2787 -0.8418
   29MOL0     N 3832   7.183   1.296   9.911  0.5918 -0.6790 -0.0949
   29MOL0     C 3833   6.319   0.971   9.029  0.1268  0.0697  1.1491
   29MOL0     C 3834   6.200   0.950   8.965 -0.4246  1.0737 -0.0489
   29MOL0     C 3835   5.736   0.873   8.974 -0.2909 -0.2076 -0.3318
   29MOL0     C 3836   5.714   0.791   8.858  0.5074 -0.5815  0.1700
   29MOL0     C 3837   5.587   0.786   8.800 -0.2362 -0.5028  0.7453
   29MOL0     C 3838   5.482   0.843   8.865  0.3702  0.0948 -0.0040
   29MOL0     O 3839   5.352   0.815   8.824  0.4918 -0.5225 -0.0737
   29MOL0     C 3840   5.319   0.708   8.730  0.3727 -0.8673 -0.9435
   29MOL0     C 3841   5.342   0.566   8.779 -1.5127 -0.1677 -0.3187
   29MOL0     C 3842   5.250   0.519   8.894 -0.7534  0.2604  0.4640
   29MOL0     C 3843   5.209   0.379   8.882  0.5393 -0.0573  0.5277
   29MOL0     C 3844   5.150   0.339   9.009  0.4901  0.3147 -0.4874
   29MOL0     C 3845   5.092   0.319   9.111 -0.1218  0.3864 -0.5320
   29MOL0     C 3846   5.502   0.930   8.972  0.1538  0.8750 -0.3590
   29MOL0     C 3847   5.623   0.945   9.026 -0.2381  1.0915 -0.5538
   29MOL0     H 3848   6.050   0.749   9.193  2.5388 -0.2810  3.0722
   29MOL0     H 3849   6.254   0.790   9.304  3.7852 -2.7496 -0.5390
   29MOL0     H 3850   6.493   0.821   9.349  0.9373  1.6275 -0.2262
   29MOL0     H 3851   6.510   0.759   9.177  2.6366 -0.9578 -0.8248
   29MOL0     H 3852   6.746   0.780   9.252  1.1110  0.0577 -1.8038
   29MOL0     H 3853   6.705   0.923   9.160 -1.3437  3.7658  1.2833
   29MOL0     H 3854   6.697   1.072   9.318 -0.8306 -0.5176 -0.4622
   29MOL0     H 3855   6.656   0.960   9.450 -0.1269  0.6041 -0.4054
   29MOL0     H 3856   6.883   0.888   9.475  1.1431  0.9240  1.4397
   29MOL0     H 3857   6.929   0.949   9.315 -0.0581 -1.2472  1.0252
   29MOL0     H 3858   6.894   1.186   9.441 -3.6477 -1.5561 -1.1572
   29MOL0     H 3859   6.851   1.092   9.575 -1.7046 -0.8235 -0.7971
   29MOL0     H 3860   7.071   0.993   9.595 -2.0068 -0.1907  0.0542
   29MOL0     H 3861   7.140   1.060   9.451 -1.7183  2.3371 -2.2647
   29MOL0     H 3862   7.209   1.202   9.643  1.0074 -0.5449 -2.1068
   29MOL0     H 3863   7.113   1.284   9.537  3.8786 -1.8901  0.2171
   29MOL0     H 3864   7.016   1.150   9.805  2.2607 -0.6038  0.3345
   29MOL0     H 3865   6.923   1.276   9.713 -1.5992 -0.9442  1.5009
   29MOL0     H 3866   7.058   1.510   9.697 -1.0478 -1.0102  0.7435
   29MOL0     H 3867   7.366   1.653   9.911  2.0965 -0.2050 -2.5806
   29MOL0     H 3868   7.358   1.632   9.744 -1.1791 -3.7998 -1.0892
   29MOL0     H 3869   7.129   1.788   9.875 -1.0737 -2.1071  0.9241
   29MOL0     H 3870   7.146   1.721   9.708  1.7376  0.0837 -1.7832
   29MOL0     H 3871   7.386   1.838   9.708  0.0308 -1.0348 -0.8611
   29MOL0     H 3872   7.366   1.865   9.874 -0.0457  3.0146  0.6304
   29MOL0     H 3873   7.148   2.032   9.793  0.9914  4.7331 -1.0547
   29MOL0     H 3874   7.188   1.982   9.637 -1.4155 -1.1294  1.4612
   29MOL0     H 3875   7.550   1.997   9.698 -3.7040 -0.1144  2.1566
   29MOL0     H 3876   7.716   1.895   9.552 -1.4681  0.3728  1.6726
   29MOL0     H 3877   7.740   1.947   9.384  0.9300  4.2074 -0.1815
   29MOL0     H 3878   7.811   2.045   9.500  1.3848 -2.5940  1.4488
   29MOL0     H 3879   7.325   2.205   8.999 -1.1692  1.7030  0.2109
   29MOL0     H 3880   7.372   2.244   8.750  0.9071 -0.2576 -1.5281
   29MOL0     H 3881   7.545   2.131   8.551 -2.1274 -1.4757 -2.0363
   29MOL0     H 3882   7.441   2.267   8.519 -0.5116  1.2104  3.0598
   29MOL0     H 3883   7.738   2.290   8.449 -1.1358 -2.3987  2.2713
   29MOL0     H 3884   7.631   2.209   8.337  0.3087  2.5557 -3.1740
   29MOL0     H 3885   7.669   2.437   8.289  1.8496 -2.0089  1.1668
   29MOL0     H 3886   7.577   2.501   8.420 -0.0552  2.8637 -3.2915
   29MOL0     H 3887   7.457   2.331   8.199 -1.4506 -1.1449  0.4165
   29MOL0     H 3888   7.370   2.380   8.330  0.5735 -1.1902 -0.0716
   29MOL0     H 3889   7.409   2.628   8.313  0.7076  0.0496 -0.6422
   29MOL0     H 3890   7.299   2.566   8.213 -0.9112 -1.8325  2.0670
   29MOL0     H 3891   7.591   2.583   8.126  0.8356 -0.6742 -1.0869
   29MOL0     H 3892   7.470   2.578   8.011 -0.8787 -0.6021  1.3409
   29MOL0     H 3893   7.555   2.803   8.030  0.7988 -1.7027  0.8053
   29MOL0     H 3894   7.497   2.801   8.199 -1.0997  1.6020 -0.6521
   29MOL0     H 3895   7.274   2.755   8.100  2.2678  1.4861  2.1958
   29MOL0     H 3896   7.339   2.766   7.941  1.4107 -2.1833  1.6128
   29MOL0     H 3897   7.771   2.330   8.828  2.1302 -2.4414  3.1188
   29MOL0     H 3898   7.734   2.316   9.070 -1.4790  1.4343 -0.4380
   29MOL0     H 3899   7.398   2.313   9.357 -2.2288 -3.9294 -1.9573
   29MOL0     H 3900   7.256   2.259   9.531  0.0556  1.8118 -5.1006
   29MOL0     H 3901   6.390   1.046   8.996 -1.1672  0.8545  0.0488
   29MOL0     H 3902   6.176   0.997   8.870  0.0795  1.9281  0.2319
   29MOL0     H 3903   5.788   0.723   8.816 -0.4574 -1.4078 -0.2390
   29MOL0     H 3904   5.572   0.717   8.718  2.5463  0.1277 -0.4191
   29MOL0     H 3905   5.218   0.726   8.691  0.7035  1.3059 -0.9133
   29MOL0     H 3906   5.383   0.726   8.643  0.8595  0.8177 -0.2758
   29MOL0     H 3907   5.448   0.568   8.806 -0.6332  4.5237 -2.9448
   29MOL0     H 3908   5.332   0.516   8.683 -0.5942  0.5947 -0.8295
   29MOL0     H 3909   5.166   0.589   8.899 -1.4893 -0.4068 -1.6533
   29MOL0     H 3910   5.312   0.519   8.985 -0.6561 -3.1406  0.5090
   29MOL0     H 3911   5.285   0.318   8.832  1.1341  0.8868  0.2304
   29MOL0     H 3912   5.122   0.372   8.815 -1.7227 -0.8377  3.3425
   29MOL0     H 3913   5.057   0.295   9.209 -2.6085 -1.9550 -1.8407
   29MOL0     H 3914   5.408   0.971   9.007 -1.4614 -1.6040 -1.4337
   29MOL0     H 3915   5.632   1.024   9.100  0.2865  2.1657 -1.7309
   30MOL0     O 3916   7.105   0.830   9.025 -0.0904  0.5295 -0.3780
   30MOL0     C 3917   7.097   0.745   9.111 -0.8545  1.1776 -0.0737
   30MOL0     O 3918   6.993   0.658   9.127 -0.6689  0.1768 -0.0513
   30MOL0     C 3919   6.877   0.656   9.060 -0.2225 -0.4943 -0.7472
   30MOL0     C 3920   6.795   0.550   9.096 -0.1280 -0.2942 -1.1095
   30MOL0     C 3921   6.670   0.529   9.036 -0.4925 -0.2360  0.2143
   30MOL0     C 3922   6.621   0.609   8.934  0.0753 -0.2094  0.0988
   30MOL0     O 3923   6.499   0.581   8.883  0.2913  0.0882 -0.5859
   30MOL0     C 3924   6.421   0.695   8.872  0.3222 -0.3619  0.6375
   30MOL0     C 3925   6.370   0.714   8.729 -0.0480 -0.0116  0.0070
   30MOL0     C 3926   6.474   0.735   8.610  0.1441 -0.1833  0.0821
   30MOL0     C 3927   6.409   0.771   8.480  0.3886  0.0035 -1.1848
   30MOL0     C 3928   6.501   0.771   8.362 -1.3361  0.2997  0.5274
   30MOL0     C 3929   6.435   0.794   8.233  0.2759 -0.2375  0.1451
   30MOL0     C 3930   6.316   0.693   8.194  0.4868 -0.1410 -0.6100
   30MOL0     C 3931   6.366   0.548   8.169  0.1402  0.2918  0.1986
   30MOL0     N 3932   6.402   0.461   8.282  0.3932  0.0739  0.0476
   30MOL0     C 3933   6.308   0.400   8.373  1.5308  0.1436  0.4848
   30MOL0     C 3934   6.387   0.351   8.466  0.8225 -0.5972  0.5458
   30MOL0     C 3935   6.359   0.270   8.594  0.4314 -1.0195  0.0320
   30MOL0     C 3936   6.386   0.352   8.720 -0.6235 -0.7000  0.4510
   30MOL0     C 3937   6.431   0.256   8.839  0.3172 -0.4873  0.6697
   30MOL0     C 3938   6.308   0.175   8.882 -0.0203 -0.4307 -0.7022
   30MOL0     O 3939   6.291   0.063   8.801  0.1808 -0.0846  0.3609
   30MOL0     C 3940   6.194  -0.027   8.795 -0.4785  0.1859 -0.6763
   30MOL0     C 3941   6.081  -0.010   8.865  0.6683 -0.2640  0.5001
   30MOL0     C 3942   5.978  -0.104   8.871  0.1376  0.0038 -0.1884
   30MOL0     C 3943   5.868  -0.067   8.962  0.0977 -0.1503  0.2045
   30MOL0     C 3944   5.998  -0.224   8.805 -0.1382  0.1913  0.0922
   30MOL0     C 3945   5.897  -0.336   8.802 -0.7293  0.4052 -0.1862
   30MOL0     O 3946   5.911  -0.419   8.693  0.1263 -0.2721  0.2720
   30MOL0     C 3947   5.840  -0.528   8.698  1.0375 -0.0559 -0.2785
   30MOL0     C 3948   5.692  -0.531   8.706 -0.2591 -0.6031 -0.4656
   30MOL0     C 3949   5.614  -0.645   8.707  0.1842  1.0622  0.0627
   30MOL0     C 3950   5.689  -0.772   8.683  0.5389  0.0206  0.2980
   30MOL0     O 3951   5.602  -0.884   8.680 -0.5489 -0.5359 -0.3646
   30MOL0     C 3952   5.664  -0.998   8.742  0.1688  0.3662 -0.6023
   30MOL0     C 3953   5.568  -1.115   8.732  0.4025  0.1535 -0.6215
   30MOL0     C 3954   5.523  -1.138   8.590 -0.3664 -0.1516  0.2157
   30MOL0     C 3955   5.414  -1.248   8.578 -0.0065  0.0989  0.3344
   30MOL0     C 3956   5.443  -1.380   8.637 -0.0322  0.0265  0.5474
   30MOL0     C 3957   5.309  -1.465   8.633 -0.3555 -0.9780  0.1068
   30MOL0     C 3958   5.340  -1.607   8.672  0.5031 -0.3768 -0.0495
   30MOL0     C 3959   5.226  -1.717   8.688  0.6855 -0.5456 -0.3549
   30MOL0    Cl 3960   5.279  -1.842   8.804  0.4814 -0.4283  0.1966
   30MOL0     C 3961   5.826  -0.778   8.677  0.9911 -0.3763 -0.3660
   30MOL0     C 3962   5.899  -0.658   8.693 -0.3546  0.0422 -0.6337
   30MOL0     O 3963   5.802  -0.337   8.879 -0.2557 -0.3576 -0.3917
   30MOL0     C 3964   6.111  -0.243   8.731  0.0023  0.2639  0.1458
   30MOL0     C 3965   6.210  -0.148   8.727  0.5979 -0.1428  0.0776
   30MOL0     N 3966   6.521   0.364   8.419 -0.1111  0.4733 -0.0818
   30MOL0     N 3967   6.524   0.434   8.316 -0.1805  0.2491  0.0990
   30MOL0     C 3968   6.715   0.697   8.885 -0.1973 -1.0323  0.1153
   30MOL0     C 3969   6.836   0.732   8.953  0.1091  0.9355  0.0419
   30MOL0     C 3970   7.206   0.741   9.211 -0.0587  0.0003  0.1619
   30MOL0     C 3971   7.329   0.816   9.184 -0.2516 -0.4872  1.1075
   30MOL0     C 3972   7.425   0.841   9.285 -0.1922  0.5315  0.5083
   30MOL0     C 3973   7.409   0.783   9.408  1.1324  0.4642 -1.0194
   30MOL0     O 3974   7.494   0.802   9.507 -0.1883  0.2119 -0.3404
   30MOL0     C 3975   7.535   0.939   9.534  0.4345 -1.3700 -0.8445
   30MOL0     C 3976   7.566   0.932   9.688  0.0264  0.6208 -0.1899
   30MOL0     C 3977   7.449   0.884   9.770  1.0918 -0.3182 -0.5970
   30MOL0     C 3978   7.330   0.971   9.762  0.3268 -0.2573 -0.6329
   30MOL0     C 3979   7.231   0.942   9.874  0.0415 -0.8447  0.2248
   30MOL0     C 3980   7.158   0.903   9.970  0.7056 -0.3448 -0.2910
   30MOL0     C 3981   7.291   0.702   9.429 -0.2483  0.5612  0.8055
   30MOL0     C 3982   7.192   0.689   9.341 -0.1163  0.2873  0.7996
   30MOL0     H 3983   6.823   0.481   9.176 -0.1366  1.0959  0.1281
   30MOL0     H 3984   6.612   0.447   9.077 -1.2079  0.3440  0.3751
   30MOL0     H 3985   6.320   0.682   8.912 -0.7695 -0.2861 -1.8804
   30MOL0     H 3986   6.471   0.783   8.914 -1.3502 -0.6994  3.6419
   30MOL0     H 3987   6.307   0.627   8.710  0.7011  0.0505 -3.1402
   30MOL0     H 3988   6.313   0.808   8.722 -0.0214  0.1275  1.3545
   30MOL0     H 3989   6.549   0.809   8.640 -0.4076  1.4566 -2.3120
   30MOL0     H 3990   6.534   0.643   8.609 -0.9675 -0.9919  1.9977
   30MOL0     H 3991   6.337   0.689   8.477  0.8879 -0.6603  1.9738
   30MOL0     H 3992   6.348   0.862   8.484  0.0303 -0.2753  1.8240
   30MOL0     H 3993   6.567   0.855   8.387 -1.2976  0.1329  0.9881
   30MOL0     H 3994   6.562   0.680   8.365  0.3261  1.3840  1.8366
   30MOL0     H 3995   6.389   0.893   8.234 -3.3030 -1.6951 -1.0702
   30MOL0     H 3996   6.509   0.792   8.152  0.7546 -1.1684  0.5934
   30MOL0     H 3997   6.241   0.688   8.274 -1.8505 -2.0555 -2.7859
   30MOL0     H 3998   6.260   0.731   8.109 -2.8356 -0.7449  1.1062
   30MOL0     H 3999   6.456   0.549   8.108  0.0045  2.1797 -0.0395
   30MOL0     H 4000   6.292   0.492   8.110 -0.2800 -0.2885  1.2504
   30MOL0     H 4001   6.200   0.407   8.370  1.6417  2.0705 -0.1412
   30MOL0     H 4002   6.253   0.243   8.586 -0.1157  1.0906 -0.4594
   30MOL0     H 4003   6.429   0.186   8.595  1.3597 -0.2643  0.6690
   30MOL0     H 4004   6.292   0.402   8.746 -0.8104 -0.9794  0.3108
   30MOL0     H 4005   6.456   0.433   8.698 -1.6692 -0.6124 -3.2366
   30MOL0     H 4006   6.457   0.328   8.917 -0.0732  1.1197 -0.6321
   30MOL0     H 4007   6.507   0.184   8.808 -0.5396 -0.7339 -1.0027
   30MOL0     H 4008   6.217   0.234   8.896 -1.3419 -2.7023  1.0091
   30MOL0     H 4009   6.331   0.151   8.986  1.7877  0.8147 -0.7530
   30MOL0     H 4010   6.072   0.083   8.918  0.7565  0.2624 -0.3807
   30MOL0     H 4011   5.853  -0.149   9.034 -2.1681 -0.9121 -1.0323
   30MOL0     H 4012   5.871   0.031   9.011 -2.0110  0.4112 -0.6552
   30MOL0     H 4013   5.774  -0.069   8.906  0.8447  2.2735 -1.2711
   30MOL0     H 4014   5.651  -0.431   8.711  0.0119 -0.5404  2.6980
   30MOL0     H 4015   5.506  -0.643   8.716 -0.0535 -0.2819 -1.8661
   30MOL0     H 4016   5.759  -1.026   8.694  1.5510  0.2957  2.0005
   30MOL0     H 4017   5.703  -0.975   8.842  2.1167 -0.3129 -1.1582
   30MOL0     H 4018   5.625  -1.205   8.760  1.6192  0.9235 -0.5701
   30MOL0     H 4019   5.484  -1.096   8.799  1.5253 -2.9451  1.9765
   30MOL0     H 4020   5.603  -1.151   8.517 -2.3051  2.0877 -2.5415
   30MOL0     H 4021   5.484  -1.052   8.534  2.3320  0.0783 -1.5010
   30MOL0     H 4022   5.328  -1.208   8.632  1.0562  0.6116  1.7226
   30MOL0     H 4023   5.383  -1.266   8.475 -3.5052  2.3574  0.8198
   30MOL0     H 4024   5.475  -1.373   8.741 -0.4243 -3.4690  1.0185
   30MOL0     H 4025   5.519  -1.424   8.572  1.7860 -0.2248  2.7045
   30MOL0     H 4026   5.223  -1.435   8.693  0.0887 -2.7220  1.6939
   30MOL0     H 4027   5.268  -1.465   8.532  1.3169  1.0118 -0.6425
   30MOL0     H 4028   5.396  -1.591   8.765  0.2702  1.3710 -0.1776
   30MOL0     H 4029   5.401  -1.650   8.592 -0.8733  1.6199 -2.2904
   30MOL0     H 4030   5.190  -1.743   8.588  0.8675  2.9991 -1.4678
   30MOL0     H 4031   5.143  -1.676   8.746  1.2092 -0.3490  0.2643
   30MOL0     H 4032   5.873  -0.876   8.668  0.9131 -0.4850  0.3434
   30MOL0     H 4033   6.007  -0.671   8.697 -0.7077 -4.8927  0.0151
   30MOL0     H 4034   6.123  -0.337   8.679  0.4985  1.4874 -2.1073
   30MOL0     H 4035   6.311  -0.159   8.690  1.1420 -1.9857  1.9436
   30MOL0     H 4036   6.680   0.758   8.803  0.4209 -0.4486  0.2693
   30MOL0     H 4037   6.911   0.799   8.913  2.4946 -0.0983  2.4964
   30MOL0     H 4038   7.334   0.876   9.094 -1.1020  0.4332  1.6658
   30MOL0     H 4039   7.522   0.885   9.262 -0.3220  0.8379  0.5435
   30MOL0     H 4040   7.621   0.964   9.472  1.0749 -0.6464  0.3080
   30MOL0     H 4041   7.460   1.015   9.513  2.0129  1.1143  1.8265
   30MOL0     H 4042   7.593   1.030   9.729 -1.6778  0.9933  0.1198
   30MOL0     H 4043   7.656   0.871   9.700  1.3572  1.8013 -3.0266
   30MOL0     H 4044   7.487   0.891   9.872  0.3314  0.9699 -0.3969
   30MOL0     H 4045   7.412   0.782   9.751  3.2781 -1.3853  0.4841
   30MOL0     H 4046   7.281   0.962   9.664  0.3047  1.5058 -0.8129
   30MOL0     H 4047   7.357   1.077   9.767 -0.4715 -0.0339 -0.9281
   30MOL0     H 4048   7.105   0.885  10.061  1.8079 -1.7035  0.1157
   30MOL0     H 4049   7.279   0.640   9.517 -0.6174 -0.9822 -0.2870
   30MOL0     H 4050   7.103   0.635   9.374  0.3618 -2.1399 -1.5412
   31MOL0     O 4051   1.483   4.389   9.524  0.1553 -0.2041 -0.0264
   31MOL0     C 4052   1.575   4.463   9.482  1.4475  0.1178  0.0733
   31MOL0     O 4053   1.708   4.470   9.517  0.3409 -0.3886 -0.4291
   31MOL0     C 4054   1.764   4.397   9.625 -0.1417 -0.9541  0.1125
   31MOL0     C 4055   1.895   4.426   9.663 -0.0802  0.9448 -0.1679
   31MOL0     C 4056   1.963   4.364   9.762 -0.5463 -0.3259  0.6015
   31MOL0     C 4057   1.897   4.263   9.837  0.1170 -0.1651  0.4039
   31MOL0     O 4058   1.963   4.210   9.948 -0.9729  0.2818 -0.2195
   31MOL0     C 4059   2.107   4.225   9.967  0.0320  0.0769 -0.7673
   31MOL0     C 4060   2.145   4.109  10.059 -0.9955 -0.2412  0.2097
   31MOL0     C 4061   2.286   4.118  10.119  0.1712  0.6944  0.1724
   31MOL0     C 4062   2.381   4.060  10.016  0.5729  0.4925 -0.0131
   31MOL0     C 4063   2.529   4.080  10.043 -0.1076  0.4225 -0.0357
   31MOL0     C 4064   2.605   4.056   9.917  0.0483  0.5991  0.2053
   31MOL0     C 4065   2.628   3.906   9.893 -1.6516  0.1322 -0.1961
   31MOL0     C 4066   2.675   3.874   9.742  0.1366  0.7556 -1.0495
   31MOL0     N 4067   2.565   3.923   9.657  0.6479 -0.3852 -1.0271
   31MOL0     C 4068   2.437   3.873   9.645  0.5542 -0.1892  0.4272
   31MOL0     C 4069   2.376   3.949   9.553  0.2012  0.7264 -0.5088
   31MOL0     C 4070   2.233   3.932   9.519  0.5577  0.0514  0.1699
   31MOL0     C 4071   2.180   3.999   9.391 -0.5430  0.2408 -0.7666
   31MOL0     C 4072   2.176   4.153   9.386 -0.3865 -0.1992 -0.2364
   31MOL0     C 4073   2.051   4.201   9.468  0.5282 -0.0070 -0.9901
   31MOL0     O 4074   1.934   4.145   9.429 -0.6459  0.4860 -0.4353
   31MOL0     C 4075   1.869   4.198   9.317  0.6581  0.5172 -1.1552
   31MOL0     C 4076   1.910   4.300   9.232  0.2879  0.0325 -0.1732
   31MOL0     C 4077   1.840   4.332   9.113 -0.5962 -0.0566  0.0776
   31MOL0     C 4078   1.916   4.428   9.039 -0.1934  0.1683  0.2205
   31MOL0     C 4079   1.713   4.279   9.087 -0.1361  0.2213 -0.8495
   31MOL0     C 4080   1.610   4.311   8.979  0.4781  0.9527 -0.1165
   31MOL0     O 4081   1.484   4.260   8.985 -0.7513  0.5300 -0.1551
   31MOL0     C 4082   1.410   4.299   8.878  0.5970  0.5864  0.4877
   31MOL0     C 4083   1.354   4.426   8.875 -0.0991 -0.2864  0.2235
   31MOL0     C 4084   1.266   4.469   8.773 -0.0825 -0.4727  0.5742
   31MOL0     C 4085   1.238   4.378   8.668 -0.3930 -0.3711 -0.0591
   31MOL0     O 4086   1.155   4.422   8.563  0.2133 -0.3830  0.4398
   31MOL0     C 4087   1.128   4.335   8.456 -0.4346 -0.8688  0.3374
   31MOL0     C 4088   1.064   4.414   8.337 -0.5420  0.0013 -0.6237
   31MOL0     C 4089   1.077   4.340   8.202  0.2032 -0.2990 -0.5139
   31MOL0     C 4090   1.205   4.262   8.174  0.1142  1.1281 -0.9549
   31MOL0     C 4091   1.197   4.229   8.020 -0.9364 -0.2638  0.2694
   31MOL0     C 4092   1.300   4.121   7.982 -0.4203  0.9452  0.3171
   31MOL0     C 4093   1.357   4.141   7.832  0.3572  0.3028 -0.1132
   31MOL0     C 4094   1.239   4.120   7.736 -0.3842 -0.3027 -0.1867
   31MOL0    Cl 4095   1.156   3.967   7.754  0.0026 -0.1186  0.5062
   31MOL0     C 4096   1.287   4.245   8.679  0.4472  0.0658 -0.6810
   31MOL0     C 4097   1.365   4.203   8.791  0.0438  0.2159  0.5898
   31MOL0     O 4098   1.649   4.374   8.882 -0.2195 -0.1789 -0.0384
   31MOL0     C 4099   1.678   4.179   9.175  0.2224 -0.9556 -0.7932
   31MOL0     C 4100   1.747   4.140   9.288  0.3254 -0.4780 -1.6634
   31MOL0     N 4101   2.463   4.035   9.497  0.0584  0.2470 -0.0879
   31MOL0     N 4102   2.578   4.013   9.560  0.6287 -0.0125  0.1403
   31MOL0     C 4103   1.755   4.240   9.806  0.5231 -0.0590  1.0695
   31MOL0     C 4104   1.698   4.295   9.698 -0.0481 -0.0456 -0.2222
   31MOL0     C 4105   1.523   4.548   9.367 -0.3852  0.4082  1.0773
   31MOL0     C 4106   1.616   4.589   9.270 -0.6342 -0.0524  0.1775
   31MOL0     C 4107   1.570   4.668   9.170  0.4443  0.2815 -0.4842
   31MOL0     C 4108   1.444   4.712   9.157 -0.0700  0.0233  0.3250
   31MOL0     O 4109   1.431   4.797   9.048  0.2909 -0.5794 -0.4442
   31MOL0     C 4110   1.332   4.900   9.062  0.5660 -0.0821  0.0333
   31MOL0     C 4111   1.315   4.979   8.933 -0.4613 -0.1082 -0.2121
   31MOL0     C 4112   1.240   4.894   8.821  0.1512 -0.2015 -0.5892
   31MOL0     C 4113   1.090   4.861   8.852  0.0488  0.6177  0.3941
   31MOL0     C 4114   1.019   4.987   8.888  0.2083  0.2364  0.6660
   31MOL0     C 4115   0.962   5.090   8.906 -0.3175 -0.1386 -0.1090
   31MOL0     C 4116   1.351   4.678   9.257 -0.2825 -0.8464  0.0165
   31MOL0     C 4117   1.391   4.591   9.354  0.3026  0.7952 -0.7082
   31MOL0     H 4118   1.954   4.498   9.607  1.5189 -0.4006 -0.2740
   31MOL0     H 4119   2.057   4.412   9.785 -1.0917  1.3945 -0.5596
   31MOL0     H 4120   2.164   4.218   9.874 -0.2636  2.6783 -1.1939
   31MOL0     H 4121   2.141   4.321  10.008 -3.2767  2.3542 -2.8990
   31MOL0     H 4122   2.085   4.101  10.150  0.2282  0.7563  1.1489
   31MOL0     H 4123   2.126   4.015  10.006 -3.0908 -1.1941  2.4181
   31MOL0     H 4124   2.310   4.219  10.155 -0.8144  1.2785 -0.7646
   31MOL0     H 4125   2.300   4.053  10.206 -0.5656 -1.5471 -1.2902
   31MOL0     H 4126   2.369   3.953   9.996 -0.2353  0.3458  1.1890
   31MOL0     H 4127   2.340   4.106   9.926 -2.1784 -3.0945 -0.8295
   31MOL0     H 4128   2.552   4.185  10.065 -0.0758  0.2547  0.7426
   31MOL0     H 4129   2.569   4.019  10.124  0.5539  0.0328 -0.6496
   31MOL0     H 4130   2.552   4.106   9.835 -1.2369 -2.0312 -0.6834
   31MOL0     H 4131   2.705   4.099   9.925  0.9325 -1.3520  0.1593
   31MOL0     H 4132   2.704   3.889   9.970 -3.4953  0.0734  1.7158
   31MOL0     H 4133   2.536   3.853   9.921 -0.9782 -1.3559 -0.7038
   31MOL0     H 4134   2.693   3.766   9.742  1.7335  0.9573 -2.9040
   31MOL0     H 4135   2.772   3.915   9.712  1.4813 -1.8000 -0.4443
   31MOL0     H 4136   2.391   3.796   9.706  1.4585  1.1046  2.8818
   31MOL0     H 4137   2.216   3.827   9.493 -1.1701  0.7799 -1.8726
   31MOL0     H 4138   2.158   3.961   9.594  0.1708 -0.5436  0.0213
   31MOL0     H 4139   2.079   3.962   9.376  0.4321 -2.3875 -1.3005
   31MOL0     H 4140   2.248   3.956   9.317 -2.8781 -3.8814 -0.7776
   31MOL0     H 4141   2.155   4.187   9.284  2.0873 -0.7772 -1.0162
   31MOL0     H 4142   2.269   4.193   9.428 -1.5028  0.7068  1.4768
   31MOL0     H 4143   2.054   4.310   9.453  3.0462 -0.0319 -1.1631
   31MOL0     H 4144   2.082   4.162   9.565  1.5851  0.7772 -0.9938
   31MOL0     H 4145   1.998   4.357   9.262 -1.7309  2.6657  1.1828
   31MOL0     H 4146   1.904   4.404   8.932  0.7517  1.7832 -0.2764
   31MOL0     H 4147   1.864   4.521   9.063 -1.2884 -0.7337  1.4616
   31MOL0     H 4148   2.025   4.441   9.039 -0.2759  0.8705  0.5985
   31MOL0     H 4149   1.382   4.491   8.957  1.1238 -0.9052  0.3227
   31MOL0     H 4150   1.213   4.563   8.770  1.0390  0.1662 -0.6782
   31MOL0     H 4151   1.218   4.291   8.410 -1.3677  0.3529 -2.9249
   31MOL0     H 4152   1.058   4.258   8.491 -0.5549  0.0652  2.3010
   31MOL0     H 4153   0.960   4.434   8.366 -0.4505  0.2686 -0.4751
   31MOL0     H 4154   1.118   4.509   8.335  2.5858 -1.6065  1.1885
   31MOL0     H 4155   1.062   4.405   8.115  0.3449  0.1182 -0.2320
   31MOL0     H 4156   0.992   4.272   8.215  0.4843 -0.0595  4.4885
   31MOL0     H 4157   1.296   4.316   8.201 -0.9654  2.6589 -0.2665
   31MOL0     H 4158   1.211   4.170   8.233  2.5713  1.6152 -0.3623
   31MOL0     H 4159   1.219   4.322   7.968 -0.1383  0.3237  1.5846
   31MOL0     H 4160   1.095   4.194   8.003 -1.0109 -0.2672  0.7124
   31MOL0     H 4161   1.383   4.139   8.050 -0.3674 -0.4867  0.6453
   31MOL0     H 4162   1.265   4.020   8.004  0.7389  0.1140 -1.4233
   31MOL0     H 4163   1.434   4.064   7.822 -0.1015 -0.4582  1.7977
   31MOL0     H 4164   1.391   4.245   7.823 -0.7194  0.7536  0.8121
   31MOL0     H 4165   1.272   4.127   7.632 -2.7510 -0.5339 -0.9975
   31MOL0     H 4166   1.180   4.210   7.752 -2.3082 -2.1262  5.3260
   31MOL0     H 4167   1.261   4.164   8.612  2.3228 -0.9042 -0.2978
   31MOL0     H 4168   1.400   4.101   8.801  0.7533  0.5764  1.9991
   31MOL0     H 4169   1.578   4.139   9.161 -0.1924 -0.2904  0.1121
   31MOL0     H 4170   1.701   4.062   9.347  2.6824 -1.8516 -1.5233
   31MOL0     H 4171   1.711   4.160   9.866 -0.4942  2.4512  3.9506
   31MOL0     H 4172   1.595   4.265   9.681  0.1738 -0.2923 -1.1847
   31MOL0     H 4173   1.719   4.556   9.279 -0.8942 -1.1725 -0.6978
   31MOL0     H 4174   1.647   4.704   9.102  0.4218  3.2508  0.9130
   31MOL0     H 4175   1.234   4.858   9.088 -1.2382  4.3140  1.2054
   31MOL0     H 4176   1.361   4.967   9.143  0.7425 -0.6544  0.4486
   31MOL0     H 4177   1.412   5.008   8.891 -1.8921  3.5825 -1.3302
   31MOL0     H 4178   1.273   5.076   8.958  1.8953  1.8414 -3.0617
   31MOL0     H 4179   1.291   4.798   8.811 -0.4847 -1.4831  4.8866
   31MOL0     H 4180   1.250   4.954   8.730 -0.1523 -2.1876 -1.9740
   31MOL0     H 4181   1.084   4.782   8.926  0.8936  1.1343  1.0267
   31MOL0     H 4182   1.048   4.816   8.761  2.8802  1.6843 -1.5908
   31MOL0     H 4183   0.901   5.178   8.912 -1.6152 -0.9743 -0.5954
   31MOL0     H 4184   1.249   4.708   9.236  0.7962  3.8553  0.2898
   31MOL0     H 4185   1.316   4.559   9.426 -2.4197  1.6973 -2.9800
   32MOL0     O 4186   9.923   1.664  11.184  0.5062  0.4524  0.1311
   32MOL0     C 4187   9.957   1.747  11.098 -0.4395 -0.3319 -0.9609
   32MOL0     O 4188  10.025   1.856  11.124  0.4242 -0.4375  0.6650
   32MOL0     C 4189  10.039   1.907  11.251  0.2079  0.5993 -0.3060
   32MOL0     C 4190  10.158   1.977  11.278  0.2234 -0.3479 -0.8224
   32MOL0     C 4191  10.168   2.054  11.400  0.5843  0.7825  0.3910
   32MOL0     C 4192  10.070   2.053  11.500  0.6883 -1.5118  0.0449
   32MOL0     O 4193  10.067   2.148  11.601 -0.0782 -0.3701 -0.1815
   32MOL0     C 4194   9.948   2.184  11.671  0.3621 -0.2125  0.3450
   32MOL0     C 4195   9.866   2.267  11.574  0.0164  0.4776  0.6098
   32MOL0     C 4196   9.785   2.377  11.640  0.1556  0.1905 -0.5132
   32MOL0     C 4197   9.700   2.453  11.542  0.3363 -0.7453  0.3136
   32MOL0     C 4198   9.640   2.578  11.613 -0.8583 -0.3656 -0.5917
   32MOL0     C 4199   9.527   2.556  11.714  0.3247  0.4731  0.5096
   32MOL0     C 4200   9.513   2.680  11.807 -0.1400 -0.0045 -1.0270
   32MOL0     C 4201   9.464   2.652  11.956 -0.1560  0.2084  0.7960
   32MOL0     N 4202   9.481   2.766  12.042  0.6071 -0.2986  0.4355
   32MOL0     C 4203   9.583   2.810  12.109 -0.0579 -0.0642 -0.0208
   32MOL0     C 4204   9.547   2.905  12.195  0.3042 -0.5155  0.4249
   32MOL0     C 4205   9.630   2.970  12.300 -0.4843  1.1940 -0.0197
   32MOL0     C 4206   9.767   2.996  12.233  0.1540  0.8890  0.2273
   32MOL0     C 4207   9.799   3.150  12.247  0.8579  1.2780 -0.1650
   32MOL0     C 4208   9.928   3.186  12.166 -0.7124 -0.5527 -0.0294
   32MOL0     O 4209  10.007   3.292  12.207 -0.1649 -1.1363 -0.1299
   32MOL0     C 4210  10.102   3.276  12.311 -0.0989  0.3080 -0.0328
   32MOL0     C 4211  10.182   3.377  12.350 -0.8403  0.0955  0.5207
   32MOL0     C 4212  10.295   3.354  12.436 -0.2223  0.5004 -0.0930
   32MOL0     C 4213  10.398   3.463  12.458 -0.1132  0.1299 -0.2754
   32MOL0     C 4214  10.308   3.228  12.500 -0.2916  1.0364 -0.4140
   32MOL0     C 4215  10.420   3.205  12.595 -0.0853  1.3223  0.1658
   32MOL0     O 4216  10.394   3.201  12.731 -0.5073 -0.2519  0.0873
   32MOL0     C 4217  10.482   3.146  12.823 -0.5055  0.4268  0.3016
   32MOL0     C 4218  10.498   3.213  12.944  0.1749  0.1418  0.7129
   32MOL0     C 4219  10.571   3.171  13.054 -0.6950  0.1162  0.5000
   32MOL0     C 4220  10.626   3.044  13.048  0.3746 -0.1678 -0.0989
   32MOL0     O 4221  10.696   2.990  13.148  0.4897  0.0508 -0.2504
   32MOL0     C 4222  10.654   3.026  13.281  0.0649 -0.6946  0.1771
   32MOL0     C 4223  10.760   2.971  13.387 -0.2553 -0.2637  1.0063
   32MOL0     C 4224  10.783   2.814  13.364 -0.3895 -0.0948  0.4689
   32MOL0     C 4225  10.658   2.737  13.431  1.2120  0.6799 -0.5735
   32MOL0     C 4226  10.667   2.583  13.412 -0.1198 -0.5392 -0.0314
   32MOL0     C 4227  10.540   2.509  13.453  0.1978 -0.9574  0.0830
   32MOL0     C 4228  10.547   2.368  13.410 -0.0427  0.1470 -0.3458
   32MOL0     C 4229  10.423   2.293  13.442  0.6664 -0.2975  0.1885
   32MOL0    Cl 4230  10.301   2.354  13.326 -0.0004 -0.3348  0.5745
   32MOL0     C 4231  10.613   2.966  12.924  0.1965 -0.0999  0.1516
   32MOL0     C 4232  10.532   3.018  12.812 -1.0877  0.4794 -0.8334
   32MOL0     O 4233  10.524   3.188  12.546  0.4425 -0.0417 -0.1505
   32MOL0     C 4234  10.203   3.135  12.487  0.0285 -0.1281 -0.2861
   32MOL0     C 4235  10.106   3.162  12.388 -0.1003 -0.1430  0.0417
   32MOL0     N 4236   9.415   2.939  12.171 -0.5481  0.1603  0.5697
   32MOL0     N 4237   9.380   2.863  12.073 -0.8979 -0.2020 -0.4313
   32MOL0     C 4238   9.966   1.972  11.475 -0.0980 -0.0789 -0.1309
   32MOL0     C 4239   9.940   1.905  11.355 -0.5042 -0.6915  0.5532
   32MOL0     C 4240   9.926   1.714  10.958  0.1280  0.5056  0.6612
   32MOL0     C 4241   9.951   1.810  10.852  0.0181  0.3263 -0.7626
   32MOL0     C 4242   9.913   1.777  10.725 -0.3331 -0.5428  0.3213
   32MOL0     C 4243   9.859   1.650  10.694 -0.6489 -0.1120 -0.6518
   32MOL0     O 4244   9.817   1.616  10.568  0.4741 -0.0733 -0.7353
   32MOL0     C 4245   9.873   1.490  10.521 -0.5531 -0.6697 -0.1385
   32MOL0     C 4246  10.027   1.475  10.544  0.3971  0.2016 -0.9451
   32MOL0     C 4247  10.058   1.362  10.646 -0.1895  0.1912  0.0537
   32MOL0     C 4248  10.189   1.366  10.709 -0.4721 -0.0346 -0.0912
   32MOL0     C 4249  10.220   1.480  10.789 -0.2797  0.0337  0.5080
   32MOL0     C 4250  10.223   1.579  10.868 -0.8751 -1.1000 -0.0060
   32MOL0     C 4251   9.812   1.574  10.799  0.6712  0.2585  0.2921
   32MOL0     C 4252   9.859   1.593  10.924  0.2862 -0.3350 -0.3899
   32MOL0     H 4253  10.240   1.986  11.208  0.3680 -1.5934 -0.8444
   32MOL0     H 4254  10.257   2.111  11.424  0.7487  1.0732 -0.8289
   32MOL0     H 4255   9.897   2.103  11.724 -0.9460  0.9009  0.8441
   32MOL0     H 4256   9.983   2.250  11.751  2.1529  0.1728 -0.6999
   32MOL0     H 4257   9.933   2.317  11.503  0.3479  1.2480  1.4468
   32MOL0     H 4258   9.799   2.199  11.521  1.3875 -0.1717 -0.3444
   32MOL0     H 4259   9.728   2.326  11.719 -1.3235 -1.1040 -2.3349
   32MOL0     H 4260   9.866   2.443  11.674  1.2938  0.7046 -3.9107
   32MOL0     H 4261   9.769   2.474  11.459  1.4815  1.3832  1.7180
   32MOL0     H 4262   9.625   2.387  11.495 -0.9957 -0.0429  1.3813
   32MOL0     H 4263   9.722   2.637  11.654 -0.4253 -0.9789 -0.5553
   32MOL0     H 4264   9.601   2.631  11.526 -0.5887  2.5940  0.9562
   32MOL0     H 4265   9.435   2.542  11.657  0.3440 -1.7719  0.9237
   32MOL0     H 4266   9.549   2.462  11.767  0.6884  1.3361  1.9448
   32MOL0     H 4267   9.607   2.726  11.835  0.3957 -1.3643 -0.5239
   32MOL0     H 4268   9.441   2.756  11.774 -0.7536  1.0355  2.3565
   32MOL0     H 4269   9.512   2.560  11.989  1.4821  0.8437  0.2449
   32MOL0     H 4270   9.357   2.638  11.975  0.1050 -1.8462  0.9609
   32MOL0     H 4271   9.680   2.762  12.104 -0.0461 -0.3032  1.8530
   32MOL0     H 4272   9.582   3.062  12.335  1.5102  1.3289  2.6252
   32MOL0     H 4273   9.639   2.896  12.380  1.2384  0.3760 -0.9307
   32MOL0     H 4274   9.774   2.966  12.128 -0.6500  1.2341  0.0721
   32MOL0     H 4275   9.846   2.942  12.286 -1.1126  0.0394  1.2954
   32MOL0     H 4276   9.814   3.172  12.353 -2.1631  1.2786  0.3615
   32MOL0     H 4277   9.714   3.210  12.214 -1.5086 -0.0328  3.0347
   32MOL0     H 4278   9.910   3.223  12.065  2.6811  2.5731  0.3055
   32MOL0     H 4279   9.990   3.100  12.140  2.7478  2.8573 -4.9084
   32MOL0     H 4280  10.174   3.469  12.294 -0.3651 -1.8020 -2.9242
   32MOL0     H 4281  10.450   3.485  12.365 -2.0366  3.4568 -0.7201
   32MOL0     H 4282  10.338   3.549  12.490 -1.3567 -0.4349 -1.0097
   32MOL0     H 4283  10.471   3.437  12.536 -0.7879 -0.2310  0.2468
   32MOL0     H 4284  10.459   3.314  12.946 -1.5896 -0.5133  0.7190
   32MOL0     H 4285  10.571   3.243  13.135  2.2581  1.4819 -0.5642
   32MOL0     H 4286  10.657   3.135  13.297  2.2240 -0.3003 -2.2742
   32MOL0     H 4287  10.550   2.994  13.290 -0.7622  1.2262 -1.6158
   32MOL0     H 4288  10.852   3.029  13.373  1.3989 -3.1347 -1.3935
   32MOL0     H 4289  10.728   2.994  13.489 -1.2493  0.3864  0.5581
   32MOL0     H 4290  10.879   2.795  13.413 -0.0899  3.3474  1.4576
   32MOL0     H 4291  10.781   2.777  13.261 -0.4298  1.3939 -0.0953
   32MOL0     H 4292  10.657   2.749  13.540  1.8234 -0.2551 -0.4568
   32MOL0     H 4293  10.561   2.770  13.392  0.3745 -0.5619  0.3830
   32MOL0     H 4294  10.743   2.545  13.481 -2.8279  2.1895  5.0937
   32MOL0     H 4295  10.694   2.560  13.309 -2.1354 -0.8279 -0.5368
   32MOL0     H 4296  10.523   2.527  13.559  1.1414  1.9697 -0.1746
   32MOL0     H 4297  10.456   2.561  13.407  0.9369  2.9401  2.6474
   32MOL0     H 4298  10.620   2.317  13.473 -1.8354  0.4079  2.0889
   32MOL0     H 4299  10.571   2.349  13.305  0.3662  0.6891 -0.3505
   32MOL0     H 4300  10.391   2.308  13.545  0.4525 -0.7525  0.1886
   32MOL0     H 4301  10.434   2.188  13.414 -0.5865  0.1506 -2.2778
   32MOL0     H 4302  10.663   2.870  12.913 -2.5473 -1.4142 -2.2437
   32MOL0     H 4303  10.515   2.950  12.730  4.7161 -3.0616  0.2989
   32MOL0     H 4304  10.203   3.045  12.547 -0.4663  1.5049  2.3308
   32MOL0     H 4305  10.035   3.080  12.399  1.8967 -1.5682  4.6207
   32MOL0     H 4306   9.887   1.958  11.548 -0.2592  1.3481 -0.0187
   32MOL0     H 4307   9.852   1.843  11.348 -1.0896  0.0197  1.3282
   32MOL0     H 4308  10.015   1.894  10.878  3.7663 -2.8569  1.4920
   32MOL0     H 4309   9.943   1.850  10.650 -1.4281  1.2546  1.5502
   32MOL0     H 4310   9.821   1.404  10.563 -2.4922  0.6002  0.1840
   32MOL0     H 4311   9.853   1.485  10.413  1.1232  0.0879 -0.5267
   32MOL0     H 4312  10.071   1.569  10.580 -0.3360  0.3418 -0.3959
   32MOL0     H 4313  10.073   1.437  10.453  0.9822  1.6504 -1.2869
   32MOL0     H 4314  10.049   1.272  10.584  3.4808 -0.8863  0.8510
   32MOL0     H 4315   9.989   1.364  10.731 -0.3045  0.8431 -0.0524
   32MOL0     H 4316  10.272   1.357  10.638  1.3249 -1.3077  2.0739
   32MOL0     H 4317  10.191   1.280  10.776  0.3648  0.2562  0.2690
   32MOL0     H 4318  10.210   1.656  10.940 -2.4782 -0.5756 -0.8146
   32MOL0     H 4319   9.749   1.487  10.783  0.1937  0.5491  0.5920
   32MOL0     H 4320   9.845   1.522  11.004  0.3859  0.8628  0.7123
   33MOL0     O 4321   6.813   1.645   0.696 -0.7199  0.4888  0.0260
   33MOL0     C 4322   6.833   1.730   0.611  0.0810 -0.1947  0.0346
   33MOL0     O 4323   6.811   1.711   0.479 -0.6365 -0.7529  0.0878
   33MOL0     C 4324   6.780   1.593   0.416 -0.9260  0.9925 -0.5713
   33MOL0     C 4325   6.751   1.596   0.283  0.4182 -0.4728  0.6709
   33MOL0     C 4326   6.734   1.481   0.207  0.5680 -0.5066  0.7662
   33MOL0     C 4327   6.727   1.355   0.259 -0.0783 -1.0303 -0.2506
   33MOL0     O 4328   6.705   1.245   0.182  0.3260 -0.5534  0.3702
   33MOL0     C 4329   6.606   1.160   0.237 -0.2082 -0.3277 -0.1687
   33MOL0     C 4330   6.568   1.051   0.138 -0.7316 -1.0724  0.1431
   33MOL0     C 4331   6.689   0.980   0.075  1.0383 -0.2849 -0.4507
   33MOL0     C 4332   6.647   0.892  -0.048  0.2066  0.4055  0.0840
   33MOL0     C 4333   6.778   0.837  -0.126 -0.5949  0.6211  0.0172
   33MOL0     C 4334   6.851   0.950  -0.193 -0.8257  0.2809 -0.3785
   33MOL0     C 4335   6.952   0.892  -0.299  0.1633  0.7117  1.0319
   33MOL0     C 4336   7.053   0.987  -0.361 -1.1557  1.0826  0.2292
   33MOL0     N 4337   7.003   1.119  -0.392 -0.3586  0.5287  0.0916
   33MOL0     C 4338   6.988   1.223  -0.304  0.0460 -0.1083  0.9343
   33MOL0     C 4339   6.944   1.318  -0.390  0.1292 -0.3418 -1.1829
   33MOL0     C 4340   6.903   1.442  -0.319  0.2511  0.6083  0.0592
   33MOL0     C 4341   6.761   1.421  -0.264 -0.2446  0.7602  0.5821
   33MOL0     C 4342   6.656   1.386  -0.372 -0.4463 -0.7324 -0.3416
   33MOL0     C 4343   6.511   1.415  -0.322 -0.1262  0.9880  1.8462
   33MOL0     O 4344   6.446   1.315  -0.230  0.2392  0.0921 -0.1025
   33MOL0     C 4345   6.411   1.190  -0.279  0.9805 -0.6596 -0.8577
   33MOL0     C 4346   6.374   1.091  -0.192  1.4615  1.2202  0.0268
   33MOL0     C 4347   6.331   0.959  -0.239  0.8727  0.5171  0.1428
   33MOL0     C 4348   6.268   0.868  -0.144  0.2041  0.1538  0.2209
   33MOL0     C 4349   6.336   0.935  -0.378 -0.4341 -0.3859  0.1344
   33MOL0     C 4350   6.314   0.802  -0.438  1.7260 -0.4169  0.9038
   33MOL0     O 4351   6.314   0.807  -0.579 -0.5476 -0.6039  0.0257
   33MOL0     C 4352   6.347   0.692  -0.640  0.4932 -1.3233  0.1956
   33MOL0     C 4353   6.479   0.644  -0.619 -0.2859  0.3547  1.2191
   33MOL0     C 4354   6.517   0.530  -0.683 -0.1555 -0.5679 -1.0545
   33MOL0     C 4355   6.431   0.449  -0.764  0.0836  0.2466  0.2461
   33MOL0     O 4356   6.470   0.334  -0.820  0.2618 -0.0991  0.2903
   33MOL0     C 4357   6.539   0.243  -0.747  0.6361  0.0121  0.2202
   33MOL0     C 4358   6.494   0.108  -0.787 -0.9029 -0.2045 -0.4499
   33MOL0     C 4359   6.348   0.095  -0.770 -0.2074 -0.3763 -0.3305
   33MOL0     C 4360   6.301  -0.031  -0.843  0.1665  0.8056  0.4578
   33MOL0     C 4361   6.155  -0.059  -0.821 -0.0760 -1.1776  0.7801
   33MOL0     C 4362   6.102  -0.188  -0.892  0.1758 -0.1359 -1.3396
   33MOL0     C 4363   5.948  -0.180  -0.892  0.3091  0.0863  0.9658
   33MOL0     C 4364   5.879  -0.312  -0.920  0.7506 -0.4103 -0.5353
   33MOL0    Cl 4365   5.891  -0.367  -1.084 -0.1588  0.0232  0.3639
   33MOL0     C 4366   6.298   0.503  -0.784 -0.2803  0.4835 -1.0196
   33MOL0     C 4367   6.257   0.625  -0.719 -0.8690  0.0917  0.2039
   33MOL0     O 4368   6.295   0.697  -0.373  0.3134 -0.5282 -0.6130
   33MOL0     C 4369   6.372   1.044  -0.458 -0.1095  0.4310 -0.5019
   33MOL0     C 4370   6.411   1.166  -0.410 -0.4755  0.6136 -0.3425
   33MOL0     N 4371   6.912   1.274  -0.515  0.6815 -0.4370  0.8125
   33MOL0     N 4372   6.946   1.149  -0.516 -0.9619 -0.3427 -0.4118
   33MOL0     C 4373   6.756   1.347   0.402 -0.6505 -0.0184 -0.6170
   33MOL0     C 4374   6.784   1.466   0.477  0.2322  0.2735 -0.0340
   33MOL0     C 4375   6.911   1.851   0.646 -0.3792 -0.0607 -0.0965
   33MOL0     C 4376   6.925   1.946   0.549  0.6503  0.1174  0.6770
   33MOL0     C 4377   7.006   2.056   0.566 -0.6901 -0.2126  0.2647
   33MOL0     C 4378   7.059   2.096   0.688  1.3086  0.9473 -0.5544
   33MOL0     O 4379   7.134   2.202   0.706  0.4531  0.2735  0.6355
   33MOL0     C 4380   7.165   2.297   0.602 -0.5027 -0.4689  0.2505
   33MOL0     C 4381   7.262   2.405   0.650 -0.1946  0.2973  0.9487
   33MOL0     C 4382   7.205   2.475   0.770 -0.2151  1.6257 -0.1018
   33MOL0     C 4383   7.259   2.613   0.797  0.6275  0.4520 -0.5320
   33MOL0     C 4384   7.238   2.700   0.684  0.0004  0.6998 -1.0707
   33MOL0     C 4385   7.222   2.791   0.607 -0.4174  0.5287  0.3220
   33MOL0     C 4386   7.039   1.993   0.790 -0.5772 -1.0567  1.2880
   33MOL0     C 4387   6.971   1.877   0.771  0.0175  0.4284  0.4310
   33MOL0     H 4388   6.730   1.692   0.237  1.6077  0.5029  2.0848
   33MOL0     H 4389   6.725   1.479   0.099  2.3799 -0.4861  0.5761
   33MOL0     H 4390   6.653   1.116   0.326 -1.7462  1.7363  1.7901
   33MOL0     H 4391   6.525   1.214   0.286  1.5665 -0.0667  2.7506
   33MOL0     H 4392   6.510   0.984   0.202 -1.7383 -0.0016  0.3697
   33MOL0     H 4393   6.504   1.100   0.064 -0.3556 -1.2291 -0.2907
   33MOL0     H 4394   6.760   1.058   0.045  1.0792 -0.4374 -0.7524
   33MOL0     H 4395   6.729   0.913   0.151 -1.6686 -0.7113  0.6934
   33MOL0     H 4396   6.583   0.816  -0.004 -3.2341  5.1337  4.4123
   33MOL0     H 4397   6.579   0.946  -0.115 -2.8373 -1.7488  1.2096
   33MOL0     H 4398   6.840   0.787  -0.051  0.1043  3.0220  1.1322
   33MOL0     H 4399   6.749   0.759  -0.197  0.8723  1.6965 -1.8445
   33MOL0     H 4400   6.781   1.022  -0.235  0.4634  1.4454 -0.5894
   33MOL0     H 4401   6.919   1.011  -0.132 -1.2791  3.9651 -3.2210
   33MOL0     H 4402   7.007   0.818  -0.239 -0.0005 -1.0420 -0.8753
   33MOL0     H 4403   6.897   0.838  -0.376  4.4560 -2.5016 -0.1729
   33MOL0     H 4404   7.085   0.942  -0.456 -1.2463  3.0341 -0.7919
   33MOL0     H 4405   7.138   1.001  -0.293 -1.9717  2.1446  1.0628
   33MOL0     H 4406   7.010   1.228  -0.198  1.9115 -2.8827  0.7772
   33MOL0     H 4407   6.966   1.475  -0.236  0.6937  2.4041 -0.9307
   33MOL0     H 4408   6.912   1.528  -0.386  0.8577  0.2761 -0.2935
   33MOL0     H 4409   6.722   1.507  -0.210  1.3231  1.2725  0.9264
   33MOL0     H 4410   6.767   1.335  -0.197  2.2809  0.3137 -0.1000
   33MOL0     H 4411   6.663   1.279  -0.389  2.2350 -0.8279  0.8252
   33MOL0     H 4412   6.678   1.459  -0.451  0.2224  0.2833  0.7479
   33MOL0     H 4413   6.449   1.434  -0.410  2.6916 -2.1009 -1.0714
   33MOL0     H 4414   6.506   1.513  -0.274 -0.5668  2.6623 -1.3280
   33MOL0     H 4415   6.372   1.116  -0.087 -2.1248  2.6220 -0.2082
   33MOL0     H 4416   6.189   0.801  -0.180 -0.3395  0.0082  1.5936
   33MOL0     H 4417   6.354   0.816  -0.100  0.1520  1.0128  1.3776
   33MOL0     H 4418   6.204   0.927  -0.078 -2.5926  0.9963 -2.9959
   33MOL0     H 4419   6.558   0.692  -0.562  1.4264  1.7985 -2.1075
   33MOL0     H 4420   6.614   0.497  -0.647  0.6527  1.9938 -0.7029
   33MOL0     H 4421   6.647   0.256  -0.760  0.6127  1.1929  1.0950
   33MOL0     H 4422   6.524   0.261  -0.640  2.1867  3.7190 -0.0460
   33MOL0     H 4423   6.531   0.087  -0.888  0.1639  3.1598 -0.8916
   33MOL0     H 4424   6.547   0.041  -0.718  1.6056  2.9176  0.9507
   33MOL0     H 4425   6.290   0.176  -0.815  1.3857  1.1441  0.2596
   33MOL0     H 4426   6.329   0.087  -0.663 -0.1096 -1.9304 -0.4075
   33MOL0     H 4427   6.320  -0.026  -0.950 -0.9849  0.5317  0.2287
   33MOL0     H 4428   6.353  -0.122  -0.810  2.0314  0.6243 -2.5946
   33MOL0     H 4429   6.100   0.034  -0.839  0.3726  0.2457  5.5443
   33MOL0     H 4430   6.145  -0.068  -0.713 -3.9320 -0.1276  0.6504
   33MOL0     H 4431   6.136  -0.204  -0.995 -0.7837 -4.6127 -1.1666
   33MOL0     H 4432   6.128  -0.268  -0.822 -0.9991  1.6990  1.3610
   33MOL0     H 4433   5.924  -0.104  -0.967  1.1932 -1.9141 -1.4582
   33MOL0     H 4434   5.915  -0.139  -0.796  0.9562  0.8571  0.8792
   33MOL0     H 4435   5.776  -0.313  -0.883  0.8592 -1.7269 -0.1860
   33MOL0     H 4436   5.916  -0.397  -0.861 -1.7416 -1.2032  0.0108
   33MOL0     H 4437   6.238   0.463  -0.865  1.1648  1.8346 -2.8543
   33MOL0     H 4438   6.158   0.666  -0.734 -1.6714 -0.5720  3.0516
   33MOL0     H 4439   6.380   1.039  -0.566 -0.7544 -1.0182 -0.4982
   33MOL0     H 4440   6.443   1.239  -0.484  0.6111  0.3282 -0.1775
   33MOL0     H 4441   6.761   1.250   0.451 -1.7736 -0.7829 -1.9247
   33MOL0     H 4442   6.795   1.459   0.585 -1.4009 -0.5345  0.1147
   33MOL0     H 4443   6.875   1.926   0.455 -1.6095 -0.3141  1.9002
   33MOL0     H 4444   7.019   2.128   0.486  1.9206 -1.2963 -0.3640
   33MOL0     H 4445   7.215   2.243   0.521 -0.2012  1.5902 -1.0225
   33MOL0     H 4446   7.077   2.347   0.560  0.1605 -0.1849 -0.8269
   33MOL0     H 4447   7.272   2.469   0.562 -2.9008 -0.6898 -0.2142
   33MOL0     H 4448   7.347   2.347   0.686 -0.9312 -0.0710  2.1486
   33MOL0     H 4449   7.211   2.408   0.857 -0.5415 -0.8361 -1.8845
   33MOL0     H 4450   7.099   2.489   0.748 -0.5384  0.4736  0.6155
   33MOL0     H 4451   7.367   2.603   0.809  0.4808 -2.0187 -0.6726
   33MOL0     H 4452   7.202   2.655   0.880  1.3991 -0.9498  0.7580
   33MOL0     H 4453   7.200   2.876   0.545  0.5190  1.4106  1.1533
   33MOL0     H 4454   7.079   2.027   0.884 -0.6743  0.3994  0.8197
   33MOL0     H 4455   6.950   1.802   0.847  2.1766 -0.6960 -0.0063
   34MOL0     O 4456   4.601   5.503   9.802 -0.0925  0.6910  0.6111
   34MOL0     C 4457   4.505   5.527   9.727  1.6608  0.1873  0.1704
   34MOL0     O 4458   4.515   5.571   9.595  0.4581  0.0250 -0.7591
   34MOL0     C 4459   4.643   5.577   9.536  0.3908  0.2073  0.2895
   34MOL0     C 4460   4.658   5.484   9.431  0.5527 -0.2548 -0.3669
   34MOL0     C 4461   4.774   5.494   9.358  0.9225 -0.7756  0.7719
   34MOL0     C 4462   4.872   5.596   9.383  0.4056  0.4526 -0.0955
   34MOL0     O 4463   4.978   5.605   9.297 -0.3645 -0.1207 -1.1339
   34MOL0     C 4464   5.032   5.737   9.268  0.2937 -0.5113 -0.2105
   34MOL0     C 4465   5.119   5.729   9.142 -1.1443  0.6558 -0.1495
   34MOL0     C 4466   5.134   5.858   9.061 -0.3314 -0.1664  0.8365
   34MOL0     C 4467   5.241   5.960   9.116  0.1627 -0.4336  0.4366
   34MOL0     C 4468   5.239   6.094   9.039 -0.4230 -0.0772 -0.4962
   34MOL0     C 4469   5.359   6.193   9.064  0.1861  0.6100  0.3048
   34MOL0     C 4470   5.501   6.136   9.068  0.0900 -0.0060 -0.7892
   34MOL0     C 4471   5.576   6.125   8.932  0.6031  0.1715 -0.5613
   34MOL0     N 4472   5.592   6.257   8.885 -0.3105 -0.6601  0.0273
   34MOL0     C 4473   5.691   6.346   8.923  0.3324 -0.1278 -0.4680
   34MOL0     C 4474   5.676   6.451   8.839 -0.1967  0.3502 -0.5561
   34MOL0     C 4475   5.774   6.572   8.833  0.0728 -0.4930  0.6337
   34MOL0     C 4476   5.738   6.666   8.718  0.6468 -0.8586  1.4198
   34MOL0     C 4477   5.816   6.795   8.721 -0.6625  0.4464 -0.9412
   34MOL0     C 4478   5.878   6.839   8.860  0.7038 -0.0468  1.0207
   34MOL0     O 4479   5.947   6.963   8.826  0.5639  0.4632  0.6001
   34MOL0     C 4480   5.947   7.062   8.920 -0.1431  0.2268 -0.0068
   34MOL0     C 4481   6.071   7.107   8.974 -1.0524  0.4762  1.0265
   34MOL0     C 4482   6.066   7.214   9.072  0.0450 -0.1513 -0.1235
   34MOL0     C 4483   6.194   7.283   9.117 -0.3162  0.4836 -1.0826
   34MOL0     C 4484   5.935   7.248   9.128 -0.7393  0.0049  0.0570
   34MOL0     C 4485   5.943   7.324   9.254 -0.0928 -0.7862 -0.8550
   34MOL0     O 4486   6.031   7.276   9.351  0.1657  0.1147  0.3156
   34MOL0     C 4487   6.049   7.356   9.463 -1.0347  0.5370  0.4559
   34MOL0     C 4488   6.124   7.475   9.468  0.5744  0.6382  0.4729
   34MOL0     C 4489   6.162   7.526   9.595 -0.9109 -0.0436  0.4350
   34MOL0     C 4490   6.152   7.446   9.711  0.1924  0.1184 -0.5461
   34MOL0     O 4491   6.196   7.479   9.843  0.3812  0.6384  0.9302
   34MOL0     C 4492   6.206   7.623   9.865 -0.3259 -1.2163 -1.2073
   34MOL0     C 4493   6.225   7.660  10.012  0.0546 -0.3969  0.2135
   34MOL0     C 4494   6.376   7.683  10.045  0.3361 -0.2274  0.4191
   34MOL0     C 4495   6.393   7.685  10.200 -0.0674 -0.1676 -0.2748
   34MOL0     C 4496   6.389   7.827  10.258  0.1094 -0.1020 -0.5049
   34MOL0     C 4497   6.456   7.820  10.398  0.4508 -0.1020  0.7830
   34MOL0     C 4498   6.417   7.932  10.491  0.2186  0.0012 -0.3213
   34MOL0     C 4499   6.301   7.895  10.580  0.0247  0.9575 -0.8426
   34MOL0    Cl 4500   6.227   8.046  10.668 -0.1053  0.1468  0.1448
   34MOL0     C 4501   6.062   7.339   9.714 -0.1679  0.1410  0.1793
   34MOL0     C 4502   6.012   7.296   9.586 -0.1059  1.4946 -0.6296
   34MOL0     O 4503   5.864   7.418   9.263 -0.6064  0.5978 -0.0231
   34MOL0     C 4504   5.815   7.212   9.063  0.9963  0.7896 -0.3197
   34MOL0     C 4505   5.825   7.113   8.966  0.3635  0.3539  0.3471
   34MOL0     N 4506   5.568   6.439   8.754  0.0316  0.0570  0.0513
   34MOL0     N 4507   5.521   6.326   8.783  0.1041  0.6686 -0.2598
   34MOL0     C 4508   4.859   5.679   9.490  1.3726  0.8870 -1.0069
   34MOL0     C 4509   4.743   5.671   9.568 -1.0741 -0.8929  0.2246
   34MOL0     C 4510   4.364   5.550   9.785 -0.7816 -0.8957 -0.2345
   34MOL0     C 4511   4.363   5.548   9.930  0.6068  0.6817 -0.8203
   34MOL0     C 4512   4.234   5.580   9.989  1.0025 -0.8059  0.1135
   34MOL0     C 4513   4.119   5.615   9.914  0.5480 -0.7267  0.1296
   34MOL0     O 4514   3.992   5.638   9.968 -0.2658 -0.4205 -0.2246
   34MOL0     C 4515   3.974   5.618  10.117  0.0973  0.0066  1.2197
   34MOL0     C 4516   3.837   5.656  10.149 -0.0086 -1.2818  0.0694
   34MOL0     C 4517   3.789   5.626  10.288  0.1536 -0.1091  0.7398
   34MOL0     C 4518   3.637   5.665  10.306 -0.4706 -0.5855 -0.2158
   34MOL0     C 4519   3.620   5.812  10.297 -0.1768 -0.2475 -0.7533
   34MOL0     C 4520   3.607   5.929  10.288  0.1460 -0.4946  0.5162
   34MOL0     C 4521   4.129   5.613   9.773 -0.4719  0.1194 -0.2948
   34MOL0     C 4522   4.243   5.587   9.708 -0.5033 -1.4193  0.4432
   34MOL0     H 4523   4.590   5.413   9.384  1.0455 -1.1114  0.1825
   34MOL0     H 4524   4.788   5.410   9.290  3.4775 -0.6845  1.0956
   34MOL0     H 4525   4.948   5.806   9.253 -0.8463 -1.1628  2.5581
   34MOL0     H 4526   5.106   5.766   9.344  0.3580  2.6488 -1.3531
   34MOL0     H 4527   5.219   5.702   9.177 -1.8461 -2.3612 -0.1518
   34MOL0     H 4528   5.085   5.637   9.093 -1.1874  0.3802  0.3985
   34MOL0     H 4529   5.164   5.836   8.959  1.0790  2.1136  0.6838
   34MOL0     H 4530   5.033   5.899   9.057  0.0532  0.7327 -0.1360
   34MOL0     H 4531   5.230   5.982   9.223 -3.0842  1.8760 -0.2083
   34MOL0     H 4532   5.335   5.907   9.102 -0.2342 -0.4852 -2.7362
   34MOL0     H 4533   5.244   6.070   8.932  1.1602  3.1895 -1.2565
   34MOL0     H 4534   5.151   6.156   9.056  1.7510  3.1182 -0.1487
   34MOL0     H 4535   5.355   6.285   9.005  0.0055  0.9617  0.8634
   34MOL0     H 4536   5.339   6.228   9.165 -3.7069 -1.1745  0.3442
   34MOL0     H 4537   5.559   6.186   9.146  1.6329 -0.3496 -1.6778
   34MOL0     H 4538   5.492   6.038   9.114 -2.1826  0.6682  0.3655
   34MOL0     H 4539   5.505   6.082   8.860  0.5757 -3.0276  1.2065
   34MOL0     H 4540   5.664   6.061   8.942  0.1444 -0.1862  1.7163
   34MOL0     H 4541   5.765   6.322   8.998 -0.8214  0.2147  0.8363
   34MOL0     H 4542   5.762   6.627   8.927  2.0346  3.2587 -1.0915
   34MOL0     H 4543   5.878   6.540   8.821  0.3947  0.8785 -0.4318
   34MOL0     H 4544   5.632   6.694   8.714  1.4566  2.6034 -1.9937
   34MOL0     H 4545   5.750   6.623   8.618 -1.8163  0.9650  0.2123
   34MOL0     H 4546   5.743   6.872   8.691  1.5118  4.2750  2.5201
   34MOL0     H 4547   5.900   6.789   8.651  2.6337 -3.0953  2.8144
   34MOL0     H 4548   5.951   6.767   8.900  0.5981 -1.6220 -1.4245
   34MOL0     H 4549   5.796   6.852   8.931 -1.0261  3.3885 -1.3322
   34MOL0     H 4550   6.162   7.081   8.919 -0.9362 -2.0925  2.2588
   34MOL0     H 4551   6.198   7.388   9.089  1.3222  1.7555  3.0966
   34MOL0     H 4552   6.219   7.275   9.223  1.3871 -0.8759 -1.5394
   34MOL0     H 4553   6.280   7.237   9.067  0.8078  0.2732  0.9291
   34MOL0     H 4554   6.143   7.530   9.377 -0.1373  0.1506  0.0216
   34MOL0     H 4555   6.203   7.626   9.603 -3.2317  1.2354 -2.0663
   34MOL0     H 4556   6.289   7.649   9.800  1.8355 -0.6394  1.6007
   34MOL0     H 4557   6.111   7.667   9.831  1.0158  0.9167 -2.4186
   34MOL0     H 4558   6.184   7.760  10.027  3.6346  1.1152  1.0105
   34MOL0     H 4559   6.183   7.584  10.079  4.4574 -2.0484  1.4434
   34MOL0     H 4560   6.421   7.773  10.002 -1.8939  0.4847 -0.6259
   34MOL0     H 4561   6.440   7.604  10.007  2.4991  1.4860  0.3343
   34MOL0     H 4562   6.330   7.615  10.256  0.2222  1.5854  2.4145
   34MOL0     H 4563   6.497   7.651  10.200 -0.4746 -1.4632 -0.7110
   34MOL0     H 4564   6.283   7.853  10.271  0.1878 -0.7435  1.9721
   34MOL0     H 4565   6.436   7.898  10.190  3.3155  0.6047  2.2052
   34MOL0     H 4566   6.417   7.729  10.444  2.5316 -0.3450  2.2050
   34MOL0     H 4567   6.565   7.812  10.408  0.4814  0.9411  1.4228
   34MOL0     H 4568   6.410   8.035  10.453  0.3649 -0.0937 -0.6055
   34MOL0     H 4569   6.493   7.950  10.567  2.2039 -0.8254 -2.0155
   34MOL0     H 4570   6.318   7.814  10.651  0.2842  1.9112  0.2090
   34MOL0     H 4571   6.216   7.865  10.519 -0.5895 -0.2068  0.5220
   34MOL0     H 4572   6.047   7.287   9.807 -0.6545 -2.0640 -1.0601
   34MOL0     H 4573   5.934   7.222   9.574  1.4328 -0.3038  0.0755
   34MOL0     H 4574   5.713   7.229   9.096  0.2114 -1.1967 -1.5520
   34MOL0     H 4575   5.733   7.084   8.915  2.0898 -0.2620 -2.6389
   34MOL0     H 4576   4.946   5.739   9.512  1.0988  0.7784  0.4926
   34MOL0     H 4577   4.741   5.725   9.662 -2.5792  2.0995 -1.4034
   34MOL0     H 4578   4.442   5.509   9.993 -1.6676  0.3634  2.0755
   34MOL0     H 4579   4.220   5.570  10.096 -1.3575 -4.0586 -0.3710
   34MOL0     H 4580   3.992   5.513  10.142  0.0910 -0.9173 -2.1103
   34MOL0     H 4581   4.037   5.697  10.158  0.6827  0.5581 -0.6399
   34MOL0     H 4582   3.776   5.588  10.088 -1.6405 -0.0571  0.2467
   34MOL0     H 4583   3.813   5.753  10.104 -1.9111 -2.2399 -1.1031
   34MOL0     H 4584   3.850   5.691  10.352 -0.7306  2.2840 -0.7296
   34MOL0     H 4585   3.819   5.523  10.309 -1.7957 -0.6776  0.8595
   34MOL0     H 4586   3.604   5.631  10.405 -0.7405  3.4001  1.2377
   34MOL0     H 4587   3.574   5.613  10.233 -1.4821 -0.8739  0.8096
   34MOL0     H 4588   3.609   6.036  10.283 -3.5429 -0.3502 -1.4305
   34MOL0     H 4589   4.041   5.625   9.710 -1.4796  1.5129  1.2860
   34MOL0     H 4590   4.245   5.596   9.600 -1.3428  0.8119  0.5682
   35MOL0     O 4591   3.250   2.104   1.665 -0.1603  0.7399 -0.3958
   35MOL0     C 4592   3.164   2.021   1.641  0.7005 -0.0289 -0.2901
   35MOL0     O 4593   3.109   1.937   1.739  0.0658 -0.1720 -0.0030
   35MOL0     C 4594   3.152   1.929   1.869  0.0500 -0.2098  0.0566
   35MOL0     C 4595   3.056   1.888   1.961 -0.2201  0.2958 -0.8740
   35MOL0     C 4596   3.089   1.880   2.095 -0.6098 -0.0357 -0.9657
   35MOL0     C 4597   3.224   1.874   2.142  0.3483 -0.8831 -0.1430
   35MOL0     O 4598   3.251   1.850   2.273 -0.0057 -0.1312 -0.2941
   35MOL0     C 4599   3.353   1.761   2.316  0.5072  0.2134 -0.0638
   35MOL0     C 4600   3.387   1.798   2.468  0.0271 -0.2325  1.1431
   35MOL0     C 4601   3.286   1.745   2.575 -0.0256 -1.0734  0.3172
   35MOL0     C 4602   3.358   1.750   2.711  0.1696 -0.1421  0.2811
   35MOL0     C 4603   3.270   1.711   2.830  0.0183 -1.0958 -0.4059
   35MOL0     C 4604   3.266   1.562   2.861 -0.4249  1.0865 -0.1553
   35MOL0     C 4605   3.260   1.523   3.005 -0.2005  0.0942 -0.1731
   35MOL0     C 4606   3.128   1.572   3.069  0.1877 -0.0055  0.3178
   35MOL0     N 4607   3.005   1.546   2.988  0.0744 -0.5204  0.4705
   35MOL0     C 4608   2.906   1.638   2.956  0.3850 -0.4040 -0.1740
   35MOL0     C 4609   2.822   1.563   2.887 -0.2455 -0.2381 -0.0007
   35MOL0     C 4610   2.697   1.622   2.820  0.1644  0.2418  0.0994
   35MOL0     C 4611   2.588   1.668   2.924  0.4623  1.3427  0.5729
   35MOL0     C 4612   2.506   1.782   2.868  0.4345 -0.1889  0.6260
   35MOL0     C 4613   2.564   1.924   2.905 -0.3370 -0.0161  0.4707
   35MOL0     O 4614   2.473   2.015   2.850 -0.6676  0.5120  0.8579
   35MOL0     C 4615   2.471   2.033   2.716  0.9664 -1.0634  0.2354
   35MOL0     C 4616   2.343   2.096   2.687 -0.1396  0.0900 -0.1123
   35MOL0     C 4617   2.318   2.130   2.551 -0.4271 -0.8810 -0.4872
   35MOL0     C 4618   2.185   2.199   2.528  0.5668 -0.0718  1.1374
   35MOL0     C 4619   2.405   2.111   2.442 -0.9225  0.4690 -0.5686
   35MOL0     C 4620   2.386   2.162   2.300 -0.0739 -0.8169 -0.3390
   35MOL0     O 4621   2.299   2.265   2.281  0.0186  0.5250 -0.4077
   35MOL0     C 4622   2.260   2.294   2.150  0.2748  0.9663 -1.1869
   35MOL0     C 4623   2.279   2.425   2.092  0.0828  0.5760  0.1090
   35MOL0     C 4624   2.269   2.445   1.952  0.6293 -0.6842 -0.1174
   35MOL0     C 4625   2.202   2.350   1.876  0.8191 -1.2145  1.2402
   35MOL0     O 4626   2.156   2.369   1.743 -0.1177 -0.2446 -0.0256
   35MOL0     C 4627   2.267   2.409   1.649  0.4887 -0.6803 -0.1549
   35MOL0     C 4628   2.361   2.288   1.619  0.4922  0.9694 -0.2067
   35MOL0     C 4629   2.265   2.162   1.588  0.5045  0.2477  0.3146
   35MOL0     C 4630   2.231   2.139   1.438 -0.3244 -0.4881 -1.0660
   35MOL0     C 4631   2.152   2.007   1.404  0.1680 -0.7696  0.9680
   35MOL0     C 4632   2.182   1.948   1.270  0.7562  0.3958 -0.4431
   35MOL0     C 4633   2.143   2.043   1.162 -0.0769  1.2008  0.3362
   35MOL0     C 4634   2.254   2.071   1.062  0.6084  0.3138 -0.0630
   35MOL0    Cl 4635   2.314   1.920   0.988  0.4779  0.5216  0.3141
   35MOL0     C 4636   2.164   2.228   1.940  0.4940  0.5475  1.0225
   35MOL0     C 4637   2.187   2.205   2.072  0.6081 -0.2358 -0.3490
   35MOL0     O 4638   2.457   2.107   2.214  1.4434  0.7241  0.4808
   35MOL0     C 4639   2.537   2.050   2.474 -0.4115  0.0373 -0.6969
   35MOL0     C 4640   2.560   2.007   2.609 -0.2976 -0.5425 -0.2312
   35MOL0     N 4641   2.861   1.439   2.874 -0.8100  0.4448  0.5136
   35MOL0     N 4642   2.968   1.426   2.942  0.3423  0.4237  0.8534
   35MOL0     C 4643   3.320   1.894   2.045  0.2351 -0.0009 -0.8990
   35MOL0     C 4644   3.280   1.923   1.917  0.1616  0.3562  0.3060
   35MOL0     C 4645   3.117   1.989   1.509  0.7614 -0.1613 -0.4069
   35MOL0     C 4646   3.176   2.043   1.392 -1.0044  0.0690 -0.1395
   35MOL0     C 4647   3.140   1.992   1.272  0.1188 -0.4870 -0.0757
   35MOL0     C 4648   3.048   1.886   1.255 -0.3416 -0.4636  0.2270
   35MOL0     O 4649   3.017   1.823   1.128  0.0189 -1.0431 -0.2537
   35MOL0     C 4650   3.091   1.851   1.010 -1.0656 -0.0923  0.1634
   35MOL0     C 4651   3.036   1.964   0.938  0.0373 -0.2965 -0.1068
   35MOL0     C 4652   2.892   1.921   0.885  0.3158 -0.7082  0.3982
   35MOL0     C 4653   2.795   2.045   0.882 -0.4151 -0.2803  1.0724
   35MOL0     C 4654   2.747   2.076   1.016 -0.3532 -0.1009  0.1289
   35MOL0     C 4655   2.710   2.097   1.131 -0.6327  0.4058 -0.6688
   35MOL0     C 4656   2.979   1.844   1.366  0.0811 -0.8700 -0.1071
   35MOL0     C 4657   3.015   1.892   1.490  0.6403 -0.1496 -0.6473
   35MOL0     H 4658   2.955   1.875   1.922 -0.6326 -1.3247  0.5809
   35MOL0     H 4659   3.008   1.887   2.167 -0.7531  1.4744 -1.2355
   35MOL0     H 4660   3.316   1.658   2.315  1.3537 -0.1151  0.5340
   35MOL0     H 4661   3.450   1.772   2.265  0.9008 -0.0263  0.6193
   35MOL0     H 4662   3.488   1.756   2.476  1.7798  2.2631 -3.6988
   35MOL0     H 4663   3.399   1.906   2.477  1.2941 -0.2865  0.3552
   35MOL0     H 4664   3.198   1.810   2.581 -0.3939 -1.3170 -1.8034
   35MOL0     H 4665   3.263   1.640   2.552 -0.6440 -0.4297 -2.3525
   35MOL0     H 4666   3.444   1.684   2.700  0.2795  0.1730 -0.8854
   35MOL0     H 4667   3.385   1.855   2.725 -0.2737  0.0007  0.1209
   35MOL0     H 4668   3.303   1.766   2.919 -1.5677 -0.8167  0.0473
   35MOL0     H 4669   3.170   1.756   2.823  1.5393  2.7096 -0.1878
   35MOL0     H 4670   3.185   1.518   2.802 -1.3564  2.0795  0.3562
   35MOL0     H 4671   3.351   1.504   2.824  2.3894  3.1074  2.7212
   35MOL0     H 4672   3.271   1.415   3.013  2.3959  0.3565  0.5357
   35MOL0     H 4673   3.336   1.568   3.068 -1.7743  1.0995  1.0893
   35MOL0     H 4674   3.142   1.679   3.087  2.4881 -0.2800  0.5018
   35MOL0     H 4675   3.125   1.524   3.168  0.9624 -0.7691 -0.0143
   35MOL0     H 4676   2.895   1.746   2.960 -2.3290 -0.5650 -1.3448
   35MOL0     H 4677   2.743   1.702   2.762  2.1590 -0.7616  0.2141
   35MOL0     H 4678   2.647   1.555   2.749 -0.4925 -1.7541  2.3283
   35MOL0     H 4679   2.633   1.685   3.023  2.0122 -2.8436  0.8038
   35MOL0     H 4680   2.529   1.576   2.935  2.8095 -0.2754  0.3357
   35MOL0     H 4681   2.405   1.776   2.909  0.1043  2.3969  0.3963
   35MOL0     H 4682   2.506   1.773   2.759  1.5431 -2.8151  0.7726
   35MOL0     H 4683   2.662   1.929   2.858 -0.7440 -1.1321 -0.5491
   35MOL0     H 4684   2.567   1.943   3.013  1.6372  2.9142 -0.0003
   35MOL0     H 4685   2.273   2.109   2.769  0.3779  0.2288  0.3172
   35MOL0     H 4686   2.121   2.154   2.604  0.8844 -2.5523  0.0146
   35MOL0     H 4687   2.180   2.305   2.556  0.4125  0.9516 -2.3331
   35MOL0     H 4688   2.146   2.171   2.430  1.4999  0.6628  0.5326
   35MOL0     H 4689   2.324   2.505   2.149  1.0938  1.5563 -1.9507
   35MOL0     H 4690   2.287   2.542   1.905  0.0265 -0.6705 -0.3177
   35MOL0     H 4691   2.213   2.442   1.559 -0.7552 -4.0673 -0.8051
   35MOL0     H 4692   2.328   2.486   1.696  2.7693 -1.4450 -1.6848
   35MOL0     H 4693   2.424   2.308   1.532 -1.5141  1.4958 -1.5958
   35MOL0     H 4694   2.421   2.265   1.707  0.8607 -0.0366 -0.7098
   35MOL0     H 4695   2.169   2.168   1.640  1.2312 -0.5608  1.8218
   35MOL0     H 4696   2.310   2.070   1.626  2.0052  1.4195  1.4986
   35MOL0     H 4697   2.165   2.220   1.406  0.2782  1.3099  1.8922
   35MOL0     H 4698   2.327   2.128   1.387  0.6832 -0.1819  0.6705
   35MOL0     H 4699   2.045   2.022   1.418 -0.2740 -1.7628 -0.9462
   35MOL0     H 4700   2.169   1.929   1.479 -4.4620 -0.7791  2.3027
   35MOL0     H 4701   2.286   1.915   1.268  0.1049 -1.7804 -0.2583
   35MOL0     H 4702   2.119   1.861   1.251  0.4955  0.9598 -2.3843
   35MOL0     H 4703   2.103   2.137   1.201 -0.0092  1.7446 -0.8691
   35MOL0     H 4704   2.052   2.002   1.116  0.8201  1.9152 -2.2584
   35MOL0     H 4705   2.341   2.114   1.111 -0.2672  1.0966  0.8289
   35MOL0     H 4706   2.224   2.134   0.978 -0.2568  0.6617  0.5003
   35MOL0     H 4707   2.114   2.143   1.895 -2.2527  1.7726  1.5082
   35MOL0     H 4708   2.151   2.112   2.116 -2.5010 -0.7891 -3.5824
   35MOL0     H 4709   2.620   2.042   2.404  1.4209  1.8647  1.1448
   35MOL0     H 4710   2.655   1.961   2.631 -0.9864 -0.8220  2.5873
   35MOL0     H 4711   3.422   1.880   2.078 -0.1701  1.4810  1.1917
   35MOL0     H 4712   3.360   1.950   1.849  1.4401 -1.0677  1.1871
   35MOL0     H 4713   3.255   2.117   1.401 -1.8515  1.2597 -1.8591
   35MOL0     H 4714   3.190   2.024   1.181  0.2165  0.8307  0.4241
   35MOL0     H 4715   3.197   1.878   1.021 -1.2249  1.2150 -1.2612
   35MOL0     H 4716   3.082   1.765   0.944 -0.5630  0.7080 -0.9752
   35MOL0     H 4717   3.108   1.995   0.862 -0.5419  1.2999 -0.0295
   35MOL0     H 4718   3.038   2.045   1.011  2.8475 -0.8660  0.5941
   35MOL0     H 4719   2.854   1.832   0.935  0.8922 -0.1412  1.8741
   35MOL0     H 4720   2.906   1.891   0.780  1.2264 -0.2782  0.3831
   35MOL0     H 4721   2.706   2.029   0.821  0.3018  0.8566 -0.3386
   35MOL0     H 4722   2.853   2.128   0.840  0.9506 -1.3366  0.7922
   35MOL0     H 4723   2.681   2.137   1.226 -1.8894  0.5003 -1.0696
   35MOL0     H 4724   2.895   1.776   1.372 -0.8283  0.2973  0.6918
   35MOL0     H 4725   2.957   1.869   1.578  1.2272  1.3561  0.1738
   36MOL0     O 4726   7.333   7.748   3.446 -0.1801 -0.4793 -0.5483
   36MOL0     C 4727   7.401   7.842   3.498  0.6839  0.1694  0.2481
   36MOL0     O 4728   7.404   7.972   3.441 -0.6068  0.4948 -0.3563
   36MOL0     C 4729   7.344   7.993   3.319  0.5768 -0.0090 -0.8040
   36MOL0     C 4730   7.365   7.918   3.204 -0.9245  0.0820  0.3572
   36MOL0     C 4731   7.295   7.937   3.078  0.4888  0.7967 -0.2575
   36MOL0     C 4732   7.204   8.037   3.071  1.5957 -0.1832 -0.4733
   36MOL0     O 4733   7.154   8.062   2.946  0.2812  0.3536  0.8707
   36MOL0     C 4734   7.049   8.161   2.931 -0.8001 -0.0785 -0.1878
   36MOL0     C 4735   7.023   8.186   2.781  0.3387  0.3638  0.2456
   36MOL0     C 4736   6.908   8.290   2.757  0.4561  0.2415 -0.4375
   36MOL0     C 4737   6.866   8.284   2.609 -0.4480  0.7733 -0.5114
   36MOL0     C 4738   6.783   8.399   2.556  0.3107  0.9024 -0.0620
   36MOL0     C 4739   6.847   8.542   2.560  0.3641 -1.1128  1.1536
   36MOL0     C 4740   6.763   8.653   2.486  0.0612  0.8067 -0.4531
   36MOL0     C 4741   6.809   8.802   2.514  0.3909 -0.5647  0.0172
   36MOL0     N 4742   6.776   8.897   2.413 -0.0002  0.2172  0.5697
   36MOL0     C 4743   6.736   8.897   2.278 -0.9321 -0.4749 -0.1128
   36MOL0     C 4744   6.773   9.016   2.232 -0.1300  0.4157  0.0920
   36MOL0     C 4745   6.733   9.081   2.094 -0.1818  0.8704  0.7454
   36MOL0     C 4746   6.576   9.100   2.081  0.3885  0.8872 -0.2460
   36MOL0     C 4747   6.548   9.183   1.960 -0.3272 -1.4398  0.3184
   36MOL0     C 4748   6.624   9.318   1.935 -0.2114  0.2456 -0.1626
   36MOL0     O 4749   6.738   9.284   1.860 -0.6724  0.1355 -0.8014
   36MOL0     C 4750   6.719   9.265   1.723  0.6317  0.3320  0.0621
   36MOL0     C 4751   6.827   9.207   1.662  1.3761 -0.0904 -0.1762
   36MOL0     C 4752   6.820   9.170   1.522 -0.3884 -1.1506  0.5496
   36MOL0     C 4753   6.946   9.098   1.470 -0.0891  0.3051 -0.1010
   36MOL0     C 4754   6.720   9.222   1.431 -0.5130 -0.4864 -0.0658
   36MOL0     C 4755   6.696   9.195   1.284 -1.2850 -0.0972 -0.6978
   36MOL0     O 4756   6.589   9.119   1.270 -0.2620 -0.2172 -0.0830
   36MOL0     C 4757   6.598   9.021   1.167  0.0618  0.1350 -0.8029
   36MOL0     C 4758   6.706   8.956   1.109  0.1792  0.4077  0.2589
   36MOL0     C 4759   6.692   8.852   1.017  1.2163 -0.7298  0.5722
   36MOL0     C 4760   6.568   8.808   0.973 -0.3481 -0.2485 -0.4399
   36MOL0     O 4761   6.547   8.708   0.879  0.3426  0.2978 -0.3546
   36MOL0     C 4762   6.643   8.688   0.770  0.3270  0.3222  0.6560
   36MOL0     C 4763   6.586   8.694   0.628 -0.3732 -0.8083 -0.7066
   36MOL0     C 4764   6.529   8.838   0.598 -0.0448 -0.1258 -0.0083
   36MOL0     C 4765   6.613   8.930   0.514 -0.4127 -0.9857  0.0450
   36MOL0     C 4766   6.766   8.934   0.538  0.2225  0.4411  0.0246
   36MOL0     C 4767   6.820   9.018   0.658  0.5457  0.0685  0.0576
   36MOL0     C 4768   6.971   9.039   0.656 -0.1061  0.5979  0.1950
   36MOL0     C 4769   7.028   9.114   0.771 -0.0068  0.3103  0.0379
   36MOL0    Cl 4770   7.204   9.061   0.818  0.0408 -0.4254  0.1281
   36MOL0     C 4771   6.457   8.872   1.029 -0.4165  1.0172 -0.8706
   36MOL0     C 4772   6.476   8.975   1.122  0.8442  0.0929 -0.6853
   36MOL0     O 4773   6.774   9.219   1.195  0.3671 -0.1433 -0.2229
   36MOL0     C 4774   6.615   9.275   1.501  1.4328  0.3740 -0.1991
   36MOL0     C 4775   6.612   9.296   1.644 -0.5741  0.0696  0.6555
   36MOL0     N 4776   6.846   9.079   2.327 -0.1185  0.7313 -0.3823
   36MOL0     N 4777   6.852   9.010   2.441  0.0519  0.0989  0.4020
   36MOL0     C 4778   7.181   8.116   3.189  0.7232 -0.0073 -0.6570
   36MOL0     C 4779   7.253   8.094   3.307  0.2983  0.6970  0.0317
   36MOL0     C 4780   7.466   7.829   3.630  0.7135  0.6851 -0.0741
   36MOL0     C 4781   7.445   7.715   3.697  1.0362 -0.1585  0.0477
   36MOL0     C 4782   7.508   7.700   3.821  0.6672 -0.0917 -0.6053
   36MOL0     C 4783   7.581   7.798   3.889 -0.3892 -0.5398 -0.2504
   36MOL0     O 4784   7.628   7.788   4.015 -0.0433  0.4413  0.3762
   36MOL0     C 4785   7.696   7.672   4.060  0.7146  0.2945 -0.3999
   36MOL0     C 4786   7.831   7.708   4.105  0.3973  0.1624 -0.5076
   36MOL0     C 4787   7.908   7.572   4.108 -0.3199  0.0117 -0.2486
   36MOL0     C 4788   8.057   7.587   4.154  0.4021  0.3640 -0.4692
   36MOL0     C 4789   8.113   7.464   4.203 -1.0658  0.0360 -0.4379
   36MOL0     C 4790   8.152   7.365   4.250  0.0246 -0.3409  0.2672
   36MOL0     C 4791   7.609   7.920   3.812  0.3014 -0.3670 -0.8494
   36MOL0     C 4792   7.541   7.933   3.683 -0.2099  0.3626 -0.3029
   36MOL0     H 4793   7.447   7.848   3.215  0.7924  2.1372  1.3973
   36MOL0     H 4794   7.330   7.886   2.989  0.9392  3.8223 -1.9615
   36MOL0     H 4795   6.956   8.118   2.968 -0.8016  1.4634  1.7543
   36MOL0     H 4796   7.080   8.262   2.961  0.4942 -0.8433  1.1151
   36MOL0     H 4797   7.112   8.231   2.734 -0.3520  2.2647  0.7073
   36MOL0     H 4798   7.007   8.085   2.742 -0.7433 -0.1324  1.8918
   36MOL0     H 4799   6.825   8.263   2.823  2.5352 -0.7738  1.8931
   36MOL0     H 4800   6.940   8.392   2.780  1.2092 -0.0104 -0.3656
   36MOL0     H 4801   6.960   8.282   2.553 -0.5340  2.4616 -0.7940
   36MOL0     H 4802   6.814   8.189   2.598 -0.2914  0.7046 -0.6691
   36MOL0     H 4803   6.749   8.382   2.453 -0.9096 -1.9970  0.7130
   36MOL0     H 4804   6.686   8.392   2.606  0.0189 -1.9652 -0.8794
   36MOL0     H 4805   6.856   8.584   2.661  1.4386  3.5113 -0.6124
   36MOL0     H 4806   6.946   8.537   2.512  0.1749 -0.7924  0.7234
   36MOL0     H 4807   6.763   8.631   2.379  0.9154  2.4293 -0.8089
   36MOL0     H 4808   6.656   8.650   2.512  0.5806 -3.0172  2.2259
   36MOL0     H 4809   6.918   8.807   2.528  0.6285  1.1272 -2.0239
   36MOL0     H 4810   6.768   8.833   2.610  0.8919 -0.2701  0.1425
   36MOL0     H 4811   6.670   8.825   2.231  0.9450 -1.8511 -0.7580
   36MOL0     H 4812   6.777   9.181   2.101 -0.6897  1.2069 -0.5439
   36MOL0     H 4813   6.776   9.031   2.007  0.2219 -0.1310  1.4973
   36MOL0     H 4814   6.549   9.155   2.172  3.1943 -1.9134  2.5126
   36MOL0     H 4815   6.514   9.010   2.075  2.4521 -0.8256  2.0437
   36MOL0     H 4816   6.447   9.222   1.946  0.4945  0.0076 -2.2818
   36MOL0     H 4817   6.567   9.123   1.870  3.7068 -0.3966  0.2673
   36MOL0     H 4818   6.645   9.367   2.030  0.9904 -2.0072  0.8189
   36MOL0     H 4819   6.560   9.385   1.878 -0.8128 -0.1463  0.0528
   36MOL0     H 4820   6.912   9.188   1.728 -0.4988 -2.4172  1.7660
   36MOL0     H 4821   7.023   9.070   1.542 -0.0557 -0.7019 -0.5084
   36MOL0     H 4822   6.920   9.009   1.412 -0.4879  1.1703 -1.2967
   36MOL0     H 4823   6.987   9.166   1.395  0.3832 -1.5603 -1.6283
   36MOL0     H 4824   6.808   8.988   1.130 -0.4289  2.3065  0.5168
   36MOL0     H 4825   6.787   8.821   0.974  2.4090  3.1349  0.0362
   36MOL0     H 4826   6.728   8.757   0.766 -0.5247  1.3929  0.4550
   36MOL0     H 4827   6.680   8.586   0.786 -2.6273 -0.6702  1.9626
   36MOL0     H 4828   6.655   8.667   0.547  0.6633 -0.8952  0.1773
   36MOL0     H 4829   6.502   8.624   0.622 -1.2857  0.0992  0.8026
   36MOL0     H 4830   6.508   8.895   0.690 -0.6127  1.6530 -1.1874
   36MOL0     H 4831   6.428   8.820   0.559 -1.0901  1.9405  1.5092
   36MOL0     H 4832   6.606   8.900   0.409 -1.5533  2.7942 -1.1294
   36MOL0     H 4833   6.569   9.030   0.515 -0.3021 -0.9142  2.1981
   36MOL0     H 4834   6.825   8.987   0.463  0.9452 -0.8389 -0.3527
   36MOL0     H 4835   6.806   8.832   0.535 -0.8899  0.0016 -0.9073
   36MOL0     H 4836   6.792   9.121   0.634  4.7321  1.4552  0.3561
   36MOL0     H 4837   6.789   8.984   0.758 -2.0329  3.0434  0.4388
   36MOL0     H 4838   7.008   9.088   0.565 -0.3431 -0.1021 -0.2903
   36MOL0     H 4839   7.015   8.939   0.658 -1.5370 -0.0543  2.4710
   36MOL0     H 4840   6.960   9.097   0.855 -3.2969 -2.9418 -2.9365
   36MOL0     H 4841   7.037   9.222   0.760  1.9920  0.1654 -0.0931
   36MOL0     H 4842   6.359   8.840   0.997 -0.5977  2.6793 -2.0857
   36MOL0     H 4843   6.385   9.029   1.150 -2.2686 -3.5950 -2.7551
   36MOL0     H 4844   6.529   9.297   1.439  0.6501  0.0404  0.7419
   36MOL0     H 4845   6.519   9.335   1.683  0.0498  1.5062  0.7774
   36MOL0     H 4846   7.107   8.195   3.200 -1.5342 -2.0915  0.1548
   36MOL0     H 4847   7.240   8.166   3.386 -0.9126 -0.9009  1.3593
   36MOL0     H 4848   7.380   7.639   3.656  2.1261 -0.5972 -0.9016
   36MOL0     H 4849   7.483   7.608   3.873 -1.5316  1.2898  0.9555
   36MOL0     H 4850   7.634   7.635   4.142 -1.4088 -0.2866 -2.1647
   36MOL0     H 4851   7.719   7.619   3.967 -0.8150  1.7788 -1.6845
   36MOL0     H 4852   7.814   7.752   4.204 -3.6459  0.8808 -1.3161
   36MOL0     H 4853   7.873   7.780   4.035  1.8965 -0.3253 -0.1550
   36MOL0     H 4854   7.916   7.528   4.009  0.9566 -0.2831 -0.0344
   36MOL0     H 4855   7.864   7.509   4.186  2.0762  0.3430  1.5229
   36MOL0     H 4856   8.066   7.670   4.224 -0.0408  3.9817 -4.3208
   36MOL0     H 4857   8.118   7.619   4.070  3.5235  0.1126  1.5463
   36MOL0     H 4858   8.188   7.277   4.300  2.7813 -1.7274 -3.6522
   36MOL0     H 4859   7.675   7.996   3.852 -0.4727  1.8868 -3.5401
   36MOL0     H 4860   7.553   8.008   3.606  2.3717 -0.7497 -1.1121
   37MOL0     O 4861   9.514   7.150   6.184  0.6640 -0.7797  0.4903
   37MOL0     C 4862   9.396   7.167   6.145 -0.5873  0.1210 -0.2790
   37MOL0     O 4863   9.287   7.088   6.169  0.4071 -0.2376 -0.5579
   37MOL0     C 4864   9.315   6.964   6.222 -0.7056 -0.6387  0.3492
   37MOL0     C 4865   9.388   6.866   6.154  0.6987  0.8877 -0.3356
   37MOL0     C 4866   9.398   6.743   6.206 -0.0918  0.1947 -0.5951
   37MOL0     C 4867   9.353   6.705   6.340 -0.5646  0.0148  0.8508
   37MOL0     O 4868   9.379   6.583   6.395  0.2385 -0.3162  0.1223
   37MOL0     C 4869   9.504   6.512   6.380 -0.0369 -0.1636  0.4090
   37MOL0     C 4870   9.541   6.380   6.446  0.6311  0.4577  0.2417
   37MOL0     C 4871   9.686   6.348   6.453 -0.4694 -0.4327  0.3527
   37MOL0     C 4872   9.729   6.273   6.325  0.1558 -0.7457 -0.7705
   37MOL0     C 4873   9.875   6.256   6.284  0.3538 -0.1243  0.4181
   37MOL0     C 4874   9.970   6.247   6.397 -0.2117  0.4283  0.2441
   37MOL0     C 4875  10.112   6.215   6.366 -0.0714 -0.7878  0.3777
   37MOL0     C 4876  10.121   6.073   6.317  0.6213  0.2652 -0.1395
   37MOL0     N 4877  10.096   5.978   6.425  0.6720  0.0088 -0.4552
   37MOL0     C 4878   9.980   5.905   6.441 -0.0235 -0.7799  0.2484
   37MOL0     C 4879  10.014   5.815   6.540  0.0872  0.4521  0.4599
   37MOL0     C 4880   9.936   5.686   6.575 -0.3553 -0.5757  0.3002
   37MOL0     C 4881  10.018   5.554   6.582  0.3894 -0.7154 -0.8559
   37MOL0     C 4882  10.115   5.544   6.702 -0.5703  0.3549  0.5444
   37MOL0     C 4883  10.058   5.542   6.847 -0.2829 -0.2406 -0.6499
   37MOL0     O 4884  10.168   5.548   6.939 -1.0150  0.4572 -0.2002
   37MOL0     C 4885  10.174   5.663   7.015  0.2352  0.4858 -0.6605
   37MOL0     C 4886  10.263   5.659   7.122  0.9615  0.4966 -1.1218
   37MOL0     C 4887  10.304   5.772   7.195 -0.6999  0.2325 -1.2188
   37MOL0     C 4888  10.411   5.749   7.305  0.0851  0.0467  0.7633
   37MOL0     C 4889  10.250   5.897   7.157  0.4276  1.0062  0.0907
   37MOL0     C 4890  10.293   6.024   7.236 -1.1293  0.4352  0.4439
   37MOL0     O 4891  10.270   6.134   7.167 -0.0750  0.2136  0.2553
   37MOL0     C 4892  10.289   6.244   7.239 -0.0925 -0.2709 -1.0888
   37MOL0     C 4893  10.192   6.286   7.334 -0.1518  1.0454 -0.1650
   37MOL0     C 4894  10.187   6.419   7.383 -0.1968 -0.0941 -0.2759
   37MOL0     C 4895  10.291   6.502   7.351  0.6488  0.3842 -0.4909
   37MOL0     O 4896  10.273   6.631   7.392  0.4687  0.7301  0.7197
   37MOL0     C 4897  10.355   6.732   7.332  0.4146  0.1488 -0.2848
   37MOL0     C 4898  10.279   6.867   7.350 -0.1696 -0.6206 -0.3979
   37MOL0     C 4899  10.330   6.979   7.244 -0.4981  0.1735 -0.0917
   37MOL0     C 4900  10.475   7.029   7.275 -0.5127 -0.8031 -0.6945
   37MOL0     C 4901  10.579   7.029   7.162  0.2066 -0.5374 -0.1601
   37MOL0     C 4902  10.616   6.898   7.095 -0.6795  0.3003  0.0546
   37MOL0     C 4903  10.740   6.911   7.019  0.3091 -0.8344  0.4730
   37MOL0     C 4904  10.776   6.775   6.983  0.3919 -0.0325 -0.0421
   37MOL0    Cl 4905  10.815   6.661   7.125 -0.0617  0.2261 -0.3997
   37MOL0     C 4906  10.398   6.457   7.277  1.3814  0.2110 -0.2024
   37MOL0     C 4907  10.401   6.329   7.226 -0.5433  0.1411 -0.2828
   37MOL0     O 4908  10.339   6.019   7.353 -0.6442 -0.4543  0.1664
   37MOL0     C 4909  10.164   5.904   7.042 -0.2299 -0.5483  0.0668
   37MOL0     C 4910  10.124   5.792   6.972  0.0452  0.3058  0.3339
   37MOL0     N 4911  10.132   5.845   6.593  0.6338  0.2437 -0.2210
   37MOL0     N 4912  10.183   5.948   6.528  0.1815  0.7950 -0.3742
   37MOL0     C 4913   9.288   6.806   6.408  0.9756  0.5839 -0.0512
   37MOL0     C 4914   9.266   6.932   6.351 -0.0416  0.1238  0.2099
   37MOL0     C 4915   9.360   7.303   6.094 -0.0744 -0.8930 -0.1244
   37MOL0     C 4916   9.235   7.350   6.120 -0.1984 -0.8167 -1.2576
   37MOL0     C 4917   9.195   7.468   6.077 -0.0599 -0.0822  0.7624
   37MOL0     C 4918   9.281   7.538   5.986  0.1519  0.3557 -0.9001
   37MOL0     O 4919   9.252   7.653   5.924  0.1914 -0.0888  0.7770
   37MOL0     C 4920   9.135   7.730   5.950  0.4766 -0.5892 -0.0049
   37MOL0     C 4921   9.136   7.804   6.088 -0.5969  0.6032 -0.1281
   37MOL0     C 4922   9.242   7.905   6.090  0.1440  1.3150 -0.4447
   37MOL0     C 4923   9.214   7.998   6.206 -0.5072 -0.3188  0.1274
   37MOL0     C 4924   9.204   7.921   6.332 -0.6194  1.4512 -0.3168
   37MOL0     C 4925   9.217   7.842   6.430  0.2703 -0.3247  0.3711
   37MOL0     C 4926   9.410   7.494   5.961  0.1292 -0.3501  0.4040
   37MOL0     C 4927   9.448   7.373   6.018 -0.2890 -0.3543  0.7205
   37MOL0     H 4928   9.431   6.894   6.059  4.1646 -2.4158  0.0272
   37MOL0     H 4929   9.460   6.668   6.156 -0.8173 -1.4454  0.8508
   37MOL0     H 4930   9.515   6.493   6.273  3.0298  0.8838  0.4545
   37MOL0     H 4931   9.582   6.584   6.405 -1.6644  1.0862  2.2346
   37MOL0     H 4932   9.519   6.389   6.553 -0.7137 -4.6572  0.6510
   37MOL0     H 4933   9.485   6.297   6.403  0.1344  0.3768  1.0306
   37MOL0     H 4934   9.743   6.438   6.478 -1.9980  1.5873 -2.8006
   37MOL0     H 4935   9.697   6.275   6.534 -4.0717 -3.0975 -1.3243
   37MOL0     H 4936   9.699   6.169   6.341  4.8718 -1.7946  3.9852
   37MOL0     H 4937   9.670   6.319   6.245  0.9622  2.5562  0.3932
   37MOL0     H 4938   9.881   6.169   6.218  0.5536  0.1536  0.0679
   37MOL0     H 4939   9.912   6.333   6.216  2.4715 -0.0029  1.6368
   37MOL0     H 4940   9.984   6.343   6.447  2.2966  1.3686 -1.9627
   37MOL0     H 4941   9.932   6.188   6.480 -0.7843  0.8619  0.2948
   37MOL0     H 4942  10.162   6.281   6.294  2.5947 -2.5047  0.4816
   37MOL0     H 4943  10.178   6.226   6.453 -0.0781  0.1799  0.2699
   37MOL0     H 4944  10.227   6.057   6.294  0.2139 -0.3551 -1.6822
   37MOL0     H 4945  10.063   6.061   6.225 -0.6821  0.1221  0.6768
   37MOL0     H 4946   9.877   5.910   6.407 -0.2058 -1.7092  0.6302
   37MOL0     H 4947   9.880   5.697   6.668 -2.5511  2.1373 -1.2091
   37MOL0     H 4948   9.865   5.671   6.493  1.2446 -1.7743 -0.9313
   37MOL0     H 4949  10.080   5.556   6.491  3.4738 -0.5904  1.1016
   37MOL0     H 4950   9.934   5.485   6.575 -1.9429  1.5604  2.0529
   37MOL0     H 4951  10.179   5.633   6.698 -0.7699  0.4412 -1.5360
   37MOL0     H 4952  10.169   5.451   6.686 -4.4869 -1.6548 -2.5549
   37MOL0     H 4953   9.999   5.452   6.863 -1.6191  1.0184  2.1164
   37MOL0     H 4954   9.993   5.629   6.864  2.6799  1.9959  0.1958
   37MOL0     H 4955  10.297   5.562   7.157 -0.2338  1.0410  1.8470
   37MOL0     H 4956  10.383   5.792   7.401  2.3353  1.9102  0.7053
   37MOL0     H 4957  10.434   5.643   7.313  0.7830  0.2709  1.8592
   37MOL0     H 4958  10.502   5.800   7.270 -0.4879  0.6830  0.1502
   37MOL0     H 4959  10.100   6.233   7.357  0.2565  0.4009  0.0004
   37MOL0     H 4960  10.101   6.457   7.437 -1.8654  2.9573 -4.5054
   37MOL0     H 4961  10.452   6.745   7.380 -0.1586  0.3705  0.8384
   37MOL0     H 4962  10.372   6.726   7.224  0.4919 -0.1493 -0.2572
   37MOL0     H 4963  10.173   6.843   7.336 -1.1929  1.7023  2.2732
   37MOL0     H 4964  10.294   6.906   7.451  3.0200 -3.9516  0.6581
   37MOL0     H 4965  10.267   7.066   7.229 -0.3261  0.1988 -0.6675
   37MOL0     H 4966  10.324   6.928   7.147 -0.2876  0.4417 -0.2454
   37MOL0     H 4967  10.469   7.124   7.330 -1.1495  1.0910 -3.7592
   37MOL0     H 4968  10.525   6.965   7.347  1.6518 -0.0648 -1.4590
   37MOL0     H 4969  10.674   7.058   7.208  1.4084 -6.2339  1.7812
   37MOL0     H 4970  10.538   7.095   7.085 -1.4502  0.0623  1.1979
   37MOL0     H 4971  10.619   6.829   7.180  1.0404 -1.4099 -1.2934
   37MOL0     H 4972  10.533   6.862   7.033 -1.4289 -2.0162  2.2356
   37MOL0     H 4973  10.818   6.963   7.076 -0.5296  0.6888  0.3089
   37MOL0     H 4974  10.717   6.984   6.941  1.2645  2.1841  2.7733
   37MOL0     H 4975  10.852   6.783   6.904 -1.6358 -1.2264 -2.2877
   37MOL0     H 4976  10.686   6.740   6.933  1.0388 -0.4323 -0.9645
   37MOL0     H 4977  10.473   6.531   7.250 -0.7932  3.2965  1.5727
   37MOL0     H 4978  10.490   6.289   7.179  1.5377 -1.1456  4.2255
   37MOL0     H 4979  10.133   6.003   7.010 -0.4910 -0.6456  0.0167
   37MOL0     H 4980  10.083   5.814   6.874  0.0489  1.8078  0.6468
   37MOL0     H 4981   9.248   6.762   6.498  2.0509 -3.1369 -1.1891
   37MOL0     H 4982   9.210   7.017   6.388 -1.4542  0.1437 -1.7921
   37MOL0     H 4983   9.161   7.307   6.186 -1.2346  2.6220  0.0360
   37MOL0     H 4984   9.097   7.503   6.107 -0.8775  1.2487 -2.8721
   37MOL0     H 4985   9.133   7.817   5.884  1.5478  1.1462  2.0965
   37MOL0     H 4986   9.045   7.673   5.928 -0.6923  1.8877 -2.2245
   37MOL0     H 4987   9.130   7.732   6.170 -1.2723  1.0495  0.2219
   37MOL0     H 4988   9.038   7.852   6.089 -0.6942  0.5021 -1.5849
   37MOL0     H 4989   9.244   7.967   5.999  0.0141  0.9988 -0.6676
   37MOL0     H 4990   9.339   7.858   6.106 -0.8027 -0.0634  1.5147
   37MOL0     H 4991   9.119   8.050   6.196 -1.0931 -1.5533 -1.1268
   37MOL0     H 4992   9.293   8.073   6.215 -4.1385  3.9053  0.2884
   37MOL0     H 4993   9.215   7.775   6.514  0.3525 -0.7537  0.0375
   37MOL0     H 4994   9.465   7.552   5.887  1.9863 -0.2993  1.7482
   37MOL0     H 4995   9.550   7.339   6.007  1.1113  2.1922  4.0542
   38MOL0     O 4996   6.384  10.467   4.472 -0.3344 -0.2686 -0.3315
   38MOL0     C 4997   6.293  10.462   4.561  0.6436 -0.6672  0.8084
   38MOL0     O 4998   6.157  10.487   4.531  0.7809 -0.2316  0.1666
   38MOL0     C 4999   6.117  10.528   4.403  0.0838 -0.2009  0.2785
   38MOL0     C 5000   6.160  10.471   4.282  0.5327  0.4869 -0.0367
   38MOL0     C 5001   6.093  10.501   4.165  0.0404 -0.1026  0.2575
   38MOL0     C 5002   5.990  10.593   4.161 -0.0868 -0.2996  0.1678
   38MOL0     O 5003   5.915  10.607   4.045  0.5967  0.7669 -0.5922
   38MOL0     C 5004   5.998  10.655   3.937 -1.1140  0.1027 -0.4369
   38MOL0     C 5005   5.913  10.709   3.815  0.3502  0.6907  0.0790
   38MOL0     C 5006   5.995  10.786   3.714  0.2472  0.3900 -0.0810
   38MOL0     C 5007   6.136  10.718   3.681  0.2860  0.0465  0.2207
   38MOL0     C 5008   6.220  10.789   3.576  1.0782 -0.4978  0.9272
   38MOL0     C 5009   6.342  10.718   3.513  0.9006 -0.8144 -0.2370
   38MOL0     C 5010   6.419  10.625   3.609  0.3511  0.1489  0.8143
   38MOL0     C 5011   6.514  10.520   3.535 -0.2922 -0.8552  1.3881
   38MOL0     N 5012   6.598  10.577   3.430 -0.1176 -0.4621 -0.1984
   38MOL0     C 5013   6.558  10.586   3.297  0.6984 -0.1808 -0.0368
   38MOL0     C 5014   6.672  10.627   3.231 -0.9487  0.6492  0.2539
   38MOL0     C 5015   6.675  10.668   3.083 -0.7995  0.3929  0.2259
   38MOL0     C 5016   6.719  10.815   3.072  0.4723  0.1319  0.5477
   38MOL0     C 5017   6.604  10.909   3.095  0.0997 -0.4482 -0.1717
   38MOL0     C 5018   6.634  11.055   3.058  0.4536 -1.0254 -0.0707
   38MOL0     O 5019   6.669  11.075   2.918 -0.5372 -0.4731 -0.1060
   38MOL0     C 5020   6.578  11.127   2.829  1.1403 -1.3281  1.3730
   38MOL0     C 5021   6.438  11.101   2.831 -0.0517 -0.5507  0.2439
   38MOL0     C 5022   6.351  11.166   2.744  0.0034 -1.3224  0.6416
   38MOL0     C 5023   6.203  11.142   2.767  0.3833 -0.1696 -0.4779
   38MOL0     C 5024   6.407  11.254   2.657  0.2575  0.8762  0.2419
   38MOL0     C 5025   6.325  11.346   2.578 -0.7015 -0.6124  0.6004
   38MOL0     O 5026   6.386  11.466   2.546 -0.8123  0.4391 -0.0210
   38MOL0     C 5027   6.332  11.521   2.436  0.2281 -0.1317  0.6964
   38MOL0     C 5028   6.209  11.577   2.437  0.2779  0.4845 -0.5441
   38MOL0     C 5029   6.168  11.665   2.322  0.6556  0.8450 -0.4077
   38MOL0     C 5030   6.250  11.678   2.211 -0.6471 -1.2647 -0.4591
   38MOL0     O 5031   6.209  11.749   2.091  0.1237 -0.1043 -0.6054
   38MOL0     C 5032   6.225  11.676   1.969 -0.0711 -0.4850 -0.1844
   38MOL0     C 5033   6.108  11.691   1.884  0.4220 -1.2540 -0.4636
   38MOL0     C 5034   6.070  11.833   1.835 -0.8174 -1.3199 -0.0043
   38MOL0     C 5035   5.948  11.831   1.747  0.1575 -0.6181  0.0871
   38MOL0     C 5036   5.867  11.960   1.758 -0.4308 -0.1566  0.6270
   38MOL0     C 5037   5.735  11.958   1.675 -0.6006  0.2435  0.4432
   38MOL0     C 5038   5.645  12.065   1.720  0.8734  0.4696 -0.4806
   38MOL0     C 5039   5.535  12.085   1.608 -0.5516 -1.0135  0.1432
   38MOL0    Cl 5040   5.434  12.232   1.615  0.4365 -0.4161  0.1362
   38MOL0     C 5041   6.368  11.599   2.202 -1.2182 -0.5438 -0.0928
   38MOL0     C 5042   6.409  11.530   2.318  0.2888 -0.0718 -0.1683
   38MOL0     O 5043   6.220  11.309   2.530  0.4701  0.1601 -0.3510
   38MOL0     C 5044   6.548  11.270   2.644  0.1495  1.2343 -0.4483
   38MOL0     C 5045   6.629  11.203   2.727  0.6652 -0.3101 -0.4160
   38MOL0     N 5046   6.776  10.629   3.326  0.4117 -0.8898 -0.1763
   38MOL0     N 5047   6.727  10.613   3.449 -0.3262 -0.2235  0.3947
   38MOL0     C 5048   5.946  10.643   4.285 -0.0360 -1.0948 -0.5119
   38MOL0     C 5049   6.005  10.605   4.404  0.7190  0.4603  0.0516
   38MOL0     C 5050   6.337  10.437   4.697 -0.1154  0.5508 -0.7297
   38MOL0     C 5051   6.475  10.451   4.733  0.0197  0.3895 -1.3912
   38MOL0     C 5052   6.525  10.435   4.861  0.3154  0.4179  1.0866
   38MOL0     C 5053   6.434  10.414   4.967 -0.0689  0.9643 -0.8950
   38MOL0     O 5054   6.475  10.388   5.093 -0.1951  0.8991 -0.1343
   38MOL0     C 5055   6.614  10.406   5.135 -0.2783  0.4577 -0.1732
   38MOL0     C 5056   6.628  10.386   5.285 -0.1710 -1.1427  0.2037
   38MOL0     C 5057   6.583  10.246   5.322  0.3327  0.2927 -0.2708
   38MOL0     C 5058   6.637  10.216   5.463  0.2727 -0.6988 -0.3283
   38MOL0     C 5059   6.591  10.078   5.512 -0.1693 -0.0248 -0.5589
   38MOL0     C 5060   6.570   9.973   5.563 -0.8954  0.4975  0.6989
   38MOL0     C 5061   6.295  10.414   4.936  1.0664  0.6727 -0.8718
   38MOL0     C 5062   6.252  10.411   4.806  0.4449 -0.5557  0.2589
   38MOL0     H 5063   6.239  10.397   4.278 -0.4128 -0.5305 -3.5391
   38MOL0     H 5064   6.112  10.431   4.084  1.4360 -1.3022  1.5330
   38MOL0     H 5065   6.060  10.740   3.968 -1.3685  1.1391 -2.6146
   38MOL0     H 5066   6.056  10.568   3.904 -1.2781  1.6377 -5.6590
   38MOL0     H 5067   5.879  10.624   3.754  2.4764 -0.3286  0.2528
   38MOL0     H 5068   5.826  10.767   3.849  0.1287 -0.4051  1.4834
   38MOL0     H 5069   5.948  10.792   3.615  0.5555 -2.7267 -0.5041
   38MOL0     H 5070   6.008  10.886   3.757 -1.3651  0.5050  0.2163
   38MOL0     H 5071   6.196  10.710   3.772  0.1959 -1.1367  0.1836
   38MOL0     H 5072   6.115  10.617   3.645  2.6861 -0.2409 -0.5073
   38MOL0     H 5073   6.153  10.803   3.491 -3.1213  1.5915  4.1395
   38MOL0     H 5074   6.256  10.888   3.608 -0.0588  0.5843 -0.9524
   38MOL0     H 5075   6.309  10.661   3.426  2.8480  2.0451 -3.0560
   38MOL0     H 5076   6.408  10.794   3.470  1.1542 -1.4715 -1.0222
   38MOL0     H 5077   6.468  10.689   3.683  0.6652  1.0754 -0.1672
   38MOL0     H 5078   6.350  10.555   3.657  2.5072 -3.4834 -0.9316
   38MOL0     H 5079   6.453  10.449   3.478  0.6421  1.3613 -2.7187
   38MOL0     H 5080   6.584  10.475   3.606  1.0368  3.1837  2.9300
   38MOL0     H 5081   6.461  10.567   3.251 -0.7354  0.8731  2.3680
   38MOL0     H 5082   6.755  10.605   3.042 -0.4419  0.5168  0.7237
   38MOL0     H 5083   6.581  10.655   3.029 -1.3772  0.3170  1.2306
   38MOL0     H 5084   6.761  10.824   2.971  1.1462 -1.7278  0.6214
   38MOL0     H 5085   6.796  10.830   3.148 -1.0372 -0.2526  2.2039
   38MOL0     H 5086   6.582  10.904   3.202 -3.6295  1.2299 -0.6827
   38MOL0     H 5087   6.512  10.888   3.040 -1.0899  2.1754  0.6476
   38MOL0     H 5088   6.711  11.080   3.131  0.1208 -1.6733  0.5171
   38MOL0     H 5089   6.552  11.122   3.087  1.5436 -0.6054  2.3130
   38MOL0     H 5090   6.400  11.035   2.908  1.5603  0.4601  1.9791
   38MOL0     H 5091   6.184  11.081   2.855 -0.2913  0.0587 -0.4611
   38MOL0     H 5092   6.145  11.230   2.797  1.0901 -0.5334  2.2021
   38MOL0     H 5093   6.155  11.090   2.683  0.1971 -1.0420  0.1637
   38MOL0     H 5094   6.149  11.566   2.528  0.3846  0.7619 -0.4385
   38MOL0     H 5095   6.071  11.715   2.324 -0.5673 -1.1802 -2.9028
   38MOL0     H 5096   6.317  11.710   1.921  0.0665 -1.2174 -0.4631
   38MOL0     H 5097   6.238  11.570   1.994 -0.4845 -0.3948  0.4429
   38MOL0     H 5098   6.130  11.631   1.795 -3.0127 -2.0075 -0.9395
   38MOL0     H 5099   6.021  11.643   1.928 -0.3170  1.8932  1.8837
   38MOL0     H 5100   6.157  11.874   1.782 -2.0825  2.5996  0.5888
   38MOL0     H 5101   6.046  11.901   1.917 -0.2012  2.0154 -2.3260
   38MOL0     H 5102   5.970  11.793   1.647  1.2001 -1.2417  0.5321
   38MOL0     H 5103   5.884  11.755   1.793  2.2351 -2.7070 -0.2807
   38MOL0     H 5104   5.927  12.048   1.734 -0.7706  0.1450  0.8527
   38MOL0     H 5105   5.832  11.973   1.861 -0.7570 -0.0195  0.5018
   38MOL0     H 5106   5.762  11.963   1.569  1.7717 -0.9149  0.9158
   38MOL0     H 5107   5.675  11.868   1.694 -1.0248  0.1115 -1.4193
   38MOL0     H 5108   5.699  12.159   1.737 -0.3323  0.5911  3.6839
   38MOL0     H 5109   5.593  12.040   1.812  0.1508  4.3850  0.3589
   38MOL0     H 5110   5.467  11.999   1.608 -1.3401 -0.4394  1.7708
   38MOL0     H 5111   5.584  12.097   1.511  2.7027 -0.9659  1.6900
   38MOL0     H 5112   6.438  11.606   2.120  2.2838  1.3631  2.7971
   38MOL0     H 5113   6.512  11.494   2.319  0.9137  1.5616 -0.9679
   38MOL0     H 5114   6.597  11.319   2.561 -0.4890 -1.2241 -2.4255
   38MOL0     H 5115   6.737  11.212   2.739  0.5526 -0.0585  0.4966
   38MOL0     H 5116   5.857  10.705   4.284  0.1454 -0.6296  2.7810
   38MOL0     H 5117   5.986  10.659   4.497  3.3091 -1.4554  1.8623
   38MOL0     H 5118   6.556  10.476   4.665  0.5022 -0.3112 -1.0906
   38MOL0     H 5119   6.631  10.447   4.877  0.6265  0.3933 -0.7628
   38MOL0     H 5120   6.689  10.358   5.073  1.7365  3.1643 -0.0229
   38MOL0     H 5121   6.628  10.512   5.111 -0.4727  0.3362 -0.8269
   38MOL0     H 5122   6.588  10.468   5.345  2.8949  0.4899  0.2036
   38MOL0     H 5123   6.733  10.402   5.309 -0.6548  1.2850  1.0015
   38MOL0     H 5124   6.625  10.177   5.248 -2.2346 -2.2824  0.4851
   38MOL0     H 5125   6.475  10.230   5.317  0.2937  0.0521  1.0534
   38MOL0     H 5126   6.590  10.285   5.534 -3.2672 -1.4556 -1.7401
   38MOL0     H 5127   6.745  10.208   5.445  0.2675  0.4093 -0.9454
   38MOL0     H 5128   6.527   9.879   5.593 -0.3244  0.6121  1.9290
   38MOL0     H 5129   6.228  10.386   5.016 -0.5105 -1.3289 -2.7531
   38MOL0     H 5130   6.151  10.398   4.768  0.8701 -4.5787  0.0130
   39MOL0     O 5131   4.759   5.975   9.228  0.1266  0.9267 -0.1773
   39MOL0     C 5132   4.723   5.977   9.344 -1.1039  0.0415  0.0594
   39MOL0     O 5133   4.786   6.047   9.447 -0.4210 -0.7223  0.1141
   39MOL0     C 5134   4.903   6.108   9.440  0.0659 -0.3040 -0.4192
   39MOL0     C 5135   4.998   6.097   9.541  0.1578 -0.1573 -0.6246
   39MOL0     C 5136   5.117   6.172   9.532  0.4148  0.6857 -0.1496
   39MOL0     C 5137   5.146   6.257   9.418 -0.2968  0.7846 -0.6620
   39MOL0     O 5138   5.262   6.330   9.410 -0.2469  0.5201 -0.2228
   39MOL0     C 5139   5.238   6.471   9.426  0.0749  0.6548  0.6193
   39MOL0     C 5140   5.374   6.509   9.480 -0.5572  0.2185  1.0390
   39MOL0     C 5141   5.488   6.490   9.373 -0.6893 -0.5769 -0.1015
   39MOL0     C 5142   5.499   6.611   9.277 -0.9584 -0.0969  0.2806
   39MOL0     C 5143   5.612   6.594   9.173 -1.1274 -0.8181  0.0548
   39MOL0     C 5144   5.754   6.630   9.226 -0.0966 -0.5582 -0.7569
   39MOL0     C 5145   5.771   6.791   9.250  0.0934  0.1300 -0.7855
   39MOL0     C 5146   5.918   6.830   9.284 -0.9123  0.1634  0.4866
   39MOL0     N 5147   5.967   6.810   9.424  0.3053  0.2030  0.2034
   39MOL0     C 5148   6.064   6.722   9.459 -0.5645  1.3252 -0.3949
   39MOL0     C 5149   6.099   6.755   9.591  0.0180  0.3010  0.4200
   39MOL0     C 5150   6.211   6.691   9.676 -0.1276  0.9898  1.0563
   39MOL0     C 5151   6.156   6.593   9.774  0.6244 -0.3703  0.4292
   39MOL0     C 5152   6.108   6.654   9.906  0.0208  0.1285 -0.1432
   39MOL0     C 5153   6.084   6.550  10.017 -0.6057  0.3830 -0.8003
   39MOL0     O 5154   6.015   6.613  10.129 -0.4676 -0.8770 -0.0306
   39MOL0     C 5155   5.980   6.533  10.237  0.6065  0.7805  1.0220
   39MOL0     C 5156   5.910   6.599  10.346  0.3770  0.0168  0.1067
   39MOL0     C 5157   5.876   6.515  10.460  0.7402 -0.2048  0.0304
   39MOL0     C 5158   5.785   6.586  10.561  0.2346 -0.5209 -0.0846
   39MOL0     C 5159   5.922   6.385  10.480  0.2642  0.5098  0.8138
   39MOL0     C 5160   5.889   6.289  10.598  0.2888 -0.0470  0.5583
   39MOL0     O 5161   5.790   6.330  10.688  0.3930 -0.0221  0.0187
   39MOL0     C 5162   5.792   6.282  10.815 -0.6377  0.1296  0.4473
   39MOL0     C 5163   5.867   6.354  10.911 -0.1356  0.6313  0.3139
   39MOL0     C 5164   5.855   6.310  11.043 -0.0151  0.8327 -0.8531
   39MOL0     C 5165   5.778   6.209  11.078  0.2332  0.2424 -0.0667
   39MOL0     O 5166   5.768   6.160  11.202 -0.7724  0.6371 -0.6887
   39MOL0     C 5167   5.749   6.256  11.303 -1.0450  0.9706 -0.2315
   39MOL0     C 5168   5.716   6.185  11.437 -0.2364 -0.0665  0.3690
   39MOL0     C 5169   5.670   6.283  11.548  0.2733 -0.3961 -0.2170
   39MOL0     C 5170   5.602   6.221  11.664 -0.6147 -1.0703  0.0183
   39MOL0     C 5171   5.453   6.174  11.625 -0.3123  0.9499 -0.0311
   39MOL0     C 5172   5.350   6.281  11.573  0.3144 -0.1196  0.2325
   39MOL0     C 5173   5.238   6.213  11.498 -0.2411 -0.3092  0.0066
   39MOL0     C 5174   5.123   6.313  11.478 -0.4314 -0.1623 -1.0180
   39MOL0    Cl 5175   5.180   6.480  11.430  0.1652 -0.3403 -0.0591
   39MOL0     C 5176   5.690   6.151  10.987  0.4697  0.7536  0.9916
   39MOL0     C 5177   5.703   6.185  10.856 -0.4694 -0.2586  0.4118
   39MOL0     O 5178   5.960   6.185  10.609 -0.1340  0.0285  0.0248
   39MOL0     C 5179   5.995   6.329  10.373  0.1713 -1.1611 -0.8261
   39MOL0     C 5180   6.032   6.405  10.257 -0.8214  0.4923  0.4996
   39MOL0     N 5181   6.011   6.855   9.632 -0.1503  1.0761  0.8680
   39MOL0     N 5182   5.942   6.894   9.528  0.1038 -0.7033 -0.1185
   39MOL0     C 5183   5.050   6.271   9.314  0.7277 -0.2604  0.1963
   39MOL0     C 5184   4.935   6.195   9.327 -0.2901  0.2091  0.7914
   39MOL0     C 5185   4.593   5.927   9.375  0.1584  0.3910  0.0217
   39MOL0     C 5186   4.532   5.815   9.316 -0.8335  0.6903  0.1390
   39MOL0     C 5187   4.398   5.775   9.346  0.0233 -0.8359 -0.1239
   39MOL0     C 5188   4.321   5.844   9.432 -0.1953 -0.5991  0.2084
   39MOL0     O 5189   4.182   5.815   9.445 -0.7851 -0.3620 -0.3232
   39MOL0     C 5190   4.093   5.930   9.434  0.4373  0.1473 -0.0429
   39MOL0     C 5191   3.971   5.929   9.533  0.4780  1.1257  0.6513
   39MOL0     C 5192   4.007   5.999   9.658 -0.3182  0.0078 -0.2492
   39MOL0     C 5193   3.894   6.005   9.762 -0.9480 -0.5374 -0.3579
   39MOL0     C 5194   3.939   6.040   9.901 -0.4336 -0.4462 -0.0705
   39MOL0     C 5195   3.977   6.065  10.014  0.7588 -0.3136  0.2277
   39MOL0     C 5196   4.386   5.946   9.513 -0.1018  0.3999  0.5081
   39MOL0     C 5197   4.514   5.983   9.481 -0.1877  0.3190  0.8525
   39MOL0     H 5198   4.980   6.033   9.626  0.3028  2.4438  1.5210
   39MOL0     H 5199   5.182   6.172   9.619  2.3474  1.6380 -1.4961
   39MOL0     H 5200   5.217   6.514   9.327  0.8150 -0.0061  0.1552
   39MOL0     H 5201   5.153   6.497   9.489  0.8380 -1.4431  2.6541
   39MOL0     H 5202   5.376   6.614   9.508  1.9750  0.0521  1.7073
   39MOL0     H 5203   5.418   6.451   9.562  3.7415 -1.1196 -1.8769
   39MOL0     H 5204   5.583   6.487   9.426 -0.2220  1.1223 -0.7756
   39MOL0     H 5205   5.471   6.393   9.325  1.8454 -1.6026  0.8962
   39MOL0     H 5206   5.402   6.616   9.228  0.2549  0.3314 -2.2512
   39MOL0     H 5207   5.517   6.702   9.335  0.1926 -0.3737  0.3901
   39MOL0     H 5208   5.606   6.495   9.126  0.2685  0.3480 -2.8227
   39MOL0     H 5209   5.605   6.668   9.093  0.3828 -1.4835 -0.7337
   39MOL0     H 5210   5.785   6.584   9.320  0.5105 -0.5672 -0.9568
   39MOL0     H 5211   5.828   6.600   9.152  0.9213  0.6443 -0.2427
   39MOL0     H 5212   5.722   6.846   9.169  2.4450  2.3345 -0.8366
   39MOL0     H 5213   5.707   6.832   9.329 -1.4782 -0.9462 -1.4388
   39MOL0     H 5214   5.931   6.934   9.253  2.1115 -0.0359  0.8711
   39MOL0     H 5215   5.982   6.771   9.217 -1.1400  1.1734 -0.6679
   39MOL0     H 5216   6.112   6.650   9.394 -0.4718  0.1801  0.9155
   39MOL0     H 5217   6.274   6.655   9.594 -2.3216  0.6512 -0.5683
   39MOL0     H 5218   6.272   6.767   9.727  1.1568  1.6598 -1.2878
   39MOL0     H 5219   6.240   6.526   9.798  0.5908 -0.1525  1.1785
   39MOL0     H 5220   6.078   6.538   9.720 -1.1866 -1.0259  3.4402
   39MOL0     H 5221   6.017   6.713   9.892 -0.4966 -1.1664 -3.1327
   39MOL0     H 5222   6.168   6.738   9.940  1.2979 -1.1781  0.9783
   39MOL0     H 5223   6.179   6.507  10.050 -0.5283  1.5287  0.5814
   39MOL0     H 5224   6.013   6.481   9.969  1.3185 -1.0790 -1.6546
   39MOL0     H 5225   5.897   6.707  10.347  5.3111  0.8376  0.6271
   39MOL0     H 5226   5.760   6.685  10.521 -0.9488 -0.1815  1.3821
   39MOL0     H 5227   5.686   6.540  10.558 -0.9850  1.9804 -0.4562
   39MOL0     H 5228   5.825   6.587  10.663 -1.3421 -0.6479  0.5625
   39MOL0     H 5229   5.953   6.416  10.889 -0.3426  0.8302  0.0597
   39MOL0     H 5230   5.922   6.365  11.108  1.7393  1.7744 -3.2976
   39MOL0     H 5231   5.846   6.304  11.323 -1.6232  2.0530  0.0523
   39MOL0     H 5232   5.673   6.331  11.280 -0.2318  1.1267 -2.7713
   39MOL0     H 5233   5.639   6.109  11.420  1.6514 -2.7872  2.7576
   39MOL0     H 5234   5.804   6.126  11.465 -2.2273 -2.0576  3.0127
   39MOL0     H 5235   5.606   6.351  11.492  0.9617  1.4082  1.0944
   39MOL0     H 5236   5.749   6.350  11.583 -2.0968  1.7682  1.3047
   39MOL0     H 5237   5.657   6.134  11.701  0.1452 -1.2725 -1.4984
   39MOL0     H 5238   5.595   6.294  11.744  1.8379 -0.9524  0.2205
   39MOL0     H 5239   5.418   6.138  11.723  0.3288  3.1695  1.0761
   39MOL0     H 5240   5.456   6.088  11.557  2.2352  2.0878 -1.4654
   39MOL0     H 5241   5.304   6.323  11.662  1.4747  2.2211 -0.1869
   39MOL0     H 5242   5.392   6.363  11.513 -1.3778  0.7408  0.1594
   39MOL0     H 5243   5.204   6.122  11.549 -0.2444  1.0961  2.7267
   39MOL0     H 5244   5.276   6.192  11.398  2.6993  5.1220 -0.4173
   39MOL0     H 5245   5.081   6.329  11.577  3.2001  2.1835  0.3275
   39MOL0     H 5246   5.038   6.282  11.415 -0.2273 -0.5426 -1.1102
   39MOL0     H 5247   5.598   6.100  11.015 -1.0680  1.5385 -2.1220
   39MOL0     H 5248   5.640   6.146  10.777 -0.6324 -0.0036  0.4151
   39MOL0     H 5249   6.045   6.233  10.379 -1.0118 -1.7930 -0.6602
   39MOL0     H 5250   6.096   6.378  10.173  0.3458  1.0320  1.1876
   39MOL0     H 5251   5.065   6.342   9.234 -0.7942 -0.3849 -0.2396
   39MOL0     H 5252   4.865   6.211   9.246  1.4792  3.8940 -0.2238
   39MOL0     H 5253   4.593   5.769   9.240 -0.9720  1.3991 -0.4130
   39MOL0     H 5254   4.345   5.704   9.284 -1.9750  1.4648 -1.2248
   39MOL0     H 5255   4.143   6.027   9.432 -1.5930  1.2519 -0.0903
   39MOL0     H 5256   4.055   5.918   9.332 -0.3690  0.8057  0.1726
   39MOL0     H 5257   3.932   5.829   9.553 -3.7405  2.5531  0.6364
   39MOL0     H 5258   3.894   5.986   9.479  1.3601 -0.2440 -2.2838
   39MOL0     H 5259   4.029   6.103   9.634  1.4527 -0.7140 -2.0407
   39MOL0     H 5260   4.100   5.962   9.702  0.0143  0.7240 -0.3378
   39MOL0     H 5261   3.851   5.906   9.777  4.0721 -2.8947  0.4257
   39MOL0     H 5262   3.815   6.076   9.734 -1.9835 -1.4782  0.0901
   39MOL0     H 5263   4.015   6.097  10.109  0.7407  2.8922 -0.7162
   39MOL0     H 5264   4.338   5.995   9.597  0.5085  0.3934  0.8645
   39MOL0     H 5265   4.559   6.067   9.534  3.6458 -0.5618 -0.6437
   40MOL0     O 5266   0.051  10.477   1.390 -0.6387 -0.1005  0.2482
   40MOL0     C 5267  -0.055  10.530   1.361 -0.0828  0.3024 -0.5366
   40MOL0     O 5268  -0.136  10.574   1.448  0.4844 -0.3216  0.1180
   40MOL0     C 5269  -0.124  10.537   1.578  0.2945  0.9623 -0.5725
   40MOL0     C 5270  -0.092  10.402   1.628  0.7844 -0.5901 -1.0343
   40MOL0     C 5271  -0.089  10.365   1.764 -0.1890  0.7557  0.2363
   40MOL0     C 5272  -0.133  10.463   1.853 -0.2789  0.7924  0.2647
   40MOL0     O 5273  -0.144  10.455   1.994 -0.2888  0.4167 -0.0774
   40MOL0     C 5274  -0.168  10.331   2.061  0.4322 -1.3635 -0.2440
   40MOL0     C 5275  -0.150  10.359   2.205 -0.3745  0.9277  0.2442
   40MOL0     C 5276  -0.003  10.390   2.245 -0.7339 -0.1918 -0.5931
   40MOL0     C 5277  -0.004  10.382   2.397  0.0268 -0.1371 -0.7220
   40MOL0     C 5278   0.143  10.366   2.452 -0.1883  0.3868  0.5280
   40MOL0     C 5279   0.151  10.386   2.600  0.0364  0.5338 -0.7024
   40MOL0     C 5280   0.049  10.297   2.666  0.4934  0.1292 -1.3506
   40MOL0     C 5281   0.092  10.249   2.805  0.4551  0.5444  0.0974
   40MOL0     N 5282   0.125  10.356   2.895  0.1055  0.4028  0.4898
   40MOL0     C 5283   0.025  10.433   2.955 -0.3768 -0.0212  0.2288
   40MOL0     C 5284   0.092  10.527   3.014 -1.0803  1.5389 -0.0573
   40MOL0     C 5285   0.028  10.644   3.075  0.3092 -0.7441 -0.5647
   40MOL0     C 5286  -0.045  10.597   3.195  0.3125  0.2701  0.6965
   40MOL0     C 5287  -0.091  10.715   3.280  0.1945 -0.9366  0.3504
   40MOL0     C 5288  -0.177  10.668   3.387 -0.1566 -0.2966 -0.9840
   40MOL0     O 5289  -0.182  10.778   3.483  0.1477 -0.2932 -0.4187
   40MOL0     C 5290  -0.297  10.858   3.482  0.8967 -0.5227 -0.6308
   40MOL0     C 5291  -0.318  10.951   3.586  0.1504 -0.1725 -0.5581
   40MOL0     C 5292  -0.431  11.035   3.598 -0.0227 -0.2292 -0.0326
   40MOL0     C 5293  -0.430  11.120   3.729  0.3863 -0.8505 -0.1753
   40MOL0     C 5294  -0.529  11.023   3.500  0.5817 -0.3465  0.1381
   40MOL0     C 5295  -0.659  11.104   3.509 -0.3601 -0.6157 -0.5770
   40MOL0     O 5296  -0.688  11.170   3.635 -0.8696 -0.0534  0.2976
   40MOL0     C 5297  -0.757  11.291   3.645 -1.2856  0.6604  0.3210
   40MOL0     C 5298  -0.892  11.300   3.632  1.0550  0.2643 -0.3017
   40MOL0     C 5299  -0.969  11.401   3.676  0.6439 -1.8070 -0.8852
   40MOL0     C 5300  -0.911  11.519   3.741 -0.0230 -1.0902  0.1616
   40MOL0     O 5301  -0.982  11.630   3.789 -0.1581  0.0113  0.0243
   40MOL0     C 5302  -1.096  11.613   3.867  1.3499 -0.4537 -0.1851
   40MOL0     C 5303  -1.217  11.697   3.810  0.0684 -0.4198  0.6317
   40MOL0     C 5304  -1.175  11.847   3.781 -0.6335 -0.2397  0.8074
   40MOL0     C 5305  -1.295  11.933   3.774 -1.0379 -0.5415  0.3927
   40MOL0     C 5306  -1.361  11.940   3.635  0.0619 -0.0181  0.0947
   40MOL0     C 5307  -1.494  11.870   3.632  0.3154  0.3008 -0.3293
   40MOL0     C 5308  -1.541  11.849   3.491 -0.0771 -1.0058  0.0300
   40MOL0     C 5309  -1.682  11.788   3.507  0.7218 -0.4404 -0.0350
   40MOL0    Cl 5310  -1.652  11.617   3.567  0.1056  0.1259  0.2161
   40MOL0     C 5311  -0.772  11.520   3.741  0.3724  0.1046  1.0590
   40MOL0     C 5312  -0.696  11.408   3.698  0.6589  0.6372 -0.0286
   40MOL0     O 5313  -0.712  11.138   3.405 -0.4637 -0.2260  0.3215
   40MOL0     C 5314  -0.510  10.937   3.395 -0.7095  0.0254 -0.1150
   40MOL0     C 5315  -0.399  10.860   3.381  0.0407  0.5271  0.1576
   40MOL0     N 5316   0.225  10.519   2.998 -0.4708  0.6611 -0.5121
   40MOL0     N 5317   0.247  10.412   2.920 -0.4928  0.6674  0.6014
   40MOL0     C 5318  -0.154  10.599   1.809 -0.0644  0.3427 -0.4030
   40MOL0     C 5319  -0.151  10.634   1.673  0.6380  0.2347  0.2229
   40MOL0     C 5320  -0.077  10.557   1.225 -0.7710 -0.3578  0.2131
   40MOL0     C 5321  -0.157  10.659   1.192 -0.1838 -0.6121  0.0008
   40MOL0     C 5322  -0.177  10.688   1.057  0.3745  0.1719  0.6359
   40MOL0     C 5323  -0.111  10.623   0.948 -0.2762 -0.3440  1.1713
   40MOL0     O 5324  -0.126  10.676   0.822  0.0282 -0.2604  0.1772
   40MOL0     C 5325  -0.012  10.724   0.745  0.6362  0.7234 -0.9173
   40MOL0     C 5326   0.069  10.833   0.814 -0.1600  0.4460 -0.3087
   40MOL0     C 5327   0.186  10.904   0.740  0.0177 -0.1094 -0.0933
   40MOL0     C 5328   0.148  10.967   0.602 -0.4596 -1.1751  0.4872
   40MOL0     C 5329   0.261  11.024   0.533 -0.0484 -1.5711  1.0592
   40MOL0     C 5330   0.337  11.062   0.455 -0.2995  0.2067  0.0482
   40MOL0     C 5331  -0.035  10.511   0.983 -0.6019 -0.2639  0.3986
   40MOL0     C 5332  -0.014  10.480   1.120 -0.6941  0.0197  1.0857
   40MOL0     H 5333  -0.087  10.316   1.562 -1.4768 -3.4672  2.2347
   40MOL0     H 5334  -0.053  10.265   1.788  1.3242  0.9326 -1.1726
   40MOL0     H 5335  -0.270  10.293   2.049  1.0878 -3.2039 -0.4581
   40MOL0     H 5336  -0.085  10.263   2.037  0.1549 -1.6514 -0.4001
   40MOL0     H 5337  -0.216  10.439   2.240 -1.9998 -0.9739  1.7832
   40MOL0     H 5338  -0.182  10.267   2.255  0.2782  0.4813 -0.1413
   40MOL0     H 5339   0.062  10.310   2.207 -0.1241 -0.4133  0.8775
   40MOL0     H 5340   0.038  10.483   2.203  3.5628 -0.9920  1.3182
   40MOL0     H 5341  -0.050  10.477   2.426  1.3302  0.1717  0.4658
   40MOL0     H 5342  -0.062  10.293   2.424 -0.6293  1.0610  2.1524
   40MOL0     H 5343   0.188  10.269   2.430 -1.7712 -0.0179 -1.2014
   40MOL0     H 5344   0.219  10.426   2.402  0.6602 -0.6570  0.5335
   40MOL0     H 5345   0.248  10.372   2.649 -1.0465  2.1023  2.0958
   40MOL0     H 5346   0.113  10.487   2.615 -0.7094  0.4109 -1.6783
   40MOL0     H 5347  -0.045  10.348   2.691  0.1380 -0.7385 -0.8914
   40MOL0     H 5348   0.022  10.206   2.612  1.3898 -0.4655 -0.8199
   40MOL0     H 5349   0.185  10.193   2.787  0.0470  0.1720 -0.9446
   40MOL0     H 5350   0.008  10.188   2.840  1.1467  0.5565  1.8613
   40MOL0     H 5351  -0.080  10.431   2.927  0.2881 -2.7095 -2.5531
   40MOL0     H 5352   0.107  10.715   3.099  2.6399 -2.7154 -1.9417
   40MOL0     H 5353  -0.032  10.688   2.995 -2.1820 -0.0118  1.5805
   40MOL0     H 5354   0.014  10.539   3.266 -0.5531  0.9241  2.0015
   40MOL0     H 5355  -0.135  10.545   3.158 -0.9185  2.4695  0.4269
   40MOL0     H 5356  -0.141  10.795   3.225 -0.2645 -0.8282  0.9178
   40MOL0     H 5357  -0.008  10.769   3.328 -0.7372  2.0164 -1.1478
   40MOL0     H 5358  -0.119  10.593   3.442  2.4930  2.6759  0.5946
   40MOL0     H 5359  -0.273  10.632   3.350  0.6764 -1.6880 -1.9059
   40MOL0     H 5360  -0.239  10.960   3.660 -0.2186  0.6964 -0.2569
   40MOL0     H 5361  -0.327  11.129   3.765  0.2691 -1.4267  0.3344
   40MOL0     H 5362  -0.456  11.225   3.712 -1.1458 -1.1953 -0.1031
   40MOL0     H 5363  -0.498  11.085   3.808 -0.7770  1.9113  0.1699
   40MOL0     H 5364  -0.953  11.215   3.600  0.1189  0.5235  0.7188
   40MOL0     H 5365  -1.077  11.395   3.666  0.7070 -0.5839 -2.9929
   40MOL0     H 5366  -1.128  11.512   3.895 -2.3746  1.0200  1.5100
   40MOL0     H 5367  -1.070  11.661   3.962 -1.7238 -1.9481  1.5728
   40MOL0     H 5368  -1.247  11.657   3.713 -1.0737  4.1406 -1.1527
   40MOL0     H 5369  -1.304  11.687   3.876 -1.3312 -1.2848 -1.2793
   40MOL0     H 5370  -1.110  11.846   3.693 -1.0253  1.0271  0.4714
   40MOL0     H 5371  -1.126  11.896   3.866 -1.7603  0.9535  0.8093
   40MOL0     H 5372  -1.369  11.897   3.847 -0.9857 -3.3756 -0.8145
   40MOL0     H 5373  -1.261  12.035   3.792  2.5877 -1.6521  0.6525
   40MOL0     H 5374  -1.292  11.909   3.555  0.3455  0.1118  0.2847
   40MOL0     H 5375  -1.388  12.042   3.607 -0.3965 -0.8917 -3.0519
   40MOL0     H 5376  -1.487  11.769   3.674  0.3227  0.3686 -0.1664
   40MOL0     H 5377  -1.566  11.932   3.686  0.5925 -0.3642  0.8518
   40MOL0     H 5378  -1.474  11.787   3.431 -0.1917 -3.9827  2.7585
   40MOL0     H 5379  -1.544  11.948   3.444 -1.9124 -0.3903  1.3232
   40MOL0     H 5380  -1.720  11.791   3.405 -1.3938 -0.6366  0.7037
   40MOL0     H 5381  -1.738  11.849   3.579  1.8372 -3.2214  3.5506
   40MOL0     H 5382  -0.733  11.604   3.796 -1.5290  3.3660 -2.1116
   40MOL0     H 5383  -0.590  11.429   3.711  0.1580  1.7721  3.2398
   40MOL0     H 5384  -0.587  10.923   3.320 -0.9643  1.5643 -0.1794
   40MOL0     H 5385  -0.389  10.792   3.297  1.1459  1.7699 -0.7585
   40MOL0     H 5386  -0.194  10.679   1.869  0.0594  0.6964 -0.7872
   40MOL0     H 5387  -0.176  10.733   1.636 -0.8468 -1.3269 -3.5010
   40MOL0     H 5388  -0.206  10.718   1.269  1.0402 -2.5611  2.4310
   40MOL0     H 5389  -0.231  10.777   1.027 -0.1196 -0.3409 -0.0426
   40MOL0     H 5390   0.055  10.638   0.741  1.7756  1.4301  1.1196
   40MOL0     H 5391  -0.062  10.746   0.651 -2.1196  1.8549  0.6914
   40MOL0     H 5392   0.108  10.781   0.902  0.6074  1.3816 -0.0754
   40MOL0     H 5393   0.006  10.910   0.859 -0.0271  1.2247 -1.4174
   40MOL0     H 5394   0.260  10.825   0.724  0.6210 -0.2640  2.8919
   40MOL0     H 5395   0.222  10.984   0.805 -3.0836  1.2719  0.1073
   40MOL0     H 5396   0.082  11.054   0.600 -3.2575 -3.1051 -3.0361
   40MOL0     H 5397   0.099  10.890   0.541 -4.1329  1.7797 -0.6686
   40MOL0     H 5398   0.411  11.078   0.379 -0.1356  0.8697  0.3435
   40MOL0     H 5399   0.009  10.451   0.905  1.7934  0.3246  1.2185
   40MOL0     H 5400   0.054  10.402   1.152  0.5382  1.3974  1.9534
   41MOL0     O 5401   6.632   5.416   8.180 -0.5442  0.4164 -1.1406
   41MOL0     C 5402   6.608   5.523   8.130  0.2919 -0.2381  0.1955
   41MOL0     O 5403   6.651   5.557   8.001  0.5178  0.3605  0.2779
   41MOL0     C 5404   6.737   5.467   7.939  0.2741  0.6225 -0.0536
   41MOL0     C 5405   6.690   5.344   7.884  0.0839 -0.0023  0.0602
   41MOL0     C 5406   6.779   5.260   7.809 -0.0195 -0.9422  0.4477
   41MOL0     C 5407   6.910   5.296   7.790 -0.0383  0.7489 -0.0798
   41MOL0     O 5408   6.995   5.232   7.709 -0.3054  0.6846  0.1821
   41MOL0     C 5409   6.994   5.083   7.707  0.7204 -0.0466 -0.8393
   41MOL0     C 5410   7.047   5.016   7.839 -0.6888 -0.6946  1.8072
   41MOL0     C 5411   6.970   5.019   7.969  0.9956 -0.0511 -0.6535
   41MOL0     C 5412   7.029   5.119   8.068  0.4849  0.2252  0.9871
   41MOL0     C 5413   6.942   5.141   8.188 -0.1070  0.7161  0.7571
   41MOL0     C 5414   7.022   5.168   8.309  0.5544 -0.1566 -0.6384
   41MOL0     C 5415   6.943   5.199   8.436  0.0616  1.3903  0.0546
   41MOL0     C 5416   7.026   5.139   8.556  0.9594 -0.4687 -0.2807
   41MOL0     N 5417   7.164   5.188   8.556 -0.0379 -0.7975 -0.2231
   41MOL0     C 5418   7.279   5.134   8.622 -0.0998  0.1740 -1.1261
   41MOL0     C 5419   7.366   5.235   8.643 -0.3739  0.4549 -0.8456
   41MOL0     C 5420   7.493   5.233   8.715 -0.4400  0.2951 -0.7183
   41MOL0     C 5421   7.475   5.279   8.863  0.4890  0.2318 -0.0823
   41MOL0     C 5422   7.612   5.274   8.942 -0.3168  0.7703 -0.4225
   41MOL0     C 5423   7.592   5.322   9.093  0.4661 -0.2400  1.3853
   41MOL0     O 5424   7.700   5.318   9.181 -0.1372 -0.0759 -0.2014
   41MOL0     C 5425   7.805   5.393   9.145  0.2379  0.2643  0.7761
   41MOL0     C 5426   7.927   5.324   9.171  1.0550 -0.4226 -0.8817
   41MOL0     C 5427   8.052   5.387   9.162  0.7765  0.3498 -0.4614
   41MOL0     C 5428   8.176   5.304   9.204 -0.2878 -0.3319 -0.2399
   41MOL0     C 5429   8.048   5.526   9.115 -0.1223  0.8781 -1.6649
   41MOL0     C 5430   8.163   5.601   9.119 -0.4387  0.3998 -0.4300
   41MOL0     O 5431   8.285   5.552   9.076 -0.9128  0.2648  0.3009
   41MOL0     C 5432   8.400   5.623   9.078  0.0352 -0.4385  0.9074
   41MOL0     C 5433   8.515   5.547   9.072 -0.4664 -0.5881  0.5785
   41MOL0     C 5434   8.644   5.612   9.051  1.4406  0.4905 -0.0579
   41MOL0     C 5435   8.654   5.749   9.025  0.8447 -0.0561 -0.0637
   41MOL0     O 5436   8.769   5.819   9.000  0.0645 -0.3554 -0.4804
   41MOL0     C 5437   8.895   5.756   9.036  0.1300  0.0960  0.0809
   41MOL0     C 5438   8.999   5.873   9.001  0.0771  0.1259  0.2899
   41MOL0     C 5439   9.139   5.863   9.071  0.1839  0.5474  0.1335
   41MOL0     C 5440   9.228   5.763   9.007  0.1455  0.3425  0.6281
   41MOL0     C 5441   9.349   5.725   9.086  0.4327  1.0405 -0.1543
   41MOL0     C 5442   9.455   5.823   9.078  0.3494 -0.0150 -0.2750
   41MOL0     C 5443   9.585   5.782   9.153  0.3438 -0.3509 -0.0972
   41MOL0     C 5444   9.568   5.764   9.300 -0.2331  0.4473  0.2344
   41MOL0    Cl 5445   9.539   5.919   9.365 -0.2135 -0.6025 -0.1806
   41MOL0     C 5446   8.536   5.813   9.025  0.0559  0.4995  1.0762
   41MOL0     C 5447   8.416   5.758   9.051  0.8847 -0.4534  0.4969
   41MOL0     O 5448   8.151   5.710   9.167  0.3398 -0.0341 -0.2065
   41MOL0     C 5449   7.924   5.590   9.076 -0.2492 -0.1204 -0.8159
   41MOL0     C 5450   7.808   5.522   9.093 -0.2831  0.2777  0.5849
   41MOL0     N 5451   7.310   5.344   8.579 -0.6216 -0.5392 -0.0243
   41MOL0     N 5452   7.199   5.317   8.525 -0.0849  0.5273  0.2242
   41MOL0     C 5453   6.959   5.419   7.846  0.2418 -0.2983  0.2816
   41MOL0     C 5454   6.875   5.499   7.918  0.4011  0.8999 -0.1503
   41MOL0     C 5455   6.521   5.616   8.189 -0.3815  0.9803  0.2235
   41MOL0     C 5456   6.561   5.753   8.179 -0.1374 -0.6054 -0.1528
   41MOL0     C 5457   6.498   5.838   8.272  0.1435 -0.7728 -0.2085
   41MOL0     C 5458   6.388   5.806   8.362  0.0816 -0.0518  0.3382
   41MOL0     O 5459   6.318   5.900   8.438  0.6219 -0.0743 -0.3922
   41MOL0     C 5460   6.197   5.857   8.495  0.8640  0.2337  0.4709
   41MOL0     C 5461   6.110   5.980   8.545  0.4014 -0.3859 -0.1430
   41MOL0     C 5462   5.995   5.948   8.642  0.5388 -0.1519 -0.9337
   41MOL0     C 5463   5.891   5.853   8.588 -0.6267 -0.4899 -1.0344
   41MOL0     C 5464   5.859   5.858   8.444 -0.6661 -0.1547  0.3193
   41MOL0     C 5465   5.847   5.848   8.321  0.3425  0.2509 -0.0221
   41MOL0     C 5466   6.358   5.672   8.356  0.0889  0.2790 -0.8052
   41MOL0     C 5467   6.416   5.576   8.269  0.2960  0.4236 -0.1098
   41MOL0     H 5468   6.583   5.323   7.886  0.0720 -0.0284 -0.7296
   41MOL0     H 5469   6.745   5.174   7.753 -1.6754 -0.5056  0.7062
   41MOL0     H 5470   6.889   5.054   7.695  0.0041  1.2188  1.7436
   41MOL0     H 5471   7.061   5.047   7.628  2.8938 -0.8558  1.2637
   41MOL0     H 5472   7.033   4.910   7.815 -0.6090 -0.4778  0.7876
   41MOL0     H 5473   7.146   5.054   7.864 -0.5074 -1.5946  2.5100
   41MOL0     H 5474   6.864   5.028   7.943  0.7292 -3.5216 -1.2079
   41MOL0     H 5475   6.964   4.921   8.017  1.4737 -0.3154 -1.1351
   41MOL0     H 5476   7.129   5.079   8.089  0.4048 -1.7568 -1.8425
   41MOL0     H 5477   7.040   5.214   8.015  1.8652 -0.2495  0.3808
   41MOL0     H 5478   6.874   5.225   8.171 -0.3202  0.6528  1.2615
   41MOL0     H 5479   6.877   5.055   8.208  0.4686 -1.0306 -3.7617
   41MOL0     H 5480   7.082   5.079   8.329 -0.6301 -0.3832  2.3611
   41MOL0     H 5481   7.087   5.254   8.292  2.7125 -1.4383  0.7587
   41MOL0     H 5482   6.929   5.306   8.453 -3.4727  1.1990 -0.9337
   41MOL0     H 5483   6.846   5.151   8.418  1.3942 -1.0113 -1.2346
   41MOL0     H 5484   7.015   5.030   8.548 -0.9228 -0.2123 -2.3447
   41MOL0     H 5485   6.972   5.168   8.646  2.6709  1.2677  0.2544
   41MOL0     H 5486   7.285   5.030   8.654 -1.5034  0.7454  1.2027
   41MOL0     H 5487   7.508   5.126   8.735 -2.9950  0.2250  1.3662
   41MOL0     H 5488   7.575   5.285   8.666  0.6213 -0.5656  0.0805
   41MOL0     H 5489   7.399   5.213   8.906 -1.4855  0.5392 -2.8214
   41MOL0     H 5490   7.433   5.379   8.858 -2.8916 -1.1099 -1.5262
   41MOL0     H 5491   7.681   5.343   8.893 -0.4182  1.6647  0.6655
   41MOL0     H 5492   7.645   5.170   8.950  1.1982  1.2118 -0.7111
   41MOL0     H 5493   7.503   5.265   9.123  0.1794 -0.4290  0.2427
   41MOL0     H 5494   7.559   5.426   9.083 -0.0738 -0.6157 -2.3764
   41MOL0     H 5495   7.926   5.222   9.207  2.0536  0.1469  0.8893
   41MOL0     H 5496   8.247   5.290   9.122  1.3312 -3.3718  1.5189
   41MOL0     H 5497   8.238   5.361   9.274  0.6192 -0.5396 -0.8566
   41MOL0     H 5498   8.151   5.206   9.245 -2.6021 -1.6590 -4.2437
   41MOL0     H 5499   8.507   5.440   9.087  1.6063 -0.5542  2.5233
   41MOL0     H 5500   8.740   5.562   9.060  1.2925  0.4471  1.5062
   41MOL0     H 5501   8.897   5.728   9.142 -0.0893 -0.9189 -0.1657
   41MOL0     H 5502   8.927   5.673   8.971  2.1790  2.7086 -2.5152
   41MOL0     H 5503   9.005   5.903   8.895  0.7440  2.4975  0.9356
   41MOL0     H 5504   8.945   5.952   9.053 -4.5570 -2.6665  0.2874
   41MOL0     H 5505   9.124   5.844   9.178  1.0896  0.7686  0.3125
   41MOL0     H 5506   9.198   5.955   9.069  1.7601 -0.2540  3.0322
   41MOL0     H 5507   9.178   5.666   9.002 -0.0355  0.4348  0.6497
   41MOL0     H 5508   9.251   5.804   8.908 -2.4109  0.0023 -0.1949
   41MOL0     H 5509   9.391   5.635   9.040 -3.6318 -0.0449 -2.2412
   41MOL0     H 5510   9.314   5.695   9.186 -1.3100  0.6348 -0.8435
   41MOL0     H 5511   9.478   5.830   8.972 -0.3146 -1.0289 -0.5027
   41MOL0     H 5512   9.426   5.919   9.121  0.5793 -0.9135  2.0364
   41MOL0     H 5513   9.656   5.864   9.138 -1.8115  2.0182  1.7270
   41MOL0     H 5514   9.618   5.694   9.098  0.7141 -1.4029  1.7147
   41MOL0     H 5515   9.657   5.712   9.337  1.4345  0.8246 -2.9176
   41MOL0     H 5516   9.488   5.694   9.326 -0.6849  0.6029 -0.6922
   41MOL0     H 5517   8.547   5.920   9.012 -0.1672  1.1608  4.9501
   41MOL0     H 5518   8.335   5.830   9.048 -0.0829 -1.5153 -3.1215
   41MOL0     H 5519   7.917   5.691   9.037  1.4211 -0.2131 -1.4514
   41MOL0     H 5520   7.724   5.588   9.074  0.6994  1.7030  1.0709
   41MOL0     H 5521   7.063   5.443   7.824 -0.4191  0.7768 -1.9791
   41MOL0     H 5522   6.920   5.594   7.947 -0.8542  1.1330  1.1715
   41MOL0     H 5523   6.653   5.778   8.128  1.5521 -1.1484  2.4258
   41MOL0     H 5524   6.529   5.942   8.270 -2.6164  0.1397 -0.2181
   41MOL0     H 5525   6.149   5.795   8.418 -1.5115  2.6252 -0.1297
   41MOL0     H 5526   6.215   5.804   8.589 -2.4378 -3.2555 -0.6390
   41MOL0     H 5527   6.075   6.025   8.452  0.8768  0.2365 -0.0226
   41MOL0     H 5528   6.186   6.044   8.590  1.9591 -1.8304 -0.5763
   41MOL0     H 5529   5.931   6.034   8.662 -0.0690 -0.2000 -2.5531
   41MOL0     H 5530   6.039   5.913   8.736 -0.6730  1.1994  0.1862
   41MOL0     H 5531   5.801   5.857   8.649 -0.3717  1.4024 -0.7369
   41MOL0     H 5532   5.933   5.756   8.617  1.4384  1.0270  1.5233
   41MOL0     H 5533   5.836   5.836   8.215 -0.2278 -3.5140  0.3060
   41MOL0     H 5534   6.276   5.630   8.415  1.9110 -2.5501 -0.1013
   41MOL0     H 5535   6.393   5.470   8.264  3.2775 -0.2564 -2.5250
   42MOL0     O 5536   1.780   6.598   3.303  0.0613  0.0630  0.3219
   42MOL0     C 5537   1.823   6.716   3.286  0.4306  0.0655 -0.6938
   42MOL0     O 5538   1.941   6.770   3.334  0.2986  0.8611 -0.6893
   42MOL0     C 5539   2.028   6.675   3.385 -0.6587  0.3536 -0.2398
   42MOL0     C 5540   2.006   6.610   3.505 -1.2736 -0.2087  0.2812
   42MOL0     C 5541   2.096   6.526   3.567 -0.0808  0.3991  0.4273
   42MOL0     C 5542   2.221   6.508   3.508 -0.4481 -0.1289  0.3415
   42MOL0     O 5543   2.297   6.422   3.581 -0.9375  0.1844  0.0997
   42MOL0     C 5544   2.437   6.425   3.541  0.0012 -0.1455 -0.4923
   42MOL0     C 5545   2.515   6.308   3.586  0.6426 -0.1319  0.7565
   42MOL0     C 5546   2.671   6.329   3.548  0.0182  0.1317 -0.1725
   42MOL0     C 5547   2.742   6.371   3.679  0.2864  0.8352 -0.2828
   42MOL0     C 5548   2.900   6.404   3.661  0.0081  0.3335  0.5448
   42MOL0     C 5549   2.956   6.450   3.796  0.6976  0.3800 -0.4191
   42MOL0     C 5550   3.102   6.450   3.784  0.3526  0.4102  0.6365
   42MOL0     C 5551   3.165   6.463   3.922  0.6062  0.8415 -0.2899
   42MOL0     N 5552   3.289   6.533   3.916  0.0530  1.3159  0.1768
   42MOL0     C 5553   3.409   6.492   3.876  0.2012  0.0937  0.7070
   42MOL0     C 5554   3.487   6.598   3.888 -0.5537 -0.2007 -0.5105
   42MOL0     C 5555   3.629   6.611   3.823  0.3992  0.9936 -0.3847
   42MOL0     C 5556   3.753   6.592   3.928  0.3352  0.2264 -0.0569
   42MOL0     C 5557   3.882   6.595   3.856 -0.0618  0.2519 -0.1229
   42MOL0     C 5558   4.011   6.666   3.920  0.6788 -0.5131 -0.5772
   42MOL0     O 5559   4.027   6.599   4.038  0.3712 -0.0088  0.5167
   42MOL0     C 5560   4.128   6.616   4.125  0.5484 -0.6387 -0.0798
   42MOL0     C 5561   4.120   6.548   4.245  0.5964  0.0484 -0.0250
   42MOL0     C 5562   4.225   6.531   4.333  0.1175 -0.4603 -0.2918
   42MOL0     C 5563   4.202   6.426   4.437 -0.2744  0.3721  0.3020
   42MOL0     C 5564   4.344   6.604   4.302  0.2007 -0.0150 -0.0597
   42MOL0     C 5565   4.469   6.596   4.386  0.0653 -0.0717 -0.6126
   42MOL0     O 5566   4.581   6.663   4.347 -0.6157  0.8981 -0.1050
   42MOL0     C 5567   4.687   6.676   4.426 -0.1526  0.0677  0.1543
   42MOL0     C 5568   4.752   6.567   4.491 -0.0622  0.4128  0.2775
   42MOL0     C 5569   4.856   6.588   4.590  0.3080  0.7535  0.3003
   42MOL0     C 5570   4.897   6.717   4.617 -0.8214  0.2689 -0.0492
   42MOL0     O 5571   4.986   6.748   4.709  0.1632 -0.5805  0.1568
   42MOL0     C 5572   5.114   6.663   4.700  0.1935  0.1128 -0.0828
   42MOL0     C 5573   5.219   6.711   4.799  0.1129 -0.1633  0.5784
   42MOL0     C 5574   5.290   6.847   4.750 -0.8477 -0.3007 -0.6104
   42MOL0     C 5575   5.332   6.927   4.873 -0.7249  0.0306  0.4171
   42MOL0     C 5576   5.412   7.059   4.836  0.9328 -0.6744 -0.0132
   42MOL0     C 5577   5.544   7.073   4.909 -0.1413 -0.1616  0.4337
   42MOL0     C 5578   5.634   7.186   4.856  0.6892 -0.6636 -0.1486
   42MOL0     C 5579   5.762   7.205   4.928  0.2813  0.6343  0.1822
   42MOL0    Cl 5580   5.848   7.050   4.944  0.1700 -0.1200  0.1888
   42MOL0     C 5581   4.829   6.821   4.553 -0.7405 -0.4046 -0.8191
   42MOL0     C 5582   4.727   6.802   4.464 -0.1450  0.7987  0.4762
   42MOL0     O 5583   4.462   6.512   4.475 -0.3277  1.1438  0.3789
   42MOL0     C 5584   4.350   6.690   4.195 -0.5236 -0.2623  0.1495
   42MOL0     C 5585   4.237   6.703   4.108 -0.7448  0.9100 -0.2354
   42MOL0     N 5586   3.402   6.707   3.908 -0.1475 -0.3790  0.5990
   42MOL0     N 5587   3.283   6.666   3.924 -0.0260 -0.1031 -0.0867
   42MOL0     C 5588   2.250   6.567   3.379 -0.1849  0.6335 -0.0103
   42MOL0     C 5589   2.150   6.644   3.321 -0.2682  1.6693  0.1213
   42MOL0     C 5590   1.737   6.815   3.210 -1.1536 -1.2037  0.2100
   42MOL0     C 5591   1.656   6.776   3.098 -0.7930 -0.3780 -0.0920
   42MOL0     C 5592   1.588   6.878   3.031 -0.1173  0.4417 -0.8108
   42MOL0     C 5593   1.583   7.015   3.068 -0.0621 -0.6412  0.3089
   42MOL0     O 5594   1.519   7.112   3.000  0.2447  1.3337  0.1304
   42MOL0     C 5595   1.392   7.071   2.938 -0.7549 -0.7450 -0.7994
   42MOL0     C 5596   1.286   7.044   3.049 -0.4389 -0.4374  0.6023
   42MOL0     C 5597   1.136   7.036   2.995  0.3855 -0.6000  0.0270
   42MOL0     C 5598   1.111   6.942   2.873  0.1383 -0.3274 -0.2348
   42MOL0     C 5599   1.121   6.795   2.906 -0.4733 -0.9530 -0.4013
   42MOL0     C 5600   1.135   6.680   2.937  0.8739  0.7545  0.2660
   42MOL0     C 5601   1.658   7.049   3.179  1.3143  0.5136 -0.2295
   42MOL0     C 5602   1.740   6.950   3.244 -0.2805  0.3391  0.0507
   42MOL0     H 5603   1.906   6.619   3.545 -0.3921 -1.7210  3.0696
   42MOL0     H 5604   2.062   6.480   3.659  0.6777 -0.3724  0.3393
   42MOL0     H 5605   2.440   6.424   3.431 -2.6948 -0.4763 -0.6354
   42MOL0     H 5606   2.482   6.517   3.577 -0.4374 -1.4394  3.8609
   42MOL0     H 5607   2.492   6.291   3.691  1.8976 -0.3419  1.0191
   42MOL0     H 5608   2.466   6.221   3.543 -0.6145  0.0330  1.7825
   42MOL0     H 5609   2.718   6.236   3.513 -0.1263 -0.5654  1.3914
   42MOL0     H 5610   2.691   6.417   3.486 -1.4076  0.7355  0.2035
   42MOL0     H 5611   2.690   6.454   3.727 -2.9263  0.0218 -2.0531
   42MOL0     H 5612   2.744   6.285   3.747 -2.4766 -0.9225 -2.2113
   42MOL0     H 5613   2.939   6.308   3.627 -1.4015  0.7540 -2.6318
   42MOL0     H 5614   2.908   6.482   3.585  0.3057 -1.6016 -1.4991
   42MOL0     H 5615   2.917   6.548   3.823  1.8418  0.4793  0.9837
   42MOL0     H 5616   2.935   6.372   3.870 -0.6222 -2.4408 -3.4850
   42MOL0     H 5617   3.138   6.364   3.727  0.3236  1.1344 -0.5224
   42MOL0     H 5618   3.128   6.536   3.721 -1.2065 -0.0151 -0.6626
   42MOL0     H 5619   3.177   6.360   3.957  2.1540  1.0027 -0.2644
   42MOL0     H 5620   3.099   6.522   3.985  0.8190  0.3551  0.3999
   42MOL0     H 5621   3.437   6.393   3.843 -1.1970 -1.0924  2.8203
   42MOL0     H 5622   3.635   6.530   3.750  2.3115 -0.9440  1.7846
   42MOL0     H 5623   3.635   6.708   3.773  1.8813  1.1761  0.1116
   42MOL0     H 5624   3.734   6.500   3.983  0.4600 -1.3497 -2.4954
   42MOL0     H 5625   3.751   6.676   3.998 -0.8195  0.7547 -0.6807
   42MOL0     H 5626   3.855   6.652   3.767  0.1034 -1.2478 -1.1707
   42MOL0     H 5627   3.911   6.498   3.815  0.4992  0.2064  0.3652
   42MOL0     H 5628   3.995   6.771   3.946 -2.0712 -1.0638  0.2880
   42MOL0     H 5629   4.098   6.656   3.856 -0.2742 -1.3986 -1.7711
   42MOL0     H 5630   4.036   6.481   4.262 -0.4591  1.8688  2.4240
   42MOL0     H 5631   4.104   6.378   4.443 -0.2794 -0.2832 -3.0105
   42MOL0     H 5632   4.278   6.349   4.420 -0.2567  0.1418  1.3627
   42MOL0     H 5633   4.228   6.465   4.536  3.6989 -0.9115 -0.0394
   42MOL0     H 5634   4.741   6.463   4.465 -2.0291  0.8358 -0.7471
   42MOL0     H 5635   4.903   6.500   4.631 -3.0650 -1.7416 -0.7358
   42MOL0     H 5636   5.080   6.565   4.732 -2.0506 -0.0055 -2.4602
   42MOL0     H 5637   5.169   6.652   4.606 -0.6993 -2.0992 -0.3850
   42MOL0     H 5638   5.171   6.727   4.896  2.9675  0.3786  1.9963
   42MOL0     H 5639   5.285   6.625   4.810  0.2851 -0.1803 -0.4855
   42MOL0     H 5640   5.227   6.914   4.691  0.8599  1.1013 -0.9213
   42MOL0     H 5641   5.374   6.815   4.687 -0.1102  0.9231 -0.2959
   42MOL0     H 5642   5.243   6.943   4.934 -1.1220 -0.8029  0.0693
   42MOL0     H 5643   5.401   6.868   4.935  0.6538  0.7987 -0.3411
   42MOL0     H 5644   5.351   7.146   4.864  2.5184  0.2440  0.7071
   42MOL0     H 5645   5.427   7.075   4.729  3.2938  3.3176  0.7110
   42MOL0     H 5646   5.536   7.081   5.017 -0.1014 -0.6556  0.4751
   42MOL0     H 5647   5.599   6.978   4.906  2.5626  1.2901  0.1545
   42MOL0     H 5648   5.579   7.279   4.870 -1.4368 -1.3412 -3.1358
   42MOL0     H 5649   5.648   7.165   4.750 -3.2382 -0.4415 -0.8572
   42MOL0     H 5650   5.756   7.249   5.028 -0.7067  0.2133  0.3128
   42MOL0     H 5651   5.826   7.278   4.877 -2.1602  2.3058 -0.6698
   42MOL0     H 5652   4.841   6.919   4.596 -1.5557 -1.5054  2.1575
   42MOL0     H 5653   4.667   6.882   4.423 -0.1003 -0.5240 -2.4031
   42MOL0     H 5654   4.440   6.750   4.181 -1.0522  0.9155  1.5002
   42MOL0     H 5655   4.235   6.776   4.027 -1.5823  3.8000  2.2350
   42MOL0     H 5656   2.343   6.555   3.324  0.6777 -1.6257  1.7563
   42MOL0     H 5657   2.165   6.703   3.231 -1.6234 -1.0714 -2.0729
   42MOL0     H 5658   1.645   6.674   3.063 -3.8255 -0.4498  0.8331
   42MOL0     H 5659   1.533   6.841   2.945  0.1893 -0.0434 -0.8026
   42MOL0     H 5660   1.348   7.147   2.874 -0.6372  0.3905  0.4228
   42MOL0     H 5661   1.405   6.986   2.870 -6.2570 -1.2630 -1.6403
   42MOL0     H 5662   1.284   7.131   3.116 -3.7726 -0.3674  0.5545
   42MOL0     H 5663   1.317   6.955   3.104 -0.2441  0.2925  1.7079
   42MOL0     H 5664   1.122   7.136   2.954 -1.1584 -0.3390  1.1247
   42MOL0     H 5665   1.064   7.031   3.077 -0.3618  2.2665 -0.3454
   42MOL0     H 5666   1.182   6.953   2.791  1.2481 -4.2707  0.0436
   42MOL0     H 5667   1.012   6.954   2.828  0.5013  0.9293 -0.7452
   42MOL0     H 5668   1.162   6.576   2.932  2.1901  1.1113 -0.6993
   42MOL0     H 5669   1.646   7.151   3.213  1.3132  0.3438  0.2777
   42MOL0     H 5670   1.814   6.983   3.315  0.8245  3.0981 -2.1928
   43MOL0     O 5671   9.583   7.324   9.029  0.6540 -0.0275 -0.3195
   43MOL0     C 5672   9.677   7.405   9.047  0.4096 -0.6067  0.2377
   43MOL0     O 5673   9.814   7.377   9.040  0.1757 -0.6910  0.2500
   43MOL0     C 5674   9.839   7.249   8.995 -0.7569  0.0600 -0.1375
   43MOL0     C 5675   9.935   7.223   8.901 -0.2982 -0.8350  0.4704
   43MOL0     C 5676   9.965   7.089   8.858  0.2242 -0.3464  0.4758
   43MOL0     C 5677   9.905   6.984   8.919  0.7207 -1.1361 -0.3270
   43MOL0     O 5678   9.927   6.863   8.865 -0.9366 -0.4809  0.0202
   43MOL0     C 5679   9.888   6.748   8.933 -0.2254  0.4979  0.0252
   43MOL0     C 5680   9.952   6.624   8.866  1.0660 -1.2096 -0.3871
   43MOL0     C 5681  10.019   6.546   8.972  0.0871 -1.2512  0.5630
   43MOL0     C 5682  10.035   6.398   8.935 -1.0157 -0.3529  0.5579
   43MOL0     C 5683  10.132   6.367   8.820  0.1621 -0.7602  0.0515
   43MOL0     C 5684  10.157   6.221   8.815 -0.2944  0.1951 -0.3067
   43MOL0     C 5685  10.224   6.167   8.689 -0.1221 -0.3270  0.4750
   43MOL0     C 5686  10.375   6.207   8.694 -0.5726  0.6719  0.4972
   43MOL0     N 5687  10.458   6.119   8.783  0.0792 -0.0491 -0.2845
   43MOL0     C 5688  10.591   6.137   8.823 -0.0353  0.5590  0.1536
   43MOL0     C 5689  10.631   6.023   8.890  0.1443  0.7600  0.6397
   43MOL0     C 5690  10.764   5.968   8.938  1.0507  0.2479 -0.0689
   43MOL0     C 5691  10.874   6.072   8.928  0.6181  0.1789 -0.1137
   43MOL0     C 5692  11.006   6.018   8.977 -0.0138  0.9008  0.3591
   43MOL0     C 5693  11.028   6.040   9.133 -0.4164 -0.8759 -0.1850
   43MOL0     O 5694  11.158   5.985   9.167 -0.7448 -0.0936  0.3041
   43MOL0     C 5695  11.266   6.069   9.170  0.8877  0.9432  1.5481
   43MOL0     C 5696  11.272   6.181   9.247 -0.2089 -0.1638  0.0835
   43MOL0     C 5697  11.385   6.258   9.248  0.2444 -0.0051  0.3449
   43MOL0     C 5698  11.394   6.395   9.309  0.3370  0.2425  0.1354
   43MOL0     C 5699  11.494   6.222   9.173 -0.0715  0.1889 -1.2785
   43MOL0     C 5700  11.613   6.297   9.176  0.2134 -0.2704  0.7658
   43MOL0     O 5701  11.689   6.299   9.296  0.0756  0.2627  0.7325
   43MOL0     C 5702  11.816   6.341   9.286 -0.3180 -0.3510 -0.7481
   43MOL0     C 5703  11.923   6.263   9.324  0.2517 -0.2058 -0.6774
   43MOL0     C 5704  12.051   6.303   9.342 -0.4131 -0.9442  0.9872
   43MOL0     C 5705  12.086   6.430   9.289 -0.1548 -0.4116  0.5339
   43MOL0     O 5706  12.216   6.472   9.301  0.6730  0.0723  0.7538
   43MOL0     C 5707  12.275   6.519   9.180  0.5174  0.2235  0.6157
   43MOL0     C 5708  12.424   6.533   9.191  1.0121  0.6408  0.3659
   43MOL0     C 5709  12.461   6.380   9.197  0.6989  0.0369 -0.4794
   43MOL0     C 5710  12.604   6.356   9.152  0.2581  0.2359  0.5754
   43MOL0     C 5711  12.638   6.216   9.190  0.2975 -0.0032 -0.3116
   43MOL0     C 5712  12.778   6.191   9.130  1.0510 -0.6881 -0.1092
   43MOL0     C 5713  12.853   6.074   9.192 -0.0175  0.1229 -0.2038
   43MOL0     C 5714  12.962   6.110   9.293 -0.0682  0.1532  0.5168
   43MOL0    Cl 5715  13.101   6.217   9.250 -0.3235 -0.1034 -0.6259
   43MOL0     C 5716  11.981   6.497   9.228  0.5159 -0.4897  0.1581
   43MOL0     C 5717  11.848   6.463   9.235  0.6238 -0.3113  0.3679
   43MOL0     O 5718  11.649   6.346   9.067 -0.0210  0.3489 -0.7473
   43MOL0     C 5719  11.484   6.101   9.094 -0.0750  0.2862 -0.1489
   43MOL0     C 5720  11.372   6.015   9.094  0.5128  0.1049  1.1681
   43MOL0     N 5721  10.518   5.937   8.892  0.0097 -0.5522  0.4660
   43MOL0     N 5722  10.421   5.995   8.832  0.2621 -1.0999  0.6468
   43MOL0     C 5723   9.814   7.011   9.028 -0.0051  0.3088  0.0163
   43MOL0     C 5724   9.783   7.139   9.066  0.0638  0.4931  0.8296
   43MOL0     C 5725   9.630   7.543   9.079  1.1926  0.7567  0.0188
   43MOL0     C 5726   9.694   7.654   9.018  0.6744 -0.5229 -0.4549
   43MOL0     C 5727   9.671   7.787   9.070  0.5758  1.2080 -0.4877
   43MOL0     C 5728   9.571   7.808   9.157  1.2748 -0.7922 -0.8027
   43MOL0     O 5729   9.556   7.932   9.229  0.3847  0.2208  0.0891
   43MOL0     C 5730   9.574   7.927   9.369  0.6213  0.8648 -0.0118
   43MOL0     C 5731   9.561   8.069   9.418 -0.3891 -0.4570 -0.0788
   43MOL0     C 5732   9.575   8.068   9.573  0.4474 -0.0613  1.4315
   43MOL0     C 5733   9.448   8.085   9.638  0.7880 -0.7921 -0.6047
   43MOL0     C 5734   9.411   8.228   9.645  0.3753  0.7951 -0.0735
   43MOL0     C 5735   9.370   8.336   9.652 -0.5150  0.1179  0.1056
   43MOL0     C 5736   9.488   7.700   9.207 -0.7829  0.2501  1.2229
   43MOL0     C 5737   9.522   7.572   9.165 -1.6364  0.2591 -0.0610
   43MOL0     H 5738   9.972   7.310   8.848 -0.4086 -0.5333  0.8932
   43MOL0     H 5739  10.033   7.079   8.774  0.8155  1.6622  0.6621
   43MOL0     H 5740   9.904   6.767   9.039  0.7435  1.7213 -0.3188
   43MOL0     H 5741   9.780   6.733   8.923 -0.1725  0.8693 -1.3307
   43MOL0     H 5742   9.892   6.569   8.793 -1.7632  1.8085 -0.5155
   43MOL0     H 5743  10.034   6.665   8.806 -1.6031  1.2904 -2.5801
   43MOL0     H 5744  10.113   6.595   8.998  1.6291 -1.6627 -3.5787
   43MOL0     H 5745   9.958   6.536   9.062  0.5940 -0.6703  0.9779
   43MOL0     H 5746  10.091   6.358   9.020 -1.0748  0.1905  0.8574
   43MOL0     H 5747   9.943   6.342   8.919  0.6123 -2.2468 -3.5273
   43MOL0     H 5748  10.096   6.397   8.722  0.3296  0.7064  0.4223
   43MOL0     H 5749  10.221   6.431   8.828 -1.4249  1.5014  0.3721
   43MOL0     H 5750  10.205   6.193   8.909 -4.0372  1.9528  2.4259
   43MOL0     H 5751  10.058   6.173   8.812  0.0793 -0.6921  0.9436
   43MOL0     H 5752  10.217   6.058   8.677  2.8436 -0.8422  2.3006
   43MOL0     H 5753  10.179   6.209   8.598  1.0690 -1.4800 -0.6986
   43MOL0     H 5754  10.392   6.309   8.729  4.6179  1.0911 -2.2972
   43MOL0     H 5755  10.401   6.204   8.588 -0.6184  0.7841  0.4830
   43MOL0     H 5756  10.656   6.216   8.786  2.9574 -1.2330  1.3023
   43MOL0     H 5757  10.758   5.935   9.042 -1.2345  4.0480  1.1882
   43MOL0     H 5758  10.790   5.885   8.871  0.7179  1.0130 -1.1788
   43MOL0     H 5759  10.835   6.162   8.977 -1.7776 -2.2237  2.8549
   43MOL0     H 5760  10.889   6.095   8.822 -2.2227  0.1229 -0.6151
   43MOL0     H 5761  11.082   6.083   8.933 -0.2904 -0.3474 -2.1129
   43MOL0     H 5762  11.022   5.914   8.947  0.4688  0.8335  0.8383
   43MOL0     H 5763  10.944   6.006   9.194 -0.4677 -0.9177 -0.2781
   43MOL0     H 5764  11.028   6.144   9.164 -1.1105 -0.7361 -0.6258
   43MOL0     H 5765  11.193   6.199   9.319  0.7641  0.1142  1.1122
   43MOL0     H 5766  11.391   6.467   9.227  3.2109  1.0464  0.6192
   43MOL0     H 5767  11.312   6.415   9.378  1.1688  3.2491  0.3936
   43MOL0     H 5768  11.485   6.396   9.370  1.5498 -3.5945 -1.3016
   43MOL0     H 5769  11.916   6.160   9.356  2.3507 -0.2178 -0.1104
   43MOL0     H 5770  12.129   6.235   9.374  2.6743  1.8690  0.0434
   43MOL0     H 5771  12.243   6.458   9.095 -2.5272 -0.1926  1.9618
   43MOL0     H 5772  12.233   6.620   9.171  0.5294  0.0244 -2.9709
   43MOL0     H 5773  12.444   6.585   9.096 -0.3502 -1.5773 -1.2015
   43MOL0     H 5774  12.460   6.594   9.274  2.4550 -0.9869  0.9887
   43MOL0     H 5775  12.402   6.322   9.124 -0.2238 -1.4995  1.3953
   43MOL0     H 5776  12.441   6.334   9.294  2.4603 -0.7877 -0.4602
   43MOL0     H 5777  12.605   6.377   9.045 -0.6108  6.1215  1.3933
   43MOL0     H 5778  12.668   6.427   9.205 -1.1499  0.4344  2.0596
   43MOL0     H 5779  12.556   6.150   9.161  1.5293 -1.0530 -1.6017
   43MOL0     H 5780  12.644   6.208   9.299  0.4874 -1.8363 -0.4293
   43MOL0     H 5781  12.775   6.181   9.021  3.6591  2.0250 -0.5628
   43MOL0     H 5782  12.845   6.273   9.158  2.8729 -1.9984 -0.4128
   43MOL0     H 5783  12.907   6.017   9.116  0.8398  1.0821 -0.3269
   43MOL0     H 5784  12.779   6.000   9.224  1.8105 -1.5966  0.3020
   43MOL0     H 5785  13.007   6.013   9.316 -2.1383 -1.0940 -0.3834
   43MOL0     H 5786  12.906   6.144   9.381 -1.6230  0.3373 -0.5019
   43MOL0     H 5787  11.995   6.596   9.186  0.2988  0.1951  1.6287
   43MOL0     H 5788  11.778   6.529   9.184 -0.7824 -0.8209  1.5895
   43MOL0     H 5789  11.578   6.069   9.049  0.5502  1.2141  0.4860
   43MOL0     H 5790  11.373   5.916   9.050 -1.0218  0.7509 -0.4269
   43MOL0     H 5791   9.770   6.942   9.099 -1.6519  0.2556 -1.0098
   43MOL0     H 5792   9.700   7.146   9.136  0.2195 -1.9113  1.3153
   43MOL0     H 5793   9.779   7.652   8.950 -0.1330  3.2663 -1.8482
   43MOL0     H 5794   9.721   7.875   9.031  0.9138  1.3053  0.1569
   43MOL0     H 5795   9.484   7.877   9.407  0.7916  0.5822  0.0155
   43MOL0     H 5796   9.666   7.876   9.397  0.7416  0.7451 -0.6236
   43MOL0     H 5797   9.463   8.113   9.395  0.6798  2.4450  0.4339
   43MOL0     H 5798   9.642   8.133   9.381  0.4909 -2.6975 -2.3021
   43MOL0     H 5799   9.643   8.150   9.601 -0.0905  2.6510 -3.9650
   43MOL0     H 5800   9.615   7.976   9.616  3.4860  2.0303  3.5570
   43MOL0     H 5801   9.472   8.063   9.742  2.4836  4.7421  0.4849
   43MOL0     H 5802   9.370   8.025   9.591  0.7633 -3.3200  2.3964
   43MOL0     H 5803   9.338   8.438   9.662  4.0272  1.7170  0.4499
   43MOL0     H 5804   9.398   7.724   9.262  0.6714  4.6925  2.1121
   43MOL0     H 5805   9.469   7.483   9.198 -0.5310 -0.1283  0.7070
   44MOL0     O 5806   0.825   3.392   8.945  0.3729  0.2781  0.3864
   44MOL0     C 5807   0.742   3.378   9.026  0.1929  0.6557 -0.1192
   44MOL0     O 5808   0.765   3.300   9.145  0.4318  0.5819 -0.7622
   44MOL0     C 5809   0.899   3.268   9.173  0.0668  0.5956 -0.0512
   44MOL0     C 5810   0.958   3.157   9.117  0.8867 -0.4644  0.3388
   44MOL0     C 5811   1.083   3.123   9.138 -0.1699 -0.3761 -0.7356
   44MOL0     C 5812   1.156   3.185   9.235 -0.9040 -0.3984 -1.3412
   44MOL0     O 5813   1.281   3.138   9.263 -0.1145  0.4667  0.6345
   44MOL0     C 5814   1.379   3.217   9.329  0.6275  0.2607  0.3299
   44MOL0     C 5815   1.494   3.119   9.354 -0.8856 -0.5081  0.9188
   44MOL0     C 5816   1.581   3.082   9.232  0.3742  0.9122  0.3005
   44MOL0     C 5817   1.719   3.159   9.248  0.1237 -0.1292 -0.0714
   44MOL0     C 5818   1.819   3.138   9.135 -0.2921  0.4823  0.3358
   44MOL0     C 5819   1.759   3.124   8.999  0.3025  0.3419 -0.4941
   44MOL0     C 5820   1.866   3.109   8.897 -1.5801 -0.3309 -0.2587
   44MOL0     C 5821   1.828   3.127   8.750 -0.3301  0.3571  0.1224
   44MOL0     N 5822   1.928   3.097   8.646  0.2730 -0.8585  0.8573
   44MOL0     C 5823   2.033   3.186   8.617 -0.0035 -0.4929  0.0353
   44MOL0     C 5824   2.088   3.133   8.504  0.0435 -0.4970 -1.1111
   44MOL0     C 5825   2.214   3.194   8.443 -0.3234 -0.4860  0.2686
   44MOL0     C 5826   2.307   3.084   8.423 -0.9607  0.9361 -0.7772
   44MOL0     C 5827   2.392   3.048   8.550  1.4629 -0.6255  0.2146
   44MOL0     C 5828   2.312   3.003   8.665  0.8328  0.0114 -0.6511
   44MOL0     O 5829   2.401   2.927   8.746  0.2498  0.2792  0.4714
   44MOL0     C 5830   2.347   2.838   8.832  0.1423  0.1959  0.0922
   44MOL0     C 5831   2.392   2.699   8.845 -0.3613 -1.3370  0.3619
   44MOL0     C 5832   2.333   2.612   8.931 -0.6023 -0.4519  0.1163
   44MOL0     C 5833   2.376   2.477   8.941 -0.2276  0.9040  0.5420
   44MOL0     C 5834   2.222   2.659   9.013 -0.0866 -1.0965 -0.0578
   44MOL0     C 5835   2.155   2.584   9.121 -0.1154 -0.2269 -1.2576
   44MOL0     O 5836   2.223   2.479   9.173 -0.2211  0.6429  0.2533
   44MOL0     C 5837   2.161   2.402   9.271  0.2678 -1.3098  0.6376
   44MOL0     C 5838   2.100   2.292   9.232 -0.7946  0.7810 -0.5549
   44MOL0     C 5839   2.056   2.196   9.329 -1.0889  0.8455 -0.4976
   44MOL0     C 5840   2.062   2.226   9.465  0.4171 -0.9607  0.8576
   44MOL0     O 5841   2.016   2.148   9.567  0.0879  0.4820 -0.1864
   44MOL0     C 5842   1.897   2.075   9.538 -0.0418  0.2907  0.7837
   44MOL0     C 5843   1.830   2.003   9.653  0.2484 -0.1121  0.8277
   44MOL0     C 5844   1.792   2.061   9.789  0.8451 -0.5343  0.1264
   44MOL0     C 5845   1.775   1.939   9.882  0.4437 -1.1315 -0.2120
   44MOL0     C 5846   1.673   1.976   9.994  0.0168 -0.0520  0.5502
   44MOL0     C 5847   1.729   2.088  10.091 -0.5465  0.1292  0.6002
   44MOL0     C 5848   1.866   2.056  10.161  0.8371  0.1459  0.0523
   44MOL0     C 5849   1.913   2.151  10.263 -0.1853 -0.1436 -0.1482
   44MOL0    Cl 5850   1.935   2.312  10.186 -0.0921  0.2296  0.4947
   44MOL0     C 5851   2.127   2.351   9.498  0.4514  0.3346  0.2788
   44MOL0     C 5852   2.180   2.439   9.407  0.1070  0.2555  1.1362
   44MOL0     O 5853   2.042   2.618   9.153  0.1520  0.2145  0.0262
   44MOL0     C 5854   2.170   2.793   8.986  0.4638  0.5216  0.0333
   44MOL0     C 5855   2.233   2.881   8.901 -0.4455 -0.1483 -1.3529
   44MOL0     N 5856   2.006   3.033   8.453  0.3997  0.3325 -0.0465
   44MOL0     N 5857   1.929   3.001   8.546  0.0912 -0.1964  0.3413
   44MOL0     C 5858   1.095   3.298   9.307  0.1748  0.5125 -0.5205
   44MOL0     C 5859   0.969   3.339   9.260 -0.6267 -0.9413 -0.3822
   44MOL0     C 5860   0.608   3.419   8.978 -0.5973  1.0013  0.0101
   44MOL0     C 5861   0.587   3.488   8.865  0.8052 -0.1903  1.3567
   44MOL0     C 5862   0.452   3.517   8.824  1.7554  0.3209 -0.1591
   44MOL0     C 5863   0.337   3.474   8.903  0.7183 -1.2649  0.1786
   44MOL0     O 5864   0.213   3.532   8.890 -0.3839 -0.0014 -0.6130
   44MOL0     C 5865   0.173   3.566   8.751  0.8005  0.1050  0.7247
   44MOL0     C 5866   0.130   3.441   8.681  0.0174  0.0303 -0.0377
   44MOL0     C 5867   0.142   3.448   8.527  1.0635 -1.1253 -0.3878
   44MOL0     C 5868   0.105   3.306   8.478 -0.9636  0.0484 -0.1415
   44MOL0     C 5869   0.198   3.200   8.516  0.2012 -0.6960  0.8319
   44MOL0     C 5870   0.281   3.119   8.560 -0.9780 -0.0868 -0.4537
   44MOL0     C 5871   0.366   3.391   9.014  0.3176 -0.0871 -0.3689
   44MOL0     C 5872   0.502   3.362   9.051  1.4928  0.8581 -0.0893
   44MOL0     H 5873   0.908   3.100   9.039 -1.3591  1.0729  0.5398
   44MOL0     H 5874   1.125   3.041   9.081  0.9501 -0.6801  0.4664
   44MOL0     H 5875   1.415   3.290   9.256  1.0494 -3.2551 -3.3961
   44MOL0     H 5876   1.343   3.247   9.427 -1.7730  0.7976 -0.6576
   44MOL0     H 5877   1.564   3.171   9.420  0.1880  2.4752 -2.2661
   44MOL0     H 5878   1.456   3.035   9.414 -2.3081 -1.9225 -1.7604
   44MOL0     H 5879   1.593   2.974   9.219  0.7571  1.0474 -0.4932
   44MOL0     H 5880   1.538   3.117   9.138  0.6495 -3.9316 -1.9582
   44MOL0     H 5881   1.708   3.266   9.265  0.9253 -0.1412  0.5952
   44MOL0     H 5882   1.763   3.119   9.340 -5.7193  0.4435  3.5010
   44MOL0     H 5883   1.899   3.212   9.145  1.2044 -0.8176 -1.3507
   44MOL0     H 5884   1.865   3.040   9.152 -0.8348  0.4323  1.6751
   44MOL0     H 5885   1.702   3.032   8.999  0.7150  0.0402  1.1950
   44MOL0     H 5886   1.700   3.213   8.976  2.6120  2.2664  0.5549
   44MOL0     H 5887   1.936   3.185   8.932  2.9739 -4.2501  0.1877
   44MOL0     H 5888   1.913   3.011   8.909  3.6926  1.8107 -0.7004
   44MOL0     H 5889   1.786   3.227   8.737  3.0430  2.1292  1.6830
   44MOL0     H 5890   1.745   3.058   8.728  1.2496 -1.2487 -1.0697
   44MOL0     H 5891   2.066   3.259   8.691 -0.3643 -2.4055  2.1782
   44MOL0     H 5892   2.196   3.239   8.345  2.0227 -1.9999 -0.9422
   44MOL0     H 5893   2.249   3.281   8.499 -3.5233  1.1799 -0.0552
   44MOL0     H 5894   2.384   3.100   8.347  1.6167 -2.4879  0.8359
   44MOL0     H 5895   2.257   2.993   8.389  0.5570  0.1690 -1.0314
   44MOL0     H 5896   2.436   3.146   8.570  2.5361 -1.8074  4.5887
   44MOL0     H 5897   2.468   2.973   8.529 -0.5618 -2.8194  0.2993
   44MOL0     H 5898   2.236   2.937   8.621  1.8296  0.6204 -3.4748
   44MOL0     H 5899   2.257   3.086   8.709  1.7693  1.5608 -2.2848
   44MOL0     H 5900   2.485   2.674   8.795  1.6208  2.5328  1.6734
   44MOL0     H 5901   2.448   2.450   8.863 -0.1270  2.0815  0.2157
   44MOL0     H 5902   2.421   2.454   9.038  0.2651 -4.7735 -0.6465
   44MOL0     H 5903   2.288   2.411   8.929  0.7903 -0.2936 -0.7606
   44MOL0     H 5904   2.104   2.262   9.128 -1.7993  1.0546 -0.6801
   44MOL0     H 5905   2.020   2.096   9.307  1.0764 -0.6264  2.0954
   44MOL0     H 5906   1.820   2.145   9.506 -0.3239  0.4445  1.7655
   44MOL0     H 5907   1.904   1.998   9.461 -0.0060  0.8117  0.2545
   44MOL0     H 5908   1.743   1.954   9.610  0.1150 -1.3184  2.3831
   44MOL0     H 5909   1.905   1.930   9.686 -0.0523 -0.9466 -0.3023
   44MOL0     H 5910   1.700   2.119   9.778  1.8052  1.4802  1.9236
   44MOL0     H 5911   1.863   2.139   9.820  1.4375  0.1030 -2.5489
   44MOL0     H 5912   1.746   1.851   9.823  1.6523  0.3408 -3.2188
   44MOL0     H 5913   1.873   1.913   9.923 -0.4267 -4.1741  0.1993
   44MOL0     H 5914   1.642   1.888  10.052  2.7894 -0.5070  1.4802
   44MOL0     H 5915   1.585   2.024   9.950  1.6692  2.9669  0.3446
   44MOL0     H 5916   1.744   2.173  10.024  1.1784  0.9585  1.9621
   44MOL0     H 5917   1.665   2.119  10.174 -0.6808  1.5524 -0.0039
   44MOL0     H 5918   1.951   2.051  10.092  0.4214  0.2223 -0.4745
   44MOL0     H 5919   1.850   1.962  10.216  0.2538  0.5719  0.6270
   44MOL0     H 5920   2.003   2.125  10.319  0.0596 -1.7335 -1.2063
   44MOL0     H 5921   1.840   2.174  10.341  0.7914  4.5530 -0.3315
   44MOL0     H 5922   2.134   2.373   9.604  4.4596 -3.7826  1.1865
   44MOL0     H 5923   2.227   2.525   9.454  2.7017 -0.1820 -0.4509
   44MOL0     H 5924   2.080   2.823   9.039 -1.2312  0.0385 -2.4311
   44MOL0     H 5925   2.176   2.971   8.883 -0.2081 -0.3666 -3.4664
   44MOL0     H 5926   1.148   3.343   9.390  1.2643  0.5411 -1.2142
   44MOL0     H 5927   0.929   3.429   9.306  3.5813  1.2504 -0.4968
   44MOL0     H 5928   0.676   3.528   8.817  1.3111 -0.6310  1.9027
   44MOL0     H 5929   0.439   3.587   8.741 -0.2636  1.2685  0.8634
   44MOL0     H 5930   0.094   3.642   8.756 -0.7807 -1.4971  1.0587
   44MOL0     H 5931   0.247   3.622   8.693 -1.1414 -1.4329 -3.6845
   44MOL0     H 5932   0.032   3.411   8.718  1.2629 -1.7721  2.0586
   44MOL0     H 5933   0.206   3.366   8.705 -1.0235 -1.1397 -0.3109
   44MOL0     H 5934   0.244   3.477   8.501  0.5774  0.1389 -0.9571
   44MOL0     H 5935   0.069   3.522   8.493  2.2897  0.7892  0.9705
   44MOL0     H 5936   0.100   3.313   8.369 -0.8784  1.7185 -0.0741
   44MOL0     H 5937   0.010   3.272   8.519 -0.7247 -0.4804 -0.0235
   44MOL0     H 5938   0.347   3.054   8.613 -1.2054  1.7735  2.3051
   44MOL0     H 5939   0.278   3.373   9.075 -1.3241  4.5149 -0.9584
   44MOL0     H 5940   0.516   3.299   9.138  2.5742  4.4437  2.5842
   45MOL0     O 5941   5.785  11.075   6.480 -0.6226 -0.1235 -0.2239
   45MOL0     C 5942   5.735  11.072   6.592  0.2138 -0.1403  0.6495
   45MOL0     O 5943   5.620  11.124   6.635 -0.4447  0.2532  0.1056
   45MOL0     C 5944   5.543  11.205   6.559 -0.2180  0.5756  0.0936
   45MOL0     C 5945   5.505  11.325   6.614  0.6481  0.5067  0.2119
   45MOL0     C 5946   5.400  11.401   6.560 -0.6604  0.3285  0.3681
   45MOL0     C 5947   5.343  11.365   6.434 -1.3153 -0.5016 -0.1910
   45MOL0     O 5948   5.228  11.419   6.385  0.1164  0.1535 -0.8218
   45MOL0     C 5949   5.122  11.341   6.436  0.3984 -0.9597  0.4624
   45MOL0     C 5950   5.029  11.423   6.532 -0.6045 -0.2577  0.0015
   45MOL0     C 5951   4.899  11.345   6.565  0.2590 -0.6583 -0.2946
   45MOL0     C 5952   4.784  11.445   6.610  0.9730  1.0090 -0.3187
   45MOL0     C 5953   4.674  11.371   6.690  1.4173  0.2162 -1.2910
   45MOL0     C 5954   4.571  11.484   6.737 -0.1592  0.5227  0.0132
   45MOL0     C 5955   4.498  11.525   6.607  0.3304 -0.3084 -0.7134
   45MOL0     C 5956   4.395  11.632   6.638  0.3822 -0.6624 -0.1764
   45MOL0     N 5957   4.463  11.752   6.703 -0.5911 -0.6437 -0.0524
   45MOL0     C 5958   4.525  11.859   6.650 -0.0116 -0.4584 -0.1171
   45MOL0     C 5959   4.590  11.918   6.755 -0.1894 -0.3646  0.4163
   45MOL0     C 5960   4.687  12.035   6.736 -0.8981 -0.0998  0.3252
   45MOL0     C 5961   4.809  12.039   6.638 -0.0485 -1.0253 -0.3518
   45MOL0     C 5962   4.897  11.915   6.641  0.6292 -0.1079 -0.1685
   45MOL0     C 5963   4.974  11.878   6.766 -0.6475  0.0969 -0.4046
   45MOL0     O 5964   4.885  11.814   6.852  0.7127 -0.1161  0.6945
   45MOL0     C 5965   4.906  11.685   6.901 -0.0918  0.7728 -0.6512
   45MOL0     C 5966   5.022  11.610   6.891 -0.0763 -0.0201  0.6240
   45MOL0     C 5967   5.049  11.480   6.952 -0.5264  0.2829  0.1182
   45MOL0     C 5968   5.182  11.421   6.942 -0.2457 -0.9605 -0.2815
   45MOL0     C 5969   4.947  11.419   7.022  1.0420  1.3572  0.3041
   45MOL0     C 5970   4.953  11.293   7.107 -0.0211 -0.3920 -0.6949
   45MOL0     O 5971   4.839  11.222   7.117  0.1159 -0.1206  1.2059
   45MOL0     C 5972   4.840  11.104   7.171 -0.8181  0.0431 -0.0935
   45MOL0     C 5973   4.897  10.980   7.126 -0.2532 -0.4796 -0.6312
   45MOL0     C 5974   4.888  10.860   7.195  0.5018 -0.6849 -0.1839
   45MOL0     C 5975   4.812  10.861   7.306  0.1615 -0.0720 -0.5355
   45MOL0     O 5976   4.792  10.745   7.373 -0.5033 -0.3143 -1.2518
   45MOL0     C 5977   4.902  10.653   7.392 -0.2302  0.1183 -0.4606
   45MOL0     C 5978   4.896  10.595   7.534  0.3475 -0.7882 -0.0163
   45MOL0     C 5979   4.974  10.480   7.585 -0.9463  0.1906 -0.3061
   45MOL0     C 5980   4.957  10.356   7.498  0.2965  0.0268 -0.2809
   45MOL0     C 5981   4.822  10.300   7.490  0.1024  0.3530 -0.5223
   45MOL0     C 5982   4.779  10.226   7.622  1.8334 -0.0217 -1.1168
   45MOL0     C 5983   4.645  10.151   7.610 -0.1969 -0.1147  0.1307
   45MOL0     C 5984   4.552  10.149   7.730 -0.9736  0.2682 -0.2103
   45MOL0    Cl 5985   4.412  10.059   7.692 -0.2480 -0.4175  0.4135
   45MOL0     C 5986   4.743  10.973   7.353 -1.2808 -0.4805 -0.1657
   45MOL0     C 5987   4.765  11.095   7.289 -0.6648 -0.3317 -0.6453
   45MOL0     O 5988   5.056  11.264   7.174  0.4561 -0.1650  0.6608
   45MOL0     C 5989   4.825  11.492   7.027 -0.3474 -0.0944 -0.1197
   45MOL0     C 5990   4.806  11.623   6.970  0.4423 -0.6353 -0.7774
   45MOL0     N 5991   4.551  11.858   6.869  0.6784 -0.6780  0.3044
   45MOL0     N 5992   4.474  11.757   6.841  0.0606  0.2287 -0.1901
   45MOL0     C 5993   5.400  11.249   6.369  0.1062  0.4427  0.1292
   45MOL0     C 5994   5.492  11.161   6.434 -0.5038  0.1907 -0.1059
   45MOL0     C 5995   5.824  11.019   6.705 -0.6663 -0.2331  0.1796
   45MOL0     C 5996   5.954  10.978   6.677 -0.2799  0.8556  0.3034
   45MOL0     C 5997   6.030  10.933   6.779  0.2933 -0.9073  0.0625
   45MOL0     C 5998   5.994  10.952   6.913  0.2252 -0.1529  0.1413
   45MOL0     O 5999   6.048  10.888   7.022  0.3323 -0.0582  0.5318
   45MOL0     C 6000   6.045  10.742   7.002  0.0717 -0.4063  0.4437
   45MOL0     C 6001   5.946  10.680   7.094  0.0813  0.0308 -0.1720
   45MOL0     C 6002   5.968  10.710   7.249 -0.0281 -0.3930  0.2443
   45MOL0     C 6003   5.867  10.646   7.353  0.6779 -0.2123 -1.1588
   45MOL0     C 6004   5.729  10.702   7.343  0.8061 -0.1684 -0.7799
   45MOL0     C 6005   5.614  10.737   7.339  0.2403  0.1205  0.0307
   45MOL0     C 6006   5.872  11.004   6.939  0.1506 -0.0370 -0.5958
   45MOL0     C 6007   5.788  11.047   6.837 -0.0810  0.0442 -0.1807
   45MOL0     H 6008   5.543  11.356   6.711  2.0478 -1.7126  0.4387
   45MOL0     H 6009   5.368  11.488   6.618  1.5041  0.0940  2.0714
   45MOL0     H 6010   5.058  11.320   6.350  0.2762  1.9709 -0.2914
   45MOL0     H 6011   5.157  11.248   6.481  1.7931 -2.5703 -3.5371
   45MOL0     H 6012   5.094  11.468   6.608  0.6081 -1.8194 -0.0544
   45MOL0     H 6013   4.988  11.511   6.482 -0.5835 -0.2151  0.0591
   45MOL0     H 6014   4.868  11.290   6.475  2.9205 -3.4263  0.2965
   45MOL0     H 6015   4.906  11.270   6.644 -1.5715 -2.0912 -1.3954
   45MOL0     H 6016   4.833  11.505   6.687  1.3812  1.9305 -1.2571
   45MOL0     H 6017   4.767  11.508   6.522 -1.6146  4.9067  2.6257
   45MOL0     H 6018   4.629  11.300   6.620 -1.8054  1.7521 -0.9680
   45MOL0     H 6019   4.721  11.312   6.769 -0.2773 -0.5787 -0.8331
   45MOL0     H 6020   4.505  11.462   6.821 -1.2274  3.0179 -0.0609
   45MOL0     H 6021   4.631  11.570   6.769 -0.4606  1.4283 -1.6883
   45MOL0     H 6022   4.569  11.573   6.538  3.2961 -0.3279  2.0981
   45MOL0     H 6023   4.449  11.442   6.556  3.7467 -2.8242 -0.1956
   45MOL0     H 6024   4.317  11.577   6.692 -2.5656  0.8090 -2.5667
   45MOL0     H 6025   4.353  11.661   6.541  0.2853 -0.2443 -0.0118
   45MOL0     H 6026   4.536  11.884   6.544  1.5840  0.5333  0.2437
   45MOL0     H 6027   4.629  12.118   6.697  0.9062 -0.1944 -2.9822
   45MOL0     H 6028   4.718  12.059   6.838  0.9043  1.3323 -0.5050
   45MOL0     H 6029   4.867  12.130   6.659 -0.8429 -0.6683  0.3467
   45MOL0     H 6030   4.780  12.077   6.539 -1.3276 -2.2354 -0.4664
   45MOL0     H 6031   4.976  11.932   6.567 -0.1461  1.7480 -0.6189
   45MOL0     H 6032   4.839  11.830   6.605  2.4455 -1.1759 -0.6866
   45MOL0     H 6033   5.009  11.970   6.813 -1.0771  0.1092 -0.0933
   45MOL0     H 6034   5.064  11.819   6.749 -0.9155 -0.9059  1.4246
   45MOL0     H 6035   5.121  11.641   6.860  0.4036 -0.8289  1.3101
   45MOL0     H 6036   5.222  11.463   7.035 -1.3403 -1.0357  0.2343
   45MOL0     H 6037   5.174  11.312   6.947 -2.6458 -0.7911  3.0190
   45MOL0     H 6038   5.240  11.459   6.857  0.5476  1.4232  1.2336
   45MOL0     H 6039   4.942  10.978   7.027  2.9439  0.3829  0.6936
   45MOL0     H 6040   4.934  10.770   7.157 -2.1459 -2.1178 -0.1648
   45MOL0     H 6041   4.897  10.572   7.319  2.2861 -1.8641  1.3320
   45MOL0     H 6042   5.000  10.701   7.393  1.5014 -3.0833  1.3626
   45MOL0     H 6043   4.918  10.667   7.613 -0.1758 -0.0602 -0.5204
   45MOL0     H 6044   4.789  10.583   7.553  0.4187 -2.7250 -0.6331
   45MOL0     H 6045   4.953  10.450   7.688 -0.5151  0.2858 -0.1891
   45MOL0     H 6046   5.081  10.503   7.591 -1.2272  1.4547  0.0430
   45MOL0     H 6047   4.990  10.383   7.397 -2.4288  1.3914 -0.9074
   45MOL0     H 6048   5.025  10.275   7.526  0.5696 -1.3738 -4.3112
   45MOL0     H 6049   4.819  10.222   7.413 -1.4769  0.9050 -1.0749
   45MOL0     H 6050   4.748  10.377   7.466  0.5299  0.4053 -1.7716
   45MOL0     H 6051   4.857  10.152   7.642  0.4880 -1.0257  0.7857
   45MOL0     H 6052   4.772  10.305   7.698 -3.6077  1.1135 -2.3239
   45MOL0     H 6053   4.661  10.045   7.588 -5.0206 -1.6700  2.6686
   45MOL0     H 6054   4.589  10.197   7.528  0.6273 -3.4520 -2.5643
   45MOL0     H 6055   4.528  10.248   7.771 -0.3752 -0.0857  1.0647
   45MOL0     H 6056   4.605  10.097   7.811 -1.0111 -0.6491 -0.7581
   45MOL0     H 6057   4.684  10.961   7.444  2.0378 -0.9401  2.1108
   45MOL0     H 6058   4.715  11.175   7.342  1.5151  0.6967 -0.0203
   45MOL0     H 6059   4.749  11.451   7.093  0.0798 -0.2704  0.2676
   45MOL0     H 6060   4.707  11.668   6.966 -0.1175 -1.7062  0.3226
   45MOL0     H 6061   5.344  11.202   6.288 -1.1798  0.6405  0.8746
   45MOL0     H 6062   5.523  11.068   6.388 -0.5608 -0.1158  0.4701
   45MOL0     H 6063   5.998  10.974   6.578  3.4622  2.3614  1.6922
   45MOL0     H 6064   6.122  10.878   6.760  0.6850 -2.3317  4.7669
   45MOL0     H 6065   6.005  10.708   6.906 -0.4239 -2.2321  1.2494
   45MOL0     H 6066   6.146  10.701   7.011 -0.4214 -1.5785  0.7840
   45MOL0     H 6067   5.942  10.572   7.083  2.4472 -0.0250 -1.1718
   45MOL0     H 6068   5.846  10.717   7.070  0.0337 -0.6127 -0.9844
   45MOL0     H 6069   5.964  10.818   7.266  0.4500 -0.4856  1.0226
   45MOL0     H 6070   6.072  10.683   7.270  0.6638  1.5982 -0.4027
   45MOL0     H 6071   5.910  10.661   7.452  0.5512 -0.0004 -1.1351
   45MOL0     H 6072   5.859  10.537   7.347 -2.7318 -0.1713  0.4939
   45MOL0     H 6073   5.511  10.764   7.337  0.6818  1.8951  0.0121
   45MOL0     H 6074   5.840  11.014   7.042  0.0647 -0.8059 -0.5429
   45MOL0     H 6075   5.704  11.114   6.853 -1.0252 -1.3678  1.1212
   46MOL0     O 6076   8.497   9.233   3.110  0.6200 -0.8141 -0.7941
   46MOL0     C 6077   8.460   9.332   3.177  0.3748 -0.2653 -1.4687
   46MOL0     O 6078   8.348   9.413   3.156 -0.5947 -0.6742  0.3334
   46MOL0     C 6079   8.244   9.371   3.084 -0.4834  0.1196 -0.2466
   46MOL0     C 6080   8.208   9.240   3.078  0.4617  0.7092  0.2552
   46MOL0     C 6081   8.104   9.199   3.002 -0.2536  0.0657  1.3077
   46MOL0     C 6082   8.023   9.292   2.942  0.2612 -0.7246  1.1647
   46MOL0     O 6083   7.909   9.268   2.866  0.2137  0.0358  0.0817
   46MOL0     C 6084   7.820   9.150   2.902 -1.2101 -0.0924  0.3522
   46MOL0     C 6085   7.726   9.170   3.014  0.0214  0.3027 -0.2380
   46MOL0     C 6086   7.603   9.243   2.954  0.0264  0.7475  0.3277
   46MOL0     C 6087   7.512   9.147   2.868 -0.3980  0.9497  1.6740
   46MOL0     C 6088   7.370   9.191   2.876 -0.8874 -0.3870 -0.2279
   46MOL0     C 6089   7.290   9.084   2.794 -0.2182 -0.5038 -1.1121
   46MOL0     C 6090   7.145   9.135   2.805 -0.0448  1.0351  0.3152
   46MOL0     C 6091   7.053   9.026   2.765 -0.7366  0.9784 -0.1376
   46MOL0     N 6092   6.913   9.057   2.798  0.7434 -0.0048 -0.3925
   46MOL0     C 6093   6.830   9.151   2.744 -0.1153 -0.1350 -0.0884
   46MOL0     C 6094   6.712   9.124   2.796 -0.8293 -0.1224  0.1924
   46MOL0     C 6095   6.582   9.196   2.792  0.2988  0.1742 -0.2975
   46MOL0     C 6096   6.556   9.270   2.667  1.0838 -0.0959  0.3563
   46MOL0     C 6097   6.627   9.393   2.637 -0.2737  0.1239 -0.3030
   46MOL0     C 6098   6.564   9.459   2.511 -0.9092 -0.4296  0.1987
   46MOL0     O 6099   6.595   9.602   2.494  0.4690 -0.1877 -0.4939
   46MOL0     C 6100   6.585   9.642   2.368 -1.1436  0.3383  0.7700
   46MOL0     C 6101   6.473   9.727   2.330  0.3433  0.3783 -0.6952
   46MOL0     C 6102   6.460   9.774   2.203  1.2780  0.1160 -0.3589
   46MOL0     C 6103   6.338   9.856   2.180  0.1425  0.2781  0.8636
   46MOL0     C 6104   6.554   9.745   2.111  0.0992  0.3910 -0.1425
   46MOL0     C 6105   6.546   9.804   1.974  0.8289  0.2445  0.0726
   46MOL0     O 6106   6.573   9.938   1.952  0.4946 -0.5354 -0.6844
   46MOL0     C 6107   6.533   9.992   1.828 -0.5831  0.1784 -0.3538
   46MOL0     C 6108   6.635  10.069   1.764  0.2307  0.5166  0.5077
   46MOL0     C 6109   6.599  10.115   1.634  0.1331 -0.5516 -0.9191
   46MOL0     C 6110   6.477  10.098   1.569 -1.2791  0.5093 -0.9005
   46MOL0     O 6111   6.451  10.163   1.452  0.1519  0.4197 -0.6404
   46MOL0     C 6112   6.325  10.206   1.407 -0.0406  0.2476 -0.7751
   46MOL0     C 6113   6.366  10.308   1.304  0.4200  0.4250  0.0585
   46MOL0     C 6114   6.246  10.359   1.221 -0.0993 -0.5819  1.1544
   46MOL0     C 6115   6.140  10.433   1.306 -0.2718  1.6765  0.1348
   46MOL0     C 6116   6.015  10.458   1.216 -0.7607 -0.0820  1.0971
   46MOL0     C 6117   5.915  10.554   1.285 -0.3949  0.7158  0.1886
   46MOL0     C 6118   5.802  10.594   1.193  0.0866  0.1118  0.1712
   46MOL0     C 6119   5.694  10.671   1.259  0.2444  0.2563  1.0974
   46MOL0    Cl 6120   5.590  10.584   1.365  0.0314  0.5576 -0.2662
   46MOL0     C 6121   6.377  10.032   1.638 -0.0139  1.7975 -0.3412
   46MOL0     C 6122   6.403   9.987   1.771 -0.1543 -1.1311  0.2908
   46MOL0     O 6123   6.516   9.732   1.886  0.5017  1.1845  0.8497
   46MOL0     C 6124   6.675   9.681   2.149  0.8398 -0.0153 -0.1442
   46MOL0     C 6125   6.685   9.620   2.272  0.5830 -0.5331 -0.0914
   46MOL0     N 6126   6.721   9.010   2.872  0.0860 -0.4220  0.0443
   46MOL0     N 6127   6.839   8.975   2.884 -0.0422  0.2962 -0.0098
   46MOL0     C 6128   8.061   9.429   2.960  0.7102 -0.1786  1.0403
   46MOL0     C 6129   8.177   9.468   3.029  0.7417 -0.2433 -0.1132
   46MOL0     C 6130   8.532   9.367   3.304 -0.3830 -0.2264  0.0628
   46MOL0     C 6131   8.483   9.469   3.392  0.2053 -0.1067  0.4116
   46MOL0     C 6132   8.545   9.510   3.512 -0.0074 -0.3033  0.1873
   46MOL0     C 6133   8.662   9.444   3.543 -0.4644 -0.2681 -0.4659
   46MOL0     O 6134   8.715   9.478   3.665  0.0771  0.3490  0.3706
   46MOL0     C 6135   8.815   9.393   3.723 -1.0100  0.2987 -0.2555
   46MOL0     C 6136   8.952   9.449   3.688 -0.9904 -0.1208 -0.5944
   46MOL0     C 6137   9.076   9.388   3.772  0.5102  0.1579  0.4781
   46MOL0     C 6138   9.175   9.333   3.669  0.1488  0.3824 -1.2629
   46MOL0     C 6139   9.251   9.442   3.610  0.5277  0.3522 -1.5360
   46MOL0     C 6140   9.302   9.530   3.544  0.3220 -0.1028 -0.3680
   46MOL0     C 6141   8.720   9.346   3.457 -0.3584  0.6739 -0.9073
   46MOL0     C 6142   8.653   9.298   3.341 -0.6736 -1.2614  0.6211
   46MOL0     H 6143   8.261   9.162   3.132 -1.1917 -0.3715  0.3971
   46MOL0     H 6144   8.079   9.094   2.999  1.4845 -0.3751  1.0817
   46MOL0     H 6145   7.765   9.117   2.814 -1.4498 -5.3906  2.0983
   46MOL0     H 6146   7.881   9.065   2.936 -0.5080  1.3249  2.8644
   46MOL0     H 6147   7.701   9.078   3.066  1.1158 -0.5864 -1.2378
   46MOL0     H 6148   7.781   9.228   3.089  0.8522  0.0452 -0.6403
   46MOL0     H 6149   7.547   9.281   3.039 -1.1057 -0.6634  0.2418
   46MOL0     H 6150   7.639   9.320   2.885  3.0634 -1.4243 -0.7685
   46MOL0     H 6151   7.546   9.140   2.764  0.3253 -2.6735  2.0471
   46MOL0     H 6152   7.521   9.050   2.917 -1.7898 -0.2053 -0.2320
   46MOL0     H 6153   7.346   9.201   2.982  2.2797 -0.5752  0.6334
   46MOL0     H 6154   7.358   9.293   2.839  0.7727 -0.0043  0.1957
   46MOL0     H 6155   7.328   9.078   2.692  1.1324 -1.3593 -0.5892
   46MOL0     H 6156   7.297   8.992   2.852 -2.2516 -0.0940 -0.1269
   46MOL0     H 6157   7.126   9.165   2.908 -2.1141 -1.1405  0.6378
   46MOL0     H 6158   7.105   9.213   2.739 -0.9941 -0.3417 -0.7872
   46MOL0     H 6159   7.082   8.931   2.811  0.0276  0.3217 -1.8856
   46MOL0     H 6160   7.060   9.013   2.657  2.3172 -0.8701  0.1509
   46MOL0     H 6161   6.863   9.234   2.682 -3.6577  0.8936 -0.8270
   46MOL0     H 6162   6.510   9.116   2.810  1.2848 -0.8901 -0.9266
   46MOL0     H 6163   6.579   9.263   2.878  0.7484 -3.2753  2.6852
   46MOL0     H 6164   6.448   9.276   2.652  1.0264  3.8430  1.4521
   46MOL0     H 6165   6.598   9.201   2.592  2.1922 -1.0940  1.8279
   46MOL0     H 6166   6.734   9.373   2.634 -0.6099 -1.8671 -0.4615
   46MOL0     H 6167   6.611   9.459   2.723 -1.3757  0.2702 -0.5955
   46MOL0     H 6168   6.456   9.451   2.518 -1.3066  3.5765  1.7199
   46MOL0     H 6169   6.602   9.398   2.429  0.1861 -2.3537  2.0213
   46MOL0     H 6170   6.404   9.763   2.405  0.1352  0.0445 -0.7257
   46MOL0     H 6171   6.363   9.963   2.185 -0.5589  0.9905 -4.7470
   46MOL0     H 6172   6.300   9.849   2.078 -4.4632 -0.5169  2.4275
   46MOL0     H 6173   6.248   9.842   2.241 -0.4405  1.4445  0.2951
   46MOL0     H 6174   6.731  10.094   1.808  0.7830 -0.2766 -0.2319
   46MOL0     H 6175   6.672  10.177   1.583  0.5651 -2.2103 -2.4441
   46MOL0     H 6176   6.290  10.112   1.363 -1.0963 -1.3081  3.0084
   46MOL0     H 6177   6.261  10.245   1.487 -0.2327 -0.0025 -0.8061
   46MOL0     H 6178   6.427  10.394   1.332  0.7549  0.5678 -1.0811
   46MOL0     H 6179   6.432  10.252   1.237  0.5398 -0.6110  1.0057
   46MOL0     H 6180   6.190  10.274   1.182  0.7351 -0.2549 -0.8435
   46MOL0     H 6181   6.272  10.415   1.131  0.7065  2.9388  3.3707
   46MOL0     H 6182   6.109  10.374   1.393 -0.0251  1.2634 -0.0500
   46MOL0     H 6183   6.182  10.531   1.332  2.1167  0.4361  1.3375
   46MOL0     H 6184   5.967  10.363   1.191 -2.0525  1.2143 -1.9047
   46MOL0     H 6185   6.053  10.506   1.125 -1.5720 -0.7341  0.4039
   46MOL0     H 6186   5.877  10.510   1.378 -0.6793 -2.4211 -1.2810
   46MOL0     H 6187   5.965  10.650   1.302  0.5768  0.6602 -1.9794
   46MOL0     H 6188   5.755  10.503   1.154  2.8527 -1.4813  0.2968
   46MOL0     H 6189   5.847  10.657   1.116  0.0391 -1.3243 -1.0765
   46MOL0     H 6190   5.625  10.716   1.187  0.2076 -0.4997  0.6506
   46MOL0     H 6191   5.736  10.755   1.315  3.5037 -0.3733 -0.1778
   46MOL0     H 6192   6.275  10.029   1.598 -1.1735  2.9494  2.3009
   46MOL0     H 6193   6.331   9.937   1.835  1.6723 -0.5711  2.9636
   46MOL0     H 6194   6.761   9.676   2.083 -0.9580 -1.2001 -2.5599
   46MOL0     H 6195   6.774   9.577   2.319 -0.8576 -1.6328  1.7813
   46MOL0     H 6196   7.997   9.500   2.908 -1.2937 -1.0156  2.2485
   46MOL0     H 6197   8.198   9.574   3.043 -2.8835  0.7173 -0.8106
   46MOL0     H 6198   8.390   9.516   3.362  0.7838  0.5310 -0.4448
   46MOL0     H 6199   8.487   9.577   3.575 -1.9349 -0.1754 -1.6165
   46MOL0     H 6200   8.800   9.405   3.831 -2.5791  1.2152 -0.5484
   46MOL0     H 6201   8.810   9.288   3.693  2.0755 -0.2566  0.8271
   46MOL0     H 6202   8.949   9.551   3.728 -1.5891 -0.3286 -0.0800
   46MOL0     H 6203   8.970   9.445   3.580 -0.8038  3.1331 -0.7859
   46MOL0     H 6204   9.032   9.316   3.841  0.0530  1.5385  1.6945
   46MOL0     H 6205   9.128   9.464   3.831  0.6458  0.2080  0.2941
   46MOL0     H 6206   9.130   9.271   3.591  0.0035 -0.8721 -0.2267
   46MOL0     H 6207   9.256   9.275   3.715  0.2067  1.8092  0.5691
   46MOL0     H 6208   9.321   9.622   3.491  1.9804 -0.8576 -1.1846
   46MOL0     H 6209   8.819   9.308   3.478 -0.8540  0.8961  2.3410
   46MOL0     H 6210   8.710   9.228   3.280  1.8349 -0.8589  2.3638
   47MOL0     O 6211   8.035  10.408   9.690  0.3299  0.3767 -0.0985
   47MOL0     C 6212   7.960  10.328   9.743 -0.2326  0.0533 -0.2411
   47MOL0     O 6213   7.993  10.206   9.789  0.4029 -0.0549  0.0557
   47MOL0     C 6214   8.122  10.155   9.773  1.0853 -0.0034  0.8378
   47MOL0     C 6215   8.218  10.178   9.659 -0.2811  0.0631  0.3397
   47MOL0     C 6216   8.345  10.119   9.663 -0.0408  1.0227  0.3728
   47MOL0     C 6217   8.385  10.036   9.768 -0.6259 -0.2063  0.1021
   47MOL0     O 6218   8.500   9.963   9.755 -0.1541 -0.0431  0.2518
   47MOL0     C 6219   8.568   9.923   9.883 -0.5690  0.2163 -0.0339
   47MOL0     C 6220   8.707   9.865   9.872  0.4512  0.4609 -0.1240
   47MOL0     C 6221   8.798   9.956   9.791 -0.9462  0.4532  0.0183
   47MOL0     C 6222   8.915   9.884   9.731 -0.5654  0.4479  0.0022
   47MOL0     C 6223   9.011   9.987   9.699  0.1059 -0.7791 -0.1608
   47MOL0     C 6224   9.122   9.921   9.607  0.6379 -0.1997  1.0765
   47MOL0     C 6225   9.202   9.806   9.667  0.0187  0.4962  0.5753
   47MOL0     C 6226   9.267   9.849   9.800  0.1292  0.6956  0.5393
   47MOL0     N 6227   9.373   9.753   9.835  0.0678 -0.4126  0.0405
   47MOL0     C 6228   9.502   9.764   9.776  0.9799  0.4702 -1.2583
   47MOL0     C 6229   9.570   9.668   9.849 -0.3923  0.9902  0.6362
   47MOL0     C 6230   9.726   9.648   9.828 -0.1182  0.7166 -0.3291
   47MOL0     C 6231   9.762   9.504   9.856 -1.2083  0.1089 -0.1817
   47MOL0     C 6232   9.915   9.500   9.846  1.2699  0.7172 -1.2054
   47MOL0     C 6233   9.977   9.364   9.864 -0.4240 -0.3197  0.6266
   47MOL0     O 6234   9.935   9.299   9.976  0.2418  0.2577  0.5853
   47MOL0     C 6235  10.011   9.197  10.023 -0.4803 -0.4925  0.2553
   47MOL0     C 6236  10.127   9.139   9.971  0.6346  0.3525  0.0362
   47MOL0     C 6237  10.199   9.038  10.029 -0.7619 -0.2417  0.6786
   47MOL0     C 6238  10.333   9.001   9.958 -0.4351  0.5872  0.0246
   47MOL0     C 6239  10.156   8.975  10.143 -0.3058  0.0090  0.6971
   47MOL0     C 6240  10.209   8.854  10.210 -0.0715 -0.6057 -0.1509
   47MOL0     O 6241  10.230   8.754  10.127  1.4114  0.6749  0.2458
   47MOL0     C 6242  10.323   8.652  10.151  0.4871 -0.0340 -0.2846
   47MOL0     C 6243  10.285   8.529  10.100 -0.5235  0.6116  0.0961
   47MOL0     C 6244  10.376   8.418  10.103 -0.0941  0.9487  0.3917
   47MOL0     C 6245  10.499   8.423  10.161  0.0541 -0.4908  0.6151
   47MOL0     O 6246  10.586   8.321  10.148 -0.5299  0.6639 -0.4964
   47MOL0     C 6247  10.577   8.218  10.045  0.3148 -0.2075  0.2490
   47MOL0     C 6248  10.708   8.144  10.049  0.4930  0.5481 -0.0756
   47MOL0     C 6249  10.692   7.986  10.014  0.2466 -0.4819  0.8521
   47MOL0     C 6250  10.677   7.885  10.135 -0.7600  0.0464 -0.3129
   47MOL0     C 6251  10.653   7.740  10.092  0.9193 -0.6901 -0.2458
   47MOL0     C 6252  10.790   7.677  10.050 -0.7374  0.0584  0.4259
   47MOL0     C 6253  10.770   7.535   9.995 -0.3758 -0.0374  1.1704
   47MOL0     C 6254  10.873   7.479   9.903  0.1995  0.6070 -0.6047
   47MOL0    Cl 6255  10.841   7.313   9.840  0.4708  0.3928  0.0055
   47MOL0     C 6256  10.535   8.545  10.220 -0.0344 -0.3383 -1.1222
   47MOL0     C 6257  10.450   8.657  10.212 -0.9016 -0.1991 -0.2086
   47MOL0     O 6258  10.251   8.864  10.329 -0.1716 -0.0269 -0.4983
   47MOL0     C 6259  10.038   9.028  10.202 -1.2105 -0.8111 -0.1746
   47MOL0     C 6260   9.967   9.134  10.143  0.3035  0.6542  0.1966
   47MOL0     N 6261   9.479   9.596   9.921 -0.8019  0.0950  0.5927
   47MOL0     N 6262   9.360   9.646   9.919  0.3638  0.4772 -0.3734
   47MOL0     C 6263   8.287  10.002   9.872 -0.0478 -1.0259  1.1557
   47MOL0     C 6264   8.167  10.068   9.873 -0.2993  0.6489 -0.8163
   47MOL0     C 6265   7.823  10.359   9.756  0.8619 -0.2641  0.7236
   47MOL0     C 6266   7.764  10.479   9.715 -0.1688 -0.8013 -0.9389
   47MOL0     C 6267   7.627  10.504   9.727  1.3751  0.7669 -0.4141
   47MOL0     C 6268   7.534  10.405   9.767  0.1519  1.0320 -0.4714
   47MOL0     O 6269   7.403  10.424   9.771  0.1570  0.0527 -0.0260
   47MOL0     C 6270   7.305  10.328   9.817  0.2590  0.8344  0.1235
   47MOL0     C 6271   7.172  10.342   9.753 -0.4366 -0.8091  0.3387
   47MOL0     C 6272   7.175  10.307   9.603 -0.1175  0.1514 -0.6121
   47MOL0     C 6273   7.266  10.380   9.509  0.6522  0.2814 -0.8711
   47MOL0     C 6274   7.270  10.527   9.521  0.2180 -0.3248  0.6416
   47MOL0     C 6275   7.260  10.649   9.533  0.5732 -0.6455  0.4470
   47MOL0     C 6276   7.598  10.288   9.811 -0.6485 -0.6758 -0.7016
   47MOL0     C 6277   7.735  10.271   9.809 -0.5369  0.5787  0.4466
   47MOL0     H 6278   8.193  10.238   9.571 -0.9826 -0.1398  0.3929
   47MOL0     H 6279   8.413  10.143   9.581 -0.4051  0.2357 -0.1781
   47MOL0     H 6280   8.571  10.011   9.947  0.6593  0.5593 -0.5277
   47MOL0     H 6281   8.504   9.862   9.948  0.5681  2.4447  3.4836
   47MOL0     H 6282   8.761   9.850   9.966 -1.1464  0.3581  0.8280
   47MOL0     H 6283   8.696   9.763   9.834  4.5298 -0.7822  1.4624
   47MOL0     H 6284   8.746  10.003   9.707 -0.5047  0.0268 -0.5002
   47MOL0     H 6285   8.836  10.035   9.857  0.1846  0.3487 -0.4775
   47MOL0     H 6286   8.965   9.810   9.794 -0.1059 -0.9971 -1.9495
   47MOL0     H 6287   8.877   9.840   9.638  0.9925  0.8507 -0.8565
   47MOL0     H 6288   8.963  10.068   9.644 -1.3191 -1.7070 -0.3149
   47MOL0     H 6289   9.045  10.034   9.792 -3.1964  0.7231  0.3978
   47MOL0     H 6290   9.067   9.881   9.521 -1.3580 -0.9749  2.6402
   47MOL0     H 6291   9.189  10.003   9.580  3.8242 -2.3042  2.0692
   47MOL0     H 6292   9.134   9.722   9.678 -1.8894  1.9032  0.0654
   47MOL0     H 6293   9.274   9.774   9.591  0.5427  2.2630  0.2628
   47MOL0     H 6294   9.195   9.846   9.883 -0.8791 -3.0354 -0.2609
   47MOL0     H 6295   9.318   9.945   9.798 -1.1679  1.4038  0.5296
   47MOL0     H 6296   9.542   9.830   9.700  0.2371  1.7401 -0.5722
   47MOL0     H 6297   9.761   9.682   9.730 -1.2382 -1.2265 -1.4728
   47MOL0     H 6298   9.783   9.708   9.900 -1.3456  0.2495  1.0912
   47MOL0     H 6299   9.738   9.432   9.777  2.7657 -1.6990  0.0320
   47MOL0     H 6300   9.715   9.471   9.949 -0.9275 -1.6204 -0.6097
   47MOL0     H 6301   9.951   9.569   9.923  3.2656  1.2962 -2.5743
   47MOL0     H 6302   9.958   9.540   9.754  0.1101  1.9905 -1.2337
   47MOL0     H 6303  10.083   9.389   9.855 -0.5643 -0.3048 -1.6317
   47MOL0     H 6304   9.964   9.293   9.781  0.5364 -0.6036  0.7117
   47MOL0     H 6305  10.167   9.177   9.877  1.1309  2.5758  1.0721
   47MOL0     H 6306  10.306   8.922   9.888 -0.5090  0.2953  0.3849
   47MOL0     H 6307  10.387   9.083   9.909  1.7292  1.2506  3.1803
   47MOL0     H 6308  10.397   8.954  10.033  1.6964  2.5223 -0.4729
   47MOL0     H 6309  10.185   8.519  10.059 -0.7635 -0.2869  0.8335
   47MOL0     H 6310  10.346   8.320  10.066  1.1055  0.9930 -0.7565
   47MOL0     H 6311  10.496   8.147  10.066  0.4225  0.3183  2.8713
   47MOL0     H 6312  10.562   8.271   9.951 -4.7001  1.3570  1.5952
   47MOL0     H 6313  10.773   8.181   9.969 -1.3747  1.1672 -1.3841
   47MOL0     H 6314  10.764   8.159  10.142 -2.0271  2.2299  1.2843
   47MOL0     H 6315  10.781   7.961   9.956 -1.7663  1.1691 -3.3416
   47MOL0     H 6316  10.603   7.988   9.951  1.6624  0.6188 -1.2268
   47MOL0     H 6317  10.770   7.894  10.193  0.3758  2.1479 -2.2808
   47MOL0     H 6318  10.589   7.920  10.190 -1.7188  0.3764 -2.0234
   47MOL0     H 6319  10.580   7.742  10.010  2.9708  1.6068 -2.1980
   47MOL0     H 6320  10.601   7.676  10.163 -1.8579 -0.7921 -2.1946
   47MOL0     H 6321  10.824   7.749   9.975 -2.1851  0.3031 -0.0281
   47MOL0     H 6322  10.859   7.684  10.135  2.9040  1.4591 -2.4017
   47MOL0     H 6323  10.676   7.552   9.942 -0.2563 -1.2884  0.5246
   47MOL0     H 6324  10.762   7.455  10.069 -1.1334 -0.1930  0.9217
   47MOL0     H 6325  10.969   7.470   9.955  1.3396  1.5757 -2.4220
   47MOL0     H 6326  10.888   7.548   9.818  0.5430 -1.3336 -2.2036
   47MOL0     H 6327  10.630   8.547  10.273 -0.9657  0.9759  0.6070
   47MOL0     H 6328  10.486   8.753  10.245  2.3578 -0.5425 -2.3649
   47MOL0     H 6329   9.993   8.983  10.290 -2.1223 -1.4999 -0.9717
   47MOL0     H 6330   9.873   9.166  10.188  0.0548  1.0731 -0.5990
   47MOL0     H 6331   8.296   9.934   9.957 -5.8012 -2.2103  1.2522
   47MOL0     H 6332   8.100  10.055   9.958  0.5635 -1.5094 -0.4106
   47MOL0     H 6333   7.832  10.557   9.682 -0.8215  1.7422  2.9510
   47MOL0     H 6334   7.591  10.601   9.693 -1.6043  0.1375  0.6923
   47MOL0     H 6335   7.343  10.225   9.808  0.1297  0.7699  0.3077
   47MOL0     H 6336   7.296  10.341   9.925  0.2778  0.3957  0.1825
   47MOL0     H 6337   7.136  10.445   9.758  2.7626  0.5860 -1.9801
   47MOL0     H 6338   7.106  10.274   9.809  1.5046 -2.0334  1.2372
   47MOL0     H 6339   7.076  10.313   9.557 -1.1116 -1.6511  1.1297
   47MOL0     H 6340   7.195  10.199   9.603 -2.3342 -0.3135  0.7464
   47MOL0     H 6341   7.243  10.356   9.405 -3.1326  3.8778 -1.1063
   47MOL0     H 6342   7.365  10.343   9.537  0.0913 -0.7599 -0.2066
   47MOL0     H 6343   7.253  10.755   9.544  0.5874 -0.6318  0.3226
   47MOL0     H 6344   7.540  10.207   9.856  1.2756 -1.6501  0.1625
   47MOL0     H 6345   7.772  10.175   9.843  0.6768 -0.3222 -2.9937
   48MOL0     O 6346   4.547   4.851  11.271  0.3225 -0.4741 -0.2824
   48MOL0     C 6347   4.465   4.933  11.222 -0.0111  0.0255  0.3561
   48MOL0     O 6348   4.348   4.975  11.279 -0.2144 -0.1639 -0.6718
   48MOL0     C 6349   4.320   4.962  11.411  0.0654 -0.5696  0.5033
   48MOL0     C 6350   4.260   5.071  11.477  0.0137  0.3083  0.3282
   48MOL0     C 6351   4.213   5.060  11.602  0.9186  0.6389 -0.3886
   48MOL0     C 6352   4.222   4.938  11.672  1.3554  0.3709 -0.9697
   48MOL0     O 6353   4.173   4.943  11.801  1.0372 -0.3442  0.6076
   48MOL0     C 6354   4.233   5.028  11.893 -0.0852  0.0390 -0.5255
   48MOL0     C 6355   4.219   4.989  12.034 -0.0747 -0.4677  0.3423
   48MOL0     C 6356   4.345   4.910  12.079 -0.9366  0.3891  0.1114
   48MOL0     C 6357   4.311   4.842  12.211 -0.6275 -1.0472  0.9965
   48MOL0     C 6358   4.432   4.782  12.281  0.2851 -0.1356 -0.3207
   48MOL0     C 6359   4.400   4.723  12.423 -0.2739 -0.3591  0.5001
   48MOL0     C 6360   4.521   4.703  12.513 -0.6259  0.4053  0.8158
   48MOL0     C 6361   4.606   4.578  12.462 -0.5328 -0.4718  0.2980
   48MOL0     N 6362   4.574   4.456  12.525  1.1993  0.7735  0.1594
   48MOL0     C 6363   4.653   4.348  12.526 -0.0894  0.7503  0.8798
   48MOL0     C 6364   4.562   4.250  12.536  0.2690  0.1397  0.6192
   48MOL0     C 6365   4.603   4.108  12.501 -0.2251  0.1452 -0.3632
   48MOL0     C 6366   4.595   4.096  12.346 -0.7202 -0.0301  0.0006
   48MOL0     C 6367   4.462   4.040  12.292 -0.4138  0.0292  0.5071
   48MOL0     C 6368   4.469   4.006  12.138 -0.1290 -0.1566 -0.4636
   48MOL0     O 6369   4.350   3.921  12.107  0.0583  1.0802 -0.1356
   48MOL0     C 6370   4.232   3.974  12.072 -0.6893 -0.2985 -0.1005
   48MOL0     C 6371   4.127   3.892  12.060  0.7495 -0.3164  0.2482
   48MOL0     C 6372   4.003   3.940  12.010 -0.1772 -0.3567 -0.9547
   48MOL0     C 6373   3.892   3.837  12.020  1.4390  0.9678  1.0513
   48MOL0     C 6374   3.987   4.074  11.971  0.6040 -0.0922  0.2825
   48MOL0     C 6375   3.860   4.135  11.927 -0.7259  0.0822  0.2987
   48MOL0     O 6376   3.863   4.273  11.929 -0.6344 -0.4129 -0.2710
   48MOL0     C 6377   3.756   4.341  11.889  0.2270 -0.4639  0.0251
   48MOL0     C 6378   3.679   4.323  11.768 -0.7926  0.9543 -0.2591
   48MOL0     C 6379   3.560   4.396  11.741 -0.0726  0.3120  0.6275
   48MOL0     C 6380   3.520   4.499  11.825 -0.3273  0.7830 -0.2670
   48MOL0     O 6381   3.400   4.561  11.828  0.8274  0.5371  0.6425
   48MOL0     C 6382   3.346   4.597  11.701 -1.0925  0.1232  0.4340
   48MOL0     C 6383   3.227   4.698  11.721  0.5076 -0.2342  1.0875
   48MOL0     C 6384   3.117   4.710  11.612 -0.0862  0.0504  0.4107
   48MOL0     C 6385   3.197   4.707  11.482  0.7748 -0.3843 -0.4324
   48MOL0     C 6386   3.109   4.747  11.353 -1.6898 -0.1609 -0.5118
   48MOL0     C 6387   2.995   4.645  11.325 -0.1436 -0.4936  0.0540
   48MOL0     C 6388   3.027   4.519  11.254 -0.6670 -0.5724  0.5420
   48MOL0     C 6389   2.899   4.469  11.201  0.3445  0.1729 -0.5722
   48MOL0    Cl 6390   2.887   4.300  11.146  0.2093 -0.0317 -0.2558
   48MOL0     C 6391   3.594   4.526  11.943 -0.4469 -0.1913  0.3426
   48MOL0     C 6392   3.712   4.451  11.974 -0.5155  0.2228 -0.3020
   48MOL0     O 6393   3.758   4.071  11.913 -0.2738  0.6350 -0.0021
   48MOL0     C 6394   4.103   4.153  11.993 -0.0295 -1.2238 -0.2145
   48MOL0     C 6395   4.223   4.110  12.040 -0.1682 -0.7992 -0.6884
   48MOL0     N 6396   4.430   4.299  12.549  0.1043  0.4645  0.0287
   48MOL0     N 6397   4.442   4.423  12.546 -0.8014  0.5150 -0.2501
   48MOL0     C 6398   4.268   4.826  11.614  0.1677 -0.4808 -0.5867
   48MOL0     C 6399   4.324   4.836  11.484  1.1688  0.0438  0.2431
   48MOL0     C 6400   4.493   5.002  11.095  0.4281  0.6248  1.4661
   48MOL0     C 6401   4.623   5.003  11.051  0.2748  0.6948 -0.4318
   48MOL0     C 6402   4.660   5.063  10.934  0.1382  0.3625  0.3337
   48MOL0     C 6403   4.561   5.122  10.853 -0.1412  0.0044 -0.8059
   48MOL0     O 6404   4.596   5.180  10.735  0.2436 -0.3186  0.1088
   48MOL0     C 6405   4.730   5.176  10.686  0.2339  0.3850  0.5869
   48MOL0     C 6406   4.754   5.064  10.579  0.0198  0.8698 -0.0112
   48MOL0     C 6407   4.719   4.923  10.641 -0.3750  0.0690 -0.6943
   48MOL0     C 6408   4.756   4.818  10.535  0.3631  0.3171 -0.7985
   48MOL0     C 6409   4.732   4.685  10.590 -0.0288  0.7750  0.1130
   48MOL0     C 6410   4.711   4.574  10.639  0.9696 -0.5486  0.0103
   48MOL0     C 6411   4.426   5.135  10.897 -0.8250  0.4706 -0.0924
   48MOL0     C 6412   4.390   5.067  11.020  0.0071 -1.2337  0.1595
   48MOL0     H 6413   4.251   5.170  11.434 -0.0666 -0.4998 -1.6407
   48MOL0     H 6414   4.178   5.153  11.648 -3.4466  0.1808 -2.3235
   48MOL0     H 6415   4.339   5.045  11.876  0.3172 -2.2513 -0.5360
   48MOL0     H 6416   4.171   5.117  11.877  0.3788  0.4901  0.1182
   48MOL0     H 6417   4.222   5.080  12.095  1.5127  0.7112 -1.3672
   48MOL0     H 6418   4.134   4.924  12.054 -1.3512  0.8542 -0.5553
   48MOL0     H 6419   4.366   4.837  12.000  0.1587 -1.1458  1.7433
   48MOL0     H 6420   4.431   4.977  12.089  1.6045 -2.7315  0.8474
   48MOL0     H 6421   4.256   4.908  12.278 -0.3167  1.6426 -1.2164
   48MOL0     H 6422   4.238   4.766  12.183 -0.3623 -1.7249  2.0876
   48MOL0     H 6423   4.479   4.704  12.221  0.8482 -1.1557  1.3782
   48MOL0     H 6424   4.501   4.866  12.301  1.3580 -0.9790 -0.3647
   48MOL0     H 6425   4.320   4.787  12.460  1.3808  1.4153  1.1512
   48MOL0     H 6426   4.359   4.625  12.394  0.2736  0.1991 -2.4739
   48MOL0     H 6427   4.569   4.801  12.503 -0.2775  0.1934  0.3282
   48MOL0     H 6428   4.490   4.695  12.617  2.0598  1.0462  1.7372
   48MOL0     H 6429   4.710   4.605  12.484 -0.5901 -0.3868  0.4650
   48MOL0     H 6430   4.592   4.563  12.355 -1.2721 -0.8595  0.4437
   48MOL0     H 6431   4.760   4.338  12.510  0.1054  0.0543  2.4068
   48MOL0     H 6432   4.703   4.095  12.543 -1.8087 -2.0851  3.1081
   48MOL0     H 6433   4.550   4.031  12.556  0.2782 -0.3238 -0.5266
   48MOL0     H 6434   4.664   4.015  12.323 -0.3329 -1.3213  4.8197
   48MOL0     H 6435   4.622   4.191  12.297 -0.3501  0.4452  1.0925
   48MOL0     H 6436   4.378   4.108  12.311 -1.7182 -1.4373  0.2723
   48MOL0     H 6437   4.440   3.944  12.340  2.8118 -0.8715  0.4163
   48MOL0     H 6438   4.556   3.944  12.121  0.2668  0.1206  0.4625
   48MOL0     H 6439   4.491   4.100  12.086 -2.4009  0.2953 -0.7075
   48MOL0     H 6440   4.146   3.789  12.089 -1.2623 -1.1554 -1.1220
   48MOL0     H 6441   3.796   3.882  12.047  0.7819 -0.2825  0.8737
   48MOL0     H 6442   3.877   3.782  11.926 -2.3037 -0.3462  2.2441
   48MOL0     H 6443   3.913   3.769  12.103 -3.6859  0.4092  2.1963
   48MOL0     H 6444   3.688   4.239  11.700 -3.5960 -1.3949  1.9950
   48MOL0     H 6445   3.494   4.382  11.656 -2.5064  2.5640  1.9955
   48MOL0     H 6446   3.420   4.636  11.631 -1.1875  0.5642  0.5723
   48MOL0     H 6447   3.320   4.509  11.642  0.6058 -0.8989  1.1505
   48MOL0     H 6448   3.176   4.657  11.809  0.4465 -0.7445  0.8199
   48MOL0     H 6449   3.264   4.799  11.739  1.4569 -0.6975  1.8150
   48MOL0     H 6450   3.061   4.803  11.629 -1.3699 -0.1706 -2.1287
   48MOL0     H 6451   3.042   4.631  11.617 -0.4090  0.4301  2.2573
   48MOL0     H 6452   3.274   4.784  11.492 -0.5484  0.7476  1.7254
   48MOL0     H 6453   3.243   4.610  11.457  0.1996 -0.1179 -2.7720
   48MOL0     H 6454   3.180   4.755  11.270  2.9558 -0.7407  2.9812
   48MOL0     H 6455   3.070   4.846  11.377  0.3409  0.2014  1.7233
   48MOL0     H 6456   2.955   4.604  11.418  1.4916 -0.1769  0.9230
   48MOL0     H 6457   2.926   4.699  11.259 -0.0090 -3.1003 -2.4578
   48MOL0     H 6458   3.075   4.439  11.312  0.5819  1.3471  2.2959
   48MOL0     H 6459   3.082   4.540  11.162 -1.4279  1.9287  0.5774
   48MOL0     H 6460   2.865   4.528  11.115  5.0468  2.5602 -1.1349
   48MOL0     H 6461   2.821   4.479  11.276  2.0447 -0.6196  1.3990
   48MOL0     H 6462   3.559   4.603  12.011  0.3206 -1.1204  1.8519
   48MOL0     H 6463   3.763   4.469  12.068  0.7981 -2.8988 -0.3010
   48MOL0     H 6464   4.094   4.261  11.987 -1.7468 -1.4151 -4.2779
   48MOL0     H 6465   4.305   4.180  12.053 -1.2453  0.2533  0.8280
   48MOL0     H 6466   4.278   4.731  11.665 -0.4079  0.0300  0.5106
   48MOL0     H 6467   4.364   4.751  11.430 -0.8207 -0.9186  0.2063
   48MOL0     H 6468   4.711   4.963  11.101 -1.0014  0.5084  1.7832
   48MOL0     H 6469   4.759   5.055  10.892 -1.4645 -0.6933 -3.6617
   48MOL0     H 6470   4.762   5.265  10.630  1.3617  0.0710  0.6988
   48MOL0     H 6471   4.815   5.172  10.754 -0.3649 -0.2762  1.3089
   48MOL0     H 6472   4.855   5.072  10.539  0.0966 -1.5763 -0.4354
   48MOL0     H 6473   4.690   5.075  10.491  1.4765 -0.7716 -1.3405
   48MOL0     H 6474   4.616   4.915  10.677 -0.1025  2.4587  0.7790
   48MOL0     H 6475   4.771   4.909  10.736 -1.5683  0.1363 -0.0073
   48MOL0     H 6476   4.857   4.821  10.495  0.1204  1.8058 -1.3747
   48MOL0     H 6477   4.693   4.831  10.447 -1.2056 -1.0001  0.0711
   48MOL0     H 6478   4.675   4.481  10.678  1.2865 -0.0929  1.4424
   48MOL0     H 6479   4.357   5.181  10.827 -1.9919 -0.6617  0.2860
   48MOL0     H 6480   4.289   5.078  11.058  0.6258 -0.6614  1.7566
   49MOL0     O 6481   4.002   7.337   8.677  0.3879 -0.3865  0.0749
   49MOL0     C 6482   3.892   7.392   8.698  0.6595 -1.5805  0.2769
   49MOL0     O 6483   3.783   7.334   8.757  0.1786 -0.7766 -0.4598
   49MOL0     C 6484   3.789   7.215   8.807  0.0965 -0.8708  0.8669
   49MOL0     C 6485   3.704   7.190   8.910 -1.1300  1.3756 -0.4796
   49MOL0     C 6486   3.702   7.069   8.975 -0.3533 -1.1201 -0.4629
   49MOL0     C 6487   3.766   6.959   8.921  0.2534 -0.2602  0.3421
   49MOL0     O 6488   3.742   6.833   8.962  0.1924 -0.7728 -0.0503
   49MOL0     C 6489   3.615   6.822   9.029 -0.5135 -0.5007 -0.8323
   49MOL0     C 6490   3.579   6.674   9.032  0.1834  0.2127  0.5857
   49MOL0     C 6491   3.569   6.608   8.893  0.3380  0.9513  0.7497
   49MOL0     C 6492   3.534   6.458   8.914 -0.2297  0.0837 -0.5466
   49MOL0     C 6493   3.495   6.394   8.788  0.3589  0.5022  0.5267
   49MOL0     C 6494   3.611   6.380   8.692  0.2595  0.7639  0.8558
   49MOL0     C 6495   3.715   6.278   8.735  0.7651  0.3142 -0.3455
   49MOL0     C 6496   3.654   6.145   8.751  0.0129  0.0319  0.1076
   49MOL0     N 6497   3.581   6.089   8.632  0.3869  0.3639  0.7815
   49MOL0     C 6498   3.638   6.092   8.507 -0.8154 -0.5977 -1.1596
   49MOL0     C 6499   3.600   5.980   8.460  0.7828  0.7174 -0.4117
   49MOL0     C 6500   3.639   5.928   8.325 -0.3010  0.0901 -0.5189
   49MOL0     C 6501   3.753   5.834   8.332  0.5796 -0.6148 -0.6289
   49MOL0     C 6502   3.775   5.772   8.204 -0.7261 -0.0399  0.0493
   49MOL0     C 6503   3.887   5.663   8.208  1.0987 -0.1333 -0.0218
   49MOL0     O 6504   3.916   5.599   8.082 -0.4013  0.2947  0.3571
   49MOL0     C 6505   4.000   5.490   8.076 -0.1576 -0.3159 -0.0891
   49MOL0     C 6506   4.009   5.414   7.959  0.6480 -0.4421  0.0390
   49MOL0     C 6507   4.083   5.288   7.950  0.5000 -0.7684  0.4833
   49MOL0     C 6508   4.090   5.226   7.814 -0.2382 -1.4119 -0.0236
   49MOL0     C 6509   4.163   5.250   8.063  0.4658  0.1970 -0.7541
   49MOL0     C 6510   4.267   5.149   8.065 -0.3374  0.1455 -0.5624
   49MOL0     O 6511   4.341   5.136   8.185 -0.2284 -0.2678 -0.0121
   49MOL0     C 6512   4.437   5.042   8.183  0.6092 -0.0908 -0.4295
   49MOL0     C 6513   4.564   5.063   8.128 -0.0444 -0.1157  0.1293
   49MOL0     C 6514   4.653   4.950   8.109  0.0346 -1.0498 -0.3656
   49MOL0     C 6515   4.616   4.820   8.146 -0.5443 -0.1633 -1.1145
   49MOL0     O 6516   4.679   4.700   8.115 -0.6284  0.0898  0.4972
   49MOL0     C 6517   4.778   4.705   8.010  0.4160  0.2367 -0.6443
   49MOL0     C 6518   4.719   4.659   7.883  0.7460  0.1101  1.2807
   49MOL0     C 6519   4.645   4.531   7.904 -0.6460  0.0579  0.2618
   49MOL0     C 6520   4.631   4.463   7.760  0.4544 -0.0662 -0.5596
   49MOL0     C 6521   4.526   4.346   7.776 -1.0321 -0.3819 -1.2032
   49MOL0     C 6522   4.532   4.265   7.648  0.1085  0.3535  0.0772
   49MOL0     C 6523   4.441   4.139   7.646 -0.3107 -0.1243  0.5814
   49MOL0     C 6524   4.501   4.020   7.731  0.1567  0.1637 -0.6586
   49MOL0    Cl 6525   4.380   3.892   7.739 -0.4270 -0.3048  0.2187
   49MOL0     C 6526   4.490   4.805   8.219  0.9125  0.0320 -0.0661
   49MOL0     C 6527   4.408   4.912   8.246 -0.3229  0.2070 -0.4044
   49MOL0     O 6528   4.297   5.106   7.950  0.0448 -0.5440 -0.0585
   49MOL0     C 6529   4.149   5.326   8.181 -0.0105  0.4647 -0.0820
   49MOL0     C 6530   4.064   5.437   8.189  0.9898 -0.3539 -0.4280
   49MOL0     N 6531   3.516   5.905   8.548 -0.2668 -0.2991 -0.1037
   49MOL0     N 6532   3.515   5.970   8.653 -0.4061  0.3657 -0.3554
   49MOL0     C 6533   3.840   6.981   8.799  0.0826  0.6351 -0.7991
   49MOL0     C 6534   3.848   7.104   8.747 -0.2985 -0.0749  0.5501
   49MOL0     C 6535   3.880   7.539   8.655 -0.2129 -0.8936  0.7131
   49MOL0     C 6536   3.765   7.619   8.694  0.0153 -0.1503  0.3491
   49MOL0     C 6537   3.752   7.749   8.648 -0.7147 -0.0126  0.2863
   49MOL0     C 6538   3.854   7.809   8.568 -0.0428 -0.0992  0.0013
   49MOL0     O 6539   3.837   7.929   8.515 -0.7281 -0.5553 -0.8292
   49MOL0     C 6540   3.951   8.007   8.476  0.0624  0.2800  0.7866
   49MOL0     C 6541   3.905   8.151   8.425 -0.3725  0.6867 -0.6161
   49MOL0     C 6542   3.829   8.224   8.539 -0.1776 -0.2980 -0.0925
   49MOL0     C 6543   3.892   8.221   8.677 -0.1463  0.4183 -0.3424
   49MOL0     C 6544   3.830   8.311   8.775 -0.1796  1.2739 -0.0467
   49MOL0     C 6545   3.763   8.390   8.841  0.4987 -0.3032 -0.0064
   49MOL0     C 6546   3.969   7.732   8.537 -0.6318 -0.0350  1.2729
   49MOL0     C 6547   3.974   7.601   8.574 -0.3915  0.4494 -0.4099
   49MOL0     H 6548   3.627   7.261   8.942 -0.1908  2.3224 -0.2620
   49MOL0     H 6549   3.648   7.077   9.069  2.7290  1.8225  1.3409
   49MOL0     H 6550   3.618   6.865   9.129 -0.0186 -2.8557  0.2549
   49MOL0     H 6551   3.533   6.857   8.966 -0.3313  0.3048 -0.6260
   49MOL0     H 6552   3.653   6.631   9.101 -0.9068 -1.1291  0.9609
   49MOL0     H 6553   3.480   6.677   9.079 -0.0608 -0.7316  0.1490
   49MOL0     H 6554   3.490   6.657   8.835  1.6980 -0.5514 -2.6663
   49MOL0     H 6555   3.662   6.616   8.836 -0.8790  0.4724 -1.4343
   49MOL0     H 6556   3.610   6.407   8.973 -0.3959  0.2531 -0.1839
   49MOL0     H 6557   3.444   6.452   8.976  0.5443  2.5204  0.9570
   49MOL0     H 6558   3.448   6.302   8.826  1.7931 -0.4593  0.0830
   49MOL0     H 6559   3.418   6.457   8.743 -0.4480  0.4723  1.8187
   49MOL0     H 6560   3.574   6.350   8.593  1.9690  0.3113  0.3209
   49MOL0     H 6561   3.649   6.479   8.666 -0.1019 -0.1512 -4.1138
   49MOL0     H 6562   3.799   6.268   8.665 -0.4021 -2.1808 -1.5104
   49MOL0     H 6563   3.746   6.320   8.832 -0.8777 -0.6846  0.6601
   49MOL0     H 6564   3.573   6.145   8.825 -2.3045 -0.4060 -2.2641
   49MOL0     H 6565   3.726   6.074   8.792 -1.1977 -1.4776 -0.2788
   49MOL0     H 6566   3.699   6.174   8.470 -0.3860  0.4389  1.5950
   49MOL0     H 6567   3.549   5.875   8.295 -3.1254  3.2525  1.5314
   49MOL0     H 6568   3.662   6.004   8.250 -0.1847  0.9995  0.4141
   49MOL0     H 6569   3.729   5.764   8.413  1.0322 -0.3995 -0.3020
   49MOL0     H 6570   3.841   5.892   8.363 -1.2477  1.7879  0.4286
   49MOL0     H 6571   3.816   5.855   8.146  1.5798  2.1462  4.3279
   49MOL0     H 6572   3.684   5.743   8.151 -0.5783  1.8345 -1.3334
   49MOL0     H 6573   3.849   5.585   8.275 -1.5996  1.8793  0.9736
   49MOL0     H 6574   3.975   5.706   8.258  0.4349  1.6834 -0.3414
   49MOL0     H 6575   3.952   5.456   7.876 -0.4246  0.3504  1.1398
   49MOL0     H 6576   4.051   5.300   7.743  0.3956 -1.3593 -0.3264
   49MOL0     H 6577   4.190   5.207   7.772  0.7414 -0.0570  1.5874
   49MOL0     H 6578   4.022   5.141   7.805 -3.5510  1.2515 -3.7987
   49MOL0     H 6579   4.589   5.162   8.091 -0.0889 -0.2792 -0.3462
   49MOL0     H 6580   4.738   4.971   8.045  1.9144 -1.5515  1.8259
   49MOL0     H 6581   4.837   4.796   7.999  0.6162  1.4035  5.8252
   49MOL0     H 6582   4.850   4.623   8.022 -0.4252 -0.7870 -2.1915
   49MOL0     H 6583   4.650   4.739   7.856  1.0057  0.1223  0.6133
   49MOL0     H 6584   4.801   4.655   7.809 -0.4768 -1.6018 -0.0636
   49MOL0     H 6585   4.545   4.552   7.942 -1.7620 -3.1646 -0.6225
   49MOL0     H 6586   4.694   4.466   7.976  0.6465  0.7745  0.0689
   49MOL0     H 6587   4.597   4.536   7.686 -0.6275 -0.6022 -0.6055
   49MOL0     H 6588   4.722   4.421   7.717  1.3322  0.1751  0.9780
   49MOL0     H 6589   4.426   4.391   7.779  0.0194  2.1035 -0.4899
   49MOL0     H 6590   4.543   4.285   7.865  2.0621  0.8220 -0.8639
   49MOL0     H 6591   4.507   4.335   7.567  2.9219 -0.3588 -1.5256
   49MOL0     H 6592   4.632   4.228   7.629 -0.5281  0.1039 -3.3828
   49MOL0     H 6593   4.449   4.111   7.541  1.1559  2.9718 -0.2719
   49MOL0     H 6594   4.340   4.153   7.685 -0.0462 -1.6559  1.9113
   49MOL0     H 6595   4.521   4.053   7.833  0.0104  1.0100 -0.8991
   49MOL0     H 6596   4.594   3.990   7.682  1.2775  2.0705  0.2059
   49MOL0     H 6597   4.444   4.710   8.246 -1.0874  1.5635  2.3685
   49MOL0     H 6598   4.309   4.894   8.288  0.8527  2.0683  3.6760
   49MOL0     H 6599   4.195   5.296   8.275 -1.4887 -0.9041  0.2546
   49MOL0     H 6600   4.058   5.481   8.288  0.3562  1.1951 -1.1327
   49MOL0     H 6601   3.878   6.890   8.755 -0.2783  0.6859 -1.2248
   49MOL0     H 6602   3.880   7.132   8.647 -0.0711  1.1608  0.9456
   49MOL0     H 6603   3.677   7.589   8.751 -1.0060  3.3092  0.8316
   49MOL0     H 6604   3.665   7.812   8.662 -0.0251  0.6842  1.6360
   49MOL0     H 6605   4.016   8.010   8.565  0.6382 -0.9324  0.4302
   49MOL0     H 6606   4.010   7.963   8.395 -0.0187 -1.7541  1.7527
   49MOL0     H 6607   3.844   8.144   8.335  0.4213 -4.5595 -1.0545
   49MOL0     H 6608   3.995   8.210   8.402  0.4818 -0.6942 -0.9864
   49MOL0     H 6609   3.734   8.171   8.548  0.6564 -2.3794 -2.3546
   49MOL0     H 6610   3.814   8.323   8.496  3.1357 -0.6835 -2.5677
   49MOL0     H 6611   3.994   8.261   8.681 -0.5637  1.4214  1.0627
   49MOL0     H 6612   3.896   8.120   8.720  2.1858  1.4322  2.1554
   49MOL0     H 6613   3.695   8.446   8.902  1.4738  0.8237  0.0767
   49MOL0     H 6614   4.047   7.762   8.468  0.4024 -0.0978  2.3934
   49MOL0     H 6615   4.058   7.540   8.540  0.3572  1.7565 -0.9967
   50MOL0     O 6616   3.651  10.069   2.798  0.4122  0.0542 -0.9618
   50MOL0     C 6617   3.649  10.186   2.757  0.5183 -0.2586  0.7032
   50MOL0     O 6618   3.632  10.304   2.826 -0.3016  0.0440  0.6793
   50MOL0     C 6619   3.581  10.303   2.959  0.2433  0.0948  0.7537
   50MOL0     C 6620   3.493  10.195   2.992 -0.2165 -0.2813 -0.2279
   50MOL0     C 6621   3.460  10.172   3.126  0.2776  0.4793  0.0501
   50MOL0     C 6622   3.480  10.271   3.219 -0.1207  0.2087 -1.4262
   50MOL0     O 6623   3.410  10.264   3.338  0.1043 -0.1215  0.7016
   50MOL0     C 6624   3.485  10.284   3.457 -0.2005  0.2964 -0.5280
   50MOL0     C 6625   3.373  10.342   3.548 -0.7409  0.3314 -0.2145
   50MOL0     C 6626   3.264  10.241   3.598 -0.1330  0.2316  0.2130
   50MOL0     C 6627   3.318  10.133   3.691  0.2754 -0.7567  0.6630
   50MOL0     C 6628   3.210  10.033   3.741 -0.1332  0.0693  0.5609
   50MOL0     C 6629   3.279   9.923   3.812  0.0084  0.4671 -0.3960
   50MOL0     C 6630   3.182   9.838   3.889  0.0769 -0.9876  0.0650
   50MOL0     C 6631   3.224   9.696   3.930 -0.0326  0.0215  0.0791
   50MOL0     N 6632   3.363   9.686   3.969  0.0937 -0.4456 -0.0848
   50MOL0     C 6633   3.462   9.623   3.895  0.2739  0.2920 -0.2012
   50MOL0     C 6634   3.569   9.634   3.980  0.0477  0.2592 -0.8793
   50MOL0     C 6635   3.702   9.577   3.946  0.2986 -0.4247 -0.6005
   50MOL0     C 6636   3.727   9.455   4.030 -0.0864 -0.0604  0.8542
   50MOL0     C 6637   3.869   9.408   4.011 -0.5827  1.0532 -0.7742
   50MOL0     C 6638   3.987   9.494   4.083 -0.8637 -0.2502  1.7657
   50MOL0     O 6639   4.111   9.457   4.023  0.7449  0.3684 -0.0587
   50MOL0     C 6640   4.233   9.507   4.057 -1.3041  0.2583  0.2135
   50MOL0     C 6641   4.252   9.615   4.141 -0.7759 -0.3243 -0.5160
   50MOL0     C 6642   4.377   9.677   4.150 -0.1166  0.0599 -0.2723
   50MOL0     C 6643   4.379   9.822   4.213 -0.2546  0.2736  0.7942
   50MOL0     C 6644   4.487   9.616   4.085 -0.3165  0.2041  0.1034
   50MOL0     C 6645   4.627   9.661   4.109  0.5873  0.6156 -0.3093
   50MOL0     O 6646   4.723   9.597   4.040  0.8680  0.5607  0.5633
   50MOL0     C 6647   4.853   9.645   4.035  0.4947 -0.3005 -0.9918
   50MOL0     C 6648   4.882   9.771   3.993  0.5235 -0.0248 -0.0172
   50MOL0     C 6649   5.010   9.817   4.007 -0.2402 -0.0032 -0.0430
   50MOL0     C 6650   5.112   9.738   4.055  0.4451 -0.6306 -0.5651
   50MOL0     O 6651   5.214   9.816   4.075  0.3498 -0.1105  0.1858
   50MOL0     C 6652   5.337   9.778   4.137 -0.0598  0.7925 -0.3166
   50MOL0     C 6653   5.389   9.909   4.188  0.1284 -0.5780  0.1914
   50MOL0     C 6654   5.531   9.889   4.258  0.3265  0.6427  0.1045
   50MOL0     C 6655   5.565  10.004   4.356 -0.0589 -0.0351  1.2948
   50MOL0     C 6656   5.653   9.965   4.473 -0.5779  0.0105 -0.1366
   50MOL0     C 6657   5.594   9.864   4.560 -0.0238 -0.0137 -0.7276
   50MOL0     C 6658   5.673   9.865   4.702  0.5380  0.0363 -0.5501
   50MOL0     C 6659   5.587   9.884   4.836 -0.2409 -0.0063  0.3740
   50MOL0    Cl 6660   5.465  10.030   4.825 -0.3228 -0.4971 -0.1744
   50MOL0     C 6661   5.083   9.613   4.105 -0.2944  0.1562  0.9864
   50MOL0     C 6662   4.953   9.565   4.091  0.4377 -0.2972  0.1942
   50MOL0     O 6663   4.647   9.741   4.200 -0.4661  0.1808 -0.0014
   50MOL0     C 6664   4.470   9.492   4.023  0.4082  0.3074 -0.1601
   50MOL0     C 6665   4.341   9.444   3.994 -0.0415  0.4455  0.4284
   50MOL0     N 6666   3.538   9.695   4.103  1.0068 -0.0293 -0.1823
   50MOL0     N 6667   3.413   9.737   4.087  0.3746 -0.7647 -0.4064
   50MOL0     C 6668   3.573  10.379   3.192  0.7423  0.4236  0.5096
   50MOL0     C 6669   3.626  10.381   3.061 -0.6160 -0.1544 -0.5457
   50MOL0     C 6670   3.655  10.205   2.605  0.4875 -0.0708  0.0589
   50MOL0     C 6671   3.726  10.308   2.547 -0.3293 -1.2107 -0.8491
   50MOL0     C 6672   3.718  10.339   2.408  0.1026 -0.9354 -0.3101
   50MOL0     C 6673   3.638  10.260   2.323 -0.5194 -0.7643  0.1771
   50MOL0     O 6674   3.646  10.292   2.189  0.2305 -0.0131  0.3490
   50MOL0     C 6675   3.533  10.257   2.111  0.8473 -1.1422  0.5351
   50MOL0     C 6676   3.575  10.297   1.967  0.1378  0.1985  0.6183
   50MOL0     C 6677   3.476  10.229   1.862 -0.0300 -0.3281 -0.1486
   50MOL0     C 6678   3.502  10.263   1.718 -0.4512  0.0041  0.5007
   50MOL0     C 6679   3.446  10.396   1.674  0.2922 -0.4374  1.0039
   50MOL0     C 6680   3.418  10.503   1.626  0.3258 -0.6127 -0.9241
   50MOL0     C 6681   3.553  10.169   2.386 -0.8639  1.1966 -0.2689
   50MOL0     C 6682   3.568  10.132   2.522  0.1230 -0.1074 -0.0030
   50MOL0     H 6683   3.449  10.135   2.912  1.5474 -0.3845 -1.1642
   50MOL0     H 6684   3.406  10.084   3.161  1.0734  0.5932  1.6570
   50MOL0     H 6685   3.522  10.186   3.488  0.4882  0.6668 -0.1516
   50MOL0     H 6686   3.574  10.348   3.459 -1.4644  2.1265  0.0214
   50MOL0     H 6687   3.416  10.389   3.637 -1.6131 -0.9181  0.9102
   50MOL0     H 6688   3.317  10.414   3.487  2.5806 -0.1022 -4.2309
   50MOL0     H 6689   3.183  10.297   3.646  1.7170  1.6919  1.7957
   50MOL0     H 6690   3.224  10.181   3.516  0.9967  2.3504 -2.0321
   50MOL0     H 6691   3.402  10.077   3.649  1.5660  0.5360  1.4242
   50MOL0     H 6692   3.372  10.175   3.776  1.9405 -0.0769 -0.6666
   50MOL0     H 6693   3.152  10.085   3.818 -0.8705 -3.0897  2.2912
   50MOL0     H 6694   3.142   9.998   3.663 -0.8156  3.1224 -0.3477
   50MOL0     H 6695   3.333   9.859   3.742  0.8745 -2.6305  2.7494
   50MOL0     H 6696   3.346   9.969   3.885  1.5913 -0.3351 -1.2977
   50MOL0     H 6697   3.157   9.895   3.979  0.0401  0.5477 -0.8836
   50MOL0     H 6698   3.089   9.840   3.831  1.2631  1.8669 -1.9813
   50MOL0     H 6699   3.221   9.637   3.838  1.0927  0.9707 -0.5847
   50MOL0     H 6700   3.150   9.651   3.998  1.1003 -2.1098 -0.0155
   50MOL0     H 6701   3.465   9.573   3.798 -1.0622  1.2435 -0.7688
   50MOL0     H 6702   3.687   9.540   3.844  4.1828 -1.4071 -0.9595
   50MOL0     H 6703   3.772   9.660   3.951 -2.5549  2.3142 -2.4341
   50MOL0     H 6704   3.648   9.386   3.998  1.2953 -0.7426 -1.3025
   50MOL0     H 6705   3.720   9.480   4.136 -1.2588  3.8083  0.0584
   50MOL0     H 6706   3.889   9.393   3.904 -1.1370 -4.3024 -0.3901
   50MOL0     H 6707   3.879   9.305   4.046  0.3650  1.0167 -1.1085
   50MOL0     H 6708   3.989   9.457   4.186 -3.9929 -2.2980  1.2435
   50MOL0     H 6709   3.984   9.601   4.063 -0.0795 -0.9366 -3.2157
   50MOL0     H 6710   4.173   9.676   4.186  1.6274  3.2218 -0.7456
   50MOL0     H 6711   4.276   9.853   4.231 -0.3084  0.2208  0.5716
   50MOL0     H 6712   4.431   9.842   4.308 -1.8213  2.9728  1.1744
   50MOL0     H 6713   4.424   9.877   4.131  0.9474  0.5173  1.5874
   50MOL0     H 6714   4.800   9.835   3.961  0.0075 -0.9531 -0.5886
   50MOL0     H 6715   5.018   9.923   3.989 -0.0023  0.2963  1.6253
   50MOL0     H 6716   5.316   9.711   4.221 -4.2790  0.2368 -1.6015
   50MOL0     H 6717   5.413   9.728   4.075  0.1739  1.1599 -0.3309
   50MOL0     H 6718   5.417   9.975   4.106 -1.6724 -1.0478 -0.8503
   50MOL0     H 6719   5.313   9.957   4.250 -0.8701 -0.8483 -0.7948
   50MOL0     H 6720   5.610   9.870   4.185  0.8165 -0.2461  0.8383
   50MOL0     H 6721   5.510   9.797   4.314  2.4260 -0.8714 -1.4110
   50MOL0     H 6722   5.600  10.088   4.294  3.8064 -1.5288  1.2230
   50MOL0     H 6723   5.466  10.036   4.392 -1.1039 -2.7657  1.0499
   50MOL0     H 6724   5.666  10.062   4.521  1.1997 -0.8822  1.3004
   50MOL0     H 6725   5.750   9.921   4.450 -1.3933 -2.5118  0.8416
   50MOL0     H 6726   5.486   9.874   4.574 -0.2030 -0.1052 -1.9278
   50MOL0     H 6727   5.613   9.769   4.508  1.2561 -0.2256  0.0773
   50MOL0     H 6728   5.751   9.941   4.695 -0.2263  1.4400  3.5736
   50MOL0     H 6729   5.717   9.766   4.715  0.2046  0.1645  2.1965
   50MOL0     H 6730   5.660   9.910   4.913 -2.4851  2.1224  1.9326
   50MOL0     H 6731   5.534   9.791   4.852  1.5259 -2.3207 -4.8680
   50MOL0     H 6732   5.165   9.552   4.143 -1.1885 -0.6368  1.6975
   50MOL0     H 6733   4.930   9.462   4.118  1.4743 -1.2554 -2.3508
   50MOL0     H 6734   4.547   9.425   3.987 -1.2764 -1.3788 -0.8462
   50MOL0     H 6735   4.327   9.353   3.936  0.9902 -0.3131  1.3354
   50MOL0     H 6736   3.584  10.468   3.253 -0.0000  0.8393  0.0606
   50MOL0     H 6737   3.701  10.453   3.031 -0.5277  0.9603  2.1125
   50MOL0     H 6738   3.794  10.347   2.622 -0.9198 -0.3255 -0.7535
   50MOL0     H 6739   3.779  10.417   2.364  0.2745  0.3729  2.0425
   50MOL0     H 6740   3.508  10.151   2.104 -2.5813 -0.3977 -0.3190
   50MOL0     H 6741   3.446  10.316   2.144 -0.0653 -1.5708 -1.0005
   50MOL0     H 6742   3.674  10.256   1.946 -0.4351 -1.1805  0.4598
   50MOL0     H 6743   3.563  10.405   1.971  0.9881  0.6138 -3.5355
   50MOL0     H 6744   3.377  10.259   1.896  1.1278  4.0339 -0.0373
   50MOL0     H 6745   3.479  10.120   1.874  1.9651 -0.4482 -1.3118
   50MOL0     H 6746   3.469  10.185   1.649 -2.3212  1.7200 -0.6694
   50MOL0     H 6747   3.611  10.264   1.723 -0.4437 -1.9777  1.4404
   50MOL0     H 6748   3.394  10.592   1.571 -0.5895 -0.0554  0.3470
   50MOL0     H 6749   3.493  10.109   2.318  1.9447 -1.5534 -0.5782
   50MOL0     H 6750   3.523  10.048   2.574 -1.5823  3.1773  4.4788
   51MOL0     O 6751   1.117   6.179   4.284 -0.3754 -0.0560 -0.2485
   51MOL0     C 6752   1.133   6.089   4.206  0.1961  0.1675  0.2851
   51MOL0     O 6753   1.117   5.952   4.237 -0.0781  0.8508 -0.0933
   51MOL0     C 6754   1.079   5.895   4.351 -0.0308  0.1563  0.3970
   51MOL0     C 6755   1.102   5.756   4.366 -0.2099  0.4370  0.0963
   51MOL0     C 6756   1.094   5.690   4.495 -0.3715  0.6973 -0.4451
   51MOL0     C 6757   1.048   5.763   4.600  0.1440  0.5986 -0.4193
   51MOL0     O 6758   1.022   5.703   4.727  0.3558  0.6094 -0.7562
   51MOL0     C 6759   1.073   5.577   4.757  0.3101 -0.6017  0.1126
   51MOL0     C 6760   1.141   5.584   4.887  0.1623 -0.2717  0.5157
   51MOL0     C 6761   1.097   5.687   4.994  1.3733 -0.3054 -0.1336
   51MOL0     C 6762   1.188   5.670   5.118  0.6486  0.6823  0.3378
   51MOL0     C 6763   1.160   5.758   5.233 -0.3985 -0.2648  0.3747
   51MOL0     C 6764   1.179   5.910   5.197 -1.2412 -0.1470  0.0016
   51MOL0     C 6765   1.215   5.982   5.327 -1.0692 -0.9680  1.0990
   51MOL0     C 6766   1.197   6.135   5.320 -0.6226 -0.7851  1.1463
   51MOL0     N 6767   1.329   6.204   5.309  0.2912 -0.3913 -0.9930
   51MOL0     C 6768   1.404   6.247   5.419 -0.5661  0.0078 -0.4477
   51MOL0     C 6769   1.516   6.303   5.364  0.2193  0.9658  0.7260
   51MOL0     C 6770   1.642   6.338   5.436  0.4117 -0.4090 -0.9009
   51MOL0     C 6771   1.637   6.477   5.501 -0.0605 -0.8157 -0.6351
   51MOL0     C 6772   1.522   6.516   5.592  0.1205  0.5171 -0.4942
   51MOL0     C 6773   1.523   6.416   5.710  1.3524  0.1045 -0.6036
   51MOL0     O 6774   1.458   6.489   5.821  0.1968 -0.1260 -0.0393
   51MOL0     C 6775   1.326   6.470   5.858 -0.4849 -0.7594  1.1093
   51MOL0     C 6776   1.227   6.478   5.762 -0.6081  0.2320 -0.0478
   51MOL0     C 6777   1.098   6.448   5.792 -0.4941  0.7651  0.5646
   51MOL0     C 6778   1.011   6.469   5.670  0.8742  0.4593  0.7456
   51MOL0     C 6779   1.059   6.399   5.911  0.6061  0.3202 -1.2795
   51MOL0     C 6780   0.924   6.370   5.950 -0.2921  0.8135 -0.7301
   51MOL0     O 6781   0.902   6.289   6.065 -0.0998 -1.2072 -0.3291
   51MOL0     C 6782   0.768   6.247   6.083  0.1160 -0.8470 -0.2854
   51MOL0     C 6783   0.718   6.264   6.209  0.7248  0.9670 -0.8001
   51MOL0     C 6784   0.583   6.227   6.240 -0.6165 -1.1856 -0.2794
   51MOL0     C 6785   0.501   6.154   6.161 -0.8420 -1.0843  0.1774
   51MOL0     O 6786   0.370   6.136   6.204 -0.1506 -0.0147  0.2788
   51MOL0     C 6787   0.334   6.001   6.224 -0.1220 -0.3327 -0.7801
   51MOL0     C 6788   0.252   5.963   6.346  0.4972  0.9033  0.4451
   51MOL0     C 6789   0.314   6.014   6.479 -0.3791 -0.0886  0.3709
   51MOL0     C 6790   0.378   5.896   6.557  0.5214 -0.5709 -0.0336
   51MOL0     C 6791   0.532   5.899   6.566 -0.0443  0.0963  0.9530
   51MOL0     C 6792   0.587   6.000   6.669 -0.2951  0.1519 -0.1485
   51MOL0     C 6793   0.738   6.005   6.688 -0.0402  0.5707 -0.7830
   51MOL0     C 6794   0.815   6.039   6.564 -0.2110 -0.6820 -0.1459
   51MOL0    Cl 6795   0.794   6.222   6.547 -0.0578 -0.2544 -0.1496
   51MOL0     C 6796   0.549   6.143   6.028  0.2830  0.4476 -0.6585
   51MOL0     C 6797   0.683   6.182   5.993  0.8416 -0.3146  0.1032
   51MOL0     O 6798   0.836   6.429   5.892 -0.1491 -0.3229  0.6127
   51MOL0     C 6799   1.156   6.387   6.011  0.0402 -0.1396 -0.1060
   51MOL0     C 6800   1.294   6.428   5.987  0.2376  0.4373 -0.5676
   51MOL0     N 6801   1.495   6.299   5.224 -0.5234  0.1476 -0.3931
   51MOL0     N 6802   1.396   6.223   5.196 -0.7725 -0.0265 -0.7541
   51MOL0     C 6803   1.028   5.900   4.591 -0.4834  0.9403  0.1186
   51MOL0     C 6804   1.047   5.967   4.471  0.0890 -0.4325 -0.3435
   51MOL0     C 6805   1.199   6.126   4.068 -0.1987  0.0032 -0.1689
   51MOL0     C 6806   1.208   6.268   4.037  0.3811  1.0534  0.1339
   51MOL0     C 6807   1.275   6.305   3.919  0.1796  1.0599 -0.0097
   51MOL0     C 6808   1.332   6.205   3.832  1.2584 -0.0007  1.5642
   51MOL0     O 6809   1.370   6.258   3.712  0.0603  0.8488 -0.0817
   51MOL0     C 6810   1.403   6.155   3.616 -0.3904 -0.4148 -0.4171
   51MOL0     C 6811   1.470   6.222   3.490  0.5494 -0.1702  1.1856
   51MOL0     C 6812   1.395   6.349   3.446  0.4986  0.2838 -0.6778
   51MOL0     C 6813   1.451   6.424   3.322  0.5986  0.4992 -0.3161
   51MOL0     C 6814   1.388   6.556   3.302 -0.2927 -0.5294 -0.4668
   51MOL0     C 6815   1.329   6.663   3.289  0.5126 -1.5493 -0.4871
   51MOL0     C 6816   1.302   6.070   3.866 -0.2863 -1.0297 -0.6103
   51MOL0     C 6817   1.244   6.030   3.987  0.1410  0.6969 -0.6255
   51MOL0     H 6818   1.140   5.713   4.274 -0.2757 -0.5943  0.5309
   51MOL0     H 6819   1.115   5.584   4.500 -0.3661  0.6763 -0.8783
   51MOL0     H 6820   0.988   5.507   4.760  1.1092 -1.8030 -2.3997
   51MOL0     H 6821   1.139   5.533   4.682 -0.2958 -1.4866  0.0756
   51MOL0     H 6822   1.122   5.483   4.925  1.9782 -0.4970  0.9245
   51MOL0     H 6823   1.249   5.586   4.869 -0.0374 -2.3624 -1.3160
   51MOL0     H 6824   1.109   5.787   4.952 -0.2208 -1.1287 -2.8099
   51MOL0     H 6825   0.994   5.668   5.025  0.7762  1.5645 -0.8669
   51MOL0     H 6826   1.184   5.565   5.150  2.3091  1.0329  1.8638
   51MOL0     H 6827   1.293   5.684   5.091  0.5461  0.7782 -0.0142
   51MOL0     H 6828   1.063   5.743   5.281 -0.4123  1.1003  0.8355
   51MOL0     H 6829   1.227   5.730   5.314  0.1975 -1.5239 -0.5319
   51MOL0     H 6830   1.258   5.920   5.121  1.3192  1.7765  2.6789
   51MOL0     H 6831   1.091   5.947   5.144 -2.1298  4.3062  3.9945
   51MOL0     H 6832   1.143   5.957   5.406  1.3193 -0.8740  3.4402
   51MOL0     H 6833   1.313   5.951   5.366 -0.1060  0.1384 -0.3422
   51MOL0     H 6834   1.141   6.169   5.408  0.0995 -0.7850  1.6125
   51MOL0     H 6835   1.139   6.163   5.232 -0.0476 -2.6095  0.1552
   51MOL0     H 6836   1.377   6.239   5.524  0.7870  1.9937  0.0996
   51MOL0     H 6837   1.672   6.263   5.509  2.9182  1.4960  0.2065
   51MOL0     H 6838   1.725   6.350   5.366  1.1031  1.3782  0.1371
   51MOL0     H 6839   1.643   6.552   5.421  0.8669  0.8812  0.9377
   51MOL0     H 6840   1.731   6.484   5.557 -1.0830 -0.9214  1.1344
   51MOL0     H 6841   1.431   6.515   5.532 -0.5490 -1.3746  0.4756
   51MOL0     H 6842   1.520   6.613   5.642 -2.0289 -0.3268  1.1858
   51MOL0     H 6843   1.625   6.395   5.744  2.3398  2.2697 -2.0465
   51MOL0     H 6844   1.486   6.315   5.688 -1.5528  0.2138  2.8596
   51MOL0     H 6845   1.247   6.499   5.657 -3.2312 -2.8353 -1.3325
   51MOL0     H 6846   1.062   6.496   5.577 -2.9408 -2.5498 -2.5704
   51MOL0     H 6847   0.940   6.389   5.647  0.6966  1.0698 -0.9592
   51MOL0     H 6848   0.948   6.555   5.692 -3.8204 -2.2633 -0.7136
   51MOL0     H 6849   0.773   6.312   6.289 -0.8924 -0.5453  1.3422
   51MOL0     H 6850   0.542   6.265   6.333 -0.2400  0.8864 -0.9092
   51MOL0     H 6851   0.269   5.968   6.142  0.5176 -0.6286 -1.1803
   51MOL0     H 6852   0.426   5.941   6.228 -1.3916 -2.3406  1.9199
   51MOL0     H 6853   0.156   6.013   6.328  0.8263  2.0482  1.7374
   51MOL0     H 6854   0.232   5.856   6.347 -3.2099  1.4609  0.3336
   51MOL0     H 6855   0.231   6.065   6.528 -0.2413 -0.4405  0.9743
   51MOL0     H 6856   0.390   6.089   6.458 -0.7091 -0.3410 -1.9825
   51MOL0     H 6857   0.345   5.910   6.660 -0.4160  3.2103 -0.6854
   51MOL0     H 6858   0.334   5.804   6.517 -3.7675  2.3563 -2.8030
   51MOL0     H 6859   0.556   5.942   6.469  0.6907 -0.3695  0.9277
   51MOL0     H 6860   0.568   5.797   6.581 -0.6461 -0.6915 -2.2098
   51MOL0     H 6861   0.559   6.102   6.642  1.0546  1.1852  2.0691
   51MOL0     H 6862   0.535   5.975   6.762 -1.6288 -2.6338 -1.5208
   51MOL0     H 6863   0.775   5.905   6.715  4.5624  2.6855  2.0731
   51MOL0     H 6864   0.759   6.068   6.775 -1.0357 -1.0289  0.6695
   51MOL0     H 6865   0.780   5.985   6.476 -0.7334  2.1688 -1.8142
   51MOL0     H 6866   0.921   6.021   6.579  0.2009  2.0396  0.8375
   51MOL0     H 6867   0.485   6.112   5.946  1.8160 -1.4110 -1.2141
   51MOL0     H 6868   0.719   6.175   5.891  0.8319 -1.8348  0.1845
   51MOL0     H 6869   1.122   6.356   6.109 -1.3485 -2.5756 -1.2799
   51MOL0     H 6870   1.362   6.411   6.069  0.4392  1.8211 -0.4357
   51MOL0     H 6871   1.003   5.952   4.682  2.4331  5.0593 -1.1286
   51MOL0     H 6872   1.025   6.074   4.476 -0.3853 -0.4660 -1.3903
   51MOL0     H 6873   1.171   6.338   4.111 -3.0542 -1.9837  1.6155
   51MOL0     H 6874   1.291   6.403   3.876  0.5630  0.8799 -0.2890
   51MOL0     H 6875   1.477   6.085   3.654 -1.4195 -0.6642  1.2212
   51MOL0     H 6876   1.320   6.087   3.594 -0.2005 -0.4826 -0.9291
   51MOL0     H 6877   1.467   6.146   3.411  0.3195  1.6702 -0.6678
   51MOL0     H 6878   1.575   6.245   3.515  0.6062  0.1714  0.6497
   51MOL0     H 6879   1.388   6.421   3.528 -0.7553 -0.3477 -0.2001
   51MOL0     H 6880   1.296   6.318   3.412  1.5870 -1.3632 -2.6262
   51MOL0     H 6881   1.426   6.359   3.238 -2.1036 -0.9815  1.4962
   51MOL0     H 6882   1.557   6.447   3.339  1.2076 -1.9556 -0.3909
   51MOL0     H 6883   1.298   6.764   3.277  0.3837 -1.6025 -0.6157
   51MOL0     H 6884   1.323   5.992   3.793  0.8805 -2.7345  1.4091
   51MOL0     H 6885   1.229   5.923   4.001  2.4113  0.3676 -0.2691
   52MOL0     O 6886   9.516   8.137   1.719 -0.4414 -0.7769  0.2360
   52MOL0     C 6887   9.555   8.036   1.769 -0.5815  0.0455  0.2540
   52MOL0     O 6888   9.475   7.940   1.826 -0.6128  1.2189 -1.4110
   52MOL0     C 6889   9.345   7.979   1.846 -0.1188  0.0496  0.1282
   52MOL0     C 6890   9.314   8.079   1.939  0.4603 -0.7038  0.1032
   52MOL0     C 6891   9.180   8.112   1.962 -0.4375  0.4646 -0.6054
   52MOL0     C 6892   9.080   8.039   1.897 -0.5195 -0.1211 -0.4857
   52MOL0     O 6893   8.953   8.068   1.928 -0.1628 -0.4909 -0.4060
   52MOL0     C 6894   8.846   8.007   1.861  0.5469  0.6918 -1.2388
   52MOL0     C 6895   8.725   8.016   1.958 -0.7671  1.0562  0.4714
   52MOL0     C 6896   8.665   8.149   1.960 -0.0593 -0.6210  0.5457
   52MOL0     C 6897   8.622   8.215   2.099  0.5918  0.2281  0.3401
   52MOL0     C 6898   8.716   8.325   2.151  0.8039 -0.2330 -0.2821
   52MOL0     C 6899   8.839   8.267   2.202  0.6836  0.0050 -0.1095
   52MOL0     C 6900   8.861   8.257   2.347 -0.2083 -0.2145 -0.4126
   52MOL0     C 6901   8.773   8.166   2.425  0.0590  0.0959 -0.1515
   52MOL0     N 6902   8.796   8.025   2.397 -0.4626 -0.6837 -0.0066
   52MOL0     C 6903   8.915   7.967   2.414  0.2025  0.0575 -0.6214
   52MOL0     C 6904   8.904   7.832   2.391  0.7635 -0.5576 -0.6398
   52MOL0     C 6905   9.023   7.750   2.365 -0.6289  0.5935 -0.2419
   52MOL0     C 6906   9.083   7.792   2.231 -0.5542  0.1967  0.5250
   52MOL0     C 6907   9.247   7.765   2.225  1.2926  0.9415  0.4393
   52MOL0     C 6908   9.289   7.667   2.110 -0.1498  0.5152 -0.1314
   52MOL0     O 6909   9.419   7.693   2.062 -0.0782 -0.1088  0.1001
   52MOL0     C 6910   9.531   7.666   2.138  0.7027 -0.6345 -0.3998
   52MOL0     C 6911   9.518   7.613   2.269 -0.5497 -0.0005 -0.3374
   52MOL0     C 6912   9.636   7.613   2.353  0.4963  0.2745  0.9745
   52MOL0     C 6913   9.604   7.578   2.488 -0.3536  0.1096 -0.4270
   52MOL0     C 6914   9.761   7.647   2.297  0.1754  1.5771 -1.8487
   52MOL0     C 6915   9.880   7.640   2.380 -0.3084  0.1152  0.3495
   52MOL0     O 6916   9.954   7.525   2.358  0.2141 -0.2592 -0.6443
   52MOL0     C 6917  10.077   7.506   2.420 -0.3156  0.7427  0.4096
   52MOL0     C 6918  10.175   7.442   2.349 -0.3385  0.6003  0.5130
   52MOL0     C 6919  10.296   7.416   2.401 -0.3383  0.3791 -1.0265
   52MOL0     C 6920  10.340   7.443   2.532 -0.6190  0.4628  0.7352
   52MOL0     O 6921  10.457   7.420   2.588  0.0051 -0.1994 -0.4252
   52MOL0     C 6922  10.552   7.337   2.514  0.6872 -1.2043  0.3214
   52MOL0     C 6923  10.684   7.314   2.602  0.1742  0.3303 -0.1366
   52MOL0     C 6924  10.712   7.423   2.700  0.3155 -0.4443 -0.1048
   52MOL0     C 6925  10.838   7.393   2.777 -0.2154  0.7964  0.2977
   52MOL0     C 6926  10.893   7.512   2.858  0.2950  1.1777 -0.3082
   52MOL0     C 6927  11.026   7.471   2.924  1.2135 -0.1300 -0.2734
   52MOL0     C 6928  11.101   7.597   2.987 -0.6091 -0.2241 -0.6552
   52MOL0     C 6929  11.246   7.581   3.031 -0.5213  0.9457  0.2120
   52MOL0    Cl 6930  11.290   7.428   3.112 -0.2977  0.8026  0.4664
   52MOL0     C 6931  10.241   7.503   2.605  0.0199 -0.7185 -0.3230
   52MOL0     C 6932  10.113   7.544   2.549 -0.4371 -0.4575 -1.0503
   52MOL0     O 6933   9.906   7.731   2.452 -0.2061  0.5322 -0.4744
   52MOL0     C 6934   9.765   7.667   2.164 -0.6478  0.0065  0.2041
   52MOL0     C 6935   9.654   7.689   2.090 -0.7494 -0.5511  0.4945
   52MOL0     N 6936   8.772   7.817   2.344  0.3234  0.5571  0.3711
   52MOL0     N 6937   8.711   7.927   2.358 -0.4717  0.1024  0.3404
   52MOL0     C 6938   9.115   7.936   1.796  0.1459  0.3166 -0.5937
   52MOL0     C 6939   9.244   7.906   1.782 -0.5640  0.0774 -0.0768
   52MOL0     C 6940   9.699   8.019   1.770 -0.0545 -0.1786  0.8839
   52MOL0     C 6941   9.765   7.940   1.866  0.7998  0.4621  0.7739
   52MOL0     C 6942   9.901   7.906   1.854 -0.6170  0.6735  0.3694
   52MOL0     C 6943   9.979   7.939   1.746  0.1675  1.3400 -0.3402
   52MOL0     O 6944  10.113   7.904   1.729  0.4220  0.1092 -0.3076
   52MOL0     C 6945  10.204   8.008   1.702 -0.3865 -0.8756 -0.2127
   52MOL0     C 6946  10.341   7.970   1.743 -0.2716 -0.9494  0.1409
   52MOL0     C 6947  10.344   7.925   1.891 -0.1262  0.2235  0.1874
   52MOL0     C 6948  10.321   8.029   1.993  1.3145 -0.3641  0.3587
   52MOL0     C 6949  10.191   8.050   2.044 -0.5271  1.2272 -0.2180
   52MOL0     C 6950  10.071   8.069   2.071 -0.6918  0.0093  0.1395
   52MOL0     C 6951   9.919   8.017   1.642  0.8600 -0.2493  0.1514
   52MOL0     C 6952   9.778   8.058   1.659 -0.5489  0.8266 -0.2528
   52MOL0     H 6953   9.390   8.124   2.001 -1.5187 -0.5640  2.5843
   52MOL0     H 6954   9.152   8.187   2.036  3.5312  2.3523 -0.7605
   52MOL0     H 6955   8.813   8.056   1.769 -4.0751 -0.3927 -0.4286
   52MOL0     H 6956   8.864   7.902   1.835 -0.8445  0.6570 -2.1864
   52MOL0     H 6957   8.644   7.953   1.921  0.6409 -0.1415 -0.7024
   52MOL0     H 6958   8.755   7.977   2.057 -0.9231 -1.9984 -0.5785
   52MOL0     H 6959   8.734   8.216   1.909 -0.3724 -1.7887 -1.5391
   52MOL0     H 6960   8.581   8.149   1.889 -0.9243  4.5457  1.2179
   52MOL0     H 6961   8.528   8.268   2.078  0.8897  0.3022 -0.8772
   52MOL0     H 6962   8.614   8.137   2.176 -0.7237  1.8024  1.8992
   52MOL0     H 6963   8.735   8.415   2.091 -1.3757 -1.4066 -2.9427
   52MOL0     H 6964   8.667   8.372   2.237 -0.7231  1.9890 -2.2261
   52MOL0     H 6965   8.843   8.163   2.166  1.1360  0.0377 -0.1683
   52MOL0     H 6966   8.916   8.321   2.147  1.7623 -1.8107 -0.4664
   52MOL0     H 6967   8.963   8.223   2.365  0.0071  1.1045  1.0879
   52MOL0     H 6968   8.863   8.357   2.392  0.7490 -1.0163  1.4139
   52MOL0     H 6969   8.665   8.183   2.417 -0.2019  0.8330  3.5155
   52MOL0     H 6970   8.782   8.189   2.531  0.9837 -2.9476  0.5223
   52MOL0     H 6971   9.004   8.023   2.441  0.3116  1.1100 -2.8898
   52MOL0     H 6972   9.094   7.760   2.448 -0.2745  0.8378 -0.5742
   52MOL0     H 6973   9.003   7.643   2.358  2.8433 -0.2327  0.5917
   52MOL0     H 6974   9.057   7.896   2.209  1.3106  0.2609 -1.8182
   52MOL0     H 6975   9.033   7.727   2.159  3.7732 -4.0448  0.8376
   52MOL0     H 6976   9.275   7.738   2.327 -1.9630  0.2723  1.2654
   52MOL0     H 6977   9.307   7.855   2.213 -2.7253  4.2107  2.1307
   52MOL0     H 6978   9.222   7.686   2.026 -1.5037 -0.3374  0.7168
   52MOL0     H 6979   9.266   7.567   2.147  0.7778  0.4830  0.3676
   52MOL0     H 6980   9.425   7.571   2.306 -1.3072  0.4486 -1.6686
   52MOL0     H 6981   9.579   7.669   2.543  1.3437  1.2655 -1.4711
   52MOL0     H 6982   9.517   7.511   2.487 -0.2227 -0.0640 -1.5579
   52MOL0     H 6983   9.683   7.515   2.531 -0.2710 -1.6735 -2.9643
   52MOL0     H 6984  10.143   7.418   2.248  1.0354 -0.4068  0.2950
   52MOL0     H 6985  10.361   7.362   2.333 -1.1514  0.1699 -1.6541
   52MOL0     H 6986  10.514   7.246   2.467  0.1252 -0.0212 -1.6614
   52MOL0     H 6987  10.586   7.404   2.434  1.6987 -2.6217 -0.4859
   52MOL0     H 6988  10.676   7.221   2.659 -2.7915  0.7722  0.3088
   52MOL0     H 6989  10.772   7.303   2.538 -0.6953 -0.7179 -1.1922
   52MOL0     H 6990  10.627   7.444   2.766  1.3072  2.9738  0.2539
   52MOL0     H 6991  10.717   7.522   2.655 -2.1416 -0.5798 -0.8532
   52MOL0     H 6992  10.813   7.313   2.847 -2.8677  0.0976 -1.2732
   52MOL0     H 6993  10.914   7.350   2.712  0.6214 -4.2433  3.9876
   52MOL0     H 6994  10.820   7.518   2.939 -0.8694 -1.3686 -1.0638
   52MOL0     H 6995  10.890   7.604   2.798  2.5235  1.0529 -0.7038
   52MOL0     H 6996  11.010   7.396   3.003  2.7025 -2.3104 -1.9271
   52MOL0     H 6997  11.094   7.422   2.854 -0.2895 -0.2325 -1.7054
   52MOL0     H 6998  11.038   7.618   3.075 -1.6187 -1.7172 -0.9775
   52MOL0     H 6999  11.092   7.682   2.919  0.3081 -2.0311 -3.1934
   52MOL0     H 7000  11.260   7.674   3.087 -0.3472  3.2408 -3.3359
   52MOL0     H 7001  11.301   7.589   2.936  0.0535  1.8242  0.6091
   52MOL0     H 7002  10.273   7.525   2.706  2.9524 -2.3816 -0.7587
   52MOL0     H 7003  10.049   7.612   2.604  1.3552  1.2019 -0.9197
   52MOL0     H 7004   9.851   7.710   2.113 -0.7667  0.7991  0.6603
   52MOL0     H 7005   9.656   7.725   1.987 -2.5347 -1.3774  0.1274
   52MOL0     H 7006   9.054   7.879   1.727  1.7327 -0.1158 -1.7094
   52MOL0     H 7007   9.282   7.833   1.712  1.1704  1.7387 -0.9755
   52MOL0     H 7008   9.713   7.922   1.960 -1.0519  2.0695  0.1210
   52MOL0     H 7009   9.963   7.854   1.926 -0.6181  0.2280  0.0552
   52MOL0     H 7010  10.212   8.023   1.594  0.2530 -2.4313 -0.4204
   52MOL0     H 7011  10.180   8.103   1.750 -1.4409 -2.4858  2.7048
   52MOL0     H 7012  10.418   8.043   1.715  0.0342 -1.2134  0.2838
   52MOL0     H 7013  10.376   7.893   1.673  0.0892 -1.9344  1.3694
   52MOL0     H 7014  10.442   7.884   1.918  1.0133  2.8951  0.3861
   52MOL0     H 7015  10.279   7.837   1.891  1.0921 -0.7149 -0.8766
   52MOL0     H 7016  10.339   8.122   1.939  0.1144 -1.1980 -1.6065
   52MOL0     H 7017  10.377   8.026   2.087 -1.0830  2.0231  1.9973
   52MOL0     H 7018   9.967   8.093   2.074 -0.7557 -0.2903  0.4689
   52MOL0     H 7019   9.969   8.054   1.553  3.2302 -1.1654  1.0096
   52MOL0     H 7020   9.729   8.111   1.578 -0.5020  1.7137  0.2824
   53MOL0     O 7021   9.116  11.551   4.498  0.0689  0.0343  0.0073
   53MOL0     C 7022   9.093  11.643   4.571  0.2676 -0.3497  0.4286
   53MOL0     O 7023   8.982  11.654   4.647  0.0032  0.3611 -0.0497
   53MOL0     C 7024   8.917  11.533   4.690 -0.0387  0.1153 -0.3983
   53MOL0     C 7025   8.974  11.406   4.717  0.4657  0.2099  0.0696
   53MOL0     C 7026   8.889  11.303   4.749 -0.2576  0.3243 -0.3357
   53MOL0     C 7027   8.748  11.313   4.764 -0.4720  0.9345 -0.7339
   53MOL0     O 7028   8.665  11.202   4.790  0.6381 -0.0839  0.3083
   53MOL0     C 7029   8.534  11.219   4.858 -0.0377 -0.0439  0.0579
   53MOL0     C 7030   8.506  11.093   4.938  0.0300 -0.2967 -0.9750
   53MOL0     C 7031   8.414  11.127   5.059 -0.4830  0.4194  1.1189
   53MOL0     C 7032   8.377  10.990   5.122 -1.1205  0.2366  0.2768
   53MOL0     C 7033   8.307  11.013   5.260 -0.2134 -0.2740 -0.2630
   53MOL0     C 7034   8.170  11.084   5.254  0.4553 -0.6460 -0.6088
   53MOL0     C 7035   8.058  11.006   5.172  0.3969  0.7050 -0.3304
   53MOL0     C 7036   8.018  10.880   5.242  0.0580  0.4425  0.2528
   53MOL0     N 7037   7.908  10.913   5.331  0.0702  0.5777  0.5339
   53MOL0     C 7038   7.923  10.966   5.452 -0.0357  0.5798  0.6035
   53MOL0     C 7039   7.799  10.987   5.484 -0.3619  0.1350  0.2712
   53MOL0     C 7040   7.771  10.999   5.628  0.4237  0.1663  0.2143
   53MOL0     C 7041   7.778  10.864   5.706  0.4766  0.0369  1.0815
   53MOL0     C 7042   7.665  10.764   5.666  0.1935 -0.4796  0.1027
   53MOL0     C 7043   7.532  10.811   5.721 -0.0913 -0.3940 -0.0779
   53MOL0     O 7044   7.517  10.809   5.864 -0.0393 -0.2068  0.0795
   53MOL0     C 7045   7.401  10.855   5.907 -0.1861  0.1170  1.3355
   53MOL0     C 7046   7.375  10.977   5.943 -0.3534 -0.8572 -0.1258
   53MOL0     C 7047   7.251  11.015   5.990  1.2667 -0.0184 -0.8878
   53MOL0     C 7048   7.244  11.160   6.029  0.2968 -0.1578  0.0346
   53MOL0     C 7049   7.147  10.913   5.994 -0.2245  0.6641  0.1748
   53MOL0     C 7050   7.006  10.942   6.043  0.1822  0.6885  0.3524
   53MOL0     O 7051   6.929  10.833   6.086  0.0511 -0.9215  0.9994
   53MOL0     C 7052   6.797  10.860   6.114  0.8425  0.1260 -0.2642
   53MOL0     C 7053   6.757  10.964   6.209  0.6666  0.0702 -0.0984
   53MOL0     C 7054   6.624  10.966   6.261 -0.2154  0.2765 -0.0278
   53MOL0     C 7055   6.522  10.892   6.192 -0.4577 -0.4014 -0.7046
   53MOL0     O 7056   6.391  10.892   6.247 -0.2482 -0.0057 -0.0340
   53MOL0     C 7057   6.334  11.012   6.270 -0.4381 -0.8369  0.0846
   53MOL0     C 7058   6.269  11.011   6.410  0.0053  0.5304 -1.0399
   53MOL0     C 7059   6.327  11.105   6.517 -0.2563 -0.4387  0.9546
   53MOL0     C 7060   6.254  11.238   6.490 -0.7288  0.9576  0.1960
   53MOL0     C 7061   6.116  11.240   6.542 -0.1141 -0.1863  0.5539
   53MOL0     C 7062   6.067  11.386   6.568  0.1528  0.1907 -1.1352
   53MOL0     C 7063   5.924  11.374   6.620  0.2390  0.5594 -0.4839
   53MOL0     C 7064   5.872  11.512   6.681  0.0920  0.4383  0.4780
   53MOL0    Cl 7065   5.753  11.481   6.822  0.1277 -0.0932  0.1804
   53MOL0     C 7066   6.558  10.806   6.087 -0.9537 -0.4041 -0.4776
   53MOL0     C 7067   6.690  10.788   6.055 -0.8116  0.0808  0.0535
   53MOL0     O 7068   6.956  11.054   6.023  0.3290 -0.4584  0.1459
   53MOL0     C 7069   7.180  10.781   5.957 -0.2903  0.1934 -0.7574
   53MOL0     C 7070   7.307  10.752   5.911  0.7247  0.9785 -1.3734
   53MOL0     N 7071   7.709  10.951   5.384 -0.4959  1.0094 -0.2944
   53MOL0     N 7072   7.782  10.888   5.298  0.0687 -0.3297 -0.5777
   53MOL0     C 7073   8.699  11.438   4.744 -0.2943  0.0985 -0.5291
   53MOL0     C 7074   8.783  11.540   4.700  0.2100 -0.1727 -0.7281
   53MOL0     C 7075   9.154  11.775   4.529  0.0114  0.0855 -0.3100
   53MOL0     C 7076   9.100  11.904   4.558  0.1730 -0.3936 -0.6919
   53MOL0     C 7077   9.165  12.024   4.511  0.0083 -0.0237 -0.0491
   53MOL0     C 7078   9.277  12.018   4.430  0.1584  0.2763  0.3895
   53MOL0     O 7079   9.343  12.121   4.365 -0.1904  0.4439  0.3907
   53MOL0     C 7080   9.299  12.265   4.370  0.1987  0.0346 -1.2477
   53MOL0     C 7081   9.171  12.299   4.298 -1.0884  0.2699  0.6465
   53MOL0     C 7082   9.201  12.347   4.146 -0.2694 -0.1321 -0.3656
   53MOL0     C 7083   9.067  12.386   4.075 -0.2456 -0.4436  0.2498
   53MOL0     C 7084   9.031  12.527   4.107  0.3833  0.7956  0.4970
   53MOL0     C 7085   8.995  12.636   4.136  0.1767 -0.3261  0.5460
   53MOL0     C 7086   9.340  11.893   4.413  0.2398  1.1121  0.4349
   53MOL0     C 7087   9.269  11.776   4.458  0.1144 -0.2485  0.5804
   53MOL0     H 7088   9.081  11.392   4.705 -0.1028 -2.4237 -4.5659
   53MOL0     H 7089   8.929  11.206   4.778 -0.6009  0.5694  1.0295
   53MOL0     H 7090   8.537  11.312   4.915 -2.7032  0.2920 -0.2007
   53MOL0     H 7091   8.454  11.228   4.783 -0.3620  1.3808  0.5486
   53MOL0     H 7092   8.461  11.015   4.877 -1.1779 -0.3024 -0.1208
   53MOL0     H 7093   8.604  11.061   4.975 -0.0104 -0.0194 -0.6095
   53MOL0     H 7094   8.470  11.198   5.121 -0.2843  3.0261 -1.8122
   53MOL0     H 7095   8.325  11.173   5.016  0.3657  0.1656 -1.0516
   53MOL0     H 7096   8.317  10.936   5.049  1.0379  0.5749 -1.8842
   53MOL0     H 7097   8.467  10.929   5.130 -3.4942 -3.6070  0.0066
   53MOL0     H 7098   8.309  10.917   5.313  2.1931 -1.3646 -2.1602
   53MOL0     H 7099   8.385  11.069   5.312 -1.4376 -1.3376  3.0241
   53MOL0     H 7100   8.129  11.104   5.353 -1.2295  0.1143 -1.4067
   53MOL0     H 7101   8.188  11.186   5.219 -1.8256  0.8301  2.0836
   53MOL0     H 7102   7.972  11.071   5.153  0.9499  1.6068  0.1378
   53MOL0     H 7103   8.100  10.977   5.075 -1.7665 -2.5324 -0.4496
   53MOL0     H 7104   8.104  10.839   5.296  2.2474  0.0454 -3.2690
   53MOL0     H 7105   7.989  10.803   5.171 -0.2074 -0.9579  1.8239
   53MOL0     H 7106   8.017  10.975   5.506  1.6075  0.2173 -2.0600
   53MOL0     H 7107   7.859  11.053   5.663  0.0222  2.5378 -2.0858
   53MOL0     H 7108   7.677  11.052   5.645 -0.7127 -1.0148 -1.9519
   53MOL0     H 7109   7.764  10.885   5.812 -1.6622  1.7650  0.5294
   53MOL0     H 7110   7.878  10.824   5.689 -1.6563 -4.4447 -3.7277
   53MOL0     H 7111   7.694  10.666   5.704 -2.0001 -1.3702 -0.3593
   53MOL0     H 7112   7.653  10.762   5.557  2.4935  1.3549 -0.2642
   53MOL0     H 7113   7.450  10.752   5.681 -1.8013  1.4200  0.6096
   53MOL0     H 7114   7.516  10.912   5.685  1.0990 -0.6006 -1.2617
   53MOL0     H 7115   7.461  11.043   5.938  1.5638 -3.2238 -0.0164
   53MOL0     H 7116   7.156  11.185   6.089 -1.0255  0.7605 -2.1326
   53MOL0     H 7117   7.333  11.184   6.087  2.0659  1.0840 -2.9234
   53MOL0     H 7118   7.255  11.217   5.936  1.2224  0.8091  0.7157
   53MOL0     H 7119   6.835  11.030   6.245  0.8780  0.2992 -0.9556
   53MOL0     H 7120   6.604  11.043   6.335  1.5746  0.7141  0.0434
   53MOL0     H 7121   6.407  11.094   6.268 -1.2475 -0.0793 -2.4716
   53MOL0     H 7122   6.270  11.047   6.188  0.2968  2.6304  0.8514
   53MOL0     H 7123   6.161  11.023   6.401 -0.4845 -1.4562  1.1072
   53MOL0     H 7124   6.285  10.908   6.444  0.7746  0.6600 -0.9957
   53MOL0     H 7125   6.437  11.103   6.514 -0.1290  2.3431  1.1633
   53MOL0     H 7126   6.298  11.056   6.611 -1.7656 -2.4956 -0.4958
   53MOL0     H 7127   6.321  11.313   6.534  1.2434 -1.1419  0.9526
   53MOL0     H 7128   6.258  11.262   6.383  0.9754 -0.1553 -0.0359
   53MOL0     H 7129   6.103  11.177   6.631 -1.7618  0.2574  0.6554
   53MOL0     H 7130   6.049  11.200   6.465 -1.4077 -1.0644  2.0699
   53MOL0     H 7131   6.134  11.424   6.646  3.3073 -3.6431 -1.6309
   53MOL0     H 7132   6.082  11.447   6.478  0.2123 -2.1195 -2.8008
   53MOL0     H 7133   5.913  11.303   6.702  1.5892 -1.2763 -1.8186
   53MOL0     H 7134   5.856  11.338   6.542 -1.3734 -2.0875  1.9479
   53MOL0     H 7135   5.840  11.576   6.597 -0.4006 -1.7817 -1.1190
   53MOL0     H 7136   5.961  11.551   6.730 -0.9579  0.5227  2.4054
   53MOL0     H 7137   6.478  10.756   6.034  2.1222 -2.6309 -3.4037
   53MOL0     H 7138   6.712  10.713   5.980 -1.0737  1.2806 -1.2729
   53MOL0     H 7139   7.094  10.717   5.972  1.6298 -3.5663 -3.8975
   53MOL0     H 7140   7.326  10.647   5.894 -1.9303 -0.2622  2.0255
   53MOL0     H 7141   8.600  11.479   4.731 -0.3711  0.6756  1.5450
   53MOL0     H 7142   8.740  11.637   4.678 -3.8968 -0.5970  3.8014
   53MOL0     H 7143   9.015  11.911   4.625  1.2495 -3.2701  1.1225
   53MOL0     H 7144   9.130  12.127   4.517  3.4148  1.4739 -2.4842
   53MOL0     H 7145   9.267  12.279   4.474  0.3608  0.5431 -1.2634
   53MOL0     H 7146   9.379  12.328   4.331 -0.2273  0.6855 -1.0715
   53MOL0     H 7147   9.115  12.380   4.346 -2.5250 -1.0756  1.2893
   53MOL0     H 7148   9.101  12.216   4.308 -1.0269  0.2334  0.7743
   53MOL0     H 7149   9.254  12.269   4.091 -0.1648  2.1278 -3.7860
   53MOL0     H 7150   9.265  12.436   4.148 -0.2611 -0.1513  0.3446
   53MOL0     H 7151   8.996  12.310   4.107  1.2391 -1.9957  0.0189
   53MOL0     H 7152   9.073  12.391   3.966 -0.5351 -0.3912  0.2361
   53MOL0     H 7153   8.969  12.731   4.178  2.6114 -0.7613  3.3488
   53MOL0     H 7154   9.436  11.874   4.367  0.5853  1.5405  0.9682
   53MOL0     H 7155   9.314  11.683   4.425  0.3879 -1.0832  3.1101
   54MOL0     O 7156   3.354   5.304   2.047  0.5379  0.6170 -0.6073
   54MOL0     C 7157   3.375   5.215   1.971 -0.0288 -0.6133  0.4911
   54MOL0     O 7158   3.404   5.238   1.844 -0.0559  0.1446 -0.0308
   54MOL0     C 7159   3.456   5.360   1.801  0.2587  0.5984 -1.0473
   54MOL0     C 7160   3.353   5.456   1.769 -0.3543 -0.5970  0.0314
   54MOL0     C 7161   3.389   5.584   1.725 -1.0285 -0.3813 -1.0067
   54MOL0     C 7162   3.525   5.623   1.709 -1.0785  0.6921 -0.0802
   54MOL0     O 7163   3.558   5.752   1.675  0.2461  0.5117 -0.3513
   54MOL0     C 7164   3.634   5.829   1.767 -0.1626 -0.1542 -0.1689
   54MOL0     C 7165   3.567   5.953   1.804  0.2603  0.4292 -0.5817
   54MOL0     C 7166   3.461   5.931   1.913 -0.1859  0.5861 -0.5170
   54MOL0     C 7167   3.368   6.056   1.917 -0.2273  0.2734 -0.2316
   54MOL0     C 7168   3.256   6.023   2.016 -0.9322  0.7246 -0.5844
   54MOL0     C 7169   3.153   6.142   2.031 -0.9168 -0.0861  0.3832
   54MOL0     C 7170   3.202   6.246   2.119 -0.2030 -0.1326 -0.8382
   54MOL0     C 7171   3.204   6.207   2.263 -1.4278  0.0082 -0.6248
   54MOL0     N 7172   3.216   6.322   2.350  0.5611  0.0101 -0.6679
   54MOL0     C 7173   3.321   6.414   2.362  0.2244  0.2375  0.0717
   54MOL0     C 7174   3.269   6.501   2.459  0.5962 -0.1205  0.6618
   54MOL0     C 7175   3.339   6.616   2.531  0.0830  0.2684  0.1308
   54MOL0     C 7176   3.341   6.736   2.441 -0.3665  0.5416 -0.8454
   54MOL0     C 7177   3.428   6.845   2.500 -0.9118  0.1466  0.1721
   54MOL0     C 7178   3.447   6.972   2.418  0.5361  0.0673  1.0583
   54MOL0     O 7179   3.536   6.926   2.319 -0.2871 -0.3668  0.4834
   54MOL0     C 7180   3.591   7.030   2.237 -0.2778 -0.3226 -0.3315
   54MOL0     C 7181   3.581   7.174   2.268 -0.3615  0.5929 -1.2504
   54MOL0     C 7182   3.652   7.275   2.202  0.2522 -1.0071  1.1573
   54MOL0     C 7183   3.636   7.422   2.246  0.7391 -0.3041  0.1455
   54MOL0     C 7184   3.738   7.238   2.092 -0.2737 -0.2630 -0.0869
   54MOL0     C 7185   3.814   7.327   2.003  0.0764  0.2293 -0.2840
   54MOL0     O 7186   3.827   7.295   1.871 -0.4185 -0.6020 -0.0330
   54MOL0     C 7187   3.933   7.337   1.790 -0.1578 -1.1997 -0.0550
   54MOL0     C 7188   4.052   7.373   1.839 -1.2218  0.2326 -1.4505
   54MOL0     C 7189   4.158   7.396   1.756 -0.0336 -0.6057  1.0076
   54MOL0     C 7190   4.142   7.395   1.618  0.2621  0.3257 -0.0994
   54MOL0     O 7191   4.258   7.435   1.549  0.4678  0.0756  0.2192
   54MOL0     C 7192   4.306   7.365   1.438 -0.8741  0.0223 -0.4979
   54MOL0     C 7193   4.383   7.242   1.477 -0.3061 -0.1775 -0.4523
   54MOL0     C 7194   4.472   7.262   1.605  0.8217 -0.4006 -0.6178
   54MOL0     C 7195   4.565   7.143   1.642 -0.2601 -0.3362 -0.6785
   54MOL0     C 7196   4.657   7.181   1.766 -0.8705  1.5898  0.1345
   54MOL0     C 7197   4.603   7.155   1.906  0.2270  0.0011  0.5869
   54MOL0     C 7198   4.706   7.197   2.013  0.0332 -0.3135  0.1808
   54MOL0     C 7199   4.731   7.347   2.020  0.3047  1.1410  0.3301
   54MOL0    Cl 7200   4.876   7.390   2.098  0.4900 -0.1473 -0.1358
   54MOL0     C 7201   4.015   7.358   1.564  0.7210 -0.0106 -0.6229
   54MOL0     C 7202   3.914   7.335   1.659 -0.0516  0.1916  0.3442
   54MOL0     O 7203   3.886   7.407   2.062 -0.5713  0.1775  0.5513
   54MOL0     C 7204   3.735   7.107   2.050 -0.1248 -0.8748  0.6814
   54MOL0     C 7205   3.659   7.010   2.115  0.3702  0.2634 -0.6737
   54MOL0     N 7206   3.138   6.465   2.487  0.7525 -0.0969 -0.3940
   54MOL0     N 7207   3.117   6.349   2.437 -0.0147  0.2246 -0.3738
   54MOL0     C 7208   3.626   5.527   1.752 -0.3239  0.4966 -0.8529
   54MOL0     C 7209   3.598   5.391   1.799  0.5286 -0.0344 -0.5594
   54MOL0     C 7210   3.384   5.069   2.019  0.6112  0.2836 -0.6776
   54MOL0     C 7211   3.460   4.964   1.956  0.1604  0.3599 -0.9304
   54MOL0     C 7212   3.452   4.838   1.996 -0.3783  0.4322 -0.2664
   54MOL0     C 7213   3.378   4.803   2.102 -0.0988  0.4728 -0.1040
   54MOL0     O 7214   3.382   4.667   2.137  0.0228  0.9784 -0.0191
   54MOL0     C 7215   3.296   4.619   2.231  0.2649  0.9850 -1.1705
   54MOL0     C 7216   3.156   4.599   2.166 -1.0838  0.0262 -0.3204
   54MOL0     C 7217   3.075   4.489   2.238  0.5821 -0.6319 -0.0531
   54MOL0     C 7218   3.108   4.355   2.165 -0.2254 -0.6126  0.2035
   54MOL0     C 7219   2.997   4.262   2.188 -0.7403  0.7995 -0.2855
   54MOL0     C 7220   2.930   4.164   2.203  0.7047  0.4675 -1.2032
   54MOL0     C 7221   3.303   4.895   2.167 -0.4317 -0.1021 -1.4040
   54MOL0     C 7222   3.309   5.026   2.136 -0.2832  0.1997  1.0074
   54MOL0     H 7223   3.252   5.418   1.771 -0.3856 -0.7250 -1.8510
   54MOL0     H 7224   3.303   5.649   1.710 -0.3597  0.4892 -1.1576
   54MOL0     H 7225   3.645   5.769   1.857 -3.9186  2.3701  2.2734
   54MOL0     H 7226   3.734   5.855   1.730 -1.4236  1.9237 -2.4738
   54MOL0     H 7227   3.629   6.039   1.831 -1.2671  1.6383 -0.8144
   54MOL0     H 7228   3.516   5.986   1.714  2.9888  3.2519 -1.2788
   54MOL0     H 7229   3.404   5.842   1.886 -0.0634  1.0324 -2.3710
   54MOL0     H 7230   3.511   5.927   2.010  3.9582  1.0113 -2.3728
   54MOL0     H 7231   3.425   6.147   1.942 -0.0082  0.0885 -0.0535
   54MOL0     H 7232   3.328   6.068   1.816 -0.1317 -1.0430 -0.4346
   54MOL0     H 7233   3.201   5.943   1.966  0.1633 -0.4701  0.0586
   54MOL0     H 7234   3.292   5.995   2.116 -0.5965  0.7120 -0.7066
   54MOL0     H 7235   3.131   6.192   1.936 -0.7024  2.1328  1.4371
   54MOL0     H 7236   3.065   6.088   2.065 -1.3601 -2.1535 -3.5538
   54MOL0     H 7237   3.307   6.273   2.109 -0.0761 -0.7270 -1.1122
   54MOL0     H 7238   3.148   6.341   2.108  1.7339  0.8354 -2.9453
   54MOL0     H 7239   3.293   6.144   2.272 -1.3228  0.3560  1.0216
   54MOL0     H 7240   3.128   6.130   2.280 -2.7063  1.2598 -0.4522
   54MOL0     H 7241   3.424   6.426   2.329  1.3817 -1.2706  2.7622
   54MOL0     H 7242   3.274   6.626   2.618 -1.5680 -0.4673 -0.9636
   54MOL0     H 7243   3.441   6.599   2.568  1.1147  4.8265 -0.0501
   54MOL0     H 7244   3.235   6.759   2.428 -1.3046 -3.1509 -0.7451
   54MOL0     H 7245   3.373   6.713   2.339  1.1004  0.9731 -0.5071
   54MOL0     H 7246   3.524   6.798   2.522 -1.3543  0.3077  2.8452
   54MOL0     H 7247   3.387   6.883   2.594 -0.2335 -2.7951  1.7873
   54MOL0     H 7248   3.492   7.034   2.496  0.2761 -1.8437  2.8124
   54MOL0     H 7249   3.356   7.024   2.386 -1.7236 -3.0571  1.9309
   54MOL0     H 7250   3.524   7.211   2.353 -2.7063  1.0288 -2.9250
   54MOL0     H 7251   3.585   7.430   2.343  1.9645 -0.5508  0.8234
   54MOL0     H 7252   3.730   7.478   2.250  2.0135 -1.6470 -4.7762
   54MOL0     H 7253   3.577   7.462   2.163 -0.2958 -0.7480  0.6423
   54MOL0     H 7254   4.078   7.361   1.944  1.1767  0.8091 -1.9226
   54MOL0     H 7255   4.255   7.410   1.802  1.2582 -5.1941  0.0982
   54MOL0     H 7256   4.229   7.339   1.365 -0.0821 -0.6202 -1.1159
   54MOL0     H 7257   4.381   7.428   1.388 -1.1252 -0.1406 -1.0809
   54MOL0     H 7258   4.305   7.165   1.480  0.5267 -1.0787 -1.3803
   54MOL0     H 7259   4.453   7.224   1.395 -2.3780 -1.5244 -2.0391
   54MOL0     H 7260   4.410   7.276   1.694  2.4884  0.2641  0.4751
   54MOL0     H 7261   4.540   7.347   1.593  3.8173 -2.1213  2.4524
   54MOL0     H 7262   4.506   7.056   1.672  1.9331 -0.7296  3.2240
   54MOL0     H 7263   4.628   7.112   1.559  0.5974 -0.0362 -0.1520
   54MOL0     H 7264   4.675   7.289   1.760 -3.1076  1.9688 -0.6013
   54MOL0     H 7265   4.749   7.122   1.759 -1.1323  0.4288  4.0326
   54MOL0     H 7266   4.502   7.197   1.915 -0.0538 -0.2177 -1.2377
   54MOL0     H 7267   4.595   7.047   1.915  0.0034 -0.0207  0.1518
   54MOL0     H 7268   4.804   7.154   1.990  0.2986  0.9231 -1.0692
   54MOL0     H 7269   4.669   7.164   2.111 -0.4362 -1.2375 -0.2916
   54MOL0     H 7270   4.663   7.383   2.099  1.1914  2.6859  0.4340
   54MOL0     H 7271   4.693   7.399   1.932 -3.8289 -1.2158  0.4742
   54MOL0     H 7272   3.988   7.339   1.460  1.3438 -2.4042 -0.4008
   54MOL0     H 7273   3.818   7.305   1.619  0.3914 -3.9977  1.8589
   54MOL0     H 7274   3.787   7.070   1.962  0.5518  0.3709  0.5467
   54MOL0     H 7275   3.647   6.911   2.072 -0.5571 -1.4135  3.0472
   54MOL0     H 7276   3.725   5.573   1.755  0.1223 -0.3982  3.1448
   54MOL0     H 7277   3.685   5.332   1.824  0.5017  0.4651  0.8057
   54MOL0     H 7278   3.540   4.986   1.886  1.6030  0.6476  0.7393
   54MOL0     H 7279   3.506   4.759   1.946  0.7613  0.4371  0.8979
   54MOL0     H 7280   3.338   4.523   2.263 -0.8868  1.4098  2.0497
   54MOL0     H 7281   3.274   4.683   2.317 -1.2945 -1.3662  0.2984
   54MOL0     H 7282   3.169   4.570   2.061 -0.1735 -0.7281 -0.0115
   54MOL0     H 7283   3.112   4.699   2.175  0.1938  0.4767  1.2565
   54MOL0     H 7284   2.974   4.521   2.211  1.2735  0.1651 -1.8785
   54MOL0     H 7285   3.081   4.466   2.345 -0.4382 -1.6034 -0.1859
   54MOL0     H 7286   3.203   4.317   2.204  0.4469  1.4079  0.6492
   54MOL0     H 7287   3.114   4.374   2.057  2.2060 -2.1076  0.0084
   54MOL0     H 7288   2.873   4.074   2.216  1.4063  0.2149  0.3858
   54MOL0     H 7289   3.251   4.888   2.263  1.9656  3.8708  0.4335
   54MOL0     H 7290   3.256   5.098   2.197 -2.4717 -0.9234  0.5586
   55MOL0     O 7291  11.383   2.477   6.532  0.3326  0.2880  0.2869
   55MOL0     C 7292  11.358   2.405   6.632  1.1625 -0.4877  0.3066
   55MOL0     O 7293  11.308   2.280   6.628 -0.6510  0.2147 -0.1159
   55MOL0     C 7294  11.259   2.239   6.500  0.3637  0.3437  0.1598
   55MOL0     C 7295  11.119   2.250   6.471 -0.3801 -0.9021  0.6805
   55MOL0     C 7296  11.078   2.196   6.352  0.3437  0.5493  0.1829
   55MOL0     C 7297  11.163   2.124   6.263 -0.4249  0.2983  0.0449
   55MOL0     O 7298  11.119   2.078   6.137 -0.0426  0.5004 -1.0109
   55MOL0     C 7299  11.171   2.151   6.026  0.1024  0.1901 -0.2218
   55MOL0     C 7300  11.107   2.100   5.898 -0.8968  0.1213 -0.8560
   55MOL0     C 7301  11.117   1.947   5.866  0.0121 -0.3297  0.4845
   55MOL0     C 7302  11.257   1.892   5.855 -0.3398  0.7917  0.7570
   55MOL0     C 7303  11.274   1.737   5.856  0.1143 -0.4430 -0.6275
   55MOL0     C 7304  11.320   1.695   6.001  0.5222  0.5983 -0.0323
   55MOL0     C 7305  11.233   1.729   6.123 -0.6794  0.4513 -0.1780
   55MOL0     C 7306  11.124   1.629   6.159  0.1642  0.4840  0.4258
   55MOL0     N 7307  11.071   1.649   6.300 -0.6453  0.3361 -0.3566
   55MOL0     C 7308  11.151   1.694   6.405  0.3388  0.7836  0.3709
   55MOL0     C 7309  11.061   1.689   6.507 -0.0090 -0.6563 -0.5384
   55MOL0     C 7310  11.105   1.736   6.644 -0.3305 -0.6913 -0.5163
   55MOL0     C 7311  11.107   1.894   6.657  0.3359  0.1313  0.6421
   55MOL0     C 7312  11.153   1.963   6.783 -0.8074  0.1980 -0.6617
   55MOL0     C 7313  11.302   1.929   6.807 -0.0013 -0.1028 -0.8559
   55MOL0     O 7314  11.357   2.009   6.913 -0.3075 -0.2538 -0.3991
   55MOL0     C 7315  11.346   1.960   7.041  0.8709  0.1571 -0.4523
   55MOL0     C 7316  11.263   1.853   7.087  0.1461 -0.0798  0.6047
   55MOL0     C 7317  11.281   1.814   7.218  0.1889  0.0071  0.4508
   55MOL0     C 7318  11.184   1.702   7.258  1.0427  0.2191  0.5453
   55MOL0     C 7319  11.370   1.882   7.307  0.7274 -0.6278 -0.6241
   55MOL0     C 7320  11.377   1.854   7.456 -0.5282 -0.1833  0.6799
   55MOL0     O 7321  11.363   1.725   7.488 -0.6930 -0.0555  0.1753
   55MOL0     C 7322  11.334   1.692   7.612 -0.3961 -0.6499 -0.6842
   55MOL0     C 7323  11.243   1.761   7.694  0.0422  0.6601 -0.6488
   55MOL0     C 7324  11.203   1.709   7.815 -0.0982  0.3942  0.2334
   55MOL0     C 7325  11.242   1.579   7.860 -0.0487 -0.7383 -0.7966
   55MOL0     O 7326  11.186   1.528   7.976  0.5103  0.3063  0.2506
   55MOL0     C 7327  11.044   1.514   7.965  0.8292 -0.5909  0.4469
   55MOL0     C 7328  10.999   1.424   7.848  0.1493  0.0177  0.3154
   55MOL0     C 7329  10.854   1.375   7.851 -0.8241  0.1331 -0.8385
   55MOL0     C 7330  10.845   1.244   7.775  0.1199  0.9948  0.4067
   55MOL0     C 7331  10.691   1.215   7.736 -0.7671  0.8007 -0.1324
   55MOL0     C 7332  10.655   1.063   7.730  0.1299 -0.5799 -0.5267
   55MOL0     C 7333  10.756   0.992   7.634 -0.0254 -0.1933  0.4704
   55MOL0     C 7334  10.725   0.998   7.487 -0.4283 -1.1953 -0.1487
   55MOL0    Cl 7335  10.877   0.951   7.395  0.1664 -0.6140  0.6393
   55MOL0     C 7336  11.334   1.515   7.785 -1.0899 -0.0450  0.7379
   55MOL0     C 7337  11.376   1.566   7.651  0.2641  0.6762  0.6222
   55MOL0     O 7338  11.414   1.942   7.530  0.8673 -1.0177  0.5692
   55MOL0     C 7339  11.440   1.989   7.261  0.7123 -0.3192 -0.6276
   55MOL0     C 7340  11.427   2.021   7.130  0.1009  0.0809  0.0694
   55MOL0     N 7341  10.948   1.635   6.468 -1.1990  0.4391 -0.3020
   55MOL0     N 7342  10.948   1.623   6.341 -0.3734  0.4763 -0.7400
   55MOL0     C 7343  11.299   2.118   6.293  1.2182  0.2147 -0.2570
   55MOL0     C 7344  11.361   2.180   6.408  0.6094 -0.6804 -0.2552
   55MOL0     C 7345  11.388   2.460   6.760 -0.1822  0.7752 -0.4570
   55MOL0     C 7346  11.461   2.583   6.779  0.1027  0.0720  0.3854
   55MOL0     C 7347  11.490   2.633   6.910  1.1965  1.0003  0.0332
   55MOL0     C 7348  11.459   2.557   7.017  0.7293  0.8387 -0.7647
   55MOL0     O 7349  11.502   2.600   7.145  0.1664 -0.4456  1.3304
   55MOL0     C 7350  11.514   2.518   7.256  0.2272  0.2016  0.0807
   55MOL0     C 7351  11.620   2.561   7.353 -0.3645  0.1584  0.4855
   55MOL0     C 7352  11.622   2.705   7.402  0.2274  0.2958  0.4085
   55MOL0     C 7353  11.728   2.734   7.506 -0.0515 -0.3593 -0.3211
   55MOL0     C 7354  11.664   2.714   7.637 -0.4344 -0.5720  0.4472
   55MOL0     C 7355  11.608   2.705   7.738 -0.4691  0.4128 -1.0324
   55MOL0     C 7356  11.377   2.435   6.994 -0.8709  0.9454 -0.0640
   55MOL0     C 7357  11.345   2.379   6.873 -0.1134 -0.8374  0.5842
   55MOL0     H 7358  11.057   2.284   6.553 -1.6234 -0.0440 -0.5837
   55MOL0     H 7359  10.974   2.209   6.324  0.3219 -0.2384 -0.1406
   55MOL0     H 7360  11.147   2.258   6.032  2.8135  1.2689 -4.6800
   55MOL0     H 7361  11.280   2.144   6.019 -0.0744 -1.0259 -3.5190
   55MOL0     H 7362  11.002   2.129   5.889 -0.6808  0.6719 -1.7354
   55MOL0     H 7363  11.154   2.150   5.813 -0.1159  2.5668  0.8878
   55MOL0     H 7364  11.072   1.897   5.953 -1.7460 -2.1533 -1.3741
   55MOL0     H 7365  11.070   1.926   5.770  2.3406 -0.2551 -0.7444
   55MOL0     H 7366  11.298   1.927   5.761  2.1637 -0.7293  1.1952
   55MOL0     H 7367  11.312   1.942   5.935 -0.3651  2.0045  0.0404
   55MOL0     H 7368  11.189   1.689   5.807 -0.6735  1.1434 -0.8757
   55MOL0     H 7369  11.363   1.706   5.801 -1.6041-10.4814  0.3298
   55MOL0     H 7370  11.330   1.587   5.982 -1.3912  0.4394 -0.3432
   55MOL0     H 7371  11.408   1.750   6.034 -0.3014  0.2716  2.9956
   55MOL0     H 7372  11.308   1.734   6.203  0.5341  0.7916 -1.3039
   55MOL0     H 7373  11.191   1.829   6.111  0.0252  0.7289 -0.4207
   55MOL0     H 7374  11.163   1.527   6.161  0.4231  0.5885  1.0509
   55MOL0     H 7375  11.047   1.635   6.082 -0.2219  0.7620  0.8240
   55MOL0     H 7376  11.253   1.731   6.407  0.7120 -0.2244  0.3524
   55MOL0     H 7377  11.052   1.688   6.726  3.5546  0.7851  3.2339
   55MOL0     H 7378  11.213   1.716   6.646 -0.7777 -3.5372 -0.5078
   55MOL0     H 7379  11.002   1.915   6.634  0.9864 -0.2643 -3.4161
   55MOL0     H 7380  11.167   1.932   6.574 -0.0052 -1.6148 -0.4372
   55MOL0     H 7381  11.094   1.943   6.873  2.7154 -0.0992  1.7899
   55MOL0     H 7382  11.140   2.072   6.778 -2.4688  0.1960  1.8509
   55MOL0     H 7383  11.361   1.946   6.717 -0.3503  2.1359 -0.7179
   55MOL0     H 7384  11.323   1.825   6.831  0.3452 -0.0379 -0.8754
   55MOL0     H 7385  11.202   1.794   7.019  0.5065 -0.6445  0.7567
   55MOL0     H 7386  11.141   1.717   7.357 -0.0043  1.0153 -0.0158
   55MOL0     H 7387  11.107   1.689   7.181 -2.3488  5.0313  2.6769
   55MOL0     H 7388  11.243   1.609   7.266  1.4903  0.5009  0.5674
   55MOL0     H 7389  11.191   1.852   7.667 -1.5619  0.2323  0.8270
   55MOL0     H 7390  11.145   1.784   7.869  1.7302  4.4563 -2.9240
   55MOL0     H 7391  10.991   1.482   8.055 -2.8184  0.3543 -1.1736
   55MOL0     H 7392  10.992   1.609   7.951  0.7098 -0.7120  0.0375
   55MOL0     H 7393  11.015   1.470   7.750 -0.5568 -0.0087  0.1820
   55MOL0     H 7394  11.066   1.339   7.854 -2.2956 -1.9638  1.3527
   55MOL0     H 7395  10.779   1.443   7.809 -2.0381 -1.0622 -0.6600
   55MOL0     H 7396  10.826   1.363   7.956  2.7195 -0.6345  0.1514
   55MOL0     H 7397  10.908   1.234   7.686 -0.2920 -4.2474  0.3757
   55MOL0     H 7398  10.881   1.161   7.836 -1.3194  0.2008  0.2191
   55MOL0     H 7399  10.688   1.254   7.633 -0.0488 -6.9768 -3.8133
   55MOL0     H 7400  10.627   1.249   7.818  2.0735 -0.0450  2.5972
   55MOL0     H 7401  10.663   1.031   7.834 -1.4556  0.5691 -0.0122
   55MOL0     H 7402  10.551   1.045   7.700  0.9659 -0.1921 -4.1580
   55MOL0     H 7403  10.752   0.882   7.639 -1.7435 -0.2600 -1.0859
   55MOL0     H 7404  10.859   1.014   7.659  0.2508  1.1701 -1.6174
   55MOL0     H 7405  10.710   1.105   7.467 -2.2461 -1.3809  0.0706
   55MOL0     H 7406  10.637   0.938   7.463  1.4098 -3.8969 -0.5601
   55MOL0     H 7407  11.372   1.424   7.830 -1.4791 -1.2310 -1.2001
   55MOL0     H 7408  11.445   1.512   7.587 -2.0494  1.0350 -2.3439
   55MOL0     H 7409  11.520   2.033   7.320 -0.4899 -1.3016  1.9269
   55MOL0     H 7410  11.494   2.097   7.089  0.3544  0.6217  1.4387
   55MOL0     H 7411  11.366   2.058   6.232  3.0521  0.3775  1.4986
   55MOL0     H 7412  11.467   2.183   6.429  1.2900 -0.7357 -3.2791
   55MOL0     H 7413  11.482   2.648   6.695 -0.7087  1.1913  1.0242
   55MOL0     H 7414  11.563   2.711   6.926  4.2079 -1.7801  0.8884
   55MOL0     H 7415  11.410   2.517   7.289  0.0833  0.7563 -0.3538
   55MOL0     H 7416  11.530   2.415   7.224 -4.9003 -0.6001 -0.8131
   55MOL0     H 7417  11.711   2.530   7.301  0.0985  2.5743 -0.2416
   55MOL0     H 7418  11.613   2.488   7.435 -0.9266  1.0104  1.2230
   55MOL0     H 7419  11.524   2.740   7.433  0.6583 -0.4610  2.8670
   55MOL0     H 7420  11.645   2.770   7.317 -1.5238  2.9255  1.8020
   55MOL0     H 7421  11.763   2.838   7.503  1.1611 -0.7580 -1.5940
   55MOL0     H 7422  11.821   2.680   7.484  1.1058  0.5000  2.0909
   55MOL0     H 7423  11.567   2.698   7.837 -1.4988 -0.2388 -1.4937
   55MOL0     H 7424  11.345   2.374   7.078 -1.3487 -0.5165 -1.2601
   55MOL0     H 7425  11.295   2.283   6.861  0.7943 -1.3856  1.0170
   56MOL0     O 7426   4.885   5.559  11.238 -0.3662  0.6395  0.5856
   56MOL0     C 7427   4.818   5.456  11.216 -0.5154  0.4324  0.0520
   56MOL0     O 7428   4.865   5.334  11.191 -0.9907 -0.0540 -0.1439
   56MOL0     C 7429   4.999   5.326  11.164 -0.1035  0.9550  0.0267
   56MOL0     C 7430   5.038   5.264  11.041  0.6709 -0.2294  0.1346
   56MOL0     C 7431   5.178   5.248  11.010  0.1137 -0.8517 -0.6469
   56MOL0     C 7432   5.277   5.285  11.108 -0.1270 -0.9421  0.1182
   56MOL0     O 7433   5.415   5.281  11.092 -0.5304 -0.2423 -0.5267
   56MOL0     C 7434   5.457   5.189  10.982  0.0736 -0.6925 -0.1634
   56MOL0     C 7435   5.609   5.167  11.004  0.0664  0.2916  0.5279
   56MOL0     C 7436   5.703   5.285  10.979  0.7270  0.5240  0.5378
   56MOL0     C 7437   5.707   5.393  11.088 -0.3236  0.3150  1.5242
   56MOL0     C 7438   5.817   5.497  11.070  0.3212 -0.6929  0.8389
   56MOL0     C 7439   5.776   5.634  11.129  0.4081 -0.1805  0.0012
   56MOL0     C 7440   5.892   5.738  11.152  0.4925  0.5956 -0.2804
   56MOL0     C 7441   5.853   5.838  11.263  0.2741  0.3989 -0.8281
   56MOL0     N 7442   5.973   5.898  11.325 -0.3587 -0.3024  0.1555
   56MOL0     C 7443   6.019   6.025  11.295 -0.5834  0.2576  0.4094
   56MOL0     C 7444   6.139   6.036  11.356  0.7500 -0.7137  0.9496
   56MOL0     C 7445   6.236   6.145  11.315  0.2505 -0.0067 -0.0240
   56MOL0     C 7446   6.380   6.080  11.309  1.3668 -0.7154  0.1330
   56MOL0     C 7447   6.483   6.184  11.274 -0.1958  1.0407 -0.8490
   56MOL0     C 7448   6.618   6.118  11.313  0.0940 -0.3597 -0.0561
   56MOL0     O 7449   6.653   6.108  11.450  0.0527  0.0822  0.1670
   56MOL0     C 7450   6.670   6.217  11.533  0.5025  0.2988 -0.6277
   56MOL0     C 7451   6.691   6.187  11.667 -1.1270 -0.4052  1.1020
   56MOL0     C 7452   6.747   6.295  11.748  0.2814  0.1449  0.1934
   56MOL0     C 7453   6.767   6.273  11.897 -0.3206  0.2582  0.3141
   56MOL0     C 7454   6.774   6.429  11.694  0.6278  0.3895  0.3784
   56MOL0     C 7455   6.825   6.546  11.769 -0.1873  0.4160 -0.1401
   56MOL0     O 7456   6.801   6.662  11.703  0.2949  0.0581  0.0589
   56MOL0     C 7457   6.842   6.779  11.764  0.8682  0.7183  0.3045
   56MOL0     C 7458   6.764   6.840  11.861 -0.4005  0.8145 -0.4439
   56MOL0     C 7459   6.813   6.970  11.912  0.3288  0.6607  1.5726
   56MOL0     C 7460   6.927   7.028  11.859 -0.9316 -0.4267 -0.2643
   56MOL0     O 7461   6.973   7.141  11.922 -0.3614  0.3207 -0.1616
   56MOL0     C 7462   7.121   7.145  11.947 -0.1010  1.4957  0.0126
   56MOL0     C 7463   7.152   7.262  12.046  0.5105 -0.0253  0.6511
   56MOL0     C 7464   7.123   7.392  11.966 -0.7301 -0.9455  0.6958
   56MOL0     C 7465   7.174   7.512  12.045 -0.2777 -0.2803  0.0153
   56MOL0     C 7466   7.100   7.647  12.012 -0.9449  0.5552 -0.4294
   56MOL0     C 7467   7.139   7.762  12.103 -0.2954 -1.1130 -0.4799
   56MOL0     C 7468   7.030   7.877  12.090 -0.7491 -1.0283 -0.5542
   56MOL0     C 7469   7.039   7.998  12.178  0.4792 -0.6036 -0.0759
   56MOL0    Cl 7470   7.188   8.094  12.154 -0.3968 -0.1930 -0.2327
   56MOL0     C 7471   6.997   6.969  11.757 -0.2676  0.1952  0.6098
   56MOL0     C 7472   6.944   6.851  11.701  0.2788  0.4658  1.2214
   56MOL0     O 7473   6.879   6.540  11.881 -0.0570 -0.0713  0.3815
   56MOL0     C 7474   6.734   6.450  11.559 -0.5716  0.4068 -0.5195
   56MOL0     C 7475   6.690   6.345  11.482 -0.0104  0.1708 -0.1301
   56MOL0     N 7476   6.152   5.940  11.450 -0.9581  0.1482 -0.1002
   56MOL0     N 7477   6.055   5.853  11.427 -0.2275 -0.1835  0.3113
   56MOL0     C 7478   5.228   5.347  11.224 -0.0766 -0.6632  0.2604
   56MOL0     C 7479   5.102   5.357  11.256 -0.0572  1.0835  0.1710
   56MOL0     C 7480   4.677   5.474  11.233 -0.4524  0.2627 -0.3180
   56MOL0     C 7481   4.599   5.362  11.210 -0.6227  0.8900 -0.9803
   56MOL0     C 7482   4.475   5.361  11.251 -0.7247  0.1252  0.1427
   56MOL0     C 7483   4.424   5.467  11.326  0.7023  0.3773 -1.2707
   56MOL0     O 7484   4.296   5.449  11.381 -0.3510 -0.7178 -0.7706
   56MOL0     C 7485   4.299   5.451  11.524  1.0709  0.1125  0.4228
   56MOL0     C 7486   4.152   5.440  11.582 -0.0472  0.6587  0.5559
   56MOL0     C 7487   4.036   5.533  11.540 -0.2518  0.1648 -0.4641
   56MOL0     C 7488   4.079   5.681  11.563 -0.6083  0.2459 -0.1629
   56MOL0     C 7489   3.962   5.772  11.552 -0.3596  0.5174 -0.2796
   56MOL0     C 7490   3.861   5.838  11.556 -0.2528  1.1000  0.8503
   56MOL0     C 7491   4.497   5.584  11.343  1.2557 -0.0839  0.4501
   56MOL0     C 7492   4.625   5.584  11.296 -0.5969  0.3261  0.7380
   56MOL0     H 7493   4.977   5.242  10.954  0.6002  2.5295 -0.5969
   56MOL0     H 7494   5.209   5.214  10.912  3.7517  2.3425 -0.8429
   56MOL0     H 7495   5.399   5.097  10.993 -2.1820  0.8208  1.7091
   56MOL0     H 7496   5.453   5.226  10.879  4.2150 -0.7134 -0.4854
   56MOL0     H 7497   5.638   5.133  11.104  0.4996  2.4453  1.1912
   56MOL0     H 7498   5.622   5.082  10.938 -2.1183  1.6718 -1.8704
   56MOL0     H 7499   5.801   5.241  10.959 -0.9773 -2.4770 -2.1319
   56MOL0     H 7500   5.673   5.327  10.883  1.4597  0.4987  0.2896
   56MOL0     H 7501   5.615   5.452  11.082  0.6912  1.8747  0.5830
   56MOL0     H 7502   5.705   5.351  11.189  2.8651 -1.0269  1.1691
   56MOL0     H 7503   5.901   5.460  11.129 -0.9202  0.3378  3.4306
   56MOL0     H 7504   5.853   5.493  10.967  0.4409  0.2831  0.8307
   56MOL0     H 7505   5.703   5.674  11.058 -1.6365 -2.4576  0.6734
   56MOL0     H 7506   5.725   5.615  11.224 -2.6328  0.5632 -1.3530
   56MOL0     H 7507   5.971   5.679  11.199  0.4288  0.3713 -0.4526
   56MOL0     H 7508   5.934   5.787  11.064  1.6960 -0.2631 -0.2049
   56MOL0     H 7509   5.799   5.801  11.350  2.0807  3.8067  1.9969
   56MOL0     H 7510   5.778   5.904  11.218 -1.4639  0.5347  2.0127
   56MOL0     H 7511   5.990   6.078  11.204 -0.4087 -1.5210 -0.7242
   56MOL0     H 7512   6.219   6.186  11.216  0.3153 -0.7678 -0.3572
   56MOL0     H 7513   6.228   6.228  11.386 -2.2255 -0.4927  0.3796
   56MOL0     H 7514   6.386   6.014  11.223 -0.6644 -0.0427 -0.6046
   56MOL0     H 7515   6.406   6.028  11.402  1.3856  0.7689  0.9988
   56MOL0     H 7516   6.470   6.283  11.319  0.2425 -0.4847  3.0615
   56MOL0     H 7517   6.467   6.200  11.167 -4.6147  1.0709 -0.3760
   56MOL0     H 7518   6.681   6.195  11.267  0.5261 -0.5864  0.1523
   56MOL0     H 7519   6.631   6.020  11.267 -0.5801 -0.4885  0.0166
   56MOL0     H 7520   6.671   6.086  11.699  2.6692 -2.6445 -2.5618
   56MOL0     H 7521   6.723   6.366  11.933  1.9114  0.5081  2.6966
   56MOL0     H 7522   6.731   6.177  11.936  0.0366 -0.1212 -0.2724
   56MOL0     H 7523   6.870   6.282  11.931 -1.0930  0.5955  2.6944
   56MOL0     H 7524   6.675   6.797  11.905  0.6809 -1.6200 -0.4659
   56MOL0     H 7525   6.745   7.020  11.981 -0.9522  2.5765 -0.9198
   56MOL0     H 7526   7.148   7.054  12.002 -0.5473 -0.1718 -2.3829
   56MOL0     H 7527   7.185   7.148  11.858 -2.8940  0.7356 -2.1588
   56MOL0     H 7528   7.072   7.262  12.121 -0.7783  0.0715 -0.6953
   56MOL0     H 7529   7.247   7.256  12.101 -0.5708 -0.5415  2.5546
   56MOL0     H 7530   7.017   7.402  11.942 -0.7296 -0.7099  0.7887
   56MOL0     H 7531   7.174   7.389  11.869 -0.0446  2.8847  0.7838
   56MOL0     H 7532   7.163   7.493  12.152  0.3288 -1.3205 -0.0896
   56MOL0     H 7533   7.280   7.513  12.016 -0.4750 -2.1812 -0.8914
   56MOL0     H 7534   6.994   7.624  11.996 -1.4215  2.3254  0.0178
   56MOL0     H 7535   7.122   7.682  11.911  0.5429 -1.1320 -0.7514
   56MOL0     H 7536   7.148   7.719  12.203  1.1672 -3.0168 -1.3614
   56MOL0     H 7537   7.239   7.790  12.069  0.0166 -0.6832  0.7404
   56MOL0     H 7538   6.939   7.822  12.115  0.3564 -1.6160  2.6589
   56MOL0     H 7539   7.019   7.901  11.983 -2.9292  2.0562  0.2241
   56MOL0     H 7540   7.027   7.960  12.280 -6.2862  1.4054  0.3579
   56MOL0     H 7541   6.943   8.049  12.165 -1.3099 -3.8227 -0.3045
   56MOL0     H 7542   7.093   6.985  11.708 -0.6098 -2.8184 -1.3558
   56MOL0     H 7543   7.005   6.811  11.620  2.9835  3.8252  1.3699
   56MOL0     H 7544   6.733   6.550  11.518  0.3750 -0.9476 -4.2261
   56MOL0     H 7545   6.669   6.369  11.378  0.4375 -0.6581 -0.4282
   56MOL0     H 7546   5.305   5.393  11.284 -0.8688  1.1362 -0.0481
   56MOL0     H 7547   5.064   5.389  11.352 -0.8685  1.6295 -0.3109
   56MOL0     H 7548   4.638   5.282  11.149  2.8570  1.5122  0.2089
   56MOL0     H 7549   4.419   5.268  11.244  0.3180 -0.6573  1.6489
   56MOL0     H 7550   4.358   5.369  11.566  2.6372 -0.4805 -2.6493
   56MOL0     H 7551   4.339   5.547  11.559  0.8909 -0.7362  3.1812
   56MOL0     H 7552   4.169   5.449  11.690 -1.3130  0.2657  0.7945
   56MOL0     H 7553   4.126   5.335  11.566 -1.6616  1.2900 -1.3814
   56MOL0     H 7554   3.950   5.518  11.607  2.3883 -0.5541  3.0541
   56MOL0     H 7555   4.009   5.531  11.434  0.4154  1.1041 -0.6566
   56MOL0     H 7556   4.150   5.709  11.485 -2.2351  1.4395 -1.2801
   56MOL0     H 7557   4.112   5.690  11.667 -1.2906 -1.5213  0.2500
   56MOL0     H 7558   3.762   5.880  11.559 -1.5917 -1.7840  0.2880
   56MOL0     H 7559   4.462   5.675  11.389 -1.3881 -0.6616 -0.2547
   56MOL0     H 7560   4.690   5.669  11.312 -0.3166  0.4674 -0.9059
   57MOL0     O 7561  10.795   4.845   1.976  0.5258 -0.2278  0.3205
   57MOL0     C 7562  10.772   4.832   2.095  0.6572  0.4923  0.3930
   57MOL0     O 7563  10.855   4.781   2.188 -0.0501  0.1517 -0.7519
   57MOL0     C 7564  10.980   4.743   2.163 -0.7914 -0.2462  0.2372
   57MOL0     C 7565  11.013   4.624   2.096  0.2709  0.4653  0.3261
   57MOL0     C 7566  11.138   4.579   2.090 -0.3733 -0.5568 -0.8900
   57MOL0     C 7567  11.246   4.671   2.127 -0.1608  0.3338 -0.8503
   57MOL0     O 7568  11.375   4.621   2.120  0.2173  0.0079 -0.7394
   57MOL0     C 7569  11.475   4.710   2.061  0.7246 -0.1486  1.3406
   57MOL0     C 7570  11.572   4.621   1.977 -0.1571 -0.3026  0.4243
   57MOL0     C 7571  11.688   4.704   1.920 -0.8748  0.7269 -0.1326
   57MOL0     C 7572  11.787   4.596   1.877  0.2423  0.3369  0.5100
   57MOL0     C 7573  11.926   4.661   1.847 -0.4324 -0.0905 -0.2500
   57MOL0     C 7574  11.938   4.729   1.705 -0.2633 -1.0211 -0.6824
   57MOL0     C 7575  12.038   4.853   1.702  0.1494 -0.0522  0.5080
   57MOL0     C 7576  11.995   4.975   1.781 -0.1749 -0.0396  0.3947
   57MOL0     N 7577  12.105   5.066   1.794 -0.2343 -1.4776 -0.8237
   57MOL0     C 7578  12.186   5.069   1.902  0.4533 -0.6327 -0.3695
   57MOL0     C 7579  12.276   5.168   1.867  0.2898  0.5218 -0.3540
   57MOL0     C 7580  12.381   5.212   1.967 -0.5776 -0.2189 -0.5471
   57MOL0     C 7581  12.320   5.326   2.050 -0.4577  0.1974 -0.1002
   57MOL0     C 7582  12.411   5.387   2.152 -0.3338  0.3931 -0.8150
   57MOL0     C 7583  12.451   5.308   2.276  0.7550  1.3970 -0.2304
   57MOL0     O 7584  12.369   5.193   2.297 -1.3642 -0.2458 -0.3834
   57MOL0     C 7585  12.341   5.151   2.424  0.6251 -0.0572 -0.1812
   57MOL0     C 7586  12.229   5.069   2.442 -0.7523 -0.1183  0.0308
   57MOL0     C 7587  12.187   5.025   2.569  0.3112  0.4620  0.1319
   57MOL0     C 7588  12.074   4.930   2.569  0.3654  0.2907 -0.3886
   57MOL0     C 7589  12.257   5.076   2.680  0.2781 -0.2907 -1.0921
   57MOL0     C 7590  12.232   5.047   2.824 -0.7195 -0.2564  0.2990
   57MOL0     O 7591  12.321   5.090   2.928  0.1901  0.1667  0.2633
   57MOL0     C 7592  12.284   5.061   3.058  0.3367  1.0443  0.0389
   57MOL0     C 7593  12.194   5.142   3.128  0.0098 -0.0267  0.1792
   57MOL0     C 7594  12.161   5.124   3.263  0.3823 -0.2203 -0.2192
   57MOL0     C 7595  12.216   5.010   3.323  0.1225 -0.1839 -0.3430
   57MOL0     O 7596  12.176   4.970   3.445 -0.5899 -0.3343 -0.3476
   57MOL0     C 7597  12.035   4.970   3.456 -0.4845  0.6472 -0.2985
   57MOL0     C 7598  11.985   4.902   3.582 -0.5395  0.8245 -0.2425
   57MOL0     C 7599  12.000   4.750   3.568  0.1207  0.0822  0.2622
   57MOL0     C 7600  11.934   4.674   3.462  0.6077 -0.4589  0.6035
   57MOL0     C 7601  11.878   4.526   3.485 -0.7141  0.1879  0.9874
   57MOL0     C 7602  11.999   4.421   3.514 -0.7386 -0.2597 -0.2251
   57MOL0     C 7603  11.955   4.279   3.558 -0.2265  0.1491  1.3592
   57MOL0     C 7604  12.076   4.194   3.609 -0.5703  0.0075  1.1400
   57MOL0    Cl 7605  12.117   4.251   3.781 -0.7851  0.0650  0.2713
   57MOL0     C 7606  12.307   4.930   3.255 -0.7523 -0.3386  0.6664
   57MOL0     C 7607  12.337   4.955   3.123 -0.1311  0.8016  0.8439
   57MOL0     O 7608  12.137   4.972   2.845 -0.0508  0.0498 -0.5273
   57MOL0     C 7609  12.366   5.157   2.658  0.0840  0.0211 -0.2996
   57MOL0     C 7610  12.416   5.190   2.533 -0.0839  0.4920  1.0205
   57MOL0     N 7611  12.243   5.211   1.745  0.3091 -0.2862 -0.0852
   57MOL0     N 7612  12.145   5.162   1.702 -0.0265  0.4688  0.1220
   57MOL0     C 7613  11.216   4.794   2.191 -0.4028 -0.6152 -0.1150
   57MOL0     C 7614  11.082   4.830   2.204 -0.1446 -0.7679  0.3127
   57MOL0     C 7615  10.633   4.872   2.143  0.1507 -0.1106  0.6270
   57MOL0     C 7616  10.563   4.963   2.065 -0.2726  0.3790  0.3896
   57MOL0     C 7617  10.441   5.024   2.108 -0.4650 -0.5076 -1.3164
   57MOL0     C 7618  10.385   4.983   2.231 -0.2803  0.6994 -0.2896
   57MOL0     O 7619  10.263   5.018   2.287  0.6264 -0.6268 -0.7388
   57MOL0     C 7620  10.176   5.095   2.214 -0.3655  0.6875 -0.2738
   57MOL0     C 7621  10.225   5.241   2.215 -0.4317 -0.1268 -0.6510
   57MOL0     C 7622  10.148   5.303   2.331 -0.6340 -0.7875 -1.0280
   57MOL0     C 7623  10.193   5.450   2.374  0.8650 -0.8978  0.7476
   57MOL0     C 7624  10.157   5.540   2.263 -0.5395 -0.3881  0.1678
   57MOL0     C 7625  10.134   5.601   2.159  0.1084  0.5513  0.2832
   57MOL0     C 7626  10.457   4.888   2.308  0.4774  0.0230  0.1197
   57MOL0     C 7627  10.575   4.826   2.263  0.0369 -0.4129 -0.5122
   57MOL0     H 7628  10.931   4.556   2.075  0.5540  0.0607  0.4965
   57MOL0     H 7629  11.158   4.485   2.039 -1.4872 -2.1794  1.4524
   57MOL0     H 7630  11.424   4.782   1.997  0.2861 -0.4339  1.3675
   57MOL0     H 7631  11.536   4.766   2.132  2.0895 -1.1586  1.0089
   57MOL0     H 7632  11.628   4.554   2.043  3.0627  1.1572 -0.6600
   57MOL0     H 7633  11.527   4.557   1.901  0.1622 -1.0116  0.8201
   57MOL0     H 7634  11.666   4.761   1.829  2.8564 -1.6666 -2.8214
   57MOL0     H 7635  11.746   4.753   1.999  1.3890  2.5225 -2.6939
   57MOL0     H 7636  11.817   4.516   1.946 -3.3895  0.2214  2.2072
   57MOL0     H 7637  11.741   4.553   1.788 -1.8048  1.0149  1.1784
   57MOL0     H 7638  11.964   4.722   1.929  1.1157 -0.9674 -0.2735
   57MOL0     H 7639  12.010   4.591   1.839  1.9279  2.7034 -3.6887
   57MOL0     H 7640  11.964   4.660   1.624 -2.5467 -3.8292  0.7902
   57MOL0     H 7641  11.838   4.769   1.682 -0.6459  0.4875  2.9599
   57MOL0     H 7642  12.141   4.820   1.719  2.1761  5.3449  0.6719
   57MOL0     H 7643  12.038   4.895   1.601  0.4988  0.7105  0.8184
   57MOL0     H 7644  11.966   4.937   1.879 -0.5967 -2.8013 -0.7375
   57MOL0     H 7645  11.906   5.021   1.737 -0.5566 -0.1982  0.9867
   57MOL0     H 7646  12.188   5.018   1.998  2.0141  0.2846  0.1266
   57MOL0     H 7647  12.400   5.131   2.038 -1.5321  0.2411  0.2545
   57MOL0     H 7648  12.471   5.247   1.916 -0.4619  0.5909  0.1998
   57MOL0     H 7649  12.230   5.289   2.100  0.8970 -2.0790  0.7977
   57MOL0     H 7650  12.282   5.400   1.979 -2.2155 -0.3500  0.2132
   57MOL0     H 7651  12.356   5.478   2.178 -2.0381 -0.9501  0.5496
   57MOL0     H 7652  12.503   5.417   2.102  0.0259  0.3615 -0.1837
   57MOL0     H 7653  12.465   5.382   2.356  0.5233  1.3299 -0.1275
   57MOL0     H 7654  12.555   5.273   2.268 -0.3413 -2.1659 -0.5926
   57MOL0     H 7655  12.167   5.033   2.361 -0.8904 -1.2539  0.6257
   57MOL0     H 7656  11.999   4.979   2.631  0.4049  1.9744 -1.5912
   57MOL0     H 7657  12.027   4.933   2.471  0.7792  1.6552 -0.5645
   57MOL0     H 7658  12.093   4.829   2.607  0.3786  0.4512  0.0396
   57MOL0     H 7659  12.151   5.235   3.091  0.4972 -0.2258 -0.8932
   57MOL0     H 7660  12.087   5.184   3.315  0.9213  2.3353 -2.2080
   57MOL0     H 7661  12.022   5.077   3.478  1.3808  0.8516 -0.0171
   57MOL0     H 7662  11.976   4.942   3.368 -2.6526  1.9947  0.6427
   57MOL0     H 7663  12.040   4.938   3.669 -1.3554  3.5714 -0.7893
   57MOL0     H 7664  11.887   4.949   3.597 -0.7250  0.8565 -1.4951
   57MOL0     H 7665  11.958   4.728   3.666  1.9186  1.8751  1.5124
   57MOL0     H 7666  12.105   4.720   3.557 -0.7528 -3.7069  0.8814
   57MOL0     H 7667  11.849   4.737   3.433 -0.4125 -1.1594  1.9530
   57MOL0     H 7668  12.007   4.670   3.380  1.2612 -0.1760  1.1719
   57MOL0     H 7669  11.822   4.492   3.398  1.2945  1.2500 -0.8069
   57MOL0     H 7670  11.809   4.538   3.569 -1.6396  0.9631  0.1468
   57MOL0     H 7671  12.055   4.419   3.420  1.7659 -1.2404  1.1814
   57MOL0     H 7672  12.068   4.446   3.596 -1.1653  0.7410 -0.1621
   57MOL0     H 7673  11.924   4.226   3.467  1.5268  0.6212  0.4378
   57MOL0     H 7674  11.874   4.279   3.631 -2.2845  2.3141 -0.7648
   57MOL0     H 7675  12.166   4.209   3.549  0.7574 -3.2753  2.0947
   57MOL0     H 7676  12.055   4.087   3.603 -1.5894  0.2263 -4.0756
   57MOL0     H 7677  12.349   4.835   3.289  0.4324 -1.3752 -3.1508
   57MOL0     H 7678  12.395   4.898   3.052 -0.3071  1.7268 -0.0634
   57MOL0     H 7679  12.420   5.195   2.744  0.6604  0.0633 -0.6723
   57MOL0     H 7680  12.500   5.258   2.521  3.2365 -3.3987  0.0924
   57MOL0     H 7681  11.296   4.859   2.223 -3.5921  3.1797  0.8753
   57MOL0     H 7682  11.042   4.921   2.249 -0.7937 -0.0093 -1.6892
   57MOL0     H 7683  10.589   4.983   1.962 -0.3287 -1.9192 -0.1246
   57MOL0     H 7684  10.389   5.102   2.053 -1.6450  0.0498  0.5269
   57MOL0     H 7685  10.165   5.062   2.110 -1.5706 -0.7712  0.2641
   57MOL0     H 7686  10.072   5.096   2.249 -0.8867  3.5968 -1.6584
   57MOL0     H 7687  10.218   5.297   2.121  0.7443  2.0810  0.4959
   57MOL0     H 7688  10.330   5.253   2.240 -0.9443  0.2306  1.5584
   57MOL0     H 7689  10.161   5.242   2.421  1.6785  1.6743  0.4908
   57MOL0     H 7690  10.042   5.304   2.303 -1.2071 -2.7106  0.7474
   57MOL0     H 7691  10.301   5.454   2.396  1.3201  1.4780 -1.3894
   57MOL0     H 7692  10.145   5.474   2.469 -3.0490 -0.7459 -1.0660
   57MOL0     H 7693  10.130   5.643   2.060 -1.3738 -1.3084 -0.5062
   57MOL0     H 7694  10.421   4.862   2.407 -1.8422  2.4456  0.0225
   57MOL0     H 7695  10.613   4.738   2.315  1.4911  2.5071  3.8767
   58MOL0     O 7696   1.209   2.336   9.230  0.6116  0.7739 -1.0979
   58MOL0     C 7697   1.191   2.226   9.179 -0.5815 -0.4767 -0.2837
   58MOL0     O 7698   1.112   2.128   9.215 -0.1892  0.4384 -1.0077
   58MOL0     C 7699   1.010   2.144   9.299  0.4611 -0.3994 -0.4368
   58MOL0     C 7700   0.974   2.035   9.373 -0.2648 -0.1560 -0.5159
   58MOL0     C 7701   0.870   2.045   9.463 -0.8266 -0.2534  0.6969
   58MOL0     C 7702   0.777   2.149   9.456  0.0306  0.2285  0.7504
   58MOL0     O 7703   0.654   2.139   9.509  0.2423 -0.2230  0.5947
   58MOL0     C 7704   0.533   2.132   9.428  0.3623 -0.7758 -0.3792
   58MOL0     C 7705   0.446   2.050   9.520  0.6252 -0.1655  0.0370
   58MOL0     C 7706   0.337   1.979   9.442 -0.1456  0.6420 -0.5266
   58MOL0     C 7707   0.267   1.874   9.522  0.1623  0.3941  0.4738
   58MOL0     C 7708   0.156   1.800   9.442 -0.1269  0.6392 -0.3478
   58MOL0     C 7709   0.115   1.666   9.509  0.2256  0.7779  1.0006
   58MOL0     C 7710   0.042   1.683   9.649 -0.3733 -0.6066  0.9985
   58MOL0     C 7711  -0.064   1.575   9.676 -0.2466 -0.3353 -0.1522
   58MOL0     N 7712  -0.192   1.595   9.604 -1.1009  1.0781 -0.3701
   58MOL0     C 7713  -0.208   1.560   9.475  0.2429  0.4264  0.2386
   58MOL0     C 7714  -0.334   1.599   9.450 -0.0722 -0.8245 -1.1526
   58MOL0     C 7715  -0.401   1.574   9.320  0.4625  0.6430  0.3066
   58MOL0     C 7716  -0.466   1.439   9.297 -0.5130 -0.5294  0.8193
   58MOL0     C 7717  -0.605   1.421   9.360 -0.6233 -0.3179 -0.0209
   58MOL0     C 7718  -0.682   1.307   9.295  0.5382  0.2263 -0.5441
   58MOL0     O 7719  -0.629   1.183   9.348 -0.6777  0.2389  0.1007
   58MOL0     C 7720  -0.647   1.065   9.279 -1.5208 -0.4749 -0.6176
   58MOL0     C 7721  -0.734   1.044   9.171  0.6076  0.3339 -0.4273
   58MOL0     C 7722  -0.723   0.933   9.096  0.3261 -0.8970 -0.6998
   58MOL0     C 7723  -0.803   0.933   8.980 -0.6732  0.2614  0.1420
   58MOL0     C 7724  -0.649   0.813   9.138  1.6105  0.1987 -0.6601
   58MOL0     C 7725  -0.610   0.695   9.045 -0.6764 -0.1743 -0.8890
   58MOL0     O 7726  -0.660   0.698   8.924  1.0632  0.8335 -0.1409
   58MOL0     C 7727  -0.641   0.583   8.852  0.1161  0.0481  0.6974
   58MOL0     C 7728  -0.728   0.476   8.847 -0.1092  0.6789  0.1109
   58MOL0     C 7729  -0.698   0.357   8.770  0.0857 -0.1047  1.1527
   58MOL0     C 7730  -0.599   0.365   8.668 -0.7356  1.5136 -0.2481
   58MOL0     O 7731  -0.574   0.261   8.580 -1.2588  0.4323  0.4111
   58MOL0     C 7732  -0.600   0.123   8.607 -0.0755  0.0371  0.2622
   58MOL0     C 7733  -0.545   0.046   8.487  0.8160  0.8323 -0.6615
   58MOL0     C 7734  -0.534  -0.105   8.542 -0.4423 -0.1707  0.2447
   58MOL0     C 7735  -0.509  -0.181   8.410  0.2775  1.6848 -0.0531
   58MOL0     C 7736  -0.369  -0.159   8.333 -0.2202 -0.4232  0.4019
   58MOL0     C 7737  -0.396  -0.139   8.181 -0.7736 -0.8288 -0.8726
   58MOL0     C 7738  -0.429  -0.271   8.109  0.0432  0.4578  0.4747
   58MOL0     C 7739  -0.427  -0.256   7.959 -0.1624 -0.7990  0.3051
   58MOL0    Cl 7740  -0.257  -0.248   7.904 -0.2072 -0.6622 -0.1338
   58MOL0     C 7741  -0.524   0.480   8.662 -0.3991 -1.6854  0.4786
   58MOL0     C 7742  -0.538   0.583   8.758  0.6897 -0.7378 -0.4595
   58MOL0     O 7743  -0.526   0.614   9.087 -0.0447 -0.3228 -0.2568
   58MOL0     C 7744  -0.574   0.838   9.251 -0.7418  0.1283  0.1758
   58MOL0     C 7745  -0.563   0.956   9.316 -0.1457 -0.1266 -0.1565
   58MOL0     N 7746  -0.382   1.684   9.548 -1.1297  0.3591  0.1232
   58MOL0     N 7747  -0.296   1.679   9.641  0.3680  0.8107 -0.2822
   58MOL0     C 7748   0.808   2.264   9.386 -0.2325 -0.7356 -0.2208
   58MOL0     C 7749   0.923   2.261   9.308  0.2661 -0.9960  0.5231
   58MOL0     C 7750   1.293   2.192   9.080  0.1927  0.0651  0.4397
   58MOL0     C 7751   1.418   2.259   9.084 -0.0281 -0.4615 -0.0591
   58MOL0     C 7752   1.523   2.220   8.991 -1.2797  0.0746  0.0743
   58MOL0     C 7753   1.509   2.111   8.902 -0.2702 -0.0282  0.8121
   58MOL0     O 7754   1.596   2.094   8.798 -0.2590  0.7312 -0.2007
   58MOL0     C 7755   1.710   2.181   8.776 -0.4518 -1.2111  0.2615
   58MOL0     C 7756   1.780   2.179   8.639  0.8197 -0.4408 -0.2389
   58MOL0     C 7757   1.683   2.194   8.518 -0.7473 -0.0664  0.7405
   58MOL0     C 7758   1.761   2.190   8.388 -0.3299  0.4219 -0.4698
   58MOL0     C 7759   1.836   2.320   8.382  0.0570  0.7337 -0.3279
   58MOL0     C 7760   1.909   2.412   8.357  0.8582  0.6591  0.8970
   58MOL0     C 7761   1.395   2.040   8.905 -0.3118 -0.0253 -0.1936
   58MOL0     C 7762   1.297   2.071   9.005  1.3757 -0.0736 -0.0168
   58MOL0     H 7763   1.022   1.937   9.371 -0.5266 -0.4441  2.3741
   58MOL0     H 7764   0.845   1.954   9.515 -1.1742 -0.2695  0.4990
   58MOL0     H 7765   0.498   2.234   9.413  0.4720 -0.9466 -1.9886
   58MOL0     H 7766   0.550   2.088   9.329 -1.1224 -2.2637 -0.0245
   58MOL0     H 7767   0.506   1.979   9.579 -0.1527 -1.2513 -0.4525
   58MOL0     H 7768   0.409   2.125   9.590  2.7677 -1.5044  2.7958
   58MOL0     H 7769   0.263   2.052   9.406 -0.2397  0.2817 -1.0834
   58MOL0     H 7770   0.360   1.920   9.353 -3.3651 -2.9424  0.7072
   58MOL0     H 7771   0.343   1.804   9.558  0.4138  0.4140 -0.0070
   58MOL0     H 7772   0.226   1.919   9.613 -0.7239  0.5870 -0.0053
   58MOL0     H 7773   0.074   1.870   9.427 -0.9604 -0.3592 -0.5487
   58MOL0     H 7774   0.200   1.776   9.345 -3.6055 -1.6029 -1.5490
   58MOL0     H 7775   0.070   1.604   9.431  3.2311  0.5306 -0.6965
   58MOL0     H 7776   0.210   1.621   9.537 -0.8089 -1.0766  1.6882
   58MOL0     H 7777   0.115   1.683   9.730 -0.1908 -1.7432  0.8511
   58MOL0     H 7778   0.007   1.787   9.646  3.4628  0.8525 -1.5422
   58MOL0     H 7779  -0.086   1.579   9.783 -3.4269 -3.6884 -0.4850
   58MOL0     H 7780  -0.029   1.474   9.652 -0.7899 -0.1171 -2.0317
   58MOL0     H 7781  -0.140   1.500   9.415  3.1208  3.2006  0.4917
   58MOL0     H 7782  -0.473   1.654   9.297 -1.7242 -1.8038 -2.1047
   58MOL0     H 7783  -0.320   1.579   9.247  0.8503 -0.2282  0.6684
   58MOL0     H 7784  -0.404   1.364   9.346 -1.1224 -1.3221  0.4030
   58MOL0     H 7785  -0.467   1.405   9.193  2.6958  0.3848  0.3767
   58MOL0     H 7786  -0.652   1.520   9.358  3.3627  1.7593 -0.0432
   58MOL0     H 7787  -0.593   1.385   9.463 -0.2412  0.5954  0.2599
   58MOL0     H 7788  -0.665   1.303   9.187  0.3106  0.6169 -0.5944
   58MOL0     H 7789  -0.790   1.301   9.313  0.7151 -0.6769  0.3445
   58MOL0     H 7790  -0.799   1.128   9.151 -1.9141 -1.6437 -1.1715
   58MOL0     H 7791  -0.865   1.022   8.965 -1.5692 -0.0463  1.8346
   58MOL0     H 7792  -0.733   0.931   8.896  0.1249  0.1010  0.7956
   58MOL0     H 7793  -0.868   0.846   8.971  3.5840 -3.3418  0.7135
   58MOL0     H 7794  -0.809   0.459   8.917 -1.2778 -1.3562 -1.6225
   58MOL0     H 7795  -0.754   0.265   8.783  0.3697 -0.5993 -0.8193
   58MOL0     H 7796  -0.548   0.086   8.696  3.2833 -3.4593 -2.7515
   58MOL0     H 7797  -0.707   0.109   8.623  0.3446 -2.2803  1.5697
   58MOL0     H 7798  -0.611   0.065   8.401  0.2395 -2.8284 -1.1890
   58MOL0     H 7799  -0.449   0.094   8.464  1.0144  0.3797 -0.7863
   58MOL0     H 7800  -0.624  -0.139   8.593 -1.8787  2.6771 -0.2259
   58MOL0     H 7801  -0.451  -0.118   8.612 -2.2400  0.6891  2.6479
   58MOL0     H 7802  -0.526  -0.288   8.422 -0.4841  1.2761 -3.6655
   58MOL0     H 7803  -0.573  -0.137   8.333 -0.1954 -0.0512 -0.6902
   58MOL0     H 7804  -0.310  -0.250   8.349 -0.3323 -0.3532  1.2648
   58MOL0     H 7805  -0.321  -0.075   8.383 -2.7035  0.9555  0.6036
   58MOL0     H 7806  -0.476  -0.065   8.172 -1.5470 -1.3884  0.8878
   58MOL0     H 7807  -0.309  -0.090   8.135  3.1509 -3.5345  2.9076
   58MOL0     H 7808  -0.527  -0.304   8.145 -2.7165  2.3549 -4.4160
   58MOL0     H 7809  -0.362  -0.354   8.136 -1.0723 -0.1130  1.5981
   58MOL0     H 7810  -0.470  -0.155   7.957  2.5658  0.5584  2.5772
   58MOL0     H 7811  -0.493  -0.330   7.914 -1.7150  2.2694 -2.9179
   58MOL0     H 7812  -0.447   0.465   8.587 -0.2788  1.4478 -0.1450
   58MOL0     H 7813  -0.463   0.660   8.771 -0.0008 -0.2192  0.6789
   58MOL0     H 7814  -0.490   0.775   9.278 -0.8872 -0.5854 -0.9876
   58MOL0     H 7815  -0.479   0.972   9.384 -0.2092  0.5820 -0.2406
   58MOL0     H 7816   0.742   2.350   9.378  1.4415  0.3977 -3.3259
   58MOL0     H 7817   0.961   2.344   9.249 -0.0899 -2.4933 -1.9032
   58MOL0     H 7818   1.434   2.346   9.147 -0.1701 -1.7203  1.8253
   58MOL0     H 7819   1.621   2.266   8.981  0.5189 -2.8711  2.3297
   58MOL0     H 7820   1.683   2.287   8.786  1.4202 -0.6199 -0.5436
   58MOL0     H 7821   1.784   2.153   8.851  1.5279  1.1814 -0.6588
   58MOL0     H 7822   1.821   2.078   8.629 -0.6568 -0.8569 -3.4663
   58MOL0     H 7823   1.864   2.248   8.626  1.6032 -1.2435  0.4439
   58MOL0     H 7824   1.639   2.294   8.513  4.0127  2.1832 -2.0717
   58MOL0     H 7825   1.605   2.118   8.526  0.3354 -1.4496 -1.1898
   58MOL0     H 7826   1.686   2.172   8.311 -1.4959 -2.0933  1.1185
   58MOL0     H 7827   1.826   2.103   8.393 -1.8588 -0.7084  2.3215
   58MOL0     H 7828   1.977   2.495   8.346  0.2302  0.8416 -3.2092
   58MOL0     H 7829   1.402   1.959   8.833 -0.2612  0.2160 -0.4629
   58MOL0     H 7830   1.233   1.984   9.003 -1.1697  1.6012 -3.5062
   59MOL0     O 7831   2.550   0.993   2.062 -0.3481  0.5533  0.4289
   59MOL0     C 7832   2.606   1.014   2.175 -0.2723  0.6552 -0.1233
   59MOL0     O 7833   2.553   0.994   2.292 -0.2897 -0.6099 -0.2708
   59MOL0     C 7834   2.436   0.921   2.301 -0.6421 -0.4132  0.0558
   59MOL0     C 7835   2.432   0.780   2.302 -0.0534 -0.0731 -0.1812
   59MOL0     C 7836   2.308   0.715   2.328  0.4475  0.4824  0.3340
   59MOL0     C 7837   2.189   0.798   2.367 -0.5382  0.9259 -0.0939
   59MOL0     O 7838   2.079   0.729   2.410  0.3487 -0.2213 -0.3486
   59MOL0     C 7839   1.978   0.806   2.474  0.9939 -0.7906 -0.4442
   59MOL0     C 7840   1.902   0.717   2.574  0.1720 -0.2903  0.2370
   59MOL0     C 7841   1.753   0.766   2.578  0.8743  0.8071 -0.7281
   59MOL0     C 7842   1.676   0.743   2.710  0.3756 -0.6318  0.8301
   59MOL0     C 7843   1.524   0.746   2.688  1.2041 -0.3015 -0.6602
   59MOL0     C 7844   1.454   0.728   2.826 -0.3922  0.3655 -0.2486
   59MOL0     C 7845   1.297   0.737   2.828 -0.4531  1.3480  0.3311
   59MOL0     C 7846   1.237   0.852   2.750 -0.6108  0.1226 -0.7938
   59MOL0     N 7847   1.239   0.969   2.840  0.3547 -0.5125 -0.8408
   59MOL0     C 7848   1.149   1.002   2.940  0.0596  0.4059 -0.1987
   59MOL0     C 7849   1.185   1.118   3.006 -0.4625  0.0692 -1.0523
   59MOL0     C 7850   1.126   1.168   3.131  0.1970 -0.1918  0.6028
   59MOL0     C 7851   1.159   1.092   3.264 -0.2648  0.1961  0.0151
   59MOL0     C 7852   1.120   1.169   3.399 -0.0168 -0.1780  0.0060
   59MOL0     C 7853   0.987   1.232   3.385  0.1765  0.6900 -0.8889
   59MOL0     O 7854   0.963   1.295   3.516 -0.3569 -0.5556 -0.5469
   59MOL0     C 7855   0.877   1.220   3.591  0.3248  1.1756 -0.6808
   59MOL0     C 7856   0.752   1.180   3.548  1.1364  0.1426  0.2200
   59MOL0     C 7857   0.674   1.095   3.630  0.8654  0.2083  0.0858
   59MOL0     C 7858   0.536   1.064   3.584 -0.5400 -0.5104  0.0681
   59MOL0     C 7859   0.719   1.046   3.754 -0.0078 -0.2285  1.2134
   59MOL0     C 7860   0.641   0.947   3.843 -0.0128  0.8141 -1.4606
   59MOL0     O 7861   0.719   0.849   3.891 -0.2213  0.4767  0.1093
   59MOL0     C 7862   0.688   0.777   4.011 -0.1180  0.8181  0.3977
   59MOL0     C 7863   0.763   0.662   4.050  0.5706  0.1128 -0.4536
   59MOL0     C 7864   0.737   0.591   4.169 -0.6256  0.7501 -0.3023
   59MOL0     C 7865   0.655   0.641   4.268  0.3336  0.9306  0.0901
   59MOL0     O 7866   0.616   0.575   4.383 -0.9931  0.2185  0.3007
   59MOL0     C 7867   0.671   0.445   4.419 -0.6962  0.2502  0.3882
   59MOL0     C 7868   0.626   0.430   4.563 -0.7952  0.1213  0.4859
   59MOL0     C 7869   0.653   0.287   4.633 -0.0287  0.4455 -0.0677
   59MOL0     C 7870   0.550   0.258   4.741  1.2399 -0.2144 -0.4492
   59MOL0     C 7871   0.575   0.128   4.819  0.3597 -0.2134 -1.1027
   59MOL0     C 7872   0.511   0.009   4.755 -0.7653  0.0977  0.7308
   59MOL0     C 7873   0.564  -0.115   4.822 -0.1979  0.1457 -0.6252
   59MOL0     C 7874   0.482  -0.241   4.780  0.3230 -0.2548 -0.7874
   59MOL0    Cl 7875   0.312  -0.248   4.845  0.1695 -0.3455 -0.1656
   59MOL0     C 7876   0.591   0.761   4.242 -0.6867  0.8455 -0.5872
   59MOL0     C 7877   0.602   0.821   4.114 -0.5981 -1.0314 -0.4236
   59MOL0     O 7878   0.516   0.947   3.852  0.4996  0.3218  0.0306
   59MOL0     C 7879   0.849   1.083   3.789 -0.2795 -0.3998 -0.1125
   59MOL0     C 7880   0.932   1.171   3.707  0.5030 -0.5398 -0.6002
   59MOL0     N 7881   1.305   1.145   2.945 -0.7039 -0.4158  0.6980
   59MOL0     N 7882   1.331   1.072   2.841 -0.0307  0.8152  0.0361
   59MOL0     C 7883   2.192   0.931   2.345 -0.5909  0.2709 -0.2276
   59MOL0     C 7884   2.317   0.989   2.303  0.8698 -0.7034 -0.9966
   59MOL0     C 7885   2.734   1.089   2.175 -0.1710  0.2045 -1.3166
   59MOL0     C 7886   2.821   1.074   2.281 -0.3717  0.3727  0.0810
   59MOL0     C 7887   2.946   1.136   2.273  0.6534 -0.1323 -0.5054
   59MOL0     C 7888   2.977   1.235   2.175  0.5565  0.6386 -0.5182
   59MOL0     O 7889   3.089   1.317   2.199 -0.3399 -0.2357  0.4149
   59MOL0     C 7890   3.093   1.454   2.161  0.7568  0.1564  0.3891
   59MOL0     C 7891   2.978   1.534   2.219  0.1050 -0.2588 -1.3976
   59MOL0     C 7892   2.999   1.529   2.375  0.3337 -0.5280 -0.4164
   59MOL0     C 7893   2.917   1.641   2.452 -0.3831  0.4467 -0.2180
   59MOL0     C 7894   2.771   1.661   2.418 -0.3158 -0.0913  0.2694
   59MOL0     C 7895   2.648   1.676   2.397 -0.0778 -0.4875 -0.3486
   59MOL0     C 7896   2.888   1.246   2.067 -0.1059 -0.3109 -0.4416
   59MOL0     C 7897   2.764   1.173   2.064  0.9409  0.3811  0.2095
   59MOL0     H 7898   2.517   0.717   2.275 -0.6909 -2.1700  2.3022
   59MOL0     H 7899   2.299   0.607   2.330  2.5795  0.2759  0.8816
   59MOL0     H 7900   2.021   0.886   2.536 -3.4288  1.1521  0.5306
   59MOL0     H 7901   1.913   0.843   2.395 -1.7050 -2.9014  0.6321
   59MOL0     H 7902   1.892   0.615   2.537 -0.7705  0.7129 -2.5501
   59MOL0     H 7903   1.949   0.714   2.673 -1.1490 -1.9242  0.8466
   59MOL0     H 7904   1.752   0.875   2.564 -1.7947  1.0125  0.4583
   59MOL0     H 7905   1.706   0.727   2.487  0.9311  1.6211 -1.1155
   59MOL0     H 7906   1.705   0.647   2.752  1.2121 -0.5965  0.3458
   59MOL0     H 7907   1.712   0.821   2.778  0.8428 -1.2199  1.2712
   59MOL0     H 7908   1.495   0.845   2.653  2.2552  0.2477 -0.0334
   59MOL0     H 7909   1.485   0.665   2.626 -4.5479  0.1913  1.7248
   59MOL0     H 7910   1.492   0.634   2.867 -1.2058  0.1533  0.0352
   59MOL0     H 7911   1.476   0.807   2.898 -0.9717 -0.4765  0.8807
   59MOL0     H 7912   1.262   0.639   2.793  0.3162  0.6745  1.3608
   59MOL0     H 7913   1.262   0.739   2.932 -0.5228  0.5318  0.3301
   59MOL0     H 7914   1.136   0.828   2.715 -0.8339  1.6681 -1.2676
   59MOL0     H 7915   1.287   0.872   2.654 -1.7172  0.1334 -1.3865
   59MOL0     H 7916   1.058   0.951   2.970 -0.5301  0.9510 -0.9968
   59MOL0     H 7917   1.157   1.272   3.142 -1.9415  0.5870 -0.0702
   59MOL0     H 7918   1.018   1.175   3.113  0.2008  0.3485  0.7973
   59MOL0     H 7919   1.267   1.078   3.275 -0.5325 -0.2983  2.3927
   59MOL0     H 7920   1.104   0.998   3.258  3.0386 -1.9479  1.0517
   59MOL0     H 7921   1.197   1.232   3.444  0.0228 -2.4374  3.4847
   59MOL0     H 7922   1.109   1.095   3.479  1.3168 -1.0434 -0.5708
   59MOL0     H 7923   0.907   1.163   3.357 -0.5579  1.9379 -2.0321
   59MOL0     H 7924   1.002   1.311   3.310 -0.6036  0.5874 -1.1588
   59MOL0     H 7925   0.714   1.221   3.455 -0.0441 -1.1133  0.1135
   59MOL0     H 7926   0.500   1.091   3.485 -2.4139 -3.6738 -0.2553
   59MOL0     H 7927   0.514   0.957   3.578 -2.0182 -0.1471 -2.0840
   59MOL0     H 7928   0.467   1.099   3.662  0.2292 -1.5688  1.2690
   59MOL0     H 7929   0.845   0.624   3.991  0.7447  0.7705 -0.6439
   59MOL0     H 7930   0.802   0.513   4.208 -0.6678 -0.0762 -1.7875
   59MOL0     H 7931   0.629   0.366   4.356 -3.0623  0.2193  1.8544
   59MOL0     H 7932   0.780   0.453   4.417 -0.5597 -0.6133  2.2205
   59MOL0     H 7933   0.685   0.501   4.621  1.5637 -0.9591 -0.4584
   59MOL0     H 7934   0.522   0.460   4.577 -0.5751  1.4982 -0.6381
   59MOL0     H 7935   0.758   0.271   4.662 -0.3514 -2.4753 -0.2644
   59MOL0     H 7936   0.631   0.209   4.560  1.6508 -1.1466  1.0372
   59MOL0     H 7937   0.555   0.345   4.807  0.1006  0.4819 -1.2438
   59MOL0     H 7938   0.449   0.257   4.698  2.0626 -2.1292 -2.5267
   59MOL0     H 7939   0.526   0.142   4.916  2.5773  0.8601 -0.0614
   59MOL0     H 7940   0.679   0.120   4.853 -0.3583  0.5602  1.5427
   59MOL0     H 7941   0.403   0.017   4.767 -0.4839  3.1458  2.2254
   59MOL0     H 7942   0.537   0.005   4.648  2.3219  0.9376  1.3354
   59MOL0     H 7943   0.563  -0.104   4.931 -2.6754  0.8847 -0.6538
   59MOL0     H 7944   0.668  -0.132   4.792 -0.0943 -2.2446  0.8163
   59MOL0     H 7945   0.529  -0.333   4.816  0.5222 -0.2702 -1.0904
   59MOL0     H 7946   0.476  -0.245   4.671  3.6470 -0.1181 -1.0674
   59MOL0     H 7947   0.527   0.811   4.314 -0.9391 -0.5340  0.1638
   59MOL0     H 7948   0.548   0.913   4.097 -0.1587 -1.0590 -2.1251
   59MOL0     H 7949   0.885   1.029   3.876 -0.6509 -0.1765  0.1797
   59MOL0     H 7950   1.027   1.211   3.741  0.9624 -1.5186 -0.7358
   59MOL0     H 7951   2.102   0.992   2.349 -0.6082  0.6701 -3.5023
   59MOL0     H 7952   2.323   1.096   2.283  1.7364 -0.3508  0.9134
   59MOL0     H 7953   2.798   1.009   2.364 -0.3538 -0.7693 -0.7771
   59MOL0     H 7954   3.017   1.141   2.356  1.4611  0.8725 -1.2365
   59MOL0     H 7955   3.192   1.496   2.184  0.3945  1.6830 -0.6746
   59MOL0     H 7956   3.093   1.469   2.052  2.8414  0.2342  0.3573
   59MOL0     H 7957   2.882   1.485   2.200 -0.2324  0.5501 -1.8474
   59MOL0     H 7958   2.987   1.633   2.174 -0.3688  1.2994  1.6950
   59MOL0     H 7959   3.105   1.547   2.395 -0.6351  4.1660  1.9321
   59MOL0     H 7960   2.969   1.434   2.421  0.0104 -0.6841 -0.9377
   59MOL0     H 7961   2.972   1.735   2.447 -0.5379  0.5558  0.1436
   59MOL0     H 7962   2.901   1.612   2.556  0.8467  1.3366  0.2435
   59MOL0     H 7963   2.545   1.700   2.375  0.4654  1.5700 -0.8604
   59MOL0     H 7964   2.912   1.313   1.985  1.6037  2.0025  1.7860
   59MOL0     H 7965   2.689   1.189   1.987  0.8368  2.0194  0.6212
   60MOL0     O 7966   3.428   5.599   4.779  0.0344 -0.3166 -0.5457
   60MOL0     C 7967   3.497   5.499   4.802  0.1475 -0.5635  0.1919
   60MOL0     O 7968   3.639   5.483   4.802 -0.9773  0.0417  0.1099
   60MOL0     C 7969   3.717   5.577   4.739  0.5107  0.0578 -0.2180
   60MOL0     C 7970   3.671   5.644   4.621  0.0719  0.4930  0.4957
   60MOL0     C 7971   3.738   5.749   4.560 -0.9684 -0.6159 -1.2746
   60MOL0     C 7972   3.852   5.793   4.634 -0.5376 -0.1009  0.3493
   60MOL0     O 7973   3.931   5.909   4.594 -0.1346  0.4938 -0.7715
   60MOL0     C 7974   3.940   5.931   4.453 -0.2909  0.2692  0.6730
   60MOL0     C 7975   4.064   6.016   4.423  0.0758 -0.3325 -0.7103
   60MOL0     C 7976   4.188   5.972   4.515  0.3484 -0.3819  0.5268
   60MOL0     C 7977   4.318   6.023   4.461  0.6572  0.5842 -0.0731
   60MOL0     C 7978   4.421   6.020   4.574  0.5500 -1.1126 -0.4122
   60MOL0     C 7979   4.436   6.142   4.681 -0.3868 -1.0843  0.6820
   60MOL0     C 7980   4.569   6.145   4.745 -0.3238 -0.3027 -0.1294
   60MOL0     C 7981   4.631   6.013   4.773 -0.6748  0.4601 -0.3185
   60MOL0     N 7982   4.728   6.013   4.876  0.1920 -0.7143  0.7901
   60MOL0     C 7983   4.856   5.950   4.866 -0.4425 -0.1241 -0.1219
   60MOL0     C 7984   4.894   5.938   4.995 -0.4569 -0.7518  0.6878
   60MOL0     C 7985   5.036   5.895   5.013 -0.2978  0.5705 -0.4293
   60MOL0     C 7986   5.060   5.859   5.162  0.4990  0.9027  0.4516
   60MOL0     C 7987   5.206   5.885   5.212  0.0151  0.8598  0.3005
   60MOL0     C 7988   5.207   5.844   5.362 -0.1752 -0.5554 -0.0001
   60MOL0     O 7989   5.325   5.891   5.415 -0.6137  0.0240  0.4087
   60MOL0     C 7990   5.326   5.982   5.521 -0.4591  0.7992  0.2858
   60MOL0     C 7991   5.410   6.098   5.529  0.5668  1.0111 -0.1222
   60MOL0     C 7992   5.399   6.194   5.635 -1.3414  0.2529  0.1052
   60MOL0     C 7993   5.487   6.318   5.641  0.1064 -0.3947 -0.5202
   60MOL0     C 7994   5.303   6.171   5.738  0.4470 -0.5954  0.0930
   60MOL0     C 7995   5.272   6.261   5.857  0.2634 -0.0202 -0.4835
   60MOL0     O 7996   5.354   6.357   5.896 -0.0585  0.0981  0.6672
   60MOL0     C 7997   5.412   6.363   6.019 -0.2602 -0.4923  0.0047
   60MOL0     C 7998   5.351   6.307   6.136 -0.5116  0.0556  0.1137
   60MOL0     C 7999   5.393   6.350   6.269 -0.0069 -0.1134 -0.7795
   60MOL0     C 8000   5.496   6.443   6.285  0.0872  0.8832  0.3918
   60MOL0     O 8001   5.532   6.476   6.420  0.2322 -0.2969  0.6033
   60MOL0     C 8002   5.575   6.609   6.451 -0.3889  0.4062 -0.4452
   60MOL0     C 8003   5.717   6.613   6.501  1.2106 -0.6258 -0.4473
   60MOL0     C 8004   5.788   6.754   6.512  0.3054 -0.5693 -1.1536
   60MOL0     C 8005   5.689   6.856   6.589  0.6211 -0.2429  0.5797
   60MOL0     C 8006   5.743   6.999   6.613  0.1546  0.6814  0.4755
   60MOL0     C 8007   5.813   7.085   6.506 -0.8046  0.1419  0.8635
   60MOL0     C 8008   5.721   7.118   6.385  0.2552  0.9349 -0.3606
   60MOL0     C 8009   5.790   7.191   6.276  0.9937  0.3773  0.0227
   60MOL0    Cl 8010   5.892   7.334   6.333  0.3528  0.6683  0.1640
   60MOL0     C 8011   5.556   6.489   6.169 -0.2566 -1.0150 -0.1411
   60MOL0     C 8012   5.514   6.458   6.040  0.5155  0.3591  1.5016
   60MOL0     O 8013   5.161   6.238   5.908  0.3827  0.1833 -0.3517
   60MOL0     C 8014   5.218   6.061   5.728 -0.4502  0.6059  0.4780
   60MOL0     C 8015   5.231   5.971   5.621  0.2607 -0.3264 -1.0297
   60MOL0     N 8016   4.795   5.989   5.079 -0.3201 -0.4725  0.1009
   60MOL0     N 8017   4.695   6.028   5.005  0.7369 -0.1086  0.5576
   60MOL0     C 8018   3.899   5.732   4.747 -0.5063  0.2287  0.4567
   60MOL0     C 8019   3.836   5.612   4.801  0.4593 -0.7597  0.9947
   60MOL0     C 8020   3.420   5.374   4.819 -0.8624 -0.3005 -0.5762
   60MOL0     C 8021   3.475   5.242   4.821 -0.8430 -0.4433 -0.8004
   60MOL0     C 8022   3.386   5.128   4.832 -0.0067 -0.4512  0.4490
   60MOL0     C 8023   3.246   5.137   4.841  0.1362 -0.2774  1.4247
   60MOL0     O 8024   3.185   5.018   4.834  0.4305 -0.3704  0.0442
   60MOL0     C 8025   3.062   4.998   4.908 -0.3545 -0.4312  0.0883
   60MOL0     C 8026   2.972   4.884   4.842  0.0554 -0.8100 -0.3703
   60MOL0     C 8027   2.832   4.848   4.923 -1.0129 -0.0200  0.6049
   60MOL0     C 8028   2.752   4.979   4.953 -0.8075 -1.4151  0.3883
   60MOL0     C 8029   2.632   4.957   5.019  0.9222  0.3833  0.5564
   60MOL0     C 8030   2.530   4.929   5.072  0.8038  0.0041  0.3639
   60MOL0     C 8031   3.194   5.265   4.861  0.0156 -1.2620  0.9059
   60MOL0     C 8032   3.278   5.378   4.835 -1.1519 -0.9152  0.1034
   60MOL0     H 8033   3.582   5.607   4.572 -0.6038  2.3087  0.2652
   60MOL0     H 8034   3.708   5.799   4.468 -0.8134  1.4278 -0.2607
   60MOL0     H 8035   3.949   5.831   4.411  1.2634  0.6750 -0.0206
   60MOL0     H 8036   3.847   5.976   4.418 -0.6356 -0.5605  0.5168
   60MOL0     H 8037   4.098   6.024   4.319  3.9880  0.1410  0.4500
   60MOL0     H 8038   4.029   6.117   4.446  0.3767  0.0153 -1.7177
   60MOL0     H 8039   4.167   6.004   4.617  1.2249 -0.0707  0.6205
   60MOL0     H 8040   4.191   5.862   4.510 -0.5728 -0.3754 -0.4210
   60MOL0     H 8041   4.353   5.960   4.378 -3.4861 -1.1953 -0.7471
   60MOL0     H 8042   4.311   6.127   4.427  1.4843  1.1713  1.4911
   60MOL0     H 8043   4.409   5.926   4.630 -2.3071 -0.1928  0.6657
   60MOL0     H 8044   4.513   6.015   4.514 -1.3570  2.8659 -4.1662
   60MOL0     H 8045   4.415   6.232   4.623  0.0546 -0.6646  1.1599
   60MOL0     H 8046   4.348   6.147   4.747 -0.3123  0.8595  0.6827
   60MOL0     H 8047   4.634   6.213   4.689 -0.7143  2.1149  2.1338
   60MOL0     H 8048   4.547   6.198   4.838 -1.3469  4.5368 -2.8223
   60MOL0     H 8049   4.676   5.972   4.682  0.7678  1.4437 -0.0939
   60MOL0     H 8050   4.544   5.957   4.807  0.4040 -0.4531  1.0402
   60MOL0     H 8051   4.913   5.932   4.776  2.5003  1.1590  1.3227
   60MOL0     H 8052   5.068   5.813   4.949  1.1692  0.8629 -0.0961
   60MOL0     H 8053   5.096   5.986   5.002  0.6886  0.0287  0.3423
   60MOL0     H 8054   5.052   5.750   5.166  1.0570  0.6461 -2.5562
   60MOL0     H 8055   4.988   5.911   5.225 -2.5365 -0.7690 -1.3763
   60MOL0     H 8056   5.228   5.992   5.212  0.0533  0.8936 -1.6713
   60MOL0     H 8057   5.273   5.828   5.147 -3.7561  2.4048 -5.7119
   60MOL0     H 8058   5.202   5.736   5.379 -1.5964 -0.2629  1.7302
   60MOL0     H 8059   5.117   5.883   5.410 -1.2162 -1.0505 -1.4886
   60MOL0     H 8060   5.492   6.110   5.459  1.2887  1.9107  0.8448
   60MOL0     H 8061   5.578   6.322   5.580  0.8759 -2.9510  0.3359
   60MOL0     H 8062   5.422   6.405   5.628 -1.9215 -1.6293  0.9378
   60MOL0     H 8063   5.530   6.328   5.742  0.7217  1.9684 -0.9397
   60MOL0     H 8064   5.281   6.225   6.131  1.5680 -1.7340 -2.5990
   60MOL0     H 8065   5.339   6.312   6.355 -7.4797  2.1593 -3.6668
   60MOL0     H 8066   5.561   6.659   6.355 -2.2561 -2.1703 -1.6281
   60MOL0     H 8067   5.499   6.647   6.520  0.3047 -1.3590  1.3773
   60MOL0     H 8068   5.718   6.570   6.602 -3.3456  2.0466  1.0142
   60MOL0     H 8069   5.783   6.556   6.435  0.2091 -2.2244 -0.0969
   60MOL0     H 8070   5.810   6.789   6.411 -0.0487  0.6913 -0.8153
   60MOL0     H 8071   5.878   6.745   6.572 -1.6043  0.0172  2.0597
   60MOL0     H 8072   5.598   6.868   6.529  1.3331 -2.5214 -1.1049
   60MOL0     H 8073   5.667   6.820   6.689  4.1399 -2.1949  0.7903
   60MOL0     H 8074   5.812   6.985   6.697  1.5940 -4.0888 -1.1283
   60MOL0     H 8075   5.659   7.056   6.651 -0.2702  1.0111 -0.8943
   60MOL0     H 8076   5.840   7.182   6.550  1.2567  0.5018 -1.0712
   60MOL0     H 8077   5.899   7.026   6.475 -1.3927 -0.0920 -0.3885
   60MOL0     H 8078   5.640   7.183   6.419 -1.0631 -1.6845  1.8955
   60MOL0     H 8079   5.661   7.033   6.350  1.7585 -0.3532  0.1034
   60MOL0     H 8080   5.706   7.236   6.224 -0.2928 -0.8907  0.9321
   60MOL0     H 8081   5.854   7.124   6.217  1.0006  1.5293 -1.3191
   60MOL0     H 8082   5.633   6.563   6.188 -0.2014 -0.5331 -2.0496
   60MOL0     H 8083   5.553   6.507   5.952 -1.4240 -0.9294 -0.1627
   60MOL0     H 8084   5.138   6.033   5.796 -2.8221  2.6331 -1.2566
   60MOL0     H 8085   5.156   5.894   5.608 -0.1661  0.2123 -1.8493
   60MOL0     H 8086   3.997   5.749   4.790  0.0451  1.3397 -1.1411
   60MOL0     H 8087   3.881   5.565   4.888  2.9812  1.8069  1.2408
   60MOL0     H 8088   3.582   5.226   4.827 -0.5644  0.5447 -2.4834
   60MOL0     H 8089   3.426   5.028   4.839  0.6159 -0.1334  1.8795
   60MOL0     H 8090   3.095   4.968   5.008 -2.0304 -3.3466 -0.1250
   60MOL0     H 8091   2.998   5.087   4.911  2.1959  1.7784 -3.5764
   60MOL0     H 8092   3.042   4.801   4.854  0.3446 -0.7244 -1.3365
   60MOL0     H 8093   2.953   4.898   4.735  2.7666  1.8451 -0.6269
   60MOL0     H 8094   2.863   4.792   5.012  3.2510  0.2186 -0.5391
   60MOL0     H 8095   2.771   4.791   4.851  0.8425  2.2236 -3.0070
   60MOL0     H 8096   2.731   5.033   4.860 -0.6358  0.8515  1.6144
   60MOL0     H 8097   2.795   5.053   5.021 -3.4268 -0.0710  0.6922
   60MOL0     H 8098   2.430   4.905   5.103  0.6751  0.8438  0.6446
   60MOL0     H 8099   3.087   5.272   4.848  0.3525  1.9910 -1.5334
   60MOL0     H 8100   3.242   5.479   4.855  0.9706  0.0954 -0.8979
   61MOL0     O 8101   7.722   8.859   7.955 -0.1198 -1.2642  0.5854
   61MOL0     C 8102   7.697   8.982   7.956  0.6319 -0.4687 -0.1349
   61MOL0     O 8103   7.747   9.078   7.867  0.0516 -0.6151  0.3907
   61MOL0     C 8104   7.848   9.051   7.781 -0.4267 -0.3647  0.4494
   61MOL0     C 8105   7.967   9.012   7.841 -0.1443  0.4803 -0.4556
   61MOL0     C 8106   8.081   8.991   7.760 -0.0443 -0.0120  0.1349
   61MOL0     C 8107   8.069   9.014   7.623 -0.2876 -1.2827 -0.5723
   61MOL0     O 8108   8.185   8.983   7.545  0.0425  0.0586 -0.1221
   61MOL0     C 8109   8.174   8.889   7.429 -0.3757  1.0850 -0.7018
   61MOL0     C 8110   8.301   8.820   7.395  1.0050 -1.4737 -0.3853
   61MOL0     C 8111   8.303   8.763   7.253  0.6060 -0.0642  0.1849
   61MOL0     C 8112   8.448   8.740   7.222 -0.6335 -0.7697  0.5226
   61MOL0     C 8113   8.492   8.714   7.076 -1.0684  0.1436 -0.5203
   61MOL0     C 8114   8.450   8.568   7.036  0.0384  0.7173 -0.1684
   61MOL0     C 8115   8.452   8.548   6.882 -0.6091 -0.2470 -0.5063
   61MOL0     C 8116   8.578   8.609   6.814  1.3322 -0.0098 -0.2596
   61MOL0     N 8117   8.702   8.532   6.846 -0.1976  0.4136 -0.1670
   61MOL0     C 8118   8.748   8.411   6.801 -0.1268  0.5491 -0.0300
   61MOL0     C 8119   8.875   8.394   6.856  0.4390  0.5446 -1.7256
   61MOL0     C 8120   8.955   8.274   6.842  1.1140  0.4064 -1.3309
   61MOL0     C 8121   9.070   8.312   6.749  0.2065 -0.0144  0.0645
   61MOL0     C 8122   9.181   8.381   6.828 -0.5553  0.3809 -1.2743
   61MOL0     C 8123   9.249   8.293   6.941 -0.9190  0.3359 -0.1125
   61MOL0     O 8124   9.234   8.361   7.068  0.2986  0.4749 -0.1108
   61MOL0     C 8125   9.302   8.284   7.166  1.2777  0.2734 -0.0438
   61MOL0     C 8126   9.428   8.341   7.195 -0.3500  0.1400  1.0312
   61MOL0     C 8127   9.521   8.273   7.280  0.5533  0.1445  0.9540
   61MOL0     C 8128   9.660   8.308   7.286  0.1081 -0.0110 -0.5692
   61MOL0     C 8129   9.475   8.144   7.343  0.4913 -0.8978  1.9786
   61MOL0     C 8130   9.569   8.051   7.408 -0.9226  0.3818 -0.9269
   61MOL0     O 8131   9.582   7.925   7.347 -0.1503 -0.3844 -0.2800
   61MOL0     C 8132   9.609   7.816   7.431  0.6190 -0.2648 -0.2617
   61MOL0     C 8133   9.653   7.695   7.375 -0.6299  0.3865 -0.0538
   61MOL0     C 8134   9.680   7.585   7.449 -0.3899 -0.5739  0.3625
   61MOL0     C 8135   9.656   7.589   7.584  0.5776  0.6487  0.1926
   61MOL0     O 8136   9.680   7.469   7.641 -0.3291 -0.4851  0.3977
   61MOL0     C 8137   9.641   7.454   7.780  1.0616 -0.2126  0.7906
   61MOL0     C 8138   9.746   7.511   7.883  0.1520  0.1147 -0.5785
   61MOL0     C 8139   9.891   7.475   7.866 -0.0503 -0.7827 -0.1841
   61MOL0     C 8140   9.971   7.511   7.994  1.3790 -0.3322  0.5891
   61MOL0     C 8141  10.103   7.459   7.976  0.2773 -0.3224 -0.5309
   61MOL0     C 8142  10.184   7.460   8.108 -0.3471  0.0607 -0.1650
   61MOL0     C 8143  10.214   7.607   8.154 -0.0933  0.4764  0.4902
   61MOL0     C 8144  10.305   7.619   8.275  0.4960  0.3654  0.1227
   61MOL0    Cl 8145  10.252   7.526   8.421 -0.0215  0.3816 -0.0529
   61MOL0     C 8146   9.588   7.699   7.644 -1.1081 -0.6251  0.9130
   61MOL0     C 8147   9.559   7.815   7.564  0.4469 -1.6479 -0.2262
   61MOL0     O 8148   9.636   8.089   7.505 -0.3208 -0.2364 -0.3884
   61MOL0     C 8149   9.342   8.101   7.324 -0.2799  0.2477 -0.7522
   61MOL0     C 8150   9.263   8.162   7.227 -0.4726  0.2771  0.2961
   61MOL0     N 8151   8.898   8.515   6.932  0.1397 -0.1928 -0.1243
   61MOL0     N 8152   8.800   8.596   6.928  0.2956 -0.8155 -0.2644
   61MOL0     C 8153   7.941   9.052   7.561 -0.2078 -0.3332 -0.0305
   61MOL0     C 8154   7.833   9.067   7.645  1.1635 -0.7887  1.1796
   61MOL0     C 8155   7.610   9.035   8.064 -0.2176  0.4176  0.2598
   61MOL0     C 8156   7.550   9.165   8.049 -0.2004  0.1710  0.0948
   61MOL0     C 8157   7.483   9.231   8.154 -0.6574  1.3366 -1.4880
   61MOL0     C 8158   7.451   9.157   8.272 -0.1585 -0.4399  1.0353
   61MOL0     O 8159   7.366   9.208   8.364 -0.7792  0.2483 -0.3941
   61MOL0     C 8160   7.380   9.181   8.505  0.1900  0.6301 -0.6472
   61MOL0     C 8161   7.261   9.247   8.574  0.9304 -0.4647 -0.2124
   61MOL0     C 8162   7.248   9.396   8.535 -0.5724 -0.6169  1.2137
   61MOL0     C 8163   7.176   9.480   8.643 -0.1266  0.7847 -0.0433
   61MOL0     C 8164   7.185   9.620   8.624  0.8325 -0.0519  0.7620
   61MOL0     C 8165   7.173   9.734   8.589  0.0425  0.0201 -0.2579
   61MOL0     C 8166   7.509   9.027   8.279 -0.2399  0.1506 -0.2681
   61MOL0     C 8167   7.599   8.974   8.184 -0.0181 -0.9162 -0.1338
   61MOL0     H 8168   7.964   8.990   7.947 -1.1726 -2.5422 -1.0245
   61MOL0     H 8169   8.178   8.952   7.787 -0.6180 -1.6688 -0.0932
   61MOL0     H 8170   8.100   8.809   7.441  2.0450 -1.1072  0.6837
   61MOL0     H 8171   8.156   8.957   7.345 -1.2021  1.3489 -0.3221
   61MOL0     H 8172   8.369   8.906   7.397 -1.1154  0.2873  0.6085
   61MOL0     H 8173   8.345   8.751   7.468  1.0241 -0.0163  1.0324
   61MOL0     H 8174   8.249   8.670   7.233  0.9848 -0.4544  0.9270
   61MOL0     H 8175   8.255   8.836   7.187 -0.7616  0.7085  1.9299
   61MOL0     H 8176   8.496   8.834   7.250  1.0241 -1.4872  0.1795
   61MOL0     H 8177   8.481   8.662   7.290 -1.9952 -0.3248  1.7482
   61MOL0     H 8178   8.440   8.786   7.013  1.1454  2.7977  0.4647
   61MOL0     H 8179   8.601   8.719   7.066 -1.2328  0.2397 -2.4992
   61MOL0     H 8180   8.514   8.497   7.088  0.7985  2.4506  1.3614
   61MOL0     H 8181   8.350   8.534   7.064  1.1729 -1.9360  1.0569
   61MOL0     H 8182   8.447   8.441   6.863 -1.5333  0.1183 -2.5796
   61MOL0     H 8183   8.367   8.605   6.844 -1.7244 -0.2206  1.8293
   61MOL0     H 8184   8.580   8.713   6.846 -4.9585 -0.9201  5.3974
   61MOL0     H 8185   8.559   8.609   6.706 -1.5006  3.5375  0.0517
   61MOL0     H 8186   8.703   8.331   6.743  4.1284 -2.7676  0.7421
   61MOL0     H 8187   8.976   8.233   6.941 -0.2098  1.2371 -0.6688
   61MOL0     H 8188   8.891   8.197   6.797  1.2465  0.2768 -1.2975
   61MOL0     H 8189   9.044   8.373   6.662 -1.0237 -0.2988  0.2189
   61MOL0     H 8190   9.101   8.218   6.703  1.0170  0.3658 -0.1887
   61MOL0     H 8191   9.141   8.466   6.883 -0.0254 -1.2042  1.7646
   61MOL0     H 8192   9.261   8.411   6.759  0.9793 -0.8171 -0.0777
   61MOL0     H 8193   9.356   8.292   6.916  0.8052 -1.2998  5.7152
   61MOL0     H 8194   9.211   8.191   6.949 -1.4089  0.3964 -1.4643
   61MOL0     H 8195   9.450   8.437   7.150 -4.3135 -0.2475 -2.3113
   61MOL0     H 8196   9.690   8.366   7.198  0.1701  1.5482  0.4539
   61MOL0     H 8197   9.669   8.378   7.369 -0.4147 -1.3710  0.6732
   61MOL0     H 8198   9.732   8.233   7.323 -0.3259  0.7088  1.8962
   61MOL0     H 8199   9.696   7.689   7.276 -2.0918  3.0349 -0.9390
   61MOL0     H 8200   9.722   7.498   7.398 -3.7443 -1.4198 -1.2557
   61MOL0     H 8201   9.546   7.507   7.791  0.1435 -1.1788 -1.7288
   61MOL0     H 8202   9.625   7.347   7.790  2.0181 -0.3432  1.0179
   61MOL0     H 8203   9.735   7.618   7.904 -0.7210  0.0387 -0.5850
   61MOL0     H 8204   9.713   7.473   7.981  0.3819 -2.7707 -1.5144
   61MOL0     H 8205   9.936   7.527   7.781  0.2789 -0.5891  0.1014
   61MOL0     H 8206   9.892   7.367   7.846  0.0754 -0.8631  0.2266
   61MOL0     H 8207   9.973   7.620   7.998 -1.4289 -0.2117  0.6243
   61MOL0     H 8208   9.926   7.469   8.084 -2.6572 -0.6292 -1.3475
   61MOL0     H 8209  10.149   7.521   7.899  1.3942  0.7780  0.9489
   61MOL0     H 8210  10.111   7.354   7.944  0.8121 -0.8084  1.0923
   61MOL0     H 8211  10.132   7.403   8.185  0.8182 -0.0579  0.5584
   61MOL0     H 8212  10.278   7.405   8.094 -1.9004 -2.1636 -3.0671
   61MOL0     H 8213  10.117   7.652   8.174 -0.7044 -0.3002 -0.6128
   61MOL0     H 8214  10.257   7.657   8.066  0.8325 -0.4274  0.4060
   61MOL0     H 8215  10.317   7.725   8.299  3.9689  0.2101 -0.4970
   61MOL0     H 8216  10.406   7.597   8.241  1.4906  0.1710  2.9613
   61MOL0     H 8217   9.572   7.712   7.751 -2.2551 -1.7832  0.9002
   61MOL0     H 8218   9.505   7.898   7.608  1.8747 -0.4581 -0.6271
   61MOL0     H 8219   9.303   8.014   7.375 -4.4794  1.8056 -0.8912
   61MOL0     H 8220   9.159   8.133   7.220 -0.7741  0.7139  2.4077
   61MOL0     H 8221   7.953   9.070   7.455  2.5870  0.2667  0.3138
   61MOL0     H 8222   7.735   9.097   7.608  2.4329 -3.0010 -5.2305
   61MOL0     H 8223   7.539   9.223   7.958 -0.7350  2.2812  1.4306
   61MOL0     H 8224   7.437   9.327   8.130 -1.3444  2.1715  2.5396
   61MOL0     H 8225   7.360   9.077   8.535  0.2095  0.2450 -1.9246
   61MOL0     H 8226   7.474   9.224   8.541  1.4798 -0.3566 -2.6243
   61MOL0     H 8227   7.257   9.247   8.684 -0.4586 -0.1819 -0.2466
   61MOL0     H 8228   7.170   9.201   8.535 -0.1197  1.3601 -0.0133
   61MOL0     H 8229   7.188   9.404   8.444 -1.0548  2.8245  1.7090
   61MOL0     H 8230   7.350   9.432   8.525 -0.1792 -2.1189 -0.7412
   61MOL0     H 8231   7.220   9.449   8.739  1.8309 -1.0460 -1.4379
   61MOL0     H 8232   7.072   9.446   8.639 -0.5760  2.0318  0.4140
   61MOL0     H 8233   7.193   9.837   8.566  0.6023 -0.0462 -0.0943
   61MOL0     H 8234   7.493   8.966   8.367  2.3788 -0.3564 -0.0508
   61MOL0     H 8235   7.644   8.877   8.199 -1.1631 -1.7250 -1.6615
   62MOL0     O 8236   0.819   8.313   5.883  0.4536 -0.1681 -0.5296
   62MOL0     C 8237   0.745   8.228   5.836  0.0862  0.0717 -1.2860
   62MOL0     O 8238   0.683   8.236   5.719 -0.4371  0.0459  0.4381
   62MOL0     C 8239   0.695   8.349   5.654 -0.1078 -0.2781  0.3475
   62MOL0     C 8240   0.815   8.395   5.599 -0.8770 -0.5721 -0.2706
   62MOL0     C 8241   0.828   8.510   5.531 -0.0424 -0.1706  0.0512
   62MOL0     C 8242   0.714   8.583   5.509 -0.4027  0.3138 -0.9387
   62MOL0     O 8243   0.733   8.698   5.440  0.5649 -0.6100  0.0960
   62MOL0     C 8244   0.636   8.804   5.460 -0.8567  0.6216 -0.3533
   62MOL0     C 8245   0.723   8.924   5.432 -0.1646  0.3489  0.5344
   62MOL0     C 8246   0.640   9.057   5.420  0.4762 -0.8327  0.6209
   62MOL0     C 8247   0.521   9.040   5.320  0.0273  0.3063 -0.8925
   62MOL0     C 8248   0.470   9.181   5.293  0.5311 -0.3407  0.4136
   62MOL0     C 8249   0.376   9.172   5.167  0.5517 -0.4697 -0.8844
   62MOL0     C 8250   0.288   9.292   5.136 -0.6638 -0.0163  0.5490
   62MOL0     C 8251   0.200   9.263   5.016 -0.6085  0.0685  0.2540
   62MOL0     N 8252   0.068   9.321   5.018  0.0427 -0.0777 -0.2232
   62MOL0     C 8253   0.029   9.459   5.018  0.3934  0.4861  0.4050
   62MOL0     C 8254  -0.103   9.455   5.049 -0.4161 -1.0587 -1.3678
   62MOL0     C 8255  -0.185   9.587   5.064  0.8584  0.0744  0.3253
   62MOL0     C 8256  -0.153   9.662   5.195 -0.9852  0.4822  0.0369
   62MOL0     C 8257  -0.252   9.764   5.246 -0.5784 -0.4168  0.1815
   62MOL0     C 8258  -0.293   9.874   5.150 -0.9896 -0.7173 -0.5808
   62MOL0     O 8259  -0.360   9.986   5.216  0.4871  0.7130 -0.6503
   62MOL0     C 8260  -0.405  10.089   5.149  0.7129 -0.4276  1.1636
   62MOL0     C 8261  -0.410  10.107   5.009 -0.0289  0.4550 -1.3130
   62MOL0     C 8262  -0.460  10.222   4.950 -0.6027  0.2943  0.0524
   62MOL0     C 8263  -0.451  10.227   4.799 -0.5562 -0.5553  0.4393
   62MOL0     C 8264  -0.506  10.333   5.036  0.5650 -0.4141  0.2850
   62MOL0     C 8265  -0.555  10.466   4.997  0.2842  0.8932  0.2819
   62MOL0     O 8266  -0.637  10.477   4.887 -0.2953 -0.2052 -0.3581
   62MOL0     C 8267  -0.718  10.592   4.868  0.3201 -0.5225 -0.6074
   62MOL0     C 8268  -0.731  10.650   4.745 -0.2018 -0.0191 -0.0751
   62MOL0     C 8269  -0.812  10.752   4.724 -0.0708  0.5742 -1.3058
   62MOL0     C 8270  -0.881  10.812   4.837  0.6190  0.0633  0.7174
   62MOL0     O 8271  -0.974  10.907   4.793 -0.2963 -0.1902 -0.0564
   62MOL0     C 8272  -1.050  10.978   4.897 -0.2746 -0.2993 -0.0351
   62MOL0     C 8273  -0.959  11.090   4.949  0.1837 -0.3088 -0.1599
   62MOL0     C 8274  -1.043  11.181   5.042  0.5405  0.5162  0.7946
   62MOL0     C 8275  -1.003  11.326   5.047 -1.6766  0.3247 -0.2524
   62MOL0     C 8276  -1.054  11.387   5.183  0.4875  0.2942  0.5011
   62MOL0     C 8277  -1.043  11.543   5.185  0.0463  0.8513 -0.5553
   62MOL0     C 8278  -1.115  11.628   5.290 -0.0074 -0.7451  0.1044
   62MOL0     C 8279  -1.083  11.781   5.276  0.2464 -0.4041 -0.1484
   62MOL0    Cl 8280  -1.166  11.864   5.130 -0.0061  0.3119 -0.4908
   62MOL0     C 8281  -0.865  10.755   4.960  0.2604 -0.6648  0.1854
   62MOL0     C 8282  -0.791  10.647   4.977  0.9931  0.8769 -0.6913
   62MOL0     O 8283  -0.521  10.562   5.068 -0.7505  1.1398  0.2010
   62MOL0     C 8284  -0.501  10.312   5.172  0.3234 -0.7060  1.0438
   62MOL0     C 8285  -0.454  10.195   5.229  0.1390  0.7803 -0.8879
   62MOL0     N 8286  -0.150   9.329   5.058  0.1074 -0.1784 -0.3672
   62MOL0     N 8287  -0.048   9.253   5.042  0.2136  0.0693 -0.2498
   62MOL0     C 8288   0.589   8.557   5.574  0.3750 -0.6618  0.4665
   62MOL0     C 8289   0.588   8.434   5.646  0.1362 -1.6280  0.9198
   62MOL0     C 8290   0.700   8.115   5.918 -0.4090  0.0244 -0.0199
   62MOL0     C 8291   0.755   8.095   6.046  1.0860  0.5742 -0.0908
   62MOL0     C 8292   0.705   7.981   6.123 -0.2264 -0.5708 -0.2091
   62MOL0     C 8293   0.606   7.901   6.068 -1.1449 -0.5718  0.9492
   62MOL0     O 8294   0.575   7.790   6.138  0.2139  0.1822  0.6213
   62MOL0     C 8295   0.438   7.759   6.141  0.0667 -0.7535 -0.0782
   62MOL0     C 8296   0.423   7.639   6.232 -0.7633 -0.2613 -0.3346
   62MOL0     C 8297   0.284   7.579   6.239  0.0434  0.3238  0.5164
   62MOL0     C 8298   0.198   7.646   6.344 -0.3104  0.7098 -1.0728
   62MOL0     C 8299   0.054   7.653   6.316  0.4278  0.1179 -0.3104
   62MOL0     C 8300  -0.064   7.663   6.286 -1.2374  0.1287 -0.7770
   62MOL0     C 8301   0.562   7.936   5.942  0.1249  1.1879  0.5806
   62MOL0     C 8302   0.603   8.038   5.864  0.1643  0.2062 -0.7231
   62MOL0     H 8303   0.898   8.325   5.595  0.7148  1.2306 -0.3419
   62MOL0     H 8304   0.915   8.535   5.472  0.3018  0.4106  0.7773
   62MOL0     H 8305   0.560   8.798   5.382 -1.7160  0.6504  0.4589
   62MOL0     H 8306   0.614   8.800   5.567 -1.0080  2.4873 -0.2958
   62MOL0     H 8307   0.810   8.934   5.498 -0.8330  2.0175  1.2259
   62MOL0     H 8308   0.770   8.919   5.334  1.0526 -0.2719  1.1320
   62MOL0     H 8309   0.601   9.083   5.519 -0.2598  1.2803 -0.1777
   62MOL0     H 8310   0.717   9.132   5.400  1.7323 -2.0274  0.7890
   62MOL0     H 8311   0.559   8.993   5.229 -2.5707  1.9641 -3.0184
   62MOL0     H 8312   0.440   8.987   5.370 -1.0942  3.5492  1.0598
   62MOL0     H 8313   0.428   9.243   5.372 -0.4422  0.1165 -0.4345
   62MOL0     H 8314   0.548   9.241   5.246  0.0205 -0.2217 -0.3085
   62MOL0     H 8315   0.430   9.169   5.072 -2.0885 -0.0103 -2.5044
   62MOL0     H 8316   0.321   9.078   5.175  0.2456 -0.5567 -3.2301
   62MOL0     H 8317   0.240   9.329   5.227 -0.5347 -0.1215  0.6626
   62MOL0     H 8318   0.355   9.375   5.110  1.0429 -1.2998  0.6765
   62MOL0     H 8319   0.185   9.156   4.998 -3.4427  0.7183 -2.0837
   62MOL0     H 8320   0.243   9.304   4.924  3.5883 -0.1239  1.8986
   62MOL0     H 8321   0.097   9.540   4.998  1.0873 -0.5335 -1.5683
   62MOL0     H 8322  -0.183   9.644   4.971 -2.2091 -1.8407 -1.0550
   62MOL0     H 8323  -0.290   9.561   5.073  0.7937  1.0725  3.6835
   62MOL0     H 8324  -0.050   9.699   5.189 -0.0565 -1.5650  1.9232
   62MOL0     H 8325  -0.152   9.592   5.278 -1.4198 -0.7426 -0.9573
   62MOL0     H 8326  -0.200   9.816   5.327  0.1928  0.5176 -0.8906
   62MOL0     H 8327  -0.342   9.716   5.285  0.2229 -0.5405  1.9781
   62MOL0     H 8328  -0.345   9.830   5.065 -0.4673 -1.1270 -0.6948
   62MOL0     H 8329  -0.197   9.910   5.112 -1.3145  2.0646  0.9595
   62MOL0     H 8330  -0.364  10.030   4.947  3.9490  1.5283  0.0022
   62MOL0     H 8331  -0.422  10.327   4.765 -0.2734  0.0571  2.3684
   62MOL0     H 8332  -0.378  10.158   4.754  1.4910  3.8752 -4.1153
   62MOL0     H 8333  -0.549  10.200   4.760 -0.9577 -0.8395  1.6249
   62MOL0     H 8334  -0.669  10.606   4.667  0.4257 -0.2986  0.5717
   62MOL0     H 8335  -0.826  10.798   4.627 -3.1252  1.1889 -0.6891
   62MOL0     H 8336  -1.139  11.008   4.841 -3.0038 -4.9138  1.2908
   62MOL0     H 8337  -1.090  10.908   4.971 -1.4848  0.0395 -0.3494
   62MOL0     H 8338  -0.879  11.044   5.006 -0.6611  0.4595  1.7356
   62MOL0     H 8339  -0.915  11.147   4.867  3.8458 -2.0462  0.4280
   62MOL0     H 8340  -1.055  11.132   5.139  1.3124 -1.8999 -0.2497
   62MOL0     H 8341  -1.144  11.179   4.999  0.9246  0.9090 -0.1410
   62MOL0     H 8342  -0.894  11.339   5.045 -1.6442  0.2060 -3.4745
   62MOL0     H 8343  -1.044  11.374   4.958  1.2300  0.1539 -1.8121
   62MOL0     H 8344  -1.005  11.348   5.273 -3.6468 -0.7553  2.5428
   62MOL0     H 8345  -1.159  11.356   5.189  1.1239 -2.6981 -1.6823
   62MOL0     H 8346  -0.939  11.577   5.192  1.0334 -1.4189 -2.5181
   62MOL0     H 8347  -1.082  11.575   5.088  2.5279 -0.8182 -2.2442
   62MOL0     H 8348  -1.084  11.606   5.393 -0.1758  0.6539  0.4681
   62MOL0     H 8349  -1.221  11.599   5.287  0.1076 -1.0601 -1.7702
   62MOL0     H 8350  -0.974  11.789   5.275  0.4213 -2.2748 -1.4985
   62MOL0     H 8351  -1.117  11.834   5.365 -2.8779 -0.1216 -1.4036
   62MOL0     H 8352  -0.912  10.796   5.049 -1.9848 -1.6970 -0.4678
   62MOL0     H 8353  -0.769  10.598   5.071  2.2049  1.6466 -0.5412
   62MOL0     H 8354  -0.545  10.391   5.233 -0.3424 -0.2097 -0.0584
   62MOL0     H 8355  -0.448  10.189   5.337  0.0872  2.5054 -0.7640
   62MOL0     H 8356   0.498   8.613   5.559  0.1728 -1.1948 -0.3441
   62MOL0     H 8357   0.492   8.424   5.694 -1.2012  2.3089 -0.5665
   62MOL0     H 8358   0.831   8.154   6.097  0.2055  0.2210  1.6947
   62MOL0     H 8359   0.756   7.939   6.209 -1.2704 -0.6551  0.3855
   62MOL0     H 8360   0.374   7.836   6.186 -3.0933 -1.3282 -3.2079
   62MOL0     H 8361   0.400   7.736   6.042  1.9317 -3.4736 -0.2707
   62MOL0     H 8362   0.474   7.656   6.327  0.5380  1.8503 -1.3397
   62MOL0     H 8363   0.483   7.562   6.183 -0.1934  1.0995 -1.8703
   62MOL0     H 8364   0.302   7.474   6.263 -1.7883 -0.4360 -1.1529
   62MOL0     H 8365   0.239   7.595   6.140 -4.8180 -0.8196  2.2719
   62MOL0     H 8366   0.239   7.745   6.368  0.1164 -0.0894  1.8357
   62MOL0     H 8367   0.194   7.595   6.440 -2.0100  4.5382  1.1110
   62MOL0     H 8368  -0.169   7.673   6.264 -1.0887 -2.7278 -3.5057
   62MOL0     H 8369   0.468   7.891   5.910 -0.5747  0.3996  3.4510
   62MOL0     H 8370   0.558   8.045   5.766  1.2696 -1.4876 -1.3986
   63MOL0     O 8371   8.688   9.864   5.326 -0.5161  0.2456 -0.4084
   63MOL0     C 8372   8.609   9.951   5.282 -0.7619 -0.0735  0.1631
   63MOL0     O 8373   8.609  10.008   5.155  0.3469 -0.8612 -1.5944
   63MOL0     C 8374   8.726   9.977   5.077 -0.4473  0.3090 -0.0351
   63MOL0     C 8375   8.729   9.874   4.980 -0.1044  0.3913 -0.0276
   63MOL0     C 8376   8.856   9.836   4.926 -0.4204 -0.1027  0.7197
   63MOL0     C 8377   8.972   9.906   4.972  0.1990  0.3612 -0.1339
   63MOL0     O 8378   9.104   9.879   4.935 -1.0806 -0.0153  0.1309
   63MOL0     C 8379   9.154   9.776   4.852  0.3783  0.0765 -0.6008
   63MOL0     C 8380   9.266   9.833   4.761  0.4402 -0.3345 -0.3705
   63MOL0     C 8381   9.383   9.871   4.850 -0.7325 -0.0987  0.4015
   63MOL0     C 8382   9.473   9.964   4.760 -0.3727  0.2450 -0.6425
   63MOL0     C 8383   9.592  10.006   4.851 -0.5473  0.5071 -1.3844
   63MOL0     C 8384   9.672  10.112   4.776 -0.3064  0.1071 -0.7695
   63MOL0     C 8385   9.796  10.145   4.866 -0.5509  0.1456 -0.0643
   63MOL0     C 8386   9.905  10.219   4.787 -0.6509  0.3262  0.1836
   63MOL0     N 8387   9.883  10.365   4.743  0.0441  0.5178 -0.2241
   63MOL0     C 8388   9.869  10.474   4.829 -0.5068  1.4413 -0.3176
   63MOL0     C 8389   9.834  10.579   4.751  0.6024  0.1116 -0.0946
   63MOL0     C 8390   9.814  10.715   4.796 -0.4605  0.3995  0.0368
   63MOL0     C 8391   9.669  10.738   4.837  0.2414  0.3667 -0.5104
   63MOL0     C 8392   9.565  10.705   4.721 -0.1556 -0.9982  0.6786
   63MOL0     C 8393   9.583  10.778   4.587  0.6784  0.2763 -0.1204
   63MOL0     O 8394   9.624  10.912   4.609 -0.1161 -0.1566 -0.5283
   63MOL0     C 8395   9.613  11.002   4.502 -0.3350 -1.5053 -0.5406
   63MOL0     C 8396   9.619  11.144   4.527  0.8180  0.7401 -0.0250
   63MOL0     C 8397   9.604  11.244   4.422 -0.3060  0.4968  0.5171
   63MOL0     C 8398   9.599  11.392   4.455  0.7975 -0.0868  0.8360
   63MOL0     C 8399   9.579  11.195   4.287 -0.6245 -0.4203  0.0791
   63MOL0     C 8400   9.559  11.280   4.173  0.9226 -0.5597  0.1776
   63MOL0     O 8401   9.640  11.393   4.159  0.0880  0.0124 -0.7395
   63MOL0     C 8402   9.587  11.489   4.077  0.2083  0.7863  0.5928
   63MOL0     C 8403   9.478  11.567   4.106  0.7815  0.7553  0.2050
   63MOL0     C 8404   9.444  11.668   4.024  0.7704  0.4796  0.8761
   63MOL0     C 8405   9.515  11.700   3.898 -0.9569 -0.1620  0.4247
   63MOL0     O 8406   9.487  11.790   3.800  0.6175 -0.9462  0.0848
   63MOL0     C 8407   9.400  11.899   3.839 -0.1060 -0.0807  0.4769
   63MOL0     C 8408   9.378  11.983   3.709 -0.2758 -0.0011  0.4348
   63MOL0     C 8409   9.292  12.108   3.727  0.2299 -0.3526 -0.8807
   63MOL0     C 8410   9.276  12.187   3.595  0.1493  0.0565 -0.4934
   63MOL0     C 8411   9.157  12.292   3.623 -0.1561 -0.6253 -0.2990
   63MOL0     C 8412   9.149  12.408   3.532 -0.7626 -0.5150 -0.7794
   63MOL0     C 8413   9.159  12.395   3.380  0.2687  0.1318  0.8203
   63MOL0     C 8414   9.210  12.519   3.308  0.2675  0.6868 -0.4143
   63MOL0    Cl 8415   9.389  12.505   3.320 -0.0655 -0.3720  0.0507
   63MOL0     C 8416   9.634  11.635   3.873 -0.1354  0.7987  0.3807
   63MOL0     C 8417   9.665  11.524   3.959 -0.0971 -0.3513 -0.7432
   63MOL0     O 8418   9.463  11.247   4.102  0.5049  0.1141  0.2753
   63MOL0     C 8419   9.578  11.054   4.260  0.2068 -0.5942 -0.4143
   63MOL0     C 8420   9.592  10.960   4.373 -0.3757 -0.7593  0.0539
   63MOL0     N 8421   9.825  10.532   4.624  0.7900  1.5217 -0.4823
   63MOL0     N 8422   9.842  10.405   4.617 -1.2055 -0.2257 -0.6485
   63MOL0     C 8423   8.962  10.010   5.058 -0.5547  0.3055  1.1310
   63MOL0     C 8424   8.839  10.050   5.108 -0.7999 -0.5243  0.6349
   63MOL0     C 8425   8.491   9.975   5.376 -1.2750 -0.0943  0.2215
   63MOL0     C 8426   8.482   9.916   5.502 -0.7210 -0.0671 -0.3567
   63MOL0     C 8427   8.377   9.931   5.586  1.1852  0.4550  0.4129
   63MOL0     C 8428   8.272  10.016   5.542 -0.6787  0.3651  0.5081
   63MOL0     O 8429   8.167  10.043   5.627 -0.2976 -0.6328  0.6946
   63MOL0     C 8430   8.172  10.018   5.770 -0.1618 -0.2005  0.4386
   63MOL0     C 8431   8.054  10.090   5.845  0.0270  0.3588 -0.3074
   63MOL0     C 8432   7.905  10.030   5.841  0.6558  0.0280  0.4532
   63MOL0     C 8433   7.808  10.137   5.861  0.5375 -0.0176 -0.7647
   63MOL0     C 8434   7.678  10.101   5.801  0.0210 -0.5855  0.2838
   63MOL0     C 8435   7.582  10.068   5.743  0.4627 -0.4681  0.0876
   63MOL0     C 8436   8.291  10.082   5.419  0.2665 -0.7411  0.1321
   63MOL0     C 8437   8.397  10.068   5.334 -0.0610  0.3588 -0.4495
   63MOL0     H 8438   8.640   9.814   4.966  0.3108 -0.6206  1.5035
   63MOL0     H 8439   8.878   9.743   4.874  1.3148  0.3378  0.6093
   63MOL0     H 8440   9.187   9.707   4.930 -2.7105 -3.2647 -1.9755
   63MOL0     H 8441   9.074   9.726   4.797 -3.2140 -0.6446  4.6515
   63MOL0     H 8442   9.295   9.767   4.678  0.4974 -1.7136  0.7142
   63MOL0     H 8443   9.216   9.921   4.720  2.1606 -0.1298 -2.1856
   63MOL0     H 8444   9.364   9.937   4.935 -0.0732  1.5235 -0.6516
   63MOL0     H 8445   9.432   9.778   4.880  0.8526  0.4631 -0.3414
   63MOL0     H 8446   9.505   9.910   4.670  3.0239 -2.0984  1.7208
   63MOL0     H 8447   9.422  10.051   4.717 -0.5912  1.2023  1.4441
   63MOL0     H 8448   9.563  10.040   4.951 -0.2393 -4.9471  0.8767
   63MOL0     H 8449   9.653   9.917   4.867 -0.1958  0.8503 -0.7701
   63MOL0     H 8450   9.698  10.092   4.671 -3.1153  1.6653 -1.8610
   63MOL0     H 8451   9.611  10.202   4.765  1.6254  1.4228 -1.3223
   63MOL0     H 8452   9.772  10.216   4.946  0.9647  2.5902 -1.6461
   63MOL0     H 8453   9.847  10.059   4.911  0.6957 -0.2227 -2.0754
   63MOL0     H 8454   9.916  10.162   4.695 -1.2773  0.6364 -0.0900
   63MOL0     H 8455   9.996  10.201   4.845  0.1369  2.7065 -0.1971
   63MOL0     H 8456   9.906  10.488   4.930 -1.5502  1.5787  0.0532
   63MOL0     H 8457   9.875  10.717   4.887  1.3787 -3.3257 -0.9310
   63MOL0     H 8458   9.845  10.780   4.713 -2.9867  1.5236 -0.1061
   63MOL0     H 8459   9.661  10.838   4.881 -0.4453 -0.4069  1.2153
   63MOL0     H 8460   9.639  10.675   4.921 -2.1193  0.2015 -1.3820
   63MOL0     H 8461   9.467  10.729   4.762  1.2562  3.3847  2.0422
   63MOL0     H 8462   9.569  10.596   4.707  0.5993 -1.2309  2.4496
   63MOL0     H 8463   9.486  10.782   4.538  0.4116  1.2896  0.4443
   63MOL0     H 8464   9.655  10.721   4.529 -0.6776 -2.1971  0.4931
   63MOL0     H 8465   9.628  11.170   4.632 -0.9794 -1.8168  0.8562
   63MOL0     H 8466   9.619  11.406   4.562  2.3495  1.9391  0.3301
   63MOL0     H 8467   9.676  11.444   4.398 -0.0342 -2.7160 -3.1653
   63MOL0     H 8468   9.499  11.426   4.427  1.9869  0.9186 -2.7219
   63MOL0     H 8469   9.409  11.535   4.184  0.9991  0.4264  0.2616
   63MOL0     H 8470   9.354  11.725   4.047  1.0470  1.0392  0.5895
   63MOL0     H 8471   9.306  11.866   3.884 -0.6006 -1.3494 -1.3921
   63MOL0     H 8472   9.453  11.958   3.915  1.0338  1.5955 -1.5390
   63MOL0     H 8473   9.479  12.023   3.694 -0.3005 -0.2746 -0.5238
   63MOL0     H 8474   9.346  11.922   3.624 -3.4955 -1.6288  2.5983
   63MOL0     H 8475   9.325  12.172   3.810  1.4375 -1.3865 -0.5291
   63MOL0     H 8476   9.192  12.081   3.761  0.3178 -0.5421 -0.7700
   63MOL0     H 8477   9.369  12.242   3.576  2.7147 -3.5486  0.5377
   63MOL0     H 8478   9.247  12.127   3.508 -0.3643  2.4681 -2.0884
   63MOL0     H 8479   9.160  12.324   3.727 -0.9476 -0.4546 -0.3219
   63MOL0     H 8480   9.060  12.243   3.609 -2.1905  2.7611  0.9430
   63MOL0     H 8481   9.056  12.461   3.554 -0.3709 -0.1860  0.1330
   63MOL0     H 8482   9.233  12.471   3.564  0.6590 -2.8773  0.3509
   63MOL0     H 8483   9.064  12.370   3.331  0.5926  1.6994 -0.7062
   63MOL0     H 8484   9.217  12.306   3.354  0.8206  1.1757 -1.8136
   63MOL0     H 8485   9.168  12.607   3.357 -0.9005  0.6069 -1.2343
   63MOL0     H 8486   9.171  12.509   3.206 -1.1149 -1.6423  0.2597
   63MOL0     H 8487   9.691  11.660   3.784 -1.7305  1.0957 -0.6012
   63MOL0     H 8488   9.748  11.461   3.928  0.8968  0.3093  0.4923
   63MOL0     H 8489   9.557  11.013   4.162 -1.8072  1.4580 -0.9369
   63MOL0     H 8490   9.580  10.854   4.353  0.5285 -0.7904 -0.3556
   63MOL0     H 8491   9.054  10.059   5.086 -0.5148  2.2859 -1.9077
   63MOL0     H 8492   8.836  10.121   5.189  0.5371  0.4877 -0.1723
   63MOL0     H 8493   8.566   9.856   5.534  0.5215  1.6354 -0.3380
   63MOL0     H 8494   8.372   9.892   5.687  1.9098 -2.4976 -0.6092
   63MOL0     H 8495   8.181   9.911   5.790 -0.4256 -0.2323  0.3897
   63MOL0     H 8496   8.268  10.053   5.809 -0.9016  0.7398  1.4934
   63MOL0     H 8497   8.054  10.191   5.803 -0.6470 -0.1947 -1.6894
   63MOL0     H 8498   8.072  10.090   5.953 -3.3930  0.5627  0.3757
   63MOL0     H 8499   7.879   9.966   5.925  0.9449  2.6609  2.6904
   63MOL0     H 8500   7.893   9.985   5.742 -0.6983  3.6090 -1.1977
   63MOL0     H 8501   7.838  10.230   5.812 -1.8581  1.4122  0.2888
   63MOL0     H 8502   7.789  10.163   5.966 -0.4307  0.2284 -0.9942
   63MOL0     H 8503   7.499  10.041   5.681 -1.6068  2.7061  1.2229
   63MOL0     H 8504   8.215  10.158   5.401 -2.3018 -3.0619  0.6161
   63MOL0     H 8505   8.418  10.138   5.254 -2.0934  2.7628  0.9738
   64MOL0     O 8506   0.752   7.724   7.585  0.5484 -0.0127  0.2305
   64MOL0     C 8507   0.741   7.684   7.466 -0.3214 -0.9005  0.0995
   64MOL0     O 8508   0.778   7.764   7.352  0.1282  0.7001  0.0847
   64MOL0     C 8509   0.853   7.876   7.376  0.3301 -0.3670 -0.1631
   64MOL0     C 8510   0.969   7.902   7.295  0.5800  0.7841 -1.3182
   64MOL0     C 8511   1.028   8.026   7.298  0.4635 -0.7487 -0.0105
   64MOL0     C 8512   0.975   8.130   7.374  0.7889 -0.5575  1.0024
   64MOL0     O 8513   1.055   8.249   7.367  0.0061  0.2055 -0.2933
   64MOL0     C 8514   1.077   8.321   7.480  0.4718 -0.6372 -1.1301
   64MOL0     C 8515   1.141   8.460   7.460  0.1845 -0.9928  0.6286
   64MOL0     C 8516   1.048   8.554   7.394  0.5600 -0.5430 -0.1417
   64MOL0     C 8517   1.099   8.607   7.259  0.4926 -0.2131 -0.3503
   64MOL0     C 8518   1.008   8.720   7.212  1.1450 -0.6738 -0.8133
   64MOL0     C 8519   1.055   8.793   7.087 -0.8956 -0.6589 -0.0537
   64MOL0     C 8520   1.126   8.932   7.100 -1.1112 -0.5627 -0.5139
   64MOL0     C 8521   1.038   9.055   7.153 -0.9338  0.1345 -0.7559
   64MOL0     N 8522   0.911   9.088   7.089  0.3417 -0.2175  0.3530
   64MOL0     C 8523   0.893   9.172   6.980  0.8618 -1.1752 -0.2177
   64MOL0     C 8524   0.758   9.160   6.953  0.3858  0.6493  0.2481
   64MOL0     C 8525   0.685   9.214   6.827  0.0122 -0.7385 -1.4934
   64MOL0     C 8526   0.550   9.276   6.855  0.3324 -1.2010  0.9920
   64MOL0     C 8527   0.550   9.378   6.976  0.3208 -1.3453  0.7241
   64MOL0     C 8528   0.438   9.477   6.964  0.1324 -0.6099 -0.0033
   64MOL0     O 8529   0.435   9.550   6.834  0.1394 -0.1852  0.3536
   64MOL0     C 8530   0.444   9.689   6.851  1.3014  0.6666 -1.0524
   64MOL0     C 8531   0.335   9.765   6.885  0.1378 -0.4818 -0.3192
   64MOL0     C 8532   0.345   9.905   6.890 -1.1735 -0.3097 -1.5982
   64MOL0     C 8533   0.227   9.995   6.905  0.7068 -0.2111  0.0576
   64MOL0     C 8534   0.479   9.970   6.856 -0.5772 -0.1746  0.3618
   64MOL0     C 8535   0.515  10.119   6.846 -0.1890  0.7081  0.1197
   64MOL0     O 8536   0.654  10.146   6.835  0.4699  0.0722  0.1525
   64MOL0     C 8537   0.687  10.277   6.823 -0.5721  0.0786 -0.3005
   64MOL0     C 8538   0.675  10.389   6.912  0.2670  0.8903  1.1707
   64MOL0     C 8539   0.731  10.508   6.882 -0.0500 -0.1102  0.2055
   64MOL0     C 8540   0.775  10.538   6.756  0.4437 -0.5078  0.8379
   64MOL0     O 8541   0.822  10.672   6.738  0.5379  1.1800  0.2699
   64MOL0     C 8542   0.861  10.716   6.611 -0.0480 -0.1157 -0.7468
   64MOL0     C 8543   0.868  10.864   6.629 -0.0678 -0.3351 -0.4814
   64MOL0     C 8544   0.731  10.927   6.661 -0.3042 -0.1980  0.7245
   64MOL0     C 8545   0.722  11.061   6.597 -0.8694 -0.5347 -0.2093
   64MOL0     C 8546   0.701  11.057   6.438 -0.0089  0.3374 -0.5067
   64MOL0     C 8547   0.707  11.199   6.384 -1.0720 -0.0943 -0.0910
   64MOL0     C 8548   0.736  11.192   6.222 -0.2032 -0.3234 -0.9118
   64MOL0     C 8549   0.664  11.307   6.150 -0.4555  0.8165 -1.4478
   64MOL0    Cl 8550   0.693  11.288   5.974  0.2411 -0.1355  0.0379
   64MOL0     C 8551   0.770  10.437   6.655 -0.3060 -0.5572 -0.9262
   64MOL0     C 8552   0.736  10.306   6.694 -0.5941  0.8463  0.3258
   64MOL0     O 8553   0.428  10.208   6.838  0.2679 -0.2699  0.5793
   64MOL0     C 8554   0.586   9.881   6.831 -1.0915 -0.3085 -0.5152
   64MOL0     C 8555   0.572   9.738   6.831 -0.2537 -0.6035 -1.0366
   64MOL0     N 8556   0.699   9.076   7.054 -0.8124 -0.4188  0.5595
   64MOL0     N 8557   0.798   9.019   7.121  0.5064  0.0905 -0.6228
   64MOL0     C 8558   0.870   8.107   7.464 -0.3318  0.8765 -0.2504
   64MOL0     C 8559   0.805   7.983   7.458  0.1960  0.2980  0.6514
   64MOL0     C 8560   0.684   7.552   7.442 -0.2807  0.6928 -0.1325
   64MOL0     C 8561   0.647   7.517   7.313 -0.1094  0.0490 -0.5719
   64MOL0     C 8562   0.608   7.391   7.281  0.3877  0.5518 -0.1071
   64MOL0     C 8563   0.603   7.295   7.387  0.2413  0.4359 -0.2398
   64MOL0     O 8564   0.551   7.167   7.381  0.3372 -0.2967  0.3433
   64MOL0     C 8565   0.556   7.105   7.245 -0.3346  0.5335 -1.1371
   64MOL0     C 8566   0.511   6.958   7.282 -0.2266  0.1158  0.6408
   64MOL0     C 8567   0.626   6.875   7.327  0.3386 -0.3903  0.3642
   64MOL0     C 8568   0.570   6.742   7.378  0.7517  0.7967  0.1890
   64MOL0     C 8569   0.486   6.752   7.496  0.4892  0.1121 -0.1764
   64MOL0     C 8570   0.428   6.779   7.601  1.0347 -0.1579 -0.2078
   64MOL0     C 8571   0.637   7.328   7.513  0.0294 -0.5645 -0.0744
   64MOL0     C 8572   0.684   7.455   7.541  0.3545 -0.4180 -0.7050
   64MOL0     H 8573   0.999   7.817   7.234 -0.1513 -0.3811 -0.1195
   64MOL0     H 8574   1.115   8.020   7.233  3.2702  0.9436  3.2452
   64MOL0     H 8575   0.986   8.332   7.538  1.3093  1.6244 -0.1197
   64MOL0     H 8576   1.146   8.265   7.544  1.4432  0.4232 -1.2100
   64MOL0     H 8577   1.167   8.502   7.558 -1.7307 -0.6890  1.0389
   64MOL0     H 8578   1.232   8.447   7.401  0.2961 -0.1980  0.6157
   64MOL0     H 8579   0.957   8.494   7.383  1.0130 -1.1363 -0.7824
   64MOL0     H 8580   1.035   8.629   7.471 -0.8010 -1.6029  0.6991
   64MOL0     H 8581   1.202   8.641   7.276  1.6046 -3.2093 -0.4725
   64MOL0     H 8582   1.109   8.526   7.186  1.8498  0.9829 -1.5528
   64MOL0     H 8583   0.909   8.678   7.190 -0.0038  0.8799  1.0822
   64MOL0     H 8584   0.998   8.791   7.294  2.7530 -0.4896 -0.7547
   64MOL0     H 8585   1.122   8.727   7.032  1.9081  1.2713  0.8109
   64MOL0     H 8586   0.971   8.828   7.026  0.1130  0.1059 -1.0314
   64MOL0     H 8587   1.213   8.917   7.164 -0.3426  1.0086 -1.1346
   64MOL0     H 8588   1.176   8.956   7.005  1.2755  0.3455  0.8924
   64MOL0     H 8589   1.106   9.137   7.128 -2.6227  1.9314  0.3446
   64MOL0     H 8590   1.013   9.056   7.259 -2.7816  1.0010 -1.1665
   64MOL0     H 8591   0.963   9.220   6.913  0.5475 -3.6604 -2.5189
   64MOL0     H 8592   0.743   9.288   6.771  1.8402  0.8654  2.1387
   64MOL0     H 8593   0.653   9.135   6.759  1.0346 -0.9519 -1.7408
   64MOL0     H 8594   0.465   9.211   6.877 -0.3436 -0.1089  1.7264
   64MOL0     H 8595   0.524   9.319   6.758 -2.8129 -2.1815  1.3114
   64MOL0     H 8596   0.645   9.432   6.971  0.7443 -2.0621  0.8258
   64MOL0     H 8597   0.547   9.331   7.074 -2.1192  0.5661  1.6514
   64MOL0     H 8598   0.427   9.540   7.052  1.7446  1.6496 -1.3135
   64MOL0     H 8599   0.347   9.417   6.951  0.8620 -1.1520 -3.9605
   64MOL0     H 8600   0.243   9.717   6.916 -0.0736  1.8249  3.2858
   64MOL0     H 8601   0.145   9.938   6.949 -2.0292  3.4003  0.1059
   64MOL0     H 8602   0.241  10.080   6.973 -2.3420  0.6762 -0.2870
   64MOL0     H 8603   0.200  10.034   6.807 -1.1792  2.8798  1.6287
   64MOL0     H 8604   0.622  10.376   7.006 -0.0155 -0.3526  0.8683
   64MOL0     H 8605   0.707  10.583   6.956 -1.1654 -0.6284  0.3895
   64MOL0     H 8606   0.960  10.676   6.588 -1.2823 -2.7337 -1.9927
   64MOL0     H 8607   0.802  10.690   6.523 -0.6878 -0.0787 -0.3340
   64MOL0     H 8608   0.932  10.898   6.712 -1.9290  1.4868  0.3235
   64MOL0     H 8609   0.912  10.905   6.538  0.5518 -1.1576 -0.5562
   64MOL0     H 8610   0.708  10.932   6.768 -4.2480 -1.5259  0.1026
   64MOL0     H 8611   0.652  10.861   6.622 -0.8219 -1.1149  3.0910
   64MOL0     H 8612   0.641  11.122   6.640  0.2739  2.5222 -2.0602
   64MOL0     H 8613   0.815  11.114   6.621 -0.0149 -0.0759 -4.0073
   64MOL0     H 8614   0.606  11.007   6.416  0.1017  0.5940 -1.6726
   64MOL0     H 8615   0.771  11.003   6.374  0.1511 -0.3487  0.2424
   64MOL0     H 8616   0.621  11.262   6.407  1.4134  2.2251  4.1591
   64MOL0     H 8617   0.794  11.253   6.421  1.4317 -3.7831 -0.0571
   64MOL0     H 8618   0.702  11.099   6.175 -1.8773 -0.4846  0.5285
   64MOL0     H 8619   0.843  11.196   6.197 -0.4829 -0.9878 -2.3579
   64MOL0     H 8620   0.678  11.409   6.187 -0.3531 -0.1437  1.4178
   64MOL0     H 8621   0.558  11.288   6.169 -0.4024  1.0885 -0.8491
   64MOL0     H 8622   0.811  10.457   6.557  1.4483  0.1490 -0.0828
   64MOL0     H 8623   0.737  10.224   6.623 -0.1132  2.4897 -1.6940
   64MOL0     H 8624   0.689   9.911   6.814 -0.6127 -0.8301  1.2755
   64MOL0     H 8625   0.664   9.686   6.807  0.2017 -0.7937  0.9791
   64MOL0     H 8626   0.831   8.180   7.533  0.6739  0.9702  0.2318
   64MOL0     H 8627   0.720   7.957   7.520 -1.7731 -1.0280 -2.4033
   64MOL0     H 8628   0.646   7.592   7.235  0.2058  1.7785  1.0045
   64MOL0     H 8629   0.571   7.367   7.182 -2.1043  0.0670  0.8741
   64MOL0     H 8630   0.499   7.159   7.170 -2.0702 -0.4739 -0.5936
   64MOL0     H 8631   0.658   7.097   7.206 -0.8224  0.4192 -2.4206
   64MOL0     H 8632   0.473   6.914   7.189 -2.7673  0.5305  1.4114
   64MOL0     H 8633   0.427   6.965   7.352 -0.3698  1.5418  0.3506
   64MOL0     H 8634   0.677   6.916   7.415  1.2636 -0.1453 -0.2734
   64MOL0     H 8635   0.697   6.869   7.245 -0.2882 -3.1789 -0.0550
   64MOL0     H 8636   0.649   6.670   7.400 -0.4395 -0.7286 -0.3403
   64MOL0     H 8637   0.502   6.695   7.306  0.0016  3.0042 -0.6440
   64MOL0     H 8638   0.376   6.808   7.691  2.2750  4.5064 -0.7678
   64MOL0     H 8639   0.633   7.261   7.598 -0.9453  0.5767  0.8110
   64MOL0     H 8640   0.694   7.480   7.646 -1.0119 -1.0413 -0.3953
   65MOL0     O 8641   9.973   3.192   6.659 -0.0919  0.4575  0.2041
   65MOL0     C 8642   9.953   3.074   6.678  0.7212 -0.1241  0.2782
   65MOL0     O 8643   9.964   2.978   6.586 -0.6307  0.2818 -0.3577
   65MOL0     C 8644  10.011   3.001   6.463 -0.7811 -0.0068 -0.4723
   65MOL0     C 8645   9.959   2.929   6.349  0.1809  0.2586 -0.2108
   65MOL0     C 8646  10.020   2.930   6.226 -0.5465  0.5446  0.1455
   65MOL0     C 8647  10.139   3.006   6.211  0.9657 -0.0249 -0.6804
   65MOL0     O 8648  10.184   3.002   6.083 -0.1158 -1.1650  0.3409
   65MOL0     C 8649  10.280   3.103   6.050 -0.5860 -0.0922  0.7985
   65MOL0     C 8650  10.311   3.101   5.900 -0.3972 -0.0261  0.7885
   65MOL0     C 8651  10.381   2.976   5.853 -0.3646 -0.5927  0.6894
   65MOL0     C 8652  10.367   2.990   5.696  0.3015  0.6206 -0.8929
   65MOL0     C 8653  10.416   2.871   5.623 -0.3007  0.4279  0.3831
   65MOL0     C 8654  10.439   2.891   5.461  0.7269  0.5441  1.0647
   65MOL0     C 8655  10.487   2.773   5.380 -0.1222  1.4081 -0.2299
   65MOL0     C 8656  10.599   2.818   5.274 -0.2008 -0.6044 -0.2783
   65MOL0     N 8657  10.540   2.880   5.152 -0.7868 -1.0407 -0.6390
   65MOL0     C 8658  10.519   3.019   5.123 -1.2243 -0.0966  0.3036
   65MOL0     C 8659  10.431   3.024   5.027 -1.6725 -0.8928 -0.8243
   65MOL0     C 8660  10.367   3.148   4.981  0.2475 -0.3240  0.9687
   65MOL0     C 8661  10.228   3.179   5.032 -1.2529  0.6178 -0.4792
   65MOL0     C 8662  10.219   3.226   5.181  0.4484  1.1622  0.1119
   65MOL0     C 8663  10.085   3.301   5.212  0.3754  0.4707 -0.6583
   65MOL0     O 8664  10.056   3.300   5.351  0.0685 -1.0352  0.2503
   65MOL0     C 8665  10.134   3.379   5.429  0.5374 -0.0699  0.2955
   65MOL0     C 8666  10.219   3.487   5.396  0.0517 -1.0981  0.5224
   65MOL0     C 8667  10.307   3.550   5.490  0.1409  0.0326  0.3642
   65MOL0     C 8668  10.396   3.666   5.442 -0.1558 -0.9070  0.1367
   65MOL0     C 8669  10.306   3.504   5.627 -0.4220  0.2729 -0.0871
   65MOL0     C 8670  10.386   3.558   5.743  0.2790  0.9311  0.0073
   65MOL0     O 8671  10.395   3.486   5.848 -0.1076 -0.0045  0.8506
   65MOL0     C 8672  10.515   3.499   5.914 -0.0199 -0.0150  0.6713
   65MOL0     C 8673  10.506   3.508   6.054 -0.4217 -0.0862  0.8527
   65MOL0     C 8674  10.618   3.545   6.140 -0.1849  0.1833  0.8274
   65MOL0     C 8675  10.741   3.543   6.081 -0.3770  0.7186 -0.5913
   65MOL0     O 8676  10.853   3.565   6.167 -0.0711  0.5377  0.2897
   65MOL0     C 8677  10.962   3.470   6.158  0.4575 -0.1766  0.2486
   65MOL0     C 8678  11.035   3.477   6.294 -0.1214 -0.0841 -0.0629
   65MOL0     C 8679  10.954   3.473   6.422 -0.6459  1.0259  0.7200
   65MOL0     C 8680  11.044   3.479   6.543 -0.5765 -0.6869 -0.1167
   65MOL0     C 8681  10.948   3.483   6.660 -0.2756  0.1983 -0.7584
   65MOL0     C 8682  10.880   3.621   6.660  0.4292 -0.6362 -0.0314
   65MOL0     C 8683  10.789   3.624   6.779 -0.5414 -0.0341  0.0490
   65MOL0     C 8684  10.702   3.750   6.781 -0.7322 -1.1656 -0.6087
   65MOL0    Cl 8685  10.562   3.714   6.882  0.1921  0.5372  0.0243
   65MOL0     C 8686  10.757   3.522   5.946  0.2416  0.4965  0.6199
   65MOL0     C 8687  10.645   3.507   5.859  0.8053  0.1165 -0.0409
   65MOL0     O 8688  10.431   3.671   5.734 -0.9860  0.9193  0.2283
   65MOL0     C 8689  10.216   3.390   5.653  0.9353 -0.4604 -0.9077
   65MOL0     C 8690  10.141   3.322   5.563 -0.7527  0.1673 -0.2848
   65MOL0     N 8691  10.415   2.891   4.976 -0.3674  0.1098 -0.2540
   65MOL0     N 8692  10.474   2.807   5.064  0.8521 -0.0100 -0.2886
   65MOL0     C 8693  10.204   3.050   6.323 -0.1505 -0.2769 -0.7215
   65MOL0     C 8694  10.134   3.046   6.447  0.7129 -0.5815 -0.2444
   65MOL0     C 8695   9.884   3.032   6.801 -0.1219  0.2560 -0.7623
   65MOL0     C 8696   9.842   2.899   6.825  0.7121  0.0272 -0.0776
   65MOL0     C 8697   9.769   2.863   6.948  0.4295 -0.5433  0.3157
   65MOL0     C 8698   9.746   2.964   7.047 -0.0510 -0.4070  0.5778
   65MOL0     O 8699   9.678   2.919   7.154 -0.6980 -1.2379 -0.9597
   65MOL0     C 8700   9.610   3.019   7.241 -0.1994  0.9549  1.1416
   65MOL0     C 8701   9.488   3.070   7.166 -0.2814  0.1265  0.1225
   65MOL0     C 8702   9.387   2.955   7.149  0.1341  0.7968  0.2432
   65MOL0     C 8703   9.246   3.000   7.148 -0.4405  0.3456 -0.5648
   65MOL0     C 8704   9.158   2.889   7.112 -0.9405  0.6635 -0.1407
   65MOL0     C 8705   9.094   2.784   7.097 -0.9427 -0.1006  0.7157
   65MOL0     C 8706   9.784   3.101   7.019 -0.3342  0.9884  0.6158
   65MOL0     C 8707   9.850   3.133   6.901 -0.8324  0.4043  0.6204
   65MOL0     H 8708   9.860   2.887   6.364  1.4616 -2.7359  0.5985
   65MOL0     H 8709   9.973   2.879   6.143 -2.0865  0.2271  1.1713
   65MOL0     H 8710  10.234   3.198   6.078 -3.8174 -1.8780  2.1778
   65MOL0     H 8711  10.371   3.097   6.111 -0.9987  2.5888  1.8024
   65MOL0     H 8712  10.224   3.137   5.843  0.5564  0.9081 -0.1405
   65MOL0     H 8713  10.369   3.192   5.879 -2.6722  0.9831 -1.8504
   65MOL0     H 8714  10.487   2.972   5.880 -0.1983  3.0083  0.9987
   65MOL0     H 8715  10.322   2.895   5.897  1.6738 -0.7321  3.4156
   65MOL0     H 8716  10.260   2.997   5.673  0.4388 -1.8753 -2.7012
   65MOL0     H 8717  10.421   3.079   5.664  2.9101 -0.8985 -0.9895
   65MOL0     H 8718  10.516   2.845   5.660  0.7470  0.9017 -1.9437
   65MOL0     H 8719  10.335   2.800   5.643 -3.6105  4.1711  1.6580
   65MOL0     H 8720  10.356   2.941   5.410  1.7909  1.4725  0.1751
   65MOL0     H 8721  10.511   2.972   5.446  0.2067  0.3656 -5.6194
   65MOL0     H 8722  10.518   2.688   5.441 -0.5546  0.9013 -0.6960
   65MOL0     H 8723  10.400   2.734   5.328  1.1562  0.0816 -1.4876
   65MOL0     H 8724  10.657   2.731   5.241 -0.4271 -0.0917 -2.1430
   65MOL0     H 8725  10.673   2.881   5.324  0.3230 -2.8518  1.9516
   65MOL0     H 8726  10.560   3.109   5.169 -1.5567 -1.1377  2.7930
   65MOL0     H 8727  10.434   3.229   5.013 -0.0002 -0.4842  1.9343
   65MOL0     H 8728  10.371   3.152   4.872 -1.8135  0.8031  0.8941
   65MOL0     H 8729  10.170   3.091   5.004  1.6939 -1.6300  0.0007
   65MOL0     H 8730  10.197   3.261   4.967 -1.8092  0.5878 -0.2548
   65MOL0     H 8731  10.298   3.301   5.191  2.5161 -1.0064  0.8856
   65MOL0     H 8732  10.233   3.138   5.244  3.3055  1.3274 -0.1479
   65MOL0     H 8733  10.004   3.241   5.171  1.7801 -0.1756 -2.6847
   65MOL0     H 8734  10.089   3.405   5.177  1.7741  1.4813  2.1611
   65MOL0     H 8735  10.211   3.521   5.293  2.3953  3.1657  1.5200
   65MOL0     H 8736  10.492   3.661   5.493  0.5740  0.1860 -1.0505
   65MOL0     H 8737  10.409   3.661   5.333 -1.2531 -1.4427  0.0153
   65MOL0     H 8738  10.361   3.767   5.464 -0.9817 -1.3306  0.8249
   65MOL0     H 8739  10.408   3.496   6.098 -0.2659 -1.8648  0.7605
   65MOL0     H 8740  10.615   3.578   6.243  1.2130 -1.9765  1.6201
   65MOL0     H 8741  10.922   3.369   6.149 -2.4538  1.0211 -1.9640
   65MOL0     H 8742  11.019   3.505   6.071 -3.4698  0.2965 -2.4027
   65MOL0     H 8743  11.107   3.397   6.276 -1.2603 -0.6929 -2.2912
   65MOL0     H 8744  11.089   3.570   6.313  1.7269 -1.6574  3.2206
   65MOL0     H 8745  10.901   3.377   6.425  0.2693  0.4339 -1.1097
   65MOL0     H 8746  10.881   3.554   6.412 -0.6585  0.8379 -0.9894
   65MOL0     H 8747  11.103   3.387   6.550 -1.1627 -1.0674 -0.0231
   65MOL0     H 8748  11.104   3.570   6.535 -0.9109 -0.6507 -4.7065
   65MOL0     H 8749  11.008   3.466   6.751 -1.2193 -4.0983 -0.7683
   65MOL0     H 8750  10.891   3.390   6.662  2.0141 -1.4830  4.0066
   65MOL0     H 8751  10.960   3.696   6.658  0.8314 -1.0180  1.0559
   65MOL0     H 8752  10.815   3.643   6.575 -1.4918  0.3279  1.5966
   65MOL0     H 8753  10.846   3.630   6.872 -1.2665 -1.1413  0.5941
   65MOL0     H 8754  10.717   3.543   6.790 -0.6240  0.3788  5.3584
   65MOL0     H 8755  10.676   3.777   6.679 -2.2564  0.6868  0.2077
   65MOL0     H 8756  10.760   3.831   6.827  2.1701 -1.3772 -3.5545
   65MOL0     H 8757  10.858   3.527   5.905 -0.6135  1.2393 -1.5794
   65MOL0     H 8758  10.666   3.492   5.754 -1.5857  1.6437 -0.8116
   65MOL0     H 8759  10.212   3.347   5.752  0.1268 -2.7946 -1.8933
   65MOL0     H 8760  10.075   3.245   5.601  1.3900 -2.1955 -1.0938
   65MOL0     H 8761  10.293   3.109   6.307 -0.8255  0.2881 -2.6597
   65MOL0     H 8762  10.197   3.066   6.534  0.9971 -1.2800 -0.2846
   65MOL0     H 8763   9.864   2.819   6.755  2.3387 -1.1028  1.6516
   65MOL0     H 8764   9.725   2.764   6.956 -1.7297  0.2001 -1.3027
   65MOL0     H 8765   9.585   2.962   7.331 -2.2850 -0.9211 -0.5272
   65MOL0     H 8766   9.687   3.094   7.264  1.2117 -0.7550  2.3616
   65MOL0     H 8767   9.507   3.122   7.071 -1.4199  0.4695  0.0565
   65MOL0     H 8768   9.440   3.151   7.221 -1.3190 -1.6162  1.9267
   65MOL0     H 8769   9.407   2.880   7.226 -0.4011 -0.9264 -1.2210
   65MOL0     H 8770   9.403   2.905   7.054 -1.4755  0.1613  0.2802
   65MOL0     H 8771   9.228   3.079   7.073  1.0248  1.8590  0.6033
   65MOL0     H 8772   9.221   3.039   7.247  1.6255 -0.6602  0.4054
   65MOL0     H 8773   9.049   2.689   7.077  0.3380 -0.1167 -2.7090
   65MOL0     H 8774   9.778   3.181   7.092  0.7973 -0.0009  1.8592
   65MOL0     H 8775   9.880   3.236   6.887  1.9643 -0.1137  1.9611
   66MOL0     O 8776   9.814   5.459   3.547 -0.1645  0.2975  0.2330
   66MOL0     C 8777   9.902   5.382   3.499 -0.2967  0.3244 -0.0366
   66MOL0     O 8778  10.008   5.403   3.413  0.0397 -0.3172 -0.0774
   66MOL0     C 8779  10.022   5.537   3.364  0.7468 -0.2944 -0.2887
   66MOL0     C 8780  10.010   5.650   3.445 -0.7874 -0.2481 -0.6137
   66MOL0     C 8781  10.023   5.782   3.400  0.2374 -0.2374  0.5006
   66MOL0     C 8782  10.049   5.799   3.263 -1.4125 -0.2771  0.3108
   66MOL0     O 8783  10.062   5.921   3.207  0.1227  0.0995 -0.9907
   66MOL0     C 8784   9.963   6.015   3.254 -0.2024 -0.8999  0.5450
   66MOL0     C 8785  10.009   6.140   3.181 -0.8020 -0.0902 -0.7741
   66MOL0     C 8786  10.159   6.184   3.205 -0.0453 -0.2569 -0.2391
   66MOL0     C 8787  10.169   6.334   3.191  0.5648  0.8867  0.0374
   66MOL0     C 8788  10.315   6.387   3.191  0.2482  0.1446  1.4711
   66MOL0     C 8789  10.416   6.334   3.279 -0.4835  0.1719  0.5027
   66MOL0     C 8790  10.445   6.417   3.398  0.1477 -0.3097 -0.5096
   66MOL0     C 8791  10.344   6.403   3.510  0.3322 -0.0711  0.8509
   66MOL0     N 8792  10.354   6.523   3.599 -0.3485  0.2554  0.6571
   66MOL0     C 8793  10.466   6.583   3.661 -1.0290  0.3137  0.3988
   66MOL0     C 8794  10.411   6.688   3.731 -0.2045  0.2486 -0.1759
   66MOL0     C 8795  10.471   6.748   3.859  0.5685 -0.5591 -0.4118
   66MOL0     C 8796  10.396   6.705   3.988 -0.3367  1.1517 -1.6326
   66MOL0     C 8797  10.464   6.762   4.116 -0.7984  0.9541  0.2813
   66MOL0     C 8798  10.372   6.737   4.241  0.3886 -0.8876 -0.5294
   66MOL0     O 8799  10.452   6.739   4.357 -0.3585 -0.0113 -0.1635
   66MOL0     C 8800  10.498   6.854   4.409 -0.4386 -0.2778 -0.4071
   66MOL0     C 8801  10.491   6.989   4.364 -0.2767  0.4455  0.4244
   66MOL0     C 8802  10.549   7.098   4.432 -0.1378 -0.0138 -0.8873
   66MOL0     C 8803  10.530   7.233   4.372 -0.7864 -0.3178 -0.0255
   66MOL0     C 8804  10.608   7.083   4.567  0.3099 -0.3009  0.4017
   66MOL0     C 8805  10.671   7.193   4.652 -0.3983  0.8673  0.0164
   66MOL0     O 8806  10.759   7.162   4.748 -0.4471 -0.0087  0.1117
   66MOL0     C 8807  10.830   7.259   4.816  0.8354  0.5758  0.5763
   66MOL0     C 8808  10.917   7.339   4.737  0.9686  0.6530 -0.0263
   66MOL0     C 8809  11.001   7.433   4.799  0.7550 -0.1330  0.7063
   66MOL0     C 8810  11.009   7.447   4.933  1.1351 -0.5307 -0.8463
   66MOL0     O 8811  11.093   7.539   4.990  0.1277  0.1834 -0.6839
   66MOL0     C 8812  11.035   7.630   5.083 -0.3237 -0.5971  0.4884
   66MOL0     C 8813  11.131   7.739   5.135  0.1471  0.8192  0.2940
   66MOL0     C 8814  11.056   7.876   5.163 -0.4499 -0.0164  0.2550
   66MOL0     C 8815  10.987   7.929   5.036 -0.4937 -0.0922  1.0053
   66MOL0     C 8816  10.909   8.054   5.056  0.7498  0.0049 -1.2234
   66MOL0     C 8817  10.996   8.180   5.088 -0.1790 -0.0173 -0.1943
   66MOL0     C 8818  10.929   8.293   5.169 -0.0402  0.0097 -0.4120
   66MOL0     C 8819  10.797   8.354   5.122  0.4986 -0.4876  0.9660
   66MOL0    Cl 8820  10.763   8.506   5.217  0.3390  0.2460 -0.0094
   66MOL0     C 8821  10.929   7.368   5.012  0.6952  0.6166  0.9704
   66MOL0     C 8822  10.837   7.268   4.956  0.5606  0.7773  0.3853
   66MOL0     O 8823  10.629   7.305   4.642  0.0641 -1.3713 -0.1886
   66MOL0     C 8824  10.619   6.949   4.607 -1.1025  0.0434  0.0453
   66MOL0     C 8825  10.573   6.840   4.529 -0.3738  0.1128 -0.0529
   66MOL0     N 8826  10.273   6.699   3.708 -0.4854 -0.3650  0.0772
   66MOL0     N 8827  10.245   6.595   3.630 -0.0863  0.0802  0.7938
   66MOL0     C 8828  10.062   5.684   3.180  0.0564 -0.0471 -0.4245
   66MOL0     C 8829  10.054   5.556   3.232 -0.3528  0.5318 -0.2284
   66MOL0     C 8830   9.898   5.245   3.558 -0.7502 -0.4776 -0.3600
   66MOL0     C 8831   9.780   5.191   3.610 -0.1242  0.5427  0.5793
   66MOL0     C 8832   9.782   5.052   3.655 -0.3399  0.2180  0.4226
   66MOL0     C 8833   9.893   4.974   3.665  0.0446  0.9169 -0.5997
   66MOL0     O 8834   9.883   4.846   3.727  0.4824  1.1037 -0.4455
   66MOL0     C 8835   9.946   4.830   3.860 -0.0475 -0.4782 -0.2093
   66MOL0     C 8836  10.102   4.808   3.850 -0.3313 -0.5972 -0.7972
   66MOL0     C 8837  10.142   4.682   3.778 -0.3489 -0.3333  0.2424
   66MOL0     C 8838  10.289   4.651   3.774 -0.2371  0.0114 -0.6769
   66MOL0     C 8839  10.366   4.732   3.681 -0.5905 -0.5236  0.4308
   66MOL0     C 8840  10.420   4.811   3.599  1.0328  0.1655 -0.2054
   66MOL0     C 8841  10.012   5.038   3.616  0.1188  0.2505 -0.6689
   66MOL0     C 8842  10.010   5.166   3.555  0.1517  0.7965  0.2538
   66MOL0     H 8843   9.992   5.640   3.551 -1.1063  2.8646 -0.2818
   66MOL0     H 8844  10.024   5.874   3.457  3.4818  0.5828 -0.6934
   66MOL0     H 8845   9.860   5.980   3.244  0.3793 -2.6057  0.0526
   66MOL0     H 8846   9.969   6.039   3.360 -2.9159 -1.2700  0.8380
   66MOL0     H 8847  10.004   6.119   3.074 -1.5581 -0.2314 -0.7198
   66MOL0     H 8848   9.950   6.228   3.208 -1.4416 -0.6947 -0.1341
   66MOL0     H 8849  10.204   6.136   3.293 -1.7658 -2.2239 -0.3531
   66MOL0     H 8850  10.224   6.147   3.125  3.5721 -2.8372  3.4799
   66MOL0     H 8851  10.122   6.354   3.094  0.6382  0.6266 -0.0530
   66MOL0     H 8852  10.126   6.382   3.279  1.2673  2.7130 -0.5853
   66MOL0     H 8853  10.363   6.393   3.093  3.7519  2.2999  3.1186
   66MOL0     H 8854  10.296   6.495   3.198  1.7463  0.4760  0.8469
   66MOL0     H 8855  10.383   6.233   3.302  0.9970 -0.5265 -0.3126
   66MOL0     H 8856  10.513   6.315   3.233 -1.2577  1.2476 -1.7769
   66MOL0     H 8857  10.544   6.388   3.434 -0.0062 -1.7954 -1.1988
   66MOL0     H 8858  10.450   6.521   3.362 -0.2533  0.1728  0.7588
   66MOL0     H 8859  10.348   6.306   3.562  0.5989 -2.0772 -2.6432
   66MOL0     H 8860  10.244   6.399   3.465 -0.3387 -0.2266  2.2792
   66MOL0     H 8861  10.559   6.527   3.667 -1.4025 -0.4528 -0.6039
   66MOL0     H 8862  10.578   6.726   3.870  0.3325 -0.7512  2.2246
   66MOL0     H 8863  10.444   6.854   3.852 -2.4756 -1.3294 -1.7899
   66MOL0     H 8864  10.417   6.600   4.007 -1.3298  1.5201  2.3657
   66MOL0     H 8865  10.290   6.727   3.977 -1.3025 -3.0949 -2.3201
   66MOL0     H 8866  10.478   6.870   4.102 -0.8469  0.9196 -0.0223
   66MOL0     H 8867  10.561   6.716   4.138 -0.6927  1.3629  0.6941
   66MOL0     H 8868  10.324   6.639   4.247  2.2633 -1.8156  5.4506
   66MOL0     H 8869  10.286   6.805   4.247 -1.3276 -3.0812  0.9267
   66MOL0     H 8870  10.426   7.001   4.279  1.4846  0.8494 -0.9288
   66MOL0     H 8871  10.446   7.289   4.413 -0.2164  0.4186  0.1548
   66MOL0     H 8872  10.613   7.292   4.412  0.5688 -0.8640 -1.8493
   66MOL0     H 8873  10.532   7.229   4.262  0.2772 -3.9509  0.0124
   66MOL0     H 8874  10.924   7.317   4.631  2.6132 -1.2201  0.4020
   66MOL0     H 8875  11.067   7.491   4.735  0.9215 -1.3645 -0.2969
   66MOL0     H 8876  10.947   7.674   5.036 -0.8345 -1.8083  0.2814
   66MOL0     H 8877  10.999   7.573   5.169 -0.1995 -1.7475 -0.2008
   66MOL0     H 8878  11.187   7.707   5.224  0.3875 -0.6266 -0.3528
   66MOL0     H 8879  11.207   7.763   5.061 -1.3553  2.2986 -0.8174
   66MOL0     H 8880  11.142   7.943   5.178  0.5399 -0.9623 -0.9901
   66MOL0     H 8881  10.989   7.860   5.247 -0.3644 -0.3703  0.2588
   66MOL0     H 8882  11.049   7.941   4.947 -1.1919 -0.6637  0.4268
   66MOL0     H 8883  10.909   7.859   5.004 -1.7049  0.3475  2.8205
   66MOL0     H 8884  10.845   8.044   5.144  0.6571  4.1187 -0.6402
   66MOL0     H 8885  10.853   8.082   4.966 -1.5219 -1.3351 -0.3143
   66MOL0     H 8886  11.081   8.158   5.153 -1.6436  0.3280  1.9742
   66MOL0     H 8887  11.025   8.233   4.997  1.4439 -0.1333  0.2206
   66MOL0     H 8888  10.992   8.381   5.180 -0.8186  0.5276  0.0218
   66MOL0     H 8889  10.907   8.261   5.271 -1.0659  4.2809  0.8934
   66MOL0     H 8890  10.715   8.282   5.133  0.5040 -0.4247  1.4508
   66MOL0     H 8891  10.799   8.380   5.016 -1.8995 -1.1948  0.6829
   66MOL0     H 8892  10.923   7.381   5.119  2.3927  0.9054  1.0499
   66MOL0     H 8893  10.779   7.206   5.025 -3.0388  0.8913 -2.2789
   66MOL0     H 8894  10.673   6.908   4.692  0.4931 -3.6969 -2.5342
   66MOL0     H 8895  10.582   6.738   4.565  2.9101  0.9466  1.8718
   66MOL0     H 8896  10.079   5.704   3.075  3.0670  2.3466  0.3922
   66MOL0     H 8897  10.082   5.470   3.171  1.3754  0.9280 -0.0413
   66MOL0     H 8898   9.699   5.262   3.620  1.3943  2.1763  1.9468
   66MOL0     H 8899   9.690   5.004   3.689 -0.9938  0.5641 -0.8047
   66MOL0     H 8900   9.932   4.921   3.920 -4.7860 -0.6313 -0.7266
   66MOL0     H 8901   9.898   4.750   3.917 -3.1286 -0.5301 -2.6189
   66MOL0     H 8902  10.132   4.796   3.955 -1.6758 -1.4526 -0.4948
   66MOL0     H 8903  10.147   4.897   3.804  1.0322  0.2521  1.9182
   66MOL0     H 8904  10.097   4.686   3.679 -1.7942  3.3287  0.8835
   66MOL0     H 8905  10.086   4.609   3.836 -1.3273  1.2704  1.3808
   66MOL0     H 8906  10.294   4.543   3.754 -0.0805 -0.3213  0.9887
   66MOL0     H 8907  10.337   4.667   3.871 -1.9894 -0.9305  0.3943
   66MOL0     H 8908  10.462   4.889   3.539  2.1634 -0.3226 -0.0778
   66MOL0     H 8909  10.113   4.998   3.624 -0.8033 -1.7833  3.0679
   66MOL0     H 8910  10.100   5.194   3.503  2.7640 -3.0905  2.2131
   67MOL0     O 8911   0.291   2.316   8.393  0.1694  0.3151  0.6236
   67MOL0     C 8912   0.278   2.346   8.276 -0.5542 -0.4618 -0.3967
   67MOL0     O 8913   0.195   2.296   8.186  0.2846  0.0021  0.9257
   67MOL0     C 8914   0.096   2.199   8.231  0.0283  0.2470  0.2525
   67MOL0     C 8915   0.126   2.081   8.306 -0.4244  0.1117  0.2582
   67MOL0     C 8916   0.028   2.004   8.370  1.0495  0.3064 -0.5060
   67MOL0     C 8917  -0.105   2.035   8.336 -0.0473 -0.6811  0.8935
   67MOL0     O 8918  -0.204   1.961   8.396 -0.8808  0.0794 -0.0598
   67MOL0     C 8919  -0.267   2.043   8.496  0.1148  0.2635 -0.2436
   67MOL0     C 8920  -0.331   1.941   8.595 -1.1457 -0.3057 -0.3076
   67MOL0     C 8921  -0.426   1.843   8.532  0.5425  0.9157  1.0885
   67MOL0     C 8922  -0.573   1.898   8.532  0.7768  0.7622  0.1355
   67MOL0     C 8923  -0.676   1.811   8.452 -0.2912 -0.2041  0.1242
   67MOL0     C 8924  -0.643   1.781   8.307  0.3442 -0.3137  0.5083
   67MOL0     C 8925  -0.606   1.916   8.230  0.7982  0.5503 -0.9867
   67MOL0     C 8926  -0.598   1.902   8.077 -0.4824  0.1019 -1.1212
   67MOL0     N 8927  -0.722   1.862   8.003 -0.1310  0.2531  0.8544
   67MOL0     C 8928  -0.817   1.949   7.963 -0.7480  0.0316 -0.5212
   67MOL0     C 8929  -0.913   1.860   7.930  1.3724 -0.7189  0.3292
   67MOL0     C 8930  -1.044   1.901   7.873  0.3659  0.6447 -0.5510
   67MOL0     C 8931  -1.049   1.910   7.711  0.4477  0.3835 -0.4890
   67MOL0     C 8932  -0.992   2.040   7.646  0.9852 -0.0171 -0.0704
   67MOL0     C 8933  -1.086   2.162   7.665 -0.2111  0.4170 -0.2863
   67MOL0     O 8934  -1.028   2.264   7.585  0.3467  0.4339 -0.0293
   67MOL0     C 8935  -1.057   2.270   7.451  0.3412  0.3649  0.0542
   67MOL0     C 8936  -1.002   2.373   7.380  0.5802  0.6267 -1.5690
   67MOL0     C 8937  -1.038   2.417   7.256 -0.1264 -0.5116  0.0379
   67MOL0     C 8938  -0.966   2.534   7.189 -0.6603 -0.2650  0.3817
   67MOL0     C 8939  -1.147   2.355   7.189  0.1704  0.0550  0.8081
   67MOL0     C 8940  -1.200   2.384   7.052  1.1836 -0.2028 -1.1754
   67MOL0     O 8941  -1.238   2.265   6.994 -0.2526  0.3808  0.0238
   67MOL0     C 8942  -1.360   2.255   6.923 -0.1146  0.5231 -0.0256
   67MOL0     C 8943  -1.474   2.224   7.000  0.2130  0.0515 -0.4418
   67MOL0     C 8944  -1.592   2.196   6.922  0.1441 -0.9835 -0.4029
   67MOL0     C 8945  -1.594   2.199   6.776  0.4726 -1.0358 -0.6409
   67MOL0     O 8946  -1.719   2.185   6.714  0.5625  0.3741  0.4356
   67MOL0     C 8947  -1.829   2.115   6.774 -0.6685  0.4914 -0.3361
   67MOL0     C 8948  -1.809   1.975   6.798  1.1418  0.7391 -0.3579
   67MOL0     C 8949  -1.925   1.897   6.858 -1.7491 -0.6333 -0.2545
   67MOL0     C 8950  -2.038   1.884   6.755 -0.1739  0.0109  0.5802
   67MOL0     C 8951  -2.091   1.747   6.783 -0.2139  0.3970  0.4497
   67MOL0     C 8952  -2.219   1.706   6.707  0.8763 -0.0112 -0.7005
   67MOL0     C 8953  -2.239   1.547   6.708  0.8602 -1.2541  0.0515
   67MOL0     C 8954  -2.389   1.519   6.689 -1.0516 -0.4696  0.0029
   67MOL0    Cl 8955  -2.491   1.582   6.828  0.1284 -0.0881 -0.4876
   67MOL0     C 8956  -1.473   2.248   6.714  0.4914 -1.0004 -0.8889
   67MOL0     C 8957  -1.362   2.271   6.783  0.3122  0.2061 -0.6093
   67MOL0     O 8958  -1.217   2.497   7.001  0.0447 -0.5080 -0.9553
   67MOL0     C 8959  -1.218   2.251   7.253  0.0094  0.1192  0.3648
   67MOL0     C 8960  -1.175   2.215   7.385  0.5172 -0.6731  0.5028
   67MOL0     N 8961  -0.885   1.730   7.954  0.0812 -0.1531 -0.6195
   67MOL0     N 8962  -0.757   1.727   7.985  1.4515 -0.0347  0.1462
   67MOL0     C 8963  -0.135   2.146   8.256  0.1267 -0.3816  1.0403
   67MOL0     C 8964  -0.035   2.234   8.213  0.1055 -0.2047  0.9775
   67MOL0     C 8965   0.370   2.454   8.241  0.1833 -1.2170 -1.0932
   67MOL0     C 8966   0.349   2.527   8.126  0.0870 -0.2460  0.3424
   67MOL0     C 8967   0.439   2.632   8.089  0.6284  0.8622 -0.6608
   67MOL0     C 8968   0.555   2.655   8.168  0.0284 -0.7589 -0.5989
   67MOL0     O 8969   0.655   2.745   8.148 -0.5973 -0.2962  0.5985
   67MOL0     C 8970   0.640   2.838   8.045 -0.0904 -0.0695 -0.4471
   67MOL0     C 8971   0.702   2.781   7.916 -0.8762  0.4331  0.5402
   67MOL0     C 8972   0.660   2.862   7.793 -1.0181  0.5136 -0.0012
   67MOL0     C 8973   0.536   2.811   7.732  0.1437  0.7441  0.2528
   67MOL0     C 8974   0.497   2.869   7.604 -0.0740  0.1309 -0.3079
   67MOL0     C 8975   0.475   2.938   7.511  0.8649  0.4715 -0.0381
   67MOL0     C 8976   0.587   2.573   8.266  0.1321 -0.0207 -0.1917
   67MOL0     C 8977   0.502   2.468   8.304 -0.2039 -0.3475  0.7061
   67MOL0     H 8978   0.229   2.053   8.327  0.5363 -0.1997 -4.0777
   67MOL0     H 8979   0.055   1.921   8.435  0.2847  1.5550  1.5069
   67MOL0     H 8980  -0.203   2.115   8.547 -1.9010  0.8156  1.6529
   67MOL0     H 8981  -0.347   2.107   8.457  0.0476 -0.7543 -1.8877
   67MOL0     H 8982  -0.249   1.882   8.635 -0.2921  1.4192  0.6059
   67MOL0     H 8983  -0.376   1.994   8.679  2.1639  0.9142  0.8673
   67MOL0     H 8984  -0.399   1.800   8.435 -2.6871  0.0546  0.4463
   67MOL0     H 8985  -0.426   1.753   8.595  1.6480  1.5690  2.0638
   67MOL0     H 8986  -0.618   1.904   8.632 -0.7878 -0.5840 -0.4465
   67MOL0     H 8987  -0.567   1.998   8.487  1.0813 -0.1126 -1.8868
   67MOL0     H 8988  -0.685   1.710   8.493 -0.1638 -1.1423 -2.0076
   67MOL0     H 8989  -0.779   1.849   8.452 -0.1968  0.0470  0.2449
   67MOL0     H 8990  -0.552   1.721   8.319  0.6385  0.2681  1.2346
   67MOL0     H 8991  -0.724   1.725   8.261  0.8758  0.0323 -0.9029
   67MOL0     H 8992  -0.676   1.997   8.253  0.3425  0.4048 -1.8518
   67MOL0     H 8993  -0.509   1.961   8.250  0.7888  0.4757 -0.7702
   67MOL0     H 8994  -0.519   1.828   8.064 -0.6076 -0.4463  0.8963
   67MOL0     H 8995  -0.555   1.995   8.038  3.0962 -1.0534 -0.2583
   67MOL0     H 8996  -0.808   2.055   7.944  4.5060  0.2898  1.6446
   67MOL0     H 8997  -1.102   1.814   7.906  1.6904  0.4370  1.4439
   67MOL0     H 8998  -1.069   1.992   7.928  0.8880  0.8075 -0.5787
   67MOL0     H 8999  -1.151   1.880   7.687 -0.9498  1.1762  3.6367
   67MOL0     H 9000  -0.983   1.832   7.671 -0.7020 -2.5309  2.8010
   67MOL0     H 9001  -0.975   2.025   7.539  0.7720  0.7395 -0.2149
   67MOL0     H 9002  -0.896   2.070   7.689  0.7063 -0.9159  1.2408
   67MOL0     H 9003  -1.083   2.193   7.770 -1.8409  1.6322 -0.5600
   67MOL0     H 9004  -1.190   2.147   7.634  0.2777 -0.5868 -1.5076
   67MOL0     H 9005  -0.922   2.416   7.438 -0.2992  0.5458 -0.2367
   67MOL0     H 9006  -0.864   2.529   7.226 -0.0253 -2.6029 -1.4485
   67MOL0     H 9007  -0.963   2.525   7.080 -2.4838 -3.1050  0.4660
   67MOL0     H 9008  -1.007   2.630   7.221  0.4577 -0.2940  2.0035
   67MOL0     H 9009  -1.478   2.221   7.109  4.7474  1.2314 -0.0711
   67MOL0     H 9010  -1.684   2.183   6.978 -0.6117  1.2413 -1.0059
   67MOL0     H 9011  -1.871   2.165   6.862  2.7538 -0.4047  1.9823
   67MOL0     H 9012  -1.902   2.120   6.693 -0.1610  0.8782 -0.7722
   67MOL0     H 9013  -1.765   1.927   6.710  0.0721 -2.2101  0.5705
   67MOL0     H 9014  -1.727   1.981   6.871 -1.2025  4.1520  2.3295
   67MOL0     H 9015  -1.961   1.948   6.947  1.3309  0.9430  0.2069
   67MOL0     H 9016  -1.890   1.798   6.885  1.0086 -0.0185 -1.2342
   67MOL0     H 9017  -2.111   1.966   6.755  0.0092  0.2185 -1.4012
   67MOL0     H 9018  -1.995   1.880   6.654  0.7536  0.8441  0.9222
   67MOL0     H 9019  -2.122   1.737   6.888  2.5174 -4.3031  1.1138
   67MOL0     H 9020  -2.013   1.675   6.756  2.4016  2.7852  1.1573
   67MOL0     H 9021  -2.310   1.758   6.736  0.7047 -1.0260  0.6905
   67MOL0     H 9022  -2.211   1.718   6.599 -0.0693 -0.1497 -0.7938
   67MOL0     H 9023  -2.214   1.494   6.801 -1.1372  1.5040  2.3337
   67MOL0     H 9024  -2.183   1.507   6.623 -0.2973 -2.1206 -0.3275
   67MOL0     H 9025  -2.419   1.414   6.685 -3.4724  0.2060 -1.2454
   67MOL0     H 9026  -2.426   1.564   6.596 -1.2145  0.9289  0.7189
   67MOL0     H 9027  -1.459   2.288   6.614  4.8367  2.2187  0.6965
   67MOL0     H 9028  -1.266   2.299   6.740  0.8189  0.5135  0.6780
   67MOL0     H 9029  -1.314   2.214   7.218  1.8135 -3.0899 -1.7028
   67MOL0     H 9030  -1.245   2.150   7.436 -0.8662 -0.7091 -1.3430
   67MOL0     H 9031  -0.239   2.165   8.231  0.1975 -0.9884  0.2550
   67MOL0     H 9032  -0.059   2.320   8.151  0.6825 -0.5595  0.2470
   67MOL0     H 9033   0.264   2.510   8.060  0.0651 -2.4253  0.8614
   67MOL0     H 9034   0.416   2.683   7.995 -1.3238  1.3881  0.0628
   67MOL0     H 9035   0.538   2.873   8.027  0.1519  1.8572  1.4797
   67MOL0     H 9036   0.710   2.917   8.075 -1.5937  0.8570  0.8060
   67MOL0     H 9037   0.683   2.673   7.918  1.7333 -0.0906  1.7467
   67MOL0     H 9038   0.811   2.786   7.920 -0.6406 -2.5703 -0.0803
   67MOL0     H 9039   0.742   2.881   7.722 -1.1545 -0.1483 -0.3460
   67MOL0     H 9040   0.645   2.963   7.832  1.8075  0.3191  1.9165
   67MOL0     H 9041   0.451   2.824   7.800 -1.8267 -1.2566 -1.6490
   67MOL0     H 9042   0.553   2.704   7.717  0.0659  1.2611 -5.2121
   67MOL0     H 9043   0.451   3.007   7.433  0.6430  3.0611  2.1802
   67MOL0     H 9044   0.682   2.588   8.317 -0.1122  1.0171 -0.0288
   67MOL0     H 9045   0.530   2.388   8.372  1.8115  0.1673  0.5298
   68MOL0     O 9046   7.242   5.737   7.152 -0.2284  0.2902  0.1785
   68MOL0     C 9047   7.284   5.836   7.092  0.4548  0.0214 -0.0797
   68MOL0     O 9048   7.322   5.843   6.967 -0.3683  0.2158  0.3876
   68MOL0     C 9049   7.337   5.734   6.889  1.2687  0.1950  0.6390
   68MOL0     C 9050   7.320   5.749   6.743 -0.2935 -0.3610 -0.4560
   68MOL0     C 9051   7.340   5.637   6.663 -0.2549  0.0989  0.5679
   68MOL0     C 9052   7.367   5.514   6.716 -0.5276  0.6196  0.3171
   68MOL0     O 9053   7.384   5.410   6.633 -0.0691  0.1130 -0.0778
   68MOL0     C 9054   7.513   5.355   6.652 -0.0951 -0.5277  0.1123
   68MOL0     C 9055   7.566   5.279   6.534 -0.2173 -0.8239 -0.2723
   68MOL0     C 9056   7.568   5.375   6.418 -0.2015  0.0290  0.3917
   68MOL0     C 9057   7.584   5.308   6.287  1.0499  0.2341 -0.3238
   68MOL0     C 9058   7.583   5.416   6.174 -0.2887 -0.7188  1.2724
   68MOL0     C 9059   7.611   5.360   6.034 -0.0770 -0.8380  1.0023
   68MOL0     C 9060   7.646   5.482   5.939 -0.0295  1.0102 -0.1030
   68MOL0     C 9061   7.650   5.448   5.793 -0.9899 -0.2404 -0.3105
   68MOL0     N 9062   7.525   5.409   5.738  1.1646  0.2734  0.4703
   68MOL0     C 9063   7.431   5.490   5.681 -0.2574  0.3478 -0.4826
   68MOL0     C 9064   7.338   5.402   5.645  0.7326 -0.1248  0.5500
   68MOL0     C 9065   7.218   5.424   5.556 -0.3358 -0.4758 -0.3509
   68MOL0     C 9066   7.074   5.404   5.609  0.1321  0.0143  0.2197
   68MOL0     C 9067   7.007   5.286   5.541  0.0843  0.3560  0.2025
   68MOL0     C 9068   6.948   5.308   5.402  0.6524  0.7485 -0.0545
   68MOL0     O 9069   6.867   5.197   5.365  0.0943  0.4189  0.3006
   68MOL0     C 9070   6.912   5.078   5.304 -0.5687  0.1950  1.0903
   68MOL0     C 9071   7.056   5.050   5.286  0.1944 -0.1914 -0.6644
   68MOL0     C 9072   7.106   4.926   5.240 -0.0190  0.9565 -0.5353
   68MOL0     C 9073   7.260   4.916   5.217  0.0571 -0.3492 -0.2139
   68MOL0     C 9074   7.002   4.829   5.195 -0.2831  0.4945  0.1715
   68MOL0     C 9075   7.027   4.701   5.121 -0.6019 -0.6809  0.7574
   68MOL0     O 9076   6.922   4.663   5.038  0.0487  0.2909  0.2675
   68MOL0     C 9077   6.907   4.523   5.027 -0.8170  0.8226  1.1011
   68MOL0     C 9078   6.952   4.436   5.134  0.0759  0.9203  0.2045
   68MOL0     C 9079   6.940   4.301   5.126 -0.4842  1.3544  0.5205
   68MOL0     C 9080   6.866   4.242   5.023 -0.9927  0.6986 -0.0822
   68MOL0     O 9081   6.832   4.106   5.036  0.3281  0.1761  0.2251
   68MOL0     C 9082   6.932   4.007   5.085  0.8392 -0.1272  0.3597
   68MOL0     C 9083   6.894   3.867   5.034 -0.2062  0.6314 -0.5125
   68MOL0     C 9084   6.942   3.843   4.889  0.1534  0.3400  0.8529
   68MOL0     C 9085   6.909   3.693   4.865  0.0954  0.7525  0.8646
   68MOL0     C 9086   6.929   3.640   4.722  0.0154 -0.2499 -0.2934
   68MOL0     C 9087   7.053   3.695   4.654  1.5409  0.9740 -0.1648
   68MOL0     C 9088   7.182   3.619   4.680  0.9397 -0.8547 -0.2823
   68MOL0     C 9089   7.291   3.716   4.670  0.7300  0.9601  0.2583
   68MOL0    Cl 9090   7.437   3.638   4.707 -0.4693  0.0019  0.2772
   68MOL0     C 9091   6.817   4.320   4.924 -0.3390  0.6405 -1.4989
   68MOL0     C 9092   6.834   4.462   4.926 -0.1454  0.4151  0.0358
   68MOL0     O 9093   7.147   4.667   5.121 -0.4393 -0.2691 -1.3306
   68MOL0     C 9094   6.867   4.854   5.217 -0.0747  0.7755  0.1692
   68MOL0     C 9095   6.820   4.981   5.265  0.0289  1.3963 -0.4937
   68MOL0     N 9096   7.375   5.274   5.685 -0.3722  0.2323 -0.2084
   68MOL0     N 9097   7.490   5.277   5.738  0.1131 -0.1035  0.8026
   68MOL0     C 9098   7.369   5.497   6.860 -0.6639 -0.8043 -0.0897
   68MOL0     C 9099   7.364   5.608   6.942 -0.1059 -0.4892 -0.9037
   68MOL0     C 9100   7.270   5.961   7.157 -0.0350 -0.0537  0.1439
   68MOL0     C 9101   7.283   6.082   7.087 -0.3239 -0.4013  0.1945
   68MOL0     C 9102   7.262   6.205   7.138  0.5398  0.1327  0.0803
   68MOL0     C 9103   7.225   6.219   7.277 -0.2860 -0.0163  0.3109
   68MOL0     O 9104   7.205   6.334   7.338 -0.0239 -0.7597  0.2511
   68MOL0     C 9105   7.308   6.429   7.322 -0.0915 -1.0971 -0.1902
   68MOL0     C 9106   7.409   6.402   7.437 -0.8729  0.3727 -0.2226
   68MOL0     C 9107   7.544   6.496   7.428 -0.4023  0.1128 -0.6339
   68MOL0     C 9108   7.663   6.474   7.529  0.0261  0.6541  1.1040
   68MOL0     C 9109   7.624   6.512   7.671 -0.0641  0.5755 -0.7374
   68MOL0     C 9110   7.593   6.557   7.782 -0.2706  0.6084  0.3722
   68MOL0     C 9111   7.216   6.101   7.351  0.0278  0.3277  0.0875
   68MOL0     C 9112   7.232   5.971   7.291  0.3742  0.3047 -0.6649
   68MOL0     H 9113   7.286   5.844   6.704 -0.5218 -0.3257 -0.1802
   68MOL0     H 9114   7.329   5.663   6.558  0.4377  1.5837  0.8453
   68MOL0     H 9115   7.579   5.440   6.671 -2.0053  1.0296  0.1052
   68MOL0     H 9116   7.531   5.290   6.738 -2.4086  1.5886  2.3427
   68MOL0     H 9117   7.662   5.230   6.554 -1.3073 -2.3990  1.4587
   68MOL0     H 9118   7.494   5.197   6.520 -0.4907 -0.8198  1.0565
   68MOL0     H 9119   7.474   5.432   6.415 -1.9555 -2.4785  2.8181
   68MOL0     H 9120   7.658   5.434   6.436  2.2423 -2.5043 -2.4285
   68MOL0     H 9121   7.670   5.240   6.289 -0.4708 -1.9961 -3.3152
   68MOL0     H 9122   7.500   5.246   6.256  0.5061  0.4842  0.6003
   68MOL0     H 9123   7.482   5.457   6.174 -1.3984 -3.2718  1.1509
   68MOL0     H 9124   7.647   5.500   6.203  0.6819 -0.4328 -1.3937
   68MOL0     H 9125   7.698   5.293   6.029  1.3414  1.0094 -1.5486
   68MOL0     H 9126   7.530   5.310   5.980  0.3806  1.4400 -2.0977
   68MOL0     H 9127   7.556   5.543   5.954 -1.8279 -2.0495  3.3909
   68MOL0     H 9128   7.732   5.527   5.990  1.8139 -3.0849  0.7706
   68MOL0     H 9129   7.723   5.367   5.789 -0.3680  0.3653 -1.9705
   68MOL0     H 9130   7.694   5.532   5.739  0.7457 -1.2031 -0.4673
   68MOL0     H 9131   7.443   5.595   5.653 -0.2799  0.0324 -1.7345
   68MOL0     H 9132   7.223   5.529   5.528 -1.3957  0.3881  2.3681
   68MOL0     H 9133   7.240   5.367   5.465  3.0501  0.0721 -0.0065
   68MOL0     H 9134   7.004   5.489   5.610  0.7788  0.6280  3.6772
   68MOL0     H 9135   7.084   5.374   5.713  2.2591 -0.7459 -0.1557
   68MOL0     H 9136   6.931   5.247   5.611  0.5713  1.9386  1.6798
   68MOL0     H 9137   7.076   5.201   5.534  2.5108  2.2693 -0.5990
   68MOL0     H 9138   7.026   5.322   5.327  0.5429 -0.5453 -0.4254
   68MOL0     H 9139   6.881   5.392   5.381  0.4237  0.2367 -1.5581
   68MOL0     H 9140   7.128   5.127   5.310  1.1933 -1.5754  1.0324
   68MOL0     H 9141   7.269   4.922   5.108 -3.3050  2.0499 -0.5271
   68MOL0     H 9142   7.322   4.999   5.251 -0.7544  0.1145  0.1568
   68MOL0     H 9143   7.288   4.821   5.263 -0.9677 -0.6873 -0.2687
   68MOL0     H 9144   7.013   4.459   5.221  1.5920 -4.6941  1.0516
   68MOL0     H 9145   6.982   4.241   5.207  0.9523  0.1846 -1.0324
   68MOL0     H 9146   7.039   4.020   5.067  0.8894 -0.3595  0.4861
   68MOL0     H 9147   6.920   4.002   5.193 -0.2828  2.5561  0.4354
   68MOL0     H 9148   6.949   3.795   5.096 -0.4401  0.1431 -0.8691
   68MOL0     H 9149   6.791   3.843   5.061  0.3132 -0.2497  0.8630
   68MOL0     H 9150   7.047   3.875   4.890  1.5861 -3.7608  1.9853
   68MOL0     H 9151   6.878   3.902   4.824  0.2309  0.4419  0.8678
   68MOL0     H 9152   6.978   3.632   4.923 -0.3890 -1.9953 -1.2508
   68MOL0     H 9153   6.807   3.671   4.899  0.6270 -1.9435  0.9114
   68MOL0     H 9154   6.848   3.697   4.676  1.7373  0.9511 -1.9840
   68MOL0     H 9155   6.909   3.533   4.714  0.2409 -0.2556 -0.8277
   68MOL0     H 9156   7.036   3.694   4.546  1.2295 -0.5678 -0.1192
   68MOL0     H 9157   7.062   3.801   4.681 -1.1087  1.3843 -0.6390
   68MOL0     H 9158   7.196   3.539   4.607  0.9409  1.4095 -2.9125
   68MOL0     H 9159   7.191   3.577   4.781 -3.1052 -0.5040  0.3706
   68MOL0     H 9160   7.265   3.803   4.731 -0.8597  2.2740 -2.1240
   68MOL0     H 9161   7.300   3.756   4.569 -1.1441 -0.0695 -0.3746
   68MOL0     H 9162   6.760   4.283   4.840 -1.0246  1.6108 -1.4801
   68MOL0     H 9163   6.801   4.530   4.848 -1.1724  1.7671  1.5863
   68MOL0     H 9164   6.787   4.782   5.199  1.1854  0.0924 -3.6808
   68MOL0     H 9165   6.717   5.001   5.292  0.2304  0.5834  0.9735
   68MOL0     H 9166   7.369   5.397   6.904 -1.5277 -0.7529  0.0490
   68MOL0     H 9167   7.398   5.594   7.045  0.7363 -1.6186 -1.3121
   68MOL0     H 9168   7.307   6.077   6.981  1.8818  0.9005  0.5627
   68MOL0     H 9169   7.266   6.289   7.069 -3.8694  1.7540  1.4481
   68MOL0     H 9170   7.359   6.420   7.226 -0.9659  1.4536 -0.9703
   68MOL0     H 9171   7.278   6.533   7.340  1.3599 -0.8416  0.9873
   68MOL0     H 9172   7.453   6.302   7.443 -0.1302  0.7695  1.8165
   68MOL0     H 9173   7.356   6.416   7.532 -1.0575  1.3763 -0.4631
   68MOL0     H 9174   7.520   6.602   7.434 -2.7451 -0.3009 -1.5789
   68MOL0     H 9175   7.582   6.480   7.327 -0.1887 -2.3597 -0.2432
   68MOL0     H 9176   7.749   6.523   7.482 -0.5955  0.6664 -0.0598
   68MOL0     H 9177   7.691   6.369   7.514  1.5165  1.4146 -2.8506
   68MOL0     H 9178   7.552   6.585   7.877 -0.2174 -0.2622  0.6623
   68MOL0     H 9179   7.196   6.122   7.455 -3.0473 -1.4944 -0.0304
   68MOL0     H 9180   7.232   5.888   7.361 -3.7149  2.3206  2.1030
   69MOL0     O 9181   1.616   6.302   9.787  0.1871 -0.0406  0.5877
   69MOL0     C 9182   1.597   6.335   9.676 -0.0959  0.1551  0.8743
   69MOL0     O 9183   1.585   6.249   9.570  0.7701  0.1660  0.6800
   69MOL0     C 9184   1.582   6.115   9.610 -0.1856 -1.0840 -0.1866
   69MOL0     C 9185   1.697   6.042   9.622  0.2071 -0.3415  0.8548
   69MOL0     C 9186   1.702   5.901   9.633 -0.7883 -0.7892  0.1906
   69MOL0     C 9187   1.576   5.839   9.622 -0.6751 -0.2165  0.2795
   69MOL0     O 9188   1.564   5.704   9.625  0.3843 -0.2496  0.2864
   69MOL0     C 9189   1.565   5.633   9.495  1.3117 -0.5320  0.8437
   69MOL0     C 9190   1.584   5.480   9.504  0.8172  0.1713 -0.1148
   69MOL0     C 9191   1.603   5.425   9.368 -0.8604 -0.5630  0.1141
   69MOL0     C 9192   1.592   5.274   9.385  0.4067 -0.7091 -0.1381
   69MOL0     C 9193   1.724   5.204   9.430 -0.6377 -0.1638  0.1157
   69MOL0     C 9194   1.717   5.059   9.407  0.0070  0.2321  0.3646
   69MOL0     C 9195   1.853   4.991   9.383 -0.0246 -1.2761  0.2025
   69MOL0     C 9196   1.833   4.840   9.364  0.0938  0.3785  0.5700
   69MOL0     N 9197   1.967   4.779   9.339  0.0114 -0.5865 -0.3649
   69MOL0     C 9198   2.079   4.778   9.421  0.3919 -0.3504 -0.4140
   69MOL0     C 9199   2.161   4.692   9.363  0.0404 -1.0702 -0.3206
   69MOL0     C 9200   2.297   4.648   9.424 -0.5438  1.6366 -0.1956
   69MOL0     C 9201   2.267   4.533   9.523  0.3714  0.6961 -0.5541
   69MOL0     C 9202   2.395   4.461   9.579  1.0209 -1.1714  0.2668
   69MOL0     C 9203   2.375   4.391   9.712 -0.4200 -0.2626  0.4240
   69MOL0     O 9204   2.380   4.469   9.832 -0.6111 -0.0586  0.1434
   69MOL0     C 9205   2.499   4.477   9.912 -0.5910  0.2542  0.0861
   69MOL0     C 9206   2.489   4.572  10.011  0.4077  0.5978 -0.2515
   69MOL0     C 9207   2.599   4.617  10.087  0.5556 -0.0049 -0.8520
   69MOL0     C 9208   2.577   4.701  10.219 -0.5090 -0.4257 -0.2901
   69MOL0     C 9209   2.736   4.567  10.047 -0.1619 -0.5497 -0.4017
   69MOL0     C 9210   2.857   4.594  10.113 -0.2203 -0.2859  1.3675
   69MOL0     O 9211   2.949   4.481  10.111  0.3297  0.3997  0.1807
   69MOL0     C 9212   3.071   4.526  10.129 -0.7353 -1.4399  0.0960
   69MOL0     C 9213   3.155   4.550  10.019  0.7224  0.3468  0.5370
   69MOL0     C 9214   3.283   4.598  10.039 -0.9356 -0.0436 -0.7735
   69MOL0     C 9215   3.335   4.622  10.173 -0.0207 -0.8818  0.2410
   69MOL0     O 9216   3.458   4.677  10.200 -0.0397  0.2838 -0.5642
   69MOL0     C 9217   3.529   4.732  10.092  0.3554 -0.2915  0.5261
   69MOL0     C 9218   3.635   4.808  10.163 -1.0443 -0.4294  0.0359
   69MOL0     C 9219   3.730   4.745  10.266 -0.3975  0.8771  0.0191
   69MOL0     C 9220   3.803   4.853  10.347 -0.1365  0.4499 -0.1693
   69MOL0     C 9221   3.907   4.785  10.428 -0.6477  0.5518 -0.4226
   69MOL0     C 9222   3.964   4.882  10.529  1.4986  0.3118  1.0073
   69MOL0     C 9223   4.052   4.811  10.620  0.3414  0.9781 -0.3066
   69MOL0     C 9224   4.117   4.888  10.724 -0.4620 -0.3447 -0.4571
   69MOL0    Cl 9225   4.240   4.800  10.816 -0.2649 -0.1637 -0.4408
   69MOL0     C 9226   3.250   4.596  10.277  0.2439 -0.4408 -0.5411
   69MOL0     C 9227   3.119   4.549  10.259 -1.0588 -0.6256 -0.3461
   69MOL0     O 9228   2.888   4.704  10.165  0.9506  1.1679 -0.2648
   69MOL0     C 9229   2.740   4.473   9.940  0.5888 -0.3283 -0.2224
   69MOL0     C 9230   2.627   4.417   9.879  0.0056 -0.1250  0.5088
   69MOL0     N 9231   2.109   4.645   9.245  0.4238 -0.2886 -0.3096
   69MOL0     N 9232   1.988   4.693   9.237 -0.1374 -0.3332 -0.1805
   69MOL0     C 9233   1.458   5.913   9.615 -0.1489 -1.3108 -0.4116
   69MOL0     C 9234   1.461   6.055   9.622 -0.1217  0.0312 -0.0995
   69MOL0     C 9235   1.574   6.476   9.644  0.0374  0.3298 -0.2811
   69MOL0     C 9236   1.607   6.576   9.735  0.1637 -0.5302  0.6309
   69MOL0     C 9237   1.587   6.713   9.713 -0.6330 -0.3480  0.2118
   69MOL0     C 9238   1.537   6.753   9.584 -0.2094 -0.3807 -0.9005
   69MOL0     O 9239   1.539   6.891   9.559  1.0407 -0.1430 -0.0587
   69MOL0     C 9240   1.470   6.963   9.673  0.2039 -0.2425  0.4864
   69MOL0     C 9241   1.423   7.105   9.630 -0.6706 -0.6432 -0.3220
   69MOL0     C 9242   1.541   7.209   9.648  0.1875  0.7829 -0.1036
   69MOL0     C 9243   1.519   7.341   9.572 -1.1229 -0.1083  0.6027
   69MOL0     C 9244   1.519   7.458   9.663  0.3119 -0.4839  2.0419
   69MOL0     C 9245   1.496   7.538   9.755  1.3445  0.2413  0.0821
   69MOL0     C 9246   1.491   6.657   9.493 -0.2772 -0.1058 -0.1555
   69MOL0     C 9247   1.516   6.514   9.526 -0.4208 -1.2016  0.5893
   69MOL0     H 9248   1.796   6.085   9.612 -0.5763  0.9622 -3.1600
   69MOL0     H 9249   1.791   5.840   9.644  0.1669  0.8727  2.8338
   69MOL0     H 9250   1.471   5.669   9.452  2.2289 -0.8409 -1.5586
   69MOL0     H 9251   1.642   5.666   9.424 -1.1576 -1.5212 -2.5554
   69MOL0     H 9252   1.677   5.467   9.559  0.9871  0.1095 -0.4151
   69MOL0     H 9253   1.499   5.441   9.562  1.8273  0.1169  1.3825
   69MOL0     H 9254   1.521   5.456   9.303 -2.2272  0.8683  2.3452
   69MOL0     H 9255   1.696   5.452   9.319 -1.2755  2.6505  0.9085
   69MOL0     H 9256   1.506   5.251   9.447  0.3972  2.0085  0.9625
   69MOL0     H 9257   1.564   5.230   9.289 -3.2570  2.5577 -0.8343
   69MOL0     H 9258   1.805   5.241   9.366 -1.0252 -3.9731 -2.9555
   69MOL0     H 9259   1.731   5.231   9.535  1.0729 -0.5426  0.1324
   69MOL0     H 9260   1.673   5.008   9.493 -0.0434 -0.9216 -0.3189
   69MOL0     H 9261   1.669   5.037   9.311  1.8588 -1.1411 -0.2979
   69MOL0     H 9262   1.901   5.042   9.299  0.6552 -0.2215  1.1850
   69MOL0     H 9263   1.916   5.025   9.466  1.2990 -2.1603 -0.4254
   69MOL0     H 9264   1.768   4.820   9.278 -0.4060 -1.4226  1.3279
   69MOL0     H 9265   1.785   4.783   9.444  0.7871 -0.5919  0.3235
   69MOL0     H 9266   2.076   4.839   9.510 -2.1046  0.0282 -0.6710
   69MOL0     H 9267   2.364   4.611   9.345 -0.2926  4.3611 -1.3516
   69MOL0     H 9268   2.352   4.724   9.481  1.5080  0.3671 -0.3588
   69MOL0     H 9269   2.216   4.453   9.469 -1.5257  1.9549 -0.7273
   69MOL0     H 9270   2.197   4.566   9.600  0.5916 -0.7288  0.2962
   69MOL0     H 9271   2.484   4.522   9.592  0.2747  0.0825 -0.3336
   69MOL0     H 9272   2.421   4.388   9.501 -0.1110 -0.3382 -0.9500
   69MOL0     H 9273   2.439   4.302   9.713  0.9363  0.6407 -0.6810
   69MOL0     H 9274   2.274   4.349   9.710 -1.1241  1.3539 -1.2953
   69MOL0     H 9275   2.386   4.600  10.034  0.0938  0.5575 -1.5372
   69MOL0     H 9276   2.602   4.640  10.306 -1.4197 -0.0692  0.2392
   69MOL0     H 9277   2.641   4.788  10.204  0.3219 -1.2662 -1.9364
   69MOL0     H 9278   2.472   4.732  10.220  0.3462  3.3169  3.8570
   69MOL0     H 9279   3.132   4.538   9.913 -1.3577  1.3919  0.8055
   69MOL0     H 9280   3.349   4.619   9.956  0.6147  0.5403  0.5584
   69MOL0     H 9281   3.569   4.660  10.021  0.4379  1.9749 -1.8976
   69MOL0     H 9282   3.478   4.797  10.020  1.2918 -0.0476  0.0677
   69MOL0     H 9283   3.699   4.851  10.085 -1.1081 -2.6263 -1.3114
   69MOL0     H 9284   3.591   4.891  10.220  4.2964 -0.1274  4.5671
   69MOL0     H 9285   3.806   4.678  10.225 -0.6478 -0.6940  1.9788
   69MOL0     H 9286   3.659   4.701  10.337 -0.3948  2.8634  1.3400
   69MOL0     H 9287   3.839   4.934  10.283  1.3799  2.5585  3.0997
   69MOL0     H 9288   3.728   4.905  10.407 -0.6495  3.8112 -3.3521
   69MOL0     H 9289   3.983   4.747  10.359  1.0753  1.3456  0.9738
   69MOL0     H 9290   3.879   4.695  10.484 -2.2286  1.1320 -0.2389
   69MOL0     H 9291   4.018   4.965  10.483  0.2327  0.5733 -0.0696
   69MOL0     H 9292   3.879   4.923  10.585  0.8087  0.9313 -0.4356
   69MOL0     H 9293   4.125   4.757  10.559 -0.7758 -3.1967  1.6138
   69MOL0     H 9294   3.999   4.731  10.674 -0.5563  1.4812 -0.4147
   69MOL0     H 9295   4.051   4.933  10.798  1.5592 -0.4351  1.4945
   69MOL0     H 9296   4.172   4.974  10.683  2.1032 -1.0013  1.3919
   69MOL0     H 9297   3.302   4.612  10.371  0.6033  0.2713 -0.8524
   69MOL0     H 9298   3.048   4.549  10.341 -0.2748 -2.8585  0.4283
   69MOL0     H 9299   2.829   4.416   9.914  1.4922  0.2814  1.3997
   69MOL0     H 9300   2.627   4.343   9.800 -1.3634  0.1107  0.2650
   69MOL0     H 9301   1.354   5.883   9.617 -1.1749  1.7034 -2.0434
   69MOL0     H 9302   1.365   6.103   9.608 -0.4339 -0.2692  0.9699
   69MOL0     H 9303   1.663   6.561   9.826  3.8184 -0.8319 -1.5031
   69MOL0     H 9304   1.630   6.773   9.793  1.4069 -2.8771  1.1342
   69MOL0     H 9305   1.386   6.901   9.705 -0.9795  0.3456 -1.3402
   69MOL0     H 9306   1.527   6.963   9.767 -0.6192  0.7255  1.0025
   69MOL0     H 9307   1.346   7.138   9.701  1.7148  1.8245  1.2967
   69MOL0     H 9308   1.377   7.101   9.531 -2.9544 -1.3795  0.6960
   69MOL0     H 9309   1.634   7.176   9.602 -0.0419  1.9606 -1.4740
   69MOL0     H 9310   1.555   7.227   9.755  0.0130 -0.2878  0.1086
   69MOL0     H 9311   1.424   7.331   9.519 -1.6016  3.3428  0.5681
   69MOL0     H 9312   1.590   7.348   9.489 -0.2788 -1.7372  1.1345
   69MOL0     H 9313   1.491   7.601   9.841  1.4919  0.4008 -0.0262
   69MOL0     H 9314   1.449   6.689   9.398 -0.2114 -4.4820 -1.8981
   69MOL0     H 9315   1.493   6.442   9.448  1.0779 -2.1158  0.9328
   70MOL0     O 9316   1.493   3.893   8.272 -0.4968  0.3787  0.5634
   70MOL0     C 9317   1.585   3.928   8.200  0.3816 -0.1569  0.0911
   70MOL0     O 9318   1.618   4.059   8.160  0.2765  0.7299  0.3093
   70MOL0     C 9319   1.588   4.169   8.235  0.6488  0.0644 -0.8047
   70MOL0     C 9320   1.551   4.164   8.374  0.0241 -0.0447 -1.0370
   70MOL0     C 9321   1.535   4.273   8.451  0.3519 -0.2696  0.2690
   70MOL0     C 9322   1.565   4.400   8.406  0.1030 -0.0210  0.9459
   70MOL0     O 9323   1.546   4.504   8.497 -0.6642  0.2487  0.4309
   70MOL0     C 9324   1.570   4.636   8.461  0.6634 -0.0412 -0.1553
   70MOL0     C 9325   1.567   4.714   8.599 -0.7454  0.5634 -0.5196
   70MOL0     C 9326   1.700   4.735   8.665 -0.0159 -0.8647 -0.5821
   70MOL0     C 9327   1.695   4.806   8.807  0.3373  0.7965  0.5512
   70MOL0     C 9328   1.834   4.830   8.861  0.5773 -0.2565  0.7935
   70MOL0     C 9329   1.837   4.920   8.977 -0.9180  0.3244  0.1168
   70MOL0     C 9330   1.747   5.052   8.983  0.2709 -0.0954 -0.3053
   70MOL0     C 9331   1.787   5.158   8.875  0.2910  0.5575 -0.6451
   70MOL0     N 9332   1.667   5.212   8.811 -0.3712  0.7313  0.6566
   70MOL0     C 9333   1.613   5.161   8.693  0.2663 -0.3902 -0.3947
   70MOL0     C 9334   1.541   5.263   8.639  0.2696 -0.8320 -0.8271
   70MOL0     C 9335   1.451   5.261   8.524 -0.3696  0.7011 -0.7623
   70MOL0     C 9336   1.313   5.201   8.563 -0.0780 -0.1869  1.2591
   70MOL0     C 9337   1.243   5.303   8.643  0.1294  0.2861 -1.3672
   70MOL0     C 9338   1.094   5.275   8.655  0.1893 -1.0536  0.3584
   70MOL0     O 9339   1.024   5.306   8.538  0.5276 -0.7421 -0.1313
   70MOL0     C 9340   0.936   5.407   8.532 -0.1965 -0.4917  0.2963
   70MOL0     C 9341   0.919   5.507   8.632 -0.6366  0.0838  0.3405
   70MOL0     C 9342   0.824   5.610   8.619  1.3502  0.3539 -0.3864
   70MOL0     C 9343   0.822   5.708   8.736  0.0516  0.7265 -0.0999
   70MOL0     C 9344   0.736   5.601   8.508  0.3163  0.4917  0.0780
   70MOL0     C 9345   0.631   5.702   8.500 -0.4168  0.7074  0.4825
   70MOL0     O 9346   0.657   5.811   8.424 -0.7831  0.0547  0.3214
   70MOL0     C 9347   0.597   5.931   8.430 -0.1314  0.0987 -0.8102
   70MOL0     C 9348   0.532   5.988   8.543  0.9923 -0.7413 -0.6863
   70MOL0     C 9349   0.469   6.108   8.547 -0.9255 -0.1157  0.9832
   70MOL0     C 9350   0.467   6.192   8.436  1.3412 -1.1408 -0.1720
   70MOL0     O 9351   0.431   6.322   8.459 -0.1158  0.3251  0.6243
   70MOL0     C 9352   0.506   6.416   8.388 -1.4228  0.0930  0.5860
   70MOL0     C 9353   0.511   6.546   8.480 -0.2040  0.9912 -0.0963
   70MOL0     C 9354   0.582   6.656   8.406  0.3852  0.8522  0.1771
   70MOL0     C 9355   0.736   6.633   8.412  0.1240 -0.1860  0.5819
   70MOL0     C 9356   0.796   6.645   8.548 -0.0551  0.1796  0.0879
   70MOL0     C 9357   0.955   6.660   8.548 -1.1784  0.0297  0.0288
   70MOL0     C 9358   1.015   6.740   8.663  0.3911 -0.2877  0.4760
   70MOL0     C 9359   0.965   6.700   8.800  0.2692  0.5259  0.4335
   70MOL0    Cl 9360   1.008   6.534   8.833  0.2575 -0.6121  0.0312
   70MOL0     C 9361   0.527   6.137   8.322  0.9890  0.0681 -0.9714
   70MOL0     C 9362   0.585   6.012   8.317  0.5385 -0.2035 -0.1134
   70MOL0     O 9363   0.525   5.680   8.554 -0.2808 -0.7493  0.3579
   70MOL0     C 9364   0.752   5.501   8.410  0.4787  0.6931 -0.2879
   70MOL0     C 9365   0.852   5.404   8.420 -0.8865  0.1463 -0.2801
   70MOL0     N 9366   1.551   5.370   8.728  0.6924  0.2579  0.5272
   70MOL0     N 9367   1.629   5.338   8.825 -0.6337  0.0117 -0.2301
   70MOL0     C 9368   1.593   4.410   8.269 -0.4584 -0.0662 -0.5024
   70MOL0     C 9369   1.608   4.293   8.182  0.1036 -0.7043 -0.7128
   70MOL0     C 9370   1.667   3.816   8.145 -0.6093 -0.5962  0.2801
   70MOL0     C 9371   1.707   3.815   8.015  0.7060  0.5446  1.3019
   70MOL0     C 9372   1.771   3.702   7.956 -0.4388 -0.2233  0.5142
   70MOL0     C 9373   1.811   3.595   8.033  0.9377  0.4711  0.2026
   70MOL0     O 9374   1.862   3.477   7.982  0.2755 -0.1421  0.9733
   70MOL0     C 9375   1.828   3.455   7.850  0.3688 -0.2087  0.0642
   70MOL0     C 9376   1.884   3.327   7.799  0.7212 -0.2349  0.2917
   70MOL0     C 9377   1.801   3.211   7.848 -0.5459  0.4139  0.8265
   70MOL0     C 9378   1.659   3.192   7.791  0.0377 -0.1920 -0.4008
   70MOL0     C 9379   1.623   3.048   7.787 -0.0383 -0.5538  0.7572
   70MOL0     C 9380   1.582   2.934   7.794 -0.5006  1.0000  0.3592
   70MOL0     C 9381   1.772   3.598   8.166  0.6347 -0.3942 -0.4940
   70MOL0     C 9382   1.698   3.704   8.227 -0.6936 -1.3680  0.1698
   70MOL0     H 9383   1.543   4.076   8.438  0.4916  0.8143  0.2455
   70MOL0     H 9384   1.511   4.266   8.556  0.2438  0.2203  0.2814
   70MOL0     H 9385   1.664   4.640   8.405  1.8591 -4.3748  1.1392
   70MOL0     H 9386   1.485   4.669   8.402  2.3234  2.0527 -1.5532
   70MOL0     H 9387   1.520   4.811   8.583 -0.4808  1.2142  2.1430
   70MOL0     H 9388   1.499   4.661   8.666 -3.3989  1.6174 -2.2321
   70MOL0     H 9389   1.738   4.634   8.686 -1.7965 -0.6376  5.5470
   70MOL0     H 9390   1.763   4.782   8.589  2.8685 -0.3895  1.8908
   70MOL0     H 9391   1.658   4.905   8.780 -0.3359  0.4993  0.3799
   70MOL0     H 9392   1.627   4.755   8.876  1.1652 -1.2603 -0.0706
   70MOL0     H 9393   1.884   4.733   8.872 -1.0721 -1.4396 -1.3691
   70MOL0     H 9394   1.879   4.883   8.776  0.6148  0.7342  1.4163
   70MOL0     H 9395   1.827   4.869   9.074  3.5453 -1.3066 -0.0238
   70MOL0     H 9396   1.937   4.965   8.978 -2.5508  4.3997 -1.0598
   70MOL0     H 9397   1.640   5.029   8.983  0.0491  0.6195  2.4570
   70MOL0     H 9398   1.760   5.089   9.085 -0.7698 -1.3908  0.3098
   70MOL0     H 9399   1.859   5.107   8.810  0.7962 -2.7637  2.2521
   70MOL0     H 9400   1.844   5.243   8.912 -0.0004  0.5873 -0.2577
   70MOL0     H 9401   1.615   5.060   8.653  1.2298 -0.9420  0.9779
   70MOL0     H 9402   1.434   5.355   8.470 -1.0979  0.9702 -0.0827
   70MOL0     H 9403   1.501   5.193   8.454  2.6054  2.4578 -0.5273
   70MOL0     H 9404   1.321   5.104   8.613  0.1871 -0.7625  0.1309
   70MOL0     H 9405   1.244   5.194   8.479  0.6151 -2.6955  0.8256
   70MOL0     H 9406   1.252   5.408   8.613 -0.6986  0.3237 -1.5147
   70MOL0     H 9407   1.278   5.302   8.746 -2.7074  0.9105 -0.2936
   70MOL0     H 9408   1.058   5.337   8.738  0.9926 -0.8116  0.5390
   70MOL0     H 9409   1.081   5.169   8.679  2.1044 -0.6343  3.8518
   70MOL0     H 9410   0.972   5.515   8.727 -1.2603  1.1224  0.6195
   70MOL0     H 9411   0.716   5.728   8.759  0.1994  4.8946 -2.1088
   70MOL0     H 9412   0.874   5.669   8.824  0.4726 -0.2113 -0.7531
   70MOL0     H 9413   0.875   5.794   8.695 -0.5396  0.2243 -2.0310
   70MOL0     H 9414   0.531   5.927   8.633  0.3240  0.4742  0.1661
   70MOL0     H 9415   0.411   6.142   8.632 -3.8901 -0.6677 -0.7044
   70MOL0     H 9416   0.608   6.378   8.373 -0.5277  2.3797  0.4659
   70MOL0     H 9417   0.455   6.439   8.294 -0.4102 -0.1518 -0.0463
   70MOL0     H 9418   0.411   6.582   8.503  0.1348  2.6840 -1.1547
   70MOL0     H 9419   0.563   6.524   8.575  1.8439 -1.2109 -1.6004
   70MOL0     H 9420   0.548   6.754   8.441  0.5624  0.7019  0.7863
   70MOL0     H 9421   0.553   6.647   8.300  1.5606  0.6787 -0.1418
   70MOL0     H 9422   0.769   6.536   8.372  1.0394  0.6072 -0.6379
   70MOL0     H 9423   0.787   6.708   8.351  2.9894 -1.8465  0.7331
   70MOL0     H 9424   0.769   6.558   8.608  0.7099 -0.3354 -0.2929
   70MOL0     H 9425   0.756   6.730   8.603 -1.1459 -0.4318  0.2648
   70MOL0     H 9426   1.001   6.561   8.542 -0.6048  0.3459 -4.6720
   70MOL0     H 9427   0.989   6.716   8.460 -0.6315  0.1836  0.3309
   70MOL0     H 9428   0.983   6.843   8.647  1.4339  0.2845  1.8506
   70MOL0     H 9429   1.124   6.734   8.664  0.3557 -0.8787  1.2600
   70MOL0     H 9430   0.857   6.712   8.800  0.1699  1.2699 -4.2445
   70MOL0     H 9431   1.007   6.761   8.881  1.1930  0.5508 -0.0514
   70MOL0     H 9432   0.521   6.187   8.226  1.3538 -1.9317 -2.0873
   70MOL0     H 9433   0.635   5.973   8.230 -4.7301 -2.4428 -2.6105
   70MOL0     H 9434   0.688   5.487   8.324 -0.7397 -1.0830  0.8382
   70MOL0     H 9435   0.870   5.316   8.360  1.4109 -0.2914  0.9526
   70MOL0     H 9436   1.622   4.496   8.209 -2.4086  0.7631 -0.3294
   70MOL0     H 9437   1.623   4.296   8.075 -2.1351 -0.1035 -1.0634
   70MOL0     H 9438   1.673   3.901   7.957  1.2779 -0.0498  0.0636
   70MOL0     H 9439   1.787   3.705   7.848 -0.8794 -1.2414  0.4033
   70MOL0     H 9440   1.718   3.458   7.854  0.3641  0.1814 -0.3535
   70MOL0     H 9441   1.867   3.535   7.788  1.9866  0.3814  1.7458
   70MOL0     H 9442   1.988   3.305   7.822  0.7184 -1.7836 -0.9543
   70MOL0     H 9443   1.879   3.338   7.690 -1.7778  2.1880  0.5424
   70MOL0     H 9444   1.788   3.232   7.955 -0.7144 -6.1596  2.5521
   70MOL0     H 9445   1.855   3.117   7.837  0.0831  0.9682 -1.2757
   70MOL0     H 9446   1.646   3.229   7.689  0.2414 -0.3064 -0.4704
   70MOL0     H 9447   1.593   3.241   7.863  1.0269 -3.2880  2.9097
   70MOL0     H 9448   1.550   2.832   7.803 -3.2409  1.8316  1.1540
   70MOL0     H 9449   1.788   3.500   8.212  1.0112 -0.0812  0.0480
   70MOL0     H 9450   1.705   3.712   8.335 -0.5820 -0.4799  0.1042
   71MOL0     O 9451   7.161   6.767   4.772  0.1294 -0.0393 -0.2307
   71MOL0     C 9452   7.140   6.654   4.720 -0.2667 -0.1079  0.0030
   71MOL0     O 9453   7.098   6.636   4.592 -0.3063 -0.5300  0.3537
   71MOL0     C 9454   7.077   6.753   4.520 -0.5708 -0.5608  0.9844
   71MOL0     C 9455   6.949   6.788   4.503  0.4145 -0.0799  0.6864
   71MOL0     C 9456   6.906   6.920   4.455 -0.8636 -0.6354  0.8155
   71MOL0     C 9457   7.002   7.019   4.433 -0.0119 -0.0474  0.0439
   71MOL0     O 9458   6.987   7.148   4.376  0.1656 -0.0750 -0.1525
   71MOL0     C 9459   6.872   7.213   4.420  0.4865  0.3564  0.1689
   71MOL0     C 9460   6.772   7.194   4.300  1.2858  0.3430  0.0199
   71MOL0     C 9461   6.647   7.282   4.321  0.1763  0.2799  0.4973
   71MOL0     C 9462   6.527   7.244   4.226 -0.1727  0.1724  0.2355
   71MOL0     C 9463   6.431   7.359   4.230  0.1135 -0.4033  0.3582
   71MOL0     C 9464   6.280   7.324   4.198 -0.5795 -1.2862 -0.2577
   71MOL0     C 9465   6.195   7.447   4.169  0.2388  0.5910  0.4100
   71MOL0     C 9466   6.111   7.480   4.297 -0.4812 -0.3378 -0.8744
   71MOL0     N 9467   6.041   7.604   4.294  0.1861 -0.7071  0.2223
   71MOL0     C 9468   6.091   7.733   4.294  0.6153  0.1124 -0.0948
   71MOL0     C 9469   5.985   7.815   4.261 -1.2672  0.5035 -0.5664
   71MOL0     C 9470   5.984   7.965   4.279  0.0305 -0.0266  0.5187
   71MOL0     C 9471   5.992   8.057   4.158  0.0551  0.6001  0.4319
   71MOL0     C 9472   6.000   8.214   4.198 -0.1563  0.4476  0.4931
   71MOL0     C 9473   6.144   8.261   4.222 -0.7643  0.8751 -0.6311
   71MOL0     O 9474   6.147   8.398   4.233 -0.3911 -0.2739 -0.5568
   71MOL0     C 9475   6.268   8.470   4.230 -0.1286  0.3921 -0.8135
   71MOL0     C 9476   6.397   8.423   4.257  0.2816  0.2011 -0.0035
   71MOL0     C 9477   6.515   8.508   4.256 -0.1725  0.1162 -0.1322
   71MOL0     C 9478   6.645   8.435   4.275  0.2745 -1.5062  0.2893
   71MOL0     C 9479   6.497   8.646   4.244 -0.0278 -0.3060  0.0070
   71MOL0     C 9480   6.615   8.737   4.248  0.7889 -0.3691 -0.4631
   71MOL0     O 9481   6.581   8.866   4.278 -0.2521 -0.5252  0.3118
   71MOL0     C 9482   6.682   8.957   4.283 -0.3495  0.2118  0.9069
   71MOL0     C 9483   6.677   9.074   4.205 -0.9130  0.3139  0.6002
   71MOL0     C 9484   6.787   9.167   4.211  0.8106  0.1101  0.0873
   71MOL0     C 9485   6.904   9.138   4.296  0.0324 -0.4857  0.1156
   71MOL0     O 9486   7.001   9.229   4.312  0.4686  0.9189 -0.0659
   71MOL0     C 9487   7.030   9.331   4.218 -0.0330 -1.3336  0.0215
   71MOL0     C 9488   7.165   9.400   4.279  1.3040  0.3941  0.0291
   71MOL0     C 9489   7.292   9.335   4.229  1.1493  0.1772 -0.9630
   71MOL0     C 9490   7.409   9.385   4.309  0.2736  0.3751 -0.2974
   71MOL0     C 9491   7.555   9.368   4.240  0.9682 -0.4022  0.7468
   71MOL0     C 9492   7.552   9.408   4.084 -0.0268 -0.0497  0.0557
   71MOL0     C 9493   7.693   9.410   4.033  0.4402 -0.1389  0.3036
   71MOL0     C 9494   7.722   9.413   3.886  0.7132  1.1101 -0.0204
   71MOL0    Cl 9495   7.728   9.254   3.814  0.4776  0.0278 -0.1515
   71MOL0     C 9496   6.897   9.020   4.381 -0.3795 -0.2436 -0.4768
   71MOL0     C 9497   6.795   8.931   4.369  0.1544  0.6492 -0.4898
   71MOL0     O 9498   6.731   8.693   4.235 -0.0324  0.9478 -0.1882
   71MOL0     C 9499   6.359   8.696   4.225 -0.5739  0.4160  0.5553
   71MOL0     C 9500   6.258   8.608   4.210  0.1836 -0.6735  0.4753
   71MOL0     N 9501   5.873   7.732   4.264  0.1748 -0.6491 -0.2847
   71MOL0     N 9502   5.913   7.615   4.270  0.5417 -0.1076  0.8139
   71MOL0     C 9503   7.134   6.974   4.436 -0.3976  0.1550  0.1717
   71MOL0     C 9504   7.177   6.848   4.487  0.5404 -0.3522  0.8734
   71MOL0     C 9505   7.192   6.522   4.792  0.3306 -0.5055 -1.2695
   71MOL0     C 9506   7.170   6.400   4.735 -0.2608  0.0107  0.2763
   71MOL0     C 9507   7.210   6.289   4.804 -0.7397  0.9160  0.2541
   71MOL0     C 9508   7.280   6.300   4.925  0.5909 -0.1026  0.8668
   71MOL0     O 9509   7.329   6.197   4.993  0.0917 -0.2493  0.1957
   71MOL0     C 9510   7.397   6.085   4.923 -0.1340 -0.5160 -0.2654
   71MOL0     C 9511   7.322   5.949   4.903 -1.4015 -0.9558  0.2899
   71MOL0     C 9512   7.294   5.880   5.045 -0.4041  0.2293 -0.6625
   71MOL0     C 9513   7.148   5.915   5.079  0.2034  0.3353 -0.2703
   71MOL0     C 9514   7.079   5.799   5.148  0.1431 -0.2758 -1.2390
   71MOL0     C 9515   7.014   5.718   5.212 -0.6679  0.1873 -0.4873
   71MOL0     C 9516   7.307   6.414   4.991 -0.0336  0.4207  0.3391
   71MOL0     C 9517   7.270   6.533   4.914  0.5259  0.7786 -0.1928
   71MOL0     H 9518   6.872   6.718   4.533 -2.0924  1.4620 -1.6554
   71MOL0     H 9519   6.804   6.957   4.449  0.1337  2.1704 -0.7122
   71MOL0     H 9520   6.828   7.179   4.514  2.3753 -2.0176  0.2786
   71MOL0     H 9521   6.895   7.320   4.415  2.3556  0.1853  2.9796
   71MOL0     H 9522   6.819   7.211   4.203 -0.0285  3.0111 -0.2348
   71MOL0     H 9523   6.736   7.091   4.312  2.1820  0.1240  0.9004
   71MOL0     H 9524   6.612   7.292   4.424 -0.2014  3.7781  0.1703
   71MOL0     H 9525   6.678   7.384   4.297 -1.8408  0.9187  0.3641
   71MOL0     H 9526   6.565   7.214   4.128  4.1889 -2.2429  2.3792
   71MOL0     H 9527   6.475   7.157   4.267 -0.0419 -0.1001 -0.1765
   71MOL0     H 9528   6.434   7.401   4.331  0.1792  1.6770 -0.4563
   71MOL0     H 9529   6.482   7.435   4.171 -0.2579 -0.6472 -0.2910
   71MOL0     H 9530   6.274   7.245   4.123  3.5646 -2.4160  0.3351
   71MOL0     H 9531   6.230   7.280   4.285 -4.7893 -1.0003 -2.2937
   71MOL0     H 9532   6.242   7.528   4.111 -2.2170  3.6838  2.3891
   71MOL0     H 9533   6.119   7.410   4.099 -0.8548 -0.0247  1.8777
   71MOL0     H 9534   6.185   7.484   4.378  0.3776 -1.3816 -1.5850
   71MOL0     H 9535   6.037   7.408   4.334 -1.7197  2.7139  3.4083
   71MOL0     H 9536   6.182   7.766   4.344 -0.4033  0.6975  1.4577
   71MOL0     H 9537   5.887   7.995   4.321 -0.0837  2.6003 -1.3598
   71MOL0     H 9538   6.061   7.998   4.349  0.3078  0.0751  0.1604
   71MOL0     H 9539   5.902   8.048   4.096 -0.6618  1.9447  1.2191
   71MOL0     H 9540   6.083   8.045   4.098 -0.3775 -0.6798  0.0166
   71MOL0     H 9541   5.940   8.215   4.289  2.6185 -2.2151  2.5748
   71MOL0     H 9542   5.962   8.260   4.107 -0.1916 -1.7984 -0.6826
   71MOL0     H 9543   6.196   8.227   4.132  1.4993 -1.4361  1.4017
   71MOL0     H 9544   6.182   8.210   4.311  0.4473 -0.7815 -2.0318
   71MOL0     H 9545   6.407   8.316   4.277 -0.7315 -0.4235 -2.4898
   71MOL0     H 9546   6.675   8.478   4.371 -0.7827 -0.4277  0.1516
   71MOL0     H 9547   6.642   8.327   4.287 -1.0022 -1.3631  1.4070
   71MOL0     H 9548   6.706   8.449   4.184  0.3349  1.8823  0.7236
   71MOL0     H 9549   6.602   9.092   4.129  2.1552 -1.1993 -3.0944
   71MOL0     H 9550   6.778   9.263   4.162 -1.3225  1.9036  3.6546
   71MOL0     H 9551   7.029   9.295   4.115 -0.9573  1.0713 -0.8846
   71MOL0     H 9552   6.966   9.419   4.231  3.0603  0.6768  3.8993
   71MOL0     H 9553   7.172   9.505   4.251  3.6673  0.3267  0.1716
   71MOL0     H 9554   7.173   9.390   4.387  1.7681 -2.1526 -0.1784
   71MOL0     H 9555   7.300   9.356   4.122  0.2778 -2.0213 -1.5094
   71MOL0     H 9556   7.286   9.229   4.255 -2.5896  0.4653 -0.0347
   71MOL0     H 9557   7.390   9.493   4.303  1.1258  0.4732 -1.5804
   71MOL0     H 9558   7.412   9.346   4.411 -0.2381 -0.0465 -0.4420
   71MOL0     H 9559   7.578   9.261   4.239  2.1356 -0.1772 -0.5234
   71MOL0     H 9560   7.631   9.424   4.295  0.7854  1.3061 -0.6380
   71MOL0     H 9561   7.501   9.327   4.031  1.8064 -1.6759  0.6813
   71MOL0     H 9562   7.498   9.504   4.081 -0.7001 -0.4427 -1.2912
   71MOL0     H 9563   7.751   9.322   4.064  2.6925  0.4291 -1.9588
   71MOL0     H 9564   7.741   9.499   4.073  1.3212  2.2056 -5.0348
   71MOL0     H 9565   7.808   9.476   3.862  0.7670  2.6456  3.6180
   71MOL0     H 9566   7.634   9.446   3.830 -1.2046 -2.0593  0.8826
   71MOL0     H 9567   6.975   9.002   4.454 -0.3671  1.8218  0.0847
   71MOL0     H 9568   6.790   8.831   4.412 -2.4990  0.0703 -1.9194
   71MOL0     H 9569   6.333   8.800   4.209  2.6788  1.8315  3.1454
   71MOL0     H 9570   6.163   8.656   4.187  0.1996  1.0641  3.4501
   71MOL0     H 9571   7.199   7.055   4.404  0.5256  0.9451  3.5994
   71MOL0     H 9572   7.278   6.837   4.523  0.4105  1.1677  1.7774
   71MOL0     H 9573   7.120   6.391   4.639 -0.5518 -2.4016  0.5837
   71MOL0     H 9574   7.200   6.190   4.763  0.8957  1.1468 -0.8058
   71MOL0     H 9575   7.416   6.119   4.821 -2.0079  1.3248 -0.0863
   71MOL0     H 9576   7.489   6.067   4.980 -0.0529  0.2712 -0.1280
   71MOL0     H 9577   7.393   5.888   4.846 -1.2031 -0.7591  0.3257
   71MOL0     H 9578   7.232   5.970   4.844 -1.2709  1.2216  0.7824
   71MOL0     H 9579   7.351   5.916   5.131 -2.4049  0.3598  0.6670
   71MOL0     H 9580   7.303   5.771   5.042 -0.2043  0.2124  0.1972
   71MOL0     H 9581   7.083   5.945   4.996 -1.9472 -1.3590  0.7012
   71MOL0     H 9582   7.151   5.994   5.155  1.0573 -0.7396  0.8601
   71MOL0     H 9583   6.963   5.647   5.274 -0.9104  3.0091  2.8652
   71MOL0     H 9584   7.372   6.413   5.078  0.3114 -1.1459  0.0851
   71MOL0     H 9585   7.281   6.636   4.946  0.8935 -0.1271  2.9284
   72MOL0     O 9586  11.010   9.840   3.492  0.2181 -0.2253  0.8955
   72MOL0     C 9587  10.965   9.950   3.465  0.0909  0.4224 -0.6475
   72MOL0     O 9588  10.888   9.971   3.361 -0.2961 -0.6110 -0.0361
   72MOL0     C 9589  10.829   9.866   3.298 -0.1765  0.1312 -0.0152
   72MOL0     C 9590  10.682   9.868   3.298  0.1300 -0.7569 -0.5708
   72MOL0     C 9591  10.608   9.798   3.204  0.3295  0.2910  0.1858
   72MOL0     C 9592  10.669   9.714   3.117 -0.0193  0.3488  0.4809
   72MOL0     O 9593  10.593   9.635   3.037 -0.0393  0.3379  0.0616
   72MOL0     C 9594  10.630   9.492   3.021 -0.2556 -0.1876 -0.5226
   72MOL0     C 9595  10.514   9.418   2.953  0.1882  0.4364  0.6955
   72MOL0     C 9596  10.559   9.288   2.900 -0.9657 -0.8687 -0.0517
   72MOL0     C 9597  10.450   9.215   2.820 -0.3647  0.2465 -0.2011
   72MOL0     C 9598  10.482   9.068   2.788  0.3574 -0.8142 -0.2304
   72MOL0     C 9599  10.363   8.999   2.710 -0.4581  0.0173  0.0586
   72MOL0     C 9600  10.370   8.850   2.706  0.2295  0.8942  0.0022
   72MOL0     C 9601  10.365   8.786   2.840 -1.0198  0.0221  0.2563
   72MOL0     N 9602  10.265   8.668   2.839  0.2414 -0.6615 -0.4356
   72MOL0     C 9603  10.290   8.535   2.818 -1.0931 -0.1507  0.0461
   72MOL0     C 9604  10.172   8.482   2.791  0.0084 -0.9847 -0.1442
   72MOL0     C 9605  10.152   8.334   2.756 -0.0983 -0.0903 -0.1754
   72MOL0     C 9606  10.149   8.323   2.606 -1.2213 -0.4790  0.0349
   72MOL0     C 9607  10.125   8.177   2.570 -0.5499 -1.0876  0.8313
   72MOL0     C 9608  10.112   8.163   2.418 -1.0479  0.4249 -0.4855
   72MOL0     O 9609  10.239   8.166   2.352 -0.3083 -0.0605  0.2071
   72MOL0     C 9610  10.352   8.109   2.392 -0.3608  0.6262 -0.6085
   72MOL0     C 9611  10.362   7.967   2.400  0.0788 -0.4331 -0.8975
   72MOL0     C 9612  10.478   7.910   2.439  0.9612 -0.3045 -0.3403
   72MOL0     C 9613  10.472   7.759   2.449 -0.1004 -0.8172  0.8345
   72MOL0     C 9614  10.598   7.995   2.440  0.4100  0.3342  0.0519
   72MOL0     C 9615  10.730   7.943   2.486 -0.2238 -0.2943 -1.2492
   72MOL0     O 9616  10.794   8.009   2.591 -0.9284 -0.0719 -0.1832
   72MOL0     C 9617  10.924   7.985   2.623  0.3537  0.2901 -0.3877
   72MOL0     C 9618  10.959   7.988   2.754  0.2548 -0.9710 -0.0902
   72MOL0     C 9619  11.099   7.981   2.787  1.3077  0.6960 -0.2342
   72MOL0     C 9620  11.198   7.956   2.689 -0.7379 -0.5905 -0.5594
   72MOL0     O 9621  11.334   7.929   2.728  0.3803  0.4753  0.1095
   72MOL0     C 9622  11.373   7.925   2.872  0.7355 -0.7765  0.4013
   72MOL0     C 9623  11.498   7.837   2.887  0.8157  0.4247 -0.0906
   72MOL0     C 9624  11.634   7.892   2.853 -0.7828 -0.8818 -0.3740
   72MOL0     C 9625  11.694   7.968   2.974 -0.0641  0.9672  0.6853
   72MOL0     C 9626  11.837   8.022   2.954 -0.7573 -0.0236  0.0868
   72MOL0     C 9627  11.913   8.043   3.088  0.3515 -0.2465  1.1401
   72MOL0     C 9628  12.064   8.067   3.091 -0.3873 -0.6853  0.5282
   72MOL0     C 9629  12.105   8.186   3.006  0.0331 -0.1329 -0.6017
   72MOL0    Cl 9630  12.204   8.295   3.115  0.1065 -0.7096 -0.6073
   72MOL0     C 9631  11.165   7.951   2.557 -0.1712  0.0930 -0.3891
   72MOL0     C 9632  11.029   7.959   2.527  0.2584  0.7108 -0.7187
   72MOL0     O 9633  10.776   7.857   2.415 -0.0450  0.0071  0.6503
   72MOL0     C 9634  10.592   8.132   2.424  0.3952  0.2132  0.0935
   72MOL0     C 9635  10.468   8.189   2.393  0.6384  0.2863 -0.5621
   72MOL0     N 9636  10.072   8.575   2.816 -1.1023 -0.0602  0.2939
   72MOL0     N 9637  10.132   8.692   2.843 -0.2405  0.6389  0.4920
   72MOL0     C 9638  10.813   9.706   3.121 -0.4799  0.1655 -1.0476
   72MOL0     C 9639  10.892   9.776   3.208 -0.7773 -0.3449  0.3158
   72MOL0     C 9640  11.008  10.063   3.555  0.0320 -0.1043  1.1027
   72MOL0     C 9641  10.953  10.194   3.536 -0.0321 -0.8105  0.2051
   72MOL0     C 9642  10.968  10.286   3.643  0.5673 -0.5235  0.7093
   72MOL0     C 9643  11.061  10.273   3.740 -0.8646 -0.2385 -0.6222
   72MOL0     O 9644  11.065  10.367   3.842  0.0634  0.7015 -1.0154
   72MOL0     C 9645  11.022  10.321   3.971 -0.5194 -0.7517  0.5860
   72MOL0     C 9646  10.876  10.321   3.980  0.7728 -0.5013 -0.5779
   72MOL0     C 9647  10.808  10.459   3.975 -0.1467 -1.0309 -0.3148
   72MOL0     C 9648  10.664  10.446   3.953 -0.0589  0.1304  0.0434
   72MOL0     C 9649  10.584  10.389   4.064 -0.2648 -1.0930 -0.2729
   72MOL0     C 9650  10.531  10.352   4.168  0.0013  0.3697  0.8284
   72MOL0     C 9651  11.134  10.152   3.743 -0.0939  0.1889  0.0181
   72MOL0     C 9652  11.111  10.046   3.645 -0.1828  0.1349 -0.1237
   72MOL0     H 9653  10.629   9.929   3.371 -2.0646  0.5172 -3.0492
   72MOL0     H 9654  10.501   9.811   3.192  0.6825  1.0150 -3.1509
   72MOL0     H 9655  10.726   9.483   2.970  1.7003  4.1982  1.7890
   72MOL0     H 9656  10.634   9.451   3.123 -0.5573  1.0967  0.0330
   72MOL0     H 9657  10.434   9.409   3.027 -0.3969  1.4360  0.2075
   72MOL0     H 9658  10.479   9.482   2.871  0.3155 -1.7612 -1.1521
   72MOL0     H 9659  10.647   9.304   2.837 -0.3670 -3.0754  0.1391
   72MOL0     H 9660  10.587   9.236   2.992 -3.4566 -1.5312  0.3955
   72MOL0     H 9661  10.360   9.217   2.882 -0.1407  1.7779  0.1266
   72MOL0     H 9662  10.421   9.276   2.734 -2.2908 -1.4704 -0.8448
   72MOL0     H 9663  10.572   9.050   2.728  0.9435 -2.1440  0.9782
   72MOL0     H 9664  10.490   9.029   2.890 -1.1651 -1.3766 -0.3106
   72MOL0     H 9665  10.270   9.031   2.759  1.0198  3.0567  1.1745
   72MOL0     H 9666  10.350   9.044   2.612 -0.2779  1.2558  0.5791
   72MOL0     H 9667  10.306   8.807   2.629  2.2402 -1.6317 -0.4120
   72MOL0     H 9668  10.469   8.836   2.662  0.3399  3.0330 -0.5579
   72MOL0     H 9669  10.328   8.856   2.916  0.7641  3.1069 -1.5340
   72MOL0     H 9670  10.464   8.765   2.882 -0.2334  2.2871 -0.3454
   72MOL0     H 9671  10.384   8.481   2.811 -1.3305 -0.5063 -0.4554
   72MOL0     H 9672  10.241   8.282   2.793  1.9535  3.2914  0.0184
   72MOL0     H 9673  10.055   8.302   2.796  0.4493  0.4831  1.7223
   72MOL0     H 9674  10.243   8.354   2.560 -0.5688 -2.0210  0.2622
   72MOL0     H 9675  10.065   8.388   2.578  0.3982  0.9519 -1.7159
   72MOL0     H 9676  10.032   8.148   2.620 -2.6657  0.2405 -1.9953
   72MOL0     H 9677  10.211   8.121   2.607 -1.3401 -0.5015  3.7637
   72MOL0     H 9678  10.042   8.235   2.375 -1.5657 -0.1596 -0.6467
   72MOL0     H 9679  10.072   8.063   2.397  0.8040 -0.0307 -2.1022
   72MOL0     H 9680  10.273   7.907   2.381 -1.1438 -0.0879  2.8037
   72MOL0     H 9681  10.400   7.736   2.528 -2.8468 -2.0451 -1.8210
   72MOL0     H 9682  10.416   7.719   2.364  0.0795 -1.9686  1.2491
   72MOL0     H 9683  10.564   7.700   2.454 -0.4774 -1.5724 -0.4614
   72MOL0     H 9684  10.885   8.007   2.831  1.1963  1.3151  0.3574
   72MOL0     H 9685  11.130   7.993   2.891  0.6403  0.9302 -0.0504
   72MOL0     H 9686  11.384   8.032   2.893 -1.0011  0.2619 -3.1700
   72MOL0     H 9687  11.298   7.884   2.941 -0.7147  2.6097  1.0416
   72MOL0     H 9688  11.502   7.782   2.981 -1.3238  0.1869 -0.0884
   72MOL0     H 9689  11.491   7.747   2.824  0.3929  2.6064 -3.3939
   72MOL0     H 9690  11.635   7.964   2.770  2.0745 -0.0451  0.2635
   72MOL0     H 9691  11.708   7.816   2.825  1.4611  2.6888 -5.8376
   72MOL0     H 9692  11.626   8.048   3.006 -0.4716  2.1132 -2.6053
   72MOL0     H 9693  11.707   7.888   3.047 -0.3768  1.0522  0.8346
   72MOL0     H 9694  11.844   8.111   2.892 -1.1262 -0.3800 -0.4761
   72MOL0     H 9695  11.880   7.940   2.896  0.9807 -0.2293  1.5764
   72MOL0     H 9696  11.876   8.136   3.131  0.2266 -0.7124  2.0592
   72MOL0     H 9697  11.892   7.959   3.156  1.7370  0.4221  2.4351
   72MOL0     H 9698  12.105   7.974   3.050  1.1406  0.9441 -1.9291
   72MOL0     H 9699  12.103   8.075   3.193 -0.9061 -2.9076  0.9379
   72MOL0     H 9700  12.017   8.244   2.978 -2.1281 -2.1337  1.6198
   72MOL0     H 9701  12.172   8.152   2.927  1.8940 -2.0484  1.6433
   72MOL0     H 9702  11.239   7.933   2.480 -1.1560 -0.9639 -1.1036
   72MOL0     H 9703  11.005   7.943   2.422  1.3791 -2.8406 -0.5742
   72MOL0     H 9704  10.683   8.191   2.415  0.5489  0.2540  1.6962
   72MOL0     H 9705  10.446   8.294   2.373 -1.3153  0.3615  1.4859
   72MOL0     H 9706  10.859   9.639   3.049 -1.5334 -0.0279 -1.5658
   72MOL0     H 9707  11.000   9.779   3.201 -0.6527 -3.9774 -1.1205
   72MOL0     H 9708  10.889  10.211   3.450  2.8639 -1.7298 -2.3379
   72MOL0     H 9709  10.909  10.376   3.631 -3.7309 -3.0254  1.3817
   72MOL0     H 9710  11.065  10.226   4.003 -0.6309 -0.1838  2.5708
   72MOL0     H 9711  11.057  10.391   4.048  1.8397 -1.5119  0.2852
   72MOL0     H 9712  10.837  10.243   4.047 -0.6042  0.1180 -0.6234
   72MOL0     H 9713  10.862  10.276   3.881 -1.3163 -1.5432  0.1320
   72MOL0     H 9714  10.857  10.510   3.891  0.6260 -1.5707 -0.1926
   72MOL0     H 9715  10.824  10.520   4.064 -1.5287 -0.9870 -0.0747
   72MOL0     H 9716  10.647  10.373   3.873  0.5175 -0.5123  0.4933
   72MOL0     H 9717  10.639  10.546   3.917  4.4134  1.0424 -1.1774
   72MOL0     H 9718  10.486  10.318   4.259 -1.6310 -0.4156 -0.2262
   72MOL0     H 9719  11.192  10.131   3.832 -0.7370  0.4081  0.4967
   72MOL0     H 9720  11.177   9.960   3.653  1.7402  1.5209 -0.4721
   73MOL0     O 9721   5.290   5.076   3.445  1.4021  0.3097 -0.8494
   73MOL0     C 9722   5.281   5.053   3.572 -0.0063 -0.8776  0.6939
   73MOL0     O 9723   5.352   5.121   3.662  0.3247 -0.1198  0.3962
   73MOL0     C 9724   5.453   5.200   3.616  0.4504  1.0956  0.0215
   73MOL0     C 9725   5.433   5.328   3.631 -0.4324  1.0546  0.0273
   73MOL0     C 9726   5.532   5.419   3.622 -0.2396  0.5287  0.4030
   73MOL0     C 9727   5.656   5.382   3.578 -0.0315  0.8818 -0.1251
   73MOL0     O 9728   5.763   5.474   3.567 -0.0059  0.5760  0.6161
   73MOL0     C 9729   5.730   5.611   3.553 -1.0373 -0.2539 -0.3612
   73MOL0     C 9730   5.858   5.677   3.501 -0.2799  0.0087 -1.0472
   73MOL0     C 9731   5.835   5.824   3.465  0.6419  0.2554 -0.2481
   73MOL0     C 9732   5.874   5.851   3.318 -0.3214 -0.6179  1.1779
   73MOL0     C 9733   5.795   5.766   3.216  0.3038  0.4403 -0.1856
   73MOL0     C 9734   5.879   5.704   3.096  1.1254 -0.1683  0.1726
   73MOL0     C 9735   5.798   5.638   2.981  0.7853 -0.0480  0.0919
   73MOL0     C 9736   5.884   5.538   2.900  1.1569  0.1820 -0.3702
   73MOL0     N 9737   5.804   5.471   2.797 -0.2620 -0.0704  0.3920
   73MOL0     C 9738   5.850   5.357   2.738 -0.0234  0.2495  0.0284
   73MOL0     C 9739   5.743   5.295   2.680 -0.3441 -0.4847  0.0059
   73MOL0     C 9740   5.759   5.165   2.605  0.1450  1.1206 -0.1894
   73MOL0     C 9741   5.791   5.197   2.453 -0.6291 -0.7120  0.6071
   73MOL0     C 9742   5.944   5.189   2.423  0.9122 -1.1728 -0.2459
   73MOL0     C 9743   5.979   5.255   2.284  0.7816 -0.2781 -0.6834
   73MOL0     O 9744   6.094   5.199   2.231  0.6789 -0.4638  0.4066
   73MOL0     C 9745   6.117   5.234   2.101  0.3031 -0.3713 -0.2441
   73MOL0     C 9746   6.020   5.220   1.995  0.6271  0.6206 -1.1336
   73MOL0     C 9747   6.052   5.269   1.866 -0.8515 -0.9734  0.0033
   73MOL0     C 9748   5.938   5.273   1.769  0.4757 -0.4976  0.1101
   73MOL0     C 9749   6.178   5.331   1.837  0.0593  0.3223  0.2634
   73MOL0     C 9750   6.233   5.352   1.703  0.5789 -0.7165 -0.0799
   73MOL0     O 9751   6.344   5.426   1.695 -0.3190 -0.5590  1.3994
   73MOL0     C 9752   6.440   5.406   1.592  0.8811  0.7430  0.0777
   73MOL0     C 9753   6.570   5.363   1.620  0.7595  0.2810  0.6777
   73MOL0     C 9754   6.665   5.350   1.516 -0.3779  0.1432 -1.0266
   73MOL0     C 9755   6.632   5.380   1.385  1.5750 -0.5338 -0.7498
   73MOL0     O 9756   6.731   5.360   1.289  0.4925 -0.0781  0.1510
   73MOL0     C 9757   6.835   5.454   1.316  0.3341  0.1443 -0.2545
   73MOL0     C 9758   6.963   5.411   1.248  0.9174 -0.8233  0.5673
   73MOL0     C 9759   7.019   5.277   1.300  0.1971  0.3583 -0.1420
   73MOL0     C 9760   7.174   5.289   1.328 -0.9784  0.7318 -0.3661
   73MOL0     C 9761   7.261   5.280   1.195 -0.0389  1.1266 -1.7636
   73MOL0     C 9762   7.283   5.413   1.118  0.0036 -0.6474 -0.3301
   73MOL0     C 9763   7.430   5.445   1.111  0.7333  0.1066 -0.9085
   73MOL0     C 9764   7.456   5.551   1.003 -0.0178  0.4245  0.0873
   73MOL0    Cl 9765   7.381   5.702   1.078  0.2366  0.0669  0.0175
   73MOL0     C 9766   6.500   5.413   1.351 -0.7407  0.0333  0.7386
   73MOL0     C 9767   6.408   5.431   1.456 -0.4592  1.2336 -0.5258
   73MOL0     O 9768   6.177   5.287   1.609 -0.5783 -0.5724 -0.1084
   73MOL0     C 9769   6.259   5.356   1.955  0.2685  0.4178 -0.9266
   73MOL0     C 9770   6.232   5.309   2.069  1.3510  0.7301 -0.2320
   73MOL0     N 9771   5.632   5.380   2.702 -0.4965  0.2858  0.1841
   73MOL0     N 9772   5.668   5.480   2.772  0.0961  0.3608 -0.3410
   73MOL0     C 9773   5.673   5.238   3.551 -0.4342 -0.3107  0.1199
   73MOL0     C 9774   5.577   5.144   3.572  0.1535 -0.1579 -0.2462
   73MOL0     C 9775   5.198   4.935   3.620  0.7892 -0.7652  0.5694
   73MOL0     C 9776   5.189   4.905   3.754  0.6087 -0.3172 -0.7556
   73MOL0     C 9777   5.100   4.814   3.798  0.2210 -0.5646 -1.3580
   73MOL0     C 9778   5.011   4.746   3.717 -0.0431 -0.2003 -0.7934
   73MOL0     O 9779   4.930   4.661   3.790  0.9576 -0.1442 -0.2381
   73MOL0     C 9780   4.848   4.572   3.718  0.1239  0.2730 -0.2256
   73MOL0     C 9781   4.787   4.464   3.817 -0.3382  0.7622 -0.6852
   73MOL0     C 9782   4.895   4.388   3.891  0.4793  0.5358 -0.4785
   73MOL0     C 9783   4.844   4.294   4.011 -0.2491  0.1000  0.0774
   73MOL0     C 9784   4.939   4.210   4.083  0.6689  1.2945 -0.2835
   73MOL0     C 9785   5.012   4.126   4.140  1.3192 -0.6006 -0.3944
   73MOL0     C 9786   5.031   4.765   3.576  0.4771 -0.2194 -1.1381
   73MOL0     C 9787   5.118   4.858   3.529  0.5043 -0.1839  0.3303
   73MOL0     H 9788   5.336   5.370   3.655 -0.4384  2.2949 -1.8861
   73MOL0     H 9789   5.509   5.522   3.649 -0.5031  0.8167 -0.8497
   73MOL0     H 9790   5.652   5.624   3.477  1.0872  1.7024 -2.3512
   73MOL0     H 9791   5.692   5.667   3.640 -2.6905 -1.3297 -0.3478
   73MOL0     H 9792   5.932   5.672   3.582 -0.9489  1.0538 -0.3448
   73MOL0     H 9793   5.891   5.622   3.413 -1.3850 -1.9426 -0.3051
   73MOL0     H 9794   5.729   5.849   3.478  1.0691  1.8085  0.4799
   73MOL0     H 9795   5.885   5.890   3.537 -0.1548 -1.3258  1.8673
   73MOL0     H 9796   5.871   5.955   3.286  3.3554  0.0483  2.5551
   73MOL0     H 9797   5.976   5.814   3.312  0.8665  2.5938 -0.4599
   73MOL0     H 9798   5.743   5.684   3.268  0.5275  1.0165  0.9775
   73MOL0     H 9799   5.711   5.824   3.177 -0.5913 -2.0316 -2.2505
   73MOL0     H 9800   5.929   5.793   3.058  1.0556  0.2780  1.1043
   73MOL0     H 9801   5.961   5.647   3.141  1.1971  0.3472  0.7012
   73MOL0     H 9802   5.722   5.573   3.026  1.4579 -0.7111  0.2858
   73MOL0     H 9803   5.759   5.714   2.913 -3.9501 -1.7666  0.4996
   73MOL0     H 9804   5.923   5.453   2.957  0.0176  0.2216  0.5031
   73MOL0     H 9805   5.973   5.592   2.865  0.1228  1.7820 -0.6021
   73MOL0     H 9806   5.950   5.315   2.745 -0.1487  0.1993  2.8679
   73MOL0     H 9807   5.828   5.100   2.660 -0.1947  1.7874  1.0736
   73MOL0     H 9808   5.666   5.109   2.591  0.3644  1.1563 -1.9975
   73MOL0     H 9809   5.772   5.304   2.442  1.3517  0.4684  5.9078
   73MOL0     H 9810   5.742   5.134   2.378  0.0389 -1.0926  0.4777
   73MOL0     H 9811   5.973   5.084   2.431  0.4793 -1.1810  1.7509
   73MOL0     H 9812   5.996   5.250   2.497 -2.0119  0.9082  0.3143
   73MOL0     H 9813   6.003   5.361   2.299  1.9867 -0.4458 -1.2812
   73MOL0     H 9814   5.884   5.248   2.229  0.9385 -1.2178 -0.8558
   73MOL0     H 9815   5.924   5.174   2.016  1.6356 -0.9699  0.2014
   73MOL0     H 9816   5.936   5.173   1.725  0.3067  1.2184 -4.3072
   73MOL0     H 9817   5.850   5.307   1.825  1.0829  2.1529 -0.4488
   73MOL0     H 9818   5.956   5.335   1.682  2.7993 -2.9843 -1.3365
   73MOL0     H 9819   6.595   5.335   1.721  2.0716 -1.6047 -0.1155
   73MOL0     H 9820   6.767   5.328   1.547  0.3962  0.2755 -3.3006
   73MOL0     H 9821   6.801   5.552   1.281 -0.3017 -0.4580 -1.3512
   73MOL0     H 9822   6.847   5.461   1.425 -0.1728 -0.3320 -0.1639
   73MOL0     H 9823   6.950   5.400   1.140 -2.2679 -3.8593  1.0976
   73MOL0     H 9824   7.031   5.494   1.270  0.4071  0.3505 -1.9348
   73MOL0     H 9825   7.000   5.203   1.222 -1.2229  2.7508 -2.1981
   73MOL0     H 9826   6.974   5.233   1.390  0.8560  1.2838  0.6674
   73MOL0     H 9827   7.199   5.383   1.378  0.5815  0.1755 -0.0728
   73MOL0     H 9828   7.207   5.205   1.389 -1.7154  0.7340  0.0471
   73MOL0     H 9829   7.201   5.214   1.132 -0.0661  0.0412 -0.6383
   73MOL0     H 9830   7.349   5.219   1.217  1.4957  2.8520 -2.8573
   73MOL0     H 9831   7.245   5.403   1.016 -2.0586 -0.3734  0.3809
   73MOL0     H 9832   7.228   5.485   1.179  3.6995  0.7255  1.7231
   73MOL0     H 9833   7.491   5.359   1.081 -0.1978 -0.8018 -0.2848
   73MOL0     H 9834   7.462   5.496   1.202 -2.4711  1.7186 -0.5583
   73MOL0     H 9835   7.413   5.521   0.907 -1.2625  0.3338  0.6538
   73MOL0     H 9836   7.565   5.547   0.995  0.0017  2.8767 -1.7569
   73MOL0     H 9837   6.482   5.434   1.246  2.5973 -3.7681 -0.8456
   73MOL0     H 9838   6.304   5.439   1.424 -0.2814  0.0138 -1.4616
   73MOL0     H 9839   6.359   5.397   1.942  1.6678 -1.9331  1.4034
   73MOL0     H 9840   6.300   5.326   2.152  1.2425 -2.9345  0.7801
   73MOL0     H 9841   5.769   5.203   3.514  0.3333  0.9160  0.8875
   73MOL0     H 9842   5.597   5.040   3.547 -1.2200 -0.2647 -1.0385
   73MOL0     H 9843   5.260   4.954   3.820  0.4615 -0.7522 -0.2690
   73MOL0     H 9844   5.107   4.794   3.905  0.6507 -1.7739 -1.5924
   73MOL0     H 9845   4.766   4.625   3.670  0.9215  0.7967 -1.0497
   73MOL0     H 9846   4.906   4.525   3.637  1.5477  2.4099 -0.5270
   73MOL0     H 9847   4.723   4.404   3.751 -0.8515 -0.8480  1.1847
   73MOL0     H 9848   4.717   4.522   3.877  0.5209  0.6792  0.4319
   73MOL0     H 9849   4.968   4.459   3.932  1.9420 -2.4973  2.7758
   73MOL0     H 9850   4.951   4.319   3.828 -2.0764 -1.5323 -0.6044
   73MOL0     H 9851   4.766   4.225   3.976  1.6428 -2.1366  0.0236
   73MOL0     H 9852   4.796   4.364   4.080  0.8211  1.5213 -0.5677
   73MOL0     H 9853   5.074   4.052   4.187  0.9467  1.1201  3.0628
   73MOL0     H 9854   4.989   4.702   3.499 -0.3348  3.4234 -3.9494
   73MOL0     H 9855   5.134   4.883   3.425 -1.3261  2.6058  0.6083
   74MOL0     O 9856   2.612   4.434  11.413 -0.3741  0.7646  0.2652
   74MOL0     C 9857   2.568   4.424  11.525  0.6419  0.4699 -0.2158
   74MOL0     O 9858   2.542   4.524  11.612 -0.4909  0.9979  0.3731
   74MOL0     C 9859   2.560   4.653  11.572  0.3370 -0.0862 -0.7167
   74MOL0     C 9860   2.445   4.734  11.573  0.1387 -0.8944 -0.0698
   74MOL0     C 9861   2.470   4.872  11.563  1.1243  0.2656  0.2829
   74MOL0     C 9862   2.600   4.926  11.569  0.6275  0.1407  0.1179
   74MOL0     O 9863   2.615   5.059  11.560 -0.1447  0.4832 -0.4827
   74MOL0     C 9864   2.541   5.138  11.657  0.1774  0.1816 -0.9280
   74MOL0     C 9865   2.621   5.273  11.645  0.5596 -1.2845 -0.0292
   74MOL0     C 9866   2.594   5.340  11.509  0.3604 -0.2065 -1.2744
   74MOL0     C 9867   2.620   5.485  11.505 -0.0955 -0.6254  0.8340
   74MOL0     C 9868   2.577   5.535  11.372  0.4678  0.5201  0.8481
   74MOL0     C 9869   2.424   5.554  11.346  1.0571  0.4034  0.5103
   74MOL0     C 9870   2.370   5.701  11.374 -0.3386  0.3443  0.6136
   74MOL0     C 9871   2.432   5.805  11.281  1.1533 -0.9267  0.1991
   74MOL0     N 9872   2.372   5.934  11.315 -1.1844 -0.2576  1.0498
   74MOL0     C 9873   2.420   6.015  11.409 -0.2811 -0.2272 -0.0653
   74MOL0     C 9874   2.338   6.118  11.433  0.2128  0.2915 -0.6639
   74MOL0     C 9875   2.357   6.224  11.536  0.3227 -0.8391  0.0300
   74MOL0     C 9876   2.235   6.320  11.542  0.7439  0.3954  0.2198
   74MOL0     C 9877   2.253   6.416  11.655  0.0768 -0.1219 -0.7152
   74MOL0     C 9878   2.138   6.520  11.655  0.2370  0.1116 -0.2266
   74MOL0     O 9879   2.149   6.599  11.769  0.3025  0.0985  0.3249
   74MOL0     C 9880   2.095   6.723  11.763  0.3249 -0.0144 -0.5350
   74MOL0     C 9881   2.021   6.790  11.656  0.1379 -0.4472  0.2199
   74MOL0     C 9882   1.977   6.921  11.679 -1.5338  0.2476 -0.3334
   74MOL0     C 9883   1.900   6.982  11.565 -0.9458  0.5428 -0.2018
   74MOL0     C 9884   2.007   6.991  11.795 -0.1714 -0.7979 -0.1373
   74MOL0     C 9885   1.960   7.133  11.824  0.1198 -0.2570  0.2327
   74MOL0     O 9886   2.061   7.213  11.880 -0.2145 -0.2977  0.3587
   74MOL0     C 9887   2.039   7.340  11.928 -0.0078 -0.7049  0.4419
   74MOL0     C 9888   2.160   7.412  11.959 -0.4409 -0.4604  0.6541
   74MOL0     C 9889   2.141   7.536  12.021  0.0758 -0.8546 -1.1478
   74MOL0     C 9890   2.012   7.580  12.055 -0.7718 -1.3191 -0.3139
   74MOL0     O 9891   2.008   7.706  12.103 -0.2926 -0.0063 -0.0543
   74MOL0     C 9892   1.982   7.810  12.003  0.9648 -0.4865 -0.5840
   74MOL0     C 9893   2.075   7.928  12.022 -0.3572  0.0791 -0.9743
   74MOL0     C 9894   2.099   7.982  12.169 -0.7402  0.1166 -0.0223
   74MOL0     C 9895   2.181   8.108  12.173 -0.3861 -0.6001 -1.2046
   74MOL0     C 9896   2.326   8.079  12.174 -0.2051 -0.4993  0.5255
   74MOL0     C 9897   2.411   8.194  12.120 -0.1579 -0.6598  0.3363
   74MOL0     C 9898   2.560   8.151  12.091 -0.3329 -1.4719  0.0072
   74MOL0     C 9899   2.628   8.088  12.215 -0.6564 -0.2058  0.1607
   74MOL0    Cl 9900   2.660   8.233  12.314 -0.1984  0.2838  0.5926
   74MOL0     C 9901   1.906   7.508  12.037  0.4697 -0.8008 -0.8359
   74MOL0     C 9902   1.915   7.388  11.977 -0.5829 -0.0572 -0.3800
   74MOL0     O 9903   1.849   7.175  11.787  1.1121 -0.5603 -0.5250
   74MOL0     C 9904   2.063   6.915  11.896 -1.3648  0.3048 -0.7037
   74MOL0     C 9905   2.103   6.787  11.889 -0.0594 -0.2961  0.8267
   74MOL0     N 9906   2.240   6.108  11.330 -0.3792  0.3194  0.4753
   74MOL0     N 9907   2.275   6.008  11.247 -0.5780 -0.6398 -0.1218
   74MOL0     C 9908   2.712   4.843  11.561 -0.0700  0.5127 -0.2031
   74MOL0     C 9909   2.685   4.704  11.567 -0.2153 -1.0174  0.1239
   74MOL0     C 9910   2.536   4.282  11.573  0.2275  0.4488  0.2197
   74MOL0     C 9911   2.475   4.258  11.702 -0.4958 -0.2743  0.7892
   74MOL0     C 9912   2.470   4.124  11.753 -0.0134 -0.8286  0.0911
   74MOL0     C 9913   2.509   4.021  11.669 -0.0598 -0.3776 -0.2490
   74MOL0     O 9914   2.492   3.902  11.718 -0.0092 -0.5941  0.1219
   74MOL0     C 9915   2.614   3.825  11.701  2.6529 -0.3993 -0.8301
   74MOL0     C 9916   2.582   3.680  11.749 -1.6747  0.0032  0.3823
   74MOL0     C 9917   2.684   3.577  11.719 -0.7400  1.1144 -0.8856
   74MOL0     C 9918   2.829   3.618  11.750 -0.3381  0.4614 -0.9688
   74MOL0     C 9919   2.938   3.533  11.700 -0.0349  0.4506  0.9681
   74MOL0     C 9920   3.044   3.509  11.650 -0.7258  0.8437 -0.3682
   74MOL0     C 9921   2.548   4.042  11.538  0.4292 -0.5932  0.2304
   74MOL0     C 9922   2.573   4.170  11.499 -0.1324  0.6215 -0.1193
   74MOL0     H 9923   2.348   4.687  11.586  0.1764 -0.1507  4.7152
   74MOL0     H 9924   2.382   4.936  11.557  2.3333  1.8560 -2.8166
   74MOL0     H 9925   2.434   5.146  11.636  0.1601  0.2023 -0.8309
   74MOL0     H 9926   2.559   5.099  11.758  1.8278  0.6020 -1.0164
   74MOL0     H 9927   2.609   5.346  11.725  1.3554  1.2781 -2.1344
   74MOL0     H 9928   2.726   5.247  11.661  1.2796  0.7489 -1.1244
   74MOL0     H 9929   2.650   5.292  11.428 -1.5344 -1.1326 -2.0962
   74MOL0     H 9930   2.486   5.332  11.491 -0.6244  1.0730  2.8571
   74MOL0     H 9931   2.566   5.536  11.586  1.9700 -3.8701  4.5748
   74MOL0     H 9932   2.721   5.513  11.536  0.6457 -1.3783 -0.7346
   74MOL0     H 9933   2.623   5.633  11.354  0.0192  0.6263  0.2596
   74MOL0     H 9934   2.625   5.475  11.295  2.8072 -2.2188  4.1226
   74MOL0     H 9935   2.407   5.534  11.239  0.6785 -1.2515  0.8493
   74MOL0     H 9936   2.364   5.481  11.401  0.1231  2.3243  2.1534
   74MOL0     H 9937   2.261   5.713  11.364 -0.3210  1.1695  1.2433
   74MOL0     H 9938   2.386   5.737  11.476 -2.3797  1.1731  0.6992
   74MOL0     H 9939   2.397   5.780  11.181 -0.1667 -2.2212  0.9553
   74MOL0     H 9940   2.542   5.807  11.281  1.2178 -2.0414  2.0403
   74MOL0     H 9941   2.515   5.998  11.461  0.4676  0.5449 -1.1424
   74MOL0     H 9942   2.373   6.171  11.631 -1.7748 -0.0905  0.8556
   74MOL0     H 9943   2.445   6.288  11.523 -0.5584  0.2305 -0.8105
   74MOL0     H 9944   2.142   6.263  11.557  2.0957 -1.0202  5.1373
   74MOL0     H 9945   2.228   6.362  11.441  0.3771 -2.8346 -1.2083
   74MOL0     H 9946   2.341   6.479  11.636  2.4976 -3.2311 -0.6380
   74MOL0     H 9947   2.267   6.375  11.755  1.6130  0.7210 -0.5581
   74MOL0     H 9948   2.042   6.468  11.651  1.0745 -1.5539 -4.2747
   74MOL0     H 9949   2.148   6.586  11.568  3.2999  0.4849  0.2648
   74MOL0     H 9950   2.006   6.741  11.560 -1.3364 -0.8382  0.6262
   74MOL0     H 9951   1.937   6.957  11.465 -0.3040 -0.1877  0.2085
   74MOL0     H 9952   1.792   6.971  11.563 -0.6334 -3.6698 -1.4379
   74MOL0     H 9953   1.915   7.091  11.566  1.7166  0.2974 -2.1324
   74MOL0     H 9954   2.260   7.378  11.934 -0.5477 -0.6050  0.4180
   74MOL0     H 9955   2.226   7.597  12.052 -2.0229  0.3699  3.0907
   74MOL0     H 9956   2.012   7.760  11.910 -1.6343  0.5502 -2.1074
   74MOL0     H 9957   1.875   7.834  11.995  0.8343  0.4831  2.6704
   74MOL0     H 9958   2.173   7.897  11.984 -1.2336 -1.9685 -1.7236
   74MOL0     H 9959   2.028   8.011  11.969 -0.0846 -0.4499 -2.0752
   74MOL0     H 9960   2.141   7.898  12.226 -0.5899  1.3497  1.7505
   74MOL0     H 9961   2.000   8.004  12.210 -0.7236  1.9347 -0.8586
   74MOL0     H 9962   2.151   8.158  12.081 -0.1438 -0.1085 -1.0246
   74MOL0     H 9963   2.146   8.180  12.248 -0.0335  0.4479 -2.0149
   74MOL0     H 9964   2.340   7.991  12.110  1.1136 -0.1376  0.2763
   74MOL0     H 9965   2.360   8.071  12.278  0.9047  0.5873  0.2649
   74MOL0     H 9966   2.358   8.236  12.033 -1.8378 -0.4932  1.4078
   74MOL0     H 9967   2.409   8.276  12.192 -1.6607  1.1645 -1.6263
   74MOL0     H 9968   2.620   8.231  12.048 -1.1003 -0.2031  1.2192
   74MOL0     H 9969   2.563   8.080  12.007  0.3988 -2.5862  0.9577
   74MOL0     H 9970   2.725   8.053  12.177 -0.1314  2.9220 -1.7252
   74MOL0     H 9971   2.572   8.016  12.275 -2.0647  0.2953 -0.5064
   74MOL0     H 9972   1.807   7.543  12.067  0.5075 -0.7876 -0.7269
   74MOL0     H 9973   1.820   7.339  11.956 -1.1287  0.5043  0.6844
   74MOL0     H 9974   2.084   6.975  11.984 -0.4559  2.6475 -2.4101
   74MOL0     H 9975   2.127   6.742  11.985  2.0729  2.0803  1.5182
   74MOL0     H 9976   2.813   4.880  11.546  1.5078 -2.7444  1.2282
   74MOL0     H 9977   2.770   4.637  11.567  1.5517  1.1111  0.6939
   74MOL0     H 9978   2.433   4.347  11.749 -1.7483 -1.3000  1.6849
   74MOL0     H 9979   2.436   4.103  11.853 -3.6295 -2.3366 -1.2951
   74MOL0     H 9980   2.646   3.824  11.597  1.0150  0.2953 -1.3616
   74MOL0     H 9981   2.692   3.876  11.759  0.8318  1.7345 -0.1429
   74MOL0     H 9982   2.491   3.651  11.697 -2.0043  1.3754  0.1581
   74MOL0     H 9983   2.569   3.673  11.857  0.7903 -1.6798  0.6750
   74MOL0     H 9984   2.660   3.556  11.615 -2.1598  1.0294 -0.5572
   74MOL0     H 9985   2.668   3.486  11.778  2.9234  0.0071 -1.3292
   74MOL0     H 9986   2.841   3.639  11.857  1.1383 -1.9834 -0.5689
   74MOL0     H 9987   2.852   3.712  11.700  1.8595  0.9868  0.8736
   74MOL0     H 9988   3.137   3.506  11.598  0.3054 -1.8468  1.4605
   74MOL0     H 9989   2.554   3.955  11.474  1.8413 -2.2647  2.4624
   74MOL0     H 9990   2.603   4.187  11.396 -2.1464  0.4808 -0.7636
   75MOL0     O 9991   2.632   7.919  11.473 -0.3328 -0.6816  0.4143
   75MOL0     C 9992   2.711   7.926  11.377 -0.9681  0.7138 -1.2511
   75MOL0     O 9993   2.677   7.944  11.253 -1.1118  0.0985  0.7511
   75MOL0     C 9994   2.562   7.890  11.206 -0.4964  0.5123  0.5173
   75MOL0     C 9995   2.494   7.957  11.116  0.0973 -0.8696 -0.6565
   75MOL0     C 9996   2.386   7.893  11.053  0.5041 -1.0598  0.3183
   75MOL0     C 9997   2.348   7.760  11.082 -0.6926 -0.2978  0.2241
   75MOL0     O 9998   2.237   7.699  11.025 -0.0854 -0.4661  1.0293
   75MOL0     C 9999   2.148   7.751  10.928 -0.0685  0.0644 -0.2099
   75MOL0     C10000   2.099   7.637  10.842  0.2891 -0.3464  0.1418
   75MOL0     C10001   1.987   7.687  10.748 -0.3284  0.1367  0.5509
   75MOL0     C10002   1.928   7.582  10.669 -0.7180 -0.5113 -0.5733
   75MOL0     C10003   1.808   7.633  10.590  0.4475 -0.6885 -0.1717
   75MOL0     C10004   1.755   7.531  10.492 -0.0866 -0.3638 -0.4043
   75MOL0     C10005   1.623   7.464  10.530 -0.2571 -0.2644  0.0436
   75MOL0     C10006   1.585   7.370  10.406  0.5002 -0.5250  0.0602
   75MOL0     N10007   1.481   7.271  10.445  0.6292  0.5844 -0.5054
   75MOL0     C10008   1.509   7.146  10.499 -0.1802 -0.5827 -1.4819
   75MOL0     C10009   1.390   7.075  10.488  0.0529 -0.5789  0.6604
   75MOL0     C10010   1.349   6.929  10.508  0.5995  0.2800 -0.7939
   75MOL0     C10011   1.205   6.910  10.578 -0.5285 -1.1854 -0.4841
   75MOL0     C10012   1.210   6.759  10.630 -0.3274  0.4902  0.1220
   75MOL0     C10013   1.077   6.713  10.684 -0.2230 -0.0513 -0.4148
   75MOL0     O10014   1.093   6.577  10.734  0.6830  0.0245  0.3897
   75MOL0     C10015   1.025   6.545  10.848 -0.4731  0.1992 -0.2294
   75MOL0     C10016   1.083   6.519  10.970  0.0572 -0.5715 -0.2453
   75MOL0     C10017   1.000   6.471  11.080 -0.4960  0.2023 -0.2200
   75MOL0     C10018   1.051   6.458  11.221 -0.6221 -0.1369  0.5366
   75MOL0     C10019   0.872   6.421  11.056  0.8355 -0.9742 -0.2134
   75MOL0     C10020   0.789   6.364  11.166 -0.2270 -0.0462  0.3178
   75MOL0     O10021   0.752   6.229  11.174  0.7610  0.4273  0.1856
   75MOL0     C10022   0.820   6.150  11.090  0.2759 -0.1246 -0.9393
   75MOL0     C10023   0.765   6.112  10.971 -0.0728 -0.4656  1.6149
   75MOL0     C10024   0.817   5.997  10.912 -0.5580  0.4513 -0.1775
   75MOL0     C10025   0.922   5.929  10.967 -0.1707 -0.3737  0.4878
   75MOL0     O10026   0.970   5.829  10.886 -0.1126 -0.5610 -0.2435
   75MOL0     C10027   1.035   5.724  10.962  0.2129 -0.0921 -0.2616
   75MOL0     C10028   0.994   5.591  10.906 -0.5752 -0.0816  0.4762
   75MOL0     C10029   1.043   5.565  10.759 -0.5530 -1.2457  0.0999
   75MOL0     C10030   1.162   5.478  10.748 -0.1966 -1.0160  0.3974
   75MOL0     C10031   1.215   5.439  10.607 -0.2344 -0.4980  0.2655
   75MOL0     C10032   1.326   5.333  10.622  1.5077 -1.3135 -0.0990
   75MOL0     C10033   1.407   5.292  10.493 -0.7776  0.0075  0.0345
   75MOL0     C10034   1.545   5.257  10.519 -0.2293  0.3496  0.0889
   75MOL0    Cl10035   1.648   5.278  10.372  0.1713  0.3863 -0.1784
   75MOL0     C10036   0.980   5.963  11.086  0.3101 -0.1268  0.5005
   75MOL0     C10037   0.935   6.077  11.141 -0.0133  0.8985  0.7599
   75MOL0     O10038   0.749   6.448  11.249 -0.4162 -0.0830  0.9432
   75MOL0     C10039   0.809   6.449  10.933 -1.7085  0.4540 -0.0910
   75MOL0     C10040   0.888   6.518  10.837 -0.0147  0.1897  0.4717
   75MOL0     N10041   1.294   7.162  10.425  0.9419 -0.1163  0.3039
   75MOL0     N10042   1.359   7.269  10.391 -0.0272  0.5708 -0.3170
   75MOL0     C10043   2.416   7.705  11.191 -0.3791  0.4914 -0.6298
   75MOL0     C10044   2.533   7.759  11.246  0.4828 -0.6376  0.6458
   75MOL0     C10045   2.849   7.933  11.429 -0.2846 -0.3182  1.1740
   75MOL0     C10046   2.956   7.930  11.339 -0.0333 -0.5127 -0.2827
   75MOL0     C10047   3.090   7.923  11.393  0.1576 -0.1440  0.4410
   75MOL0     C10048   3.120   7.920  11.523 -0.5600  0.3277 -0.2901
   75MOL0     O10049   3.254   7.911  11.562 -0.3664 -0.4966  0.1428
   75MOL0     C10050   3.291   7.893  11.701  0.4335  0.7369 -0.0585
   75MOL0     C10051   3.438   7.861  11.719 -0.0075 -0.7916  0.2708
   75MOL0     C10052   3.475   7.739  11.640 -0.1279  1.2147  0.4094
   75MOL0     C10053   3.615   7.683  11.690 -0.3305  0.4780 -0.2383
   75MOL0     C10054   3.694   7.598  11.595  1.4054 -0.5856 -0.1818
   75MOL0     C10055   3.772   7.525  11.534  0.6082  0.1448  1.0083
   75MOL0     C10056   3.013   7.936  11.608  0.1688 -1.5476  0.2827
   75MOL0     C10057   2.885   7.942  11.561 -0.1999 -0.4206  1.0317
   75MOL0     H10058   2.534   8.053  11.086  1.0243 -1.5994 -1.8425
   75MOL0     H10059   2.340   7.952  10.975  2.5566 -1.8726 -1.5930
   75MOL0     H10060   2.072   7.800  10.990  0.5081  1.1121 -0.3030
   75MOL0     H10061   2.190   7.828  10.862 -1.1720 -0.9042 -2.1190
   75MOL0     H10062   2.187   7.604  10.785 -0.1813  0.7155 -1.2417
   75MOL0     H10063   2.063   7.552  10.901 -2.3919  2.1556  2.4143
   75MOL0     H10064   1.904   7.725  10.808  0.9324 -0.0371  2.4896
   75MOL0     H10065   2.027   7.769  10.689 -1.9079 -0.3324 -1.2744
   75MOL0     H10066   1.995   7.546  10.590 -1.2615  1.2994 -1.9334
   75MOL0     H10067   1.915   7.488  10.723  5.1077 -1.1148  0.4578
   75MOL0     H10068   1.730   7.672  10.657  0.5347 -1.0164  0.1250
   75MOL0     H10069   1.842   7.719  10.531 -0.8277  0.2672  0.4172
   75MOL0     H10070   1.742   7.566  10.389  0.1297 -0.9071 -0.6197
   75MOL0     H10071   1.829   7.452  10.476  1.3495  1.1605 -1.7129
   75MOL0     H10072   1.624   7.403  10.621 -1.1213  1.1423  1.0410
   75MOL0     H10073   1.548   7.542  10.545  1.1630  1.0358  0.6602
   75MOL0     H10074   1.674   7.322  10.366  0.9143 -1.5032  2.0377
   75MOL0     H10075   1.535   7.431  10.329  0.7882 -0.9029 -0.4318
   75MOL0     H10076   1.610   7.121  10.529 -0.6917 -0.3674  0.6115
   75MOL0     H10077   1.355   6.881  10.410 -1.5913  0.8004 -1.2380
   75MOL0     H10078   1.422   6.888  10.578 -0.8141  0.3417  0.7740
   75MOL0     H10079   1.123   6.929  10.508 -0.0173 -2.2270 -1.3845
   75MOL0     H10080   1.184   6.968  10.669 -2.1351  1.2256 -2.2541
   75MOL0     H10081   1.282   6.747  10.712 -1.7047  0.0871  1.3054
   75MOL0     H10082   1.235   6.696  10.544 -1.9770 -1.6284  1.1092
   75MOL0     H10083   0.995   6.713  10.612  0.0483  0.8974 -0.7483
   75MOL0     H10084   1.056   6.770  10.775  1.6029 -1.9406  1.3061
   75MOL0     H10085   1.190   6.536  10.978  0.2599  1.1618 -4.1872
   75MOL0     H10086   1.073   6.354  11.243  2.0636  0.0137 -1.0660
   75MOL0     H10087   1.143   6.515  11.236  1.5621 -3.8813  2.8196
   75MOL0     H10088   0.973   6.485  11.294  1.7285 -0.3189  3.2828
   75MOL0     H10089   0.683   6.175  10.938  2.1939  2.4814  1.1555
   75MOL0     H10090   0.781   5.957  10.817  1.0573  0.1756 -0.7154
   75MOL0     H10091   1.144   5.739  10.966  0.3311 -1.2004  1.4849
   75MOL0     H10092   0.998   5.718  11.064  1.2175  0.6448  0.1628
   75MOL0     H10093   1.049   5.524  10.974 -1.0276 -0.0661  0.8587
   75MOL0     H10094   0.886   5.577  10.902 -0.5353 -0.2933  0.1134
   75MOL0     H10095   1.078   5.660  10.718  0.5115  0.0937  3.7194
   75MOL0     H10096   0.970   5.528  10.687 -0.9693  1.5229 -1.0026
   75MOL0     H10097   1.244   5.519  10.808 -2.2649  0.9160  2.0771
   75MOL0     H10098   1.123   5.387  10.795 -2.1401 -0.3813  0.0991
   75MOL0     H10099   1.242   5.542  10.584 -0.4025 -0.3686  0.6385
   75MOL0     H10100   1.149   5.412  10.524 -2.0537  2.7213  0.5144
   75MOL0     H10101   1.395   5.372  10.697 -0.6928 -1.0375  1.8980
   75MOL0     H10102   1.270   5.244  10.650 -2.5762  0.1378 -2.7394
   75MOL0     H10103   1.405   5.379  10.427  2.5098  0.1504 -0.0555
   75MOL0     H10104   1.358   5.205  10.447 -0.2608 -0.7045  0.7985
   75MOL0     H10105   1.569   5.155  10.551  2.1845  0.2316 -1.7681
   75MOL0     H10106   1.582   5.317  10.603 -3.3021 -0.3360  2.0802
   75MOL0     H10107   1.064   5.911  11.132 -0.7669 -1.3920  1.1029
   75MOL0     H10108   0.984   6.115  11.230 -2.5482  1.5749  1.9695
   75MOL0     H10109   0.713   6.410  10.899 -0.4298 -1.2289 -1.9999
   75MOL0     H10110   0.843   6.531  10.739 -1.5646  0.8069  1.2378
   75MOL0     H10111   2.384   7.609  11.229 -3.4207  2.1919  1.5863
   75MOL0     H10112   2.588   7.715  11.328  1.5991  0.8011  0.7159
   75MOL0     H10113   2.944   7.931  11.232 -1.0139 -1.2527 -0.1969
   75MOL0     H10114   3.171   7.909  11.323 -1.3101  1.7351 -1.7719
   75MOL0     H10115   3.261   7.987  11.749 -0.9202  0.9050 -1.1429
   75MOL0     H10116   3.220   7.820  11.742 -0.9887  1.1611 -1.6166
   75MOL0     H10117   3.469   7.857  11.824  2.5893 -2.4131 -0.4533
   75MOL0     H10118   3.495   7.943  11.674  0.1680  1.3279  3.9970
   75MOL0     H10119   3.486   7.763  11.534 -2.6932 -0.2715 -0.2911
   75MOL0     H10120   3.389   7.670  11.646 -2.2204  3.7671  3.0650
   75MOL0     H10121   3.609   7.634  11.787 -0.0946  0.1551 -0.3823
   75MOL0     H10122   3.676   7.773  11.703 -2.4108  1.7877  0.8884
   75MOL0     H10123   3.826   7.457  11.471 -2.4231  1.3735 -3.4671
   75MOL0     H10124   3.021   7.936  11.716 -0.6657  2.0407  0.4863
   75MOL0     H10125   2.806   7.947  11.635  1.1138 -0.2171  2.4548
   76MOL0     O10126  10.597   0.309   0.545  0.2372  0.8251 -0.5215
   76MOL0     C10127  10.554   0.416   0.587 -0.7059 -0.3040 -0.4074
   76MOL0     O10128  10.439   0.437   0.664  0.3226  0.8205  0.4304
   76MOL0     C10129  10.358   0.339   0.713  0.5693  0.8516  0.2696
   76MOL0     C10130  10.229   0.368   0.757  0.5594  0.1178 -0.5899
   76MOL0     C10131  10.134   0.281   0.801  0.2528  0.1394  0.0633
   76MOL0     C10132  10.162   0.142   0.789  1.2033  0.0244  0.7184
   76MOL0     O10133  10.059   0.063   0.825  1.0593 -0.1136 -0.0985
   76MOL0     C10134  10.071  -0.083   0.828  0.5554 -0.7166 -1.0562
   76MOL0     C10135   9.925  -0.125   0.848  0.1047 -0.0891 -0.8285
   76MOL0     C10136   9.869  -0.076   0.977 -0.5607 -0.4542  0.1465
   76MOL0     C10137   9.963  -0.093   1.098  0.5481 -0.0030 -0.5988
   76MOL0     C10138   9.891  -0.080   1.234  1.0052  0.0488 -0.7310
   76MOL0     C10139   9.781  -0.188   1.264  0.4063  0.2029  0.4494
   76MOL0     C10140   9.710  -0.154   1.396 -0.3711 -0.2951 -0.3817
   76MOL0     C10141   9.801  -0.169   1.518  0.2027 -0.8354  0.1188
   76MOL0     N10142   9.817  -0.304   1.567 -0.6521  0.2883 -1.0749
   76MOL0     C10143   9.896  -0.411   1.515  1.2363  0.8826 -0.4043
   76MOL0     C10144   9.887  -0.512   1.606  0.6383 -0.2891  0.4708
   76MOL0     C10145   9.971  -0.640   1.581  0.1140 -0.4518 -0.1268
   76MOL0     C10146  10.122  -0.617   1.587  0.7325  0.8433  0.4740
   76MOL0     C10147  10.198  -0.696   1.694 -1.4120  0.5813  0.2418
   76MOL0     C10148  10.350  -0.715   1.651 -0.0023 -0.2918 -0.1200
   76MOL0     O10149  10.357  -0.798   1.527 -0.3977  0.2618 -0.8416
   76MOL0     C10150  10.463  -0.777   1.445 -0.3973  1.4634 -0.5755
   76MOL0     C10151  10.468  -0.825   1.318  0.2517 -0.2509 -1.5959
   76MOL0     C10152  10.567  -0.794   1.224  0.6518 -0.6590 -0.0721
   76MOL0     C10153  10.566  -0.860   1.089  1.2090  0.3820  1.4022
   76MOL0     C10154  10.675  -0.715   1.262  0.2567  0.3169 -0.1938
   76MOL0     C10155  10.791  -0.677   1.177 -0.2546 -0.9232 -0.6736
   76MOL0     O10156  10.854  -0.769   1.105 -0.2584 -0.5593 -0.3828
   76MOL0     C10157  10.920  -0.731   0.989  0.0333 -0.1374 -0.7856
   76MOL0     C10158  11.059  -0.771   0.970 -0.1220  0.7367 -0.0595
   76MOL0     C10159  11.137  -0.718   0.861 -0.2868  0.7055  0.2932
   76MOL0     C10160  11.077  -0.619   0.771 -0.0022 -0.3152  0.8312
   76MOL0     O10161  11.158  -0.555   0.679 -0.5417 -0.0137  0.5233
   76MOL0     C10162  11.254  -0.624   0.595  0.5445  0.2911  0.1098
   76MOL0     C10163  11.191  -0.758   0.528 -0.8217  0.4864  0.0397
   76MOL0     C10164  11.060  -0.741   0.447  0.4827  0.3594 -0.2845
   76MOL0     C10165  10.996  -0.870   0.424 -0.1034 -0.2937 -0.2084
   76MOL0     C10166  10.853  -0.835   0.392 -0.5443 -1.2067 -0.0129
   76MOL0     C10167  10.769  -0.824   0.526 -0.6165  0.2866 -0.4080
   76MOL0     C10168  10.626  -0.788   0.491 -0.0120 -0.3725 -0.1748
   76MOL0     C10169  10.606  -0.632   0.464  1.0183  0.2874  0.4328
   76MOL0    Cl10170  10.673  -0.526   0.592 -0.2654  0.3739 -0.2108
   76MOL0     C10171  10.951  -0.579   0.790  0.3747  1.0846 -0.4101
   76MOL0     C10172  10.870  -0.631   0.898  0.1115 -0.7192 -0.3530
   76MOL0     O10173  10.815  -0.553   1.182 -0.2192  0.0531 -0.5947
   76MOL0     C10174  10.680  -0.679   1.395 -0.2039 -0.5299  0.7369
   76MOL0     C10175  10.585  -0.712   1.488 -0.6195 -0.5577 -0.6943
   76MOL0     N10176   9.791  -0.470   1.706  0.2692 -0.1982 -0.9154
   76MOL0     N10177   9.746  -0.349   1.674  0.5087  0.3879  0.0172
   76MOL0     C10178  10.287   0.098   0.757 -0.2232 -1.4197  0.2378
   76MOL0     C10179  10.394   0.199   0.727 -0.1318 -0.5390 -0.0262
   76MOL0     C10180  10.625   0.539   0.536  0.6396 -0.1342 -0.4196
   76MOL0     C10181  10.730   0.531   0.434  0.6924  0.3011 -0.2620
   76MOL0     C10182  10.803   0.644   0.407  0.7819 -0.8773 -0.1185
   76MOL0     C10183  10.769   0.773   0.464  0.4454  0.3978 -0.4872
   76MOL0     O10184  10.836   0.881   0.422  0.2540 -0.6474  0.7555
   76MOL0     C10185  10.977   0.875   0.374  0.8066  0.4859  0.6677
   76MOL0     C10186  10.969   0.872   0.215 -0.0660  0.2091 -0.0681
   76MOL0     C10187  11.069   0.965   0.138 -0.5805 -0.0671  0.6132
   76MOL0     C10188  11.100   0.901   0.005 -0.4115  0.5560  0.2503
   76MOL0     C10189  11.202   0.974  -0.073 -0.1590 -0.2683  0.4725
   76MOL0     C10190  11.293   1.038  -0.123  0.5460  1.3918  0.6061
   76MOL0     C10191  10.663   0.778   0.555  0.9779 -0.1191  0.2635
   76MOL0     C10192  10.591   0.664   0.600 -0.1453  0.6069 -0.6961
   76MOL0     H10193  10.195   0.471   0.754  3.6152  1.2077 -2.1806
   76MOL0     H10194  10.034   0.320   0.816  0.9240  1.3243  1.8448
   76MOL0     H10195  10.108  -0.111   0.729 -1.5428 -0.9236 -1.8424
   76MOL0     H10196  10.132  -0.111   0.914  3.3799  1.6662 -2.1330
   76MOL0     H10197   9.870  -0.081   0.764 -0.1722 -0.4216 -0.8208
   76MOL0     H10198   9.906  -0.232   0.852 -2.1024  0.2817  0.2871
   76MOL0     H10199   9.844   0.030   0.972 -0.9473 -0.6041 -2.3253
   76MOL0     H10200   9.779  -0.135   0.996 -1.4149  1.1178  1.1993
   76MOL0     H10201  10.010  -0.191   1.104  0.4458 -0.0576 -0.6896
   76MOL0     H10202  10.025  -0.004   1.109 -1.0439  1.2814 -1.5083
   76MOL0     H10203   9.967  -0.094   1.311 -1.1823  1.0132  1.7500
   76MOL0     H10204   9.866   0.026   1.248  0.1189 -0.0532 -1.4518
   76MOL0     H10205   9.711  -0.207   1.182  1.4602 -4.2290  0.3154
   76MOL0     H10206   9.829  -0.284   1.285  0.9755  0.3214 -0.2775
   76MOL0     H10207   9.693  -0.046   1.388  4.3403  0.8183  1.7335
   76MOL0     H10208   9.614  -0.206   1.402 -1.1859  0.5951 -3.6143
   76MOL0     H10209   9.761  -0.107   1.599  2.1993  1.2927 -0.4293
   76MOL0     H10210   9.905  -0.136   1.505 -0.8920  1.9871 -2.7909
   76MOL0     H10211   9.958  -0.418   1.426 -1.6718  0.2241 -2.5449
   76MOL0     H10212   9.934  -0.711   1.656  1.0423 -1.5541 -0.6756
   76MOL0     H10213   9.944  -0.678   1.481 -1.4560 -0.9739  0.4656
   76MOL0     H10214  10.145  -0.511   1.603  0.5998  1.1315 -1.0828
   76MOL0     H10215  10.161  -0.642   1.488 -3.1283 -0.2349 -0.9446
   76MOL0     H10216  10.156  -0.796   1.697  2.3734 -1.1688  2.2648
   76MOL0     H10217  10.194  -0.649   1.793  0.6162  0.1314  0.5976
   76MOL0     H10218  10.424  -0.757   1.719  2.3467 -1.5747 -3.2532
   76MOL0     H10219  10.395  -0.617   1.633  1.5386 -0.9697 -0.0500
   76MOL0     H10220  10.395  -0.900   1.288 -0.1179 -2.3741  3.6363
   76MOL0     H10221  10.569  -0.792   1.003  0.4366 -2.6828 -1.2633
   76MOL0     H10222  10.660  -0.913   1.071  0.8366 -0.2103  1.1797
   76MOL0     H10223  10.482  -0.928   1.074  1.7933  0.1579 -1.2298
   76MOL0     H10224  11.108  -0.844   1.033 -0.3034  0.8497  0.2136
   76MOL0     H10225  11.235  -0.757   0.837 -0.4227 -2.9902  4.4925
   76MOL0     H10226  11.294  -0.547   0.528 -1.6119  5.1887  3.8252
   76MOL0     H10227  11.340  -0.650   0.656  1.6672 -0.3064 -1.6541
   76MOL0     H10228  11.264  -0.800   0.458 -1.9251  0.7704 -1.3262
   76MOL0     H10229  11.178  -0.834   0.606 -3.4240 -1.3175 -1.9863
   76MOL0     H10230  11.088  -0.696   0.352 -2.5535 -0.5939 -1.7523
   76MOL0     H10231  11.005  -0.671   0.511  2.3587 -0.5518  2.5634
   76MOL0     H10232  11.055  -0.922   0.348  0.9473  0.9072 -0.2519
   76MOL0     H10233  10.981  -0.943   0.504 -3.0986 -2.8873 -2.9048
   76MOL0     H10234  10.815  -0.909   0.320  0.9240 -0.2200 -1.8819
   76MOL0     H10235  10.850  -0.746   0.329  1.7519 -0.7277  0.4775
   76MOL0     H10236  10.778  -0.919   0.580  1.7572  0.3994 -0.4887
   76MOL0     H10237  10.810  -0.740   0.584  0.7014 -1.2142  0.9447
   76MOL0     H10238  10.568  -0.825   0.576  0.3212 -1.1783 -0.2877
   76MOL0     H10239  10.598  -0.839   0.399 -1.5830  0.8562 -0.4206
   76MOL0     H10240  10.502  -0.621   0.434  0.4043 -0.8686  1.9453
   76MOL0     H10241  10.667  -0.603   0.378  2.1319 -0.9559  0.7658
   76MOL0     H10242  10.906  -0.498   0.734  0.7898  1.5778 -0.0438
   76MOL0     H10243  10.771  -0.589   0.917  0.8386  0.5239  0.9200
   76MOL0     H10244  10.767  -0.622   1.425  0.6929 -1.6425  0.3031
   76MOL0     H10245  10.589  -0.675   1.589  0.1234  0.8606 -1.2179
   76MOL0     H10246  10.316  -0.006   0.743  0.3609 -0.9609 -2.5399
   76MOL0     H10247  10.486   0.148   0.699 -0.6142 -0.4814 -1.8118
   76MOL0     H10248  10.746   0.434   0.388 -0.3858 -0.0547  0.0841
   76MOL0     H10249  10.884   0.608   0.344  1.4430 -0.5312  0.5122
   76MOL0     H10250  11.043   0.961   0.387  1.5341  0.8519 -3.9023
   76MOL0     H10251  11.032   0.788   0.410  1.5491 -0.1124 -1.7359
   76MOL0     H10252  10.872   0.908   0.179  0.7975  3.1245  0.2291
   76MOL0     H10253  10.986   0.767   0.188  1.1767  0.0364  1.2193
   76MOL0     H10254  11.165   0.975   0.191  1.5388 -1.2633 -2.6714
   76MOL0     H10255  11.016   1.056   0.110  2.6145  1.1010 -2.4113
   76MOL0     H10256  11.010   0.897  -0.056 -0.9617  3.5173  0.6992
   76MOL0     H10257  11.138   0.801   0.029 -3.3676  0.0193  3.6474
   76MOL0     H10258  11.382   1.091  -0.152  0.4149  2.4798  2.0921
   76MOL0     H10259  10.641   0.878   0.591  2.9244  0.2111  0.6836
   76MOL0     H10260  10.524   0.650   0.685  0.4510 -1.5886 -0.5253
   77MOL0     O10261   8.274   4.827   0.938 -0.0873 -0.2763  0.1115
   77MOL0     C10262   8.206   4.925   0.925  0.1743  0.4226  0.4733
   77MOL0     O10263   8.242   5.053   0.969  0.1870 -0.5258  0.0908
   77MOL0     C10264   8.368   5.090   1.009 -0.6040  0.9200 -0.3289
   77MOL0     C10265   8.388   5.182   1.112  0.3333  0.1249  0.2023
   77MOL0     C10266   8.514   5.211   1.169 -0.3430  0.2921  0.0713
   77MOL0     C10267   8.625   5.137   1.122 -0.5191  0.8558 -0.6000
   77MOL0     O10268   8.749   5.150   1.181  0.8701 -0.1975  0.4418
   77MOL0     C10269   8.762   5.111   1.326  0.2098  0.1021 -0.1181
   77MOL0     C10270   8.900   5.161   1.368 -0.2491  1.3236 -1.6105
   77MOL0     C10271   8.916   5.308   1.377  0.0023 -0.4881 -1.1410
   77MOL0     C10272   9.040   5.368   1.413  0.1100  0.0714  1.2576
   77MOL0     C10273   9.044   5.512   1.473  0.6855  0.9709  0.5765
   77MOL0     C10274   9.183   5.552   1.527  0.8359 -0.5569 -0.2839
   77MOL0     C10275   9.146   5.663   1.629  0.0188 -0.2724 -0.5695
   77MOL0     C10276   9.270   5.725   1.678 -0.0221  0.5424 -1.3194
   77MOL0     N10277   9.246   5.797   1.804 -0.4604  0.4319  1.1920
   77MOL0     C10278   9.130   5.812   1.866  0.1535  0.4418 -0.3522
   77MOL0     C10279   9.166   5.911   1.954 -0.0780  1.0558 -0.0176
   77MOL0     C10280   9.070   5.956   2.058  0.4203 -0.0073 -0.7225
   77MOL0     C10281   9.135   6.007   2.182  0.3069  0.7634  1.0805
   77MOL0     C10282   9.038   5.995   2.298  0.3784 -0.1248  0.0967
   77MOL0     C10283   9.035   6.122   2.386  0.7200 -1.1319 -0.1614
   77MOL0     O10284   9.015   6.242   2.315  1.0936 -0.4919 -0.5891
   77MOL0     C10285   8.891   6.270   2.252 -0.7383  1.4286  0.6794
   77MOL0     C10286   8.782   6.188   2.253  1.0852  0.6467  0.1013
   77MOL0     C10287   8.655   6.217   2.189 -0.1104  0.1543  0.4838
   77MOL0     C10288   8.544   6.106   2.199  0.0870 -0.4900 -0.2410
   77MOL0     C10289   8.652   6.337   2.115  0.4213  0.1169  0.8031
   77MOL0     C10290   8.527   6.380   2.043 -0.1096  0.0778 -0.8980
   77MOL0     O10291   8.543   6.479   1.953 -0.5503 -0.1822  0.0821
   77MOL0     C10292   8.428   6.516   1.881 -1.4248  0.6867  0.9407
   77MOL0     C10293   8.428   6.485   1.748  0.5801  0.0943 -0.9112
   77MOL0     C10294   8.313   6.507   1.674  0.2041 -0.4124 -0.7166
   77MOL0     C10295   8.193   6.548   1.730 -0.4858 -0.5414 -0.6692
   77MOL0     O10296   8.079   6.560   1.652 -0.9584  0.5802  0.5666
   77MOL0     C10297   7.954   6.584   1.715 -0.7394  0.6394 -0.0018
   77MOL0     C10298   7.843   6.564   1.608  0.3715 -0.1661 -0.3763
   77MOL0     C10299   7.688   6.584   1.657 -0.4984  0.8783  0.6585
   77MOL0     C10300   7.595   6.655   1.557  0.3279  0.2344  0.3060
   77MOL0     C10301   7.561   6.572   1.438 -0.6247 -0.2503 -0.6233
   77MOL0     C10302   7.444   6.625   1.357 -0.4140  0.5130  0.1192
   77MOL0     C10303   7.439   6.552   1.222  0.0412 -0.0186  0.1076
   77MOL0     C10304   7.303   6.598   1.153  0.9773 -0.1398  0.2776
   77MOL0    Cl10305   7.220   6.463   1.070 -0.2779  0.0518 -0.0014
   77MOL0     C10306   8.197   6.592   1.871 -0.9157  1.1021 -0.6084
   77MOL0     C10307   8.319   6.570   1.937 -0.9167  0.0360 -0.1557
   77MOL0     O10308   8.419   6.317   2.067  0.1023  0.3612  0.4454
   77MOL0     C10309   8.766   6.415   2.102 -0.0036  0.4252  0.0342
   77MOL0     C10310   8.883   6.388   2.173 -0.0232 -1.2951  0.0372
   77MOL0     N10311   9.304   5.926   1.963  0.5442  0.6887 -0.3133
   77MOL0     N10312   9.348   5.861   1.859 -0.1112 -0.4749  0.0767
   77MOL0     C10313   8.609   5.053   1.013 -0.4347  0.1331  0.4003
   77MOL0     C10314   8.485   5.026   0.958  0.0565 -0.5702  0.3397
   77MOL0     C10315   8.074   4.901   0.854 -0.6597  0.0050  0.2637
   77MOL0     C10316   8.035   4.776   0.809 -0.6176  0.2580  1.4295
   77MOL0     C10317   7.905   4.756   0.746 -0.1976 -0.1230  0.2200
   77MOL0     C10318   7.823   4.856   0.708  0.7794  0.6205 -1.3556
   77MOL0     O10319   7.707   4.823   0.645  0.0417  0.2566 -0.2251
   77MOL0     C10320   7.626   4.936   0.599  0.0211 -0.5814  1.0380
   77MOL0     C10321   7.508   4.872   0.516 -0.5797  0.1219 -0.4351
   77MOL0     C10322   7.419   4.975   0.454  0.2846 -0.8091 -0.8830
   77MOL0     C10323   7.306   4.908   0.371 -0.0629 -0.2757 -0.1779
   77MOL0     C10324   7.352   4.811   0.276  0.2746 -0.0626 -0.1374
   77MOL0     C10325   7.395   4.734   0.187 -0.7976  0.2858 -0.7975
   77MOL0     C10326   7.865   4.984   0.747 -1.4158 -0.3981 -0.3081
   77MOL0     C10327   7.984   5.006   0.822  0.3960  0.1285 -0.7172
   77MOL0     H10328   8.301   5.236   1.148  0.7311  0.8046  0.1629
   77MOL0     H10329   8.540   5.276   1.253  2.8051 -3.2251  2.1720
   77MOL0     H10330   8.700   5.172   1.392  0.7121 -0.9829  1.4045
   77MOL0     H10331   8.732   5.006   1.336  0.2923 -0.2330 -2.6773
   77MOL0     H10332   8.928   5.106   1.458 -0.9368 -0.3053 -2.3475
   77MOL0     H10333   8.969   5.123   1.292  2.4684  1.2365  0.7048
   77MOL0     H10334   8.875   5.349   1.284  1.3293  0.8825 -1.1653
   77MOL0     H10335   8.846   5.346   1.453  2.8403  1.3857  0.7562
   77MOL0     H10336   9.097   5.303   1.480  0.3192  0.8249  1.8255
   77MOL0     H10337   9.102   5.368   1.323  1.0047 -0.3435  1.8546
   77MOL0     H10338   8.998   5.583   1.404 -2.7224 -0.0477  1.6140
   77MOL0     H10339   8.969   5.510   1.554  0.1057 -0.2296  0.0368
   77MOL0     H10340   9.239   5.471   1.574 -5.0978 -4.4050  1.3077
   77MOL0     H10341   9.244   5.586   1.443  1.2864 -0.1353  0.2099
   77MOL0     H10342   9.080   5.736   1.582  1.9986 -0.0217 -3.2185
   77MOL0     H10343   9.105   5.605   1.712 -0.4569  1.6979  0.6311
   77MOL0     H10344   9.325   5.784   1.603  1.2968 -0.7497 -1.4192
   77MOL0     H10345   9.340   5.644   1.701 -1.7828 -0.9847 -1.1359
   77MOL0     H10346   9.030   5.779   1.840  1.0817 -1.8480 -1.2511
   77MOL0     H10347   8.994   6.027   2.024  2.1176  3.1930  1.6493
   77MOL0     H10348   9.024   5.863   2.093  2.3826 -0.9454 -0.4633
   77MOL0     H10349   9.189   6.099   2.158 -2.4867  1.4489 -3.9537
   77MOL0     H10350   9.216   5.937   2.206  2.6183  2.2917 -1.5969
   77MOL0     H10351   9.058   5.920   2.375 -0.0357 -0.2869  0.0508
   77MOL0     H10352   8.934   5.977   2.270 -0.0416  3.6796 -1.5040
   77MOL0     H10353   9.118   6.113   2.457 -0.8997 -1.4657  1.7729
   77MOL0     H10354   8.947   6.120   2.450 -1.1000 -1.5024 -2.5578
   77MOL0     H10355   8.781   6.101   2.317 -0.8748  0.5151 -0.0326
   77MOL0     H10356   8.585   6.030   2.266  3.3359 -0.4243 -1.9667
   77MOL0     H10357   8.458   6.149   2.253  1.6344 -0.5246  2.4124
   77MOL0     H10358   8.518   6.063   2.102  0.2694  0.8531 -0.9089
   77MOL0     H10359   8.516   6.441   1.702  0.4461  0.0010 -1.0763
   77MOL0     H10360   8.312   6.482   1.568  2.5683  0.1326 -0.9283
   77MOL0     H10361   7.942   6.520   1.803  2.5959 -0.9564 -0.5686
   77MOL0     H10362   7.943   6.687   1.752  0.5241  1.5793 -2.0712
   77MOL0     H10363   7.867   6.632   1.526  2.5739 -1.3569 -0.8052
   77MOL0     H10364   7.849   6.462   1.568  2.7917 -1.6420  3.2361
   77MOL0     H10365   7.687   6.649   1.745 -0.1963 -0.4276  1.6501
   77MOL0     H10366   7.644   6.490   1.692 -0.8289  1.2307  1.2180
   77MOL0     H10367   7.503   6.686   1.607  0.8898  3.0529 -0.2093
   77MOL0     H10368   7.638   6.751   1.527  3.2700 -0.5475  1.7034
   77MOL0     H10369   7.531   6.474   1.479 -0.0707  0.5991  2.0277
   77MOL0     H10370   7.646   6.555   1.371  2.3928  1.1535  2.5601
   77MOL0     H10371   7.350   6.621   1.413 -0.6698  3.4311  0.0521
   77MOL0     H10372   7.450   6.733   1.344  2.9415  0.5708  1.1740
   77MOL0     H10373   7.421   6.446   1.242 -1.7751  0.1399 -0.4608
   77MOL0     H10374   7.532   6.568   1.167  0.3330  0.0208  0.6060
   77MOL0     H10375   7.333   6.675   1.081  1.4327 -2.6124 -2.3314
   77MOL0     H10376   7.243   6.640   1.235  1.7715  0.2626  0.6672
   77MOL0     H10377   8.113   6.646   1.913 -1.2171 -0.5714  1.0627
   77MOL0     H10378   8.318   6.620   2.033 -3.5886 -0.0728 -0.0619
   77MOL0     H10379   8.778   6.479   2.016  1.9586 -1.1986 -0.9705
   77MOL0     H10380   8.969   6.453   2.158 -2.4797  1.8130 -1.8871
   77MOL0     H10381   8.696   4.997   0.981  0.0072  0.9349  0.1674
   77MOL0     H10382   8.469   4.948   0.884 -1.2518  1.8734 -2.0992
   77MOL0     H10383   8.108   4.695   0.809  1.1005  1.7054 -0.2907
   77MOL0     H10384   7.865   4.656   0.734  2.3415 -1.3395  1.1636
   77MOL0     H10385   7.587   5.013   0.666 -1.1848  1.3203 -1.6734
   77MOL0     H10386   7.683   4.991   0.524 -1.8067 -2.2427 -1.7536
   77MOL0     H10387   7.454   4.807   0.586  0.0438 -0.0885 -0.1492
   77MOL0     H10388   7.540   4.798   0.441 -0.5704 -1.1423  0.7654
   77MOL0     H10389   7.465   5.051   0.389  0.3544 -0.4212 -0.3914
   77MOL0     H10390   7.373   5.027   0.539  1.2808  1.4358 -1.6214
   77MOL0     H10391   7.259   4.989   0.315 -1.1295 -0.7637 -0.0017
   77MOL0     H10392   7.229   4.869   0.437 -0.1133  3.0808  1.9882
   77MOL0     H10393   7.436   4.666   0.115 -0.2381 -0.1851 -0.0529
   77MOL0     H10394   7.809   5.075   0.726 -3.4905 -2.0944 -2.6701
   77MOL0     H10395   8.013   5.104   0.858  2.2754 -0.0411 -1.6566
   78MOL0     O10396   7.165   8.894  11.540  0.1107  0.0608  0.3226
   78MOL0     C10397   7.281   8.904  11.538  0.0051 -0.1123 -0.4757
   78MOL0     O10398   7.346   9.023  11.518  0.3509 -1.1350 -0.1229
   78MOL0     C10399   7.282   9.136  11.479 -0.0219  1.0406 -0.0703
   78MOL0     C10400   7.175   9.196  11.549  0.5201 -0.4758  0.0959
   78MOL0     C10401   7.117   9.320  11.495  0.8825  0.2381  0.3382
   78MOL0     C10402   7.174   9.384  11.379  0.0733 -0.5127 -0.1677
   78MOL0     O10403   7.124   9.508  11.330  0.1942  0.6175 -0.3548
   78MOL0     C10404   7.188   9.573  11.217  0.1118 -0.4214 -0.0570
   78MOL0     C10405   7.093   9.686  11.169  0.4321  0.2493 -0.3296
   78MOL0     C10406   6.950   9.629  11.152  0.2396  0.1890  0.1147
   78MOL0     C10407   6.849   9.701  11.061 -0.2182  1.0985 -0.1531
   78MOL0     C10408   6.858   9.691  10.910  0.1436  0.0802  0.0230
   78MOL0     C10409   6.713   9.744  10.867  0.3057  0.6305 -0.0954
   78MOL0     C10410   6.721   9.791  10.718  0.8197  1.4011 -0.4696
   78MOL0     C10411   6.607   9.873  10.684  0.2228 -0.0751 -0.6049
   78MOL0     N10412   6.515   9.814  10.575 -0.4285 -0.3071  0.5394
   78MOL0     C10413   6.401   9.738  10.603  0.2109  0.6918  0.4234
   78MOL0     C10414   6.334   9.733  10.482 -0.2993  0.0845 -0.2507
   78MOL0     C10415   6.205   9.671  10.438  0.2533 -0.2054  0.1221
   78MOL0     C10416   6.094   9.623  10.529  0.4976  0.3521 -0.3076
   78MOL0     C10417   6.047   9.709  10.645  0.5828 -0.4508 -0.3728
   78MOL0     C10418   5.970   9.830  10.591  0.7442 -1.2040  0.2505
   78MOL0     O10419   5.836   9.801  10.525  0.0803 -0.7051  0.2303
   78MOL0     C10420   5.722   9.785  10.599  0.3887 -0.5180 -0.3015
   78MOL0     C10421   5.625   9.705  10.540  0.0842  0.1869  0.3393
   78MOL0     C10422   5.514   9.666  10.611 -0.5245  0.1992 -0.1458
   78MOL0     C10423   5.402   9.597  10.527 -1.4777 -0.8736 -1.1117
   78MOL0     C10424   5.497   9.693  10.750  0.1287 -0.5870  0.3216
   78MOL0     C10425   5.386   9.650  10.835 -0.2125 -0.1022 -0.2862
   78MOL0     O10426   5.288   9.736  10.869  0.1205 -0.0711 -0.6539
   78MOL0     C10427   5.180   9.680  10.928  0.1097 -0.0839  0.3178
   78MOL0     C10428   5.156   9.701  11.068  0.6887 -0.3252  0.3682
   78MOL0     C10429   5.067   9.624  11.146  0.0413  0.3140 -0.1833
   78MOL0     C10430   4.988   9.526  11.079 -0.2430  0.2064  0.7169
   78MOL0     O10431   4.893   9.454  11.154  0.5212 -0.3522  0.6454
   78MOL0     C10432   4.911   9.314  11.159 -0.2508 -0.6206 -0.5714
   78MOL0     C10433   4.835   9.257  11.279 -0.1434  0.2565 -0.3003
   78MOL0     C10434   4.895   9.310  11.414 -0.6090 -0.4953  1.1323
   78MOL0     C10435   4.798   9.421  11.480 -0.8187  0.9516  0.1074
   78MOL0     C10436   4.858   9.475  11.607 -0.2611 -0.7606  0.4425
   78MOL0     C10437   4.944   9.589  11.584  0.7383 -0.5001  0.5436
   78MOL0     C10438   5.060   9.591  11.688  0.2603 -0.1796  0.0953
   78MOL0     C10439   5.132   9.727  11.683  0.9474  0.7773 -0.2375
   78MOL0    Cl10440   5.286   9.750  11.578  0.1438 -0.2940  0.2987
   78MOL0     C10441   5.012   9.502  10.945  0.5546  0.1124  0.2438
   78MOL0     C10442   5.105   9.576  10.872  0.6343  0.4074 -0.8317
   78MOL0     O10443   5.395   9.529  10.871 -0.4333 -0.3956  0.6527
   78MOL0     C10444   5.596   9.779  10.805  0.4268 -0.0863  0.0839
   78MOL0     C10445   5.707   9.817  10.745 -0.2350 -0.1752 -0.5756
   78MOL0     N10446   6.415   9.805  10.392 -0.9383 -0.0243 -0.0612
   78MOL0     N10447   6.513   9.852  10.451 -0.7297  0.5183  0.8332
   78MOL0     C10448   7.295   9.327  11.332  0.1118 -0.1457  0.1300
   78MOL0     C10449   7.347   9.206  11.376  0.6786  0.6592  0.2720
   78MOL0     C10450   7.365   8.787  11.580 -0.3014 -0.6235 -1.0015
   78MOL0     C10451   7.310   8.664  11.615 -0.3846 -0.7780 -0.3691
   78MOL0     C10452   7.384   8.568  11.675 -0.0343  0.5672 -0.0199
   78MOL0     C10453   7.528   8.577  11.677  0.2863 -0.1335 -0.7950
   78MOL0     O10454   7.599   8.482  11.735 -0.5493  0.9416 -0.4500
   78MOL0     C10455   7.725   8.465  11.693  0.7182 -0.8511 -0.5646
   78MOL0     C10456   7.724   8.376  11.573 -0.2741  0.2526  0.5897
   78MOL0     C10457   7.635   8.246  11.584 -0.1376  0.1472  0.4298
   78MOL0     C10458   7.675   8.149  11.703 -0.4607  0.3256 -0.2761
   78MOL0     C10459   7.822   8.126  11.720  1.5524 -0.3311  0.8869
   78MOL0     C10460   7.938   8.100  11.726  0.0602  0.7218 -0.2440
   78MOL0     C10461   7.591   8.701  11.643 -0.0020  0.9133  0.8164
   78MOL0     C10462   7.507   8.803  11.587  0.3153 -0.1928  0.1029
   78MOL0     H10463   7.120   9.147  11.628  1.0150  2.2376  2.2895
   78MOL0     H10464   7.042   9.380  11.546  2.1999  0.8267  1.6535
   78MOL0     H10465   7.279   9.627  11.244 -1.0961  1.5869  0.2040
   78MOL0     H10466   7.206   9.503  11.135 -0.9261  0.0824 -0.7442
   78MOL0     H10467   7.110   9.765  11.243 -0.4564 -0.8898  1.1614
   78MOL0     H10468   7.128   9.726  11.073  0.2405 -1.1148 -0.9964
   78MOL0     H10469   6.967   9.530  11.108  1.7995 -0.0503  1.1716
   78MOL0     H10470   6.903   9.618  11.251  0.9748  0.9884  0.5650
   78MOL0     H10471   6.750   9.660  11.085  0.3777 -0.4501 -0.2299
   78MOL0     H10472   6.844   9.809  11.081 -0.3088  1.3776 -1.6086
   78MOL0     H10473   6.945   9.749  10.879 -1.5911  1.5015 -2.5704
   78MOL0     H10474   6.866   9.585  10.883 -1.7957 -0.5434  1.6888
   78MOL0     H10475   6.642   9.661  10.874  0.6721 -0.3058 -4.5372
   78MOL0     H10476   6.679   9.831  10.924  0.7316  1.4644 -1.0685
   78MOL0     H10477   6.806   9.859  10.714  1.9208  0.2849  1.8529
   78MOL0     H10478   6.728   9.704  10.652 -0.2901  1.4217 -0.6488
   78MOL0     H10479   6.647   9.965  10.640 -0.9361 -0.1079 -1.7750
   78MOL0     H10480   6.537   9.904  10.762 -2.9352  0.1570 -3.3275
   78MOL0     H10481   6.381   9.693  10.700 -0.2442  2.0499  0.9857
   78MOL0     H10482   6.174   9.758  10.380  2.7849  1.1554  0.6631
   78MOL0     H10483   6.228   9.580  10.381 -1.0303 -0.1925 -0.4533
   78MOL0     H10484   6.119   9.536  10.591 -2.3811 -0.8686 -0.6935
   78MOL0     H10485   6.004   9.597  10.474  1.3469 -1.9561 -0.7000
   78MOL0     H10486   6.119   9.746  10.719 -0.1595  3.1524 -1.2806
   78MOL0     H10487   5.979   9.643  10.700  0.3923 -2.2245 -2.5830
   78MOL0     H10488   6.015   9.886  10.507 -2.2299  2.0299  0.5764
   78MOL0     H10489   5.969   9.909  10.667  5.2919  2.0937 -2.5368
   78MOL0     H10490   5.634   9.684  10.434  0.0141 -0.3775  0.4436
   78MOL0     H10491   5.441   9.525  10.454  0.0082  1.2403 -2.5116
   78MOL0     H10492   5.320   9.562  10.591 -1.9043 -1.2628 -1.8595
   78MOL0     H10493   5.357   9.674  10.465 -0.4600 -0.3675 -1.2459
   78MOL0     H10494   5.211   9.779  11.120  0.5737 -0.5828  0.8832
   78MOL0     H10495   5.054   9.634  11.253 -1.6191 -2.8521  0.0076
   78MOL0     H10496   4.872   9.265  11.070 -0.1762  0.3627 -1.1612
   78MOL0     H10497   5.016   9.284  11.161  0.5959  2.0606 -0.1022
   78MOL0     H10498   4.729   9.280  11.267 -0.1736 -0.1884 -0.9334
   78MOL0     H10499   4.862   9.151  11.281  1.0397  0.5211  1.9882
   78MOL0     H10500   4.993   9.353  11.392 -1.1193 -0.3382 -1.0198
   78MOL0     H10501   4.922   9.228  11.482  2.5572  0.9215  1.7882
   78MOL0     H10502   4.785   9.500  11.406  2.1473  0.9744 -0.5121
   78MOL0     H10503   4.703   9.371  11.500  0.5583 -1.2789  1.4656
   78MOL0     H10504   4.912   9.394  11.657  1.0708 -0.6838 -0.8031
   78MOL0     H10505   4.783   9.490  11.685 -0.2898 -4.2782  1.2577
   78MOL0     H10506   4.995   9.570  11.489  1.2539  0.1554  0.6821
   78MOL0     H10507   4.873   9.672  11.574 -2.6735 -3.2007  0.0345
   78MOL0     H10508   5.139   9.517  11.673 -0.0709 -0.7990  1.2948
   78MOL0     H10509   5.025   9.569  11.789  1.7692 -2.1206  0.2456
   78MOL0     H10510   5.162   9.769  11.780 -0.5925 -0.0519  0.6240
   78MOL0     H10511   5.048   9.792  11.659 -0.0634 -0.2108  0.5412
   78MOL0     H10512   4.956   9.425  10.893  0.6051 -0.0419  0.4195
   78MOL0     H10513   5.110   9.572  10.763  0.7076 -1.4668 -0.7879
   78MOL0     H10514   5.577   9.795  10.910 -3.1555  0.1339 -0.4613
   78MOL0     H10515   5.777   9.866  10.812  0.6052 -2.4408  0.2762
   78MOL0     H10516   7.347   9.387  11.258  0.9639  0.0996  0.9088
   78MOL0     H10517   7.418   9.154  11.313 -0.4854  1.0140 -1.3973
   78MOL0     H10518   7.204   8.642  11.619 -0.6693  0.5419 -0.2092
   78MOL0     H10519   7.354   8.468  11.705  0.4376  1.0699  2.3712
   78MOL0     H10520   7.788   8.554  11.682  0.5544 -0.2936  2.2789
   78MOL0     H10521   7.774   8.411  11.775 -0.4360 -0.0399  0.7095
   78MOL0     H10522   7.823   8.333  11.554 -2.0314 -4.6864  1.1871
   78MOL0     H10523   7.695   8.432  11.483  2.9393  1.0347 -0.0921
   78MOL0     H10524   7.653   8.192  11.491  2.4502  0.9135  0.4250
   78MOL0     H10525   7.528   8.265  11.593 -0.0867  0.2199  0.8879
   78MOL0     H10526   7.630   8.051  11.689 -0.3784  0.2924 -0.3053
   78MOL0     H10527   7.642   8.193  11.798  0.9018  1.1735 -0.1512
   78MOL0     H10528   8.042   8.074  11.724 -0.2711 -0.8601  0.9523
   78MOL0     H10529   7.698   8.721  11.651 -0.1837  1.5288  1.7937
   78MOL0     H10530   7.577   8.886  11.586 -0.5174  0.8958  5.1004
   79MOL0     O10531   6.283   4.760   1.871  0.4932 -0.4250 -0.1398
   79MOL0     C10532   6.233   4.659   1.928  0.2862 -0.3667  0.2485
   79MOL0     O10533   6.269   4.527   1.893  0.2269 -0.3620 -0.1447
   79MOL0     C10534   6.325   4.489   1.771  0.2434  0.5047  0.1818
   79MOL0     C10535   6.426   4.564   1.699  0.1757  0.4185  0.0093
   79MOL0     C10536   6.480   4.512   1.578  0.2270  0.4688 -0.3951
   79MOL0     C10537   6.447   4.379   1.528 -0.3837 -1.2166 -0.3644
   79MOL0     O10538   6.493   4.341   1.406  0.2206  0.1205 -0.0440
   79MOL0     C10539   6.476   4.438   1.296  0.3409 -0.5723  0.4295
   79MOL0     C10540   6.518   4.358   1.170  0.0198 -0.0925 -0.4384
   79MOL0     C10541   6.437   4.231   1.141  0.1966  0.8619  1.1032
   79MOL0     C10542   6.504   4.112   1.191 -1.0839 -0.4624 -1.1232
   79MOL0     C10543   6.479   3.983   1.117 -0.2941  0.2961 -0.7283
   79MOL0     C10544   6.326   3.956   1.108 -0.4021  0.6328  0.1244
   79MOL0     C10545   6.318   3.825   1.017  0.1891 -0.3107 -0.2153
   79MOL0     C10546   6.185   3.806   0.939  1.5363  0.2345 -0.6984
   79MOL0     N10547   6.164   3.859   0.807 -0.5760 -0.4091  0.0854
   79MOL0     C10548   6.249   3.829   0.704  0.0003 -0.6445 -1.1052
   79MOL0     C10549   6.243   3.931   0.619 -0.1038  0.1619 -0.5368
   79MOL0     C10550   6.311   3.939   0.491  0.5322 -0.3242 -0.3839
   79MOL0     C10551   6.219   3.900   0.377 -0.2710 -0.3645  0.6027
   79MOL0     C10552   6.097   3.986   0.337 -0.1538 -0.2767 -0.2456
   79MOL0     C10553   5.982   3.906   0.273  0.5741 -0.6861 -0.3316
   79MOL0     O10554   5.984   3.926   0.132  0.4312 -0.2109 -0.2661
   79MOL0     C10555   5.995   3.817   0.047 -0.3950  0.7936  0.7432
   79MOL0     C10556   6.053   3.701   0.083  0.3031 -0.5577 -0.7329
   79MOL0     C10557   6.066   3.583  -0.002  1.0485 -0.9154 -0.1567
   79MOL0     C10558   6.147   3.467   0.044 -0.1578  0.5595  0.3585
   79MOL0     C10559   6.009   3.590  -0.134 -1.1130 -0.0242  0.0061
   79MOL0     C10560   6.021   3.487  -0.241 -0.3871 -0.2621  0.2293
   79MOL0     O10561   5.989   3.527  -0.370 -0.0729 -0.4385 -0.2229
   79MOL0     C10562   5.976   3.425  -0.470 -0.0666 -0.2053 -0.3110
   79MOL0     C10563   5.897   3.313  -0.452 -0.5866  0.4461 -0.0424
   79MOL0     C10564   5.888   3.233  -0.571  0.9230 -0.2632  0.4160
   79MOL0     C10565   5.946   3.264  -0.695  0.3359  0.1990 -0.4176
   79MOL0     O10566   5.930   3.206  -0.822 -0.2006 -0.5096  0.6475
   79MOL0     C10567   5.822   3.109  -0.842  0.9570 -0.4024  0.6863
   79MOL0     C10568   5.781   3.086  -0.987 -0.1241  0.2777 -0.7720
   79MOL0     C10569   5.884   3.018  -1.067  0.9072  0.9284  0.1191
   79MOL0     C10570   5.832   3.021  -1.212 -0.0605  0.3003  0.3180
   79MOL0     C10571   5.927   2.973  -1.318 -0.3977  0.2914  0.9330
   79MOL0     C10572   5.896   2.992  -1.469  0.0896  0.1231 -0.1618
   79MOL0     C10573   5.744   2.969  -1.506  0.4084 -0.2146 -1.0803
   79MOL0     C10574   5.693   3.079  -1.596 -0.1595 -0.5282  0.8123
   79MOL0    Cl10575   5.764   3.090  -1.763 -0.2679  0.1567 -0.0171
   79MOL0     C10576   6.028   3.379  -0.701  0.6720 -1.2464 -0.6119
   79MOL0     C10577   6.050   3.447  -0.581  0.4303  1.0206 -0.4260
   79MOL0     O10578   6.079   3.379  -0.220 -0.4588 -0.5329  0.1926
   79MOL0     C10579   5.945   3.705  -0.171 -0.2873  0.3996 -0.7199
   79MOL0     C10580   5.930   3.814  -0.079  0.5652 -0.0136 -0.6713
   79MOL0     N10581   6.158   4.021   0.671  0.6779  0.3986 -0.7783
   79MOL0     N10582   6.112   3.983   0.788  0.5462  0.1986  0.3435
   79MOL0     C10583   6.350   4.300   1.606 -0.0736  0.4467  0.0976
   79MOL0     C10584   6.290   4.357   1.721 -0.0288 -0.9104 -0.2247
   79MOL0     C10585   6.133   4.676   2.030 -0.3942 -0.3274  0.1295
   79MOL0     C10586   6.084   4.561   2.099 -0.2809 -0.1016 -0.1427
   79MOL0     C10587   5.979   4.579   2.195  0.5065  0.3637 -0.6902
   79MOL0     C10588   5.929   4.703   2.225  0.1235 -0.1408 -0.4232
   79MOL0     O10589   5.833   4.721   2.321 -0.5217 -0.1070 -0.7716
   79MOL0     C10590   5.838   4.639   2.440  0.7385 -1.5629  0.7030
   79MOL0     C10591   5.951   4.663   2.539 -0.7646 -0.2422  1.0840
   79MOL0     C10592   6.008   4.810   2.552 -0.3916  0.2078  0.4124
   79MOL0     C10593   6.055   4.857   2.689 -0.3340  0.2276  0.3486
   79MOL0     C10594   5.959   4.851   2.803 -0.2378  0.0824  0.1597
   79MOL0     C10595   5.881   4.853   2.895  0.9122  1.2163 -0.4393
   79MOL0     C10596   5.968   4.818   2.153 -0.0891  0.3792 -0.4931
   79MOL0     C10597   6.070   4.802   2.061 -0.6117  1.1119  0.6399
   79MOL0     H10598   6.466   4.655   1.743 -1.2892  0.4848  1.3147
   79MOL0     H10599   6.556   4.566   1.523 -1.0059  3.8326  0.9693
   79MOL0     H10600   6.378   4.486   1.292  1.0117  0.8049 -2.5731
   79MOL0     H10601   6.548   4.519   1.309  0.9014 -1.0128  0.1252
   79MOL0     H10602   6.491   4.433   1.096 -0.5740 -0.6135 -0.7600
   79MOL0     H10603   6.622   4.329   1.155  0.1879 -0.7334  1.6606
   79MOL0     H10604   6.335   4.239   1.179 -0.0342  3.9018  0.1447
   79MOL0     H10605   6.421   4.216   1.033  1.9550 -1.5796  1.1040
   79MOL0     H10606   6.613   4.124   1.193 -0.7116 -3.3210 -0.3699
   79MOL0     H10607   6.465   4.099   1.293  0.7337  0.2400 -0.2847
   79MOL0     H10608   6.516   3.990   1.015  0.3092  0.4760 -0.5004
   79MOL0     H10609   6.534   3.900   1.163  1.0517  0.4442 -2.0184
   79MOL0     H10610   6.285   3.927   1.205  0.7425 -1.2536  0.0814
   79MOL0     H10611   6.264   4.039   1.072  0.4682  0.4347 -1.9914
   79MOL0     H10612   6.391   3.831   0.936 -1.5401  3.1727 -1.7499
   79MOL0     H10613   6.321   3.740   1.086 -2.0938 -1.6493 -1.6142
   79MOL0     H10614   6.109   3.841   1.010  3.0966 -0.2174  1.2670
   79MOL0     H10615   6.168   3.698   0.933  1.0728  0.2111  0.6916
   79MOL0     H10616   6.308   3.739   0.693  2.2067  0.6210 -0.3580
   79MOL0     H10617   6.350   4.041   0.485  1.8391 -0.8452 -1.1059
   79MOL0     H10618   6.390   3.864   0.484 -0.2170 -1.1176 -0.5000
   79MOL0     H10619   6.172   3.802   0.388 -2.5981  0.4818 -0.9373
   79MOL0     H10620   6.288   3.890   0.293  0.3469  1.3000  0.8837
   79MOL0     H10621   6.113   4.065   0.262 -0.3305 -0.9599 -1.0123
   79MOL0     H10622   6.067   4.026   0.434  3.2513 -3.5382  2.4599
   79MOL0     H10623   5.891   3.947   0.318  0.3703 -0.5365 -0.8765
   79MOL0     H10624   5.960   3.802   0.297  0.9831 -0.4236  1.3202
   79MOL0     H10625   6.099   3.692   0.181 -0.6226 -0.1489 -0.2480
   79MOL0     H10626   6.091   3.374   0.059  1.1312 -0.4111 -0.7040
   79MOL0     H10627   6.232   3.456  -0.024 -0.6190  0.6193 -0.2379
   79MOL0     H10628   6.180   3.504   0.142  0.5916  0.0438  0.3033
   79MOL0     H10629   5.838   3.287  -0.365 -1.1072 -1.6505 -0.9758
   79MOL0     H10630   5.834   3.139  -0.564  2.0382 -1.1655 -1.8779
   79MOL0     H10631   5.856   3.016  -0.795  0.0010 -0.9711  0.2791
   79MOL0     H10632   5.730   3.150  -0.801  3.1138  1.3972  4.1688
   79MOL0     H10633   5.689   3.027  -0.994  0.3088 -0.3550 -1.1825
   79MOL0     H10634   5.755   3.187  -1.022  2.5477  0.4471 -2.5428
   79MOL0     H10635   5.880   2.917  -1.026 -1.8740  0.7788 -0.3669
   79MOL0     H10636   5.979   3.072  -1.069  0.6518  1.4027 -1.7567
   79MOL0     H10637   5.738   2.965  -1.212  1.9730 -3.6571  3.2797
   79MOL0     H10638   5.819   3.124  -1.247  0.7167  1.0212  2.0612
   79MOL0     H10639   5.944   2.867  -1.297  1.2596  0.1402 -0.8833
   79MOL0     H10640   6.025   3.022  -1.309  1.4939 -2.0355 -3.7294
   79MOL0     H10641   5.916   3.096  -1.497 -0.3167  0.1519 -0.3608
   79MOL0     H10642   5.964   2.933  -1.531  0.5086  1.7803 -1.3600
   79MOL0     H10643   5.682   2.962  -1.416  1.1074 -4.2935 -0.7173
   79MOL0     H10644   5.740   2.872  -1.557  1.2211  0.1995 -1.9688
   79MOL0     H10645   5.701   3.174  -1.542  0.7938  0.0297 -0.2681
   79MOL0     H10646   5.589   3.054  -1.618 -0.8989  1.2925  2.0510
   79MOL0     H10647   6.068   3.406  -0.798 -1.6647 -1.4046 -1.6945
   79MOL0     H10648   6.136   3.511  -0.564  1.5443 -0.4172 -0.4267
   79MOL0     H10649   5.897   3.723  -0.267 -3.7596  0.6596  0.8982
   79MOL0     H10650   5.865   3.900  -0.089 -2.3367 -1.9128  0.5076
   79MOL0     H10651   6.319   4.203   1.567 -2.7004  0.8771  0.9159
   79MOL0     H10652   6.218   4.303   1.782  0.8677 -1.3459  0.4746
   79MOL0     H10653   6.131   4.465   2.078  3.6520  1.5324  0.1867
   79MOL0     H10654   5.945   4.489   2.245 -0.3829  1.2474  0.3311
   79MOL0     H10655   5.742   4.661   2.489  1.8310  0.5988  2.0130
   79MOL0     H10656   5.852   4.535   2.411 -2.5446 -1.4387 -2.0105
   79MOL0     H10657   6.030   4.589   2.525  0.5775  1.7359 -3.6184
   79MOL0     H10658   5.899   4.635   2.632 -0.1401  1.6410  2.0408
   79MOL0     H10659   5.918   4.869   2.531  1.0798  2.0114 -1.2969
   79MOL0     H10660   6.092   4.817   2.482 -1.9556 -1.6393 -1.8039
   79MOL0     H10661   6.080   4.962   2.671  1.4081 -0.0818  0.8769
   79MOL0     H10662   6.150   4.813   2.719  1.5073  1.6542 -2.8206
   79MOL0     H10663   5.821   4.832   2.981  1.9670  1.9343  0.5041
   79MOL0     H10664   5.927   4.917   2.173 -2.6846 -1.1225  2.3690
   79MOL0     H10665   6.102   4.897   2.019  3.6855  0.7044  2.5121
   80MOL0     O10666   4.599   4.643   5.563  0.1242 -0.3752 -0.3451
   80MOL0     C10667   4.624   4.593   5.453  0.7516  0.2019 -0.0918
   80MOL0     O10668   4.643   4.665   5.335  0.1327  0.2445  0.0837
   80MOL0     C10669   4.673   4.803   5.343 -0.2171  0.4337  1.0519
   80MOL0     C10670   4.739   4.860   5.450 -0.3854  0.9315  0.8814
   80MOL0     C10671   4.763   4.997   5.463 -0.0623 -1.0202  0.1003
   80MOL0     C10672   4.725   5.079   5.355 -0.4279  1.3455  0.0705
   80MOL0     O10673   4.769   5.206   5.366  0.5584  0.1609 -0.4706
   80MOL0     C10674   4.670   5.308   5.326  0.0942  0.4926 -0.3377
   80MOL0     C10675   4.723   5.419   5.241  0.1837  0.4390  0.8327
   80MOL0     C10676   4.830   5.381   5.137 -0.4821 -0.5285  0.8664
   80MOL0     C10677   4.871   5.489   5.027  0.0449 -0.7856  0.1627
   80MOL0     C10678   4.960   5.446   4.913  0.2657 -0.3179  0.3418
   80MOL0     C10679   4.889   5.343   4.813 -0.2160 -0.3095  0.2166
   80MOL0     C10680   4.791   5.418   4.713  0.3015  1.2931 -0.2781
   80MOL0     C10681   4.855   5.553   4.674 -0.0996 -0.1944  0.4269
   80MOL0     N10682   4.809   5.608   4.549 -0.2471  0.2415 -0.1672
   80MOL0     C10683   4.870   5.602   4.427  0.2005  0.2356 -0.8640
   80MOL0     C10684   4.766   5.603   4.338 -0.5556 -0.3487  0.3384
   80MOL0     C10685   4.767   5.593   4.187  0.6529  0.1047 -0.2323
   80MOL0     C10686   4.807   5.736   4.127 -0.1198  0.7705  0.4099
   80MOL0     C10687   4.849   5.711   3.975  0.3060  0.4699 -0.5230
   80MOL0     C10688   4.905   5.848   3.928  0.0999 -0.5688  0.8256
   80MOL0     O10689   5.031   5.875   3.999  0.2165 -0.4666 -0.3488
   80MOL0     C10690   5.131   5.788   3.999  0.0448 -0.1735 -0.2315
   80MOL0     C10691   5.232   5.794   4.107  0.3452  0.0289 -0.1399
   80MOL0     C10692   5.344   5.711   4.103  0.8269 -0.0428 -0.6171
   80MOL0     C10693   5.411   5.713   4.234 -0.2477  0.3942 -0.3181
   80MOL0     C10694   5.359   5.614   4.004  0.3246  0.0122  0.0010
   80MOL0     C10695   5.464   5.506   4.001 -0.4388 -0.2526 -0.1385
   80MOL0     O10696   5.582   5.542   4.061  0.2575  0.7478 -0.0830
   80MOL0     C10697   5.695   5.467   4.069 -0.7432  0.4069  1.2608
   80MOL0     C10698   5.731   5.374   3.975 -0.1332 -0.0583  0.0804
   80MOL0     C10699   5.857   5.315   3.972 -0.1398 -0.0837 -1.3795
   80MOL0     C10700   5.961   5.348   4.060 -0.3156 -0.2941 -0.1395
   80MOL0     O10701   6.090   5.305   4.035  0.2492  0.2430  0.2069
   80MOL0     C10702   6.146   5.346   3.912 -0.0675  0.0650  0.7701
   80MOL0     C10703   6.101   5.268   3.779 -0.5107 -0.9941  0.1656
   80MOL0     C10704   6.113   5.116   3.784  0.7210 -0.3869 -0.5599
   80MOL0     C10705   6.254   5.069   3.856  0.9901  0.2852  0.0834
   80MOL0     C10706   6.291   4.927   3.837 -0.0241 -0.0039 -0.0417
   80MOL0     C10707   6.201   4.835   3.910 -0.1650 -0.9665  0.8360
   80MOL0     C10708   6.265   4.695   3.917 -0.5062 -0.3276 -0.7611
   80MOL0     C10709   6.194   4.602   4.014 -0.0987 -0.3483  0.0159
   80MOL0    Cl10710   6.010   4.605   3.983 -0.2052 -0.6172 -0.5568
   80MOL0     C10711   5.928   5.446   4.155  0.4796  1.0574  0.6442
   80MOL0     C10712   5.796   5.502   4.160  0.7461  0.1308  0.2090
   80MOL0     O10713   5.448   5.408   3.925 -0.6307  0.0231 -0.4466
   80MOL0     C10714   5.268   5.614   3.894  0.1540  0.0618  0.3501
   80MOL0     C10715   5.164   5.716   3.888 -0.3598  0.6138  0.4563
   80MOL0     N10716   4.647   5.625   4.401  0.9122 -0.1470  0.1058
   80MOL0     N10717   4.670   5.633   4.530  0.8032 -0.0172 -0.2368
   80MOL0     C10718   4.652   5.028   5.253  0.1003  0.6780  1.0188
   80MOL0     C10719   4.625   4.888   5.246 -0.3023 -0.1343 -0.9260
   80MOL0     C10720   4.647   4.451   5.438 -0.4428  0.2363  0.2542
   80MOL0     C10721   4.719   4.393   5.327  0.2439  0.6440  0.0798
   80MOL0     C10722   4.743   4.244   5.325  0.0639  0.0352 -0.1787
   80MOL0     C10723   4.698   4.166   5.429  0.8950 -1.6235  0.3419
   80MOL0     O10724   4.735   4.034   5.426 -0.6684  0.0314  0.2742
   80MOL0     C10725   4.635   3.929   5.455  0.5828  0.6233  0.6494
   80MOL0     C10726   4.686   3.794   5.394 -1.0249  0.2004  0.7763
   80MOL0     C10727   4.805   3.742   5.484 -1.1632 -0.4057  0.1912
   80MOL0     C10728   4.852   3.610   5.429 -0.1601  0.7106  1.0128
   80MOL0     C10729   4.942   3.614   5.314 -0.1076 -0.4266  0.2303
   80MOL0     C10730   5.011   3.641   5.214  0.6575 -0.0380  0.0942
   80MOL0     C10731   4.630   4.224   5.537  0.5925 -0.4073 -0.7969
   80MOL0     C10732   4.601   4.360   5.536  0.1632  0.2539  0.3256
   80MOL0     H10733   4.777   4.787   5.521 -3.6660 -1.0441  0.8223
   80MOL0     H10734   4.837   5.039   5.529  1.7331 -3.1984 -0.4191
   80MOL0     H10735   4.584   5.255   5.284 -1.0411  0.5211  1.8251
   80MOL0     H10736   4.628   5.367   5.408  3.0878  0.6652  1.2170
   80MOL0     H10737   4.634   5.447   5.184  1.4618 -1.1308 -2.2093
   80MOL0     H10738   4.773   5.498   5.297  2.6983  1.7846 -2.9698
   80MOL0     H10739   4.921   5.345   5.185 -0.6210  0.4348  1.8925
   80MOL0     H10740   4.785   5.300   5.079 -1.9370  0.8931 -0.0775
   80MOL0     H10741   4.778   5.535   4.991  0.0926 -0.0163  0.9765
   80MOL0     H10742   4.923   5.571   5.078 -2.0814  0.6398  0.2010
   80MOL0     H10743   5.009   5.534   4.869 -1.2174 -0.2243 -1.2169
   80MOL0     H10744   5.038   5.387   4.962  0.2293  1.2552  2.4603
   80MOL0     H10745   4.965   5.296   4.750 -0.7879  0.5661 -1.1900
   80MOL0     H10746   4.839   5.266   4.872 -0.5113  0.0755  0.4765
   80MOL0     H10747   4.766   5.359   4.624 -0.2390  1.9925 -0.6004
   80MOL0     H10748   4.698   5.435   4.767 -0.7183 -1.3374 -1.0632
   80MOL0     H10749   4.962   5.535   4.666 -0.2343 -1.7167  1.6236
   80MOL0     H10750   4.831   5.626   4.751 -1.0415 -0.2426  0.1918
   80MOL0     H10751   4.977   5.585   4.420  0.6188  1.0364  2.2356
   80MOL0     H10752   4.838   5.515   4.159  0.8871 -0.2416  1.2407
   80MOL0     H10753   4.668   5.567   4.147  1.5613 -1.8152 -1.3751
   80MOL0     H10754   4.895   5.763   4.186  1.9748 -2.8798 -0.7028
   80MOL0     H10755   4.720   5.801   4.139 -3.9631 -3.0656 -3.1217
   80MOL0     H10756   4.761   5.688   3.915 -1.6335 -0.3548  2.4408
   80MOL0     H10757   4.922   5.631   3.959 -0.9389 -0.3537 -2.3167
   80MOL0     H10758   4.838   5.934   3.943 -0.0870 -0.5992  0.1775
   80MOL0     H10759   4.939   5.839   3.825  0.6386  1.8596  0.7229
   80MOL0     H10760   5.196   5.865   4.180 -3.4488 -0.4702 -1.3383
   80MOL0     H10761   5.376   5.628   4.294 -0.8164 -0.8425 -2.2958
   80MOL0     H10762   5.519   5.694   4.229 -0.2798 -0.0719  0.4157
   80MOL0     H10763   5.381   5.803   4.288  0.8714  0.6378 -0.0584
   80MOL0     H10764   5.668   5.350   3.889 -1.3000  0.1150  0.8685
   80MOL0     H10765   5.880   5.238   3.899  0.7426  1.1110 -2.4176
   80MOL0     H10766   6.125   5.452   3.894  0.0304 -0.1125 -0.4513
   80MOL0     H10767   6.253   5.328   3.926 -0.1692 -0.7266  0.5513
   80MOL0     H10768   6.002   5.287   3.739 -0.0832 -1.4533 -1.1489
   80MOL0     H10769   6.178   5.306   3.712  0.3112 -0.7215  1.2245
   80MOL0     H10770   6.116   5.084   3.680 -1.5986 -0.0068 -0.8020
   80MOL0     H10771   6.020   5.066   3.815  0.4289 -0.5601 -1.6871
   80MOL0     H10772   6.346   5.116   3.820 -0.1305  1.9243 -0.7572
   80MOL0     H10773   6.232   5.081   3.962  0.0560 -1.0360  0.0623
   80MOL0     H10774   6.388   4.911   3.886 -2.4158 -3.3800  4.3308
   80MOL0     H10775   6.278   4.888   3.736  1.5425 -0.3709 -0.1183
   80MOL0     H10776   6.170   4.861   4.012  0.5269 -1.1473  1.0910
   80MOL0     H10777   6.115   4.823   3.843  1.3518 -4.5847 -0.7281
   80MOL0     H10778   6.369   4.693   3.950 -0.2747  2.2110 -1.0815
   80MOL0     H10779   6.258   4.653   3.816  3.0470 -0.0162 -1.2671
   80MOL0     H10780   6.221   4.637   4.114  4.3497 -2.5383 -0.1819
   80MOL0     H10781   6.232   4.501   4.001  0.7323 -0.0750  0.2645
   80MOL0     H10782   6.007   5.477   4.222  0.4743  1.3827  0.5009
   80MOL0     H10783   5.771   5.557   4.250  1.7130 -3.3400  2.7755
   80MOL0     H10784   5.295   5.552   3.809  1.2591 -0.4879  1.0773
   80MOL0     H10785   5.123   5.722   3.787 -1.2695 -0.8129  0.7170
   80MOL0     H10786   4.636   5.092   5.166 -1.0080  1.2563  1.6247
   80MOL0     H10787   4.594   4.843   5.152  2.3847  0.1427 -2.0154
   80MOL0     H10788   4.762   4.441   5.240  1.0319 -1.8286 -0.9837
   80MOL0     H10789   4.786   4.186   5.244 -0.1813  2.2595 -2.0060
   80MOL0     H10790   4.616   3.928   5.563  0.7487  0.5423  0.6785
   80MOL0     H10791   4.543   3.949   5.401 -1.2503 -2.6263  2.2561
   80MOL0     H10792   4.717   3.811   5.291  3.8928  1.0005  2.1192
   80MOL0     H10793   4.614   3.712   5.392 -0.7900 -0.0698  2.2859
   80MOL0     H10794   4.777   3.739   5.590 -1.9958  0.5191  0.0197
   80MOL0     H10795   4.897   3.801   5.483  0.4077 -2.7519  0.4606
   80MOL0     H10796   4.772   3.536   5.425  2.4057 -2.4660  3.3104
   80MOL0     H10797   4.921   3.572   5.505 -0.6708 -1.7836  0.3039
   80MOL0     H10798   5.059   3.672   5.123  2.9252  4.3717  2.4742
   80MOL0     H10799   4.586   4.169   5.619 -0.4822 -1.3743 -1.9934
   80MOL0     H10800   4.565   4.390   5.634  2.5664 -0.3960  1.4658
   81MOL0     O10801   4.650   5.413  10.348 -1.3160  0.2607  0.4885
   81MOL0     C10802   4.731   5.489  10.292  0.4996  0.1469  0.1824
   81MOL0     O10803   4.694   5.606  10.248  0.2906  0.2025  0.2703
   81MOL0     C10804   4.576   5.663  10.290  1.2537  1.0561 -0.2367
   81MOL0     C10805   4.570   5.796  10.337 -0.0019 -0.6466  0.2646
   81MOL0     C10806   4.451   5.859  10.381  0.0899 -0.6176  0.3965
   81MOL0     C10807   4.326   5.795  10.381  0.0680 -0.4980  0.4237
   81MOL0     O10808   4.214   5.864  10.429  0.3837 -0.1305  0.2508
   81MOL0     C10809   4.112   5.796  10.505 -1.1715  0.3890  0.1354
   81MOL0     C10810   3.977   5.868  10.496  0.1390 -0.4852 -0.0796
   81MOL0     C10811   3.978   6.001  10.587 -0.1206 -0.2275  0.6274
   81MOL0     C10812   3.831   6.047  10.557  0.4680 -0.4179  0.2862
   81MOL0     C10813   3.770   6.168  10.628  0.7040 -0.7194  0.3051
   81MOL0     C10814   3.638   6.219  10.561 -0.1935 -1.6079  0.5607
   81MOL0     C10815   3.546   6.294  10.661  0.2071  0.0390  0.7774
   81MOL0     C10816   3.407   6.328  10.622 -0.1315 -0.3475 -0.7535
   81MOL0     N10817   3.392   6.432  10.528  0.2716 -0.6797 -0.2379
   81MOL0     C10818   3.343   6.555  10.558 -0.3360 -0.3776 -0.2498
   81MOL0     C10819   3.370   6.631  10.450 -0.2490  0.2698  0.0151
   81MOL0     C10820   3.341   6.771  10.436 -0.2434 -1.0617 -0.0562
   81MOL0     C10821   3.201   6.806  10.402  0.5101  0.0954 -0.0471
   81MOL0     C10822   3.169   6.776  10.260 -0.4678 -0.6927  0.0205
   81MOL0     C10823   3.019   6.813  10.231  0.4955  0.7489  0.8057
   81MOL0     O10824   3.016   6.870  10.094  0.4921 -0.0525  0.5441
   81MOL0     C10825   3.014   6.790   9.982  0.2191  0.2000 -0.1558
   81MOL0     C10826   2.994   6.841   9.861 -0.2510  0.9156 -0.0382
   81MOL0     C10827   2.993   6.773   9.737 -0.0340  0.5818 -0.0461
   81MOL0     C10828   2.955   6.849   9.616 -1.4900 -0.1107 -0.9165
   81MOL0     C10829   3.013   6.637   9.743  1.1117  0.9017 -0.3094
   81MOL0     C10830   3.024   6.543   9.629 -0.3198  0.2634 -0.3456
   81MOL0     O10831   3.012   6.405   9.667 -0.3208 -0.0924  0.0920
   81MOL0     C10832   2.984   6.315   9.568  0.7350  0.4882  0.2110
   81MOL0     C10833   2.863   6.336   9.498 -1.0059  0.0936  0.8336
   81MOL0     C10834   2.843   6.262   9.387 -0.3608  0.4030  0.1427
   81MOL0     C10835   2.931   6.154   9.356 -0.7902 -0.0444  1.0661
   81MOL0     O10836   2.923   6.068   9.253 -0.3406 -0.5148 -0.2137
   81MOL0     C10837   2.809   6.076   9.170  0.2046  0.3725 -0.2049
   81MOL0     C10838   2.799   5.929   9.108  0.0869 -0.2229 -0.0809
   81MOL0     C10839   2.684   5.939   9.000 -0.8405  0.9082 -0.0236
   81MOL0     C10840   2.696   5.849   8.873 -0.7168  0.4668 -0.6763
   81MOL0     C10841   2.587   5.892   8.771 -0.1698 -0.2477  0.0129
   81MOL0     C10842   2.637   5.850   8.635 -0.3560 -0.0714 -0.5124
   81MOL0     C10843   2.535   5.884   8.527 -1.4730  0.9731 -0.4015
   81MOL0     C10844   2.570   5.828   8.385  1.7529 -1.2529 -0.2619
   81MOL0    Cl10845   2.487   5.952   8.271 -0.3795 -0.2911  0.3459
   81MOL0     C10846   3.044   6.127   9.438  0.4699 -0.2497  0.5847
   81MOL0     C10847   3.070   6.209   9.542 -0.8254  0.0608  0.3326
   81MOL0     O10848   3.055   6.583   9.516 -0.8760 -0.2390  0.3103
   81MOL0     C10849   3.042   6.572   9.866 -0.7763 -0.2962 -0.7708
   81MOL0     C10850   3.025   6.647   9.983 -0.7698  0.2294 -0.0408
   81MOL0     N10851   3.426   6.549  10.351 -0.0912 -0.1075  0.0772
   81MOL0     N10852   3.430   6.428  10.401 -0.9052 -0.4643  1.0547
   81MOL0     C10853   4.330   5.663  10.340  0.7351  0.0271 -0.0277
   81MOL0     C10854   4.448   5.599  10.296 -0.3870  0.8379  0.5475
   81MOL0     C10855   4.870   5.455  10.268 -0.2471 -0.3035  0.2752
   81MOL0     C10856   4.950   5.529  10.173 -0.9959 -0.1803 -0.2988
   81MOL0     C10857   5.085   5.503  10.170  0.5774 -0.9039  0.1607
   81MOL0     C10858   5.150   5.413  10.254  0.7504 -0.1336  0.4918
   81MOL0     O10859   5.286   5.388  10.254 -0.3672  0.4908  0.0765
   81MOL0     C10860   5.365   5.456  10.159 -0.1822  0.6832 -0.3690
   81MOL0     C10861   5.510   5.425  10.188  0.4533 -0.3819 -0.2817
   81MOL0     C10862   5.554   5.521  10.299 -0.0490  0.8768 -0.1583
   81MOL0     C10863   5.584   5.668  10.257  0.5619  0.3766  0.5899
   81MOL0     C10864   5.682   5.663  10.142  0.5988  0.4121 -0.1629
   81MOL0     C10865   5.768   5.650  10.058  0.3485  0.9884 -0.1298
   81MOL0     C10866   5.071   5.335  10.338 -0.0157 -0.0894  0.0501
   81MOL0     C10867   4.935   5.361  10.352 -0.1164 -0.9774  0.2833
   81MOL0     H10868   4.665   5.844  10.361 -0.0357 -1.2016  1.6056
   81MOL0     H10869   4.456   5.963  10.413  3.8587 -0.4084 -0.3391
   81MOL0     H10870   4.101   5.698  10.459  2.6481  1.4736 -3.7318
   81MOL0     H10871   4.143   5.773  10.607  1.1985 -2.0999 -1.0309
   81MOL0     H10872   3.975   5.905  10.393  4.3556 -2.4309 -1.0867
   81MOL0     H10873   3.894   5.799  10.513  0.3310 -1.5294 -2.8068
   81MOL0     H10874   3.986   5.963  10.689 -3.1524 -1.9231  0.3648
   81MOL0     H10875   4.063   6.068  10.582  2.2535 -2.6490  4.1387
   81MOL0     H10876   3.838   6.078  10.453 -0.2747  0.6708  0.5487
   81MOL0     H10877   3.758   5.965  10.559  1.2768 -1.1779 -0.5504
   81MOL0     H10878   3.745   6.145  10.731 -0.8854  3.7710  1.1691
   81MOL0     H10879   3.839   6.253  10.628  0.8787 -0.8582 -0.1827
   81MOL0     H10880   3.670   6.273  10.472  3.0327 -1.6847  1.5442
   81MOL0     H10881   3.576   6.132  10.535 -0.1149 -0.7111 -3.1495
   81MOL0     H10882   3.540   6.227  10.747  3.2987  1.4732  2.2818
   81MOL0     H10883   3.603   6.382  10.693 -1.5267  0.9217  1.5563
   81MOL0     H10884   3.351   6.354  10.712 -1.7992 -0.5407 -1.6837
   81MOL0     H10885   3.371   6.235  10.577 -1.4629 -1.1904  1.8314
   81MOL0     H10886   3.286   6.578  10.647 -3.6110 -2.4058 -1.6452
   81MOL0     H10887   3.369   6.815  10.533 -0.4147 -3.6243  1.2322
   81MOL0     H10888   3.407   6.813  10.359  0.3169 -2.5141 -0.4102
   81MOL0     H10889   3.179   6.910  10.425  0.5265  0.0264  0.2831
   81MOL0     H10890   3.131   6.747  10.463  1.0951 -2.2002 -1.4617
   81MOL0     H10891   3.196   6.677  10.222  0.9713  1.0541 -4.2190
   81MOL0     H10892   3.228   6.846  10.200 -1.0092 -0.5577 -0.3615
   81MOL0     H10893   2.988   6.900  10.289  0.4760  1.7333 -0.6072
   81MOL0     H10894   2.950   6.729  10.247  0.6456 -0.1517 -2.5297
   81MOL0     H10895   2.977   6.947   9.873 -0.1118  1.3658 -3.0342
   81MOL0     H10896   2.867   6.798   9.576  0.4151 -3.1554 -1.5297
   81MOL0     H10897   2.930   6.955   9.630 -3.3231 -0.7048  0.6636
   81MOL0     H10898   3.030   6.835   9.537  1.1139 -1.0924  1.5641
   81MOL0     H10899   2.800   6.424   9.506 -0.2442  1.1019 -2.4294
   81MOL0     H10900   2.758   6.303   9.333  0.2300  5.3096  2.4057
   81MOL0     H10901   2.714   6.092   9.222 -0.3702 -3.1994  0.1476
   81MOL0     H10902   2.828   6.149   9.091  3.8814  1.8001  1.7890
   81MOL0     H10903   2.894   5.892   9.070 -1.1209 -1.0538 -2.4438
   81MOL0     H10904   2.754   5.884   9.198 -0.7735  1.4521  0.3843
   81MOL0     H10905   2.679   6.036   8.949 -0.1706  0.5298 -0.8318
   81MOL0     H10906   2.595   5.923   9.061 -0.4090  1.4161  0.7656
   81MOL0     H10907   2.796   5.868   8.834  0.0174 -3.6751 -1.2584
   81MOL0     H10908   2.684   5.742   8.895  1.0682  0.3091 -0.3353
   81MOL0     H10909   2.583   6.001   8.761  1.1049 -0.4051 -3.7602
   81MOL0     H10910   2.484   5.869   8.797  0.5542 -0.6555  2.9737
   81MOL0     H10911   2.732   5.900   8.613 -0.1824  0.0543  0.4661
   81MOL0     H10912   2.658   5.743   8.637  2.0668  0.3114 -1.9032
   81MOL0     H10913   2.526   5.993   8.518 -3.3412  0.7358 -1.8860
   81MOL0     H10914   2.437   5.843   8.550 -1.0612  0.2520  0.1185
   81MOL0     H10915   2.538   5.723   8.375 -0.6156 -0.4401 -2.2203
   81MOL0     H10916   2.676   5.833   8.358  1.7714 -2.4091 -0.4556
   81MOL0     H10917   3.113   6.046   9.417 -1.6181 -1.2793 -3.1982
   81MOL0     H10918   3.151   6.196   9.613 -2.2351  1.7006  2.3796
   81MOL0     H10919   3.049   6.465   9.880 -3.9250 -0.3370  1.4684
   81MOL0     H10920   3.034   6.588  10.074 -2.2513 -3.0382 -1.7991
   81MOL0     H10921   4.242   5.599  10.340  0.6866  0.0353  2.0952
   81MOL0     H10922   4.436   5.495  10.270 -0.7952  1.0523 -0.1552
   81MOL0     H10923   4.905   5.616  10.127 -1.0534  0.5236  1.0302
   81MOL0     H10924   5.144   5.571  10.110  2.0911 -0.6743  1.8101
   81MOL0     H10925   5.339   5.432  10.055  5.6365  0.5591 -2.1628
   81MOL0     H10926   5.349   5.565  10.162  0.3378  0.7364  0.7933
   81MOL0     H10927   5.554   5.439  10.089  0.8241  0.8284  0.0346
   81MOL0     H10928   5.531   5.320  10.208 -0.1333 -1.3594 -4.1531
   81MOL0     H10929   5.639   5.475  10.350 -0.8216  0.0249  0.3964
   81MOL0     H10930   5.474   5.526  10.374  1.2056 -0.5461  1.3432
   81MOL0     H10931   5.638   5.715  10.340 -0.5957  2.9894 -0.0318
   81MOL0     H10932   5.490   5.721  10.235  0.3983 -0.2996 -0.4170
   81MOL0     H10933   5.848   5.637   9.989 -1.0877  0.7369 -1.8283
   81MOL0     H10934   5.123   5.253  10.387 -0.1841 -0.5837 -0.5926
   81MOL0     H10935   4.880   5.301  10.424 -0.7989 -0.9710 -0.2202
   82MOL0     O10936   6.587   8.125   5.020 -0.3011  0.5191 -0.6773
   82MOL0     C10937   6.670   8.163   4.935  0.0876 -0.2016 -1.0532
   82MOL0     O10938   6.766   8.078   4.890 -0.0655  0.1342  1.3588
   82MOL0     C10939   6.760   7.953   4.943 -0.1658  0.3045  0.3882
   82MOL0     C10940   6.694   7.839   4.896 -0.6182 -0.0952  0.0908
   82MOL0     C10941   6.700   7.714   4.964  0.7244  0.4546  0.8289
   82MOL0     C10942   6.756   7.706   5.094 -0.2613 -0.6111 -0.9586
   82MOL0     O10943   6.757   7.600   5.182  1.4362  0.0030 -0.5123
   82MOL0     C10944   6.767   7.467   5.123 -0.6181 -0.0400  0.3570
   82MOL0     C10945   6.746   7.364   5.237  0.5687  0.4063 -0.1729
   82MOL0     C10946   6.816   7.391   5.372  0.4544 -0.2365  0.2439
   82MOL0     C10947   6.767   7.290   5.471 -0.3571 -0.9303 -0.0397
   82MOL0     C10948   6.848   7.276   5.599 -0.6833 -0.2505  0.1740
   82MOL0     C10949   6.824   7.391   5.696 -0.3103  0.0244 -0.0727
   82MOL0     C10950   6.877   7.368   5.844  0.2147 -0.9551  0.9653
   82MOL0     C10951   7.025   7.410   5.849  0.0609 -0.3976  1.0930
   82MOL0     N10952   7.041   7.521   5.938  0.1435 -0.4793 -0.0775
   82MOL0     C10953   7.024   7.653   5.919 -0.6729  0.1205 -0.1398
   82MOL0     C10954   7.039   7.703   6.046  1.3094  0.3430  0.2892
   82MOL0     C10955   7.037   7.849   6.076  0.7907  0.8514 -0.0145
   82MOL0     C10956   6.906   7.909   6.011  0.2713  1.1941 -0.0739
   82MOL0     C10957   6.850   8.027   6.102 -0.3762  0.5260 -1.1625
   82MOL0     C10958   6.964   8.137   6.126  0.1155  0.4974  0.0316
   82MOL0     O10959   6.903   8.249   6.191  0.2421 -0.5333  0.6716
   82MOL0     C10960   6.896   8.369   6.127  0.0342  0.7658  0.3030
   82MOL0     C10961   6.789   8.458   6.167 -0.4717 -0.5953 -0.2578
   82MOL0     C10962   6.784   8.589   6.115 -1.0762 -0.8944  0.5100
   82MOL0     C10963   6.691   8.691   6.177  1.1427  0.1755  0.5373
   82MOL0     C10964   6.870   8.622   6.007 -0.8372 -0.6126  0.4498
   82MOL0     C10965   6.880   8.768   5.947 -0.0042  0.1192  0.0740
   82MOL0     O10966   6.765   8.788   5.878  0.1312 -0.1764 -0.1276
   82MOL0     C10967   6.741   8.916   5.837 -0.8150 -0.9154 -0.8184
   82MOL0     C10968   6.755   9.034   5.923 -0.0567  0.1878  0.1577
   82MOL0     C10969   6.716   9.161   5.864 -1.0517 -0.1644  0.0621
   82MOL0     C10970   6.657   9.166   5.741 -0.6079 -0.0617 -0.1390
   82MOL0     O10971   6.628   9.283   5.672 -0.6274  0.1243  0.4374
   82MOL0     C10972   6.538   9.373   5.733 -0.3322  0.4886 -0.2377
   82MOL0     C10973   6.565   9.516   5.675  0.8466  0.3469  0.0224
   82MOL0     C10974   6.541   9.543   5.525 -0.6035 -0.0512 -0.7468
   82MOL0     C10975   6.394   9.540   5.485  0.6251 -0.3299 -0.7457
   82MOL0     C10976   6.288   9.615   5.573  0.5437  0.3081  0.4259
   82MOL0     C10977   6.160   9.599   5.486  0.3326 -0.1045 -0.7624
   82MOL0     C10978   6.024   9.633   5.555 -0.1256 -0.8787  0.5011
   82MOL0     C10979   5.986   9.536   5.665 -0.4409  0.4775  0.0087
   82MOL0    Cl10980   5.852   9.582   5.769  0.2122  0.2896 -0.1555
   82MOL0     C10981   6.639   9.049   5.663 -0.8745  0.5809 -0.3395
   82MOL0     C10982   6.683   8.929   5.711 -1.2774 -0.3633 -0.1428
   82MOL0     O10983   6.984   8.831   5.946 -0.2915 -0.7176 -0.2064
   82MOL0     C10984   6.973   8.530   5.964  0.4859 -0.6554 -0.4012
   82MOL0     C10985   6.986   8.403   6.026  0.0939 -0.4650 -0.1729
   82MOL0     N10986   7.058   7.598   6.137 -1.0790  0.1719  0.3336
   82MOL0     N10987   7.057   7.491   6.068 -1.0776 -0.8639 -0.0837
   82MOL0     C10988   6.817   7.825   5.139  0.1439 -1.3493  0.3225
   82MOL0     C10989   6.815   7.941   5.061  0.2474  0.3407 -0.6831
   82MOL0     C10990   6.650   8.295   4.877  0.2041  0.0140  0.7312
   82MOL0     C10991   6.760   8.353   4.819  0.4374 -0.0742  0.3328
   82MOL0     C10992   6.761   8.484   4.767 -0.0568 -0.3725  0.1025
   82MOL0     C10993   6.642   8.555   4.768  0.5311 -0.3765 -0.8594
   82MOL0     O10994   6.652   8.682   4.714  0.3883  0.3567  0.4882
   82MOL0     C10995   6.568   8.772   4.788 -0.0994  0.2423  0.6425
   82MOL0     C10996   6.596   8.924   4.756 -0.0336  0.1799  0.6106
   82MOL0     C10997   6.747   8.955   4.779 -0.0739 -0.4525  0.2966
   82MOL0     C10998   6.781   8.943   4.930  0.1568  0.1689  0.4951
   82MOL0     C10999   6.912   8.988   4.948 -0.6099 -0.0456  0.5889
   82MOL0     C11000   7.014   9.034   4.986 -0.2987 -0.3942  0.4837
   82MOL0     C11001   6.524   8.491   4.813 -0.6069  0.3674 -0.5770
   82MOL0     C11002   6.527   8.364   4.870  0.6464 -0.2751  0.0842
   82MOL0     H11003   6.633   7.838   4.806  3.1681  0.6696 -2.7021
   82MOL0     H11004   6.632   7.635   4.935  1.8401  0.9174 -3.8778
   82MOL0     H11005   6.701   7.435   5.042  0.4149 -0.9048 -0.1744
   82MOL0     H11006   6.862   7.454   5.070 -1.7209 -1.8448 -1.3359
   82MOL0     H11007   6.637   7.356   5.245  0.8172 -2.0560  2.3773
   82MOL0     H11008   6.765   7.261   5.206 -1.7984  0.0653 -0.7361
   82MOL0     H11009   6.925   7.393   5.380  0.4028  0.3648  0.8984
   82MOL0     H11010   6.782   7.486   5.414 -0.9465 -0.6451  0.0993
   82MOL0     H11011   6.659   7.310   5.479 -0.5070 -1.7645  0.0875
   82MOL0     H11012   6.779   7.196   5.416 -1.4395 -0.6873 -0.7345
   82MOL0     H11013   6.830   7.184   5.655  1.6959  0.1781  1.8252
   82MOL0     H11014   6.954   7.289   5.574 -0.8949  1.1331 -0.0993
   82MOL0     H11015   6.867   7.488   5.670 -1.4789  0.6054  0.0895
   82MOL0     H11016   6.716   7.408   5.701 -0.7210 -2.6147  2.4287
   82MOL0     H11017   6.822   7.429   5.916  0.8630 -2.5368  2.8877
   82MOL0     H11018   6.860   7.264   5.873  0.1291 -2.1951 -2.9916
   82MOL0     H11019   7.070   7.425   5.751  1.3104  1.5866  1.8992
   82MOL0     H11020   7.081   7.325   5.888  2.5141 -0.6043 -2.4447
   82MOL0     H11021   7.013   7.702   5.822  1.0819  0.6291 -0.1254
   82MOL0     H11022   7.033   7.856   6.185  1.4379 -0.4278  0.1044
   82MOL0     H11023   7.121   7.904   6.033 -0.7613  2.9710 -0.5090
   82MOL0     H11024   6.820   7.843   6.000 -0.2700  1.6310  1.3101
   82MOL0     H11025   6.930   7.947   5.912  2.6469 -2.5023 -1.0910
   82MOL0     H11026   6.813   7.985   6.196 -0.7642  3.1658 -0.0323
   82MOL0     H11027   6.758   8.063   6.055 -0.9052 -1.4911 -1.7674
   82MOL0     H11028   7.017   8.158   6.033 -3.5014  0.0188 -2.3290
   82MOL0     H11029   7.024   8.081   6.198 -2.4550 -1.5637  0.7370
   82MOL0     H11030   6.722   8.435   6.249 -2.1364  0.9605 -1.1019
   82MOL0     H11031   6.642   8.639   6.259 -4.0023 -1.0862 -2.8633
   82MOL0     H11032   6.745   8.785   6.195  1.6053 -0.2768  1.5756
   82MOL0     H11033   6.606   8.713   6.112  1.6234  0.2370 -0.0841
   82MOL0     H11034   6.789   9.029   6.026  3.6818  0.9800 -0.8982
   82MOL0     H11035   6.728   9.254   5.919 -1.9621  0.4384 -0.7171
   82MOL0     H11036   6.436   9.341   5.708  0.7777 -3.4653 -0.2540
   82MOL0     H11037   6.552   9.380   5.841  1.7571  1.5300 -0.5326
   82MOL0     H11038   6.505   9.591   5.727 -1.0137 -0.4344 -0.9383
   82MOL0     H11039   6.672   9.536   5.685  1.2174 -0.1884 -2.2194
   82MOL0     H11040   6.607   9.487   5.458  3.1835  1.9057  0.9688
   82MOL0     H11041   6.569   9.649   5.517 -2.1514  0.8205  2.9737
   82MOL0     H11042   6.395   9.594   5.390  5.8458 -1.6590 -1.7567
   82MOL0     H11043   6.360   9.436   5.475  0.3718 -0.2790 -0.4413
   82MOL0     H11044   6.319   9.718   5.589 -2.0771  1.3267 -0.3937
   82MOL0     H11045   6.275   9.567   5.670 -0.6691  0.3115  0.2930
   82MOL0     H11046   6.171   9.664   5.399  0.6974  0.5351 -0.2444
   82MOL0     H11047   6.156   9.495   5.453 -1.5038 -0.0193 -0.9531
   82MOL0     H11048   5.947   9.637   5.478 -0.3949  0.1306  0.8068
   82MOL0     H11049   6.026   9.736   5.592 -2.4087 -0.5901 -0.0552
   82MOL0     H11050   6.065   9.503   5.733 -1.4897 -2.9967 -0.2479
   82MOL0     H11051   5.948   9.454   5.604  0.8213  1.3814 -2.1091
   82MOL0     H11052   6.589   9.065   5.568 -2.0818 -0.0239  0.1779
   82MOL0     H11053   6.660   8.843   5.649 -0.0071  0.4499 -1.8437
   82MOL0     H11054   7.036   8.558   5.881  2.0323  1.3168  1.3268
   82MOL0     H11055   7.078   8.356   5.994 -1.1163 -1.2128 -2.8580
   82MOL0     H11056   6.871   7.835   5.232  1.1060 -0.6464 -0.2928
   82MOL0     H11057   6.870   8.030   5.087  0.1541  0.8964 -2.3162
   82MOL0     H11058   6.853   8.301   4.802 -0.0967 -0.8821 -0.1762
   82MOL0     H11059   6.847   8.535   4.724 -1.5260 -0.6937 -3.5647
   82MOL0     H11060   6.462   8.753   4.766 -0.0560  2.7887 -2.5137
   82MOL0     H11061   6.573   8.755   4.896  0.9181 -0.3559  0.5165
   82MOL0     H11062   6.534   8.975   4.830 -1.9583 -0.4535 -0.4881
   82MOL0     H11063   6.580   8.946   4.650  0.4030  0.3993  0.5878
   82MOL0     H11064   6.769   9.056   4.743  1.0677 -0.9335 -0.3905
   82MOL0     H11065   6.801   8.885   4.715  1.8167  1.2849 -0.1042
   82MOL0     H11066   6.787   8.836   4.951 -1.3420  0.0213  0.2691
   82MOL0     H11067   6.702   8.992   4.988 -1.6752 -0.5077 -1.3124
   82MOL0     H11068   7.107   9.077   5.019 -0.9093  0.9852  0.5129
   82MOL0     H11069   6.428   8.540   4.808 -1.0037 -0.5394 -2.3341
   82MOL0     H11070   6.428   8.327   4.895  1.1326 -1.5597  0.2142
   83MOL0     O11071   8.695   5.753   1.249 -0.3047 -0.2624  0.1009
   83MOL0     C11072   8.730   5.819   1.145  1.0341  0.3382 -0.6686
   83MOL0     O11073   8.689   5.947   1.115  0.8139 -0.0460 -0.0574
   83MOL0     C11074   8.588   5.999   1.197  0.1192 -0.3833 -0.0364
   83MOL0     C11075   8.465   5.940   1.228 -0.0034 -0.3099  0.0457
   83MOL0     C11076   8.378   6.015   1.312  0.1090 -0.7320 -0.2536
   83MOL0     C11077   8.403   6.140   1.360 -0.0887  0.4491 -0.4392
   83MOL0     O11078   8.322   6.193   1.462 -0.4342 -0.1905  0.3941
   83MOL0     C11079   8.201   6.254   1.422  0.2742  0.4188  0.2768
   83MOL0     C11080   8.208   6.346   1.297 -0.2108 -0.4223 -0.6284
   83MOL0     C11081   8.080   6.428   1.273 -1.4547 -1.0857  0.1126
   83MOL0     C11082   8.126   6.536   1.179 -0.0608  0.3983  0.5206
   83MOL0     C11083   8.011   6.640   1.162  0.2898  0.1583 -0.3861
   83MOL0     C11084   8.033   6.778   1.222 -0.2044 -0.4546 -0.1137
   83MOL0     C11085   7.900   6.859   1.221 -0.2765  1.0455  0.3814
   83MOL0     C11086   7.911   6.991   1.286  0.7009  0.3096  0.3960
   83MOL0     N11087   8.018   7.080   1.230 -0.1107  0.1815  0.0927
   83MOL0     C11088   7.989   7.180   1.146 -1.4738 -0.5200 -0.4781
   83MOL0     C11089   8.101   7.252   1.122  0.5816  0.0514 -0.4662
   83MOL0     C11090   8.123   7.355   1.016  0.7342  0.3921  0.4593
   83MOL0     C11091   8.253   7.330   0.951  0.1561  0.0061  0.7790
   83MOL0     C11092   8.275   7.417   0.823  0.7871  0.3484  0.7475
   83MOL0     C11093   8.319   7.555   0.857 -0.1949  0.0294  0.3583
   83MOL0     O11094   8.206   7.641   0.882 -0.4289 -0.3054  0.7325
   83MOL0     C11095   8.196   7.715   0.995  0.1184  0.1290  0.2965
   83MOL0     C11096   8.086   7.803   0.985  0.8391 -0.2294 -0.5472
   83MOL0     C11097   8.056   7.888   1.091 -0.4248  0.2411  0.0079
   83MOL0     C11098   7.939   7.977   1.072 -0.2159  0.1713 -0.1727
   83MOL0     C11099   8.134   7.895   1.209  0.0378 -0.1756  0.4992
   83MOL0     C11100   8.120   8.006   1.317 -0.0858 -0.3593 -0.5205
   83MOL0     O11101   8.233   8.017   1.400  0.4747  0.0959 -0.1414
   83MOL0     C11102   8.201   8.094   1.511 -0.9780 -0.3221  0.1301
   83MOL0     C11103   8.190   8.239   1.514  0.0612  0.4613 -0.2398
   83MOL0     C11104   8.173   8.311   1.635 -0.1109  0.6441  0.0134
   83MOL0     C11105   8.140   8.239   1.745  0.6870 -0.3671  0.6121
   83MOL0     O11106   8.119   8.304   1.862 -0.7091  0.0510  0.7740
   83MOL0     C11107   7.986   8.299   1.914 -0.2824  0.4652 -0.5676
   83MOL0     C11108   7.923   8.441   1.915  0.4269 -0.4173 -0.7713
   83MOL0     C11109   7.910   8.508   1.775 -0.8706 -0.0760 -0.1171
   83MOL0     C11110   8.029   8.616   1.756  0.0547 -0.4294  0.6002
   83MOL0     C11111   8.039   8.669   1.611 -0.0601  0.2727  0.1604
   83MOL0     C11112   7.910   8.663   1.513  0.5470  0.6609  0.8292
   83MOL0     C11113   7.876   8.799   1.446  0.9901  0.0011  0.5879
   83MOL0     C11114   7.767   8.861   1.529 -0.3574 -0.0796 -0.0760
   83MOL0    Cl11115   7.607   8.766   1.502 -0.0417  0.0034  0.1383
   83MOL0     C11116   8.135   8.099   1.740 -0.7613 -0.0870 -1.2211
   83MOL0     C11117   8.171   8.025   1.627 -0.6047  0.2056 -0.6119
   83MOL0     O11118   8.020   8.076   1.327 -0.2965  0.8954 -0.4115
   83MOL0     C11119   8.237   7.799   1.219  0.5503  0.7823 -0.2039
   83MOL0     C11120   8.270   7.725   1.106 -0.4243  0.5133  0.6600
   83MOL0     N11121   8.187   7.205   1.219 -0.4486 -0.2793  0.3334
   83MOL0     N11122   8.139   7.099   1.286  0.8643  0.0471  0.3614
   83MOL0     C11123   8.524   6.198   1.330 -0.4097  0.5659  0.4606
   83MOL0     C11124   8.611   6.128   1.242 -0.7350  0.0027 -0.1636
   83MOL0     C11125   8.793   5.731   1.038 -1.7645 -0.0342 -1.4509
   83MOL0     C11126   8.851   5.602   1.060  0.9050  0.3031 -0.3396
   83MOL0     C11127   8.920   5.539   0.951 -0.4103  1.1901 -0.1187
   83MOL0     C11128   8.935   5.603   0.824 -0.4108 -0.0914 -0.3908
   83MOL0     O11129   9.012   5.554   0.725 -0.1532 -0.2760  0.4957
   83MOL0     C11130   9.072   5.427   0.722 -0.7385  0.5532 -0.3127
   83MOL0     C11131   9.218   5.429   0.760 -0.2838  0.0968 -0.5738
   83MOL0     C11132   9.299   5.508   0.665 -0.9665 -0.2537  0.6808
   83MOL0     C11133   9.450   5.497   0.685  0.7433 -0.3402 -1.0441
   83MOL0     C11134   9.530   5.593   0.604  1.5089  0.8848 -1.3824
   83MOL0     C11135   9.601   5.682   0.554  0.1785  0.1022  0.0347
   83MOL0     C11136   8.877   5.722   0.806  0.8398 -1.0847 -0.6708
   83MOL0     C11137   8.805   5.788   0.910 -0.1586  1.4330  0.1767
   83MOL0     H11138   8.435   5.845   1.184 -1.4125 -0.7495  1.8379
   83MOL0     H11139   8.286   5.963   1.337 -0.0029 -1.4503 -1.9699
   83MOL0     H11140   8.121   6.181   1.407 -1.0088  2.0571 -1.3557
   83MOL0     H11141   8.171   6.320   1.504  2.7035 -1.0540  2.5282
   83MOL0     H11142   8.294   6.413   1.307 -0.2783 -0.6361  2.1226
   83MOL0     H11143   8.230   6.281   1.212  2.1431 -1.6438  0.7868
   83MOL0     H11144   8.007   6.362   1.227 -2.5096 -0.2367  0.5231
   83MOL0     H11145   8.043   6.467   1.368  0.5957  0.5838  0.3246
   83MOL0     H11146   8.211   6.592   1.219  0.7128 -1.7871  2.1617
   83MOL0     H11147   8.157   6.491   1.084  1.6336  2.4912  0.0249
   83MOL0     H11148   7.983   6.654   1.057 -0.4215 -1.3326 -0.4180
   83MOL0     H11149   7.923   6.592   1.205  1.6313 -1.3559  0.7699
   83MOL0     H11150   8.064   6.753   1.324  0.2867 -1.6326 -0.5259
   83MOL0     H11151   8.113   6.834   1.172 -2.1596  2.7653  0.1204
   83MOL0     H11152   7.873   6.868   1.115  0.0932  0.1545  0.1965
   83MOL0     H11153   7.822   6.803   1.273  0.3497  0.2618  0.4950
   83MOL0     H11154   7.928   6.970   1.392 -1.1966 -1.1954  0.4526
   83MOL0     H11155   7.808   7.029   1.279 -1.2016 -4.2177  0.7463
   83MOL0     H11156   7.896   7.194   1.090 -1.4105  2.3035  0.0053
   83MOL0     H11157   8.036   7.356   0.950 -0.6375  1.1093  2.1846
   83MOL0     H11158   8.130   7.456   1.060  0.0726  0.7233 -0.1753
   83MOL0     H11159   8.260   7.225   0.922  1.1402  0.2165  0.2062
   83MOL0     H11160   8.333   7.358   1.021  0.7179 -0.6523  0.4142
   83MOL0     H11161   8.188   7.418   0.757  3.8911  1.1231 -3.7514
   83MOL0     H11162   8.347   7.371   0.756 -1.5426 -0.6265 -1.2600
   83MOL0     H11163   8.356   7.602   0.765  0.4407  2.1072  1.6050
   83MOL0     H11164   8.405   7.566   0.924  1.7460  3.3206 -2.3313
   83MOL0     H11165   8.022   7.785   0.899  0.0386 -2.5990  0.4482
   83MOL0     H11166   7.861   7.950   1.144 -1.9553  2.5337 -1.0364
   83MOL0     H11167   7.966   8.082   1.085 -5.0582  1.6903 -0.3893
   83MOL0     H11168   7.892   7.970   0.974 -2.1449  1.6637  0.5824
   83MOL0     H11169   8.210   8.284   1.417 -4.0076 -0.2331 -1.5822
   83MOL0     H11170   8.181   8.419   1.647 -0.1446  0.4153  2.8927
   83MOL0     H11171   7.924   8.222   1.868 -0.9391 -0.0933  1.1706
   83MOL0     H11172   7.997   8.271   2.019  0.8214  0.0892 -0.7637
   83MOL0     H11173   7.822   8.435   1.957 -0.5267  0.3599 -2.8071
   83MOL0     H11174   7.978   8.509   1.982 -1.3515  2.8687 -2.3783
   83MOL0     H11175   7.816   8.563   1.785  1.2321  3.3519  4.4526
   83MOL0     H11176   7.905   8.440   1.690  0.7281  0.9649 -1.0800
   83MOL0     H11177   7.980   8.694   1.814  0.8583  0.6057 -0.0759
   83MOL0     H11178   8.126   8.584   1.796 -0.3126 -2.4863 -0.0212
   83MOL0     H11179   8.106   8.614   1.543  0.4335  0.4557  0.4933
   83MOL0     H11180   8.082   8.770   1.610 -0.9368  0.6714  1.3435
   83MOL0     H11181   7.946   8.590   1.440  0.3762  1.3216  0.0755
   83MOL0     H11182   7.817   8.619   1.550 -0.7234 -0.1472 -2.9210
   83MOL0     H11183   7.829   8.774   1.350 -3.1607 -0.7185  2.5691
   83MOL0     H11184   7.966   8.860   1.428 -0.3042  1.1722 -2.7611
   83MOL0     H11185   7.744   8.960   1.489  0.8913 -0.5594 -2.1607
   83MOL0     H11186   7.800   8.866   1.633 -0.9598 -1.1641  0.1761
   83MOL0     H11187   8.083   8.056   1.824 -0.1114  0.9463 -0.2587
   83MOL0     H11188   8.181   7.917   1.628  0.6700  0.2614  2.2603
   83MOL0     H11189   8.294   7.816   1.310 -0.5046 -0.0474  0.6339
   83MOL0     H11190   8.361   7.668   1.120 -2.4437 -4.6033 -3.6232
   83MOL0     H11191   8.537   6.295   1.377 -1.8804  0.0646  1.9890
   83MOL0     H11192   8.707   6.174   1.223 -0.6720  0.0819  0.3253
   83MOL0     H11193   8.837   5.550   1.154  0.5291  1.6730  0.3924
   83MOL0     H11194   8.955   5.437   0.960 -0.6678  1.1943  1.1226
   83MOL0     H11195   9.022   5.353   0.785  1.6828 -0.2960  0.7593
   83MOL0     H11196   9.071   5.384   0.621  3.4895 -0.8234  0.0490
   83MOL0     H11197   9.251   5.325   0.757 -1.3458 -0.2355 -2.4405
   83MOL0     H11198   9.226   5.466   0.862  3.0882  0.3843 -0.8281
   83MOL0     H11199   9.275   5.614   0.682  0.8433  0.7464 -2.3088
   83MOL0     H11200   9.276   5.479   0.562 -1.7985 -0.9898  1.0642
   83MOL0     H11201   9.500   5.403   0.663  0.6612  0.1690 -3.7374
   83MOL0     H11202   9.461   5.531   0.788  0.6778  2.3411 -1.8442
   83MOL0     H11203   9.653   5.764   0.509  2.0494 -2.1118 -2.1179
   83MOL0     H11204   8.880   5.773   0.710 -0.0521 -1.0738 -0.7001
   83MOL0     H11205   8.756   5.882   0.886  0.2167  1.6762  0.3511
   84MOL0     O11206   1.680   5.803   0.530 -0.0956 -0.3864  0.1579
   84MOL0     C11207   1.735   5.707   0.477 -1.3765 -0.7334 -0.6400
   84MOL0     O11208   1.859   5.659   0.518 -0.2434 -0.1725 -0.3248
   84MOL0     C11209   1.930   5.727   0.620  1.0612  0.5140 -0.1255
   84MOL0     C11210   1.955   5.660   0.747 -0.8801 -0.3319  0.2684
   84MOL0     C11211   1.989   5.737   0.860 -0.3364  0.2060  0.2450
   84MOL0     C11212   2.018   5.872   0.844 -0.2775  0.7598  0.2821
   84MOL0     O11213   2.083   5.930   0.950 -0.1767  0.8086  0.8061
   84MOL0     C11214   2.184   6.020   0.917 -0.3924 -0.0887 -1.2236
   84MOL0     C11215   2.157   6.141   1.005  0.1575 -0.3036 -0.3711
   84MOL0     C11216   2.250   6.260   0.965  0.2722  0.8770  0.7208
   84MOL0     C11217   2.235   6.372   1.054 -0.6931  0.1827 -0.9810
   84MOL0     C11218   2.361   6.463   1.043  0.7510 -0.0764 -1.0581
   84MOL0     C11219   2.353   6.603   1.110 -0.0539  0.1710  0.2417
   84MOL0     C11220   2.325   6.585   1.259 -0.2239  0.5703 -0.4203
   84MOL0     C11221   2.325   6.719   1.337  0.1087 -1.0354 -0.3209
   84MOL0     N11222   2.320   6.686   1.484  0.6841  0.3082 -0.1377
   84MOL0     C11223   2.425   6.706   1.579 -0.3858  0.1286  0.6416
   84MOL0     C11224   2.382   6.664   1.696 -0.2092  0.1334  0.3623
   84MOL0     C11225   2.458   6.659   1.816  0.2100 -0.1783  0.8018
   84MOL0     C11226   2.505   6.525   1.867 -0.3963  1.0967 -0.3097
   84MOL0     C11227   2.622   6.472   1.794 -1.0138 -0.0976 -0.7086
   84MOL0     C11228   2.652   6.327   1.858  1.0581 -0.3149 -0.5841
   84MOL0     O11229   2.680   6.354   1.991  0.2365  0.1968  0.6896
   84MOL0     C11230   2.737   6.258   2.075 -0.3587  0.2697  0.4212
   84MOL0     C11231   2.766   6.123   2.037 -0.6926 -0.8113 -0.3128
   84MOL0     C11232   2.812   6.030   2.136 -0.2014 -0.6416 -0.6504
   84MOL0     C11233   2.862   5.895   2.086  0.0928  0.8088 -0.4026
   84MOL0     C11234   2.851   6.074   2.267 -0.5941 -0.4732 -0.4464
   84MOL0     C11235   2.904   5.984   2.373 -0.3437  0.3991 -0.7068
   84MOL0     O11236   2.990   6.036   2.466 -0.3948 -0.1289 -0.4122
   84MOL0     C11237   3.026   5.956   2.576 -0.2005  0.2232  0.3029
   84MOL0     C11238   3.110   6.027   2.660  0.3847 -0.5561  0.4238
   84MOL0     C11239   3.140   5.973   2.786 -0.6753  0.2760 -0.2580
   84MOL0     C11240   3.085   5.856   2.831  0.0176 -0.0826 -0.5950
   84MOL0     O11241   3.100   5.823   2.962 -0.1738 -0.9615 -0.3040
   84MOL0     C11242   3.024   5.718   3.027 -1.0079  0.4872 -0.5509
   84MOL0     C11243   3.055   5.723   3.177  1.2667  0.3830 -0.8769
   84MOL0     C11244   3.180   5.660   3.211  1.3160  0.1962  1.0303
   84MOL0     C11245   3.211   5.670   3.372  0.1975  0.5874  0.2773
   84MOL0     C11246   3.137   5.561   3.452 -0.8858  0.6194 -0.4678
   84MOL0     C11247   3.194   5.561   3.591 -0.2264  0.2795 -0.1058
   84MOL0     C11248   3.128   5.466   3.688  0.6344  0.0851 -0.4579
   84MOL0     C11249   3.088   5.504   3.833  0.2713 -0.1371  0.4793
   84MOL0    Cl11250   3.218   5.579   3.917 -0.2878  0.3972 -0.6041
   84MOL0     C11251   3.018   5.779   2.744 -0.9822 -0.0796  1.0048
   84MOL0     C11252   3.001   5.823   2.612  0.5776  0.1116  0.6705
   84MOL0     O11253   2.868   5.866   2.372  0.7108  0.0718 -0.1535
   84MOL0     C11254   2.832   6.212   2.301  0.8437  0.2168  0.3270
   84MOL0     C11255   2.779   6.297   2.205  0.8189 -1.1821  0.4908
   84MOL0     N11256   2.246   6.616   1.675 -0.3931  0.8507 -0.0223
   84MOL0     N11257   2.209   6.644   1.554  0.5395 -0.6211  0.7650
   84MOL0     C11258   1.994   5.936   0.720  0.3667 -0.6325 -0.6575
   84MOL0     C11259   1.949   5.866   0.612 -0.1291  0.0409  0.1233
   84MOL0     C11260   1.667   5.651   0.350 -0.0817 -1.1541 -0.1293
   84MOL0     C11261   1.727   5.612   0.232 -0.3830  0.3885  0.3345
   84MOL0     C11262   1.666   5.544   0.131 -0.0062  0.4068  0.4708
   84MOL0     C11263   1.526   5.525   0.130  0.3256 -0.2147 -0.0074
   84MOL0     O11264   1.434   5.492   0.023 -0.9280  0.5500  0.0396
   84MOL0     C11265   1.499   5.434  -0.099 -0.0645 -0.5434  0.3653
   84MOL0     C11266   1.440   5.485  -0.240 -1.3283 -0.3571  0.2931
   84MOL0     C11267   1.379   5.625  -0.246 -0.5176 -0.5557 -0.1175
   84MOL0     C11268   1.472   5.737  -0.200  0.5511  1.0580 -0.6592
   84MOL0     C11269   1.419   5.867  -0.240 -0.2121  0.0833 -1.1950
   84MOL0     C11270   1.386   5.974  -0.283  0.9145  0.4249  0.5736
   84MOL0     C11271   1.454   5.565   0.253  0.5394  0.1304 -0.0157
   84MOL0     C11272   1.526   5.632   0.354  0.5834 -0.5377 -0.1035
   84MOL0     H11273   1.932   5.558   0.776 -3.5153  0.4906  1.4318
   84MOL0     H11274   2.002   5.699   0.961  1.3625  1.4927  0.5485
   84MOL0     H11275   2.281   5.978   0.947 -1.5632 -0.7495  2.0372
   84MOL0     H11276   2.185   6.042   0.809 -2.8840 -3.0050 -1.9804
   84MOL0     H11277   2.050   6.164   1.000  0.5325  1.2842 -2.7170
   84MOL0     H11278   2.196   6.133   1.107  1.4097  4.6217 -0.1604
   84MOL0     H11279   2.347   6.212   0.955 -0.0782  0.4981 -1.2446
   84MOL0     H11280   2.222   6.287   0.863 -0.0891 -0.8546  0.3404
   84MOL0     H11281   2.141   6.428   1.044 -0.1640  1.0023 -1.5437
   84MOL0     H11282   2.233   6.328   1.154  0.7645 -0.1277 -1.0721
   84MOL0     H11283   2.447   6.408   1.083  0.5339  1.1353  1.2362
   84MOL0     H11284   2.374   6.500   0.941 -1.6778  3.4979 -0.2624
   84MOL0     H11285   2.449   6.651   1.090  0.0689 -0.0392  0.3211
   84MOL0     H11286   2.266   6.649   1.064  0.3920  0.5319 -0.2537
   84MOL0     H11287   2.230   6.534   1.275  0.9718 -1.1749  1.4543
   84MOL0     H11288   2.403   6.523   1.302 -0.7902  0.2232  0.1185
   84MOL0     H11289   2.244   6.789   1.314  0.2216  1.2420  4.9222
   84MOL0     H11290   2.413   6.782   1.319  0.4982 -1.6224 -0.4867
   84MOL0     H11291   2.520   6.754   1.555  0.2853 -0.5948  1.7959
   84MOL0     H11292   2.544   6.727   1.811  1.4930 -1.7947 -0.5097
   84MOL0     H11293   2.379   6.702   1.878 -0.6886  0.4590 -0.7336
   84MOL0     H11294   2.432   6.444   1.867  0.0448  0.6401  1.8587
   84MOL0     H11295   2.530   6.541   1.972  1.4689 -3.9857  0.2919
   84MOL0     H11296   2.701   6.545   1.813 -1.2775 -0.2614  1.1594
   84MOL0     H11297   2.597   6.463   1.687 -1.5575  0.8030 -0.6627
   84MOL0     H11298   2.732   6.273   1.807  0.4474 -1.5796 -0.2253
   84MOL0     H11299   2.565   6.261   1.855 -0.7530  1.8941  0.5928
   84MOL0     H11300   2.749   6.090   1.935  1.2618  1.5112 -1.5208
   84MOL0     H11301   2.864   5.878   1.978 -2.1852 -1.9761 -0.1188
   84MOL0     H11302   2.963   5.878   2.127  0.1909  0.8399 -0.6317
   84MOL0     H11303   2.804   5.821   2.141  0.9226  2.6341  3.2720
   84MOL0     H11304   3.141   6.130   2.647  0.3850 -0.1226  3.2336
   84MOL0     H11305   3.209   6.025   2.852 -1.6195 -1.1759  1.9949
   84MOL0     H11306   2.916   5.724   3.013 -1.5353 -0.5730  2.2997
   84MOL0     H11307   3.054   5.621   2.987 -2.8514 -1.1544  1.7913
   84MOL0     H11308   3.048   5.826   3.212 -1.9807  0.7159 -2.1465
   84MOL0     H11309   2.981   5.665   3.233  4.1307 -4.1761 -1.3259
   84MOL0     H11310   3.249   5.720   3.151  0.7719 -0.0986  0.0900
   84MOL0     H11311   3.180   5.556   3.177 -1.2111 -0.8698  3.8080
   84MOL0     H11312   3.319   5.653   3.367  0.2622  0.8492  0.7471
   84MOL0     H11313   3.191   5.769   3.414 -1.6436 -1.3909  4.7194
   84MOL0     H11314   3.161   5.465   3.405  1.3640  1.3268 -0.8750
   84MOL0     H11315   3.028   5.571   3.454 -0.8674  1.4259  2.6780
   84MOL0     H11316   3.300   5.535   3.587  0.1427  1.4864  0.8945
   84MOL0     H11317   3.177   5.663   3.627  1.3954  1.8087 -3.3087
   84MOL0     H11318   3.186   5.374   3.698 -0.7795 -0.9898 -1.6747
   84MOL0     H11319   3.034   5.430   3.645  0.9831 -1.0742 -0.2809
   84MOL0     H11320   3.059   5.410   3.880 -1.6737 -1.0920 -2.3531
   84MOL0     H11321   2.999   5.567   3.822 -0.0092 -0.8498 -1.9887
   84MOL0     H11322   2.957   5.698   2.780 -0.0419 -0.6372  1.3646
   84MOL0     H11323   2.927   5.751   2.579 -0.1852 -0.5228  3.4861
   84MOL0     H11324   2.853   6.258   2.397  1.6706  0.6226 -0.0369
   84MOL0     H11325   2.757   6.401   2.230  1.5103  0.0571 -3.3308
   84MOL0     H11326   2.015   6.043   0.721 -1.9808 -0.1058 -0.5389
   84MOL0     H11327   1.925   5.915   0.518 -0.0589  1.4391  0.7992
   84MOL0     H11328   1.835   5.604   0.233 -0.1693  2.6230  2.4007
   84MOL0     H11329   1.735   5.515   0.052  0.5806 -1.6733  1.6872
   84MOL0     H11330   1.604   5.466  -0.102 -0.3174  0.2659 -2.2806
   84MOL0     H11331   1.482   5.327  -0.083 -1.7970 -0.6143 -1.6011
   84MOL0     H11332   1.375   5.406  -0.278 -2.9507 -0.2800  2.6832
   84MOL0     H11333   1.527   5.483  -0.306 -0.8953 -0.4212  0.8604
   84MOL0     H11334   1.288   5.627  -0.185 -0.1333  0.3833  0.4498
   84MOL0     H11335   1.348   5.645  -0.349  0.2669 -1.4719 -0.5468
   84MOL0     H11336   1.567   5.725  -0.253  0.5378 -0.0160 -0.4688
   84MOL0     H11337   1.485   5.731  -0.091 -2.9248  2.9233 -0.0241
   84MOL0     H11338   1.333   6.066  -0.298  1.6125  0.7251 -0.1661
   84MOL0     H11339   1.352   5.531   0.238  0.5519 -0.0893  0.4009
   84MOL0     H11340   1.473   5.655   0.446 -0.3869 -0.2438 -0.7333
   85MOL0     O11341   8.043   1.333   1.941 -0.2288 -0.0744 -0.2379
   85MOL0     C11342   7.918   1.346   1.967 -0.3713  0.8556  0.7000
   85MOL0     O11343   7.815   1.246   1.943 -0.6945 -0.4958 -0.4814
   85MOL0     C11344   7.861   1.112   1.922  1.0379  0.1350  0.3515
   85MOL0     C11345   7.859   1.016   2.024 -0.3576  0.6167 -0.5041
   85MOL0     C11346   7.923   0.892   1.995 -0.3512 -0.2871 -0.8124
   85MOL0     C11347   7.965   0.851   1.869  0.5789  0.0258  0.2024
   85MOL0     O11348   8.033   0.730   1.850 -0.3619  0.4642  0.5831
   85MOL0     C11349   8.080   0.699   1.714  0.2583  0.4106  0.5751
   85MOL0     C11350   8.173   0.585   1.703  0.6339  0.6399 -0.1683
   85MOL0     C11351   8.124   0.442   1.758 -0.5762  1.3197 -0.1068
   85MOL0     C11352   7.986   0.403   1.695  0.1880  0.2249 -0.6565
   85MOL0     C11353   7.934   0.269   1.748  0.3272 -0.2081 -0.2279
   85MOL0     C11354   7.781   0.281   1.778  0.9169  0.3952  0.7120
   85MOL0     C11355   7.709   0.152   1.745  0.1323  0.0348  0.1689
   85MOL0     C11356   7.556   0.178   1.739 -0.0362 -0.8618 -0.8664
   85MOL0     N11357   7.478   0.060   1.744 -0.7210  0.3010  0.3432
   85MOL0     C11358   7.357   0.042   1.808 -0.0611  0.1867 -0.0792
   85MOL0     C11359   7.313  -0.080   1.776 -0.6721 -0.4690  0.0123
   85MOL0     C11360   7.181  -0.139   1.830  0.0912 -0.7853  0.8794
   85MOL0     C11361   7.043  -0.062   1.813 -0.2666 -0.0123  0.3899
   85MOL0     C11362   6.914  -0.124   1.859 -0.1659  0.3160  0.9405
   85MOL0     C11363   6.897  -0.275   1.845  0.5442  1.5962  1.1784
   85MOL0     O11364   6.908  -0.298   1.703 -0.2709 -0.0771 -0.4376
   85MOL0     C11365   6.918  -0.427   1.666  0.5585 -0.0929 -0.4037
   85MOL0     C11366   6.824  -0.477   1.577 -0.2825  0.6100 -0.6128
   85MOL0     C11367   6.839  -0.614   1.533  0.0799  0.3100 -0.2057
   85MOL0     C11368   6.729  -0.666   1.455  0.6294  0.4187 -0.1210
   85MOL0     C11369   6.948  -0.702   1.573  0.5362 -0.1440 -0.2201
   85MOL0     C11370   6.964  -0.847   1.535 -0.0623  0.8957 -0.5826
   85MOL0     O11371   7.056  -0.919   1.607 -0.7494 -0.2153 -0.6211
   85MOL0     C11372   7.046  -1.041   1.661 -0.7002 -0.2522  0.8351
   85MOL0     C11373   6.941  -1.139   1.639 -0.2961 -0.1713  0.3615
   85MOL0     C11374   6.954  -1.263   1.697  0.4014  1.4943 -0.9531
   85MOL0     C11375   7.058  -1.295   1.789 -0.8660 -0.2412 -1.0098
   85MOL0     O11376   7.066  -1.426   1.833  0.1601 -0.3702  0.0549
   85MOL0     C11377   7.097  -1.453   1.972  0.0070 -0.0068  0.8957
   85MOL0     C11378   6.998  -1.569   2.017 -0.2279  0.2979 -0.3381
   85MOL0     C11379   7.022  -1.605   2.167 -0.0874  0.1476  0.0744
   85MOL0     C11380   6.903  -1.685   2.227 -0.0459 -0.4485  0.2867
   85MOL0     C11381   6.894  -1.647   2.375 -0.0004 -0.6598  1.0095
   85MOL0     C11382   6.816  -1.511   2.394 -0.5731  0.2265  0.1486
   85MOL0     C11383   6.771  -1.489   2.536  0.5584 -0.1427  0.0671
   85MOL0     C11384   6.664  -1.376   2.541 -0.2011 -0.1923  0.3352
   85MOL0    Cl11385   6.637  -1.348   2.721 -0.4111  0.0034 -0.2826
   85MOL0     C11386   7.143  -1.200   1.833  1.3507 -0.1093  0.0189
   85MOL0     C11387   7.137  -1.075   1.768 -0.1156  0.2100  1.4473
   85MOL0     O11388   6.891  -0.897   1.458  0.6537 -0.6452 -0.3347
   85MOL0     C11389   7.041  -0.644   1.668  0.7550 -0.0401 -0.4373
   85MOL0     C11390   7.023  -0.509   1.707 -1.1832  0.6244 -0.4816
   85MOL0     N11391   7.413  -0.142   1.696  0.0314 -0.3165 -0.9469
   85MOL0     N11392   7.508  -0.053   1.680 -1.4572  0.1531 -0.7845
   85MOL0     C11393   7.949   0.951   1.770  0.0439  0.5869  0.5936
   85MOL0     C11394   7.905   1.079   1.789 -0.1479  1.8911  0.3413
   85MOL0     C11395   7.894   1.472   2.056  0.3056 -0.1583  0.4222
   85MOL0     C11396   7.997   1.568   2.065  0.1506 -0.2932  0.4772
   85MOL0     C11397   7.967   1.684   2.139 -0.6229  0.0521  0.2854
   85MOL0     C11398   7.843   1.709   2.209  0.0944 -0.2408 -0.4796
   85MOL0     O11399   7.823   1.829   2.273 -0.3206  0.1438  0.6603
   85MOL0     C11400   7.800   1.934   2.183  0.0180  0.4782 -0.4856
   85MOL0     C11401   7.829   2.058   2.274 -0.0282 -0.1038  0.4577
   85MOL0     C11402   7.967   2.059   2.342  0.1262 -0.0352  0.3135
   85MOL0     C11403   8.005   2.176   2.423  0.1190  0.2774  0.5549
   85MOL0     C11404   8.139   2.179   2.477  0.2696 -1.0133  0.6194
   85MOL0     C11405   8.241   2.193   2.543  0.3052 -0.2164  0.5765
   85MOL0     C11406   7.745   1.613   2.198  0.6880 -1.3320  0.6528
   85MOL0     C11407   7.770   1.496   2.124  0.3574 -0.4560  0.8620
   85MOL0     H11408   7.817   1.045   2.119 -1.4938  0.1592 -0.8527
   85MOL0     H11409   7.917   0.819   2.074 -2.6829 -0.4835 -1.0979
   85MOL0     H11410   7.985   0.685   1.662  1.1745  0.6439 -1.2180
   85MOL0     H11411   8.148   0.777   1.678  4.9295 -2.7910  1.5827
   85MOL0     H11412   8.185   0.575   1.594 -0.7900  3.7677 -0.6998
   85MOL0     H11413   8.270   0.607   1.748  0.3043  1.3583  0.2019
   85MOL0     H11414   8.200   0.367   1.734  3.2639  3.9634  2.6617
   85MOL0     H11415   8.116   0.441   1.867 -1.1655  1.6812 -0.1388
   85MOL0     H11416   7.919   0.475   1.743 -0.7564  0.1912 -1.8841
   85MOL0     H11417   7.972   0.408   1.587 -2.3375  1.7119 -0.3416
   85MOL0     H11418   7.953   0.195   1.670  0.6088  1.0511 -1.3900
   85MOL0     H11419   7.979   0.237   1.842  0.0008 -2.2546 -0.7204
   85MOL0     H11420   7.765   0.304   1.884 -3.6916  0.6172  0.1619
   85MOL0     H11421   7.748   0.361   1.712  1.2195  0.6116  0.8213
   85MOL0     H11422   7.753   0.113   1.653  6.1313 -1.0068  2.9547
   85MOL0     H11423   7.742   0.080   1.820  4.6873  1.7711  0.1776
   85MOL0     H11424   7.529   0.227   1.645  1.6805  1.7221 -0.1201
   85MOL0     H11425   7.525   0.234   1.828 -1.7303 -4.5637  1.1170
   85MOL0     H11426   7.290   0.112   1.857 -2.1808 -1.0385 -1.0670
   85MOL0     H11427   7.182  -0.244   1.798 -0.2119 -0.3041 -0.7742
   85MOL0     H11428   7.195  -0.148   1.938  3.9674 -4.1491  0.3431
   85MOL0     H11429   7.038  -0.059   1.704 -2.7800  2.1752  0.4644
   85MOL0     H11430   7.049   0.042   1.845  0.2172 -0.2658  1.1516
   85MOL0     H11431   6.831  -0.077   1.805  2.1661  3.1908 -0.4973
   85MOL0     H11432   6.891  -0.104   1.964 -2.1116  2.0985  0.2519
   85MOL0     H11433   6.800  -0.306   1.885 -0.4470 -0.1847 -2.2017
   85MOL0     H11434   6.971  -0.324   1.908 -2.9109 -1.9693  2.8561
   85MOL0     H11435   6.734  -0.424   1.547 -0.2490  2.2652  1.9081
   85MOL0     H11436   6.767  -0.702   1.359 -1.6640  1.3379 -1.4536
   85MOL0     H11437   6.678  -0.751   1.502 -1.3048  1.8835  0.5588
   85MOL0     H11438   6.650  -0.596   1.428  0.3813  0.3207  0.3447
   85MOL0     H11439   6.866  -1.117   1.563  1.9185 -1.8342 -2.5341
   85MOL0     H11440   6.880  -1.335   1.666  3.1235 -1.8517 -0.3716
   85MOL0     H11441   7.205  -1.471   1.973  0.4111  2.0413 -0.1946
   85MOL0     H11442   7.079  -1.362   2.029 -1.5038  0.6242 -0.5106
   85MOL0     H11443   6.894  -1.536   2.012  0.4455  2.4930 -1.0203
   85MOL0     H11444   7.017  -1.662   1.962 -1.3259 -0.4848  0.5697
   85MOL0     H11445   7.028  -1.513   2.227 -0.4360 -1.2917  2.4100
   85MOL0     H11446   7.112  -1.664   2.188  0.3253  1.1960  1.4764
   85MOL0     H11447   6.808  -1.654   2.180  0.4639  1.9922  0.7419
   85MOL0     H11448   6.916  -1.792   2.215 -0.4930 -0.7767  2.3596
   85MOL0     H11449   6.991  -1.647   2.426 -0.2470  3.0298  1.7060
   85MOL0     H11450   6.836  -1.728   2.422 -0.6667  0.2877  1.8535
   85MOL0     H11451   6.878  -1.426   2.363  0.5166 -0.5875  0.0269
   85MOL0     H11452   6.728  -1.515   2.329  1.3798 -0.8692 -2.6266
   85MOL0     H11453   6.860  -1.472   2.597  0.9451  2.4103 -1.0598
   85MOL0     H11454   6.705  -1.572   2.563 -1.1496  1.3403  0.6281
   85MOL0     H11455   6.567  -1.405   2.500 -0.6480  2.2132 -0.4608
   85MOL0     H11456   6.695  -1.286   2.488  0.1481 -0.1205  0.6538
   85MOL0     H11457   7.210  -1.197   1.918  0.2226  2.4483  0.9069
   85MOL0     H11458   7.205  -0.996   1.796 -0.9900  1.7150 -0.4486
   85MOL0     H11459   7.122  -0.698   1.716  1.6740 -0.1923 -2.0800
   85MOL0     H11460   7.088  -0.465   1.781 -0.3530  2.5727 -2.2797
   85MOL0     H11461   7.992   0.928   1.672  0.5682  3.3968  0.0927
   85MOL0     H11462   7.920   1.151   1.709  0.6740  1.1401 -0.2098
   85MOL0     H11463   8.090   1.573   2.008 -1.2375 -0.1291 -1.9053
   85MOL0     H11464   8.041   1.763   2.136  2.8816 -2.9547  0.5329
   85MOL0     H11465   7.856   1.926   2.089  0.4742  1.2504 -0.2889
   85MOL0     H11466   7.695   1.930   2.153  0.5392  2.6393 -3.0267
   85MOL0     H11467   7.754   2.062   2.354  0.0507 -0.7104  0.5654
   85MOL0     H11468   7.808   2.148   2.215 -1.7296 -0.4406  0.5099
   85MOL0     H11469   8.047   2.046   2.268 -2.0334  1.3033 -2.4042
   85MOL0     H11470   7.966   1.973   2.409 -1.1873  1.2537  2.0181
   85MOL0     H11471   7.950   2.183   2.518  1.3661  4.0984  1.1600
   85MOL0     H11472   8.001   2.271   2.370 -1.2592 -0.0426  0.0524
   85MOL0     H11473   8.338   2.192   2.590 -0.9265  0.3627  3.3266
   85MOL0     H11474   7.651   1.635   2.247  1.8507  5.5163  0.7722
   85MOL0     H11475   7.691   1.422   2.117 -1.9370  1.5509  3.4050
   86MOL0     O11476   5.535   1.562   5.815  0.0074 -0.6051  0.4387
   86MOL0     C11477   5.568   1.460   5.861 -0.0840  0.7430  0.6643
   86MOL0     O11478   5.630   1.443   5.986  0.1335  0.2566  0.0364
   86MOL0     C11479   5.668   1.558   6.057  0.5169 -0.0721 -0.1564
   86MOL0     C11480   5.785   1.633   6.035 -0.8630 -0.0113  0.2441
   86MOL0     C11481   5.809   1.762   6.080  0.0436  0.1232 -0.1220
   86MOL0     C11482   5.715   1.811   6.158 -0.4906 -0.5123 -0.5402
   86MOL0     O11483   5.764   1.924   6.218  0.1746  0.2044  0.3823
   86MOL0     C11484   5.689   1.985   6.326 -0.7910  0.1894  0.4430
   86MOL0     C11485   5.775   2.092   6.383 -0.1339 -0.0634 -0.9525
   86MOL0     C11486   5.726   2.131   6.523  0.2747 -0.2455 -0.2817
   86MOL0     C11487   5.583   2.189   6.521  0.0668 -0.1057  0.2029
   86MOL0     C11488   5.534   2.199   6.670 -0.1073 -0.4375 -0.4346
   86MOL0     C11489   5.394   2.251   6.689 -0.0501  0.0666 -0.4327
   86MOL0     C11490   5.370   2.399   6.666  0.0659 -1.0099  0.0343
   86MOL0     C11491   5.431   2.500   6.751  1.0835  0.9512 -0.8541
   86MOL0     N11492   5.358   2.469   6.883  0.2124 -0.0521  0.7604
   86MOL0     C11493   5.228   2.470   6.904  0.3034 -0.2450  0.3386
   86MOL0     C11494   5.211   2.461   7.044 -0.5236 -0.5190 -0.0815
   86MOL0     C11495   5.078   2.441   7.116 -0.3092  0.5846 -0.2958
   86MOL0     C11496   4.988   2.553   7.077 -0.6002 -0.3073 -0.2423
   86MOL0     C11497   5.038   2.700   7.105 -0.2329 -0.9820 -0.8147
   86MOL0     C11498   4.930   2.808   7.107  0.5280  0.3844  0.1739
   86MOL0     O11499   4.847   2.790   7.215  0.7409 -0.0169  0.1211
   86MOL0     C11500   4.744   2.873   7.245 -0.0120  0.4947 -0.2401
   86MOL0     C11501   4.684   2.849   7.368  0.1672  1.0100 -0.6977
   86MOL0     C11502   4.576   2.921   7.404 -0.4681 -0.5232  0.8273
   86MOL0     C11503   4.512   2.880   7.534 -0.3108 -0.1870  1.3802
   86MOL0     C11504   4.523   3.021   7.315  0.5042 -0.1749 -0.5163
   86MOL0     C11505   4.389   3.082   7.330  0.0921 -0.9897  0.7710
   86MOL0     O11506   4.357   3.179   7.245  0.5523 -0.2781 -0.9585
   86MOL0     C11507   4.248   3.257   7.268  0.2355 -0.2411 -0.0616
   86MOL0     C11508   4.143   3.251   7.173  0.8247  0.5871 -0.0196
   86MOL0     C11509   4.028   3.336   7.179 -0.3594 -0.2283 -0.3962
   86MOL0     C11510   4.034   3.441   7.265  0.1947 -0.7117  0.2853
   86MOL0     O11511   3.939   3.534   7.252 -0.3389 -0.5520 -0.6272
   86MOL0     C11512   3.805   3.488   7.291 -0.8871 -0.4084  0.1925
   86MOL0     C11513   3.717   3.609   7.333 -0.1048 -0.8375 -0.0867
   86MOL0     C11514   3.567   3.584   7.357 -0.6693  0.2286 -0.9093
   86MOL0     C11515   3.504   3.712   7.418  0.3688 -0.4758  0.0169
   86MOL0     C11516   3.470   3.828   7.322  0.3809 -0.0726  0.4166
   86MOL0     C11517   3.561   3.960   7.338 -1.1581 -0.1242 -0.4512
   86MOL0     C11518   3.533   4.033   7.470  0.1056  1.1658 -0.1898
   86MOL0     C11519   3.650   4.140   7.490 -0.1681 -0.8944  0.4267
   86MOL0    Cl11520   3.648   4.258   7.363 -0.4043 -0.2010 -0.0536
   86MOL0     C11521   4.146   3.456   7.350  0.2924 -0.7350 -1.1817
   86MOL0     C11522   4.245   3.359   7.364 -0.2679 -0.1376  0.1624
   86MOL0     O11523   4.321   3.051   7.424  0.4672 -0.2270 -0.0708
   86MOL0     C11524   4.582   3.037   7.198 -0.6046  0.8331 -0.2675
   86MOL0     C11525   4.702   2.977   7.165 -0.2146 -0.7999 -0.4727
   86MOL0     N11526   5.339   2.439   7.090 -0.6122  0.0310 -0.7028
   86MOL0     N11527   5.424   2.439   6.996  0.1498  0.4250  0.1661
   86MOL0     C11528   5.599   1.741   6.188  0.0563  0.7330 -0.0937
   86MOL0     C11529   5.570   1.616   6.138  0.5716  1.4079  1.5653
   86MOL0     C11530   5.545   1.341   5.774 -0.6283  0.0765 -0.5896
   86MOL0     C11531   5.442   1.321   5.682  0.3472 -0.1350  0.5357
   86MOL0     C11532   5.425   1.197   5.611  0.1298  0.3262 -0.8628
   86MOL0     C11533   5.508   1.091   5.641  0.5364 -1.1031  0.1262
   86MOL0     O11534   5.501   0.964   5.591  0.2140  0.1880 -0.5814
   86MOL0     C11535   5.399   0.923   5.495 -0.0168 -0.7961 -0.0064
   86MOL0     C11536   5.389   0.772   5.485  0.8012  0.6631  0.3568
   86MOL0     C11537   5.271   0.726   5.403 -0.5079  0.4103 -0.0163
   86MOL0     C11538   5.242   0.572   5.411  0.4426 -0.5103 -0.3712
   86MOL0     C11539   5.361   0.501   5.378 -0.9038  0.5035  0.1340
   86MOL0     C11540   5.464   0.454   5.342 -0.2785  0.1549  0.0182
   86MOL0     C11541   5.608   1.110   5.737 -0.2100 -0.5714  0.8209
   86MOL0     C11542   5.625   1.227   5.807 -1.6793 -0.5839  0.6928
   86MOL0     H11543   5.858   1.579   5.976 -1.4683 -2.7628  1.8351
   86MOL0     H11544   5.905   1.813   6.077  1.1385 -1.8378 -0.7966
   86MOL0     H11545   5.602   2.039   6.287  0.4911  2.7776  0.8970
   86MOL0     H11546   5.663   1.909   6.400  1.8706 -2.2026 -0.9275
   86MOL0     H11547   5.873   2.047   6.401 -0.1871  0.6844  1.6695
   86MOL0     H11548   5.772   2.181   6.319 -3.4633 -0.0126 -0.8821
   86MOL0     H11549   5.736   2.044   6.589 -0.3822 -1.6289 -1.9410
   86MOL0     H11550   5.794   2.201   6.573  0.9293 -1.4452  0.5764
   86MOL0     H11551   5.573   2.278   6.457 -1.0127 -2.3357 -2.9827
   86MOL0     H11552   5.516   2.117   6.472 -0.2118  1.4081 -1.8069
   86MOL0     H11553   5.534   2.110   6.734  0.8091 -0.2953 -0.2326
   86MOL0     H11554   5.603   2.260   6.728 -1.9260  0.6092  0.7096
   86MOL0     H11555   5.320   2.199   6.626 -0.2275  0.8637 -0.8910
   86MOL0     H11556   5.352   2.236   6.789 -1.7502  0.5370 -1.0432
   86MOL0     H11557   5.418   2.408   6.568  1.2017 -0.7999  0.5940
   86MOL0     H11558   5.267   2.426   6.642  0.4471  1.6816  1.1553
   86MOL0     H11559   5.412   2.599   6.709 -1.6074  1.4685  1.2533
   86MOL0     H11560   5.538   2.481   6.767  0.7050 -1.7289 -1.0019
   86MOL0     H11561   5.153   2.470   6.826 -1.0295  1.2537  1.5337
   86MOL0     H11562   5.041   2.347   7.074  2.8293  0.0456 -2.1861
   86MOL0     H11563   5.103   2.436   7.222 -2.9445 -0.4301  0.3497
   86MOL0     H11564   4.895   2.531   7.131  0.6190 -0.1225  2.0979
   86MOL0     H11565   4.963   2.557   6.971  0.1903  1.7391 -0.3805
   86MOL0     H11566   5.104   2.734   7.024  0.2919 -2.1455 -0.8974
   86MOL0     H11567   5.088   2.711   7.202 -0.2669 -0.8107 -0.8181
   86MOL0     H11568   4.890   2.801   7.005  2.5723  3.8383 -1.0646
   86MOL0     H11569   4.976   2.907   7.103 -0.7745  0.9773 -0.8265
   86MOL0     H11570   4.726   2.784   7.443  1.9941  2.8656 -0.0130
   86MOL0     H11571   4.418   2.827   7.514 -0.5147 -1.3705  4.8804
   86MOL0     H11572   4.579   2.810   7.586  0.9339 -0.6287 -0.6648
   86MOL0     H11573   4.479   2.957   7.604 -2.1919 -1.8341  2.4117
   86MOL0     H11574   4.140   3.168   7.102 -1.1751  0.4218  0.1927
   86MOL0     H11575   3.947   3.314   7.110  0.4829 -3.3146 -0.5550
   86MOL0     H11576   3.759   3.434   7.208  0.4191  0.1564 -0.9282
   86MOL0     H11577   3.800   3.419   7.376  1.9392 -0.6611  0.2419
   86MOL0     H11578   3.760   3.636   7.431  0.5026 -3.2958  0.3850
   86MOL0     H11579   3.724   3.692   7.262 -3.1347  0.0007  0.4610
   86MOL0     H11580   3.555   3.502   7.429  1.3402 -0.5862 -1.4080
   86MOL0     H11581   3.527   3.541   7.265 -1.7502 -0.8881  0.0442
   86MOL0     H11582   3.406   3.691   7.462  1.0810 -0.2452  1.8118
   86MOL0     H11583   3.567   3.738   7.503  0.1353 -2.5628  0.8793
   86MOL0     H11584   3.364   3.855   7.324  0.6004  1.3728 -2.2607
   86MOL0     H11585   3.489   3.785   7.223 -0.0954 -1.7688  1.0203
   86MOL0     H11586   3.663   3.922   7.348 -1.0971  0.1533  0.0065
   86MOL0     H11587   3.551   4.017   7.245  1.3278 -1.9556 -1.9615
   86MOL0     H11588   3.537   3.955   7.546 -0.4704  2.5379  1.3032
   86MOL0     H11589   3.436   4.084   7.472 -0.0785  0.8185 -0.1927
   86MOL0     H11590   3.749   4.093   7.495  0.2817  0.0907  1.3191
   86MOL0     H11591   3.634   4.191   7.585 -0.6585  0.0894 -0.1773
   86MOL0     H11592   4.143   3.538   7.421  2.6698 -1.6490  0.0757
   86MOL0     H11593   4.321   3.364   7.440 -0.8006  3.2967  0.6087
   86MOL0     H11594   4.546   3.098   7.116  2.6744  0.9926 -1.7514
   86MOL0     H11595   4.750   2.996   7.070  2.6728 -0.6610  0.9154
   86MOL0     H11596   5.524   1.769   6.261 -0.3115 -2.9172  1.1690
   86MOL0     H11597   5.484   1.562   6.175  1.8632 -1.5750  0.5302
   86MOL0     H11598   5.383   1.409   5.661 -0.3871 -0.8259 -0.3360
   86MOL0     H11599   5.345   1.181   5.539  1.9187 -1.7781 -2.4906
   86MOL0     H11600   5.302   0.952   5.536 -0.7258 -1.1487 -1.3649
   86MOL0     H11601   5.416   0.969   5.397  2.0357 -0.8022  0.2980
   86MOL0     H11602   5.383   0.736   5.588 -2.3764 -2.9702 -0.8385
   86MOL0     H11603   5.483   0.736   5.441  0.2759 -0.2781 -0.0380
   86MOL0     H11604   5.277   0.749   5.296 -1.6326 -0.5246 -0.3025
   86MOL0     H11605   5.186   0.786   5.438  1.2149  2.4370  0.8910
   86MOL0     H11606   5.150   0.541   5.361 -1.8078  1.2307  2.3441
   86MOL0     H11607   5.217   0.546   5.515 -1.2590 -1.0614 -0.8918
   86MOL0     H11608   5.562   0.418   5.317 -0.8776 -0.3160 -1.7892
   86MOL0     H11609   5.677   1.030   5.764 -0.3585 -0.3483  1.9315
   86MOL0     H11610   5.698   1.223   5.887 -1.6432 -2.6127  0.6121
   87MOL0     O11611   1.504  10.314   8.258  0.4485 -0.4417 -0.2016
   87MOL0     C11612   1.507  10.325   8.134 -0.7240  0.3150 -0.5057
   87MOL0     O11613   1.408  10.366   8.045  0.1816  0.1190 -0.1136
   87MOL0     C11614   1.281  10.367   8.073 -0.0164 -0.9524 -1.2953
   87MOL0     C11615   1.190  10.434   7.991 -0.3191  0.1330  0.8523
   87MOL0     C11616   1.051  10.451   8.025  0.2520 -0.2972  0.3975
   87MOL0     C11617   0.997  10.390   8.141 -0.3414  0.8608 -0.0200
   87MOL0     O11618   0.863  10.383   8.186  0.2640 -0.2190  0.2910
   87MOL0     C11619   0.765  10.468   8.125 -0.2050 -0.5396  0.2389
   87MOL0     C11620   0.669  10.405   8.031  0.0506 -0.5013  0.6531
   87MOL0     C11621   0.555  10.324   8.099  0.5238 -0.3201 -1.5337
   87MOL0     C11622   0.504  10.210   8.008 -0.4305 -0.5306  0.1454
   87MOL0     C11623   0.403  10.136   8.097 -0.3560  0.4896  0.1673
   87MOL0     C11624   0.355  10.005   8.034  0.0356  0.4339 -1.2757
   87MOL0     C11625   0.265   9.938   8.135  0.6467  0.5125  0.4045
   87MOL0     C11626   0.128  10.009   8.147 -0.9489 -0.7575  0.4149
   87MOL0     N11627   0.009   9.937   8.181 -0.1524  0.2011  0.8537
   87MOL0     C11628   0.004   9.819   8.239  0.9059  0.9555  1.2128
   87MOL0     C11629  -0.137   9.790   8.241  0.0197  0.2284 -0.0318
   87MOL0     C11630  -0.198   9.647   8.272 -0.1128 -0.3657  0.4341
   87MOL0     C11631  -0.338   9.640   8.208  0.1017 -1.3077  0.1510
   87MOL0     C11632  -0.361   9.647   8.056  0.0457  0.6925  0.8605
   87MOL0     C11633  -0.265   9.578   7.957 -0.2484 -1.2843 -0.1873
   87MOL0     O11634  -0.128   9.612   7.981  0.3787  0.2656 -0.0683
   87MOL0     C11635  -0.028   9.524   7.954  1.2752  0.0904 -0.0362
   87MOL0     C11636  -0.028   9.400   7.901 -0.6266  0.7424 -0.4526
   87MOL0     C11637   0.091   9.331   7.865  0.5676 -0.1412  0.2596
   87MOL0     C11638   0.059   9.197   7.807 -0.3920  0.6944  0.3438
   87MOL0     C11639   0.221   9.396   7.890 -0.5323  0.4212  0.4868
   87MOL0     C11640   0.359   9.323   7.870  0.1483  0.1294 -0.1028
   87MOL0     O11641   0.464   9.404   7.868  0.5204 -0.2566 -0.4810
   87MOL0     C11642   0.599   9.378   7.883 -1.0336 -0.5918  1.0568
   87MOL0     C11643   0.686   9.494   7.894  1.4239  0.3217  0.5117
   87MOL0     C11644   0.829   9.467   7.892  1.0708 -0.8233 -0.0585
   87MOL0     C11645   0.889   9.337   7.892  0.2678 -0.4273  0.3261
   87MOL0     O11646   1.019   9.310   7.870  0.1330  0.0329  0.2404
   87MOL0     C11647   1.108   9.410   7.845  0.0227 -1.0825  0.5961
   87MOL0     C11648   1.251   9.349   7.826 -0.4018  0.0195 -0.1240
   87MOL0     C11649   1.266   9.298   7.675 -0.0160 -0.3197 -1.3712
   87MOL0     C11650   1.382   9.208   7.663 -0.3411  0.6170  0.1739
   87MOL0     C11651   1.393   9.149   7.522  0.1876  0.2703  0.3575
   87MOL0     C11652   1.504   9.045   7.524 -0.2535 -0.5188  0.9368
   87MOL0     C11653   1.513   8.980   7.388 -0.5699  0.3994  0.4868
   87MOL0     C11654   1.544   8.829   7.414 -0.6803  0.1544  0.7916
   87MOL0    Cl11655   1.726   8.796   7.408  0.3724 -0.6820  0.0797
   87MOL0     C11656   0.799   9.231   7.896  0.4233  0.5170  0.1430
   87MOL0     C11657   0.659   9.244   7.888 -0.2376 -0.8663  0.4254
   87MOL0     O11658   0.354   9.202   7.855 -0.3517 -0.3870 -0.7818
   87MOL0     C11659   0.215   9.520   7.940  0.2380 -1.2619 -0.0449
   87MOL0     C11660   0.096   9.580   7.978 -0.4503 -0.1540  0.6666
   87MOL0     N11661  -0.201   9.910   8.205 -0.1228 -0.0719  0.1243
   87MOL0     N11662  -0.120   9.994   8.168  0.2849 -0.1491  0.4879
   87MOL0     C11663   1.092  10.322   8.219 -0.2850 -0.7019  0.1205
   87MOL0     C11664   1.226  10.300   8.179  0.7748 -0.4631  0.3689
   87MOL0     C11665   1.634  10.300   8.074 -1.1440 -0.6448 -0.5470
   87MOL0     C11666   1.663  10.355   7.953  0.4100 -0.7961 -0.8168
   87MOL0     C11667   1.778  10.326   7.892  0.2363  0.9499  0.5088
   87MOL0     C11668   1.866  10.220   7.931  0.1335 -0.5835  0.1778
   87MOL0     O11669   1.975  10.196   7.857 -0.6342 -0.8700  0.2536
   87MOL0     C11670   2.068  10.094   7.892 -0.9478  1.0951  0.2360
   87MOL0     C11671   2.148  10.037   7.770  0.0530  0.0686  0.3318
   87MOL0     C11672   2.223  10.145   7.685  0.5637  0.2747 -1.2108
   87MOL0     C11673   2.281  10.097   7.558 -1.1733 -0.0410 -0.0683
   87MOL0     C11674   2.346  10.218   7.487 -0.3628  0.0987 -0.7759
   87MOL0     C11675   2.378  10.324   7.432  0.4979 -0.2664  1.0182
   87MOL0     C11676   1.844  10.166   8.058  0.5062  0.1756 -0.2479
   87MOL0     C11677   1.727  10.205   8.128  0.0954 -0.4027 -0.1594
   87MOL0     H11678   1.224  10.462   7.892 -0.4159  0.8368  1.0108
   87MOL0     H11679   0.990  10.499   7.950 -1.8227 -3.4664 -0.1599
   87MOL0     H11680   0.706  10.506   8.209  2.0756  3.9016  0.0631
   87MOL0     H11681   0.806  10.556   8.076 -1.7405 -0.7399 -1.5575
   87MOL0     H11682   0.625  10.476   7.960  0.7351 -0.1819  0.5340
   87MOL0     H11683   0.720  10.332   7.968  0.6704 -2.9541  3.7351
   87MOL0     H11684   0.594  10.292   8.196  3.2815  2.9159 -1.3940
   87MOL0     H11685   0.469  10.388   8.124  0.0723 -0.8667 -1.6687
   87MOL0     H11686   0.464  10.263   7.920 -0.8853 -1.3845 -0.1704
   87MOL0     H11687   0.577  10.142   7.962 -1.4393 -0.6563 -1.3513
   87MOL0     H11688   0.455  10.110   8.190 -2.1038 -1.6761  0.6118
   87MOL0     H11689   0.319  10.198   8.128 -1.5377 -0.6538 -0.6654
   87MOL0     H11690   0.295  10.017   7.943 -0.7115  0.5290 -0.7814
   87MOL0     H11691   0.444   9.953   7.998  0.0516  1.1521 -2.3362
   87MOL0     H11692   0.241   9.839   8.095  0.7052  0.7822 -0.3128
   87MOL0     H11693   0.310   9.914   8.232 -2.3757  2.0713  2.3532
   87MOL0     H11694   0.109  10.047   8.046 -0.2214 -1.0813  0.1520
   87MOL0     H11695   0.134  10.092   8.219  0.0324 -1.4890  1.1912
   87MOL0     H11696   0.089   9.757   8.265  0.8586 -0.4570 -1.6208
   87MOL0     H11697  -0.136   9.571   8.225 -0.5886  0.8806 -2.4489
   87MOL0     H11698  -0.219   9.632   8.378  0.5704  1.0569  0.7985
   87MOL0     H11699  -0.396   9.724   8.247  0.5305 -0.2887 -1.3428
   87MOL0     H11700  -0.383   9.553   8.256  2.7538 -1.6657  2.2312
   87MOL0     H11701  -0.375   9.751   8.028  0.2311  1.0149  1.9095
   87MOL0     H11702  -0.457   9.599   8.036 -0.0619  0.9450  0.7690
   87MOL0     H11703  -0.309   9.610   7.862 -3.4252  1.0865  1.8614
   87MOL0     H11704  -0.284   9.471   7.965 -0.1135 -1.2898  0.0621
   87MOL0     H11705  -0.126   9.357   7.886 -1.5736  0.9128  4.0393
   87MOL0     H11706  -0.048   9.176   7.805 -0.4258  0.9082 -0.9786
   87MOL0     H11707   0.085   9.182   7.702 -2.6989 -1.5158  0.0014
   87MOL0     H11708   0.102   9.117   7.867 -0.1827 -0.3226 -1.1098
   87MOL0     H11709   0.639   9.591   7.902 -0.6674 -0.7551  2.3730
   87MOL0     H11710   0.902   9.548   7.890  2.0835 -1.7197 -0.3506
   87MOL0     H11711   1.086   9.473   7.758  3.1320 -1.4591 -0.5517
   87MOL0     H11712   1.120   9.472   7.935 -0.0302  0.6450 -0.5338
   87MOL0     H11713   1.330   9.422   7.845 -0.8301  0.7231 -0.9658
   87MOL0     H11714   1.262   9.266   7.895  1.3581 -1.8145 -2.4374
   87MOL0     H11715   1.258   9.375   7.598  3.0035 -0.6696 -2.1703
   87MOL0     H11716   1.169   9.250   7.658 -0.4387  0.5676 -1.4757
   87MOL0     H11717   1.476   9.257   7.689 -0.1228 -0.6410  1.9193
   87MOL0     H11718   1.365   9.124   7.730 -2.4994  1.1557  0.3943
   87MOL0     H11719   1.415   9.230   7.452  3.2302 -3.3674 -3.4347
   87MOL0     H11720   1.298   9.100   7.499  1.2853 -2.1833  0.7032
   87MOL0     H11721   1.593   9.107   7.540 -0.3297 -0.4982  1.3007
   87MOL0     H11722   1.497   8.979   7.611 -1.6611  1.9275  2.8059
   87MOL0     H11723   1.590   9.032   7.331 -0.1058  0.1860  0.9133
   87MOL0     H11724   1.414   8.976   7.342 -0.0626  0.5708 -0.6643
   87MOL0     H11725   1.501   8.761   7.341  0.0605  0.2260  0.2776
   87MOL0     H11726   1.495   8.808   7.510 -1.7307 -0.7756  0.0699
   87MOL0     H11727   0.850   9.138   7.919  0.9194  0.3523 -1.4736
   87MOL0     H11728   0.594   9.157   7.889  0.7174 -1.5838  1.2456
   87MOL0     H11729   0.307   9.574   7.962 -1.1461  0.5066  1.7113
   87MOL0     H11730   0.090   9.681   8.018 -3.4699 -0.2386  0.6026
   87MOL0     H11731   1.057  10.267   8.306  1.8699 -2.2316  0.1096
   87MOL0     H11732   1.279  10.237   8.249 -0.9174 -3.0244 -0.4985
   87MOL0     H11733   1.590  10.427   7.916 -0.4999 -0.8028  0.8963
   87MOL0     H11734   1.799  10.380   7.800 -0.5762 -1.1601 -0.9969
   87MOL0     H11735   2.152  10.127   7.955  0.3168 -1.3182 -0.0783
   87MOL0     H11736   2.030  10.002   7.938 -0.2744 -0.6164 -2.4029
   87MOL0     H11737   2.085   9.985   7.697  0.4190  1.2288 -0.8627
   87MOL0     H11738   2.221   9.970   7.817  0.4719 -1.7521 -2.6809
   87MOL0     H11739   2.307  10.170   7.750  0.0844 -1.7705  0.2891
   87MOL0     H11740   2.161  10.234   7.673 -0.3772  0.3197  2.6696
   87MOL0     H11741   2.206  10.050   7.494 -0.5101 -0.4822 -0.5356
   87MOL0     H11742   2.348  10.016   7.590 -1.8544 -0.6836 -0.2458
   87MOL0     H11743   2.390  10.400   7.357 -2.3691  0.2175  0.9451
   87MOL0     H11744   1.892  10.074   8.090 -2.1222 -1.5015 -0.8307
   87MOL0     H11745   1.699  10.161   8.223  0.4263  1.9376  1.0928
   88MOL0     O11746   8.788   9.083   5.667 -0.8575 -0.6499 -0.7779
   88MOL0     C11747   8.714   9.061   5.581  0.4101  1.2821 -0.6599
   88MOL0     O11748   8.747   9.049   5.451  0.4697 -0.0857 -0.0027
   88MOL0     C11749   8.885   9.071   5.428  0.0391  0.1052 -0.1246
   88MOL0     C11750   8.959   8.984   5.345  0.5533 -0.8578  0.1558
   88MOL0     C11751   9.098   9.006   5.322  0.2780  0.7322  0.6874
   88MOL0     C11752   9.157   9.126   5.358 -0.3400  1.0696  0.3595
   88MOL0     O11753   9.276   9.138   5.297 -0.1053  0.0885  0.2612
   88MOL0     C11754   9.376   9.218   5.359  0.2105 -0.4789  0.0216
   88MOL0     C11755   9.438   9.145   5.473  0.4623 -0.3842 -0.4574
   88MOL0     C11756   9.546   9.233   5.534 -0.1034  0.0183 -0.1621
   88MOL0     C11757   9.497   9.348   5.611 -0.0542 -0.4316 -0.3704
   88MOL0     C11758   9.583   9.379   5.736 -0.1994  0.0220 -0.0610
   88MOL0     C11759   9.566   9.517   5.807  0.4670 -0.1288  1.1246
   88MOL0     C11760   9.676   9.566   5.894 -0.4339 -0.8253  0.5933
   88MOL0     C11761   9.693   9.479   6.023 -0.6577  0.1481  1.0321
   88MOL0     N11762   9.694   9.562   6.151  0.2296 -0.8198 -0.0442
   88MOL0     C11763   9.603   9.658   6.194 -0.1566  0.2946 -1.3325
   88MOL0     C11764   9.634   9.685   6.326 -0.1124  0.0335  0.3140
   88MOL0     C11765   9.563   9.778   6.421 -1.5513  0.2394 -0.3082
   88MOL0     C11766   9.472   9.700   6.514 -0.0370 -1.4564  0.1831
   88MOL0     C11767   9.345   9.656   6.447 -0.3898 -1.3968  0.4241
   88MOL0     C11768   9.269   9.538   6.510 -0.1464  0.2172 -0.3627
   88MOL0     O11769   9.142   9.515   6.455 -0.2624 -0.1907  0.2291
   88MOL0     C11770   9.034   9.588   6.508  0.1601  0.7533  0.3625
   88MOL0     C11771   9.042   9.688   6.607  0.0417 -0.4113 -0.8453
   88MOL0     C11772   8.932   9.761   6.662  0.5615 -0.3455  1.0029
   88MOL0     C11773   8.938   9.872   6.760 -0.7112  0.4763  0.4694
   88MOL0     C11774   8.796   9.711   6.625 -0.2137 -0.5214 -0.4464
   88MOL0     C11775   8.663   9.772   6.666 -0.4292 -0.0818 -0.6808
   88MOL0     O11776   8.551   9.710   6.602 -0.4421  0.6797  0.0862
   88MOL0     C11777   8.422   9.744   6.636  0.9125 -0.3144  0.1292
   88MOL0     C11778   8.332   9.660   6.573 -0.3131 -0.5644 -0.4461
   88MOL0     C11779   8.199   9.674   6.597  1.4038 -0.3914  0.0806
   88MOL0     C11780   8.146   9.773   6.678 -0.4356  0.2266  0.4521
   88MOL0     O11781   8.016   9.771   6.708  0.7053 -0.4761  0.3423
   88MOL0     C11782   7.945   9.894   6.669 -0.6076 -0.6095  0.0242
   88MOL0     C11783   7.800   9.886   6.710  0.3928 -0.7371  0.5148
   88MOL0     C11784   7.738   9.743   6.699  0.6989  0.1531  0.3892
   88MOL0     C11785   7.750   9.703   6.554  0.0558 -0.0131  0.4304
   88MOL0     C11786   7.656   9.585   6.533  0.4044 -0.1747  0.0657
   88MOL0     C11787   7.669   9.533   6.393  0.4759  0.1567  0.1467
   88MOL0     C11788   7.783   9.444   6.349 -1.3355  0.2743 -0.5335
   88MOL0     C11789   7.803   9.436   6.199 -0.6018  0.3202  0.9354
   88MOL0    Cl11790   7.644   9.387   6.110  0.0214  0.5691 -0.2689
   88MOL0     C11791   8.233   9.858   6.737  0.0054 -1.9029 -1.1291
   88MOL0     C11792   8.366   9.842   6.721 -0.2958 -0.0991  1.1784
   88MOL0     O11793   8.663   9.860   6.754  0.1052  0.1516  0.0176
   88MOL0     C11794   8.793   9.609   6.529  0.7905 -0.1308 -0.5046
   88MOL0     C11795   8.905   9.555   6.477  0.3877  0.8125  0.2821
   88MOL0     N11796   9.748   9.612   6.360  0.6055  0.2639 -0.5672
   88MOL0     N11797   9.774   9.531   6.259 -0.0123 -0.7061  1.1888
   88MOL0     C11798   9.085   9.219   5.437 -0.5889  0.6926  0.3065
   88MOL0     C11799   8.953   9.197   5.468 -0.2193  0.3734  1.1626
   88MOL0     C11800   8.569   9.031   5.607 -0.0598 -0.9208  0.7186
   88MOL0     C11801   8.511   9.052   5.733 -0.3339  0.0540  0.3555
   88MOL0     C11802   8.382   9.007   5.760  0.9101 -0.1872  0.0549
   88MOL0     C11803   8.296   8.961   5.653 -0.4275 -0.7194  0.1640
   88MOL0     O11804   8.159   8.927   5.680  0.1286 -0.9027  0.3365
   88MOL0     C11805   8.066   8.896   5.567 -0.5864  1.1393  0.3312
   88MOL0     C11806   7.922   8.913   5.602 -0.4625 -0.3429  0.2509
   88MOL0     C11807   7.841   8.818   5.514  0.0543  0.5642 -0.4820
   88MOL0     C11808   7.693   8.880   5.515  0.3183  0.1608  0.9706
   88MOL0     C11809   7.616   8.760   5.489 -0.4752  0.3399 -0.7027
   88MOL0     C11810   7.556   8.655   5.466 -0.3328 -0.2212  0.1955
   88MOL0     C11811   8.347   8.953   5.521 -0.5031 -0.6669 -0.2171
   88MOL0     C11812   8.485   8.985   5.500  0.2159  0.5781  0.0123
   88MOL0     H11813   8.904   8.895   5.314 -0.5249 -1.5627  3.6702
   88MOL0     H11814   9.149   8.941   5.253 -0.9323  0.6766 -0.1939
   88MOL0     H11815   9.451   9.230   5.280  0.0039  2.9042  0.1790
   88MOL0     H11816   9.336   9.318   5.377 -0.8857 -0.1375 -3.5235
   88MOL0     H11817   9.363   9.133   5.552 -0.7401  1.8827 -1.1487
   88MOL0     H11818   9.483   9.048   5.450  0.4048 -0.0576 -2.0618
   88MOL0     H11819   9.607   9.174   5.602 -1.8658 -2.4921 -0.6152
   88MOL0     H11820   9.622   9.253   5.458  2.5979  0.2754  2.4395
   88MOL0     H11821   9.502   9.424   5.533 -0.1881 -1.8597 -1.8105
   88MOL0     H11822   9.394   9.334   5.647 -0.9506  3.6969 -0.7932
   88MOL0     H11823   9.541   9.312   5.811 -2.3257 -0.2195 -1.3901
   88MOL0     H11824   9.686   9.357   5.709 -0.9880  0.5813 -4.0719
   88MOL0     H11825   9.560   9.582   5.719 -2.6711 -1.3650  0.2905
   88MOL0     H11826   9.463   9.524   5.844 -0.0388  0.5732 -0.3264
   88MOL0     H11827   9.775   9.558   5.848  0.3761  1.1215  1.8639
   88MOL0     H11828   9.639   9.664   5.928  0.0106 -0.3077 -0.3849
   88MOL0     H11829   9.784   9.419   6.024 -1.3443 -0.9376  0.6713
   88MOL0     H11830   9.613   9.405   6.035  0.3276 -1.2610 -0.6388
   88MOL0     H11831   9.523   9.712   6.144 -3.1057 -3.2715 -0.8538
   88MOL0     H11832   9.642   9.840   6.465 -2.4000  0.5166  0.8683
   88MOL0     H11833   9.509   9.848   6.356  0.7668  1.7587 -0.7080
   88MOL0     H11834   9.443   9.764   6.597 -0.8614  0.8246 -1.7312
   88MOL0     H11835   9.521   9.617   6.565 -1.3007 -3.5848 -1.8548
   88MOL0     H11836   9.386   9.642   6.346  0.9619  2.2842  0.3096
   88MOL0     H11837   9.289   9.749   6.460  0.6624 -0.6794 -0.0291
   88MOL0     H11838   9.265   9.566   6.616 -0.5486 -1.0201 -0.0381
   88MOL0     H11839   9.315   9.440   6.495 -1.6373 -0.1137 -3.6578
   88MOL0     H11840   9.131   9.721   6.661 -1.1699 -1.0148  1.6912
   88MOL0     H11841   8.894   9.959   6.711  0.4723  0.6001 -0.4187
   88MOL0     H11842   8.889   9.856   6.856  0.3677 -0.6454  0.8587
   88MOL0     H11843   9.043   9.901   6.768 -0.5493  0.5619 -1.6200
   88MOL0     H11844   8.361   9.579   6.506 -2.6326 -2.8139  1.0741
   88MOL0     H11845   8.125   9.613   6.546 -0.3194  0.6671  1.2176
   88MOL0     H11846   7.997   9.969   6.728  0.9143 -1.0779 -0.6692
   88MOL0     H11847   7.959   9.916   6.563 -1.5969 -2.7831 -0.6178
   88MOL0     H11848   7.782   9.928   6.809  0.5654  1.2148 -0.2361
   88MOL0     H11849   7.750   9.952   6.639  0.4148 -1.1260  0.1299
   88MOL0     H11850   7.635   9.732   6.733  1.2184  1.5996  2.6154
   88MOL0     H11851   7.787   9.674   6.769  1.4461  2.6331  2.4520
   88MOL0     H11852   7.718   9.778   6.482  0.0103 -3.7261 -3.8693
   88MOL0     H11853   7.854   9.677   6.532  0.6222 -0.0591  2.8993
   88MOL0     H11854   7.551   9.614   6.538 -0.1969 -0.6225 -5.2155
   88MOL0     H11855   7.669   9.508   6.610 -2.9619 -1.2512 -0.2953
   88MOL0     H11856   7.579   9.471   6.389  0.7008 -0.7660  4.3150
   88MOL0     H11857   7.661   9.622   6.331  0.8032 -0.1629 -0.3725
   88MOL0     H11858   7.767   9.341   6.384  0.1637 -0.2188 -1.2308
   88MOL0     H11859   7.875   9.463   6.404 -0.2943 -0.1755 -2.0554
   88MOL0     H11860   7.880   9.370   6.157 -1.7967 -0.7479  0.3405
   88MOL0     H11861   7.821   9.531   6.148 -1.0489 -1.0756 -2.0725
   88MOL0     H11862   8.204   9.937   6.805  3.0176 -1.6722  0.0435
   88MOL0     H11863   8.435   9.907   6.775 -0.3391  1.0908 -0.1395
   88MOL0     H11864   8.699   9.558   6.509 -1.5352  2.6084  2.3989
   88MOL0     H11865   8.898   9.476   6.403  1.6042  0.9297  0.0220
   88MOL0     H11866   9.145   9.308   5.459  0.7672 -0.6129  2.2365
   88MOL0     H11867   8.908   9.261   5.544 -3.7967 -2.4293  1.7108
   88MOL0     H11868   8.569   9.097   5.813  1.9475  1.6804 -2.0463
   88MOL0     H11869   8.339   8.998   5.859  0.1340 -3.1394 -0.4513
   88MOL0     H11870   8.087   8.953   5.476 -1.2844 -2.1602 -2.0788
   88MOL0     H11871   8.083   8.792   5.539  2.0268  2.0349 -1.9055
   88MOL0     H11872   7.888   9.016   5.616 -0.9401 -0.3745 -0.6141
   88MOL0     H11873   7.911   8.886   5.707 -1.0431  0.1309  0.3136
   88MOL0     H11874   7.835   8.730   5.578 -0.7743  0.1013 -1.1667
   88MOL0     H11875   7.882   8.798   5.415  0.1056 -2.6723  0.0963
   88MOL0     H11876   7.677   8.954   5.437  1.5980  0.0109  0.5429
   88MOL0     H11877   7.654   8.919   5.609 -0.8389 -2.3281  1.6215
   88MOL0     H11878   7.516   8.558   5.444  1.9171 -0.6258 -2.6089
   88MOL0     H11879   8.281   8.919   5.441 -1.8346 -0.8109  0.9111
   88MOL0     H11880   8.536   8.965   5.406 -1.3865 -3.2368 -0.2327
   89MOL0     O11881   0.222   7.199   2.352 -0.9126  0.1965 -0.3493
   89MOL0     C11882   0.278   7.258   2.267 -0.4862  0.7313 -0.2946
   89MOL0     O11883   0.234   7.264   2.135 -1.1753 -0.5374 -0.7492
   89MOL0     C11884   0.113   7.205   2.102  0.5063 -0.9927 -0.2312
   89MOL0     C11885   0.102   7.122   1.991 -0.8951  0.3572 -0.5611
   89MOL0     C11886  -0.027   7.073   1.971  0.3500 -0.1839  0.4631
   89MOL0     C11887  -0.141   7.099   2.051  0.0417  0.3152 -0.3088
   89MOL0     O11888  -0.275   7.049   2.041  0.2456  0.3014  0.7748
   89MOL0     C11889  -0.318   7.028   1.901 -0.4952 -0.8805  0.2794
   89MOL0     C11890  -0.468   7.043   1.894  0.6877 -0.0513  0.9490
   89MOL0     C11891  -0.537   6.915   1.942  0.2012 -0.5741  0.0677
   89MOL0     C11892  -0.535   6.790   1.848  0.3290  0.8976  0.5051
   89MOL0     C11893  -0.597   6.666   1.930 -0.1705 -0.5914  0.8461
   89MOL0     C11894  -0.540   6.542   1.864 -0.5374 -0.0295 -0.4794
   89MOL0     C11895  -0.585   6.410   1.927  0.0323  0.1162  0.6560
   89MOL0     C11896  -0.740   6.368   1.928  0.5043 -0.4415 -0.4368
   89MOL0     N11897  -0.804   6.375   1.797  0.0428  0.7833 -0.1661
   89MOL0     C11898  -0.906   6.455   1.760 -0.2132 -0.1337  0.2711
   89MOL0     C11899  -0.929   6.431   1.624 -0.4950  0.5408  0.0330
   89MOL0     C11900  -1.039   6.496   1.549 -0.1048  0.6929 -0.6542
   89MOL0     C11901  -1.007   6.642   1.496 -0.1735  0.6010  0.3036
   89MOL0     C11902  -0.896   6.621   1.383  0.8161  1.4610 -0.0867
   89MOL0     C11903  -0.886   6.753   1.296  1.4083  0.6340 -0.4161
   89MOL0     O11904  -0.997   6.841   1.309 -0.3239  0.4207  0.4069
   89MOL0     C11905  -1.116   6.824   1.244  0.3546  0.7024 -0.4961
   89MOL0     C11906  -1.208   6.925   1.234 -1.5116  0.4314 -0.0815
   89MOL0     C11907  -1.333   6.907   1.182 -0.9780 -0.3945  0.2285
   89MOL0     C11908  -1.408   7.032   1.147 -0.2074 -0.0381 -0.2779
   89MOL0     C11909  -1.379   6.777   1.152 -0.1144 -0.2453 -0.3070
   89MOL0     C11910  -1.514   6.768   1.097  1.4685  0.0770  0.0513
   89MOL0     O11911  -1.623   6.793   1.180 -0.5170 -0.2309  0.4521
   89MOL0     C11912  -1.750   6.792   1.138 -0.3234 -1.3723 -0.8924
   89MOL0     C11913  -1.797   6.857   1.022 -0.1048 -0.2555 -0.3000
   89MOL0     C11914  -1.933   6.850   0.993  0.6653  0.0110 -1.9622
   89MOL0     C11915  -2.026   6.772   1.069 -0.7902 -0.0873 -0.7638
   89MOL0     O11916  -2.153   6.766   1.023 -0.0268  0.6525 -1.0943
   89MOL0     C11917  -2.251   6.692   1.097 -0.2099  0.4784  0.3516
   89MOL0     C11918  -2.371   6.713   1.007  0.7071 -1.1423  0.0198
   89MOL0     C11919  -2.479   6.615   1.043  0.9988  0.1526  0.6622
   89MOL0     C11920  -2.514   6.604   1.196 -1.5059 -0.1980  0.4656
   89MOL0     C11921  -2.499   6.458   1.242 -1.1761  0.1866  0.4699
   89MOL0     C11922  -2.540   6.431   1.388  0.1993  0.2378 -0.1891
   89MOL0     C11923  -2.689   6.424   1.398 -0.0423  0.6438 -0.1489
   89MOL0     C11924  -2.734   6.373   1.531 -0.6723  0.0186 -0.3002
   89MOL0    Cl11925  -2.735   6.502   1.655 -0.3027 -0.0535 -0.0545
   89MOL0     C11926  -1.977   6.700   1.184 -0.3910  0.3630 -1.0910
   89MOL0     C11927  -1.837   6.713   1.213 -0.4590  1.2561  0.2836
   89MOL0     O11928  -1.521   6.734   0.978  0.0921 -0.1840  0.3066
   89MOL0     C11929  -1.300   6.667   1.173  0.2420  0.3158  0.7052
   89MOL0     C11930  -1.169   6.689   1.209 -0.2803 -0.3695 -0.0853
   89MOL0     N11931  -0.840   6.332   1.590 -0.5307 -0.0522 -0.5709
   89MOL0     N11932  -0.765   6.306   1.693 -0.7488  0.0689  0.3253
   89MOL0     C11933  -0.127   7.188   2.158 -1.3424 -1.0027 -0.1467
   89MOL0     C11934  -0.003   7.251   2.179 -0.7563  1.3616  0.2486
   89MOL0     C11935   0.405   7.329   2.297  0.1394 -0.6444  0.5035
   89MOL0     C11936   0.477   7.301   2.414  0.2837 -0.1728 -0.2107
   89MOL0     C11937   0.581   7.385   2.446  0.0507  0.2584 -0.8381
   89MOL0     C11938   0.635   7.479   2.364  0.3371  0.0799 -1.0292
   89MOL0     O11939   0.742   7.552   2.412 -0.5072 -0.4013 -0.8597
   89MOL0     C11940   0.803   7.656   2.330 -0.1035 -0.7280  0.2657
   89MOL0     C11941   0.898   7.743   2.416  0.0304 -0.1246 -0.5677
   89MOL0     C11942   0.974   7.832   2.328 -0.0444 -0.1642  0.0663
   89MOL0     C11943   1.061   7.924   2.424 -0.3233  0.4485  0.1785
   89MOL0     C11944   1.169   7.979   2.341  0.4656 -0.4637 -0.1155
   89MOL0     C11945   1.251   8.027   2.268 -1.2658  0.3153 -0.0852
   89MOL0     C11946   0.579   7.497   2.235  0.3198  0.4829  0.1081
   89MOL0     C11947   0.466   7.421   2.196  0.1689  0.0035  0.0849
   89MOL0     H11948   0.188   7.109   1.925 -1.0883  0.6640 -0.8787
   89MOL0     H11949  -0.034   6.994   1.896 -3.3698  0.7633 -0.4030
   89MOL0     H11950  -0.260   7.089   1.831  0.9471 -1.3400  1.0295
   89MOL0     H11951  -0.282   6.929   1.871  2.2161  0.7063 -2.4021
   89MOL0     H11952  -0.494   7.133   1.949  0.0187  0.6872 -0.5115
   89MOL0     H11953  -0.496   7.056   1.789 -1.3669 -1.4716  1.2452
   89MOL0     H11954  -0.504   6.887   2.042  1.9495 -1.7229 -0.7662
   89MOL0     H11955  -0.640   6.948   1.953 -0.7742 -2.9934 -1.0053
   89MOL0     H11956  -0.602   6.809   1.764 -0.4070 -0.7342  0.6836
   89MOL0     H11957  -0.438   6.757   1.809 -0.0738  0.9065 -0.5154
   89MOL0     H11958  -0.562   6.660   2.033  3.7681  0.2756 -0.2483
   89MOL0     H11959  -0.706   6.652   1.930  0.1219 -3.6421  1.6117
   89MOL0     H11960  -0.565   6.528   1.759  1.3220 -0.0482 -0.9690
   89MOL0     H11961  -0.431   6.535   1.872 -0.5634  0.6983  0.9025
   89MOL0     H11962  -0.525   6.333   1.877 -0.1665 -0.1321  0.7946
   89MOL0     H11963  -0.544   6.407   2.028  1.1916 -0.9160  0.1887
   89MOL0     H11964  -0.793   6.429   2.001 -0.0284 -0.7758 -0.5399
   89MOL0     H11965  -0.753   6.269   1.974  0.8041 -1.1712 -1.8523
   89MOL0     H11966  -0.963   6.522   1.824  0.3036  1.2003 -0.6132
   89MOL0     H11967  -1.055   6.425   1.468 -3.3512  1.1707 -0.5718
   89MOL0     H11968  -1.125   6.488   1.617  2.3362 -2.7383  2.4222
   89MOL0     H11969  -0.964   6.710   1.570  3.5971 -3.2077  2.0502
   89MOL0     H11970  -1.096   6.688   1.452  1.3457  2.0661 -1.4128
   89MOL0     H11971  -0.925   6.543   1.313 -2.3539  3.4140 -1.1837
   89MOL0     H11972  -0.800   6.596   1.430  0.6316 -0.5230 -0.6869
   89MOL0     H11973  -0.867   6.727   1.191 -0.7416  1.1864 -0.9833
   89MOL0     H11974  -0.797   6.806   1.332 -0.0843  0.3471  4.3086
   89MOL0     H11975  -1.177   7.022   1.272  2.9825  0.0319 -2.0654
   89MOL0     H11976  -1.363   7.129   1.168 -2.1068  1.5151 -2.7310
   89MOL0     H11977  -1.433   7.028   1.041 -1.0756 -0.3778 -0.0749
   89MOL0     H11978  -1.504   7.041   1.199  0.1980 -1.3726  0.7608
   89MOL0     H11979  -1.733   6.923   0.964  0.0654  0.3301  0.5392
   89MOL0     H11980  -1.955   6.912   0.906  3.8096  0.2827 -2.6606
   89MOL0     H11981  -2.235   6.584   1.094 -0.6943  0.4221 -1.0999
   89MOL0     H11982  -2.260   6.728   1.200  2.8962  0.7178  0.6487
   89MOL0     H11983  -2.409   6.814   1.026  0.7279 -1.1451  0.0720
   89MOL0     H11984  -2.355   6.700   0.899 -1.8431 -0.4867 -0.5129
   89MOL0     H11985  -2.458   6.516   1.002  3.5176  0.9599 -0.1301
   89MOL0     H11986  -2.572   6.633   0.988  1.8015 -2.7762 -1.9392
   89MOL0     H11987  -2.447   6.673   1.249  0.6725 -1.4689 -0.5040
   89MOL0     H11988  -2.618   6.628   1.220 -1.4052  1.6107 -0.7199
   89MOL0     H11989  -2.395   6.426   1.229 -2.0620 -2.1383 -1.8394
   89MOL0     H11990  -2.546   6.395   1.166 -2.2884 -0.5164  1.6895
   89MOL0     H11991  -2.496   6.334   1.413  0.5488  0.5743  0.5087
   89MOL0     H11992  -2.504   6.513   1.450 -0.8521  0.3525  0.2823
   89MOL0     H11993  -2.727   6.345   1.332  3.4869 -3.2291  2.0492
   89MOL0     H11994  -2.731   6.524   1.382  2.5987  2.3162  2.4799
   89MOL0     H11995  -2.673   6.291   1.571 -0.5698 -0.0357 -0.5719
   89MOL0     H11996  -2.835   6.337   1.510  0.1056 -1.2259 -2.0961
   89MOL0     H11997  -2.033   6.635   1.251  0.4947  2.3332  1.7372
   89MOL0     H11998  -1.804   6.664   1.304 -4.1927 -0.3025  0.9697
   89MOL0     H11999  -1.340   6.571   1.145 -0.6353 -0.1771  3.3564
   89MOL0     H12000  -1.107   6.600   1.210 -1.4423 -1.2356 -0.9651
   89MOL0     H12001  -0.206   7.234   2.217  0.2605  1.1155  0.4550
   89MOL0     H12002   0.006   7.331   2.252  2.1151  0.0516  1.4833
   89MOL0     H12003   0.436   7.230   2.485 -0.8633 -1.1844 -1.8384
   89MOL0     H12004   0.627   7.361   2.541 -2.2102 -2.2080 -0.2272
   89MOL0     H12005   0.855   7.600   2.252 -2.6193 -2.0205 -0.6024
   89MOL0     H12006   0.729   7.715   2.275  1.5322  1.3637  0.2059
   89MOL0     H12007   0.966   7.681   2.475  0.5826 -1.7183 -2.7667
   89MOL0     H12008   0.843   7.805   2.488 -3.2413 -3.5379  0.2281
   89MOL0     H12009   0.902   7.879   2.260  0.0137 -3.2537 -2.3980
   89MOL0     H12010   1.038   7.770   2.264 -1.0607 -2.4729  1.1777
   89MOL0     H12011   1.105   7.855   2.496 -4.5480 -1.8962  0.8581
   89MOL0     H12012   0.997   8.005   2.460 -0.8087  0.3888 -0.5158
   89MOL0     H12013   1.324   8.053   2.194  0.3363  0.2848  1.4078
   89MOL0     H12014   0.623   7.566   2.164 -1.3430  1.8952  0.3828
   89MOL0     H12015   0.424   7.408   2.097  1.8940 -1.7438 -0.4742
   90MOL0     O12016   9.541   9.011   8.996 -0.2310 -0.4162 -0.1668
   90MOL0     C12017   9.649   9.039   9.052 -0.2754 -0.6656  0.0432
   90MOL0     O12018   9.727   8.954   9.121  0.2212 -0.3829  0.7262
   90MOL0     C12019   9.691   8.812   9.119 -0.3944 -0.6032 -0.9743
   90MOL0     C12020   9.709   8.751   9.249 -0.1633 -1.8104  0.8499
   90MOL0     C12021   9.676   8.619   9.273 -0.3870 -0.5147  0.5520
   90MOL0     C12022   9.620   8.544   9.176 -0.1450 -0.5755 -0.5552
   90MOL0     O12023   9.587   8.416   9.209  0.8319  0.3381 -0.2396
   90MOL0     C12024   9.510   8.335   9.125 -0.1767  0.8837  0.0849
   90MOL0     C12025   9.599   8.267   9.025 -0.4819  0.0517 -0.1844
   90MOL0     C12026   9.533   8.175   8.935  0.8253 -0.4038  0.5358
   90MOL0     C12027   9.632   8.110   8.838 -0.5030 -0.3252  0.2962
   90MOL0     C12028   9.576   8.013   8.731 -0.4648 -0.2665 -0.3234
   90MOL0     C12029   9.487   8.075   8.627  0.4228  0.0850 -0.5505
   90MOL0     C12030   9.431   7.973   8.529  0.8458 -0.0812 -0.9064
   90MOL0     C12031   9.356   8.044   8.415 -0.0322  0.4311 -0.3503
   90MOL0     N12032   9.425   8.140   8.331  0.1556 -0.5753  0.6060
   90MOL0     C12033   9.535   8.120   8.247 -0.3307 -0.7105 -0.3433
   90MOL0     C12034   9.540   8.229   8.163  0.5302 -0.4070 -0.5119
   90MOL0     C12035   9.656   8.250   8.060  0.2193 -0.4947  0.3498
   90MOL0     C12036   9.742   8.365   8.092  0.0758 -0.2076 -0.3384
   90MOL0     C12037   9.660   8.500   8.097 -0.3478  0.7282  0.7623
   90MOL0     C12038   9.738   8.626   8.117 -1.7021 -0.7027 -0.2568
   90MOL0     O12039   9.830   8.603   8.222  0.2320 -0.2599  0.0383
   90MOL0     C12040   9.930   8.698   8.251  0.1334 -0.7910  0.2006
   90MOL0     C12041  10.005   8.685   8.364 -0.8685  0.0342 -0.7643
   90MOL0     C12042  10.109   8.768   8.404 -0.4456 -0.4622 -0.5717
   90MOL0     C12043  10.198   8.727   8.518 -1.4000 -0.6335  0.5044
   90MOL0     C12044  10.135   8.881   8.322  0.0563 -0.3745 -0.0567
   90MOL0     C12045  10.252   8.974   8.332 -0.4034 -0.7434 -0.8971
   90MOL0     O12046  10.306   9.035   8.222  0.0448  1.3223 -0.0318
   90MOL0     C12047  10.393   9.135   8.244  0.1695  0.4273 -0.0004
   90MOL0     C12048  10.537   9.116   8.248 -0.5230  0.5316  0.3276
   90MOL0     C12049  10.625   9.221   8.275 -0.6152  0.4629 -0.6447
   90MOL0     C12050  10.570   9.353   8.285  0.6415 -1.2316  0.2055
   90MOL0     O12051  10.662   9.444   8.325 -0.3646 -0.1393  0.3933
   90MOL0     C12052  10.621   9.580   8.319  0.3196 -0.2428  0.1522
   90MOL0     C12053  10.745   9.667   8.289  0.4995 -0.5771 -0.5096
   90MOL0     C12054  10.702   9.806   8.255 -0.4499  0.1822  1.1682
   90MOL0     C12055  10.818   9.906   8.280 -0.4657 -0.8131 -0.7186
   90MOL0     C12056  10.828   9.951   8.426 -0.4327  0.1827 -1.0211
   90MOL0     C12057  10.700  10.025   8.469 -0.1178  0.3531 -0.1479
   90MOL0     C12058  10.614   9.932   8.557 -0.2006 -0.7167 -0.1559
   90MOL0     C12059  10.486  10.011   8.586  0.5564 -0.2982 -0.7771
   90MOL0    Cl12060  10.395  10.082   8.443 -0.2410 -0.1786 -0.3457
   90MOL0     C12061  10.432   9.372   8.285 -1.4927 -0.6278  0.8091
   90MOL0     C12062  10.351   9.259   8.267  0.0440 -0.0060  0.0012
   90MOL0     O12063  10.301   8.981   8.449  0.5631 -0.1951 -0.3536
   90MOL0     C12064  10.045   8.904   8.208 -0.6657 -0.7116 -0.1708
   90MOL0     C12065   9.952   8.810   8.177  0.3370  1.1428 -0.1640
   90MOL0     N12066   9.437   8.313   8.196 -0.1356 -0.6180  0.2869
   90MOL0     N12067   9.369   8.259   8.285  0.7673 -1.2601 -0.6047
   90MOL0     C12068   9.594   8.602   9.049  0.0006 -0.4719 -0.1328
   90MOL0     C12069   9.633   8.733   9.020 -0.4314 -0.1030  0.3911
   90MOL0     C12070   9.702   9.179   9.050  0.3015 -0.2483 -0.2431
   90MOL0     C12071   9.616   9.280   9.010  0.8788 -0.7304  1.0137
   90MOL0     C12072   9.669   9.411   9.013 -0.5596 -0.4194 -0.4157
   90MOL0     C12073   9.803   9.438   9.062  1.2150 -0.7577 -0.6818
   90MOL0     O12074   9.851   9.571   9.060  0.9294 -0.0301 -1.1868
   90MOL0     C12075   9.963   9.575   8.973 -0.5110 -0.6653  0.2217
   90MOL0     C12076   9.970   9.722   8.944 -1.1091 -0.6464 -0.6240
   90MOL0     C12077  10.099   9.782   8.893 -0.0571  0.7293  0.0785
   90MOL0     C12078  10.072   9.934   8.908  0.1685 -0.4822 -0.3191
   90MOL0     C12079  10.157  10.025   8.837 -0.6631  1.3934 -0.1176
   90MOL0     C12080  10.223  10.101   8.765 -0.3577  0.6346 -0.7411
   90MOL0     C12081   9.889   9.337   9.102 -0.5486 -0.3334  0.2959
   90MOL0     C12082   9.838   9.206   9.089 -0.5711 -0.6338 -0.2584
   90MOL0     H12083   9.747   8.813   9.329 -2.8651  0.3250  0.6003
   90MOL0     H12084   9.690   8.574   9.371  0.6069  1.2012  1.2429
   90MOL0     H12085   9.465   8.251   9.177 -0.6462 -1.2687 -3.4526
   90MOL0     H12086   9.429   8.392   9.078 -0.5352 -0.7305 -1.3621
   90MOL0     H12087   9.656   8.338   8.965  0.0994  2.1521  2.5906
   90MOL0     H12088   9.673   8.211   9.083 -1.7269 -1.8788 -0.3917
   90MOL0     H12089   9.486   8.089   8.983 -0.2617 -1.1454 -1.6935
   90MOL0     H12090   9.456   8.231   8.881  1.1172 -0.4999  0.0140
   90MOL0     H12091   9.667   8.190   8.773 -1.6820 -0.1362 -0.1354
   90MOL0     H12092   9.720   8.078   8.894  0.2657  0.6771 -0.2930
   90MOL0     H12093   9.654   7.965   8.672  0.5463 -0.4343  1.0976
   90MOL0     H12094   9.517   7.934   8.778 -1.7481  0.0443 -1.3467
   90MOL0     H12095   9.393   8.106   8.675  0.6857 -0.5719  0.4238
   90MOL0     H12096   9.534   8.155   8.569 -0.3049  1.1687  0.3020
   90MOL0     H12097   9.519   7.919   8.493 -0.4699 -3.1604  0.1490
   90MOL0     H12098   9.365   7.903   8.580  0.3423  0.2310 -1.1172
   90MOL0     H12099   9.277   8.097   8.469 -0.5055  0.1270 -0.7362
   90MOL0     H12100   9.312   7.970   8.347 -0.5256  0.0585  0.3549
   90MOL0     H12101   9.610   8.043   8.259 -1.9362 -1.9246  3.0229
   90MOL0     H12102   9.715   8.159   8.076  0.6050 -0.4918 -0.9981
   90MOL0     H12103   9.620   8.247   7.957 -1.0281  1.0962  0.7067
   90MOL0     H12104   9.809   8.365   8.005 -1.0593  0.1673 -1.2353
   90MOL0     H12105   9.799   8.354   8.185  0.9691  2.1382 -0.5362
   90MOL0     H12106   9.588   8.488   8.178 -2.2742 -0.1109 -0.9926
   90MOL0     H12107   9.606   8.518   8.004 -0.1571 -0.1389  0.4766
   90MOL0     H12108   9.661   8.698   8.145 -2.7746 -2.4493  1.5506
   90MOL0     H12109   9.794   8.656   8.028 -2.7209  0.5521 -0.4887
   90MOL0     H12110   9.987   8.608   8.438  4.9338  0.3335  1.4685
   90MOL0     H12111  10.194   8.791   8.607 -1.9376  0.9369 -0.6025
   90MOL0     H12112  10.184   8.623   8.551  0.6598 -1.5269 -1.2117
   90MOL0     H12113  10.301   8.739   8.484 -1.4381 -0.0622  0.5870
   90MOL0     H12114  10.575   9.020   8.215  1.6744  1.8905 -1.4481
   90MOL0     H12115  10.730   9.193   8.280 -0.9847 -0.7487  0.8576
   90MOL0     H12116  10.549   9.594   8.238  0.2069 -0.8227  0.1466
   90MOL0     H12117  10.580   9.609   8.417  0.4303 -2.3906  0.8866
   90MOL0     H12118  10.802   9.667   8.383 -1.8478 -0.7216  0.9862
   90MOL0     H12119  10.810   9.615   8.218  2.3574  1.8594 -0.7236
   90MOL0     H12120  10.609   9.840   8.301 -1.0213  0.5165 -0.1886
   90MOL0     H12121  10.676   9.787   8.151 -1.6713 -2.0004  1.8140
   90MOL0     H12122  10.915   9.859   8.266 -0.1988 -0.5903  0.3175
   90MOL0     H12123  10.815  10.002   8.227  0.8566  0.2659  1.0638
   90MOL0     H12124  10.918  10.006   8.453 -1.0928 -0.2714  2.6527
   90MOL0     H12125  10.830   9.869   8.499  0.6795  1.8572  0.9202
   90MOL0     H12126  10.726  10.110   8.532  4.0671 -0.0830 -1.0249
   90MOL0     H12127  10.642  10.062   8.383 -0.3441 -2.1568 -1.1517
   90MOL0     H12128  10.661   9.906   8.653  1.1323  0.0579 -0.5625
   90MOL0     H12129  10.594   9.837   8.507 -1.3316 -1.1188  1.0192
   90MOL0     H12130  10.507  10.097   8.651 -0.0552  1.8300 -3.2539
   90MOL0     H12131  10.412   9.943   8.628 -0.7473  0.9120 -1.0636
   90MOL0     H12132  10.389   9.469   8.308 -0.8563 -0.6876  2.4046
   90MOL0     H12133  10.244   9.273   8.281  0.0389 -0.3295  0.3026
   90MOL0     H12134  10.052   8.987   8.138 -0.5204 -1.6824 -1.3393
   90MOL0     H12135   9.882   8.834   8.097 -0.5238  1.2585  0.6097
   90MOL0     H12136   9.557   8.534   8.972  0.4782  1.1088 -1.8288
   90MOL0     H12137   9.623   8.768   8.918  2.2180 -2.1178 -0.6761
   90MOL0     H12138   9.511   9.253   9.002  0.1631  1.2471  2.8906
   90MOL0     H12139   9.621   9.500   8.974  2.5574  1.2794 -0.7149
   90MOL0     H12140  10.051   9.540   9.028  2.3936  2.8378 -1.8005
   90MOL0     H12141   9.942   9.524   8.879 -2.3691 -1.2066  0.8672
   90MOL0     H12142   9.943   9.769   9.039  4.1502 -0.2932  1.0089
   90MOL0     H12143   9.880   9.743   8.886 -2.7797 -1.7732  1.3872
   90MOL0     H12144  10.104   9.754   8.787  1.3077 -0.9208  0.5284
   90MOL0     H12145  10.185   9.744   8.948 -1.3133 -1.4984  0.6170
   90MOL0     H12146  10.060   9.955   9.015  1.1445 -0.8477 -0.1319
   90MOL0     H12147   9.975   9.959   8.865 -0.5184 -3.7119 -0.9044
   90MOL0     H12148  10.268  10.176   8.703  0.2378  1.1203  0.2380
   90MOL0     H12149   9.992   9.350   9.133 -0.4071  1.7358 -0.8451
   90MOL0     H12150   9.898   9.124   9.125 -2.4249 -1.1037  2.0070
   91MOL0     O12151   2.252   8.392   1.389  0.4006  0.7255 -0.5543
   91MOL0     C12152   2.226   8.494   1.325  0.4916 -0.4781  0.0100
   91MOL0     O12153   2.108   8.532   1.272 -0.0662 -0.3550  0.6263
   91MOL0     C12154   2.016   8.435   1.273 -0.5312  0.4041 -0.3139
   91MOL0     C12155   1.920   8.458   1.374 -0.0522  0.1660  0.0515
   91MOL0     C12156   1.810   8.380   1.386  0.3755 -0.4802 -0.8124
   91MOL0     C12157   1.778   8.274   1.304  1.4484 -0.2748 -0.0580
   91MOL0     O12158   1.657   8.206   1.326 -0.1048 -0.0107 -0.6656
   91MOL0     C12159   1.607   8.130   1.218  0.3469 -0.1058  0.3330
   91MOL0     C12160   1.493   8.040   1.269  0.4657 -1.0166 -0.5958
   91MOL0     C12161   1.504   7.896   1.219  0.8224  0.0474 -0.1068
   91MOL0     C12162   1.374   7.823   1.244 -0.7740  0.6346 -0.1454
   91MOL0     C12163   1.392   7.682   1.185  0.3524 -0.0163 -0.0450
   91MOL0     C12164   1.263   7.597   1.212  0.0427  0.3153 -0.4109
   91MOL0     C12165   1.263   7.441   1.156 -0.4436 -0.1905  0.1059
   91MOL0     C12166   1.365   7.337   1.225 -0.0390  0.0998 -0.2884
   91MOL0     N12167   1.312   7.202   1.208  0.5255  0.1542 -0.4563
   91MOL0     C12168   1.224   7.142   1.294  0.3583 -0.5711  0.1345
   91MOL0     C12169   1.227   7.010   1.267 -1.7574  0.0668 -0.6760
   91MOL0     C12170   1.151   6.909   1.354 -0.1520  0.3618  0.5160
   91MOL0     C12171   1.116   6.784   1.288 -0.0225  0.4341 -0.1915
   91MOL0     C12172   1.002   6.800   1.179 -0.1198 -0.3887 -0.0399
   91MOL0     C12173   0.874   6.877   1.231 -0.2930  0.4350  0.4097
   91MOL0     O12174   0.881   7.009   1.198 -0.7847 -0.2061  0.3060
   91MOL0     C12175   0.790   7.104   1.247 -0.5512  0.2028  0.3827
   91MOL0     C12176   0.814   7.246   1.222  0.0267  0.2003  0.3715
   91MOL0     C12177   0.727   7.344   1.278  0.4382  0.1911 -0.7321
   91MOL0     C12178   0.778   7.487   1.269  0.3058 -0.1808  1.0591
   91MOL0     C12179   0.614   7.303   1.353 -0.3707  0.1065  0.4141
   91MOL0     C12180   0.528   7.402   1.421 -0.2024  0.3570 -0.2251
   91MOL0     O12181   0.474   7.366   1.540  0.5995  0.3287  0.4331
   91MOL0     C12182   0.384   7.443   1.605  0.4143 -0.3966  0.2516
   91MOL0     C12183   0.392   7.463   1.741  1.1611  0.2131 -1.1434
   91MOL0     C12184   0.288   7.519   1.817 -0.9400  0.3250  0.2152
   91MOL0     C12185   0.185   7.584   1.755 -0.0276  0.5705  0.9470
   91MOL0     O12186   0.088   7.654   1.819 -0.1605 -0.2624  0.1379
   91MOL0     C12187   0.088   7.691   1.962  0.6243  0.8775  0.8091
   91MOL0     C12188  -0.051   7.734   1.991  0.0191 -0.3876 -0.5310
   91MOL0     C12189  -0.100   7.855   1.899 -1.0668  0.4540 -0.9785
   91MOL0     C12190  -0.237   7.892   1.936  0.5539 -0.5340 -1.0174
   91MOL0     C12191  -0.247   8.040   1.933  0.7715  0.1819 -0.9583
   91MOL0     C12192  -0.288   8.087   1.799  0.2904 -0.4259  0.2498
   91MOL0     C12193  -0.325   8.237   1.794  0.5768 -0.8704 -0.6694
   91MOL0     C12194  -0.205   8.339   1.783  0.2520 -0.3491 -1.2143
   91MOL0    Cl12195  -0.069   8.280   1.686 -0.0493  0.8050  0.2376
   91MOL0     C12196   0.182   7.578   1.615 -0.2309  0.1501  0.2791
   91MOL0     C12197   0.277   7.494   1.546 -0.4189  0.8827 -0.0643
   91MOL0     O12198   0.506   7.509   1.365 -0.3059 -0.0150  0.2585
   91MOL0     C12199   0.583   7.169   1.364 -0.5941  0.7922  0.6655
   91MOL0     C12200   0.663   7.069   1.306  0.3347  1.3022 -0.4660
   91MOL0     N12201   1.310   7.001   1.157  0.1736  1.0566  0.0363
   91MOL0     N12202   1.368   7.110   1.131  0.1822 -0.2710  0.1314
   91MOL0     C12203   1.871   8.249   1.199 -0.0518  0.1030 -0.2756
   91MOL0     C12204   1.985   8.330   1.190 -0.3083  0.4756 -0.1437
   91MOL0     C12205   2.336   8.599   1.314  0.7938 -0.6370  0.3040
   91MOL0     C12206   2.315   8.715   1.234  0.1403 -0.2410  0.7501
   91MOL0     C12207   2.422   8.809   1.226 -0.3909 -0.1768  0.3812
   91MOL0     C12208   2.539   8.791   1.296  0.9839  0.5362 -0.0351
   91MOL0     O12209   2.654   8.869   1.284 -0.7737  0.2872 -0.2802
   91MOL0     C12210   2.641   9.003   1.261  0.5291 -0.1531  0.3919
   91MOL0     C12211   2.770   9.079   1.304 -0.4907 -0.3592 -0.0157
   91MOL0     C12212   2.746   9.223   1.337 -0.8532 -0.1560 -0.1643
   91MOL0     C12213   2.842   9.310   1.261 -0.6665 -0.0540  0.8816
   91MOL0     C12214   2.802   9.445   1.301  0.7091 -0.6147  0.2029
   91MOL0     C12215   2.761   9.550   1.348  0.3087  0.0393  0.0100
   91MOL0     C12216   2.549   8.685   1.384  0.3629 -0.5900 -0.3973
   91MOL0     C12217   2.445   8.591   1.391 -0.3722 -0.1873 -0.2618
   91MOL0     H12218   1.940   8.544   1.437  3.3435  0.9238 -1.8324
   91MOL0     H12219   1.742   8.411   1.464  2.3256  2.2246 -0.0325
   91MOL0     H12220   1.582   8.196   1.134  1.2310 -1.3164 -0.9021
   91MOL0     H12221   1.684   8.067   1.174 -1.4315 -3.5045  1.6638
   91MOL0     H12222   1.494   8.040   1.379  1.1521  1.7631 -0.5428
   91MOL0     H12223   1.392   8.076   1.250 -0.6844 -2.9512  1.3673
   91MOL0     H12224   1.529   7.896   1.113 -1.2304 -3.1651 -0.7039
   91MOL0     H12225   1.589   7.848   1.269  1.4953 -1.1633 -2.3001
   91MOL0     H12226   1.362   7.817   1.352 -3.2314  4.6961 -0.0063
   91MOL0     H12227   1.290   7.884   1.209 -0.7378  2.4894  2.6405
   91MOL0     H12228   1.416   7.673   1.078  1.5373 -2.3655  0.3560
   91MOL0     H12229   1.471   7.620   1.229 -1.0964 -0.9705  1.2687
   91MOL0     H12230   1.253   7.602   1.321 -0.7658 -3.0519 -0.2092
   91MOL0     H12231   1.177   7.653   1.175 -0.3393  0.5252  0.7463
   91MOL0     H12232   1.157   7.418   1.149 -0.6361  0.2055  1.5330
   91MOL0     H12233   1.295   7.435   1.051  0.0367  2.5913 -0.0047
   91MOL0     H12234   1.371   7.349   1.334 -3.0634  1.3791 -0.1560
   91MOL0     H12235   1.462   7.338   1.176  0.7533  0.7718  1.2094
   91MOL0     H12236   1.178   7.196   1.376  2.5056 -1.1018  1.7586
   91MOL0     H12237   1.227   6.879   1.426  1.5109  0.0756 -1.2830
   91MOL0     H12238   1.069   6.951   1.413  0.6965 -0.2127  2.1700
   91MOL0     H12239   1.072   6.721   1.365  0.2976  1.3668  0.7933
   91MOL0     H12240   1.205   6.743   1.240  0.9938  1.3693  0.8097
   91MOL0     H12241   0.965   6.699   1.160 -2.2681  0.0775  1.2911
   91MOL0     H12242   1.042   6.835   1.083 -0.4943 -2.3601 -0.9731
   91MOL0     H12243   0.875   6.877   1.341  2.0634 -1.6728  0.4787
   91MOL0     H12244   0.790   6.813   1.206  2.1314 -1.6274 -3.3736
   91MOL0     H12245   0.907   7.272   1.174  0.5540 -1.5741  0.3562
   91MOL0     H12246   0.744   7.529   1.174  1.7897 -0.0985  0.5387
   91MOL0     H12247   0.731   7.549   1.346 -0.2966  0.3232  0.3057
   91MOL0     H12248   0.886   7.506   1.271 -0.0452  2.4266 -0.4045
   91MOL0     H12249   0.464   7.414   1.807  0.1454  1.9594  1.4425
   91MOL0     H12250   0.303   7.522   1.924 -0.8768 -0.0408  0.2201
   91MOL0     H12251   0.116   7.610   2.030  1.5555 -0.3839 -1.0047
   91MOL0     H12252   0.150   7.780   1.978  3.9875 -0.5070 -2.8265
   91MOL0     H12253  -0.121   7.651   1.978  0.2331 -0.3610 -2.0150
   91MOL0     H12254  -0.053   7.761   2.097  0.6381  1.9076 -1.0522
   91MOL0     H12255  -0.105   7.827   1.793 -1.9131  1.6896 -1.2852
   91MOL0     H12256  -0.025   7.933   1.916 -2.1491  2.0656 -3.0414
   91MOL0     H12257  -0.312   7.859   1.864 -0.2146 -2.2664  0.4934
   91MOL0     H12258  -0.265   7.870   2.039 -0.8708  5.8464  0.3439
   91MOL0     H12259  -0.164   8.086   1.988 -0.2554 -1.4596  2.2414
   91MOL0     H12260  -0.339   8.063   1.987  1.5420 -1.0430  0.9844
   91MOL0     H12261  -0.211   8.070   1.724 -0.3599  1.0603 -0.8019
   91MOL0     H12262  -0.380   8.036   1.770 -0.3447  0.1205  1.2326
   91MOL0     H12263  -0.390   8.266   1.878 -0.6228  0.9099 -2.1200
   91MOL0     H12264  -0.385   8.260   1.705  0.9708  2.0470 -0.2785
   91MOL0     H12265  -0.163   8.363   1.882 -1.5061 -1.3105 -0.1859
   91MOL0     H12266  -0.245   8.430   1.737 -0.7985 -0.2957 -0.2453
   91MOL0     H12267   0.105   7.633   1.563  1.5997  2.4446 -0.1858
   91MOL0     H12268   0.261   7.486   1.439 -0.2664 -0.9643  0.0185
   91MOL0     H12269   0.489   7.128   1.401 -0.0589 -1.0268  0.1087
   91MOL0     H12270   0.630   6.966   1.314  1.8478  0.7318 -1.3138
   91MOL0     H12271   1.878   8.161   1.136  0.3748 -0.6543  0.8029
   91MOL0     H12272   2.064   8.303   1.121  0.2507  1.9175 -0.1058
   91MOL0     H12273   2.220   8.723   1.182 -0.3986  0.0008  1.7474
   91MOL0     H12274   2.412   8.897   1.163  2.7174  1.2688  1.6923
   91MOL0     H12275   2.629   9.011   1.153 -0.1832  2.1734  0.5978
   91MOL0     H12276   2.548   9.037   1.307 -0.9292  0.8139 -2.9527
   91MOL0     H12277   2.847   9.073   1.226 -0.3295  1.6164 -0.0505
   91MOL0     H12278   2.813   9.015   1.382  0.2648 -2.9183 -2.3926
   91MOL0     H12279   2.765   9.231   1.445  1.9506 -1.2483 -0.4684
   91MOL0     H12280   2.639   9.240   1.329 -0.6101  0.6930 -2.0485
   91MOL0     H12281   2.836   9.295   1.153 -0.3726 -2.6322  1.1659
   91MOL0     H12282   2.945   9.291   1.291  1.2266 -0.4971 -4.7338
   91MOL0     H12283   2.714   9.638   1.387 -0.5450 -0.9738  1.3714
   91MOL0     H12284   2.641   8.685   1.441  0.1991 -0.1079 -0.1283
   91MOL0     H12285   2.460   8.498   1.444 -1.6641 -0.5388 -0.4758
   92MOL0     O12286   8.835   1.640   4.089 -0.1493  0.1913 -0.4306
   92MOL0     C12287   8.958   1.643   4.104  0.6172  1.1058 -0.0073
   92MOL0     O12288   9.015   1.607   4.221 -0.2776  0.9720 -0.5070
   92MOL0     C12289   8.957   1.505   4.294 -0.3107 -0.1788  0.0524
   92MOL0     C12290   9.001   1.502   4.420 -0.1489  0.1817 -0.4750
   92MOL0     C12291   8.946   1.410   4.511  0.9666 -1.1573 -0.7080
   92MOL0     C12292   8.848   1.320   4.470  0.0773  0.5268 -0.5600
   92MOL0     O12293   8.805   1.220   4.550  0.1272  0.0686 -0.3101
   92MOL0     C12294   8.667   1.217   4.586  0.7646 -0.1492  0.5115
   92MOL0     C12295   8.657   1.091   4.686 -0.4674 -0.4983  1.0831
   92MOL0     C12296   8.517   1.089   4.744  0.5715  0.3761 -0.0314
   92MOL0     C12297   8.443   0.939   4.746  0.1930 -1.0322  0.0878
   92MOL0     C12298   8.301   0.936   4.808 -1.3366 -1.0641  0.2630
   92MOL0     C12299   8.246   0.789   4.811  1.5554  0.9634 -0.0957
   92MOL0     C12300   8.213   0.736   4.671 -0.8494  0.0522 -0.4782
   92MOL0     C12301   8.241   0.585   4.659  0.5720 -0.1559  0.1380
   92MOL0     N12302   8.131   0.496   4.705  0.8164  0.9909 -0.7408
   92MOL0     C12303   8.007   0.469   4.654  0.0608  0.9041 -0.2074
   92MOL0     C12304   7.938   0.398   4.749  0.0766 -0.2618 -0.2327
   92MOL0     C12305   7.814   0.334   4.724  0.1081  0.1711  0.2851
   92MOL0     C12306   7.836   0.205   4.655  0.9839  0.6698  0.7557
   92MOL0     C12307   7.763   0.176   4.522  0.9416  0.0986 -0.4807
   92MOL0     C12308   7.608   0.157   4.545 -0.2324 -0.3201  0.8441
   92MOL0     O12309   7.533   0.278   4.554 -0.2143  0.0029 -0.0904
   92MOL0     C12310   7.414   0.271   4.611  0.4800 -0.1511 -0.4624
   92MOL0     C12311   7.353   0.397   4.642 -0.0194 -0.2357  0.2461
   92MOL0     C12312   7.224   0.400   4.709  0.6089  0.3627  0.4748
   92MOL0     C12313   7.169   0.536   4.730  0.4993 -0.2932 -0.7589
   92MOL0     C12314   7.154   0.276   4.725 -0.1888  0.0743  0.0260
   92MOL0     C12315   7.012   0.279   4.771 -1.0008  0.6653 -0.1800
   92MOL0     O12316   6.985   0.184   4.870  0.1286 -0.8620 -0.6787
   92MOL0     C12317   6.870   0.192   4.950 -0.4018 -0.7818  0.0088
   92MOL0     C12318   6.745   0.233   4.895 -0.4052 -0.0465 -0.6649
   92MOL0     C12319   6.636   0.247   4.986  0.2494  0.6792  0.0272
   92MOL0     C12320   6.647   0.206   5.126  0.8114  0.4562  0.4565
   92MOL0     O12321   6.542   0.214   5.211  0.1607  0.1826 -0.3506
   92MOL0     C12322   6.432   0.302   5.171 -0.3818  0.5441 -1.2010
   92MOL0     C12323   6.319   0.267   5.265 -0.7320  0.4801 -0.6042
   92MOL0     C12324   6.338   0.314   5.404  0.1829 -0.2609 -1.6284
   92MOL0     C12325   6.207   0.367   5.471 -0.3572 -1.3350 -0.3053
   92MOL0     C12326   6.219   0.387   5.626  0.4996  0.5775 -0.2620
   92MOL0     C12327   6.150   0.258   5.674 -0.5886 -0.8822  0.2148
   92MOL0     C12328   6.162   0.243   5.825  1.1881  0.9587  0.4462
   92MOL0     C12329   6.073   0.126   5.875 -0.1384  0.4030 -0.5538
   92MOL0    Cl12330   5.902   0.180   5.852  0.9593  0.0889 -0.1219
   92MOL0     C12331   6.776   0.161   5.168  0.1336  0.4933 -0.9381
   92MOL0     C12332   6.882   0.150   5.080  0.3318 -0.5934 -0.4037
   92MOL0     O12333   6.939   0.366   4.723  0.0599  0.6445  0.2771
   92MOL0     C12334   7.209   0.160   4.685  0.6591  0.3936  1.2478
   92MOL0     C12335   7.335   0.150   4.633 -0.0004 -0.5543 -0.5243
   92MOL0     N12336   8.024   0.382   4.861 -0.2378  0.4329  0.3485
   92MOL0     N12337   8.137   0.442   4.833 -0.7660 -1.0843  0.5997
   92MOL0     C12338   8.816   1.316   4.336 -0.3763 -0.9697 -0.0927
   92MOL0     C12339   8.876   1.403   4.253  0.9321  0.2935 -0.5720
   92MOL0     C12340   9.056   1.674   4.000 -0.8909  0.1606  0.3310
   92MOL0     C12341   9.185   1.621   4.003  0.5412  0.9028 -0.1701
   92MOL0     C12342   9.276   1.650   3.910 -0.2854  0.1100  0.6851
   92MOL0     C12343   9.245   1.723   3.801 -1.1760 -0.0437  0.1888
   92MOL0     O12344   9.349   1.731   3.707  0.2750 -0.4505 -0.2327
   92MOL0     C12345   9.383   1.858   3.660  0.0433 -0.8043 -0.2541
   92MOL0     C12346   9.486   1.912   3.759 -0.6918 -0.5205 -0.4223
   92MOL0     C12347   9.616   1.829   3.738  0.2747  0.4752  0.6636
   92MOL0     C12348   9.713   1.847   3.846 -0.7680 -1.1869  0.5167
   92MOL0     C12349   9.649   1.831   3.973 -0.0677  0.7505  0.3058
   92MOL0     C12350   9.593   1.822   4.083 -0.4488 -1.4513 -0.3330
   92MOL0     C12351   9.115   1.782   3.785 -0.4300  0.0387 -0.3288
   92MOL0     C12352   9.021   1.761   3.894 -1.2612 -0.7026 -0.3903
   92MOL0     H12353   9.069   1.579   4.456  0.6038  0.5550 -2.5948
   92MOL0     H12354   8.959   1.418   4.618 -4.2885  0.2823  0.1083
   92MOL0     H12355   8.626   1.310   4.627 -2.0006 -0.5450 -1.0857
   92MOL0     H12356   8.607   1.198   4.496  2.1542 -1.5832 -0.1533
   92MOL0     H12357   8.644   1.007   4.617 -0.6892  0.5879 -0.2604
   92MOL0     H12358   8.733   1.087   4.764 -0.0448  0.1874  0.7221
   92MOL0     H12359   8.516   1.127   4.847 -1.7649 -1.2914  0.6461
   92MOL0     H12360   8.455   1.162   4.691  1.0858 -0.6147 -2.1143
   92MOL0     H12361   8.442   0.901   4.644  0.0926  1.4040 -0.8623
   92MOL0     H12362   8.514   0.878   4.804  1.4350 -0.2267 -0.5626
   92MOL0     H12363   8.315   0.976   4.909  0.6391 -1.4617  0.1941
   92MOL0     H12364   8.228   0.994   4.751  0.4237  0.8276 -0.1992
   92MOL0     H12365   8.321   0.722   4.853  1.8191  1.0281 -0.4533
   92MOL0     H12366   8.150   0.788   4.862  3.5839  3.2050  4.3420
   92MOL0     H12367   8.109   0.757   4.646 -0.6797 -0.4527 -1.6875
   92MOL0     H12368   8.284   0.786   4.605 -0.3931  1.2947  0.8873
   92MOL0     H12369   8.336   0.551   4.703  0.9515 -1.7420 -1.7928
   92MOL0     H12370   8.254   0.568   4.552 -1.1026 -2.3234  0.2069
   92MOL0     H12371   7.965   0.495   4.558  0.4440 -0.2045 -0.6949
   92MOL0     H12372   7.773   0.309   4.823 -1.0828 -1.1540 -0.5024
   92MOL0     H12373   7.745   0.395   4.664 -2.1039 -1.5373  0.9482
   92MOL0     H12374   7.815   0.130   4.732  1.0574  0.8133  0.9161
   92MOL0     H12375   7.944   0.194   4.642  0.9079 -0.7764  1.1143
   92MOL0     H12376   7.802   0.092   4.465  2.2940  0.6834 -0.4739
   92MOL0     H12377   7.782   0.258   4.452  1.4271 -0.3484 -0.8735
   92MOL0     H12378   7.612   0.109   4.643 -0.9023  0.1264  1.0994
   92MOL0     H12379   7.562   0.107   4.460  1.9923  3.4078 -2.9217
   92MOL0     H12380   7.406   0.489   4.623 -0.8570  0.4398  1.0863
   92MOL0     H12381   7.170   0.593   4.636  1.1149 -1.7786 -1.6916
   92MOL0     H12382   7.070   0.540   4.775 -0.4032 -0.3813 -2.6280
   92MOL0     H12383   7.236   0.592   4.796 -0.8783 -0.1153  0.5311
   92MOL0     H12384   6.730   0.273   4.795  1.5779 -1.4739 -1.5930
   92MOL0     H12385   6.542   0.281   4.944 -0.6873 -1.5337  0.1655
   92MOL0     H12386   6.459   0.408   5.172 -1.6708  0.9570  2.0226
   92MOL0     H12387   6.381   0.281   5.076 -2.1847 -2.0882  0.2248
   92MOL0     H12388   6.237   0.322   5.218 -3.3018 -0.2456  2.7338
   92MOL0     H12389   6.305   0.159   5.261 -0.5994  0.4045  0.7183
   92MOL0     H12390   6.430   0.372   5.412 -0.0808  0.0532 -0.7911
   92MOL0     H12391   6.363   0.221   5.455  1.1942  0.8328 -0.0452
   92MOL0     H12392   6.195   0.464   5.421 -0.2211 -1.0826  0.1368
   92MOL0     H12393   6.129   0.304   5.429  0.0420 -1.7615 -0.4150
   92MOL0     H12394   6.149   0.467   5.651 -3.0193 -1.1167 -3.5408
   92MOL0     H12395   6.321   0.404   5.660  0.5938 -1.9542  0.9412
   92MOL0     H12396   6.046   0.261   5.639  0.1297 -1.5661 -2.1156
   92MOL0     H12397   6.202   0.173   5.629 -0.9920 -1.4933  0.8759
   92MOL0     H12398   6.123   0.331   5.876 -1.7364 -2.0014  3.9331
   92MOL0     H12399   6.267   0.221   5.845  0.5866 -0.2869  2.5368
   92MOL0     H12400   6.087   0.108   5.982 -2.6963 -0.0196 -0.2090
   92MOL0     H12401   6.088   0.032   5.821 -0.2841  0.5334 -0.8233
   92MOL0     H12402   6.782   0.122   5.269  0.6704 -1.1073 -1.5578
   92MOL0     H12403   6.974   0.111   5.122  0.0586 -2.0022 -1.0474
   92MOL0     H12404   7.161   0.064   4.700  1.1696  0.2003  1.7111
   92MOL0     H12405   7.371   0.049   4.617  2.3161  0.4271 -2.0023
   92MOL0     H12406   8.742   1.240   4.312  0.7381 -1.6680 -1.4326
   92MOL0     H12407   8.840   1.400   4.151  0.4153  3.5204 -0.5985
   92MOL0     H12408   9.215   1.559   4.086  0.6174 -1.5600 -1.9500
   92MOL0     H12409   9.372   1.600   3.910 -1.6090 -2.6297  2.0923
   92MOL0     H12410   9.436   1.861   3.564  0.9122  3.0384  0.1415
   92MOL0     H12411   9.297   1.926   3.662  0.4614 -0.2732  1.0685
   92MOL0     H12412   9.437   1.901   3.856 -0.1499 -0.1740 -0.1048
   92MOL0     H12413   9.515   2.016   3.740  1.1561 -0.8791  0.2150
   92MOL0     H12414   9.674   1.865   3.653 -1.4133  1.5885 -0.0814
   92MOL0     H12415   9.590   1.725   3.719 -1.7284  1.3779 -2.2288
   92MOL0     H12416   9.755   1.948   3.847 -2.3000 -0.5174  1.2133
   92MOL0     H12417   9.797   1.778   3.833  1.3481  1.4162 -0.7435
   92MOL0     H12418   9.541   1.827   4.176 -0.2619  2.8822 -0.2952
   92MOL0     H12419   9.102   1.826   3.687  1.3904  3.1654  0.6727
   92MOL0     H12420   8.929   1.814   3.872 -0.7009 -0.1670 -1.4867
   93MOL0     O12421  10.481   5.916  10.836  0.3444  0.0056 -0.3655
   93MOL0     C12422  10.507   5.853  10.729  0.2715 -0.5613 -0.5384
   93MOL0     O12423  10.429   5.851  10.619 -0.4544  0.5364 -0.1047
   93MOL0     C12424  10.324   5.930  10.621 -0.1357  0.3066  0.7353
   93MOL0     C12425  10.292   6.039  10.544 -0.3720 -0.0698  0.0421
   93MOL0     C12426  10.157   6.085  10.552  0.4433 -1.1418 -0.6729
   93MOL0     C12427  10.068   6.043  10.654 -0.1412  0.6834 -1.8425
   93MOL0     O12428   9.943   6.082  10.677  0.0077 -0.3764  0.0555
   93MOL0     C12429   9.916   6.221  10.684  1.3455 -0.0882  0.6334
   93MOL0     C12430   9.845   6.272  10.808 -0.0526 -0.0810 -0.8322
   93MOL0     C12431   9.846   6.430  10.827 -1.0491 -0.2778  0.1675
   93MOL0     C12432   9.778   6.466  10.959 -0.2094  0.0017  0.3567
   93MOL0     C12433   9.792   6.610  11.007 -0.4759 -0.1164  0.9752
   93MOL0     C12434   9.729   6.643  11.144  0.1586  0.0110  0.0489
   93MOL0     C12435   9.813   6.743  11.226  0.3139  0.6794  0.2593
   93MOL0     C12436   9.759   6.746  11.365 -1.5381  0.6026  0.0496
   93MOL0     N12437   9.831   6.852  11.438 -0.4593 -0.0631 -0.9348
   93MOL0     C12438   9.959   6.860  11.493 -0.3387  0.4491 -1.0646
   93MOL0     C12439   9.974   6.984  11.530  0.8897  0.4780 -0.2575
   93MOL0     C12440  10.100   7.022  11.607 -0.3296 -0.0574 -0.4184
   93MOL0     C12441  10.196   7.123  11.542 -0.2143 -1.4410  0.9263
   93MOL0     C12442  10.105   7.249  11.504 -0.6853  0.8206 -0.7079
   93MOL0     C12443  10.188   7.365  11.456 -0.5583 -0.0837  0.5282
   93MOL0     O12444  10.302   7.319  11.379  1.4403 -0.3065 -0.2981
   93MOL0     C12445  10.301   7.323  11.237 -0.2507 -0.4301  0.0013
   93MOL0     C12446  10.421   7.331  11.174  0.8861  0.1267  0.6718
   93MOL0     C12447  10.434   7.362  11.038  1.0149 -0.0845 -0.4055
   93MOL0     C12448  10.570   7.422  10.995  0.0557  0.3200  0.2677
   93MOL0     C12449  10.322   7.360  10.957 -0.3941 -0.4953 -0.6092
   93MOL0     C12450  10.331   7.391  10.809 -0.3704  0.1003  0.6179
   93MOL0     O12451  10.241   7.486  10.768 -0.1604  0.6695  0.1575
   93MOL0     C12452  10.240   7.522  10.642  0.2538 -0.4681 -0.7084
   93MOL0     C12453  10.290   7.651  10.620  1.2246  0.5837  0.8292
   93MOL0     C12454  10.300   7.695  10.491  0.7509 -0.5228  0.2889
   93MOL0     C12455  10.244   7.621  10.383  0.1050  0.4627 -0.0684
   93MOL0     O12456  10.244   7.680  10.255  0.2546 -0.5617  0.4204
   93MOL0     C12457  10.222   7.818  10.232 -1.0191 -0.4298  0.3367
   93MOL0     C12458  10.226   7.823  10.080 -0.2228 -0.3572  0.6088
   93MOL0     C12459  10.138   7.943  10.022 -1.3889  0.0152  0.1167
   93MOL0     C12460  10.111   7.897   9.881  0.8195 -0.6275  0.7983
   93MOL0     C12461  10.061   8.029   9.811  0.0627 -0.3469  0.6795
   93MOL0     C12462   9.922   8.070   9.864 -0.5008 -0.4201  0.4341
   93MOL0     C12463   9.879   8.207   9.822  0.4598  1.4691  0.2395
   93MOL0     C12464   9.744   8.246   9.892 -0.3262  0.2821  0.1673
   93MOL0    Cl12465   9.763   8.270  10.069 -0.1019 -0.2162  0.3599
   93MOL0     C12466  10.189   7.490  10.402  0.3520  0.0369  0.2156
   93MOL0     C12467  10.188   7.439  10.534  1.0921 -0.4745  0.3279
   93MOL0     O12468  10.414   7.338  10.735  0.3733 -0.3189 -0.2793
   93MOL0     C12469  10.196   7.355  11.018  0.6506  1.1440 -0.0746
   93MOL0     C12470  10.183   7.331  11.158  0.7879 -0.2568  0.6198
   93MOL0     N12471   9.864   7.060  11.497  0.7102  0.3920 -0.0627
   93MOL0     N12472   9.781   6.976  11.437 -0.0468 -0.9842 -0.0570
   93MOL0     C12473  10.100   5.927  10.719 -0.4341  0.3961 -0.1409
   93MOL0     C12474  10.231   5.862  10.697  1.1809  0.3533 -0.1082
   93MOL0     C12475  10.646   5.788  10.717 -0.9847 -1.0174  0.3529
   93MOL0     C12476  10.713   5.759  10.595  0.4165 -1.1466 -0.6363
   93MOL0     C12477  10.835   5.703  10.594  0.7508 -0.5860  1.0036
   93MOL0     C12478  10.902   5.669  10.714  0.2007  0.4412 -0.2150
   93MOL0     O12479  11.026   5.611  10.702 -0.1051 -0.0370 -0.4217
   93MOL0     C12480  11.065   5.531  10.822  0.6170 -1.4249 -0.4454
   93MOL0     C12481  11.195   5.455  10.790  0.6749  0.1270  0.1972
   93MOL0     C12482  11.200   5.345  10.674 -2.5705  0.6389 -0.6389
   93MOL0     C12483  11.097   5.238  10.667 -0.1513  0.8941 -1.2411
   93MOL0     C12484  11.116   5.126  10.761  0.3005 -0.4749  1.1210
   93MOL0     C12485  11.149   5.051  10.852  0.3475  0.0387 -1.0032
   93MOL0     C12486  10.838   5.694  10.833 -0.9003  1.3213 -0.0097
   93MOL0     C12487  10.709   5.750  10.842  0.4773 -0.3044 -0.8338
   93MOL0     H12488  10.357   6.065  10.461 -0.7793 -0.7851 -0.5103
   93MOL0     H12489  10.134   6.166  10.484 -0.3355 -1.9093 -1.3352
   93MOL0     H12490  10.002   6.283  10.656 -0.0196  0.9124 -1.6026
   93MOL0     H12491   9.836   6.234  10.611 -0.8615  0.1084  2.9398
   93MOL0     H12492   9.742   6.238  10.790  0.5739 -2.4241 -0.3777
   93MOL0     H12493   9.886   6.218  10.894 -1.7071  3.5656  2.6054
   93MOL0     H12494   9.947   6.471  10.838 -1.1007  0.2274 -1.0466
   93MOL0     H12495   9.811   6.483  10.737  4.7088  0.1760 -2.2278
   93MOL0     H12496   9.671   6.454  10.941 -0.9514  3.7920  1.3495
   93MOL0     H12497   9.805   6.399  11.042 -1.7185 -1.0926  0.0035
   93MOL0     H12498   9.896   6.643  11.017  0.3710 -2.5222  0.8876
   93MOL0     H12499   9.740   6.666  10.929 -2.6163 -2.5120  0.5188
   93MOL0     H12500   9.622   6.664  11.135 -0.0148 -0.3707  1.0915
   93MOL0     H12501   9.720   6.549  11.199 -0.3371  0.0025 -0.0396
   93MOL0     H12502   9.917   6.712  11.230  0.2344  0.5130  1.3337
   93MOL0     H12503   9.790   6.838  11.177 -1.6748 -0.0360 -0.2815
   93MOL0     H12504   9.770   6.648  11.413  3.0603  1.4343  1.1674
   93MOL0     H12505   9.655   6.776  11.351 -0.9288  1.7766 -2.7808
   93MOL0     H12506  10.008   6.766  11.513 -2.6752 -0.7839 -0.8260
   93MOL0     H12507  10.078   7.059  11.707  3.9094 -3.2614  2.0730
   93MOL0     H12508  10.155   6.927  11.610 -2.4416 -1.6990 -4.6714
   93MOL0     H12509  10.238   7.082  11.450 -1.3906  2.3300 -1.5534
   93MOL0     H12510  10.287   7.146  11.597  0.2631 -2.5035  0.5932
   93MOL0     H12511  10.046   7.283  11.590 -2.6101  0.9914 -2.0377
   93MOL0     H12512  10.032   7.233  11.424 -0.6558 -2.2025 -0.2485
   93MOL0     H12513  10.232   7.405  11.548 -2.0158 -0.0548  1.2408
   93MOL0     H12514  10.132   7.445  11.408  0.7310  1.2259  1.1220
   93MOL0     H12515  10.512   7.333  11.234 -0.5464  0.7846  2.9449
   93MOL0     H12516  10.647   7.414  11.072  0.5246  4.5616  0.4428
   93MOL0     H12517  10.605   7.371  10.904 -2.0132  1.0543 -1.0067
   93MOL0     H12518  10.555   7.530  10.994  0.4577  0.4335  2.5344
   93MOL0     H12519  10.342   7.707  10.697  2.3986 -0.6206  0.9502
   93MOL0     H12520  10.327   7.799  10.476 -3.8735  0.7825 -0.7821
   93MOL0     H12521  10.126   7.862  10.261 -0.2259  0.9838  0.9181
   93MOL0     H12522  10.303   7.879  10.274  1.7227 -3.1784 -0.5915
   93MOL0     H12523  10.329   7.835  10.047  1.2666  2.5983  5.2835
   93MOL0     H12524  10.195   7.729  10.035 -1.5620  0.6930 -0.7763
   93MOL0     H12525  10.201   8.032  10.018 -0.3828 -0.7176 -1.4165
   93MOL0     H12526  10.056   7.955  10.094  1.7230  1.0984  3.8359
   93MOL0     H12527  10.205   7.872   9.832  1.4046  0.3537  1.3882
   93MOL0     H12528  10.041   7.813   9.872  0.9114 -0.8674  2.0565
   93MOL0     H12529  10.054   8.012   9.704  0.3948 -5.6996  1.2252
   93MOL0     H12530  10.122   8.118   9.829  0.4190  0.0261 -2.0541
   93MOL0     H12531   9.849   7.999   9.824 -0.3933 -1.1008  1.4022
   93MOL0     H12532   9.921   8.072   9.973 -0.5008  0.4839  0.4269
   93MOL0     H12533   9.877   8.219   9.713 -0.5354  3.3325  0.4293
   93MOL0     H12534   9.955   8.271   9.868 -0.5247  0.6391  3.2343
   93MOL0     H12535   9.675   8.161   9.879  0.5991 -0.4125 -0.2806
   93MOL0     H12536   9.698   8.330   9.839  0.6702  0.3887 -0.5515
   93MOL0     H12537  10.147   7.433  10.321  2.7601 -1.0411 -0.3566
   93MOL0     H12538  10.123   7.352  10.544 -1.7720  1.4878  0.2080
   93MOL0     H12539  10.106   7.363  10.958 -1.5988 -2.6255  2.4450
   93MOL0     H12540  10.089   7.308  11.208  0.7036  1.5965  1.3793
   93MOL0     H12541  10.030   5.880  10.787 -1.8553  1.0168 -1.1088
   93MOL0     H12542  10.259   5.770  10.748  1.2697  0.1836 -0.4611
   93MOL0     H12543  10.681   5.793  10.497  1.3119  0.5585 -0.3723
   93MOL0     H12544  10.888   5.674  10.504 -1.8621  3.3374 -2.1351
   93MOL0     H12545  11.074   5.586  10.916  0.4404  1.1928 -1.8628
   93MOL0     H12546  10.983   5.462  10.843 -1.1585  1.1994  1.9205
   93MOL0     H12547  11.231   5.405  10.881  3.7931 -0.2255 -1.1169
   93MOL0     H12548  11.266   5.534  10.765  0.2359  0.7146  0.7653
   93MOL0     H12549  11.299   5.299  10.679 -2.5557  0.5936 -1.3613
   93MOL0     H12550  11.199   5.406  10.583  1.6307  1.8576 -0.0763
   93MOL0     H12551  11.101   5.196  10.567  1.2384 -1.8134 -0.1572
   93MOL0     H12552  11.000   5.286  10.681  0.6915  2.2345  0.5011
   93MOL0     H12553  11.167   4.980  10.930 -1.2912 -0.5122 -1.0900
   93MOL0     H12554  10.894   5.684  10.926 -1.0633 -1.0609 -0.1076
   93MOL0     H12555  10.661   5.771  10.937 -0.8980  0.4041 -1.6453
   94MOL0     O12556  11.077   5.980   9.981 -0.3579 -0.5872  0.9041
   94MOL0     C12557  11.109   5.919  10.076 -1.1452 -0.7367  0.0078
   94MOL0     O12558  11.028   5.902  10.187  0.9665 -0.2860 -0.0739
   94MOL0     C12559  10.894   5.942  10.198 -0.3789  0.2044 -0.3020
   94MOL0     C12560  10.839   5.981  10.324  0.3173 -0.6107  1.6925
   94MOL0     C12561  10.706   6.006  10.339  0.3497 -0.6531  1.0637
   94MOL0     C12562  10.623   6.000  10.225  1.2039  0.4795  0.3855
   94MOL0     O12563  10.485   6.034  10.236 -0.0464 -0.6875  0.1351
   94MOL0     C12564  10.452   6.164  10.184 -0.0699  0.1185 -0.1798
   94MOL0     C12565  10.304   6.200  10.200  0.1594  0.5160  0.5449
   94MOL0     C12566  10.216   6.093  10.138 -0.3609 -0.4917 -0.1299
   94MOL0     C12567  10.071   6.120  10.144  0.2487 -0.3725 -0.4322
   94MOL0     C12568   9.978   5.994  10.130  0.0927 -0.0710  0.0492
   94MOL0     C12569   9.833   6.013  10.180 -0.2836 -0.7257 -0.3300
   94MOL0     C12570   9.759   6.119  10.102  0.9649 -0.1462 -0.3047
   94MOL0     C12571   9.604   6.120  10.144  0.8562 -0.0447  0.2336
   94MOL0     N12572   9.590   6.149  10.286 -0.4108 -0.6002 -0.1653
   94MOL0     C12573   9.580   6.280  10.324 -0.3121 -0.6601  0.2125
   94MOL0     C12574   9.531   6.270  10.451  0.6420 -0.1187 -1.0653
   94MOL0     C12575   9.497   6.387  10.537 -0.3618  0.1465  0.5831
   94MOL0     C12576   9.385   6.471  10.472  0.6671  0.3780  0.5840
   94MOL0     C12577   9.247   6.399  10.490  0.3642 -0.5646 -0.5909
   94MOL0     C12578   9.133   6.487  10.425  0.1674 -0.7646  0.0707
   94MOL0     O12579   9.114   6.615  10.489 -0.2573 -0.3908 -0.9816
   94MOL0     C12580   8.991   6.659  10.468 -0.0834 -0.2254  0.2223
   94MOL0     C12581   8.944   6.762  10.379  0.2972  0.2617  0.7747
   94MOL0     C12582   8.809   6.806  10.365 -0.3855  0.8625  0.3983
   94MOL0     C12583   8.785   6.932  10.282  0.3135  0.2696  0.0991
   94MOL0     C12584   8.712   6.738  10.453 -0.4237 -1.0088 -0.4566
   94MOL0     C12585   8.572   6.778  10.462  0.2014  0.2436  0.7738
   94MOL0     O12586   8.501   6.778  10.576  0.5294 -0.3889 -0.4129
   94MOL0     C12587   8.361   6.771  10.568  0.1680  0.2509 -0.7047
   94MOL0     C12588   8.286   6.860  10.640  0.6709 -1.0269 -0.2389
   94MOL0     C12589   8.144   6.854  10.631  0.4393  1.3463  0.4340
   94MOL0     C12590   8.075   6.766  10.548 -0.3143 -0.1924 -0.4555
   94MOL0     O12591   7.942   6.758  10.553 -0.7662 -0.1147 -0.1234
   94MOL0     C12592   7.875   6.876  10.510 -0.2182  0.0412 -0.2765
   94MOL0     C12593   7.742   6.889  10.585 -0.3834  0.9854 -0.8120
   94MOL0     C12594   7.756   6.899  10.742 -0.5584 -0.6969  0.1949
   94MOL0     C12595   7.776   6.768  10.816  0.0612 -0.0423  0.3918
   94MOL0     C12596   7.779   6.792  10.967 -0.9314  0.3411 -0.1207
   94MOL0     C12597   7.792   6.659  11.056  0.1731 -0.0279 -0.1939
   94MOL0     C12598   7.672   6.568  11.038  0.7536  0.7448 -0.6786
   94MOL0     C12599   7.649   6.473  11.157  0.3416  0.4586  0.1155
   94MOL0    Cl12600   7.763   6.345  11.152  0.2407  0.0626  0.0551
   94MOL0     C12601   8.145   6.683  10.472  0.2725 -0.8834  0.3609
   94MOL0     C12602   8.290   6.675  10.486  0.3292 -0.1495  1.3863
   94MOL0     O12603   8.527   6.791  10.348  0.2308  0.3900  0.6700
   94MOL0     C12604   8.759   6.637  10.536 -0.7342 -0.3325  0.2338
   94MOL0     C12605   8.894   6.608  10.553  0.6229  0.4614  0.6423
   94MOL0     N12606   9.502   6.147  10.476  0.2341  0.6628 -0.6074
   94MOL0     N12607   9.544   6.064  10.379 -0.2644  1.2507 -1.1017
   94MOL0     C12608  10.669   5.962  10.105  0.6918  0.2835 -0.1134
   94MOL0     C12609  10.803   5.943  10.095 -0.7058  0.4971 -0.3276
   94MOL0     C12610  11.251   5.860  10.087  0.6853 -0.5452 -0.4594
   94MOL0     C12611  11.277   5.774  10.191  1.1002  0.4285 -0.4165
   94MOL0     C12612  11.401   5.713  10.201 -0.1301 -1.0732 -1.2283
   94MOL0     C12613  11.505   5.749  10.120  0.9070 -0.5633 -0.6010
   94MOL0     O12614  11.626   5.682  10.141  0.5652  0.4767 -0.2673
   94MOL0     C12615  11.742   5.753  10.114 -0.9016  0.6593  0.4167
   94MOL0     C12616  11.860   5.656  10.100 -0.3910 -0.4960 -0.1000
   94MOL0     C12617  11.850   5.551   9.992 -0.2716 -0.2783  0.2386
   94MOL0     C12618  11.986   5.475   9.981  0.4919 -0.1090  0.0945
   94MOL0     C12619  11.966   5.365   9.884  0.1586  0.4326  0.9438
   94MOL0     C12620  11.941   5.259   9.829 -0.7877  0.3631 -0.2644
   94MOL0     C12621  11.479   5.847  10.019  0.6648 -0.0122  1.0132
   94MOL0     C12622  11.348   5.898  10.002  0.1073 -0.2378 -0.3199
   94MOL0     H12623  10.906   5.979  10.409 -0.4442  0.3808  2.3396
   94MOL0     H12624  10.671   6.049  10.432  3.1671  0.4102  1.7650
   94MOL0     H12625  10.511   6.242  10.234  0.4946 -0.9968  0.9721
   94MOL0     H12626  10.484   6.164  10.079 -1.1428  0.5629 -0.5137
   94MOL0     H12627  10.281   6.231  10.302 -4.5261  2.0391 -0.7412
   94MOL0     H12628  10.283   6.293  10.145  0.5256  1.6685  2.2747
   94MOL0     H12629  10.236   6.088  10.030  0.0363 -0.4583 -0.0600
   94MOL0     H12630  10.245   6.007  10.198 -0.3690 -0.1029  0.4408
   94MOL0     H12631  10.052   6.165  10.242 -0.7117  2.5378 -1.8442
   94MOL0     H12632  10.032   6.192  10.072 -1.5596  0.1880  1.0309
   94MOL0     H12633   9.978   5.964  10.025 -0.2054 -3.0558  0.8090
   94MOL0     H12634  10.012   5.908  10.188  0.2362 -0.3315 -0.4187
   94MOL0     H12635   9.781   5.917  10.176  2.1783 -2.1005 -2.0060
   94MOL0     H12636   9.838   6.035  10.287  2.0298 -0.0889 -0.5107
   94MOL0     H12637   9.797   6.215  10.138  2.0469 -2.2095  4.9277
   94MOL0     H12638   9.770   6.110   9.993 -1.4825  2.8066 -0.8984
   94MOL0     H12639   9.568   6.017  10.130 -0.0457  0.5272 -2.2067
   94MOL0     H12640   9.547   6.190  10.082 -0.9382 -0.8209  0.9401
   94MOL0     H12641   9.608   6.372  10.273 -2.4404  1.2570  2.2347
   94MOL0     H12642   9.463   6.340  10.629 -0.6399 -0.5781  0.1237
   94MOL0     H12643   9.587   6.448  10.549  0.0772 -0.7618  2.1921
   94MOL0     H12644   9.406   6.504  10.370 -0.2524 -0.2730  0.1708
   94MOL0     H12645   9.368   6.563  10.530 -1.1525  1.7900 -1.9547
   94MOL0     H12646   9.241   6.378  10.597  3.5347  2.0267  0.2300
   94MOL0     H12647   9.250   6.302  10.439  1.9177 -0.3313 -0.9796
   94MOL0     H12648   9.037   6.435  10.416 -0.8206  0.8640  0.6133
   94MOL0     H12649   9.174   6.516  10.328 -0.5749  1.3332  0.3238
   94MOL0     H12650   9.010   6.805  10.305 -1.1577  2.7132  0.8218
   94MOL0     H12651   8.750   6.899  10.184 -4.1544 -0.7027  1.7843
   94MOL0     H12652   8.701   6.989  10.323 -0.6300 -0.9423 -0.0958
   94MOL0     H12653   8.874   6.995  10.282 -0.0102  0.7380  0.1159
   94MOL0     H12654   8.339   6.933  10.700  1.6943 -2.6933  0.9564
   94MOL0     H12655   8.087   6.928  10.687 -0.9826 -0.2053  1.1036
   94MOL0     H12656   7.929   6.969  10.534  3.4786 -1.7227 -1.0508
   94MOL0     H12657   7.855   6.881  10.402  1.6721  2.4520 -0.6237
   94MOL0     H12658   7.679   6.965  10.537 -1.5828 -0.0984 -1.0009
   94MOL0     H12659   7.684   6.798  10.571 -2.0954  0.4994  5.8610
   94MOL0     H12660   7.675   6.952  10.794 -0.2942 -0.2055  0.1170
   94MOL0     H12661   7.841   6.962  10.768  1.7246 -2.2168 -2.9325
   94MOL0     H12662   7.688   6.704  10.803  0.3677 -0.4828  0.4550
   94MOL0     H12663   7.863   6.712  10.779 -1.8820 -1.9288 -1.6536
   94MOL0     H12664   7.688   6.847  10.995 -2.1085  1.0656 -4.5481
   94MOL0     H12665   7.869   6.845  10.997 -2.3018  2.2849  0.8005
   94MOL0     H12666   7.872   6.594  11.021 -0.4723 -0.4758 -0.8852
   94MOL0     H12667   7.799   6.702  11.156 -0.3079  1.1253 -0.6337
   94MOL0     H12668   7.667   6.513  10.944  2.6833 -0.6658 -0.0187
   94MOL0     H12669   7.578   6.624  11.031 -0.1407 -0.9215 -2.9035
   94MOL0     H12670   7.550   6.427  11.168  1.6857 -2.6469  0.0604
   94MOL0     H12671   7.665   6.540  11.242 -2.3184  1.5885 -0.1462
   94MOL0     H12672   8.096   6.611  10.407 -1.0304 -1.6456  2.0964
   94MOL0     H12673   8.344   6.605  10.423 -0.3018  1.9296 -1.7234
   94MOL0     H12674   8.691   6.566  10.581  0.4525 -0.6223  1.6631
   94MOL0     H12675   8.919   6.526  10.620  2.6273 -0.4260 -1.1166
   94MOL0     H12676  10.620   5.975  10.009 -1.5213  0.6918  1.0222
   94MOL0     H12677  10.847   5.907  10.002  0.3636  0.1166  0.3010
   94MOL0     H12678  11.197   5.743  10.257 -0.3190  0.8795 -1.8543
   94MOL0     H12679  11.428   5.652  10.287  2.3479  0.8594 -0.4759
   94MOL0     H12680  11.721   5.807  10.021 -0.0121 -0.8795 -0.7162
   94MOL0     H12681  11.772   5.820  10.194  1.8416 -0.3073  0.3075
   94MOL0     H12682  11.867   5.610  10.199  2.0614 -0.7275 -0.3303
   94MOL0     H12683  11.950   5.718  10.102 -0.7822  0.1213 -0.6672
   94MOL0     H12684  11.831   5.594   9.893 -0.3821 -1.8429 -0.4477
   94MOL0     H12685  11.771   5.479  10.013 -1.4553  0.9209  0.0080
   94MOL0     H12686  12.012   5.421  10.072  1.0727 -0.0165 -0.0155
   94MOL0     H12687  12.072   5.534   9.948 -0.2983 -0.2693 -2.4855
   94MOL0     H12688  11.919   5.169   9.775  1.7323 -1.1364  1.0354
   94MOL0     H12689  11.559   5.887   9.957  0.4940 -1.2927 -0.0877
   94MOL0     H12690  11.325   5.969   9.922 -0.5684 -0.3034 -0.1910
   95MOL0     O12691   2.924   8.168   2.893 -0.0632  1.1258 -0.1557
   95MOL0     C12692   3.022   8.190   2.821  0.5352 -0.7074  0.5690
   95MOL0     O12693   3.079   8.317   2.807 -0.0449  0.0269  0.6701
   95MOL0     C12694   3.028   8.425   2.874  0.1129 -0.4084 -0.7083
   95MOL0     C12695   2.895   8.445   2.905 -1.2726  0.6368 -1.0455
   95MOL0     C12696   2.855   8.565   2.984 -0.3787  0.4491  0.7969
   95MOL0     C12697   2.953   8.657   3.026  0.6866 -0.2325  1.0349
   95MOL0     O12698   2.935   8.774   3.096  0.1342  0.1576 -0.2854
   95MOL0     C12699   2.843   8.771   3.213  0.2179  0.0970  1.6428
   95MOL0     C12700   2.909   8.827   3.336  0.3602 -0.1052 -0.3422
   95MOL0     C12701   3.043   8.764   3.356 -0.9424  0.0133 -0.2167
   95MOL0     C12702   3.100   8.793   3.497 -0.6502 -0.0184 -0.1716
   95MOL0     C12703   3.247   8.763   3.494 -0.2961  0.2226  0.0834
   95MOL0     C12704   3.320   8.835   3.615 -0.3645 -0.5364 -0.2968
   95MOL0     C12705   3.335   8.991   3.592 -1.5186 -0.5750  0.2756
   95MOL0     C12706   3.468   9.041   3.539  0.7960  0.2472 -1.1007
   95MOL0     N12707   3.557   9.076   3.648 -0.8746 -0.2572 -0.4002
   95MOL0     C12708   3.620   8.986   3.726  0.0580 -0.0111 -0.6575
   95MOL0     C12709   3.661   9.068   3.834 -0.1843  0.3080  0.6877
   95MOL0     C12710   3.722   9.022   3.956 -0.7228 -0.4847 -0.5974
   95MOL0     C12711   3.829   8.911   3.948  0.2418  1.4472 -0.5025
   95MOL0     C12712   3.841   8.833   4.086  0.0126  1.1025 -0.2026
   95MOL0     C12713   3.899   8.919   4.191 -0.4706 -0.5326  0.1163
   95MOL0     O12714   4.031   8.978   4.162  0.5295 -0.7903  0.2605
   95MOL0     C12715   4.079   9.053   4.263  0.6314 -0.4060 -0.2456
   95MOL0     C12716   4.037   9.050   4.394 -0.2583  0.0235 -0.1538
   95MOL0     C12717   4.093   9.138   4.490 -0.0575  0.4161 -0.0259
   95MOL0     C12718   4.054   9.116   4.632  0.6489  0.0668 -0.1983
   95MOL0     C12719   4.195   9.235   4.452  0.4734  0.8148  0.0759
   95MOL0     C12720   4.251   9.336   4.545 -0.4902  0.1605 -0.1004
   95MOL0     O12721   4.249   9.473   4.493 -0.0711 -0.2880 -0.3610
   95MOL0     C12722   4.319   9.563   4.560  0.8906 -0.3958  0.7083
   95MOL0     C12723   4.286   9.637   4.669 -0.1165 -0.1427 -0.3684
   95MOL0     C12724   4.350   9.744   4.710 -0.2327 -0.1407 -0.5852
   95MOL0     C12725   4.466   9.784   4.646 -0.7096 -0.2923  0.0619
   95MOL0     O12726   4.527   9.898   4.691 -0.0113 -0.0251 -0.4254
   95MOL0     C12727   4.561  10.000   4.592  0.3982 -0.9137  0.4649
   95MOL0     C12728   4.538  10.139   4.637  0.7820 -0.8305  0.2894
   95MOL0     C12729   4.602  10.247   4.542 -0.4060  1.0965  0.1192
   95MOL0     C12730   4.561  10.397   4.559 -0.0716 -0.0059 -0.6401
   95MOL0     C12731   4.682  10.480   4.506  0.6965  0.2455 -0.1308
   95MOL0     C12732   4.644  10.632   4.497  0.1277 -0.5867  0.1297
   95MOL0     C12733   4.769  10.712   4.464  0.4812  0.1093  0.2133
   95MOL0     C12734   4.845  10.745   4.588  0.1690 -0.8335  0.8143
   95MOL0    Cl12735   4.730  10.840   4.696 -0.2962  0.1073  0.2276
   95MOL0     C12736   4.521   9.695   4.552 -0.2848 -0.4024  1.2000
   95MOL0     C12737   4.445   9.593   4.503 -0.4623  0.8218 -0.4351
   95MOL0     O12738   4.304   9.297   4.649 -0.8175 -0.5381  0.3548
   95MOL0     C12739   4.237   9.232   4.317  0.0445  0.2045  1.1865
   95MOL0     C12740   4.179   9.140   4.226 -0.5283  0.3036 -0.3832
   95MOL0     N12741   3.640   9.199   3.809 -0.5715  0.3488 -0.0376
   95MOL0     N12742   3.578   9.210   3.692  0.1506  0.5880 -0.7393
   95MOL0     C12743   3.084   8.639   2.990  0.2553 -0.2388 -0.5961
   95MOL0     C12744   3.118   8.526   2.915  0.7399  0.0318 -0.1529
   95MOL0     C12745   3.057   8.091   2.724 -0.8012  0.7617 -0.2627
   95MOL0     C12746   3.138   8.116   2.607  0.2985  0.2966  0.2602
   95MOL0     C12747   3.174   8.013   2.526 -0.1266  0.7500 -0.2074
   95MOL0     C12748   3.132   7.886   2.551 -1.3807  1.0500  0.3534
   95MOL0     O12749   3.154   7.770   2.469 -0.3848  0.0719  0.0113
   95MOL0     C12750   3.269   7.759   2.384  0.2675 -0.1973 -0.7448
   95MOL0     C12751   3.268   7.630   2.307  0.2405  0.7767 -0.1316
   95MOL0     C12752   3.145   7.639   2.211 -0.4516 -0.1553  0.2509
   95MOL0     C12753   3.044   7.522   2.224  0.4456 -0.2468  0.7848
   95MOL0     C12754   2.959   7.544   2.344 -0.1073 -0.5069  0.5543
   95MOL0     C12755   2.886   7.577   2.435 -0.2976 -0.0067 -0.2483
   95MOL0     C12756   3.045   7.856   2.660  0.1833  0.6727  0.2255
   95MOL0     C12757   2.998   7.961   2.737 -0.1073 -0.4955 -0.2875
   95MOL0     H12758   2.824   8.381   2.854  0.2970 -0.4903 -1.8692
   95MOL0     H12759   2.756   8.599   3.014  0.1057 -0.4509  3.7554
   95MOL0     H12760   2.758   8.836   3.191  2.3692  3.1401  1.7488
   95MOL0     H12761   2.803   8.673   3.241 -0.3536  1.1505  4.9172
   95MOL0     H12762   2.917   8.936   3.327 -1.8928  0.2875  1.6462
   95MOL0     H12763   2.851   8.803   3.424 -0.2258 -1.0259 -0.9687
   95MOL0     H12764   3.049   8.655   3.354  0.5257  0.0649 -0.0687
   95MOL0     H12765   3.111   8.812   3.285  1.1024 -1.2664  0.7777
   95MOL0     H12766   3.092   8.902   3.508 -0.6426 -0.2119  2.3588
   95MOL0     H12767   3.044   8.743   3.576 -0.9230 -0.0332 -0.3721
   95MOL0     H12768   3.265   8.656   3.506  2.7349  0.8824  2.4746
   95MOL0     H12769   3.298   8.811   3.410  1.6490 -1.1504  0.4064
   95MOL0     H12770   3.264   8.808   3.705  1.9836 -2.1112  0.8090
   95MOL0     H12771   3.416   8.790   3.642  1.5948  1.2949 -3.5927
   95MOL0     H12772   3.278   9.026   3.505  3.5195  0.5946 -3.0280
   95MOL0     H12773   3.307   9.046   3.682 -2.2829 -1.7305  0.7702
   95MOL0     H12774   3.434   9.129   3.484 -1.1162 -0.2906 -0.8450
   95MOL0     H12775   3.501   8.962   3.470  3.9531  1.2700 -0.9045
   95MOL0     H12776   3.634   8.879   3.718 -3.1955 -1.0209  3.5068
   95MOL0     H12777   3.777   9.107   3.998  1.5875 -3.3425  2.7515
   95MOL0     H12778   3.644   8.996   4.028  1.6187  0.1635  2.3835
   95MOL0     H12779   3.931   8.934   3.914  0.3074 -0.5633 -1.8342
   95MOL0     H12780   3.791   8.844   3.870 -0.1555 -0.6202  1.3515
   95MOL0     H12781   3.916   8.755   4.070  0.2051  1.5566 -1.5751
   95MOL0     H12782   3.748   8.778   4.105  0.9022 -0.8510 -1.1338
   95MOL0     H12783   3.915   8.846   4.271  0.3880 -0.5067 -0.0294
   95MOL0     H12784   3.831   9.002   4.215  1.2019  1.5562 -1.9142
   95MOL0     H12785   3.957   8.985   4.428 -1.6379  1.3905 -0.7103
   95MOL0     H12786   4.114   9.034   4.673  0.6026 -0.4505 -1.1388
   95MOL0     H12787   4.073   9.214   4.677  0.6477 -0.7576  1.6629
   95MOL0     H12788   3.950   9.091   4.653  1.1822  0.8536  4.2724
   95MOL0     H12789   4.190   9.624   4.719  0.7972  1.0219  1.8061
   95MOL0     H12790   4.301   9.786   4.797 -4.5059 -3.4074 -1.1231
   95MOL0     H12791   4.663   9.990   4.555  0.2122 -2.5255  0.3159
   95MOL0     H12792   4.502   9.991   4.500 -2.6390  1.7845  1.9265
   95MOL0     H12793   4.431  10.162   4.631  1.2378  1.8310  0.9128
   95MOL0     H12794   4.574  10.154   4.739 -3.5965  1.7079  1.7656
   95MOL0     H12795   4.585  10.231   4.435  2.2961  1.2159 -0.4138
   95MOL0     H12796   4.709  10.243   4.567  0.0340 -0.5775 -1.7351
   95MOL0     H12797   4.460  10.420   4.524  0.0185 -0.4945 -1.2294
   95MOL0     H12798   4.563  10.410   4.668  0.4405 -3.9587 -0.0274
   95MOL0     H12799   4.707  10.441   4.407  1.4573  0.8179 -0.1723
   95MOL0     H12800   4.775  10.486   4.563  1.3665  4.4146 -1.2838
   95MOL0     H12801   4.571  10.647   4.417  0.4844 -0.5380 -0.1917
   95MOL0     H12802   4.602  10.657   4.595  3.2982  1.1536  1.1782
   95MOL0     H12803   4.742  10.798   4.401  3.4450  1.5987  0.7754
   95MOL0     H12804   4.840  10.660   4.398 -0.6304  1.4996 -2.2066
   95MOL0     H12805   4.930  10.811   4.569 -1.4175  0.8977 -0.6387
   95MOL0     H12806   4.887  10.663   4.646 -1.6638 -1.6690  1.0532
   95MOL0     H12807   4.626   9.701   4.523 -0.5431 -1.0307  0.0811
   95MOL0     H12808   4.471   9.534   4.416 -2.9149 -0.0922 -0.6452
   95MOL0     H12809   4.310   9.303   4.280  0.3799 -0.1491  1.1663
   95MOL0     H12810   4.203   9.150   4.121  1.8669 -0.2458  0.0559
   95MOL0     H12811   3.160   8.712   3.016 -1.8076  1.1600  2.0179
   95MOL0     H12812   3.219   8.519   2.875  1.0614 -0.2571  0.6735
   95MOL0     H12813   3.168   8.219   2.587  3.2942 -0.1745  1.7466
   95MOL0     H12814   3.227   8.028   2.432  1.1062 -1.2698  0.1108
   95MOL0     H12815   3.279   7.845   2.317 -0.6834  0.1033 -0.5150
   95MOL0     H12816   3.353   7.770   2.453 -0.9939  1.5951  0.5931
   95MOL0     H12817   3.266   7.545   2.375  4.0363  2.5641  2.5629
   95MOL0     H12818   3.357   7.629   2.243 -1.6085  1.4233 -2.8922
   95MOL0     H12819   3.184   7.642   2.108 -2.1202  0.8651 -0.3852
   95MOL0     H12820   3.092   7.733   2.224  1.4172  1.6257 -3.3269
   95MOL0     H12821   3.083   7.421   2.240 -0.4776 -0.9482 -1.1735
   95MOL0     H12822   2.972   7.517   2.143  1.4191 -0.8149 -0.0638
   95MOL0     H12823   2.815   7.617   2.504 -0.1535  0.3573 -0.3075
   95MOL0     H12824   3.010   7.754   2.670 -2.3715  1.1050 -2.5627
   95MOL0     H12825   2.935   7.936   2.821 -3.3407  0.5867 -2.2114
   96MOL0     O12826   7.554   7.750   9.354 -0.5034  0.2415  0.2250
   96MOL0     C12827   7.457   7.685   9.322  0.2192 -1.1260  0.6787
   96MOL0     O12828   7.433   7.626   9.204  0.8851 -0.7699  0.0484
   96MOL0     C12829   7.515   7.656   9.093 -1.0346 -0.5105 -0.1082
   96MOL0     C12830   7.620   7.564   9.064  0.3252  0.7741 -0.0341
   96MOL0     C12831   7.711   7.586   8.959  0.3335  1.1768  0.3638
   96MOL0     C12832   7.722   7.710   8.893  0.5463  1.0390  0.2904
   96MOL0     O12833   7.795   7.731   8.774 -0.1137  0.6758 -0.8237
   96MOL0     C12834   7.939   7.711   8.778  0.4640  0.7107  0.1533
   96MOL0     C12835   7.995   7.783   8.657 -0.1637 -0.0809  1.1781
   96MOL0     C12836   8.153   7.804   8.655  0.7614 -0.1021 -0.1760
   96MOL0     C12837   8.209   7.909   8.552 -0.2094 -0.0237  0.5669
   96MOL0     C12838   8.338   7.863   8.490 -0.4323  0.0785  0.2232
   96MOL0     C12839   8.374   7.935   8.368  0.7921 -1.1936  0.1039
   96MOL0     C12840   8.275   7.900   8.244 -1.0677 -0.2990 -1.3023
   96MOL0     C12841   8.344   7.813   8.142  0.3946 -0.6323  0.6961
   96MOL0     N12842   8.355   7.672   8.194  0.4939  0.5224 -0.3818
   96MOL0     C12843   8.257   7.568   8.200  0.1073 -0.3222 -0.2815
   96MOL0     C12844   8.328   7.464   8.260 -0.4834 -0.6085  0.1479
   96MOL0     C12845   8.288   7.317   8.278  0.9698  0.3256  0.3885
   96MOL0     C12846   8.265   7.237   8.146 -0.2324 -1.0626  0.2528
   96MOL0     C12847   8.381   7.258   8.044 -0.8249 -0.8061 -0.1102
   96MOL0     C12848   8.329   7.285   7.901  0.1843  0.0977 -0.3963
   96MOL0     O12849   8.271   7.412   7.925 -0.5843  0.2327  0.2132
   96MOL0     C12850   8.331   7.524   7.883 -0.5934 -0.5023  0.0099
   96MOL0     C12851   8.246   7.614   7.809 -0.4164  0.4598  0.2088
   96MOL0     C12852   8.297   7.740   7.762 -0.5814  0.4868 -0.1586
   96MOL0     C12853   8.204   7.827   7.688  0.2616 -0.8769 -0.6777
   96MOL0     C12854   8.422   7.775   7.801 -0.8637 -0.4777 -0.8188
   96MOL0     C12855   8.487   7.906   7.751 -0.4792 -0.6061  0.4938
   96MOL0     O12856   8.621   7.920   7.770 -0.5514 -0.2356 -0.6114
   96MOL0     C12857   8.681   8.033   7.707  0.5729 -0.0873  0.2415
   96MOL0     C12858   8.685   8.041   7.562  0.1075  0.5689 -0.1232
   96MOL0     C12859   8.758   8.134   7.496  0.6818 -0.0380 -0.2110
   96MOL0     C12860   8.827   8.231   7.559  0.6814 -0.5973  0.2217
   96MOL0     O12861   8.872   8.345   7.492 -0.5554 -0.7841 -0.0448
   96MOL0     C12862   8.939   8.339   7.369  1.0828  0.1832  0.4069
   96MOL0     C12863   8.970   8.478   7.326  0.5167  0.0423 -0.4269
   96MOL0     C12864   9.084   8.556   7.408  1.1413 -0.3475  0.1165
   96MOL0     C12865   9.157   8.671   7.324  0.8135  0.6091  0.8954
   96MOL0     C12866   9.268   8.742   7.404  0.6330  0.3762 -0.3788
   96MOL0     C12867   9.323   8.865   7.332  0.0102 -0.1593 -0.2480
   96MOL0     C12868   9.219   8.963   7.283 -0.4069  0.5936 -0.3717
   96MOL0     C12869   9.284   9.103   7.263 -0.2035 -0.2059 -0.2558
   96MOL0    Cl12870   9.278   9.193   7.419  0.5808  0.2525 -0.1603
   96MOL0     C12871   8.837   8.227   7.701  0.1259 -0.1207  0.8786
   96MOL0     C12872   8.774   8.121   7.768  0.2098  0.7785  0.4284
   96MOL0     O12873   8.416   7.983   7.694  0.3559 -0.1526  0.0506
   96MOL0     C12874   8.500   7.680   7.868 -0.7439 -0.4627  0.3415
   96MOL0     C12875   8.467   7.556   7.907  0.7832 -0.6470 -1.3374
   96MOL0     N12876   8.457   7.512   8.299  0.3959 -0.4360 -0.2630
   96MOL0     N12877   8.471   7.631   8.270  0.4814 -0.9863  0.7756
   96MOL0     C12878   7.620   7.802   8.920 -0.2644 -0.0825 -0.7401
   96MOL0     C12879   7.521   7.777   9.018 -0.0150  0.9316  0.1981
   96MOL0     C12880   7.351   7.681   9.429 -1.2764 -0.3827 -0.5622
   96MOL0     C12881   7.353   7.769   9.540 -0.6481 -1.2245  0.0758
   96MOL0     C12882   7.253   7.787   9.631  1.1203 -0.3180 -0.2178
   96MOL0     C12883   7.130   7.717   9.606  0.8112  0.9783 -0.3445
   96MOL0     O12884   7.028   7.721   9.702  1.2501  0.4188  0.4414
   96MOL0     C12885   7.033   7.822   9.799  0.0280 -0.1330 -0.2677
   96MOL0     C12886   6.905   7.851   9.877  0.5295 -0.5505 -0.4635
   96MOL0     C12887   6.784   7.852   9.776  0.1382  0.4536  0.0399
   96MOL0     C12888   6.758   8.002   9.728  0.2421  0.3106  0.4117
   96MOL0     C12889   6.831   8.012   9.602 -1.1733 -0.3688 -0.8529
   96MOL0     C12890   6.892   8.015   9.496 -0.6328 -0.1035 -0.7821
   96MOL0     C12891   7.118   7.634   9.495  0.3004 -0.0408 -0.4209
   96MOL0     C12892   7.233   7.611   9.405  0.1033  0.2242  0.1542
   96MOL0     H12893   7.625   7.479   9.130  1.1573  0.6053 -0.2967
   96MOL0     H12894   7.784   7.511   8.932 -0.7563  0.0173  0.5732
   96MOL0     H12895   7.980   7.761   8.866  2.5039  1.4260 -1.1329
   96MOL0     H12896   7.953   7.603   8.771 -3.0492  0.2418 -1.9048
   96MOL0     H12897   7.966   7.723   8.571  1.9570 -0.2281  0.5067
   96MOL0     H12898   7.945   7.880   8.658  0.3452  0.3224 -2.1081
   96MOL0     H12899   8.187   7.847   8.750  1.2641  2.2397 -1.3425
   96MOL0     H12900   8.187   7.702   8.636 -2.6328 -1.4171  0.1610
   96MOL0     H12901   8.130   7.940   8.482  1.4477  2.8931 -0.1825
   96MOL0     H12902   8.228   8.005   8.600 -3.1949 -0.5345  3.1024
   96MOL0     H12903   8.407   7.866   8.574  1.4975  1.9366 -1.3282
   96MOL0     H12904   8.334   7.755   8.469  1.5868  0.1735 -0.8134
   96MOL0     H12905   8.359   8.043   8.384  1.7609 -0.9959 -0.2701
   96MOL0     H12906   8.476   7.924   8.329  1.6899 -0.6018  2.1237
   96MOL0     H12907   8.183   7.850   8.276  1.6472 -4.5716  0.6205
   96MOL0     H12908   8.244   7.997   8.202 -1.9056  1.1267  2.2774
   96MOL0     H12909   8.439   7.865   8.124  0.1296  0.4612  2.2075
   96MOL0     H12910   8.290   7.820   8.047 -0.6765  0.0832  1.3390
   96MOL0     H12911   8.153   7.563   8.167 -0.2966 -2.3304  1.1441
   96MOL0     H12912   8.363   7.263   8.336  1.3126  0.8699  0.4601
   96MOL0     H12913   8.191   7.317   8.328 -0.2435  2.4452 -1.7340
   96MOL0     H12914   8.173   7.264   8.094 -0.4425 -3.4802 -0.7926
   96MOL0     H12915   8.262   7.132   8.177  2.2527 -0.1172  4.5121
   96MOL0     H12916   8.443   7.168   8.045 -1.3352 -1.1737 -0.6440
   96MOL0     H12917   8.445   7.337   8.083 -2.6544 -0.8465  3.4055
   96MOL0     H12918   8.270   7.198   7.871  0.5950 -0.9395  1.6305
   96MOL0     H12919   8.411   7.301   7.829  0.7565  0.8688  0.4033
   96MOL0     H12920   8.141   7.589   7.793 -0.8119  0.4359  2.4745
   96MOL0     H12921   8.232   7.843   7.584 -1.2791 -0.6595 -1.0852
   96MOL0     H12922   8.105   7.781   7.678  0.3074 -1.4433  1.1323
   96MOL0     H12923   8.176   7.919   7.741 -1.5551 -1.3880 -0.6981
   96MOL0     H12924   8.623   7.975   7.502 -0.7116  1.0386  0.1843
   96MOL0     H12925   8.731   8.138   7.391 -1.9911 -1.7234  0.3072
   96MOL0     H12926   9.025   8.276   7.392  1.2241  0.8043  1.6376
   96MOL0     H12927   8.873   8.292   7.295  1.6464 -0.8733  0.5559
   96MOL0     H12928   9.022   8.468   7.230 -1.7487  0.0074 -1.7254
   96MOL0     H12929   8.883   8.541   7.303 -1.5408 -1.9687  1.3041
   96MOL0     H12930   9.156   8.490   7.456  1.3566 -0.6076 -0.5528
   96MOL0     H12931   9.025   8.606   7.486  0.9552 -3.1050  1.8483
   96MOL0     H12932   9.204   8.623   7.237 -3.4343  1.6916 -2.3375
   96MOL0     H12933   9.076   8.737   7.291  0.6105 -1.2209 -2.8213
   96MOL0     H12934   9.359   8.683   7.419  0.6414  0.8488  1.7870
   96MOL0     H12935   9.220   8.768   7.499  0.4571  1.3030 -0.7125
   96MOL0     H12936   9.405   8.918   7.381 -1.2763  2.0793 -0.3477
   96MOL0     H12937   9.378   8.837   7.242  2.9233  0.4843  1.2175
   96MOL0     H12938   9.132   8.978   7.347  2.3904 -0.5482  4.1483
   96MOL0     H12939   9.180   8.924   7.188  1.3371  1.0514 -1.3264
   96MOL0     H12940   9.222   9.140   7.180 -2.4536 -0.6117  1.1634
   96MOL0     H12941   9.385   9.092   7.222 -0.2459  2.4835 -1.2914
   96MOL0     H12942   8.885   8.309   7.753 -0.7886  0.4609  0.8302
   96MOL0     H12943   8.777   8.116   7.877 -1.9272 -0.2677  0.5111
   96MOL0     H12944   8.602   7.711   7.887 -1.9818  3.8117  1.0254
   96MOL0     H12945   8.534   7.491   7.962 -0.6181  0.5078  1.9334
   96MOL0     H12946   7.606   7.891   8.859 -0.9706  3.0898  3.5568
   96MOL0     H12947   7.441   7.846   9.042  1.8560  3.1794  0.3619
   96MOL0     H12948   7.446   7.821   9.562 -0.6556 -1.8805  1.8793
   96MOL0     H12949   7.268   7.860   9.709 -2.1005  1.0600 -0.6962
   96MOL0     H12950   7.105   7.783   9.871 -2.3269 -1.3998  1.5473
   96MOL0     H12951   7.070   7.912   9.749 -2.3502  0.3804 -1.2218
   96MOL0     H12952   6.914   7.947   9.929  1.3442  0.8253 -2.9908
   96MOL0     H12953   6.888   7.774   9.953 -0.6424 -1.4201 -1.5763
   96MOL0     H12954   6.690   7.820   9.823 -0.1316  1.0763 -0.0671
   96MOL0     H12955   6.793   7.780   9.694  0.6502  0.5878 -0.0237
   96MOL0     H12956   6.795   8.076   9.800 -3.1734  1.2940  1.3150
   96MOL0     H12957   6.652   8.020   9.709 -0.3541 -0.4268  2.7737
   96MOL0     H12958   6.960   8.016   9.413 -1.1057 -1.4022 -1.2266
   96MOL0     H12959   7.032   7.572   9.471  1.3801 -1.8239  0.0796
   96MOL0     H12960   7.228   7.545   9.319 -1.9720  0.0669  0.3601
   97MOL0     O12961   3.991   3.236   6.864 -0.1643  0.4432 -0.0880
   97MOL0     C12962   4.023   3.254   6.754 -0.1206 -0.1727 -0.1061
   97MOL0     O12963   3.945   3.278   6.650 -0.8805  0.4249 -0.3212
   97MOL0     C12964   3.807   3.283   6.666 -1.0949 -0.0170  0.4897
   97MOL0     C12965   3.721   3.193   6.728 -0.5545 -0.1047  0.2925
   97MOL0     C12966   3.580   3.198   6.711 -0.2045 -0.9145  0.6876
   97MOL0     C12967   3.529   3.299   6.628  0.0328  0.0491 -0.7941
   97MOL0     O12968   3.394   3.328   6.607  0.1039  0.1914 -0.2775
   97MOL0     C12969   3.308   3.212   6.586 -0.3780 -0.2641  0.4190
   97MOL0     C12970   3.189   3.217   6.682  0.4773 -0.2099 -0.3979
   97MOL0     C12971   3.085   3.309   6.619  0.1359  0.2276 -0.4236
   97MOL0     C12972   2.949   3.316   6.696  0.3288  0.7998  1.0762
   97MOL0     C12973   2.958   3.353   6.847  0.4476 -0.5837 -0.3219
   97MOL0     C12974   2.817   3.324   6.918 -0.6389  0.5295  1.0331
   97MOL0     C12975   2.793   3.176   6.924  0.0799  0.2024 -0.8513
   97MOL0     C12976   2.848   3.112   7.061  1.6980 -0.9199  0.0240
   97MOL0     N12977   2.984   3.075   7.052 -0.4729  0.4073 -0.0051
   97MOL0     C12978   3.034   2.992   6.955 -0.2454 -1.1510  0.9967
   97MOL0     C12979   3.164   2.985   6.988 -0.2408  1.0147  0.3562
   97MOL0     C12980   3.272   2.900   6.919 -0.1029  0.2246 -0.1628
   97MOL0     C12981   3.309   2.779   7.006  0.2341  0.8027 -0.6196
   97MOL0     C12982   3.400   2.691   6.918 -0.4790  0.2734  0.4206
   97MOL0     C12983   3.508   2.755   6.833 -0.1278 -0.2997 -0.1606
   97MOL0     O12984   3.628   2.671   6.818  0.5358 -0.4726  0.8353
   97MOL0     C12985   3.739   2.717   6.752  0.5439 -0.8295  0.1294
   97MOL0     C12986   3.859   2.640   6.758 -0.1039 -0.6518  0.2221
   97MOL0     C12987   3.981   2.696   6.709 -0.0714  0.0915  1.0064
   97MOL0     C12988   4.105   2.603   6.722 -0.1479  0.1626 -0.1664
   97MOL0     C12989   3.985   2.811   6.636 -0.1853 -0.1731  0.4829
   97MOL0     C12990   4.103   2.875   6.568  0.1397  0.4660  0.1756
   97MOL0     O12991   4.219   2.792   6.545 -0.8384 -0.2644 -0.1932
   97MOL0     C12992   4.330   2.835   6.477 -0.5218  0.2495  0.7514
   97MOL0     C12993   4.417   2.934   6.522  0.3350  0.3665 -0.0130
   97MOL0     C12994   4.543   2.950   6.461  0.7097 -0.5010  0.7956
   97MOL0     C12995   4.581   2.862   6.365 -0.1421  0.6094  0.6299
   97MOL0     O12996   4.711   2.870   6.313  0.6269  0.5941  0.0923
   97MOL0     C12997   4.721   2.852   6.164 -0.4080 -0.3485 -0.4494
   97MOL0     C12998   4.639   2.973   6.091  0.0594 -0.1645 -0.7197
   97MOL0     C12999   4.601   2.945   5.950  0.3856 -0.0380 -0.0825
   97MOL0     C13000   4.723   2.879   5.886  0.4250 -0.5280  0.2269
   97MOL0     C13001   4.730   2.905   5.726  0.6916  0.1574 -0.0565
   97MOL0     C13002   4.772   3.050   5.695  0.3813 -0.5149 -0.1153
   97MOL0     C13003   4.782   3.066   5.544  0.1993 -0.2964  0.3978
   97MOL0     C13004   4.787   3.212   5.508  0.4430  1.3988 -0.1294
   97MOL0    Cl13005   4.631   3.294   5.545 -0.1182  0.1601 -0.0742
   97MOL0     C13006   4.491   2.770   6.305 -0.7511 -1.1833 -0.6281
   97MOL0     C13007   4.372   2.750   6.375 -0.7149 -0.2088  0.3924
   97MOL0     O13008   4.104   2.995   6.535  0.1041  0.3379  0.7419
   97MOL0     C13009   3.874   2.888   6.636  0.3556 -0.3006  0.0184
   97MOL0     C13010   3.751   2.851   6.689 -0.1832 -0.4321  0.4337
   97MOL0     N13011   3.190   3.041   7.113 -0.2776  0.7450  0.0892
   97MOL0     N13012   3.085   3.098   7.146  0.2704 -0.6027  0.9044
   97MOL0     C13013   3.620   3.396   6.583  0.4694 -1.3539 -0.1339
   97MOL0     C13014   3.759   3.390   6.602  0.7378 -0.1166  0.8084
   97MOL0     C13015   4.170   3.269   6.727 -0.0858 -0.4792  0.8847
   97MOL0     C13016   4.265   3.235   6.820 -0.1325  0.1679 -0.0791
   97MOL0     C13017   4.399   3.243   6.783  0.5631  0.9006  0.0262
   97MOL0     C13018   4.437   3.293   6.659 -1.4184  0.6013 -0.0059
   97MOL0     O13019   4.571   3.334   6.633  1.0069 -0.3048  0.2852
   97MOL0     C13020   4.686   3.264   6.691 -0.1850 -0.1687 -0.3124
   97MOL0     C13021   4.818   3.308   6.644 -1.1435  1.2004  0.4938
   97MOL0     C13022   4.822   3.261   6.499  0.0235  0.0397 -0.1640
   97MOL0     C13023   4.941   3.284   6.404  0.4033 -0.9990  0.1548
   97MOL0     C13024   4.923   3.228   6.267 -0.3564  1.2427  0.3241
   97MOL0     C13025   4.919   3.188   6.150  0.5728 -0.2884 -0.6951
   97MOL0     C13026   4.338   3.341   6.567 -0.4936 -0.7598  0.8204
   97MOL0     C13027   4.204   3.322   6.603  0.3620  0.0776 -0.0071
   97MOL0     H13028   3.776   3.115   6.780 -2.0162 -0.6184  1.1208
   97MOL0     H13029   3.510   3.130   6.759 -1.8032 -0.4486 -0.8995
   97MOL0     H13030   3.279   3.217   6.481 -5.3672  5.7315  1.4997
   97MOL0     H13031   3.366   3.121   6.604  1.6747  0.8633 -0.1506
   97MOL0     H13032   3.149   3.116   6.699  0.8055  0.1001  2.7270
   97MOL0     H13033   3.221   3.255   6.779  1.3908  1.4737 -1.3253
   97MOL0     H13034   3.117   3.413   6.610 -0.6808  0.3048 -5.4161
   97MOL0     H13035   3.068   3.270   6.518  2.0211  2.1820 -1.5940
   97MOL0     H13036   2.897   3.399   6.648  1.9883 -0.9423 -4.5154
   97MOL0     H13037   2.891   3.226   6.671 -0.4125  2.2684 -3.3456
   97MOL0     H13038   3.027   3.298   6.912  1.4132  2.4767  1.4930
   97MOL0     H13039   2.990   3.458   6.843 -4.2354  1.0874 -0.1136
   97MOL0     H13040   2.811   3.371   7.016 -2.9976  2.7576 -0.0700
   97MOL0     H13041   2.733   3.368   6.864 -0.7643  1.0344  1.6288
   97MOL0     H13042   2.684   3.171   6.928  0.1847 -1.9725  0.9132
   97MOL0     H13043   2.827   3.132   6.830  0.1477  2.0951 -1.7764
   97MOL0     H13044   2.800   3.014   7.071  0.2267 -0.1268  1.1557
   97MOL0     H13045   2.823   3.173   7.149  0.6145 -2.2681  0.6947
   97MOL0     H13046   2.980   2.956   6.868 -0.8073  2.0032 -0.0788
   97MOL0     H13047   3.232   2.865   6.823 -1.6218 -0.0618  0.5433
   97MOL0     H13048   3.353   2.972   6.903 -1.4541  2.1073  1.1055
   97MOL0     H13049   3.220   2.721   7.032  0.6196  0.3040 -0.3953
   97MOL0     H13050   3.368   2.805   7.095  2.3598  1.5219 -2.1744
   97MOL0     H13051   3.326   2.652   6.847  2.0463 -1.6323 -1.3597
   97MOL0     H13052   3.437   2.616   6.988 -0.4897  1.6425  1.9561
   97MOL0     H13053   3.534   2.854   6.873 -0.6318 -0.3959  0.4307
   97MOL0     H13054   3.485   2.783   6.730  2.1682  0.6860 -0.4629
   97MOL0     H13055   3.867   2.544   6.809 -1.2019 -1.3712 -0.8967
   97MOL0     H13056   4.176   2.653   6.789  1.4525 -0.2412 -1.4793
   97MOL0     H13057   4.087   2.506   6.769  0.5150 -0.2522 -0.7399
   97MOL0     H13058   4.150   2.589   6.623 -0.9273  0.2871 -0.5448
   97MOL0     H13059   4.391   2.971   6.621 -0.7383 -1.9197  0.6286
   97MOL0     H13060   4.610   3.031   6.490  0.7362 -0.5154  0.7743
   97MOL0     H13061   4.825   2.880   6.144  0.4865  0.5330  4.2479
   97MOL0     H13062   4.689   2.752   6.132 -0.5981  0.2943 -2.3698
   97MOL0     H13063   4.550   2.998   6.149  1.5398  0.9285  1.2345
   97MOL0     H13064   4.705   3.061   6.095  1.4216 -1.1831  0.7909
   97MOL0     H13065   4.577   3.044   5.909 -0.3912 -0.2676 -0.1968
   97MOL0     H13066   4.511   2.883   5.953  0.4079 -0.0795  3.1781
   97MOL0     H13067   4.815   2.916   5.933  0.7960  2.5228 -2.5701
   97MOL0     H13068   4.706   2.772   5.900  0.6888 -0.7425 -0.9670
   97MOL0     H13069   4.629   2.892   5.687  0.9141  1.2425 -1.0727
   97MOL0     H13070   4.790   2.830   5.674 -0.9068 -0.3491 -1.2429
   97MOL0     H13071   4.696   3.117   5.735 -1.5664 -3.4520  1.4290
   97MOL0     H13072   4.868   3.064   5.746 -0.7663  0.1243  1.9305
   97MOL0     H13073   4.693   3.028   5.492  0.1473 -0.2149  0.4284
   97MOL0     H13074   4.875   3.019   5.510  0.6749  1.1258 -0.3645
   97MOL0     H13075   4.805   3.213   5.400 -1.4052  0.4163 -0.4902
   97MOL0     H13076   4.868   3.263   5.561  0.6272  1.2136 -0.2291
   97MOL0     H13077   4.514   2.705   6.222  3.2515  1.2894 -1.7071
   97MOL0     H13078   4.340   2.649   6.349  1.6266 -0.4249 -2.1202
   97MOL0     H13079   3.868   2.987   6.592 -0.1932  1.1023  3.0016
   97MOL0     H13080   3.661   2.911   6.681 -1.2301 -1.9105  0.7285
   97MOL0     H13081   3.571   3.481   6.537  0.1299 -2.0232 -1.0453
   97MOL0     H13082   3.832   3.465   6.576  1.2227 -0.3651  1.4303
   97MOL0     H13083   4.238   3.197   6.918 -0.9092  1.4539  0.2272
   97MOL0     H13084   4.472   3.231   6.862  0.9866  0.6639 -0.3906
   97MOL0     H13085   4.699   3.266   6.800  2.0143 -1.9738 -0.4726
   97MOL0     H13086   4.656   3.161   6.670 -2.2453  0.5835 -1.2832
   97MOL0     H13087   4.892   3.249   6.699 -0.3734  1.9754  0.3056
   97MOL0     H13088   4.830   3.417   6.649  0.5036  1.0154  1.4318
   97MOL0     H13089   4.733   3.308   6.454 -0.0307  1.5406  1.3934
   97MOL0     H13090   4.803   3.154   6.500 -1.5501  0.1948 -2.8784
   97MOL0     H13091   5.033   3.253   6.454  1.5290  1.1762 -0.4416
   97MOL0     H13092   4.946   3.392   6.387  1.6615 -0.7900  1.6095
   97MOL0     H13093   4.907   3.156   6.048 -4.6278 -0.4204 -0.2836
   97MOL0     H13094   4.357   3.384   6.470  0.0566  0.2811  1.3734
   97MOL0     H13095   4.128   3.347   6.530 -1.9800 -2.6905  1.2738
   98MOL0     O13096   5.219   7.130   2.980 -0.7184  0.5458  0.1757
   98MOL0     C13097   5.149   7.118   2.879  0.1825  0.0915  0.9078
   98MOL0     O13098   5.140   7.007   2.802  0.4448  0.7861  1.0719
   98MOL0     C13099   5.235   6.909   2.827  0.0223 -0.6366 -0.0235
   98MOL0     C13100   5.371   6.933   2.806 -0.1623 -0.5945  0.6883
   98MOL0     C13101   5.461   6.827   2.794 -0.1662 -0.1598 -0.4623
   98MOL0     C13102   5.422   6.700   2.798  0.3605  0.4716 -0.2373
   98MOL0     O13103   5.514   6.609   2.758 -0.6139 -0.3660 -0.3603
   98MOL0     C13104   5.521   6.474   2.807  0.1557 -0.3377 -0.0173
   98MOL0     C13105   5.437   6.379   2.733 -0.3655 -1.2812  0.5030
   98MOL0     C13106   5.505   6.337   2.602  0.1201 -0.2709 -0.3817
   98MOL0     C13107   5.414   6.242   2.532  0.2328  0.2985 -0.5739
   98MOL0     C13108   5.453   6.229   2.386 -0.5152  0.4433 -0.9232
   98MOL0     C13109   5.367   6.152   2.296 -0.0322 -0.2406  0.5086
   98MOL0     C13110   5.223   6.198   2.284  0.1091  1.0628  1.0751
   98MOL0     C13111   5.158   6.093   2.195  0.2170 -1.1518 -0.5026
   98MOL0     N13112   5.013   6.130   2.173 -0.0661  0.2083 -0.6623
   98MOL0     C13113   4.968   6.174   2.050 -1.1296 -0.3454 -0.6198
   98MOL0     C13114   4.845   6.234   2.083  0.9545  0.6062 -0.0278
   98MOL0     C13115   4.758   6.306   1.996 -1.4356  0.8571  0.4935
   98MOL0     C13116   4.777   6.257   1.850  0.0551 -1.0872 -0.1454
   98MOL0     C13117   4.742   6.361   1.756 -1.1283 -0.3942  0.3305
   98MOL0     C13118   4.714   6.305   1.611  0.2175  0.6283  0.3838
   98MOL0     O13119   4.615   6.399   1.537  0.5567  1.3183  0.1927
   98MOL0     C13120   4.519   6.347   1.454  0.6914  0.4824 -0.1033
   98MOL0     C13121   4.510   6.217   1.411 -0.5046  0.2488  1.5818
   98MOL0     C13122   4.397   6.172   1.333 -0.3258  0.1200  0.1456
   98MOL0     C13123   4.413   6.036   1.270 -0.0425 -0.0324 -0.4175
   98MOL0     C13124   4.300   6.270   1.283 -0.1536 -0.3057  0.3627
   98MOL0     C13125   4.196   6.258   1.179 -0.1789  0.5544  0.3328
   98MOL0     O13126   4.105   6.364   1.156 -0.3005 -0.4461  0.2437
   98MOL0     C13127   4.056   6.375   1.030  1.2263  0.9679  0.4601
   98MOL0     C13128   3.921   6.336   1.014  0.0794  0.1021  0.6910
   98MOL0     C13129   3.861   6.336   0.887  0.9808 -0.1489 -0.1132
   98MOL0     C13130   3.934   6.375   0.777 -0.9455  1.2182  0.8597
   98MOL0     O13131   3.872   6.352   0.654 -0.6916 -0.4883 -0.7666
   98MOL0     C13132   3.873   6.454   0.559  0.9642 -0.4097  0.1859
   98MOL0     C13133   3.906   6.391   0.422  1.1478 -0.2446 -0.8546
   98MOL0     C13134   4.018   6.293   0.437 -0.3426  0.3918 -1.7135
   98MOL0     C13135   4.023   6.235   0.291  0.3249 -0.0943 -0.7685
   98MOL0     C13136   4.136   6.138   0.285 -0.4124 -0.6390 -0.3715
   98MOL0     C13137   4.160   6.094   0.137  0.0041 -0.3043  0.0339
   98MOL0     C13138   4.287   5.990   0.133  0.3641 -0.7447  0.3483
   98MOL0     C13139   4.357   6.016   0.003 -0.6181  0.7522  0.9187
   98MOL0    Cl13140   4.237   5.993  -0.125 -0.0650  0.2475 -0.3563
   98MOL0     C13141   4.067   6.422   0.798  0.4665  0.1893 -0.0668
   98MOL0     C13142   4.128   6.430   0.926 -0.6409 -0.0727 -0.3048
   98MOL0     O13143   4.196   6.155   1.113  0.1033  0.0769 -1.0736
   98MOL0     C13144   4.305   6.396   1.350  0.0664 -0.4199 -0.1450
   98MOL0     C13145   4.410   6.429   1.436  0.1954 -0.8350 -0.0862
   98MOL0     N13146   4.827   6.227   2.218  0.5831  0.0010 -0.0471
   98MOL0     N13147   4.920   6.152   2.267 -0.0329  0.2004  0.0286
   98MOL0     C13148   5.291   6.669   2.829  0.6601 -0.4315 -0.2391
   98MOL0     C13149   5.190   6.774   2.840 -0.2085 -0.1341  0.9769
   98MOL0     C13150   5.055   7.223   2.838 -0.5752 -0.4317  1.1622
   98MOL0     C13151   4.965   7.200   2.725  0.1654 -0.2086 -0.7679
   98MOL0     C13152   4.880   7.298   2.691  0.0600 -0.3040  0.8837
   98MOL0     C13153   4.881   7.429   2.753  0.5658 -0.1347  0.6143
   98MOL0     O13154   4.805   7.530   2.701  0.8716  0.8516  0.5925
   98MOL0     C13155   4.864   7.660   2.689  1.1097 -0.4106  0.0621
   98MOL0     C13156   4.964   7.678   2.571  0.3655 -0.4522 -0.1059
   98MOL0     C13157   4.921   7.619   2.437  0.3536 -0.4284 -1.0422
   98MOL0     C13158   4.778   7.652   2.405 -0.1080  0.0460  0.5279
   98MOL0     C13159   4.740   7.788   2.405  0.0367  0.0064 -0.3633
   98MOL0     C13160   4.701   7.904   2.420  1.1835  0.8704 -0.0823
   98MOL0     C13161   4.956   7.439   2.869  0.3021  0.3104  0.1687
   98MOL0     C13162   5.052   7.348   2.902 -0.1891  0.5728  0.2693
   98MOL0     H13163   5.402   7.035   2.784 -0.9199 -0.9380 -2.5121
   98MOL0     H13164   5.565   6.846   2.771 -0.9386  3.7722 -1.5487
   98MOL0     H13165   5.621   6.430   2.801  0.2810 -0.0569  0.0081
   98MOL0     H13166   5.493   6.469   2.912 -0.7998 -2.0374 -0.3291
   98MOL0     H13167   5.432   6.286   2.791 -0.1703 -1.4288  0.2861
   98MOL0     H13168   5.339   6.422   2.710 -0.2863 -2.0571 -1.4276
   98MOL0     H13169   5.524   6.429   2.545 -0.7310  1.3093  1.7465
   98MOL0     H13170   5.606   6.298   2.622  0.4724  0.8780  0.1969
   98MOL0     H13171   5.438   6.140   2.563 -0.2323 -1.4495 -5.0994
   98MOL0     H13172   5.307   6.257   2.549 -0.3961 -0.8521 -3.0381
   98MOL0     H13173   5.475   6.328   2.343  2.1719 -0.6143 -2.1952
   98MOL0     H13174   5.554   6.187   2.395  0.9679  3.9284  0.6463
   98MOL0     H13175   5.429   6.146   2.206  1.0029  0.8483  1.1192
   98MOL0     H13176   5.368   6.050   2.334 -1.7043 -1.0708 -1.4866
   98MOL0     H13177   5.169   6.188   2.379 -2.1229  0.1216 -0.2046
   98MOL0     H13178   5.220   6.305   2.262 -2.9876  1.1557  1.5526
   98MOL0     H13179   5.145   6.004   2.257  2.3328 -2.8984 -2.3844
   98MOL0     H13180   5.223   6.069   2.110  1.9352  2.1032 -0.2659
   98MOL0     H13181   5.029   6.166   1.961 -2.2123 -1.9580 -1.2761
   98MOL0     H13182   4.657   6.284   2.031 -1.0120 -2.3503  0.0208
   98MOL0     H13183   4.784   6.412   2.000  1.5478  0.1887  0.8517
   98MOL0     H13184   4.703   6.176   1.850 -0.8255 -0.3343  1.3674
   98MOL0     H13185   4.875   6.215   1.828  0.9927  0.6559  0.5211
   98MOL0     H13186   4.833   6.422   1.746  0.1360 -2.5698 -3.6702
   98MOL0     H13187   4.662   6.424   1.795 -1.1061 -1.0773  1.5266
   98MOL0     H13188   4.665   6.208   1.618  1.3992 -0.1556 -1.4316
   98MOL0     H13189   4.809   6.297   1.558 -0.3065 -0.5686 -0.4077
   98MOL0     H13190   4.603   6.161   1.409 -0.9375 -0.4591  0.4850
   98MOL0     H13191   4.426   6.038   1.162 -3.2809  0.9053 -0.8817
   98MOL0     H13192   4.476   5.985   1.344 -1.8854  2.2039  2.9927
   98MOL0     H13193   4.321   5.977   1.276 -0.4050  0.5072 -0.6013
   98MOL0     H13194   3.847   6.313   1.090 -0.4516  3.4812  1.3633
   98MOL0     H13195   3.755   6.315   0.878  0.7997  1.0319 -0.8864
   98MOL0     H13196   3.772   6.495   0.553  1.4256  0.5334 -2.4376
   98MOL0     H13197   3.942   6.537   0.577 -0.2149  0.8041 -0.7354
   98MOL0     H13198   3.815   6.348   0.379 -1.1108  3.2514 -0.0662
   98MOL0     H13199   3.935   6.469   0.350  0.1149  1.9185  0.9448
   98MOL0     H13200   4.014   6.210   0.508 -0.1491  1.2462 -0.6779
   98MOL0     H13201   4.110   6.349   0.457 -2.3109  3.9740 -1.8747
   98MOL0     H13202   3.926   6.196   0.258 -2.6585  5.5142  0.0455
   98MOL0     H13203   4.053   6.319   0.227  1.2095 -0.3713 -0.7207
   98MOL0     H13204   4.110   6.060   0.357  4.3796 -1.3016  0.9868
   98MOL0     H13205   4.214   6.204   0.324  0.1238  2.0405 -5.1641
   98MOL0     H13206   4.071   6.039   0.105 -1.3560  1.0738  1.3171
   98MOL0     H13207   4.181   6.182   0.076  2.3727 -2.0328 -1.8374
   98MOL0     H13208   4.265   5.885   0.150 -1.9664 -0.3156  0.3843
   98MOL0     H13209   4.354   6.012   0.217 -0.7485 -0.9697  1.3353
   98MOL0     H13210   4.437   5.942  -0.007 -0.5231  1.0442 -0.6428
   98MOL0     H13211   4.401   6.115  -0.002  0.8877  0.2616  3.0539
   98MOL0     H13212   4.129   6.456   0.716  0.0079  3.4188  0.8039
   98MOL0     H13213   4.225   6.476   0.941 -1.4292  1.5486  0.0323
   98MOL0     H13214   4.230   6.470   1.326 -1.9966 -2.6200 -0.8728
   98MOL0     H13215   4.408   6.518   1.497  0.0487  0.6646 -2.1927
   98MOL0     H13216   5.244   6.571   2.824 -2.0216  0.8002 -2.1208
   98MOL0     H13217   5.083   6.758   2.839 -0.4831  1.3310  2.3487
   98MOL0     H13218   4.964   7.101   2.680  0.0243 -0.6655  0.2172
   98MOL0     H13219   4.805   7.290   2.613  1.3223 -2.2644 -0.2112
   98MOL0     H13220   4.782   7.732   2.673  1.9827  0.5812 -0.0291
   98MOL0     H13221   4.913   7.691   2.781  2.2014 -1.8298 -0.0192
   98MOL0     H13222   5.050   7.624   2.613 -1.0529 -0.3165  3.3241
   98MOL0     H13223   4.990   7.782   2.552 -0.2494 -0.6750 -2.4766
   98MOL0     H13224   4.938   7.512   2.452 -1.0066 -0.3864  1.2920
   98MOL0     H13225   4.998   7.651   2.366  2.1591 -2.1511  0.0420
   98MOL0     H13226   4.717   7.597   2.476  0.6881  2.3544  3.1790
   98MOL0     H13227   4.746   7.607   2.310 -0.9192  0.1686  0.7323
   98MOL0     H13228   4.648   7.997   2.426  0.9966  0.6714  2.1780
   98MOL0     H13229   4.934   7.517   2.942  1.5512  0.4700  0.3979
   98MOL0     H13230   5.112   7.364   2.991 -0.4771 -3.8674  1.5275
   99MOL0     O13231   8.719  10.535   7.627  0.1878 -0.6261  0.6910
   99MOL0     C13232   8.741  10.416   7.655  0.4663 -0.0808  0.2970
   99MOL0     O13233   8.747  10.360   7.784 -0.1350 -0.1871 -0.3320
   99MOL0     C13234   8.757  10.443   7.892 -0.2077 -0.3412 -1.2099
   99MOL0     C13235   8.705  10.407   8.012  0.4769  0.2937 -0.5574
   99MOL0     C13236   8.707  10.485   8.128 -0.5378  0.5001  0.3037
   99MOL0     C13237   8.761  10.613   8.119 -0.2344 -0.0030 -1.0778
   99MOL0     O13238   8.757  10.698   8.235  0.1734 -0.5981  0.0301
   99MOL0     C13239   8.831  10.821   8.229  0.4622  1.0412  0.4026
   99MOL0     C13240   8.806  10.909   8.350 -0.4688 -0.3858  0.5970
   99MOL0     C13241   8.851  10.831   8.478  0.3863  0.1702 -0.0771
   99MOL0     C13242   8.893  10.921   8.603 -0.2363  0.4573 -0.0444
   99MOL0     C13243   8.893  10.847   8.742  1.0484  0.5535  0.3993
   99MOL0     C13244   8.992  10.915   8.836 -0.4302  0.0653 -0.1776
   99MOL0     C13245   8.953  10.864   8.977  1.2070 -0.7741  1.0514
   99MOL0     C13246   9.056  10.916   9.086  0.6028  0.0039 -0.2087
   99MOL0     N13247   9.190  10.864   9.059 -0.7186  0.2678  0.0052
   99MOL0     C13248   9.309  10.944   9.034  0.6556  0.8743  0.3047
   99MOL0     C13249   9.414  10.849   9.036  1.0428 -0.8772  0.5017
   99MOL0     C13250   9.564  10.866   9.033 -0.3704 -0.7069  0.3478
   99MOL0     C13251   9.623  10.926   8.897  0.0291  0.7606 -0.4864
   99MOL0     C13252   9.773  10.893   8.863  0.7997  0.0686 -0.4868
   99MOL0     C13253   9.777  10.744   8.820 -0.9158 -1.0506  1.3032
   99MOL0     O13254   9.849  10.674   8.923 -0.0081  0.1330  0.4765
   99MOL0     C13255   9.820  10.540   8.921 -0.3258 -0.4967  0.0150
   99MOL0     C13256   9.790  10.476   9.045 -0.2502 -0.0256 -0.6294
   99MOL0     C13257   9.761  10.334   9.053  0.5513 -0.1663  0.2172
   99MOL0     C13258   9.721  10.277   9.184  0.1636  0.1781 -0.9638
   99MOL0     C13259   9.786  10.253   8.937  0.3673 -0.6888 -0.4008
   99MOL0     C13260   9.748  10.108   8.912 -0.2741 -0.3964 -0.4894
   99MOL0     O13261   9.722  10.072   8.786  0.4708 -0.4737  0.4449
   99MOL0     C13262   9.663   9.952   8.771 -0.0046 -0.3724 -0.1572
   99MOL0     C13263   9.524   9.930   8.811 -0.0281 -0.1663 -0.0327
   99MOL0     C13264   9.472   9.801   8.783 -0.3496  0.3821  0.3871
   99MOL0     C13265   9.554   9.702   8.727  0.0634  0.6145 -0.3380
   99MOL0     O13266   9.528   9.567   8.731 -0.5453 -0.9921  0.3021
   99MOL0     C13267   9.443   9.521   8.622  0.0035  0.4190  0.1741
   99MOL0     C13268   9.475   9.372   8.602 -0.5695 -0.0293 -0.7629
   99MOL0     C13269   9.621   9.352   8.561  0.0983  0.1629 -0.3980
   99MOL0     C13270   9.655   9.194   8.564 -0.2857  0.2367  0.3882
   99MOL0     C13271   9.790   9.173   8.490  0.3373 -0.5173  0.0693
   99MOL0     C13272   9.818   9.210   8.338  0.6459  1.2885 -0.3785
   99MOL0     C13273   9.700   9.167   8.246  0.0132 -0.1216 -0.9823
   99MOL0     C13274   9.755   9.204   8.108 -0.0630 -0.1059 -0.5763
   99MOL0    Cl13275   9.632   9.157   7.982  0.3293 -0.0986  0.6096
   99MOL0     C13276   9.675   9.735   8.679 -1.4725  0.0187 -0.5653
   99MOL0     C13277   9.733   9.855   8.698 -0.5085  0.6739 -0.7947
   99MOL0     O13278   9.760  10.035   9.021 -0.4822  0.1986 -0.0838
   99MOL0     C13279   9.831  10.320   8.818  0.4068 -0.0712 -0.0490
   99MOL0     C13280   9.846  10.456   8.813 -0.2057 -0.7528 -0.3398
   99MOL0     N13281   9.349  10.721   9.046  0.2810 -0.2661  0.2632
   99MOL0     N13282   9.220  10.731   9.063  0.2729  0.7816  0.8919
   99MOL0     C13283   8.816  10.656   7.998  0.7328 -0.3635  0.2383
   99MOL0     C13284   8.813  10.574   7.887  0.1941 -0.7136  0.0235
   99MOL0     C13285   8.728  10.325   7.539 -0.1490 -0.2557  0.4746
   99MOL0     C13286   8.659  10.210   7.564 -0.0699 -0.0397 -0.1253
   99MOL0     C13287   8.649  10.113   7.458  0.4863 -0.9773 -0.2945
   99MOL0     C13288   8.717  10.129   7.327 -0.1202  0.5273 -0.5459
   99MOL0     O13289   8.731  10.038   7.224  1.0474 -0.2457  0.6035
   99MOL0     C13290   8.647   9.918   7.237 -0.4791  0.2910  0.1294
   99MOL0     C13291   8.501   9.938   7.234  0.0149 -0.1127  1.0073
   99MOL0     C13292   8.474   9.981   7.098  1.2605 -0.1058  0.1700
   99MOL0     C13293   8.333   9.966   7.040 -0.3160 -0.6375  0.0327
   99MOL0     C13294   8.242  10.059   7.112  0.0821  0.8224 -0.3090
   99MOL0     C13295   8.199  10.130   7.202 -0.9412 -1.5509  0.0458
   99MOL0     C13296   8.773  10.261   7.319 -2.4265  0.7175 -0.2768
   99MOL0     C13297   8.784  10.359   7.421  0.1426 -0.3612  0.5984
   99MOL0     H13298   8.665  10.306   8.008  3.4115 -1.3334  3.6520
   99MOL0     H13299   8.670  10.440   8.220 -0.8404 -1.5197 -0.7544
   99MOL0     H13300   8.935  10.792   8.210 -1.2278 -4.2722 -3.0910
   99MOL0     H13301   8.793  10.881   8.146 -1.9280 -2.7522 -1.5712
   99MOL0     H13302   8.868  10.999   8.341 -1.2702  0.0895 -0.5730
   99MOL0     H13303   8.701  10.940   8.356 -1.3207 -2.4811 -1.6674
   99MOL0     H13304   8.768  10.766   8.507  2.5634 -2.5797  0.3541
   99MOL0     H13305   8.936  10.766   8.456 -1.2393 -2.6034  1.3910
   99MOL0     H13306   8.993  10.952   8.574  0.3746 -0.7025  0.7396
   99MOL0     H13307   8.830  11.011   8.605 -2.3551 -0.9207 -0.6507
   99MOL0     H13308   8.788  10.847   8.772  0.9772 -2.0979  0.4148
   99MOL0     H13309   8.930  10.744   8.734 -1.2383 -0.5011  2.1571
   99MOL0     H13310   9.084  10.872   8.796 -0.6085 -0.7141  0.2413
   99MOL0     H13311   8.983  11.024   8.839 -1.3922 -0.0249  2.0145
   99MOL0     H13312   8.858  10.916   8.989  0.6863 -1.1889 -0.9104
   99MOL0     H13313   8.922  10.759   8.974 -2.8183  0.2854 -0.3940
   99MOL0     H13314   9.023  10.887   9.186 -1.5884  2.4266 -0.1175
   99MOL0     H13315   9.051  11.024   9.070 -0.7660  0.0925  0.6560
   99MOL0     H13316   9.312  11.049   9.009 -0.0297  0.9136  0.3644
   99MOL0     H13317   9.582  10.936   9.115  1.7733  1.6485 -1.9841
   99MOL0     H13318   9.612  10.770   9.058  2.4351  0.1680 -1.1981
   99MOL0     H13319   9.616  11.035   8.892 -2.0656  0.7114  0.5076
   99MOL0     H13320   9.576  10.884   8.808 -2.3277 -0.4209  1.2191
   99MOL0     H13321   9.853  10.910   8.935 -0.5469 -3.0771  2.0016
   99MOL0     H13322   9.803  10.956   8.779 -0.1024  1.7222  0.3996
   99MOL0     H13323   9.826  10.740   8.723 -1.0240 -0.9019  1.2430
   99MOL0     H13324   9.676  10.703   8.805 -0.4420 -1.3756 -1.4141
   99MOL0     H13325   9.789  10.545   9.129  1.1099  1.5486 -1.8192
   99MOL0     H13326   9.794  10.203   9.219  0.0805 -1.1033 -3.2380
   99MOL0     H13327   9.712  10.358   9.256 -2.5695 -2.5477  2.0570
   99MOL0     H13328   9.618  10.241   9.175  0.8295 -1.4236 -3.1605
   99MOL0     H13329   9.472  10.008   8.866  3.1652  1.4002  1.0222
   99MOL0     H13330   9.368   9.771   8.794 -0.2566 -0.6457 -1.2068
   99MOL0     H13331   9.336   9.527   8.642 -0.2054  0.2566 -0.8285
   99MOL0     H13332   9.456   9.576   8.528 -1.4612  1.0295  0.3129
   99MOL0     H13333   9.467   9.326   8.701  2.6151  1.6464  0.4195
   99MOL0     H13334   9.396   9.326   8.542 -3.2767  0.3246  2.2306
   99MOL0     H13335   9.680   9.409   8.633  1.6634 -0.2673 -1.2805
   99MOL0     H13336   9.649   9.382   8.459 -0.4652 -1.4251 -1.0637
   99MOL0     H13337   9.669   9.161   8.667  1.6085 -2.7270 -0.6836
   99MOL0     H13338   9.576   9.131   8.524 -2.4700  2.1944  1.3586
   99MOL0     H13339   9.814   9.067   8.506 -1.9302 -1.0615  0.1842
   99MOL0     H13340   9.873   9.230   8.533  0.4278 -0.7635  0.2257
   99MOL0     H13341   9.842   9.316   8.337 -0.7633  1.6126 -0.4005
   99MOL0     H13342   9.906   9.153   8.306  1.8089  3.0483 -0.4403
   99MOL0     H13343   9.601   9.211   8.261 -0.5346 -1.5481 -0.2035
   99MOL0     H13344   9.692   9.058   8.257  1.6092 -0.1762 -0.1120
   99MOL0     H13345   9.854   9.163   8.085  0.8717 -0.1884  2.9259
   99MOL0     H13346   9.757   9.314   8.110 -0.6197  0.0195  4.2146
   99MOL0     H13347   9.742   9.666   8.627 -0.3764  1.4041 -1.0680
   99MOL0     H13348   9.832   9.882   8.660  0.4451 -1.3411  0.1007
   99MOL0     H13349   9.857  10.264   8.728  5.0832 -1.9874  2.1423
   99MOL0     H13350   9.882  10.506   8.724 -1.1540  0.0056 -0.3068
   99MOL0     H13351   8.861  10.754   7.995  2.7218 -1.0189  3.5515
   99MOL0     H13352   8.860  10.615   7.798 -1.1960  0.4246 -0.2219
   99MOL0     H13353   8.626  10.180   7.663 -3.4237  0.3082 -0.9944
   99MOL0     H13354   8.613  10.015   7.486 -1.0488 -0.6338 -0.9901
   99MOL0     H13355   8.690   9.848   7.164  3.2383  1.4763  0.9794
   99MOL0     H13356   8.669   9.866   7.331 -0.9821  1.1748  0.7473
   99MOL0     H13357   8.468  10.017   7.301  1.6213  2.8220 -1.4347
   99MOL0     H13358   8.433   9.853   7.251 -0.6172 -0.1992 -1.5657
   99MOL0     H13359   8.523   9.921   7.021 -0.0466 -1.1363  0.0939
   99MOL0     H13360   8.515  10.082   7.095  0.2054  0.5472  3.4627
   99MOL0     H13361   8.311   9.860   7.035 -0.8499 -0.6834  2.3365
   99MOL0     H13362   8.338  10.003   6.937 -0.6314 -1.0752 -0.1406
   99MOL0     H13363   8.170  10.184   7.290  2.0659 -1.0087  0.8257
   99MOL0     H13364   8.826  10.289   7.229 -0.0630  3.1166  1.7225
   99MOL0     H13365   8.830  10.453   7.392 -1.9235  0.3478 -0.6100
  100MOL0     O13366   1.227   8.970   8.543  0.2323  0.1540 -0.2406
  100MOL0     C13367   1.196   8.849   8.547  0.4300 -0.5953  0.0811
  100MOL0     O13368   1.192   8.766   8.446 -0.3488 -0.5428 -0.1403
  100MOL0     C13369   1.190   8.814   8.312 -0.0233 -0.5338  0.0362
  100MOL0     C13370   1.254   8.736   8.216  0.4684  0.5608 -0.6144
  100MOL0     C13371   1.255   8.770   8.080  0.7482  0.1859  0.9951
  100MOL0     C13372   1.196   8.890   8.041 -0.0635 -0.7459  0.5626
  100MOL0     O13373   1.196   8.937   7.908 -0.5791  0.6064  0.1450
  100MOL0     C13374   1.204   8.852   7.797 -0.8710 -0.2752  0.8195
  100MOL0     C13375   1.125   8.902   7.670 -0.3841 -1.0693  1.3346
  100MOL0     C13376   0.971   8.921   7.700  1.5536  0.4304 -0.3735
  100MOL0     C13377   0.891   8.958   7.561 -0.4800 -0.1481 -0.4783
  100MOL0     C13378   0.772   9.051   7.573  0.1365  0.2148 -0.2260
  100MOL0     C13379   0.717   9.104   7.438 -0.7290 -0.1863 -0.9267
  100MOL0     C13380   0.582   9.167   7.463 -0.7510 -0.0522 -0.7947
  100MOL0     C13381   0.539   9.222   7.333  0.7971 -0.3692  0.7745
  100MOL0     N13382   0.404   9.267   7.340 -0.7166 -0.5921 -0.3373
  100MOL0     C13383   0.357   9.338   7.446  0.1301 -1.1734 -0.0273
  100MOL0     C13384   0.236   9.388   7.401  0.8843  0.8821  0.4251
  100MOL0     C13385   0.142   9.465   7.481  0.2301 -0.2957  0.3013
  100MOL0     C13386  -0.007   9.406   7.460 -0.2040 -0.1582 -0.2363
  100MOL0     C13387  -0.095   9.506   7.527 -0.3829 -0.4561  0.2161
  100MOL0     C13388  -0.242   9.464   7.511  0.0776 -0.2035  0.5220
  100MOL0     O13389  -0.333   9.518   7.613  0.5133 -0.1909  0.6031
  100MOL0     C13390  -0.419   9.621   7.592 -0.5109 -0.3119  0.7065
  100MOL0     C13391  -0.423   9.712   7.489 -0.2871 -1.0213  0.1888
  100MOL0     C13392  -0.524   9.808   7.480  0.5031  0.7651 -0.4538
  100MOL0     C13393  -0.502   9.921   7.377  0.8979  0.8317 -0.4615
  100MOL0     C13394  -0.623   9.818   7.584 -0.1153  0.2979  0.3328
  100MOL0     C13395  -0.743   9.905   7.554  0.1846 -0.4452  0.6528
  100MOL0     O13396  -0.794   9.893   7.433 -0.4800  0.7025 -0.2547
  100MOL0     C13397  -0.888   9.985   7.401 -0.3873  0.0376 -0.0618
  100MOL0     C13398  -0.846  10.092   7.321  0.6217 -1.1174 -0.2153
  100MOL0     C13399  -0.939  10.195   7.289 -0.2302 -0.4430  0.4658
  100MOL0     C13400  -1.073  10.186   7.328  0.5973  0.3703  0.2436
  100MOL0     O13401  -1.178  10.251   7.286  0.5589 -0.2667  0.0541
  100MOL0     C13402  -1.224  10.339   7.385 -0.3961  0.1868  0.0703
  100MOL0     C13403  -1.301  10.463   7.316 -0.8173  0.0597 -0.7034
  100MOL0     C13404  -1.328  10.589   7.402 -0.5378 -0.1447 -0.3911
  100MOL0     C13405  -1.316  10.724   7.335  0.0009 -0.4921  0.1215
  100MOL0     C13406  -1.367  10.837   7.429  1.3822 -1.2815  0.6611
  100MOL0     C13407  -1.514  10.868   7.377  0.3037  0.7104 -0.7623
  100MOL0     C13408  -1.561  10.997   7.449 -0.5947  0.4835  0.5500
  100MOL0     C13409  -1.698  11.042   7.414  1.0268 -0.2493  0.1029
  100MOL0    Cl13410  -1.708  11.091   7.246 -0.2931 -0.4247  0.0505
  100MOL0     C13411  -1.113  10.069   7.396 -0.6348 -0.2771 -0.7861
  100MOL0     C13412  -1.021   9.971   7.438 -0.0481 -0.4463  0.7844
  100MOL0     O13413  -0.803   9.968   7.646  0.6836 -0.2233  0.3693
  100MOL0     C13414  -0.612   9.723   7.681  0.8747 -0.6408  0.0366
  100MOL0     C13415  -0.512   9.636   7.682 -0.9862 -0.1371 -0.0515
  100MOL0     N13416   0.223   9.349   7.268  0.2697  0.5827 -0.2969
  100MOL0     N13417   0.318   9.260   7.231 -0.8790 -0.2014 -0.2925
  100MOL0     C13418   1.130   8.969   8.136 -0.1670  0.3684  0.7665
  100MOL0     C13419   1.112   8.925   8.267 -0.1618  0.1174 -0.0043
  100MOL0     C13420   1.143   8.809   8.679 -0.0834 -0.2767 -0.1362
  100MOL0     C13421   1.091   8.894   8.774 -0.9659  0.2602 -0.1045
  100MOL0     C13422   1.036   8.851   8.896  0.7172  0.6386 -0.0744
  100MOL0     C13423   1.033   8.713   8.925  0.1014  0.8867 -0.0435
  100MOL0     O13424   0.978   8.673   9.041  0.9092  0.1239  0.2888
  100MOL0     C13425   0.840   8.623   9.022  0.6677 -1.2620  0.5543
  100MOL0     C13426   0.750   8.748   9.047 -1.3919 -1.3628 -0.1190
  100MOL0     C13427   0.685   8.750   9.184 -0.0763 -0.2313  0.0818
  100MOL0     C13428   0.531   8.793   9.183  0.4351  1.2557  0.6691
  100MOL0     C13429   0.520   8.939   9.149 -0.5951 -0.4323 -0.3104
  100MOL0     C13430   0.485   9.047   9.106  0.0175  0.2949 -0.0687
  100MOL0     C13431   1.068   8.621   8.824 -0.2253 -0.3997  0.6148
  100MOL0     C13432   1.129   8.666   8.704 -0.3286 -0.0198  1.1260
  100MOL0     H13433   1.309   8.653   8.257  0.2122 -0.3833 -2.1177
  100MOL0     H13434   1.308   8.704   8.011 -3.2981 -4.9687  2.1597
  100MOL0     H13435   1.306   8.844   7.757 -1.5535  0.0270 -1.1262
  100MOL0     H13436   1.181   8.746   7.813  0.0559 -1.1163 -2.6415
  100MOL0     H13437   1.170   8.995   7.632 -0.1018 -0.8792  2.1138
  100MOL0     H13438   1.139   8.826   7.593  0.0362  1.4666 -1.3127
  100MOL0     H13439   0.933   8.825   7.734  1.3711  0.5539 -0.2319
  100MOL0     H13440   0.957   9.005   7.769  3.0158  2.1089 -1.9851
  100MOL0     H13441   0.972   8.996   7.497  0.3359 -3.5352 -1.6773
  100MOL0     H13442   0.863   8.866   7.510 -2.7568 -0.2123  0.7556
  100MOL0     H13443   0.698   8.980   7.609  2.0088 -3.0415 -2.2452
  100MOL0     H13444   0.796   9.133   7.641 -1.2755 -0.4779  1.1532
  100MOL0     H13445   0.783   9.177   7.390  1.1243 -0.4428  1.1006
  100MOL0     H13446   0.705   9.018   7.371  2.5573 -2.5319  1.1715
  100MOL0     H13447   0.507   9.095   7.499 -2.5428  1.1802 -1.8854
  100MOL0     H13448   0.583   9.250   7.533  0.4388  0.2690 -1.1833
  100MOL0     H13449   0.538   9.135   7.266  2.0760 -0.0377  0.3034
  100MOL0     H13450   0.606   9.298   7.291 -1.4639  0.9649 -0.6755
  100MOL0     H13451   0.397   9.366   7.543 -1.4961  1.4734 -0.0310
  100MOL0     H13452   0.167   9.478   7.587 -3.7733  2.0800  1.1723
  100MOL0     H13453   0.142   9.567   7.443 -0.8282 -0.0723  0.8756
  100MOL0     H13454  -0.029   9.304   7.495 -2.7517 -1.1899 -4.1500
  100MOL0     H13455  -0.040   9.401   7.356 -0.6457  1.0130 -0.1629
  100MOL0     H13456  -0.080   9.609   7.494 -1.6298 -1.0364 -2.5462
  100MOL0     H13457  -0.079   9.510   7.635  2.4931 -0.8619 -0.1240
  100MOL0     H13458  -0.255   9.355   7.507 -1.8000  0.0195 -0.2506
  100MOL0     H13459  -0.273   9.498   7.412  0.0872  0.2897  0.6870
  100MOL0     H13460  -0.340   9.702   7.421 -0.7079  0.1138 -0.5152
  100MOL0     H13461  -0.551   9.892   7.284 -0.9278 -1.5832  1.1509
  100MOL0     H13462  -0.554  10.009   7.416 -2.1845 -1.1935  0.4146
  100MOL0     H13463  -0.394   9.937   7.367  1.4528 -1.1838  1.5197
  100MOL0     H13464  -0.755  10.109   7.264  0.0940 -3.1233 -1.7747
  100MOL0     H13465  -0.922  10.281   7.224  0.7574 -2.1703 -1.6864
  100MOL0     H13466  -1.285  10.281   7.454 -1.8411  1.0415 -0.4387
  100MOL0     H13467  -1.139  10.388   7.433 -0.6356  1.6428 -0.9171
  100MOL0     H13468  -1.266  10.496   7.217 -2.2519 -0.7978 -1.5311
  100MOL0     H13469  -1.399  10.421   7.292 -0.6809 -0.9564  0.3953
  100MOL0     H13470  -1.256  10.588   7.484  1.4169  0.5094 -2.0362
  100MOL0     H13471  -1.429  10.581   7.444 -0.7109  2.4892 -0.1292
  100MOL0     H13472  -1.211  10.736   7.308 -0.6180 -0.8930 -2.7444
  100MOL0     H13473  -1.378  10.729   7.246  0.9545 -0.0238 -0.5296
  100MOL0     H13474  -1.303  10.921   7.399  1.6496 -1.9004 -0.5750
  100MOL0     H13475  -1.359  10.832   7.538  0.7689  3.7453  1.1653
  100MOL0     H13476  -1.503  10.887   7.270  1.0905 -3.3183 -1.5541
  100MOL0     H13477  -1.588  10.789   7.395 -0.0409  1.0881 -0.5081
  100MOL0     H13478  -1.493  11.081   7.434 -0.8182  0.8341  1.4424
  100MOL0     H13479  -1.559  10.977   7.556  0.9828 -1.4633  0.2017
  100MOL0     H13480  -1.718  11.132   7.473  5.1680  3.3234 -3.2542
  100MOL0     H13481  -1.773  10.968   7.444  1.4404 -0.7420 -0.0770
  100MOL0     H13482  -1.214  10.038   7.420 -0.4267  1.7958  3.5355
  100MOL0     H13483  -1.049   9.881   7.491  2.0579 -1.1846  0.7696
  100MOL0     H13484  -0.683   9.718   7.764 -1.5261 -2.3010 -1.9577
  100MOL0     H13485  -0.498   9.565   7.763  1.2629  1.3440  0.9687
  100MOL0     H13486   1.093   9.067   8.108 -0.7132 -0.4161 -1.4608
  100MOL0     H13487   1.068   8.998   8.333 -1.4760 -1.0864  0.5046
  100MOL0     H13488   1.099   8.999   8.750  0.4325 -0.4221 -3.0617
  100MOL0     H13489   1.008   8.915   8.978 -4.0405 -1.5780  0.3434
  100MOL0     H13490   0.822   8.594   8.918  1.2975  0.1321  0.0338
  100MOL0     H13491   0.822   8.550   9.101  1.9391 -1.2954  0.8352
  100MOL0     H13492   0.667   8.742   8.975 -0.8911  0.0422 -0.8389
  100MOL0     H13493   0.804   8.842   9.050 -0.1463 -1.9484  4.4186
  100MOL0     H13494   0.745   8.805   9.257 -2.4860 -3.0317  4.5632
  100MOL0     H13495   0.682   8.645   9.214  0.6866 -0.2278  0.2021
  100MOL0     H13496   0.482   8.775   9.279  1.4801  1.4449  1.2603
  100MOL0     H13497   0.466   8.729   9.123 -0.8321  1.9718  1.2306
  100MOL0     H13498   0.462   9.140   9.060 -0.5384 -0.2277 -0.8703
  100MOL0     H13499   1.052   8.514   8.824  1.4932 -0.6820  0.1993
  100MOL0     H13500   1.158   8.587   8.635  1.4031 -0.8327  2.6588
  101MOL0     O13501   6.851   0.275   2.638  0.4107 -0.1879 -0.6519
  101MOL0     C13502   6.832   0.310   2.755  0.8018 -0.8565  0.9942
  101MOL0     O13503   6.885   0.431   2.799 -0.0057  0.1803 -0.6586
  101MOL0     C13504   6.949   0.514   2.719  0.5393  0.0992  0.1070
  101MOL0     C13505   6.880   0.595   2.616  0.1463  0.3484 -1.2206
  101MOL0     C13506   6.947   0.692   2.545  0.8312  0.1479 -0.9692
  101MOL0     C13507   7.082   0.718   2.569 -0.2463  0.1501  0.4998
  101MOL0     O13508   7.161   0.806   2.498 -0.2905 -0.0700 -0.1002
  101MOL0     C13509   7.106   0.863   2.381  0.2742  0.2336  0.0299
  101MOL0     C13510   7.177   0.991   2.338  0.1041 -0.2140 -0.5976
  101MOL0     C13511   7.149   1.110   2.433 -0.2822 -1.1008  0.4208
  101MOL0     C13512   7.235   1.229   2.369  0.8203  0.6348 -1.1996
  101MOL0     C13513   7.199   1.358   2.438  0.2177  0.2461  0.9839
  101MOL0     C13514   7.320   1.444   2.459  0.2910  0.4291 -0.1670
  101MOL0     C13515   7.387   1.472   2.318  0.3050  0.1247  0.1598
  101MOL0     C13516   7.292   1.540   2.208 -0.9665 -0.3429  0.4775
  101MOL0     N13517   7.375   1.592   2.088 -0.9278 -0.0924 -0.3658
  101MOL0     C13518   7.431   1.725   2.081  0.8021  0.6766 -0.7358
  101MOL0     C13519   7.484   1.726   1.955 -0.4813  1.4134 -0.1109
  101MOL0     C13520   7.538   1.839   1.867 -0.1764  0.4494  0.0508
  101MOL0     C13521   7.447   1.963   1.886  0.5257  0.2840  0.1345
  101MOL0     C13522   7.540   2.070   1.940  1.1997 -0.9014 -0.2153
  101MOL0     C13523   7.473   2.206   1.940 -0.2010 -0.3986  1.0908
  101MOL0     O13524   7.372   2.218   2.039  0.0741  0.2937 -0.4802
  101MOL0     C13525   7.345   2.342   2.082  0.2880 -0.4781  0.1662
  101MOL0     C13526   7.255   2.431   2.025 -0.1516 -0.1067  0.1964
  101MOL0     C13527   7.211   2.544   2.086 -0.5200  0.0815 -0.3271
  101MOL0     C13528   7.093   2.614   2.041  0.2410 -0.0806 -0.4070
  101MOL0     C13529   7.283   2.593   2.196  0.3135 -0.9928 -1.0097
  101MOL0     C13530   7.241   2.710   2.265 -1.1524  0.0955 -0.2738
  101MOL0     O13531   7.116   2.706   2.329 -0.1272 -0.3121  0.3002
  101MOL0     C13532   7.061   2.828   2.371  1.1426  1.1052 -0.5522
  101MOL0     C13533   7.096   2.900   2.488 -0.2895 -0.9741 -0.1054
  101MOL0     C13534   7.046   3.034   2.513 -0.4503  0.5564 -0.4134
  101MOL0     C13535   6.952   3.083   2.419 -1.1019  0.2491  1.6321
  101MOL0     O13536   6.891   3.198   2.452 -0.0038  0.5671 -0.0488
  101MOL0     C13537   6.864   3.304   2.358  0.1339  0.2634  0.6200
  101MOL0     C13538   6.736   3.383   2.401  0.3056  0.3884  0.5803
  101MOL0     C13539   6.765   3.466   2.519  0.9783  0.4542 -0.2064
  101MOL0     C13540   6.853   3.591   2.502  0.2169 -0.0559 -0.6442
  101MOL0     C13541   6.884   3.665   2.630 -0.6038 -0.7228 -0.0984
  101MOL0     C13542   7.000   3.606   2.713 -0.2059 -0.2344  0.1243
  101MOL0     C13543   7.016   3.691   2.831 -0.0184  0.2285 -0.3744
  101MOL0     C13544   7.125   3.626   2.917  0.1737  0.4638  0.4067
  101MOL0    Cl13545   7.279   3.577   2.843  0.2268 -0.4125 -0.2312
  101MOL0     C13546   6.908   3.016   2.309  0.0077  0.8295 -0.7686
  101MOL0     C13547   6.958   2.890   2.288 -0.4562 -1.0500  0.8040
  101MOL0     O13548   7.309   2.813   2.263 -0.4412 -0.7424  1.2510
  101MOL0     C13549   7.395   2.526   2.242  0.2821  0.8081  0.4965
  101MOL0     C13550   7.413   2.389   2.194 -0.3497 -1.2346 -0.0996
  101MOL0     N13551   7.473   1.599   1.899  0.3177  0.2832 -0.2197
  101MOL0     N13552   7.410   1.514   1.984 -0.1711 -0.0363  0.6338
  101MOL0     C13553   7.144   0.641   2.664  0.6634 -0.8109  0.1862
  101MOL0     C13554   7.085   0.546   2.739  0.6226 -0.1553  0.7136
  101MOL0     C13555   6.753   0.229   2.837 -0.4514  0.9398  0.1520
  101MOL0     C13556   6.722   0.266   2.970  0.2141 -0.0659 -0.0470
  101MOL0     C13557   6.647   0.173   3.040 -0.4312  0.0620  0.4446
  101MOL0     C13558   6.582   0.057   2.982 -0.3541 -0.5430 -0.4786
  101MOL0     O13559   6.503  -0.016   3.066  0.7467 -0.2399  0.1397
  101MOL0     C13560   6.404  -0.115   3.023 -0.0305  0.1391  0.4979
  101MOL0     C13561   6.350  -0.215   3.123  0.1290 -0.8794  0.5610
  101MOL0     C13562   6.265  -0.149   3.232 -0.3227  0.3078  0.0530
  101MOL0     C13563   6.184  -0.244   3.311  0.9429  0.8433  0.1115
  101MOL0     C13564   6.252  -0.327   3.411  0.2105  0.4747  0.2501
  101MOL0     C13565   6.325  -0.402   3.475  0.4202 -0.0665 -0.6952
  101MOL0     C13566   6.584   0.034   2.844 -0.5133 -0.5923 -0.7207
  101MOL0     C13567   6.680   0.117   2.781 -0.9138  0.0067 -0.1632
  101MOL0     H13568   6.772   0.587   2.606  0.0604 -1.1942  0.4664
  101MOL0     H13569   6.887   0.765   2.492  1.4241  1.8002  0.5406
  101MOL0     H13570   7.113   0.789   2.301  1.0584  0.7989 -0.4452
  101MOL0     H13571   7.005   0.902   2.392  0.1151 -0.4246  0.9659
  101MOL0     H13572   7.284   0.973   2.327  0.8056  1.4864  2.3118
  101MOL0     H13573   7.140   1.015   2.238 -0.4238 -0.7220 -0.5303
  101MOL0     H13574   7.046   1.145   2.425  0.1982  0.5374  0.8877
  101MOL0     H13575   7.175   1.088   2.537 -0.1200 -1.1991  0.3608
  101MOL0     H13576   7.338   1.196   2.388 -1.0062 -4.8539  1.4112
  101MOL0     H13577   7.212   1.228   2.262 -3.6240 -1.4889 -0.4544
  101MOL0     H13578   7.118   1.416   2.393 -0.1897 -2.0415 -1.4293
  101MOL0     H13579   7.161   1.343   2.540 -1.1654  2.7922  0.9250
  101MOL0     H13580   7.294   1.537   2.510  0.2488 -0.8513  2.3250
  101MOL0     H13581   7.386   1.396   2.532  2.5262 -0.9570 -2.8894
  101MOL0     H13582   7.470   1.539   2.340 -0.5852  0.4556  2.9846
  101MOL0     H13583   7.431   1.376   2.288  0.4578  0.8031 -1.9285
  101MOL0     H13584   7.242   1.625   2.254 -5.0190 -0.3216 -3.3589
  101MOL0     H13585   7.204   1.480   2.183 -0.4393 -1.1319  0.4611
  101MOL0     H13586   7.401   1.806   2.148 -1.0826 -0.6419  0.1315
  101MOL0     H13587   7.645   1.854   1.879 -0.2364  1.5309 -0.6412
  101MOL0     H13588   7.533   1.805   1.763  1.6057 -0.2154  0.1523
  101MOL0     H13589   7.367   1.948   1.959  2.1710 -1.9291  1.6153
  101MOL0     H13590   7.405   1.978   1.786  2.4378 -0.7365 -0.8751
  101MOL0     H13591   7.625   2.081   1.871  2.6410  0.5907  1.6689
  101MOL0     H13592   7.576   2.039   2.038 -4.2411 -1.8028  1.8607
  101MOL0     H13593   7.429   2.206   1.840  1.9330  3.1811 -0.0164
  101MOL0     H13594   7.539   2.291   1.957 -0.1315  0.1587 -1.6192
  101MOL0     H13595   7.196   2.395   1.940 -0.5649 -0.3576  0.5841
  101MOL0     H13596   7.075   2.591   1.935 -0.6593  0.3496 -0.3590
  101MOL0     H13597   7.004   2.599   2.102  0.6405  0.2018  0.2477
  101MOL0     H13598   7.114   2.721   2.027  1.8913 -0.5304 -1.7112
  101MOL0     H13599   7.170   2.865   2.559  0.4244  3.1246  1.4579
  101MOL0     H13600   7.092   3.084   2.597  1.0700 -4.0229  1.8313
  101MOL0     H13601   6.951   3.368   2.343  0.3172 -0.2186 -0.4321
  101MOL0     H13602   6.838   3.273   2.257  0.4953  3.1122 -0.4437
  101MOL0     H13603   6.699   3.449   2.321 -0.6951  1.3024  1.7623
  101MOL0     H13604   6.670   3.301   2.430  1.0510 -0.9046 -1.1413
  101MOL0     H13605   6.822   3.404   2.589  0.4966 -1.5007 -1.4834
  101MOL0     H13606   6.669   3.487   2.568 -1.1632 -2.6249 -2.6957
  101MOL0     H13607   6.947   3.566   2.453  1.0586  4.3217 -1.6491
  101MOL0     H13608   6.801   3.664   2.439  0.7368 -0.6117 -1.7335
  101MOL0     H13609   6.798   3.666   2.698 -0.2823  2.0172  0.3788
  101MOL0     H13610   6.896   3.766   2.591 -0.9491 -0.4948  0.3804
  101MOL0     H13611   6.971   3.507   2.749  1.7386 -0.5040  1.1187
  101MOL0     H13612   7.086   3.596   2.645  0.4026 -0.3646  0.9055
  101MOL0     H13613   6.919   3.686   2.881 -1.5502 -3.1903 -3.2063
  101MOL0     H13614   7.040   3.792   2.798 -2.2041 -0.0876 -3.3632
  101MOL0     H13615   7.090   3.524   2.938  1.5803 -0.1956 -0.2790
  101MOL0     H13616   7.147   3.680   3.010 -0.2888  0.6621  0.4052
  101MOL0     H13617   6.832   3.051   2.241 -0.7209 -1.4152 -1.1870
  101MOL0     H13618   6.930   2.848   2.192  0.6063 -0.1483  0.0819
  101MOL0     H13619   7.468   2.574   2.307  1.0008  0.5921 -0.1388
  101MOL0     H13620   7.476   2.325   2.254 -0.9279 -0.5355  1.2876
  101MOL0     H13621   7.247   0.654   2.695  0.0877  0.3569  1.7412
  101MOL0     H13622   7.119   0.490   2.826  1.7757  3.1382  2.5795
  101MOL0     H13623   6.760   0.345   3.033 -0.9989  1.5137 -1.2325
  101MOL0     H13624   6.628   0.197   3.144  0.6093  1.0197  0.4356
  101MOL0     H13625   6.321  -0.064   2.973 -0.2729 -1.3894 -0.7283
  101MOL0     H13626   6.451  -0.178   2.946 -1.5392 -0.8687  0.3379
  101MOL0     H13627   6.441  -0.259   3.164  0.3716 -0.1828  0.7859
  101MOL0     H13628   6.281  -0.282   3.071  0.2688  0.4062 -1.3848
  101MOL0     H13629   6.195  -0.073   3.196 -2.3395 -0.2589  2.4682
  101MOL0     H13630   6.335  -0.096   3.297 -0.3562 -0.9013  1.1385
  101MOL0     H13631   6.127  -0.306   3.241 -0.2832 -0.9617  2.5805
  101MOL0     H13632   6.104  -0.187   3.360 -1.9112 -1.7649 -1.1759
  101MOL0     H13633   6.390  -0.471   3.524  1.6722  1.4937 -0.0904
  101MOL0     H13634   6.522  -0.032   2.783  0.4293 -2.1874 -0.0073
  101MOL0     H13635   6.713   0.087   2.682  1.7188 -1.0491  0.9561
  102MOL0     O13636   6.092   5.653   6.772 -0.6437  0.7333  0.8480
  102MOL0     C13637   5.976   5.690   6.776  0.1123 -0.6175 -0.2474
  102MOL0     O13638   5.933   5.812   6.813  0.2077 -0.7045  0.4616
  102MOL0     C13639   6.020   5.916   6.845 -0.5547  0.7148 -0.1298
  102MOL0     C13640   6.020   5.963   6.977 -0.2051 -0.2462  0.8779
  102MOL0     C13641   6.090   6.082   7.009  0.1198  0.6339  0.5174
  102MOL0     C13642   6.171   6.149   6.909 -0.4674 -0.4844  1.3332
  102MOL0     O13643   6.243   6.266   6.952  1.0215 -0.5300 -0.1800
  102MOL0     C13644   6.364   6.304   6.894  0.5034  0.1707 -0.0268
  102MOL0     C13645   6.432   6.421   6.964 -0.1813 -0.1203  0.4466
  102MOL0     C13646   6.345   6.546   6.951 -0.2221  0.3511  0.2885
  102MOL0     C13647   6.406   6.638   6.834 -0.3954  0.4476  0.4591
  102MOL0     C13648   6.319   6.764   6.809 -0.5592 -1.3945 -0.1016
  102MOL0     C13649   6.402   6.865   6.723  0.2373 -0.6317  0.1301
  102MOL0     C13650   6.495   6.965   6.799 -0.8130  0.6671  1.1883
  102MOL0     C13651   6.616   6.993   6.706  0.6812  0.1102  1.1100
  102MOL0     N13652   6.734   7.023   6.783 -0.6943  0.6694 -0.0434
  102MOL0     C13653   6.811   7.135   6.774  0.5759 -0.9227  0.3056
  102MOL0     C13654   6.926   7.109   6.835  0.0008  0.9372 -0.1414
  102MOL0     C13655   7.049   7.185   6.833  0.4041  0.0104 -0.3520
  102MOL0     C13656   7.050   7.293   6.947 -0.4527  0.5873 -0.7338
  102MOL0     C13657   7.077   7.245   7.094 -0.5200 -0.1479  1.1107
  102MOL0     C13658   6.990   7.315   7.201  0.3316  0.5757  1.4168
  102MOL0     O13659   7.023   7.449   7.188 -1.1008 -0.3593 -0.0956
  102MOL0     C13660   6.979   7.519   7.298 -0.5932 -0.2208 -0.1910
  102MOL0     C13661   6.994   7.478   7.435  0.0156  0.2147  0.4706
  102MOL0     C13662   6.944   7.567   7.539 -0.1896  0.2120 -0.8180
  102MOL0     C13663   6.945   7.504   7.678  0.2907 -0.5538  0.4379
  102MOL0     C13664   6.898   7.704   7.508 -0.8816  0.0565 -0.1724
  102MOL0     C13665   6.859   7.808   7.605 -1.1670  0.3648  0.5560
  102MOL0     O13666   6.820   7.926   7.554 -0.1743 -0.2400 -0.7382
  102MOL0     C13667   6.794   8.027   7.647 -0.6020 -0.3548  0.4956
  102MOL0     C13668   6.873   8.055   7.761  1.0389  1.4262  0.8295
  102MOL0     C13669   6.836   8.171   7.831  0.0294  0.5670 -0.9293
  102MOL0     C13670   6.723   8.243   7.804  0.3357 -0.2759  0.0255
  102MOL0     O13671   6.664   8.344   7.881 -0.2170 -0.5073  0.2357
  102MOL0     C13672   6.744   8.400   7.986 -0.7961  0.8381 -0.3351
  102MOL0     C13673   6.663   8.523   8.047 -0.0013  0.0226 -0.4147
  102MOL0     C13674   6.691   8.655   7.975  0.3958 -0.1072 -1.8123
  102MOL0     C13675   6.817   8.729   8.007  0.4496 -0.4065 -0.4222
  102MOL0     C13676   6.820   8.778   8.159 -0.4705 -0.5512 -0.3485
  102MOL0     C13677   6.948   8.863   8.196 -0.1001  0.5756 -0.2709
  102MOL0     C13678   7.082   8.791   8.175  0.5678 -0.3989  1.0759
  102MOL0     C13679   7.211   8.865   8.224 -0.1546  0.3477  1.0812
  102MOL0    Cl13680   7.244   8.832   8.396 -0.6042  0.0809 -0.0798
  102MOL0     C13681   6.657   8.217   7.682 -0.3430 -0.7311  0.3089
  102MOL0     C13682   6.682   8.107   7.607  1.0439  0.3006 -0.4922
  102MOL0     O13683   6.841   7.767   7.716  0.4864 -0.1513  0.0088
  102MOL0     C13684   6.896   7.739   7.372 -0.0121 -0.1652 -0.2881
  102MOL0     C13685   6.932   7.647   7.272 -0.0561 -1.0319 -0.1726
  102MOL0     N13686   6.914   6.983   6.885  0.8971 -0.6926 -0.6208
  102MOL0     N13687   6.803   6.928   6.851 -0.3948 -0.0659  0.8905
  102MOL0     C13688   6.179   6.092   6.781 -0.1385  0.3605  1.1141
  102MOL0     C13689   6.103   5.981   6.752  0.5419  0.1376 -0.4172
  102MOL0     C13690   5.871   5.599   6.732 -0.1298 -0.2788 -0.4118
  102MOL0     C13691   5.888   5.456   6.721 -0.8488  0.5065 -0.3826
  102MOL0     C13692   5.793   5.374   6.667 -0.5762  0.6162  0.1746
  102MOL0     C13693   5.664   5.416   6.643 -0.0566  0.1852 -0.3601
  102MOL0     O13694   5.551   5.341   6.614  0.0889 -0.6755 -0.2363
  102MOL0     C13695   5.543   5.330   6.471  0.0881  0.4313  0.9849
  102MOL0     C13696   5.518   5.187   6.406  0.8671 -1.1171  0.5469
  102MOL0     C13697   5.375   5.175   6.344 -0.3431 -0.7897  1.1291
  102MOL0     C13698   5.378   5.206   6.186 -0.3040  0.0580  0.0504
  102MOL0     C13699   5.403   5.349   6.158 -0.0672  0.3145 -0.5452
  102MOL0     C13700   5.414   5.470   6.149 -0.3410 -0.0278 -0.0659
  102MOL0     C13701   5.640   5.556   6.652 -0.2983  0.5952  0.3822
  102MOL0     C13702   5.747   5.642   6.701  0.0239 -0.4343  0.0815
  102MOL0     H13703   5.950   5.925   7.050  0.1944 -1.9993  0.4007
  102MOL0     H13704   6.076   6.114   7.112 -1.9649  0.4267  0.3347
  102MOL0     H13705   6.429   6.217   6.892  1.7048  0.9102  2.5154
  102MOL0     H13706   6.343   6.331   6.790  4.2118  3.7068 -0.1035
  102MOL0     H13707   6.435   6.397   7.070  1.0728 -0.4324  0.3668
  102MOL0     H13708   6.536   6.441   6.936  0.1766 -2.7774 -0.4382
  102MOL0     H13709   6.237   6.531   6.945 -0.5333  2.5425 -0.2776
  102MOL0     H13710   6.351   6.591   7.050  2.7193 -0.0463  0.3830
  102MOL0     H13711   6.509   6.662   6.859  0.6829 -3.5717  0.5333
  102MOL0     H13712   6.406   6.583   6.740  3.1604 -3.8826  2.6307
  102MOL0     H13713   6.232   6.729   6.754  0.7826 -0.1396 -3.2867
  102MOL0     H13714   6.289   6.805   6.906  0.1730 -3.0990  0.9096
  102MOL0     H13715   6.462   6.808   6.652  2.0250 -0.1430  1.1977
  102MOL0     H13716   6.327   6.911   6.658  1.7038 -0.4571 -1.4971
  102MOL0     H13717   6.449   7.060   6.826 -2.3021  0.3577 -0.0993
  102MOL0     H13718   6.528   6.908   6.886 -2.7839 -3.6386 -0.5684
  102MOL0     H13719   6.585   7.074   6.640 -1.1937 -0.1071  1.6747
  102MOL0     H13720   6.649   6.906   6.647  1.9086 -1.0327  3.3297
  102MOL0     H13721   6.807   7.221   6.708  3.0204 -0.6573  0.4158
  102MOL0     H13722   7.137   7.120   6.842  0.3542  0.2140  2.8725
  102MOL0     H13723   7.040   7.240   6.739  0.7003 -1.8215 -1.4986
  102MOL0     H13724   6.951   7.339   6.949  0.5830  3.0490  2.2262
  102MOL0     H13725   7.130   7.364   6.925  0.4481  0.3139  1.4255
  102MOL0     H13726   7.180   7.271   7.119 -0.0892 -1.5966  0.9416
  102MOL0     H13727   7.056   7.138   7.099  1.1286 -0.6259 -0.7271
  102MOL0     H13728   7.026   7.279   7.297  2.4387  2.9348  1.6212
  102MOL0     H13729   6.884   7.297   7.180  0.3994  0.8882  0.7910
  102MOL0     H13730   7.062   7.397   7.459  0.6112  1.3159  2.8315
  102MOL0     H13731   6.856   7.528   7.736  0.6545  0.4656  0.6053
  102MOL0     H13732   6.949   7.395   7.668 -2.4723 -0.6458 -0.6110
  102MOL0     H13733   7.024   7.553   7.736  2.5327 -2.7930 -0.5293
  102MOL0     H13734   6.959   7.990   7.767 -2.2638 -3.9096 -2.2238
  102MOL0     H13735   6.888   8.197   7.923 -1.7777 -1.0114  0.6418
  102MOL0     H13736   6.770   8.325   8.061 -2.2396 -0.2795 -0.9264
  102MOL0     H13737   6.840   8.441   7.951 -0.5799  1.2770  0.7168
  102MOL0     H13738   6.555   8.511   8.035 -0.1147  0.6020  0.0143
  102MOL0     H13739   6.670   8.524   8.156 -1.1857  2.6304 -0.2946
  102MOL0     H13740   6.605   8.720   7.996  1.4516  0.3695  1.6762
  102MOL0     H13741   6.681   8.633   7.868 -0.6621 -0.3740 -1.6724
  102MOL0     H13742   6.913   8.678   7.991  1.1168  1.1961 -1.7529
  102MOL0     H13743   6.823   8.815   7.941 -0.7008 -2.5378 -3.5249
  102MOL0     H13744   6.807   8.694   8.227  2.7682  0.5454  1.8908
  102MOL0     H13745   6.737   8.848   8.170 -0.2391 -0.0923 -1.3324
  102MOL0     H13746   6.935   8.945   8.125 -0.6689  0.3851 -0.3995
  102MOL0     H13747   6.954   8.902   8.298 -0.5869 -2.2507  0.9215
  102MOL0     H13748   7.094   8.773   8.068  2.4004 -2.3016  1.5483
  102MOL0     H13749   7.057   8.697   8.225 -0.5941  0.0639  1.4002
  102MOL0     H13750   7.196   8.972   8.211 -2.8112  0.1974  2.1847
  102MOL0     H13751   7.295   8.830   8.163  0.4720  2.7379  0.4912
  102MOL0     H13752   6.573   8.277   7.650  0.4986 -0.4762 -1.5578
  102MOL0     H13753   6.618   8.094   7.521  2.1791  0.6732 -1.4252
  102MOL0     H13754   6.873   7.836   7.328  0.8418  1.4009  2.4716
  102MOL0     H13755   6.923   7.677   7.168  0.1631  0.0176  0.0996
  102MOL0     H13756   6.241   6.131   6.700  1.7599 -1.1646  1.7477
  102MOL0     H13757   6.110   5.934   6.654  1.4760 -2.5504  0.8700
  102MOL0     H13758   5.985   5.417   6.751 -0.3538  0.6520 -1.7458
  102MOL0     H13759   5.817   5.269   6.655  1.1869  1.1592 -1.3849
  102MOL0     H13760   5.460   5.393   6.435 -0.8989 -0.8658  0.9195
  102MOL0     H13761   5.634   5.370   6.425 -1.0098  1.2506 -0.5638
  102MOL0     H13762   5.541   5.113   6.483  0.6354 -0.3721  1.3505
  102MOL0     H13763   5.583   5.173   6.320 -0.9428 -0.2180 -1.0405
  102MOL0     H13764   5.314   5.250   6.396  1.4790  1.4836  0.1649
  102MOL0     H13765   5.337   5.074   6.359  1.0248 -1.3292  1.1073
  102MOL0     H13766   5.284   5.173   6.141  0.7562  0.5874 -2.7505
  102MOL0     H13767   5.462   5.159   6.134  1.0947  0.2883  1.9741
  102MOL0     H13768   5.420   5.577   6.146 -0.6356  0.1447  2.7682
  102MOL0     H13769   5.541   5.577   6.614 -0.7829 -1.0890  0.6071
  102MOL0     H13770   5.719   5.747   6.698  4.9290  1.1020 -1.1085
  103MOL0     O13771   9.746   2.399   0.481  0.1348  0.1052  0.6761
  103MOL0     C13772   9.808   2.401   0.581 -0.2641 -0.9090  0.6825
  103MOL0     O13773   9.763   2.433   0.705 -0.0081  0.6057 -0.1996
  103MOL0     C13774   9.642   2.471   0.753 -0.4621 -0.6140  0.9854
  103MOL0     C13775   9.520   2.442   0.684 -0.6713  0.3999 -0.6532
  103MOL0     C13776   9.399   2.490   0.729  0.0084 -0.4518  0.5131
  103MOL0     C13777   9.399   2.573   0.840  0.1361  0.0472  0.9095
  103MOL0     O13778   9.273   2.622   0.869 -0.0386  0.1117  0.8224
  103MOL0     C13779   9.256   2.754   0.913 -0.0430 -0.0733 -0.3662
  103MOL0     C13780   9.117   2.796   0.857  0.1054 -0.0122  0.1637
  103MOL0     C13781   9.115   2.945   0.820 -0.2381 -0.0752 -0.6037
  103MOL0     C13782   8.988   2.994   0.767  1.0547 -0.6156 -0.4819
  103MOL0     C13783   9.004   3.115   0.672  0.0627 -0.2127  1.0198
  103MOL0     C13784   8.874   3.169   0.603  0.1669 -0.4431  0.6350
  103MOL0     C13785   8.771   3.233   0.701 -1.3787  0.4709 -0.4042
  103MOL0     C13786   8.659   3.145   0.771  1.0067 -0.2651  0.2564
  103MOL0     N13787   8.647   3.160   0.923  0.3190 -0.4121 -0.4612
  103MOL0     C13788   8.735   3.133   1.022  0.3745 -0.2977 -1.3452
  103MOL0     C13789   8.672   3.169   1.138  0.6104  0.3372 -0.9899
  103MOL0     C13790   8.741   3.166   1.271 -0.1770  1.1434 -0.1714
  103MOL0     C13791   8.722   3.026   1.338  0.1197 -0.2329 -0.5836
  103MOL0     C13792   8.575   2.993   1.371  0.3867 -0.6462 -0.0449
  103MOL0     C13793   8.565   2.842   1.406 -0.2248 -0.2717 -0.1137
  103MOL0     O13794   8.602   2.760   1.296 -0.0757 -0.6148 -0.1957
  103MOL0     C13795   8.504   2.714   1.204 -0.0811 -0.4568 -0.3569
  103MOL0     C13796   8.541   2.705   1.060  0.2585  0.0926 -0.8360
  103MOL0     C13797   8.456   2.648   0.968  0.1037 -0.6430 -0.3116
  103MOL0     C13798   8.503   2.665   0.824  0.4965  0.6033  0.5104
  103MOL0     C13799   8.330   2.601   1.015  0.5541 -0.4065 -0.0220
  103MOL0     C13800   8.233   2.555   0.926 -0.5305 -0.4309  0.1936
  103MOL0     O13801   8.281   2.462   0.841  0.0985  0.2853  0.5521
  103MOL0     C13802   8.185   2.407   0.747 -0.5975 -0.7550 -0.5073
  103MOL0     C13803   8.123   2.476   0.647 -0.5944 -0.4077  0.3102
  103MOL0     C13804   8.062   2.411   0.541 -0.2452 -0.5771 -0.3955
  103MOL0     C13805   8.049   2.275   0.537  0.1443  0.0412  0.1730
  103MOL0     O13806   7.979   2.221   0.430 -0.3130  0.2923  0.2933
  103MOL0     C13807   7.935   2.088   0.433  0.6030  0.2927 -0.9981
  103MOL0     C13808   7.811   2.064   0.535 -0.1917  0.6588  0.2356
  103MOL0     C13809   7.770   1.915   0.531  0.1944 -0.3504 -0.1870
  103MOL0     C13810   7.652   1.870   0.619  0.0514 -0.5819  0.5268
  103MOL0     C13811   7.635   1.714   0.611  0.3944 -0.3426  0.7109
  103MOL0     C13812   7.521   1.671   0.706  0.0229  0.0808  0.0669
  103MOL0     C13813   7.381   1.710   0.671 -0.1678 -0.5549 -0.7613
  103MOL0     C13814   7.273   1.634   0.740 -0.1831 -0.8861 -1.0094
  103MOL0    Cl13815   7.280   1.693   0.905  0.7198 -0.4826  0.3534
  103MOL0     C13816   8.112   2.204   0.638  0.9012 -0.1269 -0.2544
  103MOL0     C13817   8.167   2.267   0.744  0.7352  0.8026  0.2134
  103MOL0     O13818   8.117   2.592   0.932 -0.7261 -0.0913 -0.3584
  103MOL0     C13819   8.298   2.600   1.150 -0.0752  0.2858  0.3765
  103MOL0     C13820   8.386   2.649   1.249  0.0885 -0.7163  1.0555
  103MOL0     N13821   8.537   3.211   1.102 -0.3890 -0.0156 -0.1845
  103MOL0     N13822   8.526   3.180   0.978 -0.6574  0.3237  0.0913
  103MOL0     C13823   9.515   2.606   0.915  0.7563 -0.1546  0.1019
  103MOL0     C13824   9.634   2.548   0.867 -0.2071 -0.7548 -0.2841
  103MOL0     C13825   9.957   2.405   0.567  0.5354  0.9006 -0.4061
  103MOL0     C13826  10.039   2.419   0.676 -0.5375 -0.2846 -0.1639
  103MOL0     C13827  10.175   2.452   0.662  0.0724 -0.2943  0.2157
  103MOL0     C13828  10.230   2.459   0.532 -1.6781  0.0319 -0.7888
  103MOL0     O13829  10.367   2.486   0.508  0.0811  0.3104 -0.0941
  103MOL0     C13830  10.472   2.507   0.609  0.5920  0.4014 -0.8798
  103MOL0     C13831  10.618   2.505   0.562 -0.4007 -0.4385 -0.5294
  103MOL0     C13832  10.646   2.621   0.462  0.2412 -0.1898  0.9318
  103MOL0     C13833  10.797   2.634   0.415 -0.2106 -1.4164 -0.3965
  103MOL0     C13834  10.821   2.543   0.305 -0.4412  0.1793 -0.7213
  103MOL0     C13835  10.838   2.464   0.225  0.1185 -0.4864  0.9689
  103MOL0     C13836  10.148   2.442   0.421 -0.7965 -0.2392  0.2251
  103MOL0     C13837  10.014   2.414   0.436 -0.6591  0.3467 -0.2631
  103MOL0     H13838   9.527   2.398   0.584  2.3512  2.0646 -1.2949
  103MOL0     H13839   9.303   2.473   0.681  0.2079  0.3407 -0.1731
  103MOL0     H13840   9.255   2.746   1.022 -1.9101  1.3622 -0.2292
  103MOL0     H13841   9.339   2.817   0.881  0.7517 -0.5285  0.7187
  103MOL0     H13842   9.093   2.734   0.771  4.6767  1.1246 -2.2478
  103MOL0     H13843   9.043   2.783   0.937 -1.9933  4.2171 -0.8136
  103MOL0     H13844   9.139   3.004   0.909 -0.3633  1.4259 -1.5149
  103MOL0     H13845   9.191   2.967   0.744  0.6192  3.6850  1.1011
  103MOL0     H13846   8.937   2.910   0.720 -2.7823 -0.4334  2.8542
  103MOL0     H13847   8.914   3.015   0.844  1.6829 -2.3172  0.6494
  103MOL0     H13848   9.058   3.192   0.728  0.8005 -0.1006  0.1797
  103MOL0     H13849   9.075   3.091   0.592  0.4993  1.1301  0.9762
  103MOL0     H13850   8.915   3.253   0.547  4.1793 -3.3197 -1.2549
  103MOL0     H13851   8.823   3.099   0.535  0.2391 -0.1220  0.2478
  103MOL0     H13852   8.827   3.278   0.783 -0.4937  0.8528 -1.1995
  103MOL0     H13853   8.726   3.318   0.649 -0.3357  3.3725  3.0703
  103MOL0     H13854   8.679   3.039   0.752  3.2119  0.5204 -2.4941
  103MOL0     H13855   8.560   3.159   0.727  0.4685 -1.1946  1.1329
  103MOL0     H13856   8.839   3.112   0.999  0.2528 -1.5219 -0.8275
  103MOL0     H13857   8.847   3.194   1.268  0.7734 -1.3789  3.4294
  103MOL0     H13858   8.690   3.237   1.337  0.9505  1.2781  0.5864
  103MOL0     H13859   8.759   3.038   1.441 -2.6082 -2.3088  0.7895
  103MOL0     H13860   8.777   2.949   1.284  0.8290 -0.2258  0.0996
  103MOL0     H13861   8.516   3.004   1.280  0.6642 -2.3878 -0.4813
  103MOL0     H13862   8.538   3.066   1.443  2.2267  1.6473 -1.3028
  103MOL0     H13863   8.463   2.821   1.440 -0.2977  0.2003 -0.0421
  103MOL0     H13864   8.631   2.815   1.490  0.5698 -0.1769 -0.6979
  103MOL0     H13865   8.638   2.744   1.032  0.4522  1.6227  1.6497
  103MOL0     H13866   8.606   2.702   0.825 -0.3238  3.0404  1.3459
  103MOL0     H13867   8.505   2.570   0.770 -2.2105  0.6228  0.2410
  103MOL0     H13868   8.445   2.739   0.769  1.1914 -0.1456 -1.3085
  103MOL0     H13869   8.136   2.584   0.648 -0.0807 -0.3192 -3.1830
  103MOL0     H13870   8.029   2.485   0.468  1.9815  0.5467 -0.3249
  103MOL0     H13871   7.900   2.060   0.333 -1.5850  2.0297 -0.7748
  103MOL0     H13872   8.015   2.014   0.446  1.5387  1.4118 -0.1841
  103MOL0     H13873   7.850   2.099   0.631  1.4049  0.6681 -0.3725
  103MOL0     H13874   7.724   2.117   0.496  1.4794  1.9071 -2.0160
  103MOL0     H13875   7.855   1.853   0.560  1.5718  1.8106  0.6965
  103MOL0     H13876   7.752   1.899   0.425  2.7344  2.2967 -1.1729
  103MOL0     H13877   7.662   1.902   0.723  0.7651 -0.2323  0.3587
  103MOL0     H13878   7.569   1.927   0.577  0.8738  1.0587  1.0757
  103MOL0     H13879   7.721   1.664   0.656 -0.5196 -0.8045  2.0019
  103MOL0     H13880   7.628   1.664   0.514  1.1951 -1.5113  1.2156
  103MOL0     H13881   7.530   1.566   0.733  1.3905  0.5923  1.8225
  103MOL0     H13882   7.528   1.715   0.806 -1.1180 -0.8863  0.5907
  103MOL0     H13883   7.372   1.701   0.562  0.3846 -1.8596 -0.7154
  103MOL0     H13884   7.371   1.816   0.697 -1.8391 -0.8947  0.0992
  103MOL0     H13885   7.293   1.528   0.721  2.1812 -0.2542 -2.4786
  103MOL0     H13886   7.180   1.661   0.689 -0.0515  1.3844 -0.1662
  103MOL0     H13887   8.117   2.096   0.639 -0.1439 -0.2920  3.6988
  103MOL0     H13888   8.216   2.195   0.808 -4.2483 -3.5850 -0.2540
  103MOL0     H13889   8.201   2.557   1.173 -2.2089  2.8542 -2.9053
  103MOL0     H13890   8.367   2.661   1.355  0.4399  1.6009  0.9237
  103MOL0     H13891   9.510   2.682   0.992 -1.3995  0.0818 -0.2101
  103MOL0     H13892   9.727   2.578   0.914 -0.9433  2.4657 -0.6117
  103MOL0     H13893  10.004   2.397   0.776  2.8744  3.1554  2.0687
  103MOL0     H13894  10.235   2.478   0.749  1.4744  3.3294 -1.6338
  103MOL0     H13895  10.443   2.600   0.658 -2.4154 -1.1188  0.5151
  103MOL0     H13896  10.465   2.425   0.681  1.3013 -0.8741 -2.2113
  103MOL0     H13897  10.644   2.418   0.501  0.8354 -1.1377  0.9383
  103MOL0     H13898  10.683   2.515   0.649 -0.4980 -0.1701 -0.4854
  103MOL0     H13899  10.615   2.711   0.516 -2.7699 -1.3223  1.2871
  103MOL0     H13900  10.589   2.600   0.371  1.5923 -1.1807  0.2697
  103MOL0     H13901  10.852   2.594   0.500 -1.2778 -0.6696  0.6715
  103MOL0     H13902  10.814   2.737   0.381  0.6005 -0.9779  1.2536
  103MOL0     H13903  10.844   2.399   0.140 -1.0604  0.3305  0.2294
  103MOL0     H13904  10.190   2.470   0.325 -3.0439  1.1331 -0.4608
  103MOL0     H13905   9.968   2.406   0.338  1.9793 -3.3601 -1.4188
  104MOL0     O13906   9.854   0.443   5.811 -0.8113 -0.2844 -0.1040
  104MOL0     C13907   9.975   0.428   5.800  0.6613  0.8189  0.6203
  104MOL0     O13908  10.053   0.362   5.901  0.4207 -0.2264  0.4338
  104MOL0     C13909   9.986   0.288   5.999 -0.0031  0.4875  0.4869
  104MOL0     C13910   9.979   0.340   6.126  0.5900  0.1010 -1.3414
  104MOL0     C13911   9.923   0.275   6.241 -0.4091  0.7837 -0.2426
  104MOL0     C13912   9.846   0.154   6.221  0.6888  0.4081 -0.5821
  104MOL0     O13913   9.790   0.072   6.324  0.9688 -0.2791  0.5443
  104MOL0     C13914   9.836   0.085   6.456  0.6241  0.4046 -0.2946
  104MOL0     C13915   9.762   0.181   6.544  0.0346 -0.1601 -1.2453
  104MOL0     C13916   9.648   0.116   6.621 -0.6739 -0.9965 -0.1355
  104MOL0     C13917   9.600   0.212   6.728 -0.1014  0.4788 -0.1697
  104MOL0     C13918   9.477   0.158   6.805  0.9885 -0.1339  0.8583
  104MOL0     C13919   9.510   0.091   6.939 -0.4867  0.0313  0.8293
  104MOL0     C13920   9.577  -0.046   6.942  0.7692 -0.4113 -1.0884
  104MOL0     C13921   9.635  -0.082   7.077  0.1218  0.4005 -0.6939
  104MOL0     N13922   9.776  -0.030   7.092  0.1324  0.5224  0.0620
  104MOL0     C13923   9.891  -0.103   7.057 -0.8787 -0.7494  0.2173
  104MOL0     C13924   9.990  -0.024   7.102 -0.6677 -0.4592 -0.5236
  104MOL0     C13925  10.141  -0.045   7.104  0.5334  0.8192  0.9967
  104MOL0     C13926  10.222   0.078   7.056 -1.0496 -1.0444 -1.0269
  104MOL0     C13927  10.246   0.067   6.903  0.3309  0.0811  0.3397
  104MOL0     C13928  10.169   0.175   6.830 -0.0055  0.0649 -0.0973
  104MOL0     O13929  10.201   0.146   6.699 -0.4894 -0.1535 -0.5258
  104MOL0     C13930  10.225   0.241   6.607 -0.1187 -0.6612  0.0687
  104MOL0     C13931  10.298   0.211   6.497 -0.4827  0.5808 -1.3232
  104MOL0     C13932  10.308   0.305   6.389 -0.9236  0.3910 -0.2742
  104MOL0     C13933  10.375   0.256   6.265 -0.6374  0.3397  0.1936
  104MOL0     C13934  10.258   0.435   6.406 -0.0328 -0.5858  1.0867
  104MOL0     C13935  10.265   0.549   6.310 -0.1262  0.3022  0.6968
  104MOL0     O13936  10.295   0.521   6.175  0.3627 -0.3432  0.9680
  104MOL0     C13937  10.335   0.624   6.093  1.4473 -0.0500  0.2915
  104MOL0     C13938  10.435   0.717   6.128  0.6119  0.4210  1.0641
  104MOL0     C13939  10.452   0.835   6.047 -0.6944 -0.5418  0.6225
  104MOL0     C13940  10.390   0.840   5.917 -1.5018 -0.4793 -0.0131
  104MOL0     O13941  10.408   0.944   5.824  0.1031 -0.0898 -0.0479
  104MOL0     C13942  10.400   1.072   5.876  0.1652 -0.5134  0.3486
  104MOL0     C13943  10.321   1.153   5.772 -0.1674  0.8046  0.6469
  104MOL0     C13944  10.288   1.293   5.793  0.0100 -0.4587 -0.5333
  104MOL0     C13945  10.420   1.370   5.782  0.0915 -0.0060 -0.0336
  104MOL0     C13946  10.383   1.520   5.776 -0.3896 -0.5639  0.0498
  104MOL0     C13947  10.511   1.614   5.736  0.5724  0.3841  0.5718
  104MOL0     C13948  10.509   1.756   5.778  0.2902  0.7990  0.1511
  104MOL0     C13949  10.635   1.820   5.725 -0.1861  0.0105 -0.3727
  104MOL0    Cl13950  10.610   1.834   5.556  0.5706 -0.5389  0.4037
  104MOL0     C13951  10.299   0.742   5.875  0.7539  0.0034 -0.6714
  104MOL0     C13952  10.268   0.643   5.966  0.1393  0.4187 -0.7298
  104MOL0     O13953  10.252   0.661   6.356  0.7712 -0.1212 -0.7063
  104MOL0     C13954  10.202   0.464   6.522  0.0311 -0.2799 -1.0750
  104MOL0     C13955  10.175   0.366   6.624  0.1970  0.0611  0.5431
  104MOL0     N13956   9.940   0.087   7.168  0.8294  0.7991 -0.4533
  104MOL0     N13957   9.813   0.087   7.160  0.8524  0.5486 -0.3902
  104MOL0     C13958   9.847   0.100   6.086 -0.7422 -0.1344  0.0034
  104MOL0     C13959   9.920   0.164   5.977  0.7804 -1.2609 -0.3290
  104MOL0     C13960  10.028   0.499   5.681  0.2372 -0.4061 -0.8995
  104MOL0     C13961  10.161   0.521   5.668 -0.3248 -0.4667  0.2614
  104MOL0     C13962  10.219   0.581   5.560  0.0964 -0.1431  0.3371
  104MOL0     C13963  10.138   0.621   5.453 -0.2388 -0.5778 -0.3272
  104MOL0     O13964  10.183   0.677   5.341 -0.1380 -0.3105  0.3232
  104MOL0     C13965  10.322   0.712   5.327 -0.1395 -0.0993  0.3327
  104MOL0     C13966  10.346   0.834   5.420 -0.4985  0.7331  0.6701
  104MOL0     C13967  10.365   0.965   5.350  0.1770 -0.2207 -0.3282
  104MOL0     C13968  10.239   1.043   5.323 -0.0695 -0.5193 -0.4061
  104MOL0     C13969  10.263   1.146   5.219  0.6801 -0.2577 -0.5615
  104MOL0     C13970  10.294   1.207   5.126 -0.9707  0.0287 -0.1383
  104MOL0     C13971  10.001   0.607   5.471 -0.1783 -0.0169  0.3433
  104MOL0     C13972   9.942   0.547   5.588  0.3779 -0.5758  0.6187
  104MOL0     H13973  10.018   0.440   6.136  2.5436 -0.7846  0.8747
  104MOL0     H13974   9.950   0.333   6.329  2.3106  0.9561 -1.1232
  104MOL0     H13975   9.824  -0.019   6.490 -0.4429 -0.3664 -2.8356
  104MOL0     H13976   9.943   0.108   6.463 -0.1914  4.9513  0.1710
  104MOL0     H13977   9.835   0.238   6.602  1.8064 -0.3143 -3.2080
  104MOL0     H13978   9.718   0.257   6.479  0.7810  0.4223 -1.0853
  104MOL0     H13979   9.568   0.090   6.550 -1.3451  1.4373 -0.3536
  104MOL0     H13980   9.666   0.019   6.669 -2.2677 -0.7038  1.1534
  104MOL0     H13981   9.682   0.229   6.798  1.3228 -1.7929 -1.1891
  104MOL0     H13982   9.583   0.312   6.689 -0.1045 -0.4171 -2.6491
  104MOL0     H13983   9.408   0.240   6.825 -0.9161 -1.0803 -1.3901
  104MOL0     H13984   9.426   0.082   6.745 -1.4745  0.5861  1.9205
  104MOL0     H13985   9.578   0.157   6.994  1.1888  0.3446 -1.4415
  104MOL0     H13986   9.413   0.073   6.985  0.2396  1.6616  3.1724
  104MOL0     H13987   9.505  -0.123   6.912  1.6300 -1.7041  0.0493
  104MOL0     H13988   9.657  -0.049   6.868  0.4939  0.6455 -1.4473
  104MOL0     H13989   9.626  -0.191   7.087 -1.4143  0.6993  2.3109
  104MOL0     H13990   9.576  -0.034   7.156 -0.1841  3.2665 -2.5247
  104MOL0     H13991   9.915  -0.197   7.009  1.3754  1.1713 -2.7619
  104MOL0     H13992  10.166  -0.071   7.207 -1.6571 -1.6084  1.0094
  104MOL0     H13993  10.166  -0.137   7.050 -1.9600 -1.7067  3.7571
  104MOL0     H13994  10.320   0.080   7.105 -2.0599  0.3911  1.1033
  104MOL0     H13995  10.176   0.170   7.093 -0.5474 -1.9744  2.1968
  104MOL0     H13996  10.239  -0.036   6.867  0.9003  0.3264 -0.5141
  104MOL0     H13997  10.348   0.103   6.888  0.1740  1.8910  3.0583
  104MOL0     H13998  10.196   0.278   6.854 -1.6886  0.9872 -1.9154
  104MOL0     H13999  10.063   0.159   6.853 -0.0415  0.4699  0.0141
  104MOL0     H14000  10.356   0.120   6.491 -0.5697  0.3921  0.3469
  104MOL0     H14001  10.310   0.276   6.179 -0.4642  0.7226  0.1483
  104MOL0     H14002  10.471   0.308   6.254 -1.2349  2.0450  2.2651
  104MOL0     H14003  10.393   0.148   6.264 -1.2609  0.2322 -1.5641
  104MOL0     H14004  10.466   0.716   6.232  2.3677  0.6811  0.5824
  104MOL0     H14005  10.522   0.915   6.070 -0.9137  0.2608 -1.3298
  104MOL0     H14006  10.349   1.077   5.973  0.3518  0.5429  0.4017
  104MOL0     H14007  10.497   1.115   5.903  1.7831 -4.6111  1.8841
  104MOL0     H14008  10.368   1.160   5.673 -3.1900 -0.0604 -0.9977
  104MOL0     H14009  10.232   1.106   5.730  1.3977 -0.4485 -1.5076
  104MOL0     H14010  10.242   1.306   5.892 -0.6440  0.8698 -0.9812
  104MOL0     H14011  10.206   1.335   5.734 -1.6242  2.0821  3.1191
  104MOL0     H14012  10.496   1.348   5.857  1.5705 -0.6376 -1.6616
  104MOL0     H14013  10.460   1.355   5.682 -2.3917  2.1626 -1.4744
  104MOL0     H14014  10.351   1.561   5.872  1.2823  0.8481  0.0629
  104MOL0     H14015  10.308   1.537   5.698  2.5684  0.9593 -2.7227
  104MOL0     H14016  10.597   1.568   5.786  0.1324  1.0143  1.9470
  104MOL0     H14017  10.523   1.613   5.627 -2.4725 -0.6199  0.1414
  104MOL0     H14018  10.508   1.773   5.886 -0.6730 -1.0919  0.4857
  104MOL0     H14019  10.424   1.813   5.739 -0.4596 -0.0930  0.4604
  104MOL0     H14020  10.716   1.753   5.755  1.5801  2.1639 -0.0791
  104MOL0     H14021  10.638   1.910   5.787  1.4039 -2.0416  2.8644
  104MOL0     H14022  10.256   0.744   5.776  0.7124  1.3619 -0.6464
  104MOL0     H14023  10.188   0.576   5.939 -1.0366  0.3744  2.4459
  104MOL0     H14024  10.152   0.559   6.538  0.5481 -0.5322  3.1758
  104MOL0     H14025  10.135   0.400   6.719 -1.0955 -1.5574  0.6180
  104MOL0     H14026   9.801   0.003   6.068 -0.9178  0.1954 -1.4910
  104MOL0     H14027   9.912   0.127   5.876 -2.6093 -0.8029 -0.3401
  104MOL0     H14028  10.224   0.476   5.744 -0.2588  0.2544  0.6423
  104MOL0     H14029  10.327   0.572   5.565 -0.0109 -2.1428 -0.0478
  104MOL0     H14030  10.392   0.629   5.344  3.7831  2.5956 -1.0840
  104MOL0     H14031  10.334   0.743   5.223  4.5604  1.6443  1.1492
  104MOL0     H14032  10.446   0.837   5.464 -0.1863  2.8649 -0.0429
  104MOL0     H14033  10.273   0.830   5.502 -0.7179 -0.0481  0.4519
  104MOL0     H14034  10.419   0.952   5.255  0.1448  3.5907 -1.0402
  104MOL0     H14035  10.436   1.027   5.406  0.6064  3.2263 -4.1436
  104MOL0     H14036  10.199   1.097   5.410 -0.0178  3.3488 -2.5583
  104MOL0     H14037  10.164   0.967   5.301  0.1485 -0.4923 -1.2581
  104MOL0     H14038  10.314   1.258   5.034 -1.3613 -0.5923 -0.5794
  104MOL0     H14039   9.927   0.623   5.393  0.0538 -0.4599  0.0319
  104MOL0     H14040   9.836   0.525   5.592  0.6701 -2.2764  0.0972
  105MOL0     O14041   2.788   9.922   2.588  0.1233  0.3966 -0.5610
  105MOL0     C14042   2.781   9.906   2.469  0.2161  0.4389 -0.6904
  105MOL0     O14043   2.850   9.816   2.400  0.2521  0.2600  0.3585
  105MOL0     C14044   2.836   9.677   2.424 -0.1341  0.0557 -0.0272
  105MOL0     C14045   2.757   9.632   2.528 -0.0213 -0.5812 -0.4999
  105MOL0     C14046   2.727   9.493   2.528  0.2980  0.4013  0.8807
  105MOL0     C14047   2.782   9.400   2.451  0.4697  0.1271 -0.0596
  105MOL0     O14048   2.753   9.267   2.471 -0.4325 -0.3030 -0.0752
  105MOL0     C14049   2.856   9.182   2.516 -0.6738 -0.7401 -0.5712
  105MOL0     C14050   2.816   9.052   2.472  0.1795  0.6838  0.7564
  105MOL0     C14051   2.886   8.956   2.555  0.1655 -0.7227  0.3026
  105MOL0     C14052   2.866   8.814   2.515  0.7889  1.0006 -0.0680
  105MOL0     C14053   2.918   8.714   2.613  0.6135  0.4354 -0.1910
  105MOL0     C14054   2.938   8.574   2.545 -0.4632  0.4888 -0.6271
  105MOL0     C14055   2.811   8.489   2.562 -0.7988  0.8874  1.2070
  105MOL0     C14056   2.854   8.348   2.511  0.2911 -0.1966  0.1055
  105MOL0     N14057   2.907   8.344   2.367  0.7087 -0.6114 -0.2930
  105MOL0     C14058   2.835   8.374   2.260 -0.2213  0.8966  0.1929
  105MOL0     C14059   2.919   8.323   2.166 -0.2053 -0.6794  0.3357
  105MOL0     C14060   2.877   8.324   2.022  0.3955  0.3765 -0.3078
  105MOL0     C14061   2.977   8.274   1.915 -0.6861  0.4689  0.4348
  105MOL0     C14062   3.067   8.388   1.855  0.5465 -0.6544  0.1933
  105MOL0     C14063   3.028   8.539   1.855 -1.4912  0.2848  0.1676
  105MOL0     O14064   3.044   8.587   1.985 -0.2288 -0.0394  0.0571
  105MOL0     C14065   3.064   8.724   1.997 -0.3057  0.2660 -0.4703
  105MOL0     C14066   2.954   8.797   2.024  0.8320  0.5015  0.7772
  105MOL0     C14067   2.959   8.929   2.059  0.0707  0.0429 -0.5425
  105MOL0     C14068   2.828   8.997   2.092 -0.4588  0.6427  0.4002
  105MOL0     C14069   3.088   8.994   2.077 -0.4693 -0.4071  0.8296
  105MOL0     C14070   3.107   9.130   2.131  0.2124 -0.0017  0.0315
  105MOL0     O14071   3.201   9.208   2.072 -0.6047 -0.5044 -0.9033
  105MOL0     C14072   3.205   9.349   2.094  0.1555  0.1674 -0.3305
  105MOL0     C14073   3.185   9.407   2.222 -0.4680 -0.7324  0.4599
  105MOL0     C14074   3.211   9.541   2.240  0.0536 -0.6059 -0.4470
  105MOL0     C14075   3.244   9.624   2.128 -0.0049  0.9603 -0.2917
  105MOL0     O14076   3.264   9.760   2.133  0.1007 -0.6935 -0.5585
  105MOL0     C14077   3.177   9.834   2.216 -0.8241 -0.5183 -0.1827
  105MOL0     C14078   3.200   9.981   2.180  1.1967  1.4559  0.9253
  105MOL0     C14079   3.081  10.071   2.219  0.0507 -0.8409 -0.6292
  105MOL0     C14080   3.121  10.212   2.250  0.4547  1.0358  0.1406
  105MOL0     C14081   3.159  10.239   2.400  0.3766 -0.8063 -0.8300
  105MOL0     C14082   3.191  10.386   2.442 -0.5168  0.4217  0.8482
  105MOL0     C14083   3.312  10.441   2.361 -0.0323  0.5441 -0.5388
  105MOL0     C14084   3.383  10.558   2.425  0.0821 -0.6176 -0.2282
  105MOL0    Cl14085   3.529  10.617   2.322 -0.2506  0.0541 -0.2909
  105MOL0     C14086   3.267   9.560   1.998  0.7315 -0.8116 -0.3036
  105MOL0     C14087   3.245   9.425   1.988 -0.2196 -0.6315  0.2199
  105MOL0     O14088   3.029   9.160   2.223  0.1911 -0.1974  0.0635
  105MOL0     C14089   3.205   8.917   2.036  0.3574  0.1366  0.4339
  105MOL0     C14090   3.189   8.781   2.006 -0.9643 -1.2531  0.2468
  105MOL0     N14091   3.038   8.279   2.206  0.0780 -0.0596 -0.1211
  105MOL0     N14092   3.028   8.283   2.333  0.5894  0.0025 -0.0860
  105MOL0     C14093   2.870   9.449   2.345 -0.6696 -0.6952 -0.7268
  105MOL0     C14094   2.892   9.590   2.331 -0.0831  0.7657 -0.8821
  105MOL0     C14095   2.716  10.027   2.410 -0.7592  0.1049 -0.0025
  105MOL0     C14096   2.682  10.144   2.476  0.4561 -0.1776  0.0130
  105MOL0     C14097   2.647  10.262   2.417 -0.2906 -0.0645 -0.8584
  105MOL0     C14098   2.633  10.260   2.284  0.8351 -0.2115 -0.3719
  105MOL0     O14099   2.621  10.379   2.211 -0.5631 -0.4504  0.1516
  105MOL0     C14100   2.617  10.505   2.281 -0.1092 -0.5159  0.6299
  105MOL0     C14101   2.647  10.628   2.186 -0.8923  0.5745  0.6915
  105MOL0     C14102   2.799  10.657   2.170  0.5557  0.1556 -0.6988
  105MOL0     C14103   2.881  10.703   2.301  0.1933 -0.2292 -0.3763
  105MOL0     C14104   2.820  10.828   2.366  1.4054 -0.4257  0.0627
  105MOL0     C14105   2.764  10.927   2.414 -0.4749  0.3682  0.1961
  105MOL0     C14106   2.653  10.136   2.216 -1.0277 -0.7901 -0.9162
  105MOL0     C14107   2.671  10.020   2.276 -0.4401  0.4171  0.0155
  105MOL0     H14108   2.705   9.698   2.597  0.4541  1.0084 -1.6286
  105MOL0     H14109   2.682   9.460   2.621  1.9898 -0.9354  1.2885
  105MOL0     H14110   2.956   9.186   2.472 -1.4349 -1.4804 -2.5179
  105MOL0     H14111   2.867   9.195   2.624 -2.5895  2.1509 -0.6120
  105MOL0     H14112   2.708   9.036   2.470  0.1775  0.7024  0.6995
  105MOL0     H14113   2.844   9.055   2.366 -4.0299  0.1779 -0.5336
  105MOL0     H14114   2.995   8.970   2.557 -0.0123  1.8438 -2.0297
  105MOL0     H14115   2.846   8.962   2.657  0.0389  1.1630  0.1841
  105MOL0     H14116   2.759   8.798   2.499  0.9603 -1.3372  0.8534
  105MOL0     H14117   2.924   8.797   2.424  2.7780 -3.2983  1.7419
  105MOL0     H14118   3.009   8.756   2.658  2.9927 -2.7206 -1.6352
  105MOL0     H14119   2.851   8.712   2.699 -2.5475  2.2723 -2.3868
  105MOL0     H14120   2.985   8.580   2.447  0.3665  3.6722 -0.1513
  105MOL0     H14121   3.012   8.523   2.607 -0.9314  0.0988 -0.3852
  105MOL0     H14122   2.776   8.480   2.665  1.7291  2.0929  2.2638
  105MOL0     H14123   2.733   8.526   2.495  0.7765  1.4598 -0.3886
  105MOL0     H14124   2.774   8.274   2.521 -0.0933  0.2804  0.5777
  105MOL0     H14125   2.939   8.311   2.569  0.1516  0.0294  0.4549
  105MOL0     H14126   2.730   8.402   2.258 -0.6713 -0.7177 -1.8638
  105MOL0     H14127   2.786   8.265   2.008  0.5552  0.0320  0.0756
  105MOL0     H14128   2.847   8.426   1.996 -1.9109 -0.0691  0.3762
  105MOL0     H14129   2.915   8.231   1.836 -1.2645  2.7118 -0.4001
  105MOL0     H14130   3.031   8.186   1.952 -0.2181  0.5731  0.0017
  105MOL0     H14131   3.068   8.363   1.748 -1.5633 -1.6548  0.3564
  105MOL0     H14132   3.171   8.383   1.889  0.9572 -2.1130 -1.1348
  105MOL0     H14133   2.924   8.562   1.830 -1.7377  1.4266  2.0313
  105MOL0     H14134   3.080   8.592   1.774 -3.8199 -0.0244 -1.6639
  105MOL0     H14135   2.856   8.749   2.027  0.0955  1.8229 -0.5932
  105MOL0     H14136   2.774   8.942   2.170 -1.6929 -1.3758 -1.7525
  105MOL0     H14137   2.841   9.103   2.115 -1.4747  0.8248  0.1898
  105MOL0     H14138   2.766   8.989   2.002 -1.5193 -0.1894  1.1717
  105MOL0     H14139   3.175   9.336   2.304  0.2320  0.0471  1.2323
  105MOL0     H14140   3.213   9.587   2.338 -0.7907 -1.4160 -0.0292
  105MOL0     H14141   3.078   9.788   2.212 -1.7622  1.5209 -2.0688
  105MOL0     H14142   3.217   9.805   2.314 -0.3689 -0.5882 -0.3849
  105MOL0     H14143   3.292   9.988   2.238  3.5894 -1.1980 -2.1879
  105MOL0     H14144   3.215   9.979   2.072  0.6696 -0.8604  0.8251
  105MOL0     H14145   3.017  10.040   2.302 -1.9492  1.3650 -1.2403
  105MOL0     H14146   3.020  10.085   2.129  2.8254 -0.7949 -2.6643
  105MOL0     H14147   3.204  10.250   2.189  1.6753  2.5551  2.5720
  105MOL0     H14148   3.031  10.274   2.240 -1.7103 -1.5815  2.0636
  105MOL0     H14149   3.243  10.173   2.424  0.1912 -1.3484 -1.6333
  105MOL0     H14150   3.075  10.203   2.461 -0.4540 -0.2319 -1.6092
  105MOL0     H14151   3.103  10.450   2.427 -0.6984 -0.0754 -0.2971
  105MOL0     H14152   3.216  10.383   2.548  1.7215  1.5629  0.4166
  105MOL0     H14153   3.271  10.463   2.262 -1.1998 -2.2682 -0.7792
  105MOL0     H14154   3.381  10.356   2.356 -2.0511 -1.2026  0.0537
  105MOL0     H14155   3.418  10.517   2.521  1.1048  0.2632 -0.2012
  105MOL0     H14156   3.321  10.646   2.440  2.1876  0.4122  4.2343
  105MOL0     H14157   3.283   9.620   1.910 -0.9095  0.8271  0.4345
  105MOL0     H14158   3.295   9.374   1.906 -0.2688 -0.6681  0.2122
  105MOL0     H14159   3.299   8.970   2.025  1.0376 -1.2106 -0.6414
  105MOL0     H14160   3.275   8.722   1.977 -0.1876 -0.3286  0.6274
  105MOL0     H14161   2.931   9.376   2.293 -0.2978 -1.1912  0.3967
  105MOL0     H14162   2.969   9.639   2.271  2.5837  3.6037  4.2135
  105MOL0     H14163   2.710  10.144   2.581  1.7176 -2.2298 -0.2619
  105MOL0     H14164   2.640  10.345   2.487  2.8629 -3.0171  3.4629
  105MOL0     H14165   2.517  10.507   2.325 -0.1746 -1.4140  0.5424
  105MOL0     H14166   2.690  10.513   2.362 -0.4515  0.6521  0.8386
  105MOL0     H14167   2.597  10.718   2.222 -3.1342 -1.3941  2.8278
  105MOL0     H14168   2.603  10.603   2.089 -1.5035  2.6609  0.3830
  105MOL0     H14169   2.814  10.732   2.091 -1.1069  3.0768  1.5633
  105MOL0     H14170   2.834  10.561   2.131 -1.7720 -0.2884 -1.9106
  105MOL0     H14171   2.982  10.728   2.268  0.8254 -1.6764  0.3492
  105MOL0     H14172   2.883  10.635   2.387  0.3723  0.0107 -0.1865
  105MOL0     H14173   2.725  11.022   2.443 -3.4423 -0.5426 -0.3744
  105MOL0     H14174   2.646  10.140   2.107 -0.5265 -0.3363 -0.9388
  105MOL0     H14175   2.660   9.925   2.224  1.3665  0.2275 -0.0758
  106MOL0     O14176   7.740   3.429   1.957  0.2436 -0.4918 -0.8835
  106MOL0     C14177   7.636   3.493   1.931  0.0281  1.1274  0.1486
  106MOL0     O14178   7.548   3.468   1.828 -0.6307  0.8696 -0.8743
  106MOL0     C14179   7.570   3.354   1.757 -0.8258 -0.0524  0.6181
  106MOL0     C14180   7.694   3.322   1.688  0.1553  0.4892  0.5046
  106MOL0     C14181   7.707   3.219   1.604  0.6913  1.0498  0.1349
  106MOL0     C14182   7.609   3.119   1.581  0.1940 -0.0441 -0.3848
  106MOL0     O14183   7.626   3.005   1.504  0.5521  0.3972 -0.4795
  106MOL0     C14184   7.749   2.984   1.442  0.3876 -0.3618  0.2261
  106MOL0     C14185   7.718   2.882   1.322 -0.2837  0.8138 -0.1583
  106MOL0     C14186   7.848   2.826   1.257  0.1206  0.3064  0.1114
  106MOL0     C14187   7.947   2.942   1.212 -0.3927 -0.1177  0.5837
  106MOL0     C14188   8.079   2.899   1.140 -0.2092  2.2664 -0.0409
  106MOL0     C14189   8.195   2.997   1.149  0.3319  0.1024  0.7038
  106MOL0     C14190   8.172   3.125   1.093 -0.0538 -0.0573 -0.5896
  106MOL0     C14191   8.193   3.249   1.180  0.4544  0.5812 -0.0048
  106MOL0     N14192   8.084   3.289   1.269 -0.0061  0.2125  0.3108
  106MOL0     C14193   7.988   3.378   1.213  0.8465 -0.0137 -0.4935
  106MOL0     C14194   7.905   3.399   1.314 -0.6578 -0.0615 -0.8872
  106MOL0     C14195   7.769   3.466   1.312 -0.1014  0.5546 -0.0395
  106MOL0     C14196   7.672   3.367   1.265 -0.9578 -0.0770 -0.3915
  106MOL0     C14197   7.537   3.443   1.240 -0.9960 -0.0615  0.5543
  106MOL0     C14198   7.499   3.527   1.362  0.1836  0.1222  0.3905
  106MOL0     O14199   7.365   3.577   1.336 -0.2155  0.0866 -0.2910
  106MOL0     C14200   7.331   3.677   1.422  0.0982 -0.3466  0.3300
  106MOL0     C14201   7.399   3.724   1.540  0.1062 -0.3988 -0.0163
  106MOL0     C14202   7.364   3.858   1.586 -0.1276  0.0260 -0.5612
  106MOL0     C14203   7.460   3.928   1.677 -0.0023  0.1826 -0.4459
  106MOL0     C14204   7.243   3.924   1.529 -0.2424  0.0556  0.0423
  106MOL0     C14205   7.198   4.054   1.583  0.3185 -0.7538  0.6129
  106MOL0     O14206   7.104   4.111   1.506  0.2649 -0.2694 -0.0026
  106MOL0     C14207   7.062   4.233   1.547  0.4319 -1.0680  0.3826
  106MOL0     C14208   7.134   4.347   1.512 -0.1315  0.1569 -1.4329
  106MOL0     C14209   7.085   4.477   1.542 -0.0677 -0.8574 -0.1139
  106MOL0     C14210   6.957   4.505   1.604 -0.4084  0.1518 -0.0005
  106MOL0     O14211   6.899   4.625   1.627  0.9380  0.5410  0.2144
  106MOL0     C14212   6.944   4.731   1.547 -1.3338 -0.2326  0.3306
  106MOL0     C14213   6.840   4.844   1.558 -0.8492 -0.6676 -0.2814
  106MOL0     C14214   6.828   4.903   1.694 -0.4301  0.7045  0.2820
  106MOL0     C14215   6.753   5.025   1.711  0.8216 -0.8416  0.5623
  106MOL0     C14216   6.693   5.046   1.850  0.0057  1.0505  0.8419
  106MOL0     C14217   6.795   5.024   1.960  0.0133  0.3459  0.7435
  106MOL0     C14218   6.734   5.101   2.083 -0.0128  1.0861  0.3908
  106MOL0     C14219   6.820   5.105   2.202 -0.5221 -1.1290  0.2752
  106MOL0    Cl14220   6.745   5.219   2.320  0.3845 -0.0544 -0.3812
  106MOL0     C14221   6.886   4.389   1.635  0.3432  0.2073  0.7172
  106MOL0     C14222   6.942   4.261   1.609  0.1410  0.3043 -0.5286
  106MOL0     O14223   7.245   4.098   1.692  0.4531 -0.0499 -0.3637
  106MOL0     C14224   7.169   3.851   1.435  0.0217  0.5877  0.5299
  106MOL0     C14225   7.214   3.736   1.377 -0.2263  0.4220 -0.1100
  106MOL0     N14226   7.962   3.334   1.421  0.1363 -0.6441  0.1217
  106MOL0     N14227   8.074   3.273   1.402 -0.8339  0.6018  0.3540
  106MOL0     C14228   7.487   3.139   1.656 -0.3098  0.5627  0.0278
  106MOL0     C14229   7.474   3.257   1.738  0.6813  1.2584  0.0914
  106MOL0     C14230   7.605   3.612   2.022  0.3956  0.2047 -0.2428
  106MOL0     C14231   7.678   3.634   2.139  0.7178 -0.3031  1.1191
  106MOL0     C14232   7.659   3.751   2.216 -0.8320 -0.1713 -0.6333
  106MOL0     C14233   7.570   3.848   2.168  0.2633 -0.0496 -0.2887
  106MOL0     O14234   7.552   3.954   2.258  0.4443 -0.2990 -0.2383
  106MOL0     C14235   7.428   4.020   2.244  0.5558 -0.2780 -0.8297
  106MOL0     C14236   7.396   4.106   2.364  0.1157  0.5238  0.2694
  106MOL0     C14237   7.427   4.038   2.509 -0.0818  0.7599  0.2564
  106MOL0     C14238   7.303   3.938   2.556 -0.2796  1.1357 -0.3745
  106MOL0     C14239   7.184   4.021   2.580 -0.6011  0.2786  0.5534
  106MOL0     C14240   7.096   4.097   2.602 -0.7541 -0.3497  0.6932
  106MOL0     C14241   7.497   3.830   2.048 -0.1793 -0.1577 -0.0579
  106MOL0     C14242   7.503   3.708   1.982 -0.2170 -1.0120  0.2456
  106MOL0     H14243   7.783   3.383   1.700  0.9798 -1.1274  3.6341
  106MOL0     H14244   7.804   3.215   1.557  1.5451 -1.7553  1.8832
  106MOL0     H14245   7.805   3.073   1.412  1.5209  0.1593  3.4358
  106MOL0     H14246   7.812   2.943   1.522 -0.1707  2.3209  2.2036
  106MOL0     H14247   7.669   2.798   1.373  0.7015 -0.2683 -0.9552
  106MOL0     H14248   7.646   2.915   1.247 -1.5114 -0.2001  0.5268
  106MOL0     H14249   7.896   2.751   1.321  0.6409 -0.7239 -1.4294
  106MOL0     H14250   7.811   2.776   1.167  1.0862 -1.7109  0.7606
  106MOL0     H14251   7.902   3.012   1.141  1.2367 -2.3666 -2.9798
  106MOL0     H14252   7.973   2.981   1.311 -0.3666  1.8548 -0.1502
  106MOL0     H14253   8.111   2.801   1.178  1.6558  2.1617 -1.7696
  106MOL0     H14254   8.043   2.876   1.039  1.5982 -0.3993 -0.1822
  106MOL0     H14255   8.215   2.997   1.256 -3.1315 -1.3507  1.4898
  106MOL0     H14256   8.280   2.952   1.095  0.7574  3.2499 -1.5301
  106MOL0     H14257   8.245   3.135   1.012 -1.1969 -0.7143 -1.7573
  106MOL0     H14258   8.076   3.136   1.041 -0.4107  0.2826  0.1181
  106MOL0     H14259   8.219   3.334   1.117  3.0856  0.5748  0.9657
  106MOL0     H14260   8.279   3.230   1.245 -0.6865  2.0504  2.0787
  106MOL0     H14261   7.972   3.404   1.108  1.2051  0.4146 -0.4422
  106MOL0     H14262   7.747   3.488   1.417 -0.1515 -1.4621  0.4311
  106MOL0     H14263   7.778   3.552   1.246  0.0832 -0.0549 -0.8289
  106MOL0     H14264   7.648   3.291   1.340 -1.2684  1.5266  1.1982
  106MOL0     H14265   7.713   3.335   1.169  2.4611  1.1550  0.4883
  106MOL0     H14266   7.451   3.382   1.210 -2.1041  0.8956  1.6678
  106MOL0     H14267   7.538   3.508   1.152 -0.8279  0.0276  0.6221
  106MOL0     H14268   7.560   3.618   1.369 -0.1240  0.4473 -0.8097
  106MOL0     H14269   7.508   3.458   1.446  0.9101  0.0609  0.2708
  106MOL0     H14270   7.481   3.671   1.586  1.7272  1.8973 -0.0903
  106MOL0     H14271   7.442   3.884   1.775  1.0763 -1.2202 -0.8486
  106MOL0     H14272   7.553   3.878   1.650 -0.7688 -1.3397 -0.3567
  106MOL0     H14273   7.478   4.035   1.659  1.0070 -0.1526 -1.4734
  106MOL0     H14274   7.230   4.314   1.472 -0.0924 -0.5587 -0.7782
  106MOL0     H14275   7.150   4.558   1.510 -1.2746 -1.1886 -4.0364
  106MOL0     H14276   7.044   4.758   1.583 -2.4921  1.8991  2.1933
  106MOL0     H14277   6.953   4.713   1.440 -0.0649  1.2004  0.1625
  106MOL0     H14278   6.869   4.924   1.490 -2.0241 -1.7926 -2.2056
  106MOL0     H14279   6.737   4.813   1.539 -1.0536 -0.1233 -0.0863
  106MOL0     H14280   6.930   4.923   1.730 -0.1496  1.3240 -0.8246
  106MOL0     H14281   6.786   4.823   1.756 -1.7615  0.7872 -0.4854
  106MOL0     H14282   6.808   5.117   1.694 -2.4794  0.9928 -1.2466
  106MOL0     H14283   6.674   5.026   1.636  3.6204 -0.6778 -2.5981
  106MOL0     H14284   6.601   4.989   1.866 -0.6935  0.9111 -2.8858
  106MOL0     H14285   6.646   5.144   1.844  0.5467  1.2299 -0.7863
  106MOL0     H14286   6.796   4.917   1.983  3.1571 -0.1084 -1.0259
  106MOL0     H14287   6.896   5.063   1.944  0.3826 -1.0032 -0.4489
  106MOL0     H14288   6.639   5.053   2.108  0.7396 -1.4447 -1.2141
  106MOL0     H14289   6.728   5.207   2.056  2.6086  2.3646  4.1206
  106MOL0     H14290   6.911   5.154   2.167 -1.8644 -0.3387 -2.4286
  106MOL0     H14291   6.851   5.008   2.241  2.8169 -0.8548 -1.3381
  106MOL0     H14292   6.791   4.398   1.687  0.6285 -0.4667  1.3763
  106MOL0     H14293   6.892   4.166   1.629  1.9567 -0.7687 -0.8293
  106MOL0     H14294   7.077   3.889   1.393  0.2486  2.6667  1.7668
  106MOL0     H14295   7.173   3.681   1.293  0.1114 -2.1936  1.3054
  106MOL0     H14296   7.408   3.069   1.633  0.0988 -1.2290  3.4720
  106MOL0     H14297   7.375   3.267   1.783  0.3903 -3.8421  1.2917
  106MOL0     H14298   7.759   3.564   2.160 -0.3436 -2.3450 -1.1687
  106MOL0     H14299   7.722   3.759   2.305  0.2868  1.4392 -1.5191
  106MOL0     H14300   7.416   4.075   2.150 -2.4646  0.7855  0.0633
  106MOL0     H14301   7.348   3.944   2.242  1.9001 -1.8141 -4.4088
  106MOL0     H14302   7.298   4.153   2.355  0.2273  0.3402 -3.7522
  106MOL0     H14303   7.467   4.189   2.369  2.5926 -1.1400 -3.0291
  106MOL0     H14304   7.454   4.114   2.582  3.6068 -0.3250  0.2331
  106MOL0     H14305   7.508   3.965   2.499 -1.6567 -1.1798  0.8234
  106MOL0     H14306   7.330   3.878   2.643  1.3410  0.8458 -1.0441
  106MOL0     H14307   7.285   3.860   2.482  4.4164 -2.1345  1.4360
  106MOL0     H14308   7.017   4.165   2.629 -1.0276 -1.6377  3.5520
  106MOL0     H14309   7.430   3.902   2.002  1.0788 -0.0348 -1.7838
  106MOL0     H14310   7.436   3.695   1.897  3.9181  4.6378 -4.6715
  107MOL0     O14311   7.683  11.366   7.373  0.7663 -0.0995 -0.2247
  107MOL0     C14312   7.731  11.263   7.416  0.7078  0.3264  0.3448
  107MOL0     O14313   7.738  11.239   7.552  0.2027  0.3296 -0.9124
  107MOL0     C14314   7.723  11.340   7.640 -0.0198  0.8081  0.9526
  107MOL0     C14315   7.605  11.351   7.714 -0.4806  0.1726 -0.5126
  107MOL0     C14316   7.571  11.471   7.781  0.1072 -0.5289  0.0798
  107MOL0     C14317   7.674  11.570   7.784 -0.5989  0.3267 -0.0442
  107MOL0     O14318   7.650  11.685   7.858  0.2040  0.6434  0.9553
  107MOL0     C14319   7.527  11.752   7.842 -0.1392  0.4564 -0.1702
  107MOL0     C14320   7.548  11.902   7.856  1.1053 -0.8218  0.1844
  107MOL0     C14321   7.415  11.975   7.883 -0.4443  0.5065  0.6326
  107MOL0     C14322   7.444  12.127   7.904 -0.7038  0.3013  0.1669
  107MOL0     C14323   7.319  12.208   7.887 -0.2015  0.2052 -0.7239
  107MOL0     C14324   7.216  12.174   7.990  1.0145 -0.1429  0.8090
  107MOL0     C14325   7.094  12.271   7.986 -0.0426  0.2683  1.0760
  107MOL0     C14326   7.117  12.408   8.036  0.2461 -0.6073 -1.2306
  107MOL0     N14327   7.137  12.405   8.184 -1.1341  0.0322 -0.9016
  107MOL0     C14328   7.036  12.394   8.279  0.0439  0.9250  0.5403
  107MOL0     C14329   7.088  12.402   8.398 -1.1602 -0.7567 -0.0789
  107MOL0     C14330   7.001  12.400   8.523 -0.7903  0.3707  0.2221
  107MOL0     C14331   6.968  12.260   8.569  1.3051  0.5223  0.3213
  107MOL0     C14332   6.828  12.201   8.524 -0.5819 -0.3200 -0.0231
  107MOL0     C14333   6.783  12.074   8.600 -0.3532 -0.5333  0.1418
  107MOL0     O14334   6.889  11.987   8.633 -0.3830 -0.0453 -1.2155
  107MOL0     C14335   6.854  11.872   8.697  0.4782  0.4422 -0.0175
  107MOL0     C14336   6.794  11.765   8.638  0.1621  1.0762  0.2501
  107MOL0     C14337   6.741  11.652   8.708 -0.0444  0.2716  0.8312
  107MOL0     C14338   6.680  11.549   8.613  0.2254  0.1812 -0.8698
  107MOL0     C14339   6.743  11.646   8.849  1.3284  0.3697  0.7540
  107MOL0     C14340   6.684  11.543   8.935  0.0949  0.1700 -0.8183
  107MOL0     O14341   6.583  11.461   8.895  0.1334 -0.3998  0.2190
  107MOL0     C14342   6.492  11.397   8.977  0.2382  0.2717  0.3012
  107MOL0     C14343   6.425  11.461   9.080 -0.1255  0.2423  0.1045
  107MOL0     C14344   6.329  11.400   9.159  0.2417 -0.4018  0.1336
  107MOL0     C14345   6.310  11.265   9.135  0.3038 -0.0558  0.7182
  107MOL0     O14346   6.207  11.201   9.206 -1.1075 -0.2725 -0.4725
  107MOL0     C14347   6.226  11.081   9.272  0.3034  0.4728 -0.2846
  107MOL0     C14348   6.128  11.048   9.385  0.2064  0.2314  0.4060
  107MOL0     C14349   5.981  11.058   9.351  1.1827  0.2795  0.4735
  107MOL0     C14350   5.927  10.982   9.236 -0.2366  1.0941 -0.4695
  107MOL0     C14351   5.771  11.006   9.221 -0.2480  0.2592  0.1761
  107MOL0     C14352   5.700  10.951   9.099 -0.7052 -0.1301  0.1069
  107MOL0     C14353   5.559  10.911   9.130  0.3692 -0.1057  0.7973
  107MOL0     C14354   5.486  10.821   9.028  0.3013 -0.2682 -0.6649
  107MOL0    Cl14355   5.546  10.668   9.041  0.0663 -0.0241  0.1966
  107MOL0     C14356   6.369  11.187   9.036  0.0030 -0.4163 -0.1176
  107MOL0     C14357   6.457  11.263   8.957 -0.5182 -0.3259  0.5216
  107MOL0     O14358   6.726  11.539   9.052 -0.1305 -0.1685  0.2239
  107MOL0     C14359   6.818  11.750   8.915 -0.3144 -0.7868  0.0545
  107MOL0     C14360   6.866  11.854   8.836 -0.0514  0.1553 -0.3363
  107MOL0     N14361   7.222  12.431   8.378 -1.2491  0.7318  0.9064
  107MOL0     N14362   7.255  12.426   8.256 -0.6148 -0.3785  0.7721
  107MOL0     C14363   7.795  11.542   7.721 -0.5454 -0.3201 -0.2219
  107MOL0     C14364   7.825  11.432   7.645  0.1895  0.0312  0.1597
  107MOL0     C14365   7.786  11.154   7.323 -0.5595  0.1250  0.1332
  107MOL0     C14366   7.862  11.046   7.374  0.4422  0.2255 -0.4924
  107MOL0     C14367   7.893  10.933   7.297 -0.2767 -0.7910 -0.2759
  107MOL0     C14368   7.862  10.938   7.157  0.4979 -0.1317  0.1220
  107MOL0     O14369   7.941  10.867   7.064  0.9747  0.0255 -0.1999
  107MOL0     C14370   7.933  10.898   6.927 -1.0707 -1.1052  0.2757
  107MOL0     C14371   8.023  10.799   6.840 -0.1420  0.2733 -1.0456
  107MOL0     C14372   8.172  10.818   6.865 -1.4199  0.7413  0.5105
  107MOL0     C14373   8.233  10.922   6.764 -0.8142  0.0592 -0.7608
  107MOL0     C14374   8.222  11.064   6.800  0.1456 -0.2973 -0.3826
  107MOL0     C14375   8.205  11.180   6.836 -0.1480  0.6543  0.1532
  107MOL0     C14376   7.769  11.030   7.110 -0.3149  0.0237  0.2178
  107MOL0     C14377   7.743  11.141   7.189  0.3009 -0.1242 -0.0748
  107MOL0     H14378   7.525  11.277   7.717 -1.5307  1.3001  0.6224
  107MOL0     H14379   7.477  11.489   7.831  0.7414 -1.0978  1.5359
  107MOL0     H14380   7.477  11.724   7.749 -2.8418 -0.0779  1.3462
  107MOL0     H14381   7.479  11.715   7.933 -0.8536  1.8556  0.0402
  107MOL0     H14382   7.620  11.931   7.933  1.5227 -2.5136  0.4832
  107MOL0     H14383   7.593  11.947   7.767  0.7917 -1.6186 -0.3933
  107MOL0     H14384   7.345  11.957   7.801  0.4501 -1.0888  0.1839
  107MOL0     H14385   7.370  11.950   7.980  0.4392  2.0271  1.4802
  107MOL0     H14386   7.489  12.138   8.002  0.2939  2.3103 -0.4759
  107MOL0     H14387   7.528  12.153   7.838 -1.1240 -0.5672 -0.7558
  107MOL0     H14388   7.352  12.312   7.895  1.4893 -0.1462 -2.4448
  107MOL0     H14389   7.274  12.197   7.788  0.6465 -1.4996 -0.9592
  107MOL0     H14390   7.177  12.074   7.971 -0.2376  0.1792  1.6031
  107MOL0     H14391   7.271  12.187   8.084  0.0412 -1.5856  1.6114
  107MOL0     H14392   7.047  12.291   7.889  0.0649  2.4555  1.4251
  107MOL0     H14393   7.013  12.227   8.044  1.4685 -0.4738  2.7038
  107MOL0     H14394   7.032  12.469   8.004 -0.0840 -2.1557 -3.5104
  107MOL0     H14395   7.205  12.454   7.990  0.3593  0.7185  0.2259
  107MOL0     H14396   6.931  12.372   8.259  0.0032 -1.0271  2.4719
  107MOL0     H14397   7.070  12.446   8.595 -0.0596  0.1613 -0.3333
  107MOL0     H14398   6.912  12.461   8.505 -1.8334 -1.6689 -2.1808
  107MOL0     H14399   6.951  12.267   8.677  2.6675  2.0498  0.4630
  107MOL0     H14400   7.046  12.186   8.546 -0.6899 -1.2735 -1.2016
  107MOL0     H14401   6.828  12.188   8.415  0.6501  1.0645 -0.2255
  107MOL0     H14402   6.755  12.280   8.541  1.4843  3.5092 -5.7324
  107MOL0     H14403   6.713  12.011   8.543 -1.1258 -2.6284  3.1663
  107MOL0     H14404   6.736  12.094   8.697 -4.0705 -2.6085 -1.0325
  107MOL0     H14405   6.786  11.782   8.531 -1.0939 -0.8834 -0.0246
  107MOL0     H14406   6.683  11.454   8.668  0.7176 -0.6424 -2.2589
  107MOL0     H14407   6.578  11.581   8.592 -0.0900  0.2081  0.5846
  107MOL0     H14408   6.735  11.527   8.521 -1.1271 -1.6518 -1.3036
  107MOL0     H14409   6.451  11.564   9.101 -0.0987  0.3115 -0.2620
  107MOL0     H14410   6.287  11.440   9.250  2.1314 -0.5768  1.1410
  107MOL0     H14411   6.215  10.996   9.204 -0.0860 -0.2721  0.6858
  107MOL0     H14412   6.325  11.084   9.317  0.6310  2.2254 -1.0603
  107MOL0     H14413   6.150  10.942   9.397  2.7599  0.3534 -2.2325
  107MOL0     H14414   6.158  11.106   9.473  0.0743  2.2088 -0.7976
  107MOL0     H14415   5.969  11.162   9.319  2.0771  0.3471  0.3212
  107MOL0     H14416   5.913  11.043   9.435  1.4716  0.5435  0.7547
  107MOL0     H14417   5.975  11.035   9.153  1.0230  0.1316 -0.3880
  107MOL0     H14418   5.944  10.875   9.245  4.1684  1.7280  1.9908
  107MOL0     H14419   5.749  11.113   9.215  1.9158  0.9568  2.8376
  107MOL0     H14420   5.722  10.964   9.309 -2.4786 -1.5543 -1.7609
  107MOL0     H14421   5.694  11.020   9.015 -1.8109 -3.1932 -2.5681
  107MOL0     H14422   5.751  10.866   9.054 -3.1818 -0.9519 -1.3572
  107MOL0     H14423   5.507  11.007   9.137  0.7289  1.2756 -6.6891
  107MOL0     H14424   5.554  10.857   9.225  0.4403  1.8534  1.9683
  107MOL0     H14425   5.495  10.848   8.923 -2.2332 -0.7092 -1.0744
  107MOL0     H14426   5.379  10.819   9.053 -0.0942 -0.3517 -2.2525
  107MOL0     H14427   6.344  11.086   9.007 -2.4175 -0.2419  1.1377
  107MOL0     H14428   6.490  11.216   8.866 -0.7472 -0.7522  0.6550
  107MOL0     H14429   6.839  11.749   9.021  0.4547  2.8581  0.0382
  107MOL0     H14430   6.909  11.938   8.891 -0.2314  0.1661 -0.2093
  107MOL0     H14431   7.874  11.613   7.744 -0.9666  0.3332 -0.7430
  107MOL0     H14432   7.917  11.426   7.588 -0.6167 -0.8028 -1.1094
  107MOL0     H14433   7.881  11.038   7.480 -0.8043 -0.3331 -0.2972
  107MOL0     H14434   7.953  10.852   7.338 -0.5643 -0.3498  1.0769
  107MOL0     H14435   7.833  10.892   6.884 -0.1576  1.5003 -2.6586
  107MOL0     H14436   7.976  10.998   6.912  1.2873 -1.9824  0.7135
  107MOL0     H14437   8.012  10.827   6.734  1.8326  0.7488 -1.1519
  107MOL0     H14438   7.986  10.699   6.865 -0.9835  1.2322  1.8665
  107MOL0     H14439   8.214  10.720   6.838 -2.5268 -0.1011  1.7177
  107MOL0     H14440   8.204  10.853   6.963  1.4666 -0.3540  0.0454
  107MOL0     H14441   8.184  10.900   6.669  0.4045 -1.7835 -0.9947
  107MOL0     H14442   8.336  10.891   6.746 -0.1840  1.7321 -0.2342
  107MOL0     H14443   8.166  11.271   6.877 -3.5431 -1.1964  1.4716
  107MOL0     H14444   7.733  11.051   7.010  2.9544  3.7278 -0.4255
  107MOL0     H14445   7.679  11.228   7.174 -1.0679 -0.6032  2.4846
  108MOL0     O14446   6.587   7.803   6.401  0.4002 -0.3831 -0.1900
  108MOL0     C14447   6.486   7.824   6.474 -0.4365 -0.5027 -0.7318
  108MOL0     O14448   6.365   7.860   6.430  0.0137  0.3169 -0.2658
  108MOL0     C14449   6.354   7.907   6.302  0.5639  0.2372 -0.7576
  108MOL0     C14450   6.350   7.823   6.200  0.1792 -0.4154  0.4884
  108MOL0     C14451   6.337   7.861   6.061  0.4630 -0.3503  0.0919
  108MOL0     C14452   6.334   7.989   6.039  0.7742 -0.4776 -0.7729
  108MOL0     O14453   6.329   8.038   5.916 -0.0996  0.2113  0.6648
  108MOL0     C14454   6.403   7.978   5.810 -1.0015 -0.1520  0.0046
  108MOL0     C14455   6.421   8.069   5.686 -0.1953  1.1959  0.2488
  108MOL0     C14456   6.294   8.074   5.602  0.0751 -0.4446  0.2982
  108MOL0     C14457   6.320   8.141   5.469 -0.9928  0.5681 -0.5592
  108MOL0     C14458   6.374   8.283   5.476 -0.0901  0.2528  0.4366
  108MOL0     C14459   6.434   8.341   5.352 -0.0828  0.1973 -0.9433
  108MOL0     C14460   6.576   8.303   5.314 -0.4639  0.3874  0.2127
  108MOL0     C14461   6.642   8.384   5.205 -0.4518  0.6648  0.4155
  108MOL0     N14462   6.666   8.526   5.226  0.1508  0.3567 -1.0890
  108MOL0     C14463   6.710   8.591   5.333  0.7191 -0.1806 -0.3013
  108MOL0     C14464   6.714   8.724   5.287  0.7020  0.4839  0.4214
  108MOL0     C14465   6.741   8.859   5.357  1.0079  0.3515 -1.1441
  108MOL0     C14466   6.819   8.965   5.281  0.4396 -0.5061  0.4906
  108MOL0     C14467   6.886   9.068   5.379  1.0153  0.2216 -0.1266
  108MOL0     C14468   6.988   9.152   5.307  0.2203  0.6667  0.4470
  108MOL0     O14469   6.921   9.212   5.195  0.3487 -1.0877  0.0559
  108MOL0     C14470   6.904   9.351   5.188  0.7870 -0.2144  0.1098
  108MOL0     C14471   6.897   9.439   5.296 -0.1992 -0.4035 -0.6550
  108MOL0     C14472   6.859   9.574   5.287  0.4637 -1.3620  0.3441
  108MOL0     C14473   6.864   9.658   5.415 -0.3998  0.2508 -0.5480
  108MOL0     C14474   6.844   9.632   5.154 -0.1325  0.3185  0.4556
  108MOL0     C14475   6.814   9.771   5.130 -0.0358  0.6203 -0.2434
  108MOL0     O14476   6.858   9.861   5.216 -0.0228 -0.5151 -0.0297
  108MOL0     C14477   6.885   9.992   5.175  0.3488  0.2079  0.6864
  108MOL0     C14478   6.899  10.046   5.047  0.2522  0.3940  0.4364
  108MOL0     C14479   6.941  10.177   5.024 -0.3083 -0.1104  0.4019
  108MOL0     C14480   6.972  10.259   5.127  0.4527 -1.0902  0.5955
  108MOL0     O14481   6.982  10.391   5.093  0.5693 -0.1447  0.7079
  108MOL0     C14482   7.084  10.466   5.158  1.0669  0.7950  0.2464
  108MOL0     C14483   7.234  10.412   5.150  0.2009 -0.1824  0.0360
  108MOL0     C14484   7.256  10.392   4.998  0.0214 -0.1437  0.0377
  108MOL0     C14485   7.405  10.373   4.963 -0.1449  0.3547 -0.1806
  108MOL0     C14486   7.456  10.522   4.948 -0.0814 -0.0038  0.7863
  108MOL0     C14487   7.610  10.524   4.907  0.4271  0.8942 -0.1764
  108MOL0     C14488   7.701  10.461   5.014 -0.5737 -0.2878 -0.5660
  108MOL0     C14489   7.846  10.492   4.971  0.7275  1.1998 -0.2901
  108MOL0    Cl14490   7.884  10.419   4.819  0.4587 -0.2746  0.1392
  108MOL0     C14491   6.959  10.207   5.258  0.1859  0.1386  0.1016
  108MOL0     C14492   6.916  10.079   5.280  0.8185 -0.0057  0.4401
  108MOL0     O14493   6.767   9.791   5.016  0.1432  0.4337  0.1862
  108MOL0     C14494   6.847   9.536   5.051  0.1384  0.6579  0.5130
  108MOL0     C14495   6.876   9.405   5.067  0.9821  0.4094 -0.2726
  108MOL0     N14496   6.675   8.731   5.164  0.7064  0.5145  1.1047
  108MOL0     N14497   6.652   8.612   5.130  0.4275  0.6102 -0.2440
  108MOL0     C14498   6.355   8.085   6.142 -0.3833 -0.3724 -0.9195
  108MOL0     C14499   6.368   8.044   6.272 -0.0986 -0.4700  0.4845
  108MOL0     C14500   6.497   7.819   6.629 -0.5922 -0.7847 -0.8114
  108MOL0     C14501   6.408   7.885   6.708 -0.1444  0.7990 -0.5248
  108MOL0     C14502   6.400   7.872   6.846 -0.2239 -0.2512  0.0945
  108MOL0     C14503   6.495   7.797   6.915  0.4123  0.8097  0.8287
  108MOL0     O14504   6.481   7.785   7.047  0.3189 -0.3405 -0.1268
  108MOL0     C14505   6.562   7.879   7.111  0.6016  0.1430 -0.3590
  108MOL0     C14506   6.533   8.032   7.091 -0.1177 -0.2374  0.8711
  108MOL0     C14507   6.402   8.072   7.165  0.4096  0.3517 -0.9987
  108MOL0     C14508   6.362   8.228   7.145 -0.2912  0.8451 -0.0486
  108MOL0     C14509   6.424   8.308   7.256  0.4216 -0.0435  0.4657
  108MOL0     C14510   6.449   8.359   7.363 -0.2214 -0.0022 -0.2629
  108MOL0     C14511   6.593   7.731   6.841 -0.3714 -1.3280  0.3728
  108MOL0     C14512   6.588   7.738   6.701 -1.2804 -0.6392  0.6828
  108MOL0     H14513   6.365   7.718   6.223  0.5962 -0.1099  1.7186
  108MOL0     H14514   6.330   7.785   5.984 -2.6515 -0.0174 -0.0518
  108MOL0     H14515   6.499   7.944   5.851 -1.6748 -2.0694  0.0770
  108MOL0     H14516   6.347   7.888   5.784  1.2876 -2.0277  1.1883
  108MOL0     H14517   6.449   8.170   5.720 -0.8401  1.5079 -0.1142
  108MOL0     H14518   6.500   8.034   5.619 -1.1609  0.0535 -0.3240
  108MOL0     H14519   6.257   7.972   5.586 -2.7677  0.4989  0.2288
  108MOL0     H14520   6.228   8.142   5.657  4.7926  4.9920  0.2257
  108MOL0     H14521   6.395   8.077   5.421 -1.2005 -0.2802  0.2171
  108MOL0     H14522   6.226   8.136   5.412 -0.5917 -6.0288 -1.4641
  108MOL0     H14523   6.290   8.350   5.496 -0.0228  1.2581 -2.3053
  108MOL0     H14524   6.452   8.306   5.550  2.1067  0.9656 -1.9615
  108MOL0     H14525   6.361   8.328   5.272 -1.8152 -1.0780  0.7445
  108MOL0     H14526   6.436   8.449   5.373  0.9919  0.9117 -4.1978
  108MOL0     H14527   6.635   8.317   5.405  1.5238  0.2697 -0.9909
  108MOL0     H14528   6.566   8.201   5.278 -2.2917  1.7048 -3.5073
  108MOL0     H14529   6.569   8.389   5.124  1.4255 -2.9929 -1.7749
  108MOL0     H14530   6.731   8.341   5.159 -1.9483 -1.1493 -0.9693
  108MOL0     H14531   6.717   8.561   5.437  2.7947 -2.7959 -1.0855
  108MOL0     H14532   6.650   8.913   5.382  2.0005  2.0523 -1.0429
  108MOL0     H14533   6.800   8.831   5.444  1.8612 -0.4366 -1.9491
  108MOL0     H14534   6.741   9.008   5.217 -1.6079 -2.7591  1.2995
  108MOL0     H14535   6.887   8.909   5.217  0.0870 -0.5304  0.1343
  108MOL0     H14536   6.940   9.011   5.454 -0.8618  1.0495  1.9492
  108MOL0     H14537   6.817   9.135   5.431 -0.9227 -2.3836  0.8840
  108MOL0     H14538   7.074   9.089   5.283 -0.8655 -2.2710  3.4622
  108MOL0     H14539   7.029   9.231   5.371  3.2393 -2.5796  2.9096
  108MOL0     H14540   6.899   9.395   5.395  0.9397  0.4576 -0.2737
  108MOL0     H14541   6.771   9.715   5.417 -0.8858 -0.5332 -0.3738
  108MOL0     H14542   6.861   9.588   5.499 -1.1258 -1.0768 -1.6309
  108MOL0     H14543   6.959   9.710   5.423 -0.1602 -0.3780  1.0364
  108MOL0     H14544   6.896   9.981   4.960 -2.6887  0.6749  0.2257
  108MOL0     H14545   6.940  10.215   4.922 -0.1744 -2.7323 -0.6630
  108MOL0     H14546   7.070  10.569   5.125  0.2543  1.1052  1.4811
  108MOL0     H14547   7.067  10.473   5.266  0.4833  4.7073  0.0432
  108MOL0     H14548   7.306  10.490   5.176  0.0652  0.9847 -2.6879
  108MOL0     H14549   7.243  10.317   5.204 -0.4022  0.0842  0.6191
  108MOL0     H14550   7.204  10.468   4.940 -1.6822 -2.0687 -1.1134
  108MOL0     H14551   7.199  10.301   4.976  1.7017 -1.9796  2.7217
  108MOL0     H14552   7.469  10.318   5.033 -1.6761 -3.2318 -1.3696
  108MOL0     H14553   7.417  10.325   4.865 -2.5510  0.3991 -0.5488
  108MOL0     H14554   7.442  10.570   5.046 -3.0554  1.6992 -0.3469
  108MOL0     H14555   7.393  10.573   4.875 -1.9821  0.4133  2.6232
  108MOL0     H14556   7.622  10.468   4.814  4.2217 -0.5701  1.0233
  108MOL0     H14557   7.651  10.625   4.899 -0.6033  1.5521  1.9849
  108MOL0     H14558   7.701  10.352   5.009 -2.7547 -0.2760 -3.2836
  108MOL0     H14559   7.671  10.507   5.109 -0.9243  0.6244 -1.1084
  108MOL0     H14560   7.908  10.450   5.050 -2.9073 -3.2402  0.6639
  108MOL0     H14561   7.870  10.599   4.969  0.5840  1.4014  3.0178
  108MOL0     H14562   6.968  10.266   5.348 -0.3044 -1.3164  1.1427
  108MOL0     H14563   6.909  10.060   5.387  0.6595  2.3273  0.8974
  108MOL0     H14564   6.825   9.563   4.949 -0.2515 -0.0650  0.4032
  108MOL0     H14565   6.880   9.337   4.982 -0.6841 -2.1400  1.5299
  108MOL0     H14566   6.349   8.188   6.111 -2.9678 -0.1192  0.0926
  108MOL0     H14567   6.388   8.122   6.346  0.5020 -0.5960  0.4583
  108MOL0     H14568   6.335   7.955   6.669  0.7397  2.5158  0.7560
  108MOL0     H14569   6.326   7.930   6.902 -0.4221 -1.0240  0.6457
  108MOL0     H14570   6.558   7.852   7.217 -3.3564 -0.6530 -0.5563
  108MOL0     H14571   6.666   7.868   7.080 -0.2390  1.0768 -3.8567
  108MOL0     H14572   6.545   8.059   6.986 -0.3229 -1.3224  0.5628
  108MOL0     H14573   6.610   8.087   7.146  2.0702 -0.3700 -1.8778
  108MOL0     H14574   6.405   8.048   7.272  1.0341 -0.2851 -1.1577
  108MOL0     H14575   6.325   8.014   7.113 -0.1381  1.8317 -1.9173
  108MOL0     H14576   6.259   8.265   7.137 -0.3539  1.1306  1.7710
  108MOL0     H14577   6.402   8.265   7.050  2.8809 -1.5905  0.1848
  108MOL0     H14578   6.479   8.409   7.452  1.0563 -0.2803 -0.5211
  108MOL0     H14579   6.671   7.677   6.894 -0.4069 -0.5141  1.2704
  108MOL0     H14580   6.665   7.674   6.659  2.1754  1.4950  3.2867
  109MOL0     O14581   4.719   2.276  10.222  0.1251 -0.3486  0.1597
  109MOL0     C14582   4.754   2.159  10.237 -0.4872 -0.5870 -0.0860
  109MOL0     O14583   4.761   2.091  10.353  0.1677 -0.3399  0.1024
  109MOL0     C14584   4.768   2.154  10.475 -0.5886  0.4786 -0.4150
  109MOL0     C14585   4.828   2.281  10.497 -0.2449 -0.7314  0.1521
  109MOL0     C14586   4.812   2.338  10.622 -0.5451  0.6318 -0.0835
  109MOL0     C14587   4.755   2.269  10.729  0.6664  0.8196  0.9851
  109MOL0     O14588   4.740   2.326  10.858 -0.0028 -0.1880 -0.0978
  109MOL0     C14589   4.721   2.465  10.864 -0.8922 -0.6247  0.0927
  109MOL0     C14590   4.677   2.522  11.004 -0.8420 -0.4218 -0.0086
  109MOL0     C14591   4.566   2.453  11.070 -0.3898  0.2528 -0.6287
  109MOL0     C14592   4.509   2.533  11.185  0.4890  0.2089 -0.3027
  109MOL0     C14593   4.396   2.472  11.269  0.2137 -0.8619  0.3827
  109MOL0     C14594   4.311   2.578  11.341 -0.6493 -0.9456  0.2818
  109MOL0     C14595   4.186   2.526  11.417  0.0221 -0.0442  0.1045
  109MOL0     C14596   4.113   2.630  11.498  0.5317  0.2193 -0.0257
  109MOL0     N14597   4.200   2.683  11.599  0.8418  0.2425  0.3054
  109MOL0     C14598   4.234   2.617  11.717  0.3125 -0.3727  0.9689
  109MOL0     C14599   4.343   2.690  11.768  0.6741  0.4314 -1.4945
  109MOL0     C14600   4.404   2.664  11.900 -0.4464 -0.1803  0.8878
  109MOL0     C14601   4.562   2.688  11.896 -0.6243  0.6518  0.7712
  109MOL0     C14602   4.634   2.573  11.819 -0.2723  1.4143  0.3192
  109MOL0     C14603   4.781   2.552  11.870 -0.8036  0.0991 -0.2425
  109MOL0     O14604   4.810   2.426  11.816 -0.1815 -0.0528  0.7370
  109MOL0     C14605   4.951   2.402  11.810  0.3173 -0.0998  0.2395
  109MOL0     C14606   5.002   2.336  11.703 -0.5972  0.3928 -0.1001
  109MOL0     C14607   5.135   2.304  11.689 -0.1063  0.2305  0.1378
  109MOL0     C14608   5.178   2.215  11.573  0.1524  0.3417 -0.1302
  109MOL0     C14609   5.231   2.351  11.787  0.7398  0.6075  0.9092
  109MOL0     C14610   5.378   2.325  11.787  0.2663 -0.0391 -1.0176
  109MOL0     O14611   5.437   2.301  11.913 -0.3581  0.5597 -0.0877
  109MOL0     C14612   5.563   2.258  11.942 -0.0378 -0.1454 -0.4007
  109MOL0     C14613   5.615   2.280  12.071  0.0829 -0.7905  0.6022
  109MOL0     C14614   5.742   2.248  12.108  0.3056 -0.1429 -0.4358
  109MOL0     C14615   5.815   2.176  12.017 -0.0478  0.3848  0.1843
  109MOL0     O14616   5.932   2.125  12.051 -0.1735 -0.1655  0.4344
  109MOL0     C14617   6.047   2.180  11.985  0.4784 -0.5340  0.7383
  109MOL0     C14618   6.102   2.308  12.062 -0.5624 -0.6699 -0.1086
  109MOL0     C14619   6.185   2.263  12.184  0.7486 -1.3538 -0.4066
  109MOL0     C14620   6.215   2.377  12.276  0.0225  0.0196  0.3233
  109MOL0     C14621   6.098   2.461  12.334 -0.4394 -0.2135 -0.0530
  109MOL0     C14622   6.128   2.519  12.475  0.7873 -0.0585  0.3548
  109MOL0     C14623   6.179   2.421  12.580 -0.3384 -0.8525  0.5597
  109MOL0     C14624   6.090   2.436  12.705 -0.5773 -0.1254 -0.8429
  109MOL0    Cl14625   6.169   2.352  12.838 -0.5011  0.0951 -0.5039
  109MOL0     C14626   5.772   2.146  11.886  0.5411 -0.4829  0.0766
  109MOL0     C14627   5.642   2.196  11.847 -0.0443 -0.2552 -0.3392
  109MOL0     O14628   5.435   2.320  11.683  0.0240  0.6952 -0.1713
  109MOL0     C14629   5.177   2.409  11.899 -0.2400  0.1117 -0.4700
  109MOL0     C14630   5.040   2.435  11.911  0.2713  1.0569  0.2429
  109MOL0     N14631   4.378   2.784  11.674 -0.0980 -0.4518  0.0263
  109MOL0     N14632   4.286   2.788  11.589 -0.6173 -0.5569  1.0348
  109MOL0     C14633   4.717   2.132  10.715 -0.9983 -0.1693  0.6394
  109MOL0     C14634   4.714   2.082  10.588 -0.1427 -0.7550  0.7476
  109MOL0     C14635   4.768   2.083  10.109 -0.2582  0.3559 -0.1303
  109MOL0     C14636   4.824   1.956  10.105 -0.8591  0.2961 -0.0023
  109MOL0     C14637   4.860   1.907   9.978 -0.2817  0.4167  0.9410
  109MOL0     C14638   4.828   1.967   9.858  0.2082 -0.0900  0.6033
  109MOL0     O14639   4.861   1.930   9.729  0.9175 -0.0442 -0.4302
  109MOL0     C14640   4.941   1.815   9.703  0.5946 -1.1452  0.3895
  109MOL0     C14641   4.974   1.799   9.559  0.1845  0.0005  0.1445
  109MOL0     C14642   4.854   1.802   9.462 -0.5766 -0.4125 -0.5724
  109MOL0     C14643   4.894   1.825   9.320  0.3337 -0.1434 -0.6462
  109MOL0     C14644   4.939   1.692   9.271 -0.2312  0.4592 -0.1922
  109MOL0     C14645   4.980   1.587   9.243  1.2236  0.3543 -0.0069
  109MOL0     C14646   4.757   2.087   9.865  0.1490  0.7950  0.4824
  109MOL0     C14647   4.727   2.140   9.989  0.5475  0.2477  0.5590
  109MOL0     H14648   4.857   2.328  10.403 -1.3233 -1.0666 -0.3644
  109MOL0     H14649   4.851   2.439  10.634  0.5024  0.0551  1.5919
  109MOL0     H14650   4.807   2.521  10.826 -2.1170  1.4562  0.1962
  109MOL0     H14651   4.636   2.487  10.799 -2.7023  2.9552  3.2314
  109MOL0     H14652   4.752   2.524  11.084 -1.8376  2.5724  0.9777
  109MOL0     H14653   4.666   2.628  10.979  3.0954  0.3095  0.7280
  109MOL0     H14654   4.485   2.443  10.997 -2.6355  2.7795  1.3199
  109MOL0     H14655   4.577   2.350  11.107 -1.4620 -0.6542 -2.6334
  109MOL0     H14656   4.596   2.559  11.247 -0.9953  6.3419 -0.1361
  109MOL0     H14657   4.481   2.625  11.133  0.4755 -0.0243 -0.7165
  109MOL0     H14658   4.343   2.396  11.211 -3.6614 -0.6200  3.2236
  109MOL0     H14659   4.458   2.421  11.343  1.6132 -0.5681 -0.5407
  109MOL0     H14660   4.380   2.625  11.412 -0.8883  1.1976 -0.8290
  109MOL0     H14661   4.271   2.658  11.278 -0.3625 -1.8314 -1.0488
  109MOL0     H14662   4.120   2.484  11.340  0.0437 -1.5752  0.8919
  109MOL0     H14663   4.211   2.438  11.476  0.6042  0.6227  0.8780
  109MOL0     H14664   4.024   2.589  11.548  0.7117  0.8943  0.8727
  109MOL0     H14665   4.084   2.715  11.435  2.9897  0.3068 -1.1508
  109MOL0     H14666   4.184   2.532  11.763 -0.8367 -2.9330 -4.3102
  109MOL0     H14667   4.361   2.735  11.972  0.4865  0.4132  0.8816
  109MOL0     H14668   4.374   2.562  11.923 -0.7999 -0.9450 -2.4725
  109MOL0     H14669   4.611   2.677  11.994  0.3890 -0.1849  0.1832
  109MOL0     H14670   4.591   2.780  11.844  2.5601 -1.8960 -2.5011
  109MOL0     H14671   4.630   2.600  11.712  3.2623  0.5057 -0.1825
  109MOL0     H14672   4.583   2.477  11.822  3.1146 -0.8303 -3.3522
  109MOL0     H14673   4.783   2.559  11.979 -1.1142 -0.4016 -0.1999
  109MOL0     H14674   4.844   2.630  11.826 -0.7491  0.4969  0.5152
  109MOL0     H14675   4.925   2.294  11.639  0.1881 -1.8438  0.3408
  109MOL0     H14676   5.193   2.111  11.603 -0.8609  0.7933  2.0865
  109MOL0     H14677   5.102   2.210  11.494  0.9413  2.3100 -1.0946
  109MOL0     H14678   5.268   2.249  11.520 -0.2626  0.5979 -0.6847
  109MOL0     H14679   5.558   2.335  12.145  2.2046 -2.1101  3.3841
  109MOL0     H14680   5.765   2.255  12.214  2.0809 -0.5857 -0.7589
  109MOL0     H14681   6.120   2.099  11.982  0.1209 -0.8595 -2.8048
  109MOL0     H14682   6.033   2.217  11.883  0.7316  2.9163  1.8101
  109MOL0     H14683   6.162   2.371  11.996 -1.3858  1.1023  0.7787
  109MOL0     H14684   6.015   2.366  12.092 -0.3815 -0.1849 -0.5124
  109MOL0     H14685   6.275   2.213  12.145  1.2606 -0.1709 -0.8018
  109MOL0     H14686   6.129   2.183  12.231 -0.0194 -1.6475 -1.7761
  109MOL0     H14687   6.268   2.329  12.358  2.6164  2.4302  0.2155
  109MOL0     H14688   6.289   2.448  12.238 -1.4120  1.6575  0.4169
  109MOL0     H14689   6.017   2.390  12.351 -1.5247  1.3991  2.0797
  109MOL0     H14690   6.069   2.535  12.259  0.9062  0.9483  0.5164
  109MOL0     H14691   6.198   2.603  12.472 -0.1342  0.9812  3.5928
  109MOL0     H14692   6.032   2.560  12.509 -0.3408  1.6142 -4.1233
  109MOL0     H14693   6.281   2.436  12.617 -0.5989  3.4233 -0.0007
  109MOL0     H14694   6.158   2.319  12.547 -3.6304 -1.0539  2.7689
  109MOL0     H14695   5.995   2.384  12.687 -0.2823 -0.3001 -2.0052
  109MOL0     H14696   6.068   2.541  12.728 -1.7509  0.1665 -2.9767
  109MOL0     H14697   5.826   2.083  11.816  2.2205 -0.6179  1.4397
  109MOL0     H14698   5.600   2.173  11.749  1.6333 -0.3143 -1.0977
  109MOL0     H14699   5.244   2.428  11.983  1.1903  0.0466 -1.5628
  109MOL0     H14700   4.996   2.468  12.005 -1.4053 -0.3810  0.0063
  109MOL0     H14701   4.681   2.082  10.804 -1.3643 -0.3128  0.4138
  109MOL0     H14702   4.673   1.983  10.575  0.6687 -1.2675  1.9157
  109MOL0     H14703   4.831   1.895  10.195 -4.6518 -2.5457 -1.3548
  109MOL0     H14704   4.894   1.804   9.984  4.4600  1.6011 -0.7481
  109MOL0     H14705   5.035   1.822   9.759  0.6483 -1.4856  0.3433
  109MOL0     H14706   4.889   1.728   9.743 -0.5880  0.4880  2.5826
  109MOL0     H14707   5.030   1.705   9.551 -2.4434 -1.5101 -3.0913
  109MOL0     H14708   5.038   1.885   9.539 -0.6112  1.3264  2.7549
  109MOL0     H14709   4.784   1.874   9.505 -0.7819 -0.9372 -0.0188
  109MOL0     H14710   4.809   1.703   9.474 -0.6635 -0.4980 -1.5525
  109MOL0     H14711   4.982   1.889   9.304 -0.3847  0.5595 -1.9106
  109MOL0     H14712   4.805   1.845   9.261 -1.3212 -1.9147  1.0949
  109MOL0     H14713   5.017   1.495   9.204 -0.8959  1.0508 -4.2195
  109MOL0     H14714   4.726   2.136   9.773  0.4264  0.6009  0.2848
  109MOL0     H14715   4.680   2.238   9.986 -2.8555 -1.1535  2.7389
  110MOL0     O14716   5.122   2.518  11.014 -0.3048  0.7358  0.1236
  110MOL0     C14717   5.095   2.399  11.017 -0.1942 -0.2320 -0.3980
  110MOL0     O14718   5.135   2.301  10.929  0.0167  0.3510  0.1088
  110MOL0     C14719   5.227   2.323  10.826 -0.0712 -0.0059 -0.0393
  110MOL0     C14720   5.337   2.398  10.853 -0.9532 -0.9138  0.5395
  110MOL0     C14721   5.438   2.399  10.764 -0.8923  0.3591  0.1418
  110MOL0     C14722   5.440   2.310  10.652 -0.2888  0.3773  0.1270
  110MOL0     O14723   5.556   2.300  10.573 -0.1263  0.0968 -0.4634
  110MOL0     C14724   5.577   2.184  10.509 -0.5593 -0.2544  0.1813
  110MOL0     C14725   5.699   2.205  10.411  0.8093  0.0744  0.4130
  110MOL0     C14726   5.756   2.073  10.363 -0.1308 -0.0714  0.2877
  110MOL0     C14727   5.649   1.984  10.299  0.1687  1.1624  0.5319
  110MOL0     C14728   5.729   1.869  10.218 -0.6070 -0.5151 -0.3379
  110MOL0     C14729   5.678   1.719  10.230  0.5004 -0.2204  0.4223
  110MOL0     C14730   5.783   1.638  10.165  0.2072  0.0728  0.2589
  110MOL0     C14731   5.753   1.493  10.138  0.1281 -0.9245  0.3460
  110MOL0     N14732   5.636   1.482  10.049 -0.4101 -0.1951  0.4150
  110MOL0     C14733   5.638   1.516   9.915 -0.8352  0.6214  0.8349
  110MOL0     C14734   5.510   1.484   9.869  0.5751 -1.6990 -0.5716
  110MOL0     C14735   5.452   1.488   9.728  0.4024 -0.3640 -0.5581
  110MOL0     C14736   5.297   1.515   9.734  0.2323 -0.1230  0.5306
  110MOL0     C14737   5.223   1.382   9.752 -0.6376  0.2360  0.3062
  110MOL0     C14738   5.068   1.378   9.748 -1.3551 -0.0604 -0.4534
  110MOL0     O14739   4.996   1.497   9.790  0.1377  0.0626 -0.4511
  110MOL0     C14740   4.952   1.497   9.916 -0.6595  0.1809 -0.4050
  110MOL0     C14741   5.039   1.472  10.024  0.2148  0.2329 -0.1046
  110MOL0     C14742   4.992   1.479  10.164 -0.7579  0.1030  0.4751
  110MOL0     C14743   5.094   1.473  10.281  0.1742 -0.3071  0.3182
  110MOL0     C14744   4.866   1.516  10.185 -0.7810  0.3932  0.2123
  110MOL0     C14745   4.799   1.502  10.324  0.2240 -0.1953  1.3036
  110MOL0     O14746   4.844   1.415  10.424  0.3031 -0.0084  0.7438
  110MOL0     C14747   4.785   1.418  10.548 -0.6287  0.1155  0.0819
  110MOL0     C14748   4.868   1.445  10.656  0.4002  0.4462 -1.1651
  110MOL0     C14749   4.828   1.433  10.786 -0.1432 -0.3916 -0.3292
  110MOL0     C14750   4.700   1.395  10.826 -0.2116 -0.2596  0.6026
  110MOL0     O14751   4.668   1.401  10.961  0.8230  0.1140 -0.1900
  110MOL0     C14752   4.537   1.346  11.006 -0.6100 -0.0793  0.1529
  110MOL0     C14753   4.553   1.289  11.155  0.4328  0.2149  0.6668
  110MOL0     C14754   4.596   1.392  11.255  0.6857 -0.1913  1.2187
  110MOL0     C14755   4.496   1.416  11.367 -0.2710  0.5882 -0.1583
  110MOL0     C14756   4.556   1.527  11.461  0.4831 -0.4381  0.3828
  110MOL0     C14757   4.434   1.586  11.539 -0.7150  0.3442 -0.0465
  110MOL0     C14758   4.399   1.486  11.656  0.7110  0.0903 -0.0362
  110MOL0     C14759   4.264   1.500  11.716  1.8752  1.0228  0.2035
  110MOL0    Cl14760   4.126   1.414  11.628  0.5028  0.5356 -0.5993
  110MOL0     C14761   4.604   1.376  10.713 -0.2915  0.4832 -0.6287
  110MOL0     C14762   4.649   1.369  10.576 -0.0238  0.1725 -0.2898
  110MOL0     O14763   4.710   1.580  10.350 -0.9289 -0.3165  0.2480
  110MOL0     C14764   4.788   1.550  10.077  0.0390  0.0713 -0.4081
  110MOL0     C14765   4.824   1.549   9.939 -0.7138 -0.7198  0.0235
  110MOL0     N14766   5.442   1.444   9.977 -0.6734  0.5472  0.2538
  110MOL0     N14767   5.510   1.456  10.090  0.8925  0.3994  0.2141
  110MOL0     C14768   5.327   2.233  10.626  0.5345  0.3709 -0.8004
  110MOL0     C14769   5.213   2.248  10.710  0.1874  0.4840  0.2712
  110MOL0     C14770   5.003   2.349  11.124  0.0793  0.2254  0.7105
  110MOL0     C14771   4.993   2.424  11.236  0.3333 -0.1574 -0.6331
  110MOL0     C14772   4.901   2.391  11.337 -0.2792 -0.3037  0.2791
  110MOL0     C14773   4.815   2.279  11.328  0.2153 -0.4128  1.0112
  110MOL0     O14774   4.727   2.247  11.427 -0.3244  0.1409  0.3588
  110MOL0     C14775   4.608   2.179  11.393  0.2274  0.2225 -0.1911
  110MOL0     C14776   4.619   2.026  11.439 -0.3170  0.2124  0.4957
  110MOL0     C14777   4.488   1.956  11.440 -0.7274 -0.2957 -0.9819
  110MOL0     C14778   4.377   2.002  11.543  0.2397 -0.6300 -0.2666
  110MOL0     C14779   4.261   1.913  11.545  0.6476 -0.1213  0.3550
  110MOL0     C14780   4.161   1.840  11.548  0.0101 -0.8741  0.0687
  110MOL0     C14781   4.821   2.207  11.204 -0.3517  0.0377  0.4465
  110MOL0     C14782   4.924   2.227  11.108  0.6121 -0.1534  1.2849
  110MOL0     H14783   5.341   2.466  10.938  1.1800 -0.0044 -0.2222
  110MOL0     H14784   5.521   2.465  10.786 -1.9285  1.5968  0.4982
  110MOL0     H14785   5.607   2.113  10.587 -2.7937 -1.4966 -0.0176
  110MOL0     H14786   5.488   2.130  10.476 -0.2451 -2.0922  2.1216
  110MOL0     H14787   5.663   2.270  10.330 -1.1637  1.2603  2.1366
  110MOL0     H14788   5.778   2.240  10.478  0.4422 -2.9907  2.6242
  110MOL0     H14789   5.831   2.091  10.286 -1.2760  1.4804 -0.5227
  110MOL0     H14790   5.814   2.024  10.442 -0.7301  2.2005  2.2541
  110MOL0     H14791   5.595   1.944  10.385  1.1959 -1.5700  0.0016
  110MOL0     H14792   5.588   2.032  10.221 -3.4530 -5.1125 -1.1682
  110MOL0     H14793   5.717   1.901  10.114 -0.7283 -1.0421 -0.4930
  110MOL0     H14794   5.837   1.871  10.236 -0.1815  1.4245 -2.6133
  110MOL0     H14795   5.686   1.687  10.335  0.5713 -0.9879  0.1916
  110MOL0     H14796   5.578   1.710  10.187  1.1862  1.4644 -1.7117
  110MOL0     H14797   5.807   1.683  10.068  1.7703  2.8436  1.7991
  110MOL0     H14798   5.879   1.637  10.218  1.1025  0.2715 -1.3166
  110MOL0     H14799   5.735   1.440  10.231 -2.5523  0.0905  0.4866
  110MOL0     H14800   5.838   1.443  10.090  0.2715 -0.2137 -0.1723
  110MOL0     H14801   5.718   1.554   9.852 -0.9524  2.3676  1.6860
  110MOL0     H14802   5.489   1.576   9.675  2.1610 -3.4212 -4.9105
  110MOL0     H14803   5.476   1.401   9.667 -0.0788  1.0670 -2.8863
  110MOL0     H14804   5.266   1.559   9.639 -3.2705  0.9152  2.0029
  110MOL0     H14805   5.269   1.575   9.821  3.9961  1.4973  0.8215
  110MOL0     H14806   5.247   1.333   9.847 -0.8415  1.7797  1.1712
  110MOL0     H14807   5.280   1.315   9.686  1.1550  0.3005  1.7241
  110MOL0     H14808   5.052   1.278   9.789  0.4784 -1.0391 -1.9691
  110MOL0     H14809   5.032   1.377   9.645 -2.7640  3.2533 -0.1262
  110MOL0     H14810   5.142   1.440  10.017 -0.2271 -1.4149  0.6038
  110MOL0     H14811   5.125   1.369  10.300  0.0895 -1.0860 -3.2193
  110MOL0     H14812   5.172   1.543  10.252 -1.3114  1.7629  1.0784
  110MOL0     H14813   5.064   1.528  10.371 -2.4041  1.3078 -1.4216
  110MOL0     H14814   4.969   1.483  10.641 -0.1591  3.3679  1.3922
  110MOL0     H14815   4.898   1.445  10.869 -2.0954 -2.2666  1.7308
  110MOL0     H14816   4.473   1.434  10.988  1.4700  0.8703 -3.6875
  110MOL0     H14817   4.503   1.268  10.937 -1.4197 -0.0093  0.4585
  110MOL0     H14818   4.454   1.262  11.193 -0.2348  2.0051  0.3222
  110MOL0     H14819   4.627   1.209  11.160  1.1822  0.9270  1.1792
  110MOL0     H14820   4.614   1.483  11.197  1.9177 -0.9748  0.3271
  110MOL0     H14821   4.696   1.369  11.293  2.3943  0.3212 -2.5231
  110MOL0     H14822   4.403   1.452  11.322  1.5277  3.7738 -1.6937
  110MOL0     H14823   4.477   1.323  11.422  2.7206  0.2086  0.4460
  110MOL0     H14824   4.611   1.610  11.415 -1.8188  1.0994  0.2633
  110MOL0     H14825   4.617   1.482  11.541 -1.5868 -1.3626  1.5176
  110MOL0     H14826   4.460   1.683  11.583 -0.9424 -0.5368  2.1708
  110MOL0     H14827   4.356   1.594  11.463  0.1310  0.8605 -0.8828
  110MOL0     H14828   4.477   1.481  11.733  0.8311 -2.2526 -0.2382
  110MOL0     H14829   4.395   1.384  11.617  0.2318  0.0696  0.0655
  110MOL0     H14830   4.244   1.608  11.720  0.9208  0.8454  3.2475
  110MOL0     H14831   4.264   1.465  11.820  2.3133 -1.0316 -0.4540
  110MOL0     H14832   4.498   1.355  10.730 -0.4606  0.6816 -1.4161
  110MOL0     H14833   4.595   1.332  10.489  3.3034  0.2125 -2.5736
  110MOL0     H14834   4.689   1.593  10.092 -1.0147 -1.2546 -2.9764
  110MOL0     H14835   4.762   1.591   9.860  2.2823  2.1608 -1.0282
  110MOL0     H14836   5.314   2.157  10.549  1.5952  0.1331 -0.7598
  110MOL0     H14837   5.124   2.190  10.692  1.2096 -1.1892  0.4126
  110MOL0     H14838   5.053   2.514  11.234  2.6697 -1.6313 -3.1495
  110MOL0     H14839   4.898   2.459  11.422  0.3732  0.5830 -0.3932
  110MOL0     H14840   4.536   2.238  11.451 -1.7265 -2.1891 -0.0087
  110MOL0     H14841   4.581   2.181  11.287  2.1224  2.8034 -0.7032
  110MOL0     H14842   4.656   2.031  11.542 -1.8825  2.9067  1.0466
  110MOL0     H14843   4.692   1.982  11.372 -0.4274 -1.2017  1.2738
  110MOL0     H14844   4.524   1.858  11.470  2.5961  1.6775  2.2827
  110MOL0     H14845   4.448   1.961  11.338  0.4268 -0.0463 -1.4344
  110MOL0     H14846   4.338   2.102  11.523 -0.3167 -1.3664 -3.2835
  110MOL0     H14847   4.426   2.003  11.641  0.3627 -0.1914 -0.3300
  110MOL0     H14848   4.070   1.786  11.559  0.8355 -1.8657  2.6429
  110MOL0     H14849   4.762   2.117  11.187 -1.1878  0.1470  2.4720
  110MOL0     H14850   4.934   2.181  11.010  1.2183 -0.9981  1.7366
  111MOL0     O14851  10.712   0.525   6.822  0.3263  0.8312  0.4321
  111MOL0     C14852  10.588   0.497   6.842 -1.4168 -0.4860  0.3884
  111MOL0     O14853  10.482   0.534   6.763 -0.2209  0.2820  0.1367
  111MOL0     C14854  10.523   0.590   6.648  0.2303 -0.7230  0.4053
  111MOL0     C14855  10.518   0.736   6.628 -0.3464  0.2298 -0.0116
  111MOL0     C14856  10.576   0.784   6.509  0.0682 -0.7180  0.2829
  111MOL0     C14857  10.636   0.699   6.417  1.2507  0.3983 -0.6548
  111MOL0     O14858  10.694   0.735   6.297 -0.8593 -0.7746  0.4396
  111MOL0     C14859  10.755   0.857   6.287 -0.2771  0.0106 -0.1411
  111MOL0     C14860  10.875   0.880   6.374  0.2003 -0.7940 -0.6027
  111MOL0     C14861  10.989   0.783   6.353  0.1769  0.3713 -0.4144
  111MOL0     C14862  11.112   0.814   6.436  0.6141  0.5370  0.8476
  111MOL0     C14863  11.106   0.792   6.587  0.0982 -0.3629 -0.2651
  111MOL0     C14864  11.137   0.641   6.595  0.9820  0.1888  0.5476
  111MOL0     C14865  11.098   0.578   6.723 -0.1157 -1.2444  0.5794
  111MOL0     C14866  11.165   0.442   6.739  0.5426 -0.3871 -0.2822
  111MOL0     N14867  11.298   0.460   6.766 -0.6178  0.7328  0.2282
  111MOL0     C14868  11.355   0.541   6.855  0.5412  0.4207 -0.0536
  111MOL0     C14869  11.487   0.550   6.822 -0.8732 -0.2847  0.4802
  111MOL0     C14870  11.590   0.624   6.905  0.1281 -0.5773 -0.0181
  111MOL0     C14871  11.549   0.769   6.931  0.4113 -0.2906  0.2287
  111MOL0     C14872  11.667   0.861   6.954 -0.2558  0.7505 -0.8685
  111MOL0     C14873  11.618   1.005   6.996  0.0235  0.7646 -0.4474
  111MOL0     O14874  11.601   1.091   6.881 -1.0917  0.6319 -0.0786
  111MOL0     C14875  11.707   1.151   6.824  0.7607 -0.0258  0.2757
  111MOL0     C14876  11.840   1.138   6.861  0.2974  1.3451 -0.2160
  111MOL0     C14877  11.944   1.204   6.801 -0.7682 -0.0263 -0.1505
  111MOL0     C14878  12.087   1.158   6.831 -0.2123  0.2962 -0.1898
  111MOL0     C14879  11.913   1.284   6.687  0.3004  0.2218 -0.2709
  111MOL0     C14880  12.013   1.367   6.626 -0.2580 -1.0757 -0.3966
  111MOL0     O14881  12.073   1.461   6.713 -0.6827  0.1399 -0.7285
  111MOL0     C14882  12.139   1.580   6.686  0.3914  0.6188  0.0406
  111MOL0     C14883  12.086   1.675   6.599 -0.6015 -0.4786  0.0438
  111MOL0     C14884  12.168   1.793   6.568  0.9381  0.0361  0.0459
  111MOL0     C14885  12.279   1.823   6.647  0.0620 -0.3877 -0.3851
  111MOL0     O14886  12.356   1.935   6.652  0.1485  0.0867 -0.2036
  111MOL0     C14887  12.305   2.057   6.604 -1.0588 -0.2011 -0.6878
  111MOL0     C14888  12.396   2.167   6.645  0.3159  1.1229  0.1560
  111MOL0     C14889  12.386   2.191   6.797  0.9033 -0.5163 -0.0434
  111MOL0     C14890  12.285   2.300   6.838  0.8356  1.0027  0.1204
  111MOL0     C14891  12.286   2.337   6.989  0.2742  0.4257 -0.6538
  111MOL0     C14892  12.176   2.434   7.038 -0.7970  0.0363  0.5864
  111MOL0     C14893  12.234   2.512   7.162 -0.6895 -0.1647 -1.0207
  111MOL0     C14894  12.143   2.631   7.204 -0.1291  0.3454  0.2426
  111MOL0    Cl14895  12.006   2.571   7.307 -0.5447 -0.4101 -0.4286
  111MOL0     C14896  12.321   1.735   6.744 -0.3281 -0.3001  0.0312
  111MOL0     C14897  12.241   1.618   6.767 -0.2074 -0.3784 -0.5910
  111MOL0     O14898  12.023   1.379   6.502 -0.1156 -0.1995  0.3845
  111MOL0     C14899  11.787   1.297   6.641 -0.3134  0.2629  0.6869
  111MOL0     C14900  11.679   1.223   6.706  0.4815 -0.3530  0.1087
  111MOL0     N14901  11.503   0.481   6.707 -0.7767 -0.7372  0.1511
  111MOL0     N14902  11.392   0.425   6.678 -0.6768  0.1212  0.2864
  111MOL0     C14903  10.642   0.559   6.441  0.0479 -0.0921  0.6025
  111MOL0     C14904  10.583   0.502   6.552 -0.2448  0.4472  0.0899
  111MOL0     C14905  10.566   0.440   6.977  0.4446 -0.5152 -0.4876
  111MOL0     C14906  10.669   0.411   7.069  0.2260  0.0893  1.1225
  111MOL0     C14907  10.641   0.345   7.190 -0.5105  0.6319  0.1412
  111MOL0     C14908  10.512   0.302   7.231 -0.7632 -0.0785  0.8170
  111MOL0     O14909  10.475   0.229   7.337 -0.0897 -0.5412 -0.5124
  111MOL0     C14910  10.551   0.219   7.453 -0.7863  0.9827 -0.5923
  111MOL0     C14911  10.501   0.312   7.565 -0.4437  0.4966  0.3731
  111MOL0     C14912  10.535   0.455   7.538 -0.1829 -0.3300  0.1176
  111MOL0     C14913  10.522   0.543   7.663  1.0174 -0.4094 -0.0603
  111MOL0     C14914  10.385   0.554   7.707  0.2490  0.0445  0.6856
  111MOL0     C14915  10.265   0.544   7.722 -0.0939 -0.0388  0.5421
  111MOL0     C14916  10.412   0.338   7.139  0.1026 -0.5404 -0.0791
  111MOL0     C14917  10.433   0.401   7.014  1.0653  0.0208 -0.2162
  111MOL0     H14918  10.471   0.803   6.699  1.6637 -1.0594  2.7373
  111MOL0     H14919  10.576   0.888   6.476 -0.6340 -0.5830  0.6905
  111MOL0     H14920  10.770   0.860   6.179 -0.3610 -1.0419 -0.1931
  111MOL0     H14921  10.685   0.937   6.316 -0.8881 -0.5683  0.0205
  111MOL0     H14922  10.912   0.982   6.358 -4.4415  0.8591 -2.4459
  111MOL0     H14923  10.831   0.890   6.474 -2.5719 -3.0368 -1.4448
  111MOL0     H14924  10.946   0.686   6.381  0.9182  0.9058  3.0445
  111MOL0     H14925  11.026   0.781   6.251  2.2666  0.2228  0.3101
  111MOL0     H14926  11.195   0.750   6.406 -1.6758 -2.5432  0.5207
  111MOL0     H14927  11.137   0.920   6.428  0.4912  0.5797  1.0271
  111MOL0     H14928  11.187   0.849   6.634 -2.2104  3.7788 -0.8025
  111MOL0     H14929  11.005   0.822   6.618 -0.6333 -2.5108 -0.4176
  111MOL0     H14930  11.085   0.585   6.516  0.2049  0.9675  0.4951
  111MOL0     H14931  11.244   0.642   6.571  0.7060  4.4065 -1.5418
  111MOL0     H14932  11.126   0.650   6.801  1.7131 -1.9827  0.6538
  111MOL0     H14933  10.991   0.560   6.725  0.1314 -2.8612  0.0063
  111MOL0     H14934  11.156   0.377   6.651  1.7545 -1.7861  0.5909
  111MOL0     H14935  11.110   0.383   6.813 -1.5809 -0.5021 -1.8447
  111MOL0     H14936  11.308   0.595   6.936  2.3076  0.1415  1.2217
  111MOL0     H14937  11.605   0.571   6.999  1.9609  0.2141  0.1830
  111MOL0     H14938  11.677   0.628   6.838 -0.1691 -0.3224 -0.3955
  111MOL0     H14939  11.482   0.774   7.017 -1.4305 -1.1719 -1.0757
  111MOL0     H14940  11.491   0.811   6.849  3.7114  0.9150 -1.6748
  111MOL0     H14941  11.716   0.866   6.856 -1.7398 -3.1956 -1.9800
  111MOL0     H14942  11.734   0.822   7.031 -0.4845  1.5416 -0.2580
  111MOL0     H14943  11.674   1.057   7.074 -1.2577  1.5812 -0.0384
  111MOL0     H14944  11.522   1.005   7.049 -0.4956  0.2744 -1.3634
  111MOL0     H14945  11.871   1.079   6.947  1.1829 -0.6096 -1.7976
  111MOL0     H14946  12.107   1.194   6.933 -2.8983  0.8898  0.2170
  111MOL0     H14947  12.076   1.049   6.834 -1.2437  0.3773  2.7391
  111MOL0     H14948  12.150   1.188   6.747 -1.3966 -0.4027 -1.3584
  111MOL0     H14949  11.998   1.648   6.541 -0.4877  3.4129 -2.3196
  111MOL0     H14950  12.140   1.853   6.481  0.6208  0.1543  0.2276
  111MOL0     H14951  12.308   2.054   6.494  5.3345  0.6095 -0.9125
  111MOL0     H14952  12.204   2.068   6.646 -0.5988  1.1800  0.1114
  111MOL0     H14953  12.498   2.136   6.618  0.9619  1.4067  2.1045
  111MOL0     H14954  12.365   2.257   6.592  0.8285  3.0850  2.9465
  111MOL0     H14955  12.481   2.227   6.838 -0.2714  1.3625  1.1967
  111MOL0     H14956  12.373   2.094   6.844  3.4178 -1.2088 -0.6558
  111MOL0     H14957  12.320   2.385   6.779  0.6546  0.0909 -1.3470
  111MOL0     H14958  12.182   2.283   6.807  1.0285  2.5404 -1.5891
  111MOL0     H14959  12.387   2.379   6.998 -0.9162  4.3171 -2.9074
  111MOL0     H14960  12.264   2.248   7.049 -0.5828  3.0109  3.2631
  111MOL0     H14961  12.164   2.511   6.961 -2.7809 -0.2092  0.6097
  111MOL0     H14962  12.085   2.376   7.053 -0.0866 -1.8323 -1.6578
  111MOL0     H14963  12.336   2.551   7.151 -0.2888 -1.5390 -2.4627
  111MOL0     H14964  12.244   2.432   7.236 -2.5246  0.4190 -0.0657
  111MOL0     H14965  12.102   2.688   7.120 -1.6207  1.8956  1.9481
  111MOL0     H14966  12.201   2.696   7.270 -0.7961  0.7142  0.4691
  111MOL0     H14967  12.411   1.755   6.802 -0.1516 -2.2383  0.4810
  111MOL0     H14968  12.270   1.537   6.833  0.3654 -2.4213 -3.1979
  111MOL0     H14969  11.758   1.358   6.556  0.7168  0.4415  0.4461
  111MOL0     H14970  11.574   1.231   6.679  0.0463  0.4614  1.9220
  111MOL0     H14971  10.702   0.496   6.377  0.6353  1.1249 -0.0717
  111MOL0     H14972  10.582   0.394   6.561 -1.8667  0.5448  1.5828
  111MOL0     H14973  10.769   0.445   7.045 -0.8640  0.7785 -3.2089
  111MOL0     H14974  10.724   0.340   7.259  1.1416  0.3469 -1.7575
  111MOL0     H14975  10.526   0.114   7.474 -2.1713  1.2814 -0.6268
  111MOL0     H14976  10.657   0.238   7.435 -0.7664  3.2090  1.4192
  111MOL0     H14977  10.562   0.283   7.651  0.7758  3.2898  0.5330
  111MOL0     H14978  10.396   0.286   7.584 -0.5903 -0.9077 -2.0156
  111MOL0     H14979  10.471   0.486   7.455 -0.9262  0.0840  0.8369
  111MOL0     H14980  10.637   0.459   7.499 -1.0797  0.4849 -2.3213
  111MOL0     H14981  10.549   0.646   7.636  1.5913 -0.1358  1.4772
  111MOL0     H14982  10.591   0.500   7.736  0.1313 -3.4895 -0.9251
  111MOL0     H14983  10.159   0.544   7.739 -0.6454  2.2002 -2.2129
  111MOL0     H14984  10.313   0.315   7.177  0.4466  1.1887  2.0978
  111MOL0     H14985  10.346   0.408   6.950  0.4343  0.8027  0.6937
  112MOL0     O14986   0.682   5.984   2.522  0.3089  0.5222 -0.3968
  112MOL0     C14987   0.748   5.978   2.626  0.2270  1.1013  0.1386
  112MOL0     O14988   0.693   5.994   2.754  0.3046 -0.9721  0.1156
  112MOL0     C14989   0.562   6.024   2.771 -1.3498 -0.4698 -0.5070
  112MOL0     C14990   0.488   5.948   2.861  0.0813 -0.9556 -0.0920
  112MOL0     C14991   0.355   5.984   2.888 -0.3251 -1.4936 -0.9557
  112MOL0     C14992   0.282   6.080   2.814  0.3318 -0.2981  0.2255
  112MOL0     O14993   0.149   6.096   2.846  0.1293  0.8574  0.0526
  112MOL0     C14994   0.061   5.989   2.876 -0.1842 -0.2870 -0.8112
  112MOL0     C14995  -0.060   6.017   2.782 -0.7292 -0.1653  0.1453
  112MOL0     C14996  -0.158   6.124   2.822  0.2986 -0.1541  0.3797
  112MOL0     C14997  -0.288   6.118   2.751  0.7103  0.0194  0.5010
  112MOL0     C14998  -0.377   6.216   2.823 -0.5578 -0.5161 -0.3437
  112MOL0     C14999  -0.514   6.236   2.761  0.0150 -0.0086 -0.5527
  112MOL0     C15000  -0.607   6.319   2.844 -0.2721  0.6398 -0.8876
  112MOL0     C15001  -0.751   6.330   2.791 -0.0181 -0.0100 -0.3562
  112MOL0     N15002  -0.831   6.220   2.833 -0.5960  0.9774  0.1001
  112MOL0     C15003  -0.884   6.198   2.954 -0.3700  0.1511 -0.6377
  112MOL0     C15004  -0.983   6.101   2.928  0.0091 -0.5943 -0.2600
  112MOL0     C15005  -1.075   6.029   3.019 -0.6774  0.2149  0.4452
  112MOL0     C15006  -1.012   5.888   3.060  0.6503  0.1640  0.6806
  112MOL0     C15007  -1.106   5.805   3.156  0.3840  0.1015  0.8179
  112MOL0     C15008  -1.175   5.884   3.274 -0.1453  0.0952  0.4356
  112MOL0     O15009  -1.083   5.970   3.343 -0.6375  0.3043 -0.4864
  112MOL0     C15010  -1.114   6.014   3.472 -0.2481  0.2752 -0.7674
  112MOL0     C15011  -1.253   6.016   3.517 -0.3353 -0.4794  0.3863
  112MOL0     C15012  -1.283   6.058   3.645 -0.1577  0.1906  0.1079
  112MOL0     C15013  -1.439   6.058   3.675  0.0027 -0.0365  0.1232
  112MOL0     C15014  -1.179   6.093   3.737 -1.1100 -0.5891  0.9731
  112MOL0     C15015  -1.200   6.165   3.868 -0.4035  0.5535 -0.8357
  112MOL0     O15016  -1.327   6.198   3.902 -0.3791 -0.7750 -0.0041
  112MOL0     C15017  -1.362   6.228   4.035 -0.9526  0.6190 -0.0788
  112MOL0     C15018  -1.446   6.332   4.055 -0.5564 -0.7999 -0.3539
  112MOL0     C15019  -1.498   6.364   4.182 -0.4672  0.7971  0.4906
  112MOL0     C15020  -1.459   6.295   4.297  0.8973 -0.2725  0.5940
  112MOL0     O15021  -1.489   6.340   4.426  0.5929 -0.5122 -0.2622
  112MOL0     C15022  -1.449   6.295   4.548 -0.3385 -0.3348  0.2073
  112MOL0     C15023  -1.496   6.155   4.582 -0.0388  0.2127  0.7567
  112MOL0     C15024  -1.528   6.138   4.736 -1.1221  0.0483  1.0918
  112MOL0     C15025  -1.685   6.152   4.755 -0.1159 -0.1954 -0.0943
  112MOL0     C15026  -1.732   6.077   4.881 -0.0032 -0.2386 -0.2112
  112MOL0     C15027  -1.857   6.126   4.958  0.8615 -1.3180 -0.5585
  112MOL0     C15028  -1.868   6.043   5.085  0.6631 -0.5896 -0.0935
  112MOL0     C15029  -1.966   6.089   5.190 -0.1234 -0.7382  0.4958
  112MOL0    Cl15030  -2.119   6.149   5.115 -0.3095 -0.5087  0.0079
  112MOL0     C15031  -1.362   6.194   4.277  0.1279  0.5235  0.0577
  112MOL0     C15032  -1.314   6.157   4.150  0.2177  0.3604 -0.1911
  112MOL0     O15033  -1.099   6.183   3.942 -0.2614  0.3051  0.4509
  112MOL0     C15034  -1.041   6.084   3.687 -0.2402 -0.0539 -0.9337
  112MOL0     C15035  -1.010   6.054   3.557  0.3746  0.2091 -0.0379
  112MOL0     N15036  -0.973   6.063   2.797 -0.6548  0.1161 -0.5251
  112MOL0     N15037  -0.885   6.131   2.742 -0.0571 -0.3995 -0.6289
  112MOL0     C15038   0.356   6.155   2.725 -0.0565  0.2832  0.1770
  112MOL0     C15039   0.496   6.131   2.699  0.0984 -0.0142 -0.0840
  112MOL0     C15040   0.888   5.939   2.617  0.6838 -0.3154  0.0550
  112MOL0     C15041   0.959   5.966   2.497 -1.1276  0.3478 -0.1371
  112MOL0     C15042   1.099   5.926   2.492  1.2418 -0.4973 -0.0922
  112MOL0     C15043   1.161   5.885   2.609 -0.7248 -0.8904 -0.6698
  112MOL0     O15044   1.301   5.867   2.612 -0.2222 -0.6762  0.4429
  112MOL0     C15045   1.375   5.874   2.491 -0.2801  0.2444  1.0125
  112MOL0     C15046   1.526   5.843   2.492  0.3387 -0.9638  0.2130
  112MOL0     C15047   1.597   5.962   2.568  0.0673 -0.3737 -1.0133
  112MOL0     C15048   1.647   6.084   2.482 -0.6972 -0.6053 -0.0058
  112MOL0     C15049   1.742   6.168   2.557  0.9421 -0.8797  0.2437
  112MOL0     C15050   1.816   6.240   2.626 -0.8336  0.9790  0.0856
  112MOL0     C15051   1.089   5.859   2.726 -0.0577 -0.5881 -0.4778
  112MOL0     C15052   0.950   5.875   2.730 -0.3870 -0.6106  0.6070
  112MOL0     H15053   0.522   5.864   2.921  0.2557 -0.8678 -0.0692
  112MOL0     H15054   0.317   5.933   2.975  1.9676 -1.8923 -0.1065
  112MOL0     H15055   0.109   5.892   2.860 -3.0784 -2.5679  2.7388
  112MOL0     H15056   0.028   5.996   2.979 -2.0489  0.8524 -1.4429
  112MOL0     H15057  -0.037   6.042   2.678 -0.4422  0.3160  0.3274
  112MOL0     H15058  -0.106   5.917   2.777 -1.4396  0.0986  1.0386
  112MOL0     H15059  -0.172   6.106   2.930  1.2468  1.0185  0.7192
  112MOL0     H15060  -0.116   6.224   2.808 -1.0577  0.1839 -1.7704
  112MOL0     H15061  -0.300   6.126   2.642 -0.3985  3.5781  0.7385
  112MOL0     H15062  -0.343   6.027   2.778  1.2111 -0.3156  0.3925
  112MOL0     H15063  -0.403   6.183   2.924 -1.5610  0.1252 -0.3787
  112MOL0     H15064  -0.331   6.315   2.831  0.8348 -1.1654 -0.0380
  112MOL0     H15065  -0.514   6.291   2.667 -0.9744 -1.2137 -1.2736
  112MOL0     H15066  -0.565   6.141   2.744 -1.0602  0.2552  0.9324
  112MOL0     H15067  -0.615   6.277   2.945  1.6333  3.9601  0.7990
  112MOL0     H15068  -0.565   6.420   2.850  2.2073 -0.3705  0.3364
  112MOL0     H15069  -0.754   6.317   2.682  0.8720 -0.7386 -0.3067
  112MOL0     H15070  -0.785   6.430   2.817 -1.0405 -0.4008 -0.1112
  112MOL0     H15071  -0.853   6.259   3.039  1.8950  0.1617 -1.4050
  112MOL0     H15072  -1.071   6.074   3.118  2.0138 -3.3112  2.1731
  112MOL0     H15073  -1.179   6.024   2.986 -0.5365 -0.1769  0.0437
  112MOL0     H15074  -0.917   5.906   3.112 -0.6332  2.4237  2.4768
  112MOL0     H15075  -0.986   5.827   2.974  1.1700 -0.6494  1.3989
  112MOL0     H15076  -1.043   5.723   3.192  0.3755  0.1630  0.9735
  112MOL0     H15077  -1.189   5.767   3.096  1.2180  0.1221 -0.3986
  112MOL0     H15078  -1.230   5.815   3.339 -2.6224  3.4369  2.1410
  112MOL0     H15079  -1.249   5.947   3.224 -1.1761  1.4776  3.4854
  112MOL0     H15080  -1.329   6.001   3.442  1.5928 -0.3774 -1.6944
  112MOL0     H15081  -1.470   6.149   3.727 -0.8412 -0.7485  0.9010
  112MOL0     H15082  -1.497   6.055   3.582  0.4568 -2.0455 -0.1363
  112MOL0     H15083  -1.457   5.973   3.741 -0.6106  0.8742  1.1557
  112MOL0     H15084  -1.475   6.388   3.967 -1.9905  0.9376  1.1451
  112MOL0     H15085  -1.576   6.440   4.178 -0.1239  1.0932 -2.2830
  112MOL0     H15086  -1.343   6.316   4.561  0.0766  0.5404 -3.6835
  112MOL0     H15087  -1.499   6.357   4.624 -1.7670 -1.4985  0.2683
  112MOL0     H15088  -1.585   6.141   4.521  0.9101  0.1647 -0.6682
  112MOL0     H15089  -1.436   6.072   4.542 -2.2696 -1.8640  1.5009
  112MOL0     H15090  -1.487   6.220   4.796  0.0448  1.3390 -1.3295
  112MOL0     H15091  -1.487   6.044   4.775 -3.0241 -2.9929 -3.4226
  112MOL0     H15092  -1.684   6.257   4.784 -3.2619 -0.5717  1.8131
  112MOL0     H15093  -1.747   6.139   4.666  1.9110  0.3540 -1.6614
  112MOL0     H15094  -1.646   6.071   4.949 -0.3883 -2.8572  0.1765
  112MOL0     H15095  -1.756   5.971   4.865 -0.1750 -0.2818  0.2991
  112MOL0     H15096  -1.867   6.233   4.979 -2.7823 -1.4812 -0.7414
  112MOL0     H15097  -1.943   6.115   4.890 -1.1970  1.1336  1.4010
  112MOL0     H15098  -1.769   6.042   5.132  0.8242  0.2262 -0.3869
  112MOL0     H15099  -1.890   5.940   5.057  1.5800  0.0167 -3.5448
  112MOL0     H15100  -1.926   6.170   5.253  1.2912 -2.7492  2.3152
  112MOL0     H15101  -1.989   6.011   5.263 -2.5444 -1.0997 -0.5428
  112MOL0     H15102  -1.321   6.134   4.357  0.6845 -2.0607 -2.0224
  112MOL0     H15103  -1.242   6.076   4.143 -0.6416 -0.3011 -2.4186
  112MOL0     H15104  -0.971   6.114   3.764 -1.5255  0.7419 -0.0305
  112MOL0     H15105  -0.904   6.056   3.532  0.1727 -1.0569 -1.0920
  112MOL0     H15106   0.314   6.243   2.677  2.2227  1.6136  0.4676
  112MOL0     H15107   0.551   6.187   2.624 -1.6124 -2.5647 -3.4832
  112MOL0     H15108   0.926   6.021   2.410  0.9365  3.3535  0.8173
  112MOL0     H15109   1.145   5.941   2.395  0.4570  0.7616 -0.2839
  112MOL0     H15110   1.335   5.826   2.401  0.1538  2.5530 -0.5368
  112MOL0     H15111   1.372   5.980   2.462  1.8843  0.3012  0.7841
  112MOL0     H15112   1.551   5.837   2.386  0.8513 -0.9576  0.3324
  112MOL0     H15113   1.536   5.749   2.547  2.8267  0.3572  2.2279
  112MOL0     H15114   1.683   5.925   2.625  0.9220 -0.5776 -2.3735
  112MOL0     H15115   1.537   6.009   2.646  0.8431 -2.3366  0.8650
  112MOL0     H15116   1.564   6.146   2.445 -0.1679 -0.1260 -0.4034
  112MOL0     H15117   1.696   6.033   2.398 -0.6998  2.3193 -1.9386
  112MOL0     H15118   1.868   6.301   2.697  1.1629 -1.6818  1.0826
  112MOL0     H15119   1.141   5.817   2.811  1.5700  2.1737 -0.0032
  112MOL0     H15120   0.886   5.835   2.808 -0.5528 -3.1663 -0.7328
  113MOL0     O15121   7.222   0.291   9.880 -0.8581 -0.0675  0.3483
  113MOL0     C15122   7.286   0.349   9.963 -0.2495  0.6294 -0.3252
  113MOL0     O15123   7.417   0.321  10.000 -0.6149 -0.3811  0.7856
  113MOL0     C15124   7.505   0.275   9.905  0.6905 -0.1722 -0.4383
  113MOL0     C15125   7.601   0.185   9.940 -0.5555 -0.5847 -0.4670
  113MOL0     C15126   7.691   0.143   9.844  0.0630  1.1267 -0.1278
  113MOL0     C15127   7.700   0.206   9.718  0.1810  0.6193  0.7368
  113MOL0     O15128   7.785   0.159   9.623 -0.4222  1.2170  0.0271
  113MOL0     C15129   7.874   0.266   9.581  1.3612 -0.9113 -0.0203
  113MOL0     C15130   8.013   0.222   9.607  0.1551  0.1780 -0.5156
  113MOL0     C15131   8.057   0.213   9.758 -0.9342 -0.1722 -0.0312
  113MOL0     C15132   8.045   0.347   9.839  0.3453 -0.0280 -0.8851
  113MOL0     C15133   8.125   0.338   9.974  0.5390  0.1008  0.8521
  113MOL0     C15134   8.053   0.252  10.073 -0.6245 -0.7499  0.7736
  113MOL0     C15135   8.123   0.233  10.205 -0.1413 -0.1642  0.5992
  113MOL0     C15136   8.050   0.152  10.302  1.0273  0.3728  0.4962
  113MOL0     N15137   7.959   0.222  10.393  0.1608 -0.5394  0.1598
  113MOL0     C15138   7.824   0.203  10.376 -0.1000 -0.2957  1.0400
  113MOL0     C15139   7.766   0.246  10.489  0.5775  1.0982 -0.2488
  113MOL0     C15140   7.625   0.261  10.512 -0.3840  0.1812  0.2491
  113MOL0     C15141   7.567   0.392  10.468  0.2519 -0.1571  0.7744
  113MOL0     C15142   7.582   0.527  10.543  0.1299  0.3763 -0.5295
  113MOL0     C15143   7.495   0.632  10.478  0.2909  0.5109 -0.4848
  113MOL0     O15144   7.530   0.671  10.349  0.2632  0.1159 -0.5038
  113MOL0     C15145   7.568   0.799  10.326  0.1313  0.6262 -0.9230
  113MOL0     C15146   7.649   0.877  10.416 -0.2456 -0.8519 -0.2478
  113MOL0     C15147   7.703   1.001  10.380 -0.3320 -1.1961 -0.5652
  113MOL0     C15148   7.759   1.079  10.499 -0.3455  0.3103  0.4182
  113MOL0     C15149   7.676   1.053  10.253 -0.7006  0.1012  0.5148
  113MOL0     C15150   7.723   1.176  10.210 -0.2027 -0.4496  1.0994
  113MOL0     O15151   7.674   1.219  10.091 -0.7048 -0.2180 -0.3735
  113MOL0     C15152   7.686   1.354  10.050  0.1583  0.6274 -0.6330
  113MOL0     C15153   7.700   1.381   9.920  0.0700 -0.0975  0.8280
  113MOL0     C15154   7.707   1.515   9.870  0.3228 -0.5305  0.5759
  113MOL0     C15155   7.702   1.626   9.963 -0.2586  0.2900 -0.2765
  113MOL0     O15156   7.713   1.759   9.919  0.4596  0.4412  0.0501
  113MOL0     C15157   7.719   1.859  10.022  0.0097 -0.5451  0.0883
  113MOL0     C15158   7.719   2.004   9.959  0.1745 -0.7966 -0.1966
  113MOL0     C15159   7.678   2.105  10.068 -0.3108  0.1180 -0.4954
  113MOL0     C15160   7.658   2.246  10.015 -0.0121 -0.4700 -1.1134
  113MOL0     C15161   7.608   2.340  10.125  1.2300 -1.3257 -0.0453
  113MOL0     C15162   7.702   2.347  10.247 -0.2871  0.2499  0.4549
  113MOL0     C15163   7.673   2.451  10.351 -0.6996  0.2221  0.6460
  113MOL0     C15164   7.804   2.476  10.432  1.0637  1.1958 -0.1388
  113MOL0    Cl15165   7.785   2.638  10.510  0.2225  0.4102 -0.1124
  113MOL0     C15166   7.679   1.593  10.098  0.3264  0.1026 -0.7076
  113MOL0     C15167   7.681   1.463  10.141 -0.2397 -0.4533  0.1733
  113MOL0     O15168   7.819   1.218  10.269  0.1793  0.4518 -0.3047
  113MOL0     C15169   7.593   0.973  10.175  0.1348  0.0427 -0.3986
  113MOL0     C15170   7.545   0.852  10.198  0.1787  0.1041  0.8322
  113MOL0     N15171   7.860   0.292  10.567  0.4829  0.6778 -0.4939
  113MOL0     N15172   7.983   0.284  10.516  0.4125 -0.7959  1.1580
  113MOL0     C15173   7.614   0.309   9.686 -0.1922  0.2111 -0.4418
  113MOL0     C15174   7.511   0.345   9.779 -0.3143  0.3774 -0.5657
  113MOL0     C15175   7.217   0.448  10.049 -0.3436  0.1354  1.0731
  113MOL0     C15176   7.276   0.503  10.166  0.0954  0.0274 -0.4076
  113MOL0     C15177   7.207   0.603  10.231 -0.0417 -0.4571 -0.1681
  113MOL0     C15178   7.071   0.638  10.194 -0.7556 -0.5557  0.7428
  113MOL0     O15179   6.980   0.716  10.260 -0.5183 -0.1089 -0.2579
  113MOL0     C15180   7.019   0.754  10.395  0.1840  0.8512  0.1867
  113MOL0     C15181   7.027   0.643  10.498  0.0514 -0.3874 -0.1769
  113MOL0     C15182   6.890   0.570  10.493 -0.5168 -1.2122  0.5121
  113MOL0     C15183   6.869   0.460  10.598 -0.7129  0.2605 -0.0951
  113MOL0     C15184   6.980   0.364  10.599 -0.4936  0.0168 -0.2240
  113MOL0     C15185   7.071   0.283  10.626  0.1649 -0.6521 -0.3824
  113MOL0     C15186   7.017   0.572  10.081  0.3771 -0.6935  0.6414
  113MOL0     C15187   7.084   0.484  10.003 -0.5676  0.4037 -0.1664
  113MOL0     H15188   7.620   0.149  10.040  0.0016  0.9213 -0.0045
  113MOL0     H15189   7.752   0.061   9.879 -2.6585 -0.4857  1.2075
  113MOL0     H15190   7.860   0.279   9.473 -2.8555 -0.3670  0.4030
  113MOL0     H15191   7.868   0.362   9.633  0.8889 -0.9746  0.0523
  113MOL0     H15192   8.026   0.121   9.568 -0.0695 -0.3996  0.8324
  113MOL0     H15193   8.078   0.297   9.563 -0.9425  2.1883  1.0696
  113MOL0     H15194   7.992   0.146   9.815 -1.1430  0.4016  0.4097
  113MOL0     H15195   8.158   0.171   9.758  0.0259  2.0087 -0.6879
  113MOL0     H15196   8.090   0.431   9.786  0.2583  0.1205 -0.7239
  113MOL0     H15197   7.940   0.374   9.856  1.0122  2.7369 -0.8386
  113MOL0     H15198   8.220   0.294   9.941  0.9190  1.5927 -0.1579
  113MOL0     H15199   8.139   0.436  10.021 -0.2252  0.3674  0.5467
  113MOL0     H15200   7.952   0.294  10.075  0.5348  2.5759 -1.9249
  113MOL0     H15201   8.037   0.153  10.029 -1.4497 -1.2728  2.1745
  113MOL0     H15202   8.215   0.184  10.172  0.2452  2.3915 -2.6296
  113MOL0     H15203   8.142   0.332  10.247  0.9165  0.0077 -0.2518
  113MOL0     H15204   8.114   0.091  10.366  2.4323  2.1338  0.8489
  113MOL0     H15205   7.996   0.073  10.248 -0.9769  0.4757  2.2136
  113MOL0     H15206   7.782   0.164  10.284  0.8762  0.4755  0.2404
  113MOL0     H15207   7.564   0.193  10.452  2.0386 -0.6884 -1.3915
  113MOL0     H15208   7.606   0.256  10.620  0.2751 -0.1735  0.3559
  113MOL0     H15209   7.458   0.389  10.466  0.0959  2.8378  0.1404
  113MOL0     H15210   7.592   0.412  10.363  1.5930  1.3598  1.3527
  113MOL0     H15211   7.690   0.545  10.548  0.6962 -2.7710  1.1029
  113MOL0     H15212   7.543   0.513  10.644 -2.9071  0.2449 -1.6365
  113MOL0     H15213   7.496   0.720  10.542 -0.2333 -0.3212  0.6954
  113MOL0     H15214   7.389   0.610  10.471  0.1475 -0.0518  2.3346
  113MOL0     H15215   7.667   0.831  10.513  0.9671  2.5527  1.3032
  113MOL0     H15216   7.868   1.081  10.490 -0.3711 -0.8365 -0.3625
  113MOL0     H15217   7.726   1.184  10.500  0.2124  0.6603 -3.1077
  113MOL0     H15218   7.718   1.039  10.592 -0.5396  1.3216  0.7890
  113MOL0     H15219   7.706   1.298   9.850  0.5632 -2.3252  3.3616
  113MOL0     H15220   7.730   1.539   9.766 -1.6390 -1.1439 -0.0394
  113MOL0     H15221   7.628   1.855  10.082  0.4540  0.4093  0.8446
  113MOL0     H15222   7.813   1.854  10.076 -1.0027  4.5579  3.0162
  113MOL0     H15223   7.809   2.036   9.906 -0.9720  1.9010 -0.6480
  113MOL0     H15224   7.639   2.008   9.884 -1.3911 -0.4356  1.4423
  113MOL0     H15225   7.739   2.106  10.158 -0.2200  0.9445 -0.5573
  113MOL0     H15226   7.579   2.078  10.104 -0.6238  0.7834 -0.8223
  113MOL0     H15227   7.754   2.289   9.984 -0.2877  1.1099  0.1291
  113MOL0     H15228   7.589   2.253   9.931  2.3387  1.4819 -3.0439
  113MOL0     H15229   7.512   2.303  10.162 -0.9297  2.7384 -0.9850
  113MOL0     H15230   7.593   2.438  10.080  2.6976 -1.9406 -2.0116
  113MOL0     H15231   7.701   2.252  10.301  2.2109 -3.0076 -4.5549
  113MOL0     H15232   7.806   2.363  10.217  0.1861  1.5065  2.5619
  113MOL0     H15233   7.600   2.410  10.423  1.5843 -4.7553  0.5779
  113MOL0     H15234   7.633   2.543  10.308  2.6626  2.0801  1.1568
  113MOL0     H15235   7.896   2.461  10.376  0.7779 -1.9745  0.0548
  113MOL0     H15236   7.810   2.395  10.505  3.8500  1.0192 -0.4473
  113MOL0     H15237   7.662   1.659  10.182 -1.3263 -1.5516  0.3557
  113MOL0     H15238   7.669   1.449  10.248  1.3569 -1.8162  0.2159
  113MOL0     H15239   7.572   1.017  10.078 -2.0931  0.3354  0.1651
  113MOL0     H15240   7.498   0.796  10.117  2.8559 -2.0417  0.5993
  113MOL0     H15241   7.626   0.366   9.595  0.9238  2.1601  0.8429
  113MOL0     H15242   7.439   0.421   9.749 -0.6195 -0.0324 -0.8998
  113MOL0     H15243   7.373   0.478  10.209  0.3807  2.8201  0.7961
  113MOL0     H15244   7.253   0.654  10.315  0.1103  0.3581 -0.7279
  113MOL0     H15245   7.109   0.815  10.388 -0.4126  1.6286 -1.2546
  113MOL0     H15246   6.946   0.829  10.428  0.8900  3.8108 -4.0147
  113MOL0     H15247   7.040   0.655  10.606  1.8502 -0.4783 -0.3529
  113MOL0     H15248   7.103   0.575  10.457 -3.0240 -1.4222 -5.0637
  113MOL0     H15249   6.879   0.521  10.396 -0.5165  1.2518 -0.8200
  113MOL0     H15250   6.812   0.647  10.498 -1.5365 -2.2533  1.0325
  113MOL0     H15251   6.776   0.411  10.567 -0.7586  1.8404 -2.8346
  113MOL0     H15252   6.856   0.507  10.696  2.3502 -0.1654  0.6182
  113MOL0     H15253   7.150   0.213  10.645  0.7682  0.9053  4.0527
  113MOL0     H15254   6.915   0.581  10.045  1.4342  0.8274 -2.3318
  113MOL0     H15255   7.045   0.435   9.915  1.3816 -0.7542 -0.4708
  114MOL0     O15256   6.695   8.807   7.199 -0.7497 -0.4076  0.0057
  114MOL0     C15257   6.692   8.787   7.321  0.0721  0.4169 -0.0999
  114MOL0     O15258   6.776   8.836   7.420  0.0770  0.1231 -0.9215
  114MOL0     C15259   6.887   8.877   7.369 -0.6119 -1.0884  0.2591
  114MOL0     C15260   7.006   8.793   7.364 -0.0472  0.1681  0.6878
  114MOL0     C15261   7.122   8.844   7.317  0.0300  0.5671  1.1509
  114MOL0     C15262   7.124   8.971   7.270 -1.2827 -0.5046  0.4218
  114MOL0     O15263   7.240   9.037   7.222  0.7884 -0.1696 -0.2856
  114MOL0     C15264   7.308   8.968   7.112  0.3267  0.9598  0.3432
  114MOL0     C15265   7.455   9.006   7.127  0.1670 -0.4849 -0.1960
  114MOL0     C15266   7.534   8.964   6.998 -0.0249  0.0654 -0.5845
  114MOL0     C15267   7.520   8.816   6.961 -0.2034 -0.0955 -0.5435
  114MOL0     C15268   7.582   8.797   6.823  0.1034 -0.3658 -0.2458
  114MOL0     C15269   7.525   8.696   6.727  0.0447 -1.3335  0.2437
  114MOL0     C15270   7.594   8.694   6.580  0.5596 -0.2192  0.6333
  114MOL0     C15271   7.738   8.639   6.590  0.0412 -0.6498 -0.6814
  114MOL0     N15272   7.776   8.549   6.480  0.6850  0.3930  0.4034
  114MOL0     C15273   7.751   8.409   6.475  0.6398 -0.2498 -0.2325
  114MOL0     C15274   7.755   8.375   6.341  0.9105  0.3523  0.3485
  114MOL0     C15275   7.722   8.234   6.288 -0.0041  1.1548  0.3452
  114MOL0     C15276   7.836   8.168   6.215 -0.2584  0.8218 -0.2720
  114MOL0     C15277   7.823   8.013   6.210 -0.3312 -0.8136  0.5457
  114MOL0     C15278   7.926   7.958   6.104 -0.3577 -0.4329  0.1879
  114MOL0     O15279   7.932   7.820   6.108 -1.4467 -0.1058  0.3189
  114MOL0     C15280   7.984   7.767   5.993 -0.8497 -0.0536 -0.8221
  114MOL0     C15281   7.968   7.628   5.974 -0.2720 -1.1306 -0.1253
  114MOL0     C15282   8.018   7.567   5.862 -0.3565  0.1394 -0.6076
  114MOL0     C15283   7.997   7.411   5.849 -0.1280 -0.1057 -0.6443
  114MOL0     C15284   8.085   7.642   5.763  0.3257  0.3428 -0.3886
  114MOL0     C15285   8.131   7.589   5.641 -0.6436  0.5191 -0.4397
  114MOL0     O15286   8.167   7.666   5.532  0.2078 -1.2186 -0.4563
  114MOL0     C15287   8.247   7.619   5.434 -0.5186  0.1713  1.0373
  114MOL0     C15288   8.200   7.613   5.302  1.4383  0.1851  0.8916
  114MOL0     C15289   8.273   7.554   5.202 -0.1078  1.0040  0.2667
  114MOL0     C15290   8.408   7.505   5.225 -0.0027 -0.3753 -0.3442
  114MOL0     O15291   8.481   7.474   5.120  0.1816 -0.1961 -0.5718
  114MOL0     C15292   8.530   7.594   5.064 -0.4734 -0.4457  0.1464
  114MOL0     C15293   8.641   7.559   4.960 -0.5664  0.0801  0.0482
  114MOL0     C15294   8.765   7.468   5.012 -0.0614 -0.6792 -0.3503
  114MOL0     C15295   8.835   7.396   4.896  0.0793  0.8191 -0.1948
  114MOL0     C15296   8.972   7.321   4.943  0.5062  0.1351 -0.0362
  114MOL0     C15297   9.023   7.236   4.836 -0.0337  0.2241  0.4363
  114MOL0     C15298   9.128   7.140   4.886  0.3700 -0.9046  0.6871
  114MOL0     C15299   9.186   7.038   4.775 -1.1958 -0.2091  0.4240
  114MOL0    Cl15300   9.282   7.127   4.652  0.0030  0.2571  0.4128
  114MOL0     C15301   8.457   7.518   5.352  0.5228 -0.1413 -0.5163
  114MOL0     C15302   8.388   7.580   5.457 -0.7005 -0.6713  1.1753
  114MOL0     O15303   8.159   7.472   5.641  0.2115  0.0258 -1.3353
  114MOL0     C15304   8.100   7.780   5.774 -0.2090  0.3541 -0.9456
  114MOL0     C15305   8.058   7.842   5.891  0.6454  0.9078 -0.5608
  114MOL0     N15306   7.787   8.487   6.267  0.7943  0.6307 -0.3699
  114MOL0     N15307   7.801   8.589   6.348 -0.1897 -0.3901  0.1767
  114MOL0     C15308   7.016   9.056   7.277  1.3555  0.5606  0.6910
  114MOL0     C15309   6.890   9.012   7.318 -0.3828  1.0187 -0.2449
  114MOL0     C15310   6.563   8.740   7.370  0.8878  0.1751 -0.6818
  114MOL0     C15311   6.536   8.704   7.506  0.0298 -0.2610  0.5998
  114MOL0     C15312   6.407   8.687   7.555  0.6401  0.3250  0.0698
  114MOL0     C15313   6.297   8.695   7.468 -0.8873 -0.0680 -0.0028
  114MOL0     O15314   6.172   8.671   7.514  0.0047  0.9773  0.7667
  114MOL0     C15315   6.147   8.555   7.601  0.3134 -0.1251  0.2744
  114MOL0     C15316   6.009   8.497   7.574  0.2755 -0.5397 -0.3671
  114MOL0     C15317   5.987   8.368   7.671  0.1562  0.0287 -0.2535
  114MOL0     C15318   5.948   8.411   7.814 -0.3916  0.5363  0.7009
  114MOL0     C15319   5.846   8.519   7.819  0.3083  1.3796 -0.3669
  114MOL0     C15320   5.773   8.614   7.826 -0.1809  0.1026  0.1923
  114MOL0     C15321   6.319   8.720   7.329 -0.4813  0.6411  0.3157
  114MOL0     C15322   6.449   8.746   7.284 -0.0790  0.6059  0.2164
  114MOL0     H15323   6.999   8.688   7.389  1.7839 -0.6598 -1.8180
  114MOL0     H15324   7.211   8.781   7.307  0.0447  0.5165  1.5926
  114MOL0     H15325   7.294   8.860   7.116  1.0107  0.8789  0.6498
  114MOL0     H15326   7.281   9.006   7.012  2.1123 -2.2933 -1.5555
  114MOL0     H15327   7.470   9.113   7.149  1.9139 -0.0260 -3.1245
  114MOL0     H15328   7.495   8.965   7.220  0.8822  0.9690  0.1654
  114MOL0     H15329   7.500   9.024   6.913 -0.3226 -1.0343 -1.2479
  114MOL0     H15330   7.642   8.978   7.011  0.4005 -1.1845 -2.4791
  114MOL0     H15331   7.557   8.745   7.036  0.9163  2.5437  1.5377
  114MOL0     H15332   7.413   8.793   6.956 -0.4966 -0.2262  3.2802
  114MOL0     H15333   7.567   8.893   6.772  0.8332  0.8871  1.7673
  114MOL0     H15334   7.689   8.790   6.847 -0.2377 -0.6419  1.2953
  114MOL0     H15335   7.533   8.594   6.764 -1.0118 -2.5635 -2.6991
  114MOL0     H15336   7.421   8.727   6.718  0.1015 -0.1712  2.6784
  114MOL0     H15337   7.539   8.631   6.510  1.1140  1.0747 -1.0108
  114MOL0     H15338   7.589   8.788   6.526  1.7981 -0.9891 -0.8930
  114MOL0     H15339   7.770   8.592   6.683  1.3492 -3.6435 -2.5016
  114MOL0     H15340   7.804   8.723   6.567 -1.2612  1.1284  1.5974
  114MOL0     H15341   7.726   8.349   6.561 -0.2583  1.3061  0.6480
  114MOL0     H15342   7.694   8.160   6.365  1.7672  1.1407  1.0144
  114MOL0     H15343   7.633   8.240   6.225  0.6342  1.7786 -0.5190
  114MOL0     H15344   7.932   8.189   6.263  0.9115 -0.3167 -1.9810
  114MOL0     H15345   7.849   8.207   6.113  0.2390 -0.7499 -0.8365
  114MOL0     H15346   7.723   7.984   6.174 -0.8821  2.4929 -0.9594
  114MOL0     H15347   7.839   7.977   6.312  2.8348 -0.8226  0.1406
  114MOL0     H15348   8.023   8.000   6.133 -0.8577  0.5985  0.4115
  114MOL0     H15349   7.888   7.995   6.008  1.7347  1.4591  0.0166
  114MOL0     H15350   7.914   7.567   6.047  0.9110 -1.0749  0.8251
  114MOL0     H15351   7.965   7.401   5.745  1.2928 -1.2777 -1.0053
  114MOL0     H15352   8.096   7.366   5.860  0.7101  1.7944  0.0397
  114MOL0     H15353   7.922   7.374   5.920 -0.5411  2.2286  0.2164
  114MOL0     H15354   8.102   7.646   5.269  1.8406 -0.2652 -0.8033
  114MOL0     H15355   8.230   7.556   5.103  0.0671  3.0987  0.2000
  114MOL0     H15356   8.451   7.649   5.011 -0.4035  0.1622  0.6503
  114MOL0     H15357   8.563   7.662   5.144 -2.4604  0.4865  0.2550
  114MOL0     H15358   8.585   7.506   4.882  0.9296 -2.6703  0.7216
  114MOL0     H15359   8.690   7.650   4.925 -1.6607  0.9349  0.6780
  114MOL0     H15360   8.744   7.398   5.094  1.1326  0.3913  0.9069
  114MOL0     H15361   8.834   7.537   5.061  0.9805 -0.1726 -2.4349
  114MOL0     H15362   8.765   7.327   4.848 -0.4561  2.2612 -1.5385
  114MOL0     H15363   8.853   7.469   4.817 -0.8257 -1.2829 -2.4518
  114MOL0     H15364   8.961   7.261   5.034  1.6126  0.4788  0.3341
  114MOL0     H15365   9.058   7.385   4.960  1.7347 -1.6905  0.9445
  114MOL0     H15366   8.940   7.173   4.802  1.3325 -0.8009 -1.2201
  114MOL0     H15367   9.060   7.277   4.742  1.1881 -0.7096  0.4829
  114MOL0     H15368   9.078   7.079   4.962  3.3319 -4.0255  0.3690
  114MOL0     H15369   9.221   7.184   4.921 -0.1364  0.2490  0.6314
  114MOL0     H15370   9.105   6.977   4.732 -1.3218  0.8607 -0.9237
  114MOL0     H15371   9.273   6.982   4.810  2.0896  2.5950 -2.5209
  114MOL0     H15372   8.556   7.479   5.372  0.0850 -0.0928  2.1604
  114MOL0     H15373   8.427   7.592   5.557 -2.0723  2.6323  1.4560
  114MOL0     H15374   8.151   7.836   5.697 -2.6730 -1.3839 -4.0665
  114MOL0     H15375   8.092   7.940   5.921 -1.1023  1.8183 -1.3877
  114MOL0     H15376   7.020   9.161   7.250  1.7887  1.0660  2.6023
  114MOL0     H15377   6.798   9.068   7.308 -0.2702  0.7914 -4.0043
  114MOL0     H15378   6.622   8.708   7.573  1.2027 -2.3046 -0.6673
  114MOL0     H15379   6.394   8.662   7.659 -0.8236 -2.6985 -0.7166
  114MOL0     H15380   6.227   8.481   7.596 -0.0150 -0.5089  0.6397
  114MOL0     H15381   6.143   8.590   7.705  2.1741  0.5251  0.1768
  114MOL0     H15382   6.007   8.474   7.467 -2.7880 -1.3732 -0.2309
  114MOL0     H15383   5.929   8.569   7.589  0.2722 -0.5252 -0.4546
  114MOL0     H15384   6.065   8.293   7.657 -0.8507 -0.8943 -1.0960
  114MOL0     H15385   5.896   8.315   7.641 -1.5904  1.3889  2.3007
  114MOL0     H15386   6.037   8.461   7.852  1.8127 -3.0734  0.7644
  114MOL0     H15387   5.922   8.324   7.875  0.8429 -0.1504  0.2802
  114MOL0     H15388   5.693   8.685   7.831  0.9475  1.4417 -0.1634
  114MOL0     H15389   6.239   8.729   7.256  0.5464 -1.7981 -1.2368
  114MOL0     H15390   6.470   8.777   7.182  2.9181  2.0321  1.1626
  115MOL0     O15391   9.165   4.297   3.106 -0.7275  0.0517  0.4798
  115MOL0     C15392   9.228   4.403   3.097  0.4840 -0.0218 -0.4509
  115MOL0     O15393   9.216   4.491   2.994 -0.2060  0.5351 -0.6287
  115MOL0     C15394   9.173   4.437   2.874  0.0065 -0.7002 -0.0428
  115MOL0     C15395   9.265   4.406   2.783 -0.3491  0.0643 -0.5516
  115MOL0     C15396   9.230   4.355   2.663  0.0964 -0.6340 -1.1242
  115MOL0     C15397   9.102   4.327   2.625  0.3382 -0.4707 -0.2673
  115MOL0     O15398   9.073   4.288   2.503 -0.3698  0.5249 -0.7009
  115MOL0     C15399   8.933   4.311   2.456 -0.4551 -0.0219  0.8822
  115MOL0     C15400   8.960   4.307   2.300 -0.2214 -0.5155 -0.1720
  115MOL0     C15401   8.830   4.300   2.217  0.4238  0.7524  0.0038
  115MOL0     C15402   8.739   4.421   2.240  0.4161 -0.3561  0.0974
  115MOL0     C15403   8.641   4.412   2.125 -0.0256  1.3535 -0.0834
  115MOL0     C15404   8.596   4.548   2.087  0.8317  0.7461  0.1539
  115MOL0     C15405   8.488   4.551   1.979 -0.0141  0.8664 -0.9485
  115MOL0     C15406   8.449   4.694   1.926  0.0380 -0.0423  0.3127
  115MOL0     N15407   8.362   4.774   2.022 -0.0407 -0.1036  0.0910
  115MOL0     C15408   8.232   4.813   2.002  0.3401 -0.7845 -0.6286
  115MOL0     C15409   8.201   4.903   2.103 -0.3316  0.2031 -0.8174
  115MOL0     C15410   8.066   4.950   2.140 -0.1424 -0.6947 -0.1163
  115MOL0     C15411   8.051   5.108   2.178 -0.9289  0.7195 -0.4552
  115MOL0     C15412   8.084   5.191   2.046  0.0568  0.0973  0.1523
  115MOL0     C15413   8.087   5.346   2.071  0.0470  0.2191  0.7392
  115MOL0     O15414   7.951   5.386   2.088 -0.9326 -0.3743  0.1756
  115MOL0     C15415   7.919   5.521   2.102 -0.7853 -0.2278  0.6890
  115MOL0     C15416   7.996   5.622   2.157  0.5446  0.3011 -0.4540
  115MOL0     C15417   7.932   5.739   2.204  0.0208 -0.5494  0.5077
  115MOL0     C15418   8.018   5.837   2.293  0.5081 -0.2584 -0.0269
  115MOL0     C15419   7.797   5.768   2.173 -0.5724  0.2552 -0.3685
  115MOL0     C15420   7.736   5.896   2.222  0.3022  0.3760  0.5112
  115MOL0     O15421   7.617   5.869   2.282 -0.2871  0.2383 -0.1105
  115MOL0     C15422   7.544   5.968   2.341  0.3743 -0.3028 -0.3149
  115MOL0     C15423   7.587   6.094   2.375 -0.8082  0.3337 -0.8079
  115MOL0     C15424   7.495   6.191   2.427 -0.1331 -0.3001  1.4178
  115MOL0     C15425   7.364   6.154   2.454 -0.6562  0.3445 -0.9504
  115MOL0     O15426   7.286   6.232   2.536 -0.0726  0.2978  0.3715
  115MOL0     C15427   7.140   6.206   2.548  0.0070 -0.6189 -0.2200
  115MOL0     C15428   7.078   6.300   2.653 -0.3775 -0.1898  0.0601
  115MOL0     C15429   6.923   6.311   2.632  0.1104  0.2011  0.0626
  115MOL0     C15430   6.857   6.373   2.759  0.2419 -0.0064 -0.0098
  115MOL0     C15431   6.879   6.521   2.755 -0.0067  0.7484  0.0590
  115MOL0     C15432   6.789   6.581   2.852  0.0208  0.1518  0.1031
  115MOL0     C15433   6.845   6.703   2.899  0.4260 -0.2113  0.9391
  115MOL0     C15434   6.797   6.823   2.804  0.4432 -1.1597 -0.0975
  115MOL0    Cl15435   6.632   6.868   2.855  0.6790  0.7301  0.3337
  115MOL0     C15436   7.325   6.025   2.425  0.4158  0.5232  0.1613
  115MOL0     C15437   7.415   5.927   2.368  0.8313  0.3685 -0.1306
  115MOL0     O15438   7.781   6.002   2.183  0.3475  0.1756 -0.0038
  115MOL0     C15439   7.729   5.680   2.094 -0.4040  1.2959  0.7509
  115MOL0     C15440   7.794   5.555   2.064  0.2096 -0.3161  0.1245
  115MOL0     N15441   8.322   4.919   2.177 -0.4588  0.5229 -0.1072
  115MOL0     N15442   8.421   4.848   2.125  0.3126 -0.6897 -1.3498
  115MOL0     C15443   9.001   4.360   2.723  0.6850 -0.8863 -0.9939
  115MOL0     C15444   9.037   4.429   2.843  0.0473 -0.6226  0.7500
  115MOL0     C15445   9.324   4.434   3.207 -0.2391 -0.7368  0.9185
  115MOL0     C15446   9.433   4.519   3.174  0.1232  0.0128 -0.3861
  115MOL0     C15447   9.528   4.545   3.267 -0.6468 -0.2138 -1.3234
  115MOL0     C15448   9.513   4.499   3.397 -0.2031  0.1827  0.6540
  115MOL0     O15449   9.614   4.536   3.481 -0.7775  0.3244 -0.1909
  115MOL0     C15450   9.578   4.551   3.614  0.5746  1.1899 -0.1411
  115MOL0     C15451   9.478   4.673   3.639 -0.4783  0.1338  0.6176
  115MOL0     C15452   9.414   4.649   3.771  0.4521  0.1116 -0.3261
  115MOL0     C15453   9.292   4.741   3.796  0.4204 -0.5634  0.4324
  115MOL0     C15454   9.327   4.882   3.790 -0.3235 -0.4340  0.0835
  115MOL0     C15455   9.380   4.991   3.797 -0.3768  0.4614 -0.4099
  115MOL0     C15456   9.402   4.417   3.427 -1.5093  0.2333 -0.8042
  115MOL0     C15457   9.313   4.381   3.327 -0.4935  0.1452 -0.5983
  115MOL0     H15458   9.367   4.424   2.815  0.3510  1.3720 -3.2732
  115MOL0     H15459   9.319   4.348   2.601 -0.3495  0.3899 -1.9054
  115MOL0     H15460   8.855   4.245   2.494 -0.1751 -0.5129  0.6208
  115MOL0     H15461   8.910   4.413   2.489 -1.3844 -0.3176  1.1753
  115MOL0     H15462   9.015   4.398   2.275  2.1001 -0.9163  2.9223
  115MOL0     H15463   9.027   4.224   2.276 -0.3402 -1.9511  3.6900
  115MOL0     H15464   8.870   4.305   2.116  1.8559 -0.5190  0.4652
  115MOL0     H15465   8.776   4.207   2.233  2.2897 -0.5919 -1.0711
  115MOL0     H15466   8.691   4.434   2.337 -3.8076  2.5051 -2.0777
  115MOL0     H15467   8.807   4.506   2.228 -1.5356  0.9426 -2.8003
  115MOL0     H15468   8.700   4.375   2.041  1.2154  2.9722  0.0252
  115MOL0     H15469   8.567   4.335   2.153 -0.3399  1.1564 -1.4006
  115MOL0     H15470   8.560   4.597   2.177  1.4892 -0.0685  0.8736
  115MOL0     H15471   8.685   4.598   2.045  0.1605  2.3867  0.6152
  115MOL0     H15472   8.524   4.499   1.889  1.1767 -2.2620  1.1605
  115MOL0     H15473   8.403   4.490   2.010  0.6643  0.7199  0.6772
  115MOL0     H15474   8.402   4.696   1.828 -1.5707 -2.4814  0.9485
  115MOL0     H15475   8.542   4.752   1.921 -1.7878  3.0604 -0.3257
  115MOL0     H15476   8.161   4.774   1.930  0.2503 -0.6287 -0.6273
  115MOL0     H15477   8.006   4.933   2.050 -3.2030  5.2927  0.3130
  115MOL0     H15478   8.036   4.891   2.227 -0.5116 -0.8443 -0.3401
  115MOL0     H15479   8.127   5.118   2.256 -1.4565 -3.8731  0.9752
  115MOL0     H15480   7.953   5.133   2.220 -3.1457 -1.1653 -3.9518
  115MOL0     H15481   8.008   5.166   1.971 -0.7066  0.4654  0.7925
  115MOL0     H15482   8.182   5.167   2.004  0.8617 -0.5401  2.3041
  115MOL0     H15483   8.130   5.395   1.983  2.1491 -1.2029  0.8911
  115MOL0     H15484   8.154   5.382   2.150  0.2700  2.0261 -0.2130
  115MOL0     H15485   8.100   5.605   2.183  0.4050  1.0403  0.6272
  115MOL0     H15486   8.100   5.784   2.344  3.1316  1.7119 -1.9234
  115MOL0     H15487   8.065   5.902   2.219 -0.2389  0.1053 -0.1876
  115MOL0     H15488   7.962   5.902   2.361 -1.1627 -0.9811 -0.6509
  115MOL0     H15489   7.693   6.118   2.365 -0.3054 -2.3757 -3.1396
  115MOL0     H15490   7.530   6.292   2.446  0.2547 -0.3759  1.1319
  115MOL0     H15491   7.094   6.231   2.452 -0.6549  2.5645  0.8224
  115MOL0     H15492   7.103   6.111   2.588  2.2639  0.0575  4.0225
  115MOL0     H15493   7.106   6.268   2.754  3.0040  0.8938 -0.4216
  115MOL0     H15494   7.117   6.401   2.637  2.9154 -1.3795 -0.1009
  115MOL0     H15495   6.882   6.209   2.632 -1.7691  0.9105 -0.6118
  115MOL0     H15496   6.915   6.362   2.535  1.4027 -0.8046 -0.5965
  115MOL0     H15497   6.755   6.334   2.757  0.7223 -1.2808 -1.0985
  115MOL0     H15498   6.913   6.331   2.844 -1.1484 -0.2461  0.8177
  115MOL0     H15499   6.864   6.557   2.653  1.5496 -2.9005 -1.6089
  115MOL0     H15500   6.982   6.536   2.788  1.4132 -0.1603 -3.5326
  115MOL0     H15501   6.685   6.594   2.820 -0.3557 -1.5355  0.5200
  115MOL0     H15502   6.783   6.510   2.935  1.0520 -2.0639 -1.5869
  115MOL0     H15503   6.953   6.715   2.886 -0.0632  1.3538 -3.3304
  115MOL0     H15504   6.817   6.725   3.002  0.9332 -2.0890  1.5163
  115MOL0     H15505   6.784   6.808   2.696 -1.3244  0.0165 -0.0850
  115MOL0     H15506   6.853   6.917   2.813  1.9082 -1.7442 -2.2536
  115MOL0     H15507   7.220   6.000   2.436  0.6014 -0.2526  0.2158
  115MOL0     H15508   7.363   5.833   2.346 -1.4731  0.1089  4.8791
  115MOL0     H15509   7.626   5.695   2.062 -0.8925 -0.3007  1.4356
  115MOL0     H15510   7.749   5.469   2.017  2.2800 -0.3844 -1.9234
  115MOL0     H15511   8.896   4.346   2.702  0.5708 -0.1923 -0.9030
  115MOL0     H15512   8.955   4.452   2.911  0.7403  1.0843  1.0571
  115MOL0     H15513   9.437   4.571   3.080 -1.8698  0.4798 -0.2514
  115MOL0     H15514   9.625   4.587   3.240 -0.9642  1.8536  0.3980
  115MOL0     H15515   9.532   4.459   3.653  1.0183  0.4053 -1.3828
  115MOL0     H15516   9.676   4.571   3.659  0.1955  0.7073  0.9433
  115MOL0     H15517   9.403   4.683   3.560  0.0581  0.1316  0.1000
  115MOL0     H15518   9.547   4.758   3.643  0.2777 -0.5101  1.8302
  115MOL0     H15519   9.490   4.687   3.840  0.2270  0.0960 -0.0666
  115MOL0     H15520   9.392   4.544   3.791 -0.1733  0.3164  0.0769
  115MOL0     H15521   9.246   4.713   3.891 -0.2656  1.4619  0.7515
  115MOL0     H15522   9.218   4.716   3.719 -0.6438  0.5825  1.0565
  115MOL0     H15523   9.438   5.079   3.816  0.4272  0.9614 -4.2496
  115MOL0     H15524   9.395   4.387   3.531  3.1210  1.5397  0.0957
  115MOL0     H15525   9.242   4.300   3.341 -1.2074  1.1787  2.5146
  116MOL0     O15526  10.701   9.820  10.971 -0.0739  0.5366 -0.6065
  116MOL0     C15527  10.699   9.697  10.992  0.4713  0.0878  0.0507
  116MOL0     O15528  10.590   9.625  11.047 -0.1622  0.2324  0.7165
  116MOL0     C15529  10.473   9.689  11.067 -0.1134  0.7177  0.2714
  116MOL0     C15530  10.425   9.682  11.204 -0.4336 -0.6500  0.0472
  116MOL0     C15531  10.312   9.746  11.241  0.2145  0.7735  0.6939
  116MOL0     C15532  10.237   9.805  11.140 -0.2028  0.4822  0.5307
  116MOL0     O15533  10.121   9.869  11.179  0.3161 -0.7285 -0.4185
  116MOL0     C15534  10.014   9.905  11.081 -0.1929 -0.0216  0.9748
  116MOL0     C15535   9.878   9.940  11.152 -0.1171  1.3119  0.0984
  116MOL0     C15536   9.779   9.940  11.037  0.5768  0.3759 -0.3902
  116MOL0     C15537   9.637   9.959  11.076  1.5117  0.3081  0.2548
  116MOL0     C15538   9.570  10.047  10.960 -0.0872 -0.4655 -0.4205
  116MOL0     C15539   9.426  10.074  10.996  0.4253 -0.6872  0.7413
  116MOL0     C15540   9.379  10.199  10.931  0.4298  0.3350 -0.0284
  116MOL0     C15541   9.241  10.238  10.991  0.2308 -0.6929 -0.3552
  116MOL0     N15542   9.187  10.362  10.946  0.0987  0.0113  0.4070
  116MOL0     C15543   9.211  10.485  11.005  0.5835  0.8290 -0.5882
  116MOL0     C15544   9.100  10.549  10.972 -0.7465  0.6118  0.2987
  116MOL0     C15545   9.055  10.687  11.027 -0.3883  0.0247 -0.7444
  116MOL0     C15546   9.052  10.793  10.914  1.2395  0.3283 -0.2746
  116MOL0     C15547   9.048  10.937  10.978  0.6053 -0.0149  0.2574
  116MOL0     C15548   9.078  11.033  10.872 -0.0098  0.5213 -0.6439
  116MOL0     O15549   9.216  11.042  10.845  0.8938 -0.3488  0.1403
  116MOL0     C15550   9.267  11.028  10.720 -0.5449  0.5920  0.0209
  116MOL0     C15551   9.400  11.045  10.711 -0.5539  0.3072 -0.3188
  116MOL0     C15552   9.473  11.040  10.586  0.7018 -0.3376  0.2386
  116MOL0     C15553   9.624  11.043  10.593  0.0565  0.5779 -0.0714
  116MOL0     C15554   9.400  11.048  10.463  0.2623  0.5751 -0.1028
  116MOL0     C15555   9.458  11.073  10.324 -0.0020  0.2574  0.8024
  116MOL0     O15556   9.377  11.066  10.205 -0.0053  0.7112  0.6883
  116MOL0     C15557   9.454  11.075  10.089 -0.0012  0.7612 -0.0312
  116MOL0     C15558   9.524  10.964  10.039  0.2656 -0.3053  0.0185
  116MOL0     C15559   9.593  10.973   9.924 -0.4378 -0.6739  1.5046
  116MOL0     C15560   9.606  11.096   9.858  0.0984  0.6548  0.4526
  116MOL0     O15561   9.696  11.095   9.745  1.0422  0.7748 -0.1640
  116MOL0     C15562   9.735  11.217   9.680  0.6904  0.0522  0.3061
  116MOL0     C15563   9.782  11.196   9.531 -0.1914  0.0619 -0.3786
  116MOL0     C15564   9.927  11.148   9.523  0.2778 -0.2587  0.2447
  116MOL0     C15565   9.976  11.165   9.382 -1.1429  0.7767  0.3076
  116MOL0     C15566  10.122  11.113   9.366  1.0164 -0.0117 -0.0065
  116MOL0     C15567  10.171  11.114   9.227  0.6507  0.2528 -0.5741
  116MOL0     C15568  10.105  11.017   9.139  0.3775  0.1480  0.3850
  116MOL0     C15569  10.142  10.869   9.171  0.5401  0.5286  0.4841
  116MOL0    Cl15570  10.297  10.845   9.101  0.6988  0.2016  0.3682
  116MOL0     C15571   9.537  11.209   9.908  0.9142  0.7376  0.3872
  116MOL0     C15572   9.459  11.198  10.021 -0.0117  0.2724  0.3736
  116MOL0     O15573   9.573  11.112  10.319 -1.1268  0.1637 -0.6424
  116MOL0     C15574   9.261  11.033  10.473 -0.0029  0.5465  1.1970
  116MOL0     C15575   9.198  11.026  10.599 -0.7136  0.3754  1.0399
  116MOL0     N15576   9.012  10.473  10.892  0.8389  0.9681 -0.5282
  116MOL0     N15577   9.065  10.358  10.873 -0.4042 -0.0509  0.2405
  116MOL0     C15578  10.268   9.789  11.003  0.4055 -0.4103  0.1245
  116MOL0     C15579  10.385   9.731  10.964 -0.3261 -0.1379  0.8769
  116MOL0     C15580  10.819   9.624  10.961 -0.2504 -0.2467 -0.1949
  116MOL0     C15581  10.929   9.671  10.877 -0.7477 -0.6998 -0.4247
  116MOL0     C15582  11.051   9.604  10.856  0.1453 -0.8122 -0.9501
  116MOL0     C15583  11.064   9.481  10.908 -0.1237  1.1205 -0.3585
  116MOL0     O15584  11.164   9.390  10.884 -0.1520  0.0272  0.2764
  116MOL0     C15585  11.272   9.418  10.786  0.6990 -0.5991  0.4515
  116MOL0     C15586  11.317   9.283  10.717 -0.2459 -0.1773  1.0072
  116MOL0     C15587  11.336   9.174  10.829  0.7952 -0.2063  0.0184
  116MOL0     C15588  11.352   9.030  10.772  0.4073 -0.8432  0.3505
  116MOL0     C15589  11.253   8.976  10.668  0.2610  0.1218  0.2019
  116MOL0     C15590  11.173   8.949  10.585  0.3304  0.3554 -0.4177
  116MOL0     C15591  10.955   9.420  10.980 -0.5745  0.6064  0.4666
  116MOL0     C15592  10.836   9.496  11.008 -0.0232 -0.7009  1.2095
  116MOL0     H15593  10.482   9.615  11.268 -0.3964  0.2254  0.9510
  116MOL0     H15594  10.278   9.742  11.344 -3.0799  0.0166 -0.3045
  116MOL0     H15595  10.051   9.992  11.025  1.3162 -0.9031  0.5572
  116MOL0     H15596   9.979   9.812  11.037 -1.0944 -2.3890  5.9873
  116MOL0     H15597   9.850   9.864  11.226 -2.2572  4.1945  2.4826
  116MOL0     H15598   9.884  10.039  11.196  2.1718  1.8294 -1.2300
  116MOL0     H15599   9.800  10.021  10.966 -1.1207 -0.5399 -2.0275
  116MOL0     H15600   9.775   9.842  10.990 -0.1897 -0.7824  1.9157
  116MOL0     H15601   9.587   9.862  11.077  5.4278 -1.9942 -2.1350
  116MOL0     H15602   9.624  10.021  11.166 -0.2934  4.1376 -2.3644
  116MOL0     H15603   9.631  10.137  10.953  3.5786 -2.3581  2.9341
  116MOL0     H15604   9.571   9.998  10.862  0.6399 -0.6236 -0.3427
  116MOL0     H15605   9.362   9.993  10.958 -0.2385 -0.6584  1.7512
  116MOL0     H15606   9.414  10.075  11.105  0.6473  1.7850  0.7903
  116MOL0     H15607   9.459  10.273  10.945  3.1573 -2.3569 -0.2942
  116MOL0     H15608   9.366  10.167  10.828 -0.3399 -2.9246  0.9408
  116MOL0     H15609   9.244  10.257  11.099 -2.9235  1.6295 -0.5425
  116MOL0     H15610   9.171  10.154  10.979  1.4906 -1.7890 -0.3276
  116MOL0     H15611   9.294  10.523  11.064  0.1964  1.0608 -0.1851
  116MOL0     H15612   8.964  10.675  11.086  1.4358 -3.1499  1.7164
  116MOL0     H15613   9.139  10.713  11.093  0.3914  2.3314 -2.4952
  116MOL0     H15614   8.954  10.766  10.872  1.5797 -4.2939  1.3552
  116MOL0     H15615   9.134  10.780  10.843 -1.1700 -0.9171 -3.0721
  116MOL0     H15616   9.122  10.939  11.058  2.9610 -0.7761 -1.7743
  116MOL0     H15617   8.948  10.963  11.015  0.8662 -0.4398  1.2996
  116MOL0     H15618   9.042  11.129  10.908 -4.0495 -0.0223 -2.6358
  116MOL0     H15619   9.012  11.000  10.791 -2.4180 -1.3048  1.8789
  116MOL0     H15620   9.454  11.028  10.803 -1.9955  0.4322  0.5828
  116MOL0     H15621   9.653  10.950  10.543  0.0297  0.9075 -0.7182
  116MOL0     H15622   9.674  11.129  10.549 -1.2033  0.4556 -1.8869
  116MOL0     H15623   9.661  11.022  10.694 -2.0743 -0.6276  0.5297
  116MOL0     H15624   9.527  10.874  10.100  1.3776 -1.4880 -1.6996
  116MOL0     H15625   9.639  10.889   9.872  0.0032  1.7110 -2.3430
  116MOL0     H15626   9.641  11.271   9.661  1.1782  0.1761 -2.1775
  116MOL0     H15627   9.803  11.283   9.735  3.4644 -3.5820  1.5899
  116MOL0     H15628   9.716  11.124   9.483 -0.8430  0.3600  0.0566
  116MOL0     H15629   9.762  11.292   9.482 -2.7817  0.3324  1.0548
  116MOL0     H15630   9.927  11.041   9.545  1.4284  0.0206  1.7923
  116MOL0     H15631   9.991  11.205   9.591  1.4348 -1.9886  0.6643
  116MOL0     H15632   9.906  11.108   9.320  0.0389  0.0944 -0.4238
  116MOL0     H15633   9.972  11.272   9.360 -2.5055  0.8272  0.7093
  116MOL0     H15634  10.127  11.013   9.409 -2.0188 -0.2587 -0.0049
  116MOL0     H15635  10.190  11.178   9.421  2.5627 -1.4397 -0.1502
  116MOL0     H15636  10.159  11.217   9.193  0.9723  0.5571  0.2064
  116MOL0     H15637  10.277  11.089   9.220  0.7759  0.9187 -1.0690
  116MOL0     H15638  10.133  11.027   9.033 -2.0137  0.2104 -0.2967
  116MOL0     H15639   9.998  11.034   9.152  0.7518  0.7019  3.3698
  116MOL0     H15640  10.060  10.809   9.130  0.6175 -1.6458  3.1651
  116MOL0     H15641  10.159  10.849   9.278 -3.2404 -0.9925  0.9740
  116MOL0     H15642   9.531  11.299   9.848  2.3930 -0.7688 -2.2005
  116MOL0     H15643   9.398  11.267  10.078 -1.1193  0.6852 -1.2558
  116MOL0     H15644   9.211  11.026  10.376  1.2860 -0.1479  0.5521
  116MOL0     H15645   9.090  11.023  10.591 -0.7377  0.0497  1.4148
  116MOL0     H15646  10.218   9.832  10.916 -2.5856 -0.0285  1.8805
  116MOL0     H15647  10.413   9.719  10.860 -2.1452 -3.4644  0.6361
  116MOL0     H15648  10.912   9.766  10.827 -0.4587 -0.8651 -0.8436
  116MOL0     H15649  11.147   9.643  10.824  0.6863 -1.6146 -0.3542
  116MOL0     H15650  11.238   9.492  10.713  2.7044  1.2506  1.2819
  116MOL0     H15651  11.363   9.452  10.836  0.3026 -1.3157  1.7195
  116MOL0     H15652  11.409   9.298  10.661 -1.6384  0.0893 -1.3271
  116MOL0     H15653  11.248   9.262  10.635 -1.2395  0.6688  1.5965
  116MOL0     H15654  11.255   9.166  10.902  0.8336  0.9847  0.2051
  116MOL0     H15655  11.414   9.202  10.900 -1.5428  3.5691  1.3798
  116MOL0     H15656  11.330   8.953  10.847  0.1987 -3.0740 -1.8793
  116MOL0     H15657  11.453   9.014  10.732 -0.0523  2.6815 -2.6398
  116MOL0     H15658  11.102   8.945  10.505  0.8040 -5.1335 -0.9131
  116MOL0     H15659  10.962   9.318  11.017  3.0838  0.1889 -0.9833
  116MOL0     H15660  10.755   9.469  11.074  0.2382 -1.6300  1.1534
  117MOL0     O15661   5.280  10.009   6.983  0.4108 -0.9056 -0.3347
  117MOL0     C15662   5.199   9.931   7.029 -0.5750  0.6286 -0.2624
  117MOL0     O15663   5.185   9.902   7.155  0.0177  0.9508 -0.5316
  117MOL0     C15664   5.284   9.948   7.240  0.2056  0.2968  0.0923
  117MOL0     C15665   5.411   9.893   7.234  0.5879 -0.1050  0.0941
  117MOL0     C15666   5.499   9.936   7.327 -0.2173  0.0755  0.0794
  117MOL0     C15667   5.473  10.032   7.419  0.3437 -0.1322  0.9287
  117MOL0     O15668   5.579  10.062   7.491  0.3919  0.5676  0.0159
  117MOL0     C15669   5.565  10.147   7.607  0.2926 -0.3646 -0.2148
  117MOL0     C15670   5.552  10.301   7.581  0.9068 -0.2268  0.3610
  117MOL0     C15671   5.566  10.386   7.710  0.5584 -0.6672  0.5872
  117MOL0     C15672   5.521  10.530   7.679  0.3077 -0.0104 -0.4178
  117MOL0     C15673   5.558  10.633   7.787 -0.1264  0.6322  0.4188
  117MOL0     C15674   5.488  10.773   7.760  0.6548 -0.2418  0.3618
  117MOL0     C15675   5.506  10.877   7.878  0.3152  0.4680  0.4439
  117MOL0     C15676   5.459  11.022   7.840 -1.0485  0.5628 -1.1906
  117MOL0     N15677   5.313  11.029   7.850  0.5275 -0.0492  0.3099
  117MOL0     C15678   5.222  10.966   7.767 -0.0362 -0.5641  0.8259
  117MOL0     C15679   5.097  10.990   7.829  0.4643  0.7930  0.1734
  117MOL0     C15680   4.961  10.933   7.789  0.1228 -0.0070  0.0955
  117MOL0     C15681   4.920  10.970   7.645  0.7553  0.7899  0.0602
  117MOL0     C15682   4.936  11.115   7.603  0.4237 -0.4763  0.5775
  117MOL0     C15683   4.820  11.205   7.655 -0.2541 -0.5007  0.0013
  117MOL0     O15684   4.692  11.142   7.630  0.6954 -0.6183  0.1325
  117MOL0     C15685   4.574  11.199   7.675  0.5074 -0.3351 -0.4115
  117MOL0     C15686   4.452  11.197   7.611  0.4166  0.1668  0.1718
  117MOL0     C15687   4.325  11.254   7.652  0.0490 -0.5227  0.8648
  117MOL0     C15688   4.202  11.244   7.561  0.7880  1.1183  0.5490
  117MOL0     C15689   4.339  11.332   7.767  0.2933  0.3088  0.3402
  117MOL0     C15690   4.220  11.405   7.827  0.2506 -0.1060  0.1558
  117MOL0     O15691   4.235  11.460   7.956 -0.4146  0.8248 -0.0036
  117MOL0     C15692   4.115  11.469   8.016  0.4169 -1.0271  0.7977
  117MOL0     C15693   4.055  11.365   8.079  0.3604  0.2249  0.1871
  117MOL0     C15694   3.926  11.382   8.147  0.3532 -0.5694 -0.2454
  117MOL0     C15695   3.879  11.510   8.162  0.4408  0.0538 -0.1948
  117MOL0     O15696   3.773  11.534   8.249  0.2332  0.1757  0.2869
  117MOL0     C15697   3.681  11.436   8.282  0.3345  0.2088 -0.9710
  117MOL0     C15698   3.716  11.357   8.418 -0.6680 -0.3088  0.3714
  117MOL0     C15699   3.717  11.448   8.536  0.2360 -0.0195  0.2084
  117MOL0     C15700   3.735  11.373   8.664  0.3497  0.3252 -0.8958
  117MOL0     C15701   3.685  11.451   8.782  0.2328  0.3785 -1.1030
  117MOL0     C15702   3.772  11.580   8.824  0.2827 -0.2711 -0.1035
  117MOL0     C15703   3.715  11.650   8.950  0.2098  0.6403  0.2059
  117MOL0     C15704   3.613  11.744   8.898 -0.4034 -0.9274 -1.1596
  117MOL0    Cl15705   3.540  11.841   9.035  0.4215 -0.3718 -0.0335
  117MOL0     C15706   3.935  11.613   8.086 -1.3635  0.6771  0.7265
  117MOL0     C15707   4.056  11.595   8.013  0.6492 -0.3169  0.6863
  117MOL0     O15708   4.123  11.439   7.755  0.3269  0.8360  0.2757
  117MOL0     C15709   4.458  11.339   7.836 -0.1828  0.4192  0.1335
  117MOL0     C15710   4.566  11.269   7.798 -0.6736 -0.4909  0.1004
  117MOL0     N15711   5.118  11.069   7.936  0.1403  0.3117 -0.8622
  117MOL0     N15712   5.242  11.093   7.944 -0.2091  0.1294 -0.4380
  117MOL0     C15713   5.359  10.101   7.409 -0.6674  0.3338  0.0995
  117MOL0     C15714   5.256  10.059   7.324 -0.4792  1.4103 -0.1336
  117MOL0     C15715   5.114   9.859   6.927  0.6876 -0.8745 -0.4841
  117MOL0     C15716   4.975   9.830   6.955  0.5823 -0.1756  0.5628
  117MOL0     C15717   4.902   9.757   6.859 -0.8737  1.6092 -0.9929
  117MOL0     C15718   4.953   9.711   6.739 -0.1103  0.1331 -0.6960
  117MOL0     O15719   4.877   9.624   6.664  0.1849  0.7776  0.3101
  117MOL0     C15720   4.931   9.568   6.547 -0.9315 -0.7426 -0.0489
  117MOL0     C15721   4.815   9.537   6.455 -0.5167  0.1521 -0.3199
  117MOL0     C15722   4.855   9.470   6.317  0.4247  0.3851 -0.6691
  117MOL0     C15723   4.902   9.572   6.215 -0.2463  0.2189 -0.7591
  117MOL0     C15724   4.956   9.499   6.100  0.4851 -0.8317  0.4158
  117MOL0     C15725   4.979   9.446   5.989 -0.7605  0.3996 -0.3581
  117MOL0     C15726   5.082   9.754   6.713 -0.3961  0.4074  0.0459
  117MOL0     C15727   5.165   9.820   6.800  0.3194  0.1454  0.3378
  117MOL0     H15728   5.441   9.827   7.154 -1.8159  0.4697 -1.3962
  117MOL0     H15729   5.594   9.884   7.320 -1.0540 -1.3614 -1.3390
  117MOL0     H15730   5.471  10.127   7.659  0.4883  3.3134  1.8789
  117MOL0     H15731   5.650  10.120   7.670  0.9338  0.9433 -0.4683
  117MOL0     H15732   5.628  10.331   7.507  1.2903 -1.1336  0.3733
  117MOL0     H15733   5.461  10.330   7.528  1.1331 -1.2867 -0.6504
  117MOL0     H15734   5.507  10.347   7.793  0.9781 -4.0498 -0.5426
  117MOL0     H15735   5.670  10.392   7.745 -0.2263  0.2382  2.9163
  117MOL0     H15736   5.552  10.555   7.577  1.1396 -0.4854 -0.2870
  117MOL0     H15737   5.412  10.521   7.681  0.1663  0.6001  3.6330
  117MOL0     H15738   5.533  10.592   7.885  0.4565  0.6088  0.5593
  117MOL0     H15739   5.666  10.650   7.789 -0.2530  1.4846  0.3855
  117MOL0     H15740   5.511  10.823   7.665 -2.0251 -2.3135 -1.5412
  117MOL0     H15741   5.382  10.748   7.744  0.6697  1.2239 -2.9127
  117MOL0     H15742   5.452  10.838   7.965  1.4656 -1.0467  0.5102
  117MOL0     H15743   5.613  10.890   7.894  0.7906 -1.2870 -0.9742
  117MOL0     H15744   5.491  11.059   7.742 -1.1308  0.1653 -1.3696
  117MOL0     H15745   5.504  11.091   7.913 -0.3210  0.7762 -1.8272
  117MOL0     H15746   5.238  10.905   7.678 -0.3384 -0.7298  0.8848
  117MOL0     H15747   4.960  10.824   7.800 -2.3174 -0.3696 -2.4430
  117MOL0     H15748   4.884  10.977   7.853  0.9141  1.2938  0.1884
  117MOL0     H15749   4.819  10.930   7.634  1.5530 -0.6966 -2.6424
  117MOL0     H15750   4.975  10.900   7.581 -2.5617 -3.0972  1.0029
  117MOL0     H15751   4.936  11.126   7.494  4.2776  1.3394  0.5745
  117MOL0     H15752   5.027  11.169   7.631 -1.2970  2.0024  1.6807
  117MOL0     H15753   4.817  11.301   7.603 -1.9629 -0.8380 -0.6028
  117MOL0     H15754   4.832  11.226   7.762  1.3560  3.8864 -0.8198
  117MOL0     H15755   4.458  11.130   7.526  0.1896 -0.3932  0.5808
  117MOL0     H15756   4.205  11.139   7.529  0.8213 -0.3934  4.8586
  117MOL0     H15757   4.105  11.262   7.608  1.1378  1.0172  1.3248
  117MOL0     H15758   4.199  11.303   7.470 -0.0246 -2.5945 -2.0762
  117MOL0     H15759   4.105  11.268   8.082 -1.0937 -0.6044  4.2048
  117MOL0     H15760   3.888  11.294   8.196 -0.8768  0.5214  0.8284
  117MOL0     H15761   3.579  11.472   8.297  0.6893  1.3012 -1.0923
  117MOL0     H15762   3.666  11.363   8.203 -3.2816 -1.0631  0.6837
  117MOL0     H15763   3.637  11.282   8.417 -0.8079 -0.1621 -1.1859
  117MOL0     H15764   3.813  11.307   8.411  1.0256  2.7559  0.0038
  117MOL0     H15765   3.633  11.517   8.545 -1.5198 -1.8653 -1.0271
  117MOL0     H15766   3.806  11.508   8.514 -0.1863  0.5616  0.0731
  117MOL0     H15767   3.691  11.273   8.667  1.6128 -0.2149  2.0692
  117MOL0     H15768   3.842  11.355   8.674  0.1756 -1.0006 -1.2399
  117MOL0     H15769   3.700  11.382   8.865  0.5302  1.2454 -0.4192
  117MOL0     H15770   3.577  11.466   8.780 -0.0625 -0.4278  2.6706
  117MOL0     H15771   3.861  11.518   8.841 -2.2661 -4.2504  0.0654
  117MOL0     H15772   3.799  11.645   8.740  1.4751 -0.0616  0.4299
  117MOL0     H15773   3.791  11.720   8.987 -0.8669  4.1339 -3.4451
  117MOL0     H15774   3.684  11.586   9.033 -0.7569  1.0669  0.1902
  117MOL0     H15775   3.529  11.693   8.851  1.2758 -4.9354 -0.2293
  117MOL0     H15776   3.664  11.811   8.828  2.8165 -1.1518  0.7831
  117MOL0     H15777   3.903  11.715   8.103  0.0867  0.6876  4.4900
  117MOL0     H15778   4.101  11.673   7.953 -4.0089  2.0374 -0.1976
  117MOL0     H15779   4.465  11.388   7.933  0.0964  0.9589 -0.1543
  117MOL0     H15780   4.647  11.265   7.871 -1.6555 -1.7665  1.1631
  117MOL0     H15781   5.346  10.190   7.471  0.8101 -0.7076  2.0032
  117MOL0     H15782   5.164  10.117   7.322 -1.1927  0.2918 -2.1624
  117MOL0     H15783   4.926   9.871   7.043  0.2858  2.2848 -0.6534
  117MOL0     H15784   4.806   9.733   6.903  1.3997 -2.2601  2.5209
  117MOL0     H15785   4.991   9.637   6.487  4.0467 -4.2178  0.3448
  117MOL0     H15786   4.990   9.477   6.559 -0.8140 -1.2059 -3.2082
  117MOL0     H15787   4.759   9.626   6.426  0.1951 -0.3685 -3.7507
  117MOL0     H15788   4.754   9.471   6.518 -0.7502  1.8076  1.2326
  117MOL0     H15789   4.768   9.419   6.276  1.2546 -3.4815  1.8455
  117MOL0     H15790   4.936   9.397   6.331  0.8593  1.2837  2.1465
  117MOL0     H15791   4.977   9.644   6.250 -0.5986  0.1467  0.1683
  117MOL0     H15792   4.817   9.632   6.180 -2.5721 -2.4084 -0.0109
  117MOL0     H15793   5.023   9.403   5.901  2.0006 -1.7741  1.8960
  117MOL0     H15794   5.141   9.709   6.634  1.2207  0.3160  1.2460
  117MOL0     H15795   5.264   9.839   6.762 -0.3546  0.5541 -1.2858
  118MOL0     O15796   7.878   8.653  10.341  0.5437 -0.3265 -0.4321
  118MOL0     C15797   7.824   8.762  10.302 -0.0586  0.4779  0.7613
  118MOL0     O15798   7.697   8.812  10.342  0.2635  0.1620 -0.6083
  118MOL0     C15799   7.610   8.735  10.419  0.6883 -0.5648 -0.4839
  118MOL0     C15800   7.634   8.710  10.552  0.6123 -0.1274  0.9537
  118MOL0     C15801   7.547   8.654  10.639 -0.4819  0.3518  0.2108
  118MOL0     C15802   7.424   8.613  10.590  0.7336 -0.6013 -1.3418
  118MOL0     O15803   7.328   8.555  10.685 -0.7157 -0.3488 -0.2457
  118MOL0     C15804   7.225   8.469  10.644 -0.0172 -0.5846 -0.6944
  118MOL0     C15805   7.165   8.392  10.757 -1.0309 -0.0326  0.5496
  118MOL0     C15806   7.052   8.305  10.716 -0.2586 -0.1819 -0.6470
  118MOL0     C15807   7.069   8.224  10.592  0.0638 -0.5019  0.2586
  118MOL0     C15808   6.947   8.124  10.584  0.5439 -0.0611 -0.0665
  118MOL0     C15809   6.920   8.078  10.442 -0.8317  0.5148  0.6122
  118MOL0     C15810   7.028   7.980  10.389  0.1385  0.8612  0.2811
  118MOL0     C15811   6.969   7.879  10.292 -0.3951 -0.0467  0.3231
  118MOL0     N15812   7.082   7.811  10.232 -0.5087  0.2731  0.6507
  118MOL0     C15813   7.160   7.715  10.296 -0.7321  0.5426 -0.4035
  118MOL0     C15814   7.261   7.707  10.208 -1.2805 -1.1952 -1.1226
  118MOL0     C15815   7.397   7.632  10.223  0.0904  0.5774 -0.0227
  118MOL0     C15816   7.489   7.721  10.311  0.2073 -0.5307 -1.6926
  118MOL0     C15817   7.626   7.651  10.338  0.1932  0.3825  1.0729
  118MOL0     C15818   7.699   7.637  10.208 -0.1603  0.1410 -0.3479
  118MOL0     O15819   7.836   7.651  10.242  0.3523 -0.5049  0.3199
  118MOL0     C15820   7.937   7.603  10.154 -0.8252 -0.2944 -1.0590
  118MOL0     C15821   8.047   7.544  10.204 -0.8610 -0.2353 -0.1520
  118MOL0     C15822   8.142   7.485  10.125 -0.0101 -0.4164  0.0286
  118MOL0     C15823   8.269   7.425  10.188  0.2278  0.1341 -0.5497
  118MOL0     C15824   8.133   7.496   9.988 -1.3559 -0.7701 -0.3116
  118MOL0     C15825   8.238   7.453   9.889 -0.2969  0.0878  0.1664
  118MOL0     O15826   8.202   7.392   9.772 -0.0482  0.7954  0.5186
  118MOL0     C15827   8.103   7.302   9.782 -0.0808  0.3936  0.6593
  118MOL0     C15828   8.124   7.176   9.842  0.1808 -0.7305  0.2345
  118MOL0     C15829   8.025   7.075   9.836  0.4327 -0.1628 -0.0583
  118MOL0     C15830   7.901   7.098   9.780  0.8163  1.0371  0.0997
  118MOL0     O15831   7.801   6.996   9.764 -0.2777  0.1011  0.2760
  118MOL0     C15832   7.778   6.901   9.868 -0.2062  0.5149  0.0130
  118MOL0     C15833   7.644   6.843   9.853  0.0393  0.4607 -0.2790
  118MOL0     C15834   7.610   6.743   9.962  0.6077  0.4096 -0.1246
  118MOL0     C15835   7.459   6.716   9.958 -0.3186  0.6971 -0.2114
  118MOL0     C15836   7.374   6.836  10.002 -0.1463  0.2730 -0.6034
  118MOL0     C15837   7.294   6.779  10.123 -1.2147  0.4632  0.3687
  118MOL0     C15838   7.271   6.888  10.223 -0.2660  0.2657  0.1865
  118MOL0     C15839   7.387   6.917  10.317 -0.4873 -0.6796  0.0396
  118MOL0    Cl15840   7.336   7.067  10.391  0.1888  0.1245 -0.4732
  118MOL0     C15841   7.875   7.224   9.726 -0.5546 -0.9846 -0.0889
  118MOL0     C15842   7.980   7.329   9.738  0.1721  0.0329 -0.4307
  118MOL0     O15843   8.357   7.492   9.911 -0.5230  1.6296 -0.0646
  118MOL0     C15844   8.024   7.561   9.940 -0.0385 -0.6146  0.0623
  118MOL0     C15845   7.921   7.605  10.022  0.5173  0.5819  0.6346
  118MOL0     N15846   7.237   7.791  10.098  0.5102 -0.0502 -0.4772
  118MOL0     N15847   7.127   7.855  10.111  0.8529  0.7042  0.0460
  118MOL0     C15848   7.389   8.639  10.456 -0.1243 -0.2812 -0.5664
  118MOL0     C15849   7.481   8.688  10.369 -0.7129  0.2167  1.0276
  118MOL0     C15850   7.895   8.849  10.215 -0.7105  0.8448  0.4495
  118MOL0     C15851   8.036   8.839  10.188  0.3546  0.1761  0.5089
  118MOL0     C15852   8.102   8.943  10.114 -0.6943  0.2717 -0.1790
  118MOL0     C15853   8.026   9.046  10.060  0.3517 -0.6189 -0.1998
  118MOL0     O15854   8.079   9.150   9.985 -0.3215  0.7544 -0.1083
  118MOL0     C15855   8.194   9.111   9.903 -0.4445 -0.4995  0.3545
  118MOL0     C15856   8.194   9.187   9.769  0.6171 -0.5974  0.1161
  118MOL0     C15857   8.222   9.346   9.785 -0.5296 -0.8549 -0.7521
  118MOL0     C15858   8.113   9.431   9.859  0.4009  0.4518 -0.2307
  118MOL0     C15859   8.094   9.571   9.810 -0.1805  1.0390 -0.7767
  118MOL0     C15860   8.072   9.672   9.746  0.2280 -0.6276 -1.7061
  118MOL0     C15861   7.888   9.055  10.085  0.2429 -1.0571 -1.0775
  118MOL0     C15862   7.826   8.952  10.160  0.4234 -0.5682 -0.6758
  118MOL0     H15863   7.732   8.748  10.581  0.9040  1.8778 -2.1846
  118MOL0     H15864   7.557   8.646  10.747 -3.1976 -0.1406  0.4910
  118MOL0     H15865   7.148   8.536  10.604 -1.3546  0.4491  3.1508
  118MOL0     H15866   7.257   8.396  10.569 -5.2417 -1.7593 -2.1687
  118MOL0     H15867   7.224   8.323  10.817 -3.7579 -1.7899  1.4149
  118MOL0     H15868   7.131   8.468  10.828 -0.8639 -1.2748  2.0117
  118MOL0     H15869   7.030   8.237  10.798  1.3182 -2.9242 -2.3286
  118MOL0     H15870   6.960   8.363  10.705  0.2067  0.8102  0.4914
  118MOL0     H15871   7.059   8.288  10.504 -1.7078 -0.5654  0.3929
  118MOL0     H15872   7.174   8.191  10.590  0.4068  0.1147  3.3922
  118MOL0     H15873   6.973   8.039  10.648  0.2721  0.0351  0.1676
  118MOL0     H15874   6.870   8.188  10.627  0.4865 -1.5327  2.1609
  118MOL0     H15875   6.822   8.029  10.447 -1.3709  1.2177 -1.7358
  118MOL0     H15876   6.906   8.155  10.365  1.8378  0.7031  0.2390
  118MOL0     H15877   7.104   8.033  10.331 -0.3135  1.4266  0.2031
  118MOL0     H15878   7.068   7.927  10.476 -1.0481  1.3755  1.1702
  118MOL0     H15879   6.911   7.935  10.219 -1.1733 -0.9044  0.2632
  118MOL0     H15880   6.906   7.805  10.343  0.2033 -1.0953 -0.4094
  118MOL0     H15881   7.157   7.679  10.398  0.6172  2.1342  0.2486
  118MOL0     H15882   7.385   7.534  10.269  2.3024  0.9169  1.4599
  118MOL0     H15883   7.447   7.616  10.128  0.4308  0.6997  0.1322
  118MOL0     H15884   7.430   7.719  10.403 -0.4978  5.3688 -1.6539
  118MOL0     H15885   7.494   7.820  10.266 -1.2687  1.7797  2.6344
  118MOL0     H15886   7.604   7.557  10.388 -3.5152  0.9871  0.8647
  118MOL0     H15887   7.688   7.711  10.406 -0.6648  0.3529  1.9054
  118MOL0     H15888   7.670   7.722  10.145  1.4646  1.7569  0.9689
  118MOL0     H15889   7.680   7.544  10.154 -1.9041 -1.1422  2.2868
  118MOL0     H15890   8.066   7.541  10.311  1.3354 -0.1827 -0.4816
  118MOL0     H15891   8.348   7.493  10.154 -0.7859  1.9611  0.5670
  118MOL0     H15892   8.266   7.436  10.296 -0.1313  5.3208 -0.8288
  118MOL0     H15893   8.288   7.325  10.146  1.1693  0.4125 -0.8199
  118MOL0     H15894   8.224   7.153   9.876 -0.1403 -1.0289  0.9921
  118MOL0     H15895   8.044   6.975   9.873 -0.3430 -0.2986 -0.0093
  118MOL0     H15896   7.856   6.824   9.870  0.3445  1.0503 -0.5409
  118MOL0     H15897   7.780   6.951   9.965  2.3135 -0.1385  0.3709
  118MOL0     H15898   7.583   6.933   9.844  0.3250  1.0054  2.4512
  118MOL0     H15899   7.650   6.792   9.756  4.7049 -2.2613  1.1067
  118MOL0     H15900   7.633   6.793  10.056  0.9227  0.4038 -0.1964
  118MOL0     H15901   7.674   6.655   9.956 -1.4651 -1.1419 -0.7427
  118MOL0     H15902   7.436   6.718   9.851 -1.9675  4.8243  0.0307
  118MOL0     H15903   7.437   6.623  10.011 -0.6627  1.2885  0.7185
  118MOL0     H15904   7.301   6.864   9.924 -0.8394 -1.1463 -0.5018
  118MOL0     H15905   7.441   6.917  10.030  1.7396 -1.2428 -0.5216
  118MOL0     H15906   7.201   6.741  10.079  0.2017 -3.7378  0.6246
  118MOL0     H15907   7.338   6.697  10.180  0.5968  0.0580 -1.4983
  118MOL0     H15908   7.187   6.855  10.284 -1.4659  0.4769 -1.3039
  118MOL0     H15909   7.239   6.976  10.166 -0.9140 -1.9631 -3.1433
  118MOL0     H15910   7.481   6.924  10.262 -0.7793 -0.6465 -0.4710
  118MOL0     H15911   7.390   6.836  10.389 -0.8154 -4.4169 -3.7470
  118MOL0     H15912   7.780   7.251   9.681 -0.4912 -4.2217 -2.4613
  118MOL0     H15913   7.967   7.425   9.688 -1.3139  0.1906  0.1962
  118MOL0     H15914   8.006   7.581   9.835  1.2206 -0.3237 -0.1149
  118MOL0     H15915   7.828   7.646   9.983  1.2138  0.6100 -1.0768
  118MOL0     H15916   7.291   8.629  10.410  1.1000 -0.9174 -3.2505
  118MOL0     H15917   7.457   8.721  10.268  1.1525 -2.0876 -0.2632
  118MOL0     H15918   8.104   8.774  10.243  2.9187  1.8012 -0.5245
  118MOL0     H15919   8.210   8.950  10.105 -0.2802 -4.7588 -3.0502
  118MOL0     H15920   8.291   9.134   9.949 -1.3469  1.0441  1.5356
  118MOL0     H15921   8.201   9.004   9.881 -0.0541 -0.4414  0.1809
  118MOL0     H15922   8.105   9.170   9.708  0.5260 -0.4716  0.2116
  118MOL0     H15923   8.265   9.139   9.702  0.1180  2.5102 -2.9756
  118MOL0     H15924   8.237   9.401   9.692 -0.9422 -0.8101 -0.7948
  118MOL0     H15925   8.307   9.371   9.848 -0.8434 -0.4205 -0.4916
  118MOL0     H15926   8.141   9.426   9.965 -1.2936  2.1342  0.3472
  118MOL0     H15927   8.011   9.392   9.856  0.6943 -0.3164 -2.7246
  118MOL0     H15928   8.049   9.770   9.710 -0.0174 -0.6028 -1.4916
  118MOL0     H15929   7.830   9.139  10.048  1.8891  0.6621  0.0411
  118MOL0     H15930   7.717   8.957  10.160  0.2283 -1.9848 -3.9963
  119MOL0     O15931   6.290   9.154   1.762  0.8804 -0.3854 -0.4616
  119MOL0     C15932   6.211   9.082   1.704 -0.1587  0.1526 -1.0652
  119MOL0     O15933   6.233   8.957   1.654 -0.1900 -0.6921  0.0932
  119MOL0     C15934   6.362   8.926   1.655  0.2130 -0.1085  0.3922
  119MOL0     C15935   6.405   8.836   1.756 -0.3251  0.4325 -0.7275
  119MOL0     C15936   6.537   8.801   1.771 -0.2608  0.3814  0.6819
  119MOL0     C15937   6.633   8.857   1.683 -0.5546  0.4630  0.2187
  119MOL0     O15938   6.763   8.813   1.685 -0.1499  0.2321 -0.9331
  119MOL0     C15939   6.826   8.783   1.809  1.0829  0.3148 -0.1858
  119MOL0     C15940   6.971   8.841   1.809 -0.3048  0.1282 -0.4124
  119MOL0     C15941   7.042   8.857   1.947  0.9610 -0.0772 -0.3401
  119MOL0     C15942   7.167   8.947   1.934  0.3700  0.8338  0.7715
  119MOL0     C15943   7.249   8.982   2.053 -0.0210  0.8368 -0.5072
  119MOL0     C15944   7.335   8.861   2.106 -0.7159 -0.1969 -0.7106
  119MOL0     C15945   7.441   8.893   2.222  0.1416 -0.8743 -0.2269
  119MOL0     C15946   7.375   8.926   2.357  0.6954 -0.6413 -0.3987
  119MOL0     N15947   7.336   8.820   2.448  0.0444 -0.1887  0.2020
  119MOL0     C15948   7.334   8.683   2.425  0.5302  0.9920 -0.2824
  119MOL0     C15949   7.298   8.641   2.551 -0.1342 -0.0433 -0.1256
  119MOL0     C15950   7.287   8.492   2.577 -0.2598  0.7823 -0.4136
  119MOL0     C15951   7.386   8.396   2.514 -0.6008 -0.0815  0.8590
  119MOL0     C15952   7.531   8.423   2.555  0.9756 -0.1591 -0.0491
  119MOL0     C15953   7.617   8.297   2.523 -0.1917  0.2215 -0.0841
  119MOL0     O15954   7.766   8.296   2.560  0.2544 -0.5022 -0.8168
  119MOL0     C15955   7.798   8.294   2.689 -0.0434 -0.2001 -0.5563
  119MOL0     C15956   7.708   8.281   2.796  1.4224 -1.0250 -0.3657
  119MOL0     C15957   7.745   8.272   2.928 -0.3150  0.6097 -0.0406
  119MOL0     C15958   7.635   8.256   3.028  0.6221  0.2456 -0.2727
  119MOL0     C15959   7.877   8.296   2.959 -0.6784 -0.3162  0.2673
  119MOL0     C15960   7.916   8.286   3.100 -1.3569 -0.0309  0.0564
  119MOL0     O15961   7.865   8.177   3.165  0.1173  0.2533  0.1770
  119MOL0     C15962   7.867   8.166   3.299 -0.3264  0.1178 -0.2707
  119MOL0     C15963   7.981   8.117   3.355  0.0112  0.1514 -0.3401
  119MOL0     C15964   7.996   8.105   3.495 -0.6263 -0.6799 -0.2550
  119MOL0     C15965   7.892   8.140   3.578  0.1210 -0.7365  0.0708
  119MOL0     O15966   7.904   8.150   3.710 -0.3121  0.6508  0.5757
  119MOL0     C15967   8.014   8.085   3.762  0.2466 -0.4401 -0.9771
  119MOL0     C15968   7.995   8.054   3.908 -0.1310  0.1010  0.0112
  119MOL0     C15969   8.131   8.025   3.968  0.3845  0.8461 -0.2433
  119MOL0     C15970   8.193   7.889   3.936  0.0404 -0.6555 -0.6546
  119MOL0     C15971   8.325   7.857   4.016  0.3975 -0.1247  0.4740
  119MOL0     C15972   8.434   7.959   4.006  0.6666  0.5515  0.3597
  119MOL0     C15973   8.577   7.891   4.003 -0.0261 -1.0557  0.1403
  119MOL0     C15974   8.688   8.002   3.974 -0.0463 -0.5903 -0.5815
  119MOL0    Cl15975   8.846   7.916   3.946  0.1570 -1.1877  0.2606
  119MOL0     C15976   7.768   8.176   3.514 -0.4430  0.8538  0.5442
  119MOL0     C15977   7.748   8.180   3.378 -1.2251  0.7992  0.5454
  119MOL0     O15978   7.973   8.381   3.157  0.4446  0.4338  0.4411
  119MOL0     C15979   7.969   8.315   2.856 -0.0783  0.4455  1.3154
  119MOL0     C15980   7.928   8.310   2.721  0.9807 -0.1873  0.5536
  119MOL0     N15981   7.271   8.740   2.637  0.4510  0.0736  0.0977
  119MOL0     N15982   7.291   8.841   2.574 -0.1590 -0.3238 -0.8890
  119MOL0     C15983   6.592   8.933   1.574  0.1173  0.1783 -0.1756
  119MOL0     C15984   6.458   8.972   1.561 -0.1056 -0.1026 -1.4716
  119MOL0     C15985   6.077   9.145   1.700  0.9657  0.0671 -0.6535
  119MOL0     C15986   5.977   9.097   1.606 -0.7479 -0.0243 -0.4349
  119MOL0     C15987   5.859   9.162   1.598 -0.2934 -0.2456  0.6248
  119MOL0     C15988   5.832   9.278   1.680  0.1913  0.4438 -0.9158
  119MOL0     O15989   5.707   9.327   1.671  0.2032 -1.0589 -0.6103
  119MOL0     C15990   5.676   9.426   1.771  0.4738 -1.3561  0.7220
  119MOL0     C15991   5.519   9.462   1.760 -0.3859 -0.1187 -0.8729
  119MOL0     C15992   5.448   9.574   1.841  1.1668  0.4334 -0.2427
  119MOL0     C15993   5.536   9.691   1.857 -0.2172 -0.3859  0.5862
  119MOL0     C15994   5.548   9.762   1.729 -0.4700 -0.1257  0.8905
  119MOL0     C15995   5.553   9.821   1.620  0.0400 -0.7686 -0.1343
  119MOL0     C15996   5.925   9.312   1.780  0.1146 -0.7250  0.1337
  119MOL0     C15997   6.051   9.258   1.789 -0.4644  0.1166 -0.3239
  119MOL0     H15998   6.339   8.791   1.830 -2.1838 -0.3907 -2.7731
  119MOL0     H15999   6.561   8.732   1.851 -0.7443 -0.9432 -0.3017
  119MOL0     H16000   6.779   8.823   1.899 -0.7416 -1.0882 -0.4428
  119MOL0     H16001   6.835   8.674   1.815  0.2582  0.2278 -0.3921
  119MOL0     H16002   7.041   8.783   1.748  1.1347  1.1574  0.1964
  119MOL0     H16003   6.969   8.947   1.780  1.0991  1.5246  3.8406
  119MOL0     H16004   6.972   8.906   2.015  1.0723  1.3259 -1.1855
  119MOL0     H16005   7.069   8.758   1.984  0.1675 -0.2837 -0.3022
  119MOL0     H16006   7.230   8.896   1.860 -2.1441 -2.4688  0.6801
  119MOL0     H16007   7.138   9.048   1.904  2.4116  1.3058  0.2207
  119MOL0     H16008   7.325   9.053   2.018 -1.2144  2.0495 -0.7007
  119MOL0     H16009   7.186   9.014   2.136 -1.9953  0.3143 -1.7463
  119MOL0     H16010   7.273   8.779   2.142  1.2994 -2.3294 -1.8093
  119MOL0     H16011   7.397   8.837   2.019 -0.5948  3.3701 -1.7674
  119MOL0     H16012   7.519   8.816   2.232 -0.5184 -1.8757 -2.3185
  119MOL0     H16013   7.496   8.985   2.200  0.8193 -1.1918  0.0763
  119MOL0     H16014   7.287   8.989   2.344  0.9650 -0.5474 -1.9607
  119MOL0     H16015   7.448   8.988   2.411  0.4086  0.1573 -0.9168
  119MOL0     H16016   7.350   8.638   2.328  0.3087 -1.0321  0.5741
  119MOL0     H16017   7.297   8.470   2.683  3.6325  2.0497 -0.3542
  119MOL0     H16018   7.186   8.467   2.542 -1.1073  2.0419  0.9979
  119MOL0     H16019   7.376   8.399   2.405  0.7933  2.2431  0.7358
  119MOL0     H16020   7.348   8.297   2.542  0.0917 -0.4769  0.4309
  119MOL0     H16021   7.526   8.453   2.660  0.1802  2.4559 -0.7607
  119MOL0     H16022   7.574   8.507   2.498 -1.0931  1.2189  0.3291
  119MOL0     H16023   7.623   8.302   2.414 -1.1482  0.5008 -0.1276
  119MOL0     H16024   7.569   8.209   2.568  0.1480  0.6797  1.2249
  119MOL0     H16025   7.600   8.275   2.785  1.2667 -3.4253  1.4638
  119MOL0     H16026   7.641   8.309   3.123  0.5163 -2.6151  1.4685
  119MOL0     H16027   7.538   8.276   2.983  0.2814 -1.3276 -0.3037
  119MOL0     H16028   7.636   8.149   3.054 -1.7508  0.1814 -0.2835
  119MOL0     H16029   8.068   8.096   3.294  0.2296 -0.5279  0.1927
  119MOL0     H16030   8.095   8.092   3.538 -0.5762  0.5467  0.0551
  119MOL0     H16031   8.033   7.992   3.708  2.5452 -0.5346 -0.1461
  119MOL0     H16032   8.104   8.147   3.752  0.1665  0.1209  1.1440
  119MOL0     H16033   7.938   8.136   3.953 -3.3029 -2.6001  1.3451
  119MOL0     H16034   7.925   7.970   3.911 -0.5316  0.3422 -1.5504
  119MOL0     H16035   8.121   8.043   4.076 -1.2470  1.2340 -0.4305
  119MOL0     H16036   8.205   8.104   3.957  0.1855  1.1158  0.2776
  119MOL0     H16037   8.110   7.823   3.962 -1.7448  1.4165 -0.8306
  119MOL0     H16038   8.208   7.871   3.829 -1.4846  0.7133 -1.1321
  119MOL0     H16039   8.356   7.754   3.995 -2.1717 -0.3302 -3.2502
  119MOL0     H16040   8.293   7.871   4.120 -3.5695  2.3247 -0.8396
  119MOL0     H16041   8.412   8.013   3.913 -1.2205  1.6487  1.3796
  119MOL0     H16042   8.431   8.041   4.079 -1.5776 -0.6473  1.7417
  119MOL0     H16043   8.578   7.812   3.927  0.3570  2.4678 -3.9149
  119MOL0     H16044   8.598   7.851   4.102  0.4026  1.4167  1.1233
  119MOL0     H16045   8.693   8.056   4.069  0.4494 -4.0602  1.5357
  119MOL0     H16046   8.656   8.074   3.897  1.8303  0.9739  0.0248
  119MOL0     H16047   7.672   8.191   3.563 -0.8786  2.9967 -0.8027
  119MOL0     H16048   7.651   8.189   3.329 -0.9742 -0.3426 -0.2172
  119MOL0     H16049   8.073   8.328   2.885  0.0753 -0.5807  1.2593
  119MOL0     H16050   7.997   8.336   2.641 -1.9132 -0.2926 -2.1599
  119MOL0     H16051   6.660   8.958   1.493  0.3198 -0.7661 -0.3087
  119MOL0     H16052   6.437   9.043   1.482 -3.7192 -0.0500 -0.6356
  119MOL0     H16053   5.981   8.999   1.560 -0.1925 -0.1907 -0.0447
  119MOL0     H16054   5.783   9.120   1.533  3.1251 -1.7248 -2.8301
  119MOL0     H16055   5.671   9.381   1.871  0.3267 -4.4079 -0.5367
  119MOL0     H16056   5.734   9.517   1.756 -1.7691 -0.2633 -2.5482
  119MOL0     H16057   5.468   9.366   1.763 -1.0113  0.1982 -1.2715
  119MOL0     H16058   5.497   9.475   1.654 -0.7700 -0.3137 -0.8169
  119MOL0     H16059   5.413   9.535   1.937 -0.2646  0.3604 -0.7711
  119MOL0     H16060   5.351   9.602   1.799  2.5628  0.2884 -3.9707
  119MOL0     H16061   5.638   9.662   1.884  0.5201  0.1249 -1.4359
  119MOL0     H16062   5.503   9.758   1.937 -1.1144 -2.0014  1.6126
  119MOL0     H16063   5.544   9.877   1.529  0.0401  1.1390  0.9869
  119MOL0     H16064   5.897   9.383   1.857 -1.2258 -2.0886  0.9536
  119MOL0     H16065   6.127   9.318   1.837 -0.1655 -0.5172  0.0178
  120MOL0     O16066   4.612   3.591   9.675  0.2988  0.4117  0.2162
  120MOL0     C16067   4.575   3.645   9.779 -0.0838 -0.6365  0.1079
  120MOL0     O16068   4.626   3.633   9.903 -1.0848  0.3474 -0.8847
  120MOL0     C16069   4.765   3.613   9.919  0.3615 -0.0935 -0.0143
  120MOL0     C16070   4.861   3.640   9.817 -0.9387 -0.5302 -0.0775
  120MOL0     C16071   4.992   3.601   9.844  0.3352 -0.3961 -0.2243
  120MOL0     C16072   5.030   3.527   9.949 -0.1396 -0.3937  0.1373
  120MOL0     O16073   5.152   3.473   9.942 -0.2945  0.4228 -0.0527
  120MOL0     C16074   5.184   3.352  10.008 -0.2202 -0.3927  0.3269
  120MOL0     C16075   5.315   3.303   9.949  0.3002 -0.9634 -0.4634
  120MOL0     C16076   5.296   3.219   9.830  0.4198 -0.1221  0.2874
  120MOL0     C16077   5.424   3.211   9.741 -0.1679  0.3688 -0.4740
  120MOL0     C16078   5.397   3.125   9.621 -0.1374 -0.5197  0.2545
  120MOL0     C16079   5.520   3.122   9.533 -0.4535 -0.3482 -0.4886
  120MOL0     C16080   5.490   3.045   9.402 -0.2631 -0.1716 -0.1484
  120MOL0     C16081   5.621   3.009   9.322 -0.3328 -0.7273 -0.2421
  120MOL0     N16082   5.615   3.067   9.184 -0.1159  0.2480  0.1439
  120MOL0     C16083   5.514   3.040   9.101  0.1018  0.9504 -0.3421
  120MOL0     C16084   5.535   3.124   8.996 -0.4124  0.4466  0.0589
  120MOL0     C16085   5.458   3.155   8.870 -0.2361  0.3990 -0.6209
  120MOL0     C16086   5.430   3.026   8.795  0.4007 -0.1308 -0.3760
  120MOL0     C16087   5.459   3.038   8.644  0.0716  0.5698  1.1527
  120MOL0     C16088   5.615   3.043   8.619  0.8848 -0.2643  0.5319
  120MOL0     O16089   5.671   2.914   8.666 -0.7175 -0.1801 -0.3243
  120MOL0     C16090   5.810   2.926   8.682  0.5505 -0.3947 -0.8766
  120MOL0     C16091   5.864   3.005   8.786 -1.0833 -0.3848 -0.5464
  120MOL0     C16092   6.005   3.025   8.802  0.3811 -0.3624 -0.1978
  120MOL0     C16093   6.046   3.116   8.915 -0.1930  0.9397 -0.5672
  120MOL0     C16094   6.090   2.965   8.706  1.1568  0.1018 -0.3447
  120MOL0     C16095   6.231   2.982   8.708  0.9650 -0.0430 -0.9227
  120MOL0     O16096   6.305   2.961   8.592 -0.3089  0.4142 -0.4584
  120MOL0     C16097   6.445   2.961   8.595  0.4698  0.4179  0.0868
  120MOL0     C16098   6.535   2.883   8.671  0.3234 -1.0957  0.0197
  120MOL0     C16099   6.671   2.904   8.670  0.5214 -0.9929 -0.3616
  120MOL0     C16100   6.718   3.009   8.589  0.2020  0.7422  0.0097
  120MOL0     O16101   6.856   3.038   8.596  0.6938  0.1281  0.5006
  120MOL0     C16102   6.883   3.168   8.557 -0.4353 -0.4570 -0.4154
  120MOL0     C16103   7.034   3.190   8.581 -0.2649 -0.2302 -0.5405
  120MOL0     C16104   7.104   3.281   8.482 -0.1249 -0.1831  0.0623
  120MOL0     C16105   7.257   3.296   8.503  0.2686  0.1618  0.1833
  120MOL0     C16106   7.319   3.394   8.415 -0.7307 -0.4487 -0.3212
  120MOL0     C16107   7.470   3.378   8.403 -0.8253  0.0100  0.7226
  120MOL0     C16108   7.538   3.492   8.331 -0.4424 -1.1277  0.4453
  120MOL0     C16109   7.665   3.452   8.262 -1.1369  0.3621 -0.2648
  120MOL0    Cl16110   7.634   3.342   8.127  0.0851 -0.0801 -0.6099
  120MOL0     C16111   6.635   3.071   8.504  0.9168 -0.5414  0.2111
  120MOL0     C16112   6.498   3.058   8.507  0.4871 -0.6854 -0.4925
  120MOL0     O16113   6.286   3.004   8.820 -0.1084 -0.1706  0.1426
  120MOL0     C16114   6.029   2.884   8.597 -0.7341  0.1525  0.0035
  120MOL0     C16115   5.893   2.867   8.582 -0.6322 -0.1611  0.3992
  120MOL0     N16116   5.657   3.188   9.013 -0.5352  0.0006 -0.5044
  120MOL0     N16117   5.707   3.136   9.123  0.0416 -0.6459 -0.1141
  120MOL0     C16118   4.934   3.493  10.051  0.3478  0.1791  0.0769
  120MOL0     C16119   4.802   3.544  10.036 -0.3117  0.8324  0.5204
  120MOL0     C16120   4.456   3.730   9.763  0.2178  0.0990 -0.0233
  120MOL0     C16121   4.396   3.751   9.629 -0.3090  0.1011 -0.7719
  120MOL0     C16122   4.289   3.833   9.606 -0.7526 -0.5164  0.2870
  120MOL0     C16123   4.220   3.894   9.720  0.2808  0.1526  0.5350
  120MOL0     O16124   4.106   3.967   9.700  0.4960 -0.8522  0.9060
  120MOL0     C16125   4.032   4.034   9.814  0.3385 -0.1313  0.1286
  120MOL0     C16126   3.915   4.121   9.771  1.1199  0.4890 -0.2621
  120MOL0     C16127   3.805   4.049   9.695 -0.2507 -0.2041 -0.2206
  120MOL0     C16128   3.664   4.114   9.711 -0.1243 -0.2582  0.2328
  120MOL0     C16129   3.588   4.119   9.578 -0.0543  0.1031 -0.2163
  120MOL0     C16130   3.530   4.124   9.468 -0.8975 -0.1585  0.4661
  120MOL0     C16131   4.283   3.873   9.843  0.1899 -0.7423 -0.2175
  120MOL0     C16132   4.402   3.805   9.866  0.5887 -0.2002  1.2928
  120MOL0     H16133   4.849   3.685   9.719  0.2680 -1.3716 -0.6358
  120MOL0     H16134   5.066   3.611   9.764  0.2794 -3.0609 -0.6853
  120MOL0     H16135   5.186   3.392  10.110  0.6680  1.1002 -0.2454
  120MOL0     H16136   5.113   3.269  10.001  2.5458 -3.3966  3.8010
  120MOL0     H16137   5.371   3.395   9.928  0.5247 -0.0717  3.1981
  120MOL0     H16138   5.381   3.250  10.019  1.7324  1.3510  0.0461
  120MOL0     H16139   5.287   3.116   9.865 -1.1439 -0.3953 -0.8306
  120MOL0     H16140   5.202   3.250   9.782 -1.6764 -2.5855  2.5118
  120MOL0     H16141   5.459   3.305   9.698 -0.6248 -0.0989 -1.9083
  120MOL0     H16142   5.507   3.189   9.809 -0.9630  0.2614  0.4752
  120MOL0     H16143   5.351   3.027   9.630 -1.3234  0.0365  0.4133
  120MOL0     H16144   5.322   3.176   9.561  0.8665 -0.2654 -0.8253
  120MOL0     H16145   5.534   3.228   9.510  0.3367  0.6988  3.8543
  120MOL0     H16146   5.606   3.076   9.582 -0.6228  1.7664  2.0291
  120MOL0     H16147   5.447   2.948   9.431 -3.9566  1.2607 -0.3257
  120MOL0     H16148   5.417   3.105   9.346 -0.0831  2.2908  2.0516
  120MOL0     H16149   5.634   2.900   9.317 -0.7676 -0.8720  1.2098
  120MOL0     H16150   5.703   3.056   9.377 -0.1280 -0.2401 -0.9565
  120MOL0     H16151   5.430   2.974   9.121 -0.8252  2.0816 -0.3770
  120MOL0     H16152   5.366   3.201   8.906  0.3778  3.8788 -3.0095
  120MOL0     H16153   5.510   3.233   8.813  0.0091  1.7911  1.3921
  120MOL0     H16154   5.321   3.025   8.805  0.5994  0.5156  3.0888
  120MOL0     H16155   5.468   2.935   8.844 -0.8647  0.6821  2.3650
  120MOL0     H16156   5.411   3.123   8.593  2.3990  1.3345  0.0771
  120MOL0     H16157   5.418   2.954   8.587  0.6484 -2.1660  4.4741
  120MOL0     H16158   5.669   3.136   8.640  2.0628  0.6027 -4.7511
  120MOL0     H16159   5.636   3.034   8.512  0.5457  0.6589  0.3728
  120MOL0     H16160   5.799   3.065   8.849 -0.9362  0.7039 -1.3998
  120MOL0     H16161   6.086   3.208   8.872  2.5727 -0.0659 -0.3480
  120MOL0     H16162   5.966   3.137   8.987  0.3229 -0.4302  0.4411
  120MOL0     H16163   6.114   3.073   8.989 -1.1200  0.8571  0.2696
  120MOL0     H16164   6.487   2.805   8.730 -0.2311  1.5498  3.4258
  120MOL0     H16165   6.739   2.852   8.738  0.9995 -0.8320 -0.7096
  120MOL0     H16166   6.876   3.184   8.449  0.1417  0.6800 -0.2959
  120MOL0     H16167   6.834   3.253   8.605  2.1496  1.2680 -0.5962
  120MOL0     H16168   7.037   3.223   8.686 -2.3144 -1.4034 -0.0365
  120MOL0     H16169   7.085   3.094   8.569 -2.3210 -1.4273 -0.2110
  120MOL0     H16170   7.061   3.382   8.490 -1.9433 -0.8720 -0.5199
  120MOL0     H16171   7.083   3.257   8.377  0.1078 -0.2255  0.0249
  120MOL0     H16172   7.277   3.325   8.607  1.6841 -1.0135  0.2592
  120MOL0     H16173   7.306   3.199   8.502 -1.8206 -0.9979 -2.2070
  120MOL0     H16174   7.294   3.494   8.449  1.5863  1.4258 -3.5653
  120MOL0     H16175   7.280   3.376   8.314  1.2743 -0.1725 -1.2026
  120MOL0     H16176   7.526   3.375   8.496 -4.0082  0.2320  2.7943
  120MOL0     H16177   7.483   3.278   8.360  2.0436  0.7791 -0.4278
  120MOL0     H16178   7.548   3.583   8.390  3.2224  0.6972 -2.5592
  120MOL0     H16179   7.466   3.532   8.259  0.5460 -1.0424 -0.5140
  120MOL0     H16180   7.723   3.388   8.329 -1.6013 -0.1349 -0.3348
  120MOL0     H16181   7.727   3.538   8.236 -0.4141 -0.1378 -0.2141
  120MOL0     H16182   6.655   3.154   8.438  0.4088 -0.2236  0.4532
  120MOL0     H16183   6.431   3.123   8.451  2.4527  2.3693  0.4620
  120MOL0     H16184   6.094   2.837   8.524 -4.1417 -1.5521 -2.2031
  120MOL0     H16185   5.850   2.819   8.494 -0.7791 -0.7905  0.8062
  120MOL0     H16186   4.939   3.430  10.139 -1.9670 -1.2984 -0.7754
  120MOL0     H16187   4.721   3.515  10.102 -1.2246 -1.0470 -1.2669
  120MOL0     H16188   4.429   3.710   9.534 -1.6527 -0.4418 -1.0385
  120MOL0     H16189   4.233   3.843   9.513 -0.4400 -0.6045  0.0885
  120MOL0     H16190   4.002   3.963   9.891 -1.0033 -1.2351 -1.3502
  120MOL0     H16191   4.106   4.105   9.853  0.7073 -1.8640  2.8379
  120MOL0     H16192   3.951   4.203   9.707 -2.1736  2.3833  0.0937
  120MOL0     H16193   3.870   4.168   9.859  1.0244  0.4643 -0.2977
  120MOL0     H16194   3.807   3.950   9.742  0.4274 -0.4912 -0.8293
  120MOL0     H16195   3.837   4.050   9.590 -3.2653  2.2368 -1.2386
  120MOL0     H16196   3.659   4.216   9.751 -3.9592 -1.5325  3.7629
  120MOL0     H16197   3.609   4.045   9.776 -2.3047 -3.7464 -4.6279
  120MOL0     H16198   3.463   4.121   9.385 -1.4315 -0.8170  0.9053
  120MOL0     H16199   4.240   3.902   9.938  2.8069 -3.2605  1.9159
  120MOL0     H16200   4.460   3.825   9.955  1.2837  0.1239  0.7753
  121MOL0     O16201   6.122   8.076   2.976 -0.0294  0.1212  0.1350
  121MOL0     C16202   6.173   7.970   2.934 -0.2537 -0.3885 -0.6095
  121MOL0     O16203   6.233   7.951   2.817 -0.5879 -0.4366  0.4733
  121MOL0     C16204   6.243   8.051   2.724 -0.1439 -0.0701  0.5564
  121MOL0     C16205   6.228   8.191   2.744  0.7124  0.0420 -0.1944
  121MOL0     C16206   6.248   8.273   2.630  0.2734 -1.0855  0.6230
  121MOL0     C16207   6.298   8.227   2.503  0.1096 -0.5059 -0.7443
  121MOL0     O16208   6.345   8.304   2.398 -0.0839  0.0394  0.2436
  121MOL0     C16209   6.318   8.441   2.390 -0.7501  0.2528 -0.4140
  121MOL0     C16210   6.359   8.515   2.261  0.1386  0.0537 -0.1107
  121MOL0     C16211   6.338   8.676   2.273  0.0814  0.0284  0.1423
  121MOL0     C16212   6.199   8.733   2.230 -0.1902  0.6532  0.6354
  121MOL0     C16213   6.204   8.879   2.212 -0.5117 -0.2511 -1.1689
  121MOL0     C16214   6.104   8.940   2.111 -0.7385  0.0444  0.0772
  121MOL0     C16215   5.963   8.924   2.156 -0.0362  0.0495  0.3607
  121MOL0     C16216   5.883   8.999   2.052 -0.1740  0.1899  0.3257
  121MOL0     N16217   5.745   8.973   2.082  0.2099  0.0427  0.1755
  121MOL0     C16218   5.663   8.866   2.051  0.0877 -0.1763  0.2905
  121MOL0     C16219   5.541   8.894   2.097  0.1132  0.0287 -0.6671
  121MOL0     C16220   5.419   8.802   2.072  0.2989 -0.5591 -1.1411
  121MOL0     C16221   5.399   8.714   2.196  0.1366  1.0803  0.0907
  121MOL0     C16222   5.391   8.793   2.323  0.1809 -0.0184 -0.4681
  121MOL0     C16223   5.333   8.702   2.439  0.0856 -0.2652 -0.3590
  121MOL0     O16224   5.363   8.756   2.570  0.2781  0.0995  1.3940
  121MOL0     C16225   5.346   8.892   2.608  1.6292  1.3072  0.2091
  121MOL0     C16226   5.397   8.932   2.730  0.5351 -0.1664  0.0372
  121MOL0     C16227   5.399   9.066   2.772  1.0351  0.6513 -0.1349
  121MOL0     C16228   5.469   9.116   2.897 -0.7376 -1.8042 -0.7509
  121MOL0     C16229   5.315   9.155   2.691  0.4372 -0.2714  0.0688
  121MOL0     C16230   5.298   9.288   2.730 -0.5338 -0.0049  0.8557
  121MOL0     O16231   5.237   9.304   2.848 -0.2068  0.3106 -0.4236
  121MOL0     C16232   5.199   9.438   2.883 -0.3648  0.3882  0.5357
  121MOL0     C16233   5.060   9.473   2.911 -0.0761  0.0892 -0.6801
  121MOL0     C16234   5.023   9.609   2.950  0.0683  0.6242 -0.0476
  121MOL0     C16235   5.122   9.706   2.951  0.9704 -0.1847 -0.2858
  121MOL0     O16236   5.100   9.848   2.953 -0.2492 -0.2708  0.0633
  121MOL0     C16237   4.959   9.882   2.954 -0.0614  0.5791 -0.4874
  121MOL0     C16238   4.941  10.038   2.970  1.0036  0.1021  0.3578
  121MOL0     C16239   4.989  10.086   3.113 -0.6830  0.4040  0.4936
  121MOL0     C16240   4.922  10.210   3.155  0.0321  0.2149 -0.4732
  121MOL0     C16241   4.938  10.329   3.055 -0.2537 -0.2708  0.9054
  121MOL0     C16242   4.860  10.457   3.105 -0.6163 -0.0570  1.2339
  121MOL0     C16243   4.872  10.571   2.998 -0.1559 -0.5210 -0.8212
  121MOL0     C16244   5.018  10.629   2.978  0.6444  1.0640  0.7113
  121MOL0    Cl16245   5.094  10.672   3.132  0.6084 -0.6401  0.3179
  121MOL0     C16246   5.256   9.679   2.925  0.6747  1.0555  0.1822
  121MOL0     C16247   5.294   9.544   2.899  0.2311  0.5837  0.3396
  121MOL0     O16248   5.314   9.374   2.639  0.1987  0.0831 -0.5974
  121MOL0     C16249   5.250   9.111   2.571  0.3310 -0.1907  0.3529
  121MOL0     C16250   5.267   8.980   2.533 -0.6693  0.0838 -0.2101
  121MOL0     N16251   5.544   9.022   2.148  0.4993  0.5020 -0.2039
  121MOL0     N16252   5.666   9.069   2.145  0.2899  0.5672  0.2701
  121MOL0     C16253   6.320   8.092   2.487 -0.7631  0.4033 -0.6258
  121MOL0     C16254   6.290   8.002   2.592 -0.2466  0.5195  0.3463
  121MOL0     C16255   6.163   7.847   3.010  0.4079  0.6041  0.2302
  121MOL0     C16256   6.075   7.842   3.121  0.9694  0.9501 -0.1381
  121MOL0     C16257   6.046   7.713   3.189  1.1974 -1.3996 -0.0647
  121MOL0     C16258   6.123   7.603   3.158  0.7652 -0.3120  0.0336
  121MOL0     O16259   6.120   7.484   3.226  0.0342 -0.3751  0.2609
  121MOL0     C16260   6.106   7.364   3.154 -0.2909  0.3834 -0.1493
  121MOL0     C16261   5.961   7.334   3.135 -0.3007 -0.1490 -0.2595
  121MOL0     C16262   5.949   7.229   3.028 -0.3278 -0.3401  0.0844
  121MOL0     C16263   5.914   7.092   3.064 -0.4332 -0.2840 -0.4947
  121MOL0     C16264   5.868   7.012   2.948 -1.0627  0.9500 -0.3814
  121MOL0     C16265   5.831   6.955   2.849 -0.4426  0.6293  1.2315
  121MOL0     C16266   6.207   7.617   3.042 -0.0829 -0.0410 -0.9610
  121MOL0     C16267   6.235   7.730   2.974 -0.3065  0.0117 -0.7967
  121MOL0     H16268   6.213   8.251   2.833 -1.5843  0.5129 -0.8421
  121MOL0     H16269   6.213   8.375   2.645 -0.9410 -1.5474  1.0840
  121MOL0     H16270   6.214   8.473   2.407 -0.0283  2.3265  0.3872
  121MOL0     H16271   6.365   8.477   2.482 -1.3218 -2.7840  1.2161
  121MOL0     H16272   6.464   8.493   2.236 -0.6874 -2.1482 -2.0400
  121MOL0     H16273   6.303   8.481   2.173 -3.7944 -0.5812  2.4119
  121MOL0     H16274   6.347   8.713   2.375 -1.6735 -0.3548  0.4638
  121MOL0     H16275   6.412   8.725   2.209 -4.5182  3.9019 -2.8708
  121MOL0     H16276   6.192   8.697   2.127 -0.7361  2.3209  0.0643
  121MOL0     H16277   6.108   8.711   2.287 -1.7827 -0.6893 -2.2080
  121MOL0     H16278   6.173   8.913   2.311 -4.5141  0.0784 -2.3498
  121MOL0     H16279   6.308   8.897   2.183 -0.3988 -2.6562 -2.5218
  121MOL0     H16280   6.138   9.037   2.073 -0.2337 -0.8409 -1.8208
  121MOL0     H16281   6.132   8.878   2.026  0.3198 -1.6444  1.5888
  121MOL0     H16282   5.940   8.817   2.159 -0.4102 -0.0376 -2.6132
  121MOL0     H16283   5.943   8.969   2.254  0.3817  1.4327 -0.1544
  121MOL0     H16284   5.901   8.961   1.951  0.7627 -1.4233  1.0585
  121MOL0     H16285   5.901   9.107   2.059 -2.0301  0.7508 -2.2558
  121MOL0     H16286   5.690   8.768   2.012 -0.0076 -0.0913  0.0065
  121MOL0     H16287   5.331   8.867   2.064  0.6011 -0.0755 -0.5939
  121MOL0     H16288   5.440   8.733   1.990  3.3171 -1.7634  0.4985
  121MOL0     H16289   5.483   8.647   2.215  0.3261 -0.0905 -3.9772
  121MOL0     H16290   5.316   8.644   2.182  2.1165 -1.7969  1.6847
  121MOL0     H16291   5.329   8.881   2.303 -1.8903 -1.5072 -1.0156
  121MOL0     H16292   5.488   8.834   2.349  1.5369 -1.9959 -2.0510
  121MOL0     H16293   5.388   8.608   2.432  2.0312  0.7469  0.6789
  121MOL0     H16294   5.227   8.680   2.425  0.6167 -2.0808 -2.0204
  121MOL0     H16295   5.445   8.852   2.785 -1.5888 -1.4163  0.1745
  121MOL0     H16296   5.387   9.164   2.952  0.0501  1.2732 -1.9958
  121MOL0     H16297   5.522   9.035   2.946  0.3123 -0.3417  0.6198
  121MOL0     H16298   5.547   9.191   2.878 -0.0579 -1.5291  2.5565
  121MOL0     H16299   4.977   9.403   2.907  0.6157 -0.6980 -1.6202
  121MOL0     H16300   4.917   9.629   2.967  0.1127  0.2421  0.7563
  121MOL0     H16301   4.908   9.841   2.865  0.1851  2.7970 -1.7189
  121MOL0     H16302   4.895   9.847   3.035  0.9713  3.4620  1.7467
  121MOL0     H16303   4.996  10.088   2.889  0.5279 -0.6357 -0.4373
  121MOL0     H16304   4.834  10.059   2.966  0.2914 -2.7947  1.6404
  121MOL0     H16305   5.091  10.122   3.101 -0.7602  0.7889  0.9334
  121MOL0     H16306   4.992  10.009   3.191  0.9395  0.7474  0.8071
  121MOL0     H16307   4.814  10.193   3.154 -0.1856  1.0953  1.9849
  121MOL0     H16308   4.955  10.224   3.258 -0.0392 -1.8053 -0.1522
  121MOL0     H16309   4.907  10.292   2.957  1.5683  0.4991 -0.0206
  121MOL0     H16310   5.042  10.362   3.060  0.0073 -0.7890 -0.5566
  121MOL0     H16311   4.755  10.431   3.125 -0.5762 -0.8877  0.4294
  121MOL0     H16312   4.907  10.478   3.202  0.9386  0.5612  0.3833
  121MOL0     H16313   4.798  10.647   3.025 -0.1208 -0.4353 -0.9644
  121MOL0     H16314   4.836  10.533   2.902  1.7620  0.6469 -2.0624
  121MOL0     H16315   5.013  10.706   2.902 -0.3045 -1.2566 -1.7348
  121MOL0     H16316   5.071  10.544   2.935 -1.3461 -0.4124  1.0161
  121MOL0     H16317   5.337   9.751   2.920  1.4571  0.4950  2.9190
  121MOL0     H16318   5.398   9.529   2.872  0.1992  1.4130 -0.2813
  121MOL0     H16319   5.189   9.170   2.504 -3.5337 -0.8437  2.9760
  121MOL0     H16320   5.216   8.950   2.442 -0.7647  1.4376 -0.6170
  121MOL0     H16321   6.360   8.081   2.387 -1.1299  3.3408 -1.2101
  121MOL0     H16322   6.311   7.898   2.572 -2.4106 -0.6318  3.4152
  121MOL0     H16323   6.011   7.928   3.138 -2.3893 -1.2884 -0.3815
  121MOL0     H16324   5.976   7.713   3.272  0.7567 -0.4152 -0.4265
  121MOL0     H16325   6.166   7.374   3.063  1.0395 -0.7088  0.5743
  121MOL0     H16326   6.147   7.287   3.220 -0.4485 -0.2185 -0.7427
  121MOL0     H16327   5.899   7.416   3.098  1.8196  1.4129 -0.5328
  121MOL0     H16328   5.902   7.297   3.219  2.8166  0.4453  2.3869
  121MOL0     H16329   6.044   7.216   2.974 -0.6497  0.5135 -0.7162
  121MOL0     H16330   5.878   7.271   2.957 -0.7769  2.8074  2.2007
  121MOL0     H16331   5.822   7.100   3.124  0.0280 -0.3956  0.2401
  121MOL0     H16332   6.003   7.051   3.112 -0.7959  0.4100  0.8338
  121MOL0     H16333   5.808   6.892   2.766  3.0449 -0.9441  1.2881
  121MOL0     H16334   6.262   7.536   2.996 -1.1899  1.2509 -4.8911
  121MOL0     H16335   6.312   7.725   2.898 -2.2744 -0.6312 -2.8167
  122MOL0     O16336   1.875  10.958   8.325 -0.4909  0.0959  0.5366
  122MOL0     C16337   1.875  10.835   8.337 -0.2958  0.8405 -0.1368
  122MOL0     O16338   1.789  10.746   8.281 -0.9999  0.3121  1.3890
  122MOL0     C16339   1.674  10.786   8.215  1.8526 -0.3768  0.5909
  122MOL0     C16340   1.596  10.675   8.171 -0.3882 -0.9416  0.7959
  122MOL0     C16341   1.486  10.689   8.091 -0.5883 -0.2444  0.1533
  122MOL0     C16342   1.449  10.817   8.046  0.2446 -0.3072  0.0997
  122MOL0     O16343   1.330  10.839   7.980  0.0468 -0.0913  0.8780
  122MOL0     C16344   1.211  10.833   8.059 -0.0206 -0.5066  0.0720
  122MOL0     C16345   1.205  10.920   8.196 -0.4136 -0.4161  0.0094
  122MOL0     C16346   1.096  10.875   8.301  0.2669 -1.1795  0.0060
  122MOL0     C16347   0.963  10.900   8.238  0.1453 -0.4945 -0.2775
  122MOL0     C16348   0.856  10.872   8.342 -1.5465  0.0667  0.6331
  122MOL0     C16349   0.853  10.741   8.428 -0.0702  0.0716 -0.0302
  122MOL0     C16350   0.762  10.757   8.544  0.6208  0.0615 -0.1347
  122MOL0     C16351   0.643  10.662   8.505 -0.5612 -0.1467 -0.9623
  122MOL0     N16352   0.562  10.626   8.626  0.1133 -0.7505 -0.2100
  122MOL0     C16353   0.430  10.651   8.630  0.1517 -0.1405  0.1894
  122MOL0     C16354   0.393  10.641   8.758  0.8408  0.1181  0.2105
  122MOL0     C16355   0.259  10.664   8.825 -1.0376 -0.2286  0.1339
  122MOL0     C16356   0.205  10.807   8.815  0.4200 -0.7499 -0.3386
  122MOL0     C16357   0.110  10.841   8.929 -0.3010  0.0916  0.7083
  122MOL0     C16358  -0.007  10.754   8.936  0.2454  0.8643 -0.1222
  122MOL0     O16359  -0.100  10.807   9.035  0.9554 -0.0015  0.2455
  122MOL0     C16360  -0.205  10.730   9.072 -0.7438 -0.3058  0.3957
  122MOL0     C16361  -0.277  10.772   9.184  0.1322  0.5225  0.1951
  122MOL0     C16362  -0.400  10.706   9.229 -0.3363 -0.8637 -0.0390
  122MOL0     C16363  -0.468  10.757   9.355 -0.1431 -0.2114 -0.5336
  122MOL0     C16364  -0.445  10.587   9.166 -0.7257 -0.6905  0.2532
  122MOL0     C16365  -0.559  10.503   9.213 -0.1568  0.1258  0.8789
  122MOL0     O16366  -0.675  10.566   9.225 -0.1625  0.0016 -0.3753
  122MOL0     C16367  -0.784  10.525   9.295 -0.3732 -0.1256  0.3778
  122MOL0     C16368  -0.900  10.603   9.261 -1.2010 -0.3247  0.5234
  122MOL0     C16369  -1.019  10.568   9.332  1.1868 -1.1681 -0.5014
  122MOL0     C16370  -1.023  10.483   9.441  0.4584  0.1625 -0.2783
  122MOL0     O16371  -1.138  10.482   9.518 -1.6666 -0.3610 -0.1469
  122MOL0     C16372  -1.119  10.560   9.638 -0.5580  1.3303 -0.5394
  122MOL0     C16373  -1.254  10.555   9.722  1.0236 -0.4004  0.3585
  122MOL0     C16374  -1.384  10.588   9.644  1.2692  0.6827 -0.3117
  122MOL0     C16375  -1.481  10.681   9.720  0.1890 -0.3969  1.0262
  122MOL0     C16376  -1.615  10.719   9.660 -0.1238  0.3108 -1.0914
  122MOL0     C16377  -1.713  10.604   9.640  0.0835  0.4638  1.2391
  122MOL0     C16378  -1.853  10.641   9.583  0.1265 -0.1471  0.6180
  122MOL0     C16379  -1.851  10.752   9.471 -0.7114 -0.3943 -0.8719
  122MOL0    Cl16380  -1.760  10.707   9.320  0.0517  0.0034  0.5549
  122MOL0     C16381  -0.903  10.413   9.472  0.5651 -0.2762  0.5381
  122MOL0     C16382  -0.788  10.429   9.396  0.4261 -0.2448  0.3986
  122MOL0     O16383  -0.546  10.385   9.227 -0.6079 -0.1474 -0.2432
  122MOL0     C16384  -0.363  10.539   9.066  0.2887 -0.1849  0.5348
  122MOL0     C16385  -0.246  10.609   9.010  0.2386 -0.1468  0.3026
  122MOL0     N16386   0.499  10.591   8.832 -0.5355  0.0419  0.0222
  122MOL0     N16387   0.603  10.591   8.753  0.0510 -0.7998  0.2036
  122MOL0     C16388   1.528  10.925   8.082  0.9618 -0.1028 -0.0566
  122MOL0     C16389   1.643  10.910   8.160  0.0220 -0.1131  0.5039
  122MOL0     C16390   1.990  10.772   8.410  0.1680  1.0162  0.6904
  122MOL0     C16391   2.056  10.840   8.507 -0.3420 -0.1088 -0.0815
  122MOL0     C16392   2.140  10.781   8.599  0.1709  0.3479 -0.5408
  122MOL0     C16393   2.150  10.642   8.585 -0.2357  0.3246  0.6865
  122MOL0     O16394   2.229  10.574   8.682  0.4263  0.0015  0.7909
  122MOL0     C16395   2.300  10.455   8.647 -0.2213 -0.1535 -0.6171
  122MOL0     C16396   2.438  10.489   8.571 -0.6734 -0.2579 -0.0555
  122MOL0     C16397   2.564  10.512   8.657 -0.9651  0.1987 -0.1033
  122MOL0     C16398   2.699  10.556   8.593  0.3767  0.3019 -0.3510
  122MOL0     C16399   2.782  10.439   8.587 -0.4484  0.8437  0.4288
  122MOL0     C16400   2.840  10.337   8.612 -0.7467 -0.5618 -0.3356
  122MOL0     C16401   2.096  10.577   8.479 -0.0730  0.8506 -0.1835
  122MOL0     C16402   2.003  10.638   8.392 -0.2447  0.0907 -0.0867
  122MOL0     H16403   1.621  10.578   8.212  0.1310 -0.0060  2.8416
  122MOL0     H16404   1.425  10.601   8.077 -4.2301  2.2682 -1.2229
  122MOL0     H16405   1.129  10.865   7.994 -0.0440  0.7004  0.6600
  122MOL0     H16406   1.199  10.728   8.084  1.6502 -0.4468  1.2298
  122MOL0     H16407   1.296  10.902   8.254  0.0906 -0.3648 -0.7440
  122MOL0     H16408   1.195  11.025   8.170 -0.1807 -0.5192 -0.5064
  122MOL0     H16409   1.126  10.775   8.337  1.8333  0.4385  3.7607
  122MOL0     H16410   1.096  10.928   8.397 -1.9133 -1.1555  0.0465
  122MOL0     H16411   0.952  11.008   8.220 -4.0935 -0.8516 -0.6384
  122MOL0     H16412   0.957  10.844   8.144  4.6039  1.6753 -2.2129
  122MOL0     H16413   0.855  10.953   8.416 -1.3507 -0.3697  1.1226
  122MOL0     H16414   0.761  10.887   8.291 -0.6400  0.1025 -1.0899
  122MOL0     H16415   0.833  10.653   8.366 -1.3675 -1.0185  1.8621
  122MOL0     H16416   0.952  10.718   8.470 -0.7008 -2.7654  0.0938
  122MOL0     H16417   0.818  10.724   8.632 -0.5152 -1.0441  0.1878
  122MOL0     H16418   0.740  10.858   8.582  0.4747 -0.5227  1.4096
  122MOL0     H16419   0.667  10.569   8.453 -2.2878 -1.3345  0.2888
  122MOL0     H16420   0.587  10.717   8.429 -3.3891 -0.7609  0.5534
  122MOL0     H16421   0.365  10.689   8.552 -0.5194 -1.1632  0.2324
  122MOL0     H16422   0.189  10.590   8.785 -0.9589  0.4650 -1.3334
  122MOL0     H16423   0.263  10.638   8.932 -2.3815  1.2168  0.5703
  122MOL0     H16424   0.156  10.823   8.719 -1.7959  0.7878  0.9478
  122MOL0     H16425   0.285  10.879   8.837 -2.3311  1.8207  2.2425
  122MOL0     H16426   0.078  10.945   8.918 -1.0065 -0.1972 -0.0492
  122MOL0     H16427   0.170  10.835   9.020 -0.3454  0.9957  0.8085
  122MOL0     H16428   0.028  10.655   8.967 -2.0432 -0.0929 -0.3738
  122MOL0     H16429  -0.072  10.755   8.848 -1.0865 -2.4039  0.6701
  122MOL0     H16430  -0.254  10.871   9.222 -1.0262  2.3270 -3.3677
  122MOL0     H16431  -0.417  10.841   9.403 -0.6623 -0.9015  1.3541
  122MOL0     H16432  -0.572  10.781   9.331 -0.0269 -0.8448 -1.7325
  122MOL0     H16433  -0.461  10.682   9.434 -0.0901 -1.5688 -1.7959
  122MOL0     H16434  -0.888  10.681   9.186 -2.2020  1.7790  2.3980
  122MOL0     H16435  -1.109  10.627   9.316 -0.7985 -3.8485  0.0816
  122MOL0     H16436  -1.049  10.508   9.703 -2.5474 -1.1849 -0.2390
  122MOL0     H16437  -1.096  10.665   9.615  1.4064  0.4013 -3.3340
  122MOL0     H16438  -1.260  10.459   9.774 -2.6958  1.7018  4.4635
  122MOL0     H16439  -1.248  10.629   9.802 -3.0899  1.6753 -0.9563
  122MOL0     H16440  -1.435  10.496   9.614 -0.1550 -0.0476  3.6720
  122MOL0     H16441  -1.371  10.658   9.561  0.0073  2.4988  0.9332
  122MOL0     H16442  -1.497  10.645   9.822  0.8015 -0.0478  1.2520
  122MOL0     H16443  -1.442  10.781   9.739 -0.3332 -0.4966  2.7470
  122MOL0     H16444  -1.601  10.788   9.577  0.2645  2.7057  0.8442
  122MOL0     H16445  -1.659  10.786   9.735  0.2901  1.9341 -2.2615
  122MOL0     H16446  -1.674  10.525   9.575  1.2310  1.5302  0.6034
  122MOL0     H16447  -1.735  10.563   9.739 -0.8773  1.4424  1.4638
  122MOL0     H16448  -1.921  10.654   9.668 -0.9519 -1.9030  0.0742
  122MOL0     H16449  -1.889  10.561   9.517 -2.2186  1.1763  0.2087
  122MOL0     H16450  -1.810  10.839   9.522  1.4936 -0.4667 -2.4060
  122MOL0     H16451  -1.950  10.787   9.441  0.4502  1.7657 -2.4437
  122MOL0     H16452  -0.893  10.357   9.565  1.0102  0.1531  0.7533
  122MOL0     H16453  -0.695  10.385   9.429  0.0712 -0.6076  0.9233
  122MOL0     H16454  -0.388  10.445   9.018  1.2648  0.0238 -0.4055
  122MOL0     H16455  -0.187  10.569   8.928  2.2777  0.6787  1.2961
  122MOL0     H16456   1.500  11.024   8.048  1.0664 -0.1318 -0.2268
  122MOL0     H16457   1.697  11.002   8.178  1.2272 -0.7854  0.4021
  122MOL0     H16458   2.065  10.948   8.504  1.0104 -0.1972 -0.1390
  122MOL0     H16459   2.201  10.838   8.669  2.3420 -0.1062 -1.9668
  122MOL0     H16460   2.310  10.400   8.742 -3.4530 -2.4625 -1.4243
  122MOL0     H16461   2.248  10.388   8.577  0.6758 -1.3596 -0.1706
  122MOL0     H16462   2.424  10.575   8.506 -0.6205 -1.1491 -1.2780
  122MOL0     H16463   2.454  10.397   8.513 -0.0703 -0.2853  0.1464
  122MOL0     H16464   2.572  10.423   8.721  3.2599  1.2779  1.1837
  122MOL0     H16465   2.548  10.610   8.703  4.7519  2.5577 -2.2657
  122MOL0     H16466   2.745  10.629   8.660 -1.8888 -1.9137  4.1034
  122MOL0     H16467   2.676  10.594   8.493 -0.1473 -2.6542 -1.4575
  122MOL0     H16468   2.902  10.258   8.650 -4.6027 -3.2361  0.9041
  122MOL0     H16469   2.107  10.471   8.461 -1.2701  1.1470 -3.3026
  122MOL0     H16470   1.961  10.579   8.311  1.4515 -0.4731 -0.5950
  123MOL0     O16471   9.035   3.654   4.327  0.4952  0.3218 -0.1830
  123MOL0     C16472   8.931   3.592   4.326  0.1073 -0.0982  0.4307
  123MOL0     O16473   8.853   3.578   4.212 -0.0835  0.2962  0.0332
  123MOL0     C16474   8.902   3.616   4.093  0.1753 -0.5553 -0.7616
  123MOL0     C16475   8.970   3.526   4.011 -0.6085  0.1365  1.5375
  123MOL0     C16476   9.012   3.567   3.883 -0.5037  0.7713 -0.1793
  123MOL0     C16477   8.997   3.694   3.835 -0.5611  0.5163  0.1581
  123MOL0     O16478   9.019   3.721   3.704 -0.2915  0.4082  0.0136
  123MOL0     C16479   9.152   3.698   3.649  0.4554 -1.3297 -0.3987
  123MOL0     C16480   9.177   3.563   3.569  0.0896  0.9882  0.6424
  123MOL0     C16481   9.095   3.567   3.438  0.5362  1.0357  0.4791
  123MOL0     C16482   9.091   3.438   3.361 -0.6045 -0.0952  0.5618
  123MOL0     C16483   9.226   3.395   3.304 -0.0476  0.8501  0.5676
  123MOL0     C16484   9.263   3.249   3.275 -0.3312  0.0673 -0.0597
  123MOL0     C16485   9.413   3.214   3.269 -0.1982 -0.5363  0.4080
  123MOL0     C16486   9.466   3.185   3.412  0.1290  0.2772 -0.3683
  123MOL0     N16487   9.515   3.310   3.484 -0.4785 -0.0459  1.0946
  123MOL0     C16488   9.488   3.348   3.611  0.7698 -0.4105 -0.0653
  123MOL0     C16489   9.567   3.454   3.641 -0.3810 -0.1068 -0.7735
  123MOL0     C16490   9.565   3.535   3.774 -0.4562 -0.6476  0.2908
  123MOL0     C16491   9.536   3.681   3.777  0.1480 -0.4355  1.3907
  123MOL0     C16492   9.564   3.733   3.913  0.4414 -0.3383  1.1519
  123MOL0     C16493   9.511   3.873   3.929 -0.3857 -0.0611 -0.3520
  123MOL0     O16494   9.363   3.876   3.923  0.7890 -0.6090 -0.3266
  123MOL0     C16495   9.305   3.966   4.002 -0.1279 -0.6330  0.2195
  123MOL0     C16496   9.344   4.105   4.008  0.3060 -0.8762  0.6324
  123MOL0     C16497   9.285   4.189   4.099 -0.9789 -0.6525  0.4341
  123MOL0     C16498   9.347   4.330   4.112  0.8538  0.6650 -0.0461
  123MOL0     C16499   9.183   4.146   4.189 -0.2116  1.2148  0.0535
  123MOL0     C16500   9.124   4.222   4.299  0.3876 -0.1350 -1.2713
  123MOL0     O16501   9.053   4.141   4.383 -0.2230 -0.3424 -1.1253
  123MOL0     C16502   8.980   4.193   4.489  1.1063  0.1991 -0.4066
  123MOL0     C16503   9.034   4.249   4.609 -0.9046  0.6318  0.1226
  123MOL0     C16504   8.950   4.286   4.718 -0.9138 -0.2919  0.4756
  123MOL0     C16505   8.809   4.285   4.696 -0.7639  1.1582  0.6373
  123MOL0     O16506   8.712   4.319   4.785 -0.7477  0.3104  0.2418
  123MOL0     C16507   8.738   4.284   4.927  0.9446  0.5538  1.0566
  123MOL0     C16508   8.699   4.138   4.937  0.3462  0.1301 -0.3762
  123MOL0     C16509   8.572   4.093   4.863 -0.2066 -0.2453  1.3430
  123MOL0     C16510   8.453   4.177   4.917  0.7298  0.4940 -0.0550
  123MOL0     C16511   8.391   4.081   5.024  0.3841  0.1808 -0.9005
  123MOL0     C16512   8.273   4.152   5.093  1.0133 -1.2136 -0.2550
  123MOL0     C16513   8.233   4.074   5.217 -0.0580  0.7299 -0.1822
  123MOL0     C16514   8.090   4.126   5.272 -0.0874 -0.5138  0.1525
  123MOL0    Cl16515   7.966   4.085   5.165 -0.1465  0.3574  0.2766
  123MOL0     C16516   8.761   4.238   4.581  0.6725 -0.3325  0.6508
  123MOL0     C16517   8.844   4.187   4.472  0.4730  0.3176  0.1621
  123MOL0     O16518   9.155   4.339   4.323  0.3954  0.6383 -0.4874
  123MOL0     C16519   9.143   4.009   4.182  0.2969  0.0413 -0.4714
  123MOL0     C16520   9.209   3.922   4.089 -0.4970 -0.7808  0.1646
  123MOL0     N16521   9.657   3.470   3.537 -0.6985  0.1120 -0.1349
  123MOL0     N16522   9.618   3.393   3.443  0.0024 -0.5122 -0.9154
  123MOL0     C16523   8.940   3.793   3.926 -0.5804 -0.5560 -0.1990
  123MOL0     C16524   8.896   3.751   4.051  0.1896  0.6913 -0.5077
  123MOL0     C16525   8.861   3.568   4.454 -0.3881  1.4383 -0.7039
  123MOL0     C16526   8.930   3.494   4.556  0.5667 -1.3347  0.2797
  123MOL0     C16527   8.863   3.450   4.672  1.1583 -0.6031  0.6295
  123MOL0     C16528   8.732   3.507   4.694  0.7890  1.5426  0.0421
  123MOL0     O16529   8.648   3.507   4.807 -0.1322  0.1136  0.3950
  123MOL0     C16530   8.700   3.430   4.918  0.2646  0.3094  0.2030
  123MOL0     C16531   8.631   3.423   5.050 -0.5407  0.2592  0.6219
  123MOL0     C16532   8.629   3.565   5.114  0.4032  1.2515 -0.8681
  123MOL0     C16533   8.731   3.568   5.228  0.1115 -1.5781 -0.9488
  123MOL0     C16534   8.853   3.492   5.225  0.0984  0.7539 -0.3374
  123MOL0     C16535   8.949   3.434   5.198 -0.5480  0.8384 -0.2644
  123MOL0     C16536   8.662   3.563   4.582  0.8323 -0.2317  0.5611
  123MOL0     C16537   8.726   3.595   4.466 -0.1919 -0.6372  0.0834
  123MOL0     H16538   8.986   3.422   4.040  2.6850 -0.5609 -1.9638
  123MOL0     H16539   9.061   3.495   3.817  2.3073 -1.4095  3.8878
  123MOL0     H16540   9.177   3.790   3.596 -2.0539 -0.6136 -0.4692
  123MOL0     H16541   9.215   3.701   3.739 -2.2433 -0.3821  1.5706
  123MOL0     H16542   9.284   3.566   3.547 -0.1144  0.7845 -0.4147
  123MOL0     H16543   9.162   3.481   3.640  3.0256  1.3011  1.7559
  123MOL0     H16544   8.991   3.585   3.467 -0.7920 -0.9395 -2.4878
  123MOL0     H16545   9.120   3.643   3.362  0.1094 -0.3896 -1.1497
  123MOL0     H16546   9.057   3.357   3.427 -0.0990 -2.6980 -2.1489
  123MOL0     H16547   9.028   3.447   3.271  2.8355 -0.8207 -2.1294
  123MOL0     H16548   9.243   3.439   3.206  3.8120 -0.0689  0.6349
  123MOL0     H16549   9.311   3.436   3.361  0.9199  3.8512 -2.6673
  123MOL0     H16550   9.213   3.195   3.357  1.3274 -0.1627  0.8480
  123MOL0     H16551   9.224   3.213   3.179  1.4340  2.5372 -1.8184
  123MOL0     H16552   9.419   3.125   3.207 -0.7896  0.9055 -1.8330
  123MOL0     H16553   9.480   3.279   3.212  0.1321 -2.5353 -1.5849
  123MOL0     H16554   9.548   3.112   3.412 -0.1429 -0.1840 -3.7488
  123MOL0     H16555   9.383   3.142   3.469  0.3662 -2.1880 -1.7457
  123MOL0     H16556   9.414   3.303   3.676  4.8395 -3.6812  2.7834
  123MOL0     H16557   9.496   3.473   3.831 -0.0608  0.7810  2.4391
  123MOL0     H16558   9.669   3.520   3.805  0.2900  0.8560 -1.2719
  123MOL0     H16559   9.432   3.704   3.755  0.5775 -0.1608 -0.5026
  123MOL0     H16560   9.595   3.737   3.704 -1.8005 -0.0540  0.0625
  123MOL0     H16561   9.669   3.716   3.936  0.1101 -3.2637  0.8971
  123MOL0     H16562   9.515   3.665   3.983 -2.0642 -1.1745 -1.2350
  123MOL0     H16563   9.562   3.937   3.857 -0.1567  2.9701  2.2593
  123MOL0     H16564   9.537   3.906   4.030  1.1188  1.9292 -1.3162
  123MOL0     H16565   9.424   4.141   3.945  2.4531 -1.2495  2.9717
  123MOL0     H16566   9.406   4.350   4.022 -2.3223  0.2406 -2.4011
  123MOL0     H16567   9.265   4.402   4.114  0.2218 -0.0287  2.4655
  123MOL0     H16568   9.402   4.343   4.205  1.0894  3.0191 -0.4610
  123MOL0     H16569   9.139   4.255   4.634 -1.5743 -2.3086  4.9245
  123MOL0     H16570   8.998   4.319   4.810 -1.2141  0.5782  0.3365
  123MOL0     H16571   8.843   4.305   4.951  0.9839  1.1132  0.4112
  123MOL0     H16572   8.676   4.343   4.996  0.0581  2.2673 -1.0898
  123MOL0     H16573   8.783   4.082   4.895  1.2866  1.1318  0.1158
  123MOL0     H16574   8.688   4.112   5.043 -2.7649 -0.6580 -0.7910
  123MOL0     H16575   8.557   3.985   4.872  0.6465 -0.7161 -1.7380
  123MOL0     H16576   8.578   4.123   4.758 -2.5751 -0.7141  1.0319
  123MOL0     H16577   8.474   4.277   4.955 -0.8607  0.4350  1.0591
  123MOL0     H16578   8.375   4.195   4.842 -1.0684  3.7366  2.3236
  123MOL0     H16579   8.469   4.065   5.099  0.0926  1.9436 -0.1680
  123MOL0     H16580   8.359   3.994   4.966  3.5486  1.3169 -4.7608
  123MOL0     H16581   8.303   4.254   5.117 -2.3722 -0.1814  0.1132
  123MOL0     H16582   8.197   4.157   5.015 -0.3599  1.8547  1.1345
  123MOL0     H16583   8.301   4.100   5.299 -1.9151 -0.1961  1.7797
  123MOL0     H16584   8.232   3.969   5.187  1.2449  0.4852  0.5775
  123MOL0     H16585   8.082   4.234   5.256  0.7868 -0.8022 -3.1369
  123MOL0     H16586   8.069   4.085   5.371 -1.2769 -1.3861 -0.4438
  123MOL0     H16587   8.653   4.249   4.577  0.4879 -0.8177  2.9919
  123MOL0     H16588   8.798   4.138   4.387  0.6081 -1.5436  1.1064
  123MOL0     H16589   9.049   3.976   4.225  0.6451 -1.8424 -1.0615
  123MOL0     H16590   9.191   3.815   4.084  1.2293 -1.0515 -1.4491
  123MOL0     H16591   8.948   3.898   3.901  0.9135  0.1078  2.5427
  123MOL0     H16592   8.855   3.824   4.119  0.1598  0.4572 -0.2703
  123MOL0     H16593   9.024   3.444   4.536  0.4095 -0.7945 -2.1464
  123MOL0     H16594   8.905   3.373   4.737 -2.1354 -1.4134  2.0207
  123MOL0     H16595   8.720   3.333   4.870  0.8726  0.0392  0.9832
  123MOL0     H16596   8.798   3.475   4.931  0.2131  0.4287  0.1777
  123MOL0     H16597   8.683   3.339   5.097  0.3644 -1.0867 -2.5241
  123MOL0     H16598   8.524   3.403   5.036 -0.3924  0.2136 -0.4764
  123MOL0     H16599   8.531   3.587   5.156 -0.3212  1.0046 -2.3775
  123MOL0     H16600   8.648   3.639   5.035 -1.8341  1.4927 -1.2327
  123MOL0     H16601   8.674   3.529   5.313 -0.6761  0.1227 -0.6688
  123MOL0     H16602   8.759   3.672   5.247  0.9150 -1.7139 -1.3440
  123MOL0     H16603   9.029   3.365   5.178 -1.2701  0.6270 -2.6757
  123MOL0     H16604   8.560   3.595   4.597  0.4255 -1.0760 -0.3164
  123MOL0     H16605   8.675   3.641   4.383 -0.6085  1.4341  1.4056
  124MOL0     O16606   0.543   5.617   4.942 -0.7097  0.6721 -0.3453
  124MOL0     C16607   0.653   5.567   4.967  1.1595  1.0230  0.3989
  124MOL0     O16608   0.732   5.483   4.888  0.6872  0.0336  0.0910
  124MOL0     C16609   0.684   5.461   4.764 -0.3793  0.0866  0.6285
  124MOL0     C16610   0.611   5.346   4.726  0.9361  0.2346  1.3893
  124MOL0     C16611   0.577   5.332   4.591 -0.4375 -0.5355  0.4598
  124MOL0     C16612   0.604   5.426   4.489  0.3139  0.8870 -0.5144
  124MOL0     O16613   0.565   5.414   4.360 -0.4253 -0.8958  0.0932
  124MOL0     C16614   0.634   5.313   4.293 -0.0065  0.8752  0.2115
  124MOL0     C16615   0.551   5.266   4.169 -0.2276 -0.1069  0.3659
  124MOL0     C16616   0.558   5.358   4.046 -0.5050 -0.3248  0.7885
  124MOL0     C16617   0.469   5.315   3.931  0.0807 -0.3808 -0.2765
  124MOL0     C16618   0.321   5.371   3.927  0.5480  0.5690  0.3622
  124MOL0     C16619   0.246   5.303   3.823  0.0561 -0.2235  0.4478
  124MOL0     C16620   0.106   5.269   3.867  0.7183  0.8465 -0.3289
  124MOL0     C16621   0.074   5.123   3.858  0.8647 -0.4179 -0.7677
  124MOL0     N16622   0.140   5.046   3.964 -0.7754 -1.1606 -0.4447
  124MOL0     C16623   0.141   5.063   4.097 -1.1767  0.6641 -1.3578
  124MOL0     C16624   0.249   4.993   4.137 -0.8883  1.1290  0.1970
  124MOL0     C16625   0.301   4.973   4.274  0.9008  0.3979 -0.6043
  124MOL0     C16626   0.193   4.908   4.361 -0.5144  0.5711 -0.0842
  124MOL0     C16627   0.239   4.903   4.515 -0.0491  0.1181 -1.0082
  124MOL0     C16628   0.129   4.963   4.603 -0.9205 -0.8846  0.3786
  124MOL0     O16629   0.157   4.897   4.723 -0.0543  0.1275  0.2285
  124MOL0     C16630   0.053   4.905   4.815  0.7673 -0.5041 -0.2700
  124MOL0     C16631  -0.050   5.005   4.824 -0.4827  0.2403  0.5678
  124MOL0     C16632  -0.167   4.999   4.906 -0.5787 -0.4603  0.2611
  124MOL0     C16633  -0.280   5.098   4.895  0.6611  0.5780 -0.4799
  124MOL0     C16634  -0.164   4.891   4.993  1.1848 -0.0899  0.0168
  124MOL0     C16635  -0.282   4.880   5.083  0.7551 -0.0820 -0.1850
  124MOL0     O16636  -0.304   4.747   5.102 -0.7305 -0.3956  1.0223
  124MOL0     C16637  -0.289   4.685   5.216 -0.3218 -0.3907  0.1273
  124MOL0     C16638  -0.285   4.742   5.349 -0.2749  1.1469 -0.2997
  124MOL0     C16639  -0.292   4.646   5.447 -0.3446  0.0504 -0.2661
  124MOL0     C16640  -0.262   4.513   5.425  0.8884 -1.0047 -0.0523
  124MOL0     O16641  -0.237   4.430   5.531  0.0275 -0.2464 -0.0224
  124MOL0     C16642  -0.251   4.293   5.516  1.1105 -0.0836 -0.3116
  124MOL0     C16643  -0.244   4.235   5.652  1.1126 -0.1624  0.9685
  124MOL0     C16644  -0.376   4.269   5.728 -0.2910 -0.3729  0.3418
  124MOL0     C16645  -0.388   4.192   5.857 -0.8277 -0.6454  0.4560
  124MOL0     C16646  -0.515   4.243   5.933  0.6880 -0.1602 -0.9345
  124MOL0     C16647  -0.483   4.381   5.988  0.0689 -0.2072 -0.6636
  124MOL0     C16648  -0.582   4.415   6.106 -0.3104 -0.2187  0.9481
  124MOL0     C16649  -0.729   4.417   6.055  0.4106 -0.7420 -0.6218
  124MOL0    Cl16650  -0.831   4.439   6.206  0.0836 -0.2859  0.1111
  124MOL0     C16651  -0.280   4.471   5.292  0.4552 -0.2659 -0.3340
  124MOL0     C16652  -0.292   4.553   5.187  0.2489 -0.1934 -0.0659
  124MOL0     O16653  -0.345   4.970   5.138  0.3352  0.7316  0.6781
  124MOL0     C16654  -0.065   4.792   4.998 -0.6097 -0.6671  0.2995
  124MOL0     C16655   0.046   4.806   4.916 -0.3871 -0.9410 -0.1867
  124MOL0     N16656   0.293   4.910   4.030 -0.0782 -0.7651 -0.3087
  124MOL0     N16657   0.230   4.951   3.930  0.2695 -0.6024 -0.0428
  124MOL0     C16658   0.672   5.546   4.529 -0.7633 -0.5828 -0.4716
  124MOL0     C16659   0.717   5.558   4.666  0.9303  0.3513 -0.7663
  124MOL0     C16660   0.712   5.584   5.100 -0.8459 -0.2937 -0.3576
  124MOL0     C16661   0.827   5.514   5.149 -0.5254  0.4588  1.0505
  124MOL0     C16662   0.878   5.534   5.274  0.2795  0.5313  0.2768
  124MOL0     C16663   0.812   5.608   5.371 -0.4713  0.4399  0.6324
  124MOL0     O16664   0.855   5.625   5.499  0.2661  0.7755 -0.2404
  124MOL0     C16665   0.990   5.616   5.540 -0.3383 -0.3019 -0.0611
  124MOL0     C16666   1.022   5.749   5.605  0.1522  0.0829  0.0222
  124MOL0     C16667   0.957   5.747   5.751  0.7283  0.1650  0.6497
  124MOL0     C16668   0.909   5.888   5.787 -0.7543  1.6226  0.2499
  124MOL0     C16669   1.012   5.997   5.783 -0.0463  0.6456  0.4848
  124MOL0     C16670   1.098   6.085   5.784  0.1705 -0.1817 -0.3373
  124MOL0     C16671   0.700   5.681   5.325  0.1512  0.2198  0.8280
  124MOL0     C16672   0.654   5.674   5.194 -0.8143 -0.0454  1.2736
  124MOL0     H16673   0.575   5.277   4.801  1.1707  1.4550  2.6651
  124MOL0     H16674   0.512   5.245   4.586  3.0245 -3.4049  1.6826
  124MOL0     H16675   0.728   5.345   4.248  0.1391  0.0088 -0.1366
  124MOL0     H16676   0.666   5.225   4.350  1.6636  1.2795 -0.0662
  124MOL0     H16677   0.580   5.162   4.149 -2.7460 -0.8153  0.0105
  124MOL0     H16678   0.442   5.262   4.185 -0.1386 -0.1316  0.9635
  124MOL0     H16679   0.516   5.455   4.077 -1.3401 -0.7481  1.0135
  124MOL0     H16680   0.655   5.368   3.997 -1.3608 -0.1953 -0.9570
  124MOL0     H16681   0.512   5.358   3.840 -1.6465 -1.3817 -1.6231
  124MOL0     H16682   0.478   5.208   3.912  0.0577 -0.1922 -1.4361
  124MOL0     H16683   0.281   5.346   4.026 -2.1907 -1.5718 -1.1217
  124MOL0     H16684   0.321   5.479   3.915 -1.5498  0.5174 -0.5492
  124MOL0     H16685   0.239   5.360   3.729  2.1732  0.5256  0.7025
  124MOL0     H16686   0.317   5.225   3.795  3.0955  2.6395 -0.4738
  124MOL0     H16687   0.089   5.294   3.972 -3.8232 -0.8127 -0.4487
  124MOL0     H16688   0.031   5.313   3.801 -2.7881 -0.1885  2.6322
  124MOL0     H16689   0.098   5.078   3.761  0.2090 -3.3292  0.3066
  124MOL0     H16690  -0.035   5.113   3.858  0.7961 -0.4457 -3.5555
  124MOL0     H16691   0.088   5.137   4.156 -1.0623 -0.9952  0.9985
  124MOL0     H16692   0.392   4.912   4.277  1.5539  1.3694  0.9075
  124MOL0     H16693   0.329   5.071   4.314  0.1153 -0.1592  1.3946
  124MOL0     H16694   0.175   4.807   4.324 -0.1545  0.1226  0.9383
  124MOL0     H16695   0.097   4.957   4.342 -0.4235  1.3384  1.2879
  124MOL0     H16696   0.332   4.952   4.546  0.7315 -1.4560 -0.7649
  124MOL0     H16697   0.268   4.800   4.538  2.2375  0.3368 -2.5011
  124MOL0     H16698   0.032   4.925   4.570 -0.7772 -0.2725 -0.7721
  124MOL0     H16699   0.126   5.071   4.622  1.6889 -0.6868  0.0573
  124MOL0     H16700  -0.049   5.092   4.759  1.1887 -1.7514 -2.2987
  124MOL0     H16701  -0.259   5.180   4.826  1.0352 -0.1219 -1.2183
  124MOL0     H16702  -0.370   5.042   4.869  1.7263 -1.0999 -0.7461
  124MOL0     H16703  -0.299   5.149   4.990 -1.0682 -3.0003  1.3030
  124MOL0     H16704  -0.292   4.850   5.355 -3.4320  0.9515  2.3653
  124MOL0     H16705  -0.294   4.668   5.553  1.0597 -1.0846  0.0309
  124MOL0     H16706  -0.339   4.267   5.457  1.1934 -0.9393 -0.0828
  124MOL0     H16707  -0.167   4.240   5.468  0.5834  0.6884 -2.1852
  124MOL0     H16708  -0.225   4.129   5.634  1.0515  0.4909 -5.0256
  124MOL0     H16709  -0.159   4.287   5.698  1.2694 -2.0854  3.0067
  124MOL0     H16710  -0.465   4.244   5.671 -0.7381  1.8517 -0.0139
  124MOL0     H16711  -0.383   4.376   5.747 -2.0440 -0.1055 -1.5358
  124MOL0     H16712  -0.395   4.087   5.826 -2.2129 -0.6249  0.6376
  124MOL0     H16713  -0.298   4.199   5.918  1.2914  1.1558 -2.6037
  124MOL0     H16714  -0.562   4.174   6.004  0.0785  2.1819  1.1035
  124MOL0     H16715  -0.590   4.266   5.857  2.2016  0.3043 -2.3249
  124MOL0     H16716  -0.380   4.381   6.023 -0.1177  0.6862 -0.0995
  124MOL0     H16717  -0.472   4.460   5.913 -0.7119 -1.1019 -1.7741
  124MOL0     H16718  -0.556   4.514   6.147  0.4600 -0.2745  0.6226
  124MOL0     H16719  -0.562   4.345   6.186 -2.6306  0.0526  1.8411
  124MOL0     H16720  -0.745   4.322   6.004  4.9084 -0.3602 -3.3407
  124MOL0     H16721  -0.736   4.497   5.981 -0.7495  0.7441  1.0050
  124MOL0     H16722  -0.286   4.365   5.268 -1.1708 -0.2836  0.0515
  124MOL0     H16723  -0.310   4.515   5.087  0.0336  1.1048 -0.5339
  124MOL0     H16724  -0.062   4.719   5.078  0.6093 -1.3196 -0.3096
  124MOL0     H16725   0.119   4.727   4.928 -0.9984 -1.4962 -0.0601
  124MOL0     H16726   0.688   5.620   4.451  1.4402  2.7006  2.7605
  124MOL0     H16727   0.750   5.653   4.706 -2.4722  1.2976  0.1143
  124MOL0     H16728   0.879   5.444   5.086  0.4299  0.4249  1.8412
  124MOL0     H16729   0.966   5.474   5.296  0.0214  0.7490  2.0840
  124MOL0     H16730   1.009   5.532   5.608  0.4996 -1.0139 -1.1501
  124MOL0     H16731   1.049   5.605   5.449 -0.0449  1.0277 -0.0427
  124MOL0     H16732   0.976   5.826   5.543 -3.2536 -0.0905  2.1012
  124MOL0     H16733   1.132   5.746   5.613  0.1774 -1.9926 -0.5334
  124MOL0     H16734   1.029   5.706   5.822  0.5655 -0.9408  0.1917
  124MOL0     H16735   0.873   5.677   5.759  2.3273 -2.0871 -1.2931
  124MOL0     H16736   0.882   5.870   5.892 -0.4776 -3.0658 -0.3038
  124MOL0     H16737   0.820   5.923   5.733 -1.8045 -0.9426  0.1884
  124MOL0     H16738   1.181   6.153   5.783  0.8945 -0.9345  1.9249
  124MOL0     H16739   0.650   5.751   5.391 -2.8225 -1.2060  0.2512
  124MOL0     H16740   0.572   5.734   5.155  0.0965 -0.1514 -0.9597
  125MOL0     O16741   1.894   1.096  11.280  0.2807 -0.0510 -0.6093
  125MOL0     C16742   1.792   1.123  11.219  0.2556 -0.7600  0.0999
  125MOL0     O16743   1.667   1.068  11.241 -0.2175 -1.0257  0.0302
  125MOL0     C16744   1.651   0.986  11.345 -0.6131 -0.4093 -0.2102
  125MOL0     C16745   1.607   1.042  11.470  0.0774 -0.5402 -0.7152
  125MOL0     C16746   1.603   0.960  11.588  0.1528  0.7624  0.2760
  125MOL0     C16747   1.610   0.818  11.578 -0.9195 -0.1205 -0.1536
  125MOL0     O16748   1.631   0.732  11.683  0.1490  0.2076  0.4545
  125MOL0     C16749   1.595   0.778  11.809  0.1537  0.4094  0.4032
  125MOL0     C16750   1.557   0.645  11.894 -0.4606  0.3390  0.7423
  125MOL0     C16751   1.672   0.542  11.893  0.5885  0.3675 -0.7306
  125MOL0     C16752   1.613   0.416  11.953  0.1334  1.0135  0.3978
  125MOL0     C16753   1.701   0.294  11.934 -0.9027 -0.0032  0.3374
  125MOL0     C16754   1.846   0.301  12.007  0.6361  0.7028 -0.3331
  125MOL0     C16755   1.858   0.225  12.144 -0.4530  0.7937  0.0776
  125MOL0     C16756   1.951   0.289  12.253  0.3894 -0.5989 -0.0077
  125MOL0     N16757   1.938   0.437  12.263 -0.7414 -0.3399 -0.1831
  125MOL0     C16758   1.821   0.507  12.265  0.2089  0.2780 -0.1234
  125MOL0     C16759   1.856   0.638  12.273  1.0215  0.8257 -0.8410
  125MOL0     C16760   1.764   0.748  12.283  1.3360 -0.9943 -0.4138
  125MOL0     C16761   1.830   0.860  12.375  0.8408  1.1229  0.8247
  125MOL0     C16762   1.799   1.013  12.324  0.2751  0.4304 -0.7682
  125MOL0     C16763   1.870   1.056  12.192  0.8425  0.4949 -0.0341
  125MOL0     O16764   1.789   1.024  12.076 -0.4637  0.0802 -0.1675
  125MOL0     C16765   1.811   1.095  11.958  0.3617 -0.5868 -0.9450
  125MOL0     C16766   1.929   1.172  11.930 -0.7629  0.1516  0.3093
  125MOL0     C16767   1.946   1.266  11.830  0.2791 -0.3496 -0.5895
  125MOL0     C16768   2.065   1.358  11.833 -0.3830  0.0871 -0.0554
  125MOL0     C16769   1.835   1.291  11.743  0.7096  0.6385  0.5834
  125MOL0     C16770   1.829   1.386  11.632 -0.0272  0.3143  0.5693
  125MOL0     O16771   1.724   1.362  11.552 -0.1372  0.6643  0.1403
  125MOL0     C16772   1.687   1.437  11.443 -0.0733 -0.2886 -0.1658
  125MOL0     C16773   1.774   1.468  11.338  0.4605 -0.3010  0.6156
  125MOL0     C16774   1.730   1.541  11.230 -1.1186  0.2145 -0.5045
  125MOL0     C16775   1.600   1.578  11.209 -1.3893  0.0856 -0.8647
  125MOL0     O16776   1.578   1.646  11.091  0.4900 -0.3894 -0.3824
  125MOL0     C16777   1.448   1.649  11.030 -0.1775 -0.9998 -0.2746
  125MOL0     C16778   1.407   1.523  10.960  0.7711 -1.0124 -0.8366
  125MOL0     C16779   1.389   1.398  11.050 -0.1739  0.5364  0.0398
  125MOL0     C16780   1.358   1.276  10.971 -0.0137  0.6577  0.2256
  125MOL0     C16781   1.317   1.163  11.066 -0.2398  0.3418  0.7769
  125MOL0     C16782   1.276   1.036  10.998 -0.5802  0.0854  0.3896
  125MOL0     C16783   1.406   0.954  10.962  0.2730  0.0791  0.1598
  125MOL0     C16784   1.403   0.890  10.822 -0.4162 -0.7010  0.2816
  125MOL0    Cl16785   1.574   0.864  10.771 -0.4775 -0.1209 -0.1924
  125MOL0     C16786   1.514   1.552  11.318  0.2182 -0.0999 -1.2440
  125MOL0     C16787   1.554   1.480  11.437 -0.0041  0.9634 -0.2109
  125MOL0     O16788   1.911   1.474  11.617  0.0506 -0.1201  0.4142
  125MOL0     C16789   1.719   1.212  11.766  0.1536 -0.6945  0.1833
  125MOL0     C16790   1.708   1.118  11.872 -0.4865  1.0250 -0.8345
  125MOL0     N16791   1.990   0.652  12.266  0.2020 -0.3377 -0.7708
  125MOL0     N16792   2.038   0.534  12.250  0.3713 -0.7483  0.2900
  125MOL0     C16793   1.629   0.769  11.451 -0.2049 -0.3342 -0.2738
  125MOL0     C16794   1.656   0.850  11.338  1.1069  0.8773 -0.7384
  125MOL0     C16795   1.821   1.209  11.095  0.2045  0.1006  0.3878
  125MOL0     C16796   1.941   1.266  11.057  0.0787  0.0691 -0.2336
  125MOL0     C16797   1.947   1.369  10.966 -0.6533  0.4383 -0.4426
  125MOL0     C16798   1.834   1.388  10.885 -0.0858 -0.9082  0.3963
  125MOL0     O16799   1.840   1.484  10.785 -0.4824  0.3837  0.1997
  125MOL0     C16800   1.765   1.602  10.812 -1.2207  0.2751  0.1816
  125MOL0     C16801   1.824   1.709  10.723  0.1485  0.3369  0.4872
  125MOL0     C16802   1.725   1.830  10.719  0.1283  0.9197 -0.5849
  125MOL0     C16803   1.792   1.942  10.646  1.1059 -0.6063  0.2005
  125MOL0     C16804   1.696   2.028  10.569 -0.7178 -0.3318 -0.1214
  125MOL0     C16805   1.617   2.079  10.502  0.7305  0.1370  0.1665
  125MOL0     C16806   1.716   1.320  10.905 -0.1561  0.3007  0.1056
  125MOL0     C16807   1.711   1.234  11.011  0.2068  0.0091  0.4355
  125MOL0     H16808   1.609   1.149  11.488 -1.4096 -0.0873 -2.8790
  125MOL0     H16809   1.571   1.003  11.683 -3.2488  1.4745 -1.0191
  125MOL0     H16810   1.682   0.825  11.855 -0.6618  0.4280  1.9896
  125MOL0     H16811   1.511   0.848  11.808 -2.2191 -2.1171  3.0176
  125MOL0     H16812   1.530   0.688  11.991  4.0630  2.6304  1.2412
  125MOL0     H16813   1.466   0.597  11.858 -0.6688  2.4113 -1.8236
  125MOL0     H16814   1.720   0.527  11.796  1.4611  1.3513 -0.4786
  125MOL0     H16815   1.755   0.586  11.949  1.2702  0.6142 -1.9017
  125MOL0     H16816   1.596   0.440  12.059  1.3639  1.8963  0.4158
  125MOL0     H16817   1.526   0.380  11.897  2.6727 -0.5744 -2.8571
  125MOL0     H16818   1.658   0.199  11.964 -0.4914 -0.2654  0.1037
  125MOL0     H16819   1.718   0.291  11.826 -0.2576 -3.6085  0.4105
  125MOL0     H16820   1.915   0.248  11.940 -1.0838 -1.0741 -0.7888
  125MOL0     H16821   1.879   0.404  12.020  0.4479  0.5687  1.4427
  125MOL0     H16822   1.756   0.217  12.181 -0.5477  0.1093 -0.3189
  125MOL0     H16823   1.893   0.122  12.128  2.0771  1.8438 -2.0257
  125MOL0     H16824   2.052   0.264  12.220  0.7743 -2.4717  2.2830
  125MOL0     H16825   1.940   0.245  12.353  2.2148 -0.8151  0.1330
  125MOL0     H16826   1.720   0.470  12.252 -0.0759 -0.2812  2.8577
  125MOL0     H16827   1.733   0.779  12.183 -3.2230 -1.8542  0.5179
  125MOL0     H16828   1.671   0.712  12.328  1.0585  0.5387  0.3210
  125MOL0     H16829   1.937   0.848  12.397  0.6788 -0.3221  0.9260
  125MOL0     H16830   1.780   0.859  12.472 -0.6266 -2.3848  0.1602
  125MOL0     H16831   1.819   1.088  12.400 -1.6741  0.2159  0.0191
  125MOL0     H16832   1.690   1.021  12.316  0.1971  0.7080  0.5093
  125MOL0     H16833   1.965   1.003  12.183 -1.2720 -3.3060 -3.2333
  125MOL0     H16834   1.873   1.165  12.199 -3.2649  0.7389  0.4375
  125MOL0     H16835   2.014   1.162  11.996  0.3617  3.9529 -0.3512
  125MOL0     H16836   2.153   1.308  11.874 -0.9649 -1.4636 -0.6429
  125MOL0     H16837   2.085   1.394  11.731 -2.8770  1.1816 -0.2267
  125MOL0     H16838   2.044   1.448  11.892  0.1430 -0.4617  0.9943
  125MOL0     H16839   1.877   1.436  11.352  1.1062  1.0099 -0.8558
  125MOL0     H16840   1.796   1.555  11.145  0.5636 -2.5517  0.2502
  125MOL0     H16841   1.378   1.673  11.111 -0.4962 -0.6133 -0.6660
  125MOL0     H16842   1.449   1.730  10.957 -0.8890 -0.4903  0.2719
  125MOL0     H16843   1.310   1.545  10.915 -2.1307 -3.9714  3.2198
  125MOL0     H16844   1.481   1.510  10.880  0.2188  0.2375 -1.5808
  125MOL0     H16845   1.300   1.421  11.110 -2.0196  1.4925 -2.8320
  125MOL0     H16846   1.471   1.372  11.117 -3.3951 -1.0219  3.7256
  125MOL0     H16847   1.281   1.307  10.900 -0.0642 -1.2163 -0.6030
  125MOL0     H16848   1.447   1.259  10.909  0.2638 -2.6116  1.3118
  125MOL0     H16849   1.228   1.212  11.107 -1.7181 -1.7713  0.2581
  125MOL0     H16850   1.392   1.123  11.135  1.2361 -2.1095 -1.9963
  125MOL0     H16851   1.205   0.975  11.056 -2.7617  2.0437 -0.0843
  125MOL0     H16852   1.217   1.074  10.914  0.8588  1.0353 -0.2294
  125MOL0     H16853   1.400   0.870  11.032 -1.7146 -1.2788 -1.5019
  125MOL0     H16854   1.499   1.011  10.969 -0.0870  0.8591 -1.0799
  125MOL0     H16855   1.350   0.947  10.745  2.2032 -0.8874 -1.8029
  125MOL0     H16856   1.352   0.795  10.837  0.2733 -1.0490  0.4918
  125MOL0     H16857   1.410   1.582  11.303 -1.3920 -0.7642  5.3856
  125MOL0     H16858   1.483   1.429  11.502  1.8174  2.2085  2.9798
  125MOL0     H16859   1.622   1.204  11.718  0.3947  0.0257 -0.4293
  125MOL0     H16860   1.622   1.058  11.901  0.4300  0.1835  0.2294
  125MOL0     H16861   1.620   0.661  11.447 -6.8719 -0.3913  2.7852
  125MOL0     H16862   1.672   0.808  11.240 -1.1289 -1.6926 -0.1247
  125MOL0     H16863   2.028   1.253  11.122  1.7137  0.1493 -2.3068
  125MOL0     H16864   2.038   1.423  10.943  1.9531 -3.3076  0.1423
  125MOL0     H16865   1.657   1.589  10.793 -2.0306  1.3507  3.4426
  125MOL0     H16866   1.787   1.628  10.915  3.2102 -0.5965 -0.3713
  125MOL0     H16867   1.843   1.670  10.623 -2.1844 -0.3248  0.2356
  125MOL0     H16868   1.925   1.739  10.751  0.7889 -3.2517  2.6515
  125MOL0     H16869   1.705   1.870  10.819  0.7947 -0.4378  0.1161
  125MOL0     H16870   1.629   1.792  10.685 -1.5676  1.5503  3.0406
  125MOL0     H16871   1.873   1.904  10.583 -0.3757 -0.4985 -1.8828
  125MOL0     H16872   1.842   2.004  10.721 -2.0785  0.9549  1.2263
  125MOL0     H16873   1.558   2.122  10.424  2.2548 -1.0417 -1.7412
  125MOL0     H16874   1.623   1.348  10.858 -1.8107 -0.1306  2.8757
  125MOL0     H16875   1.616   1.199  11.049 -1.9532  3.2254 -1.5031
  126MOL0     O16876   4.955  10.267  10.849  0.0151  0.5281  1.0545
  126MOL0     C16877   5.031  10.354  10.888  0.2745  0.4607 -0.0686
  126MOL0     O16878   5.071  10.379  11.017 -0.3629  0.6004 -0.2926
  126MOL0     C16879   5.011  10.306  11.120 -0.4411 -0.7936  0.5315
  126MOL0     C16880   4.942  10.378  11.222 -0.0403  0.3105  0.1178
  126MOL0     C16881   4.878  10.300  11.320  0.6402 -0.9802 -0.0880
  126MOL0     C16882   4.892  10.161  11.325 -0.1584  0.4176 -1.4402
  126MOL0     O16883   4.847  10.089  11.436  0.3426  1.3226 -0.1855
  126MOL0     C16884   4.755   9.983  11.411 -1.1771  0.0840  0.8275
  126MOL0     C16885   4.613  10.019  11.437  0.6709 -0.4130 -0.2010
  126MOL0     C16886   4.572  10.056  11.580  0.1844  0.6869 -1.2252
  126MOL0     C16887   4.640   9.960  11.688 -0.1304 -0.9263  0.7591
  126MOL0     C16888   4.547   9.937  11.807  0.4110 -0.0984 -0.0776
  126MOL0     C16889   4.442   9.828  11.789 -0.0397 -0.9197  1.0116
  126MOL0     C16890   4.474   9.691  11.839  0.8165 -0.3436 -0.2052
  126MOL0     C16891   4.358   9.592  11.822 -0.3214 -0.0520 -0.4955
  126MOL0     N16892   4.215   9.635  11.841 -0.4255 -0.7570 -0.1645
  126MOL0     C16893   4.147   9.708  11.743 -0.1311 -0.1042 -0.1704
  126MOL0     C16894   4.042   9.759  11.800  1.2840 -0.2061  0.0889
  126MOL0     C16895   3.943   9.855  11.732 -0.9655 -0.2595 -0.6726
  126MOL0     C16896   4.009   9.991  11.724 -0.7446 -0.2690  1.7437
  126MOL0     C16897   4.060  10.031  11.585  0.9123  0.4244  0.2611
  126MOL0     C16898   4.158  10.146  11.580 -0.1539 -0.3308  0.5716
  126MOL0     O16899   4.174  10.181  11.442 -0.2345  0.4770 -0.2611
  126MOL0     C16900   4.272  10.284  11.417  0.0920 -0.3492  0.4581
  126MOL0     C16901   4.341  10.304  11.297  0.4708  0.7077  0.5611
  126MOL0     C16902   4.434  10.403  11.265 -0.2793 -0.3010  0.2688
  126MOL0     C16903   4.487  10.399  11.117 -0.4164 -0.0579 -0.6868
  126MOL0     C16904   4.467  10.495  11.361 -0.6794  0.0888 -0.5235
  126MOL0     C16905   4.570  10.601  11.341  0.7652 -0.3917 -1.2928
  126MOL0     O16906   4.638  10.635  11.454  0.3561  1.2167  0.9507
  126MOL0     C16907   4.728  10.733  11.469  1.0335  0.0291 -0.7825
  126MOL0     C16908   4.859  10.700  11.462  0.1198 -0.2176  1.2180
  126MOL0     C16909   4.959  10.802  11.471 -0.1312 -0.1067  0.2536
  126MOL0     C16910   4.921  10.930  11.512 -0.5827 -0.6395  0.0852
  126MOL0     O16911   5.022  11.010  11.547 -0.5553 -0.5401  0.0843
  126MOL0     C16912   5.005  11.130  11.623  0.0157 -0.3849  0.4494
  126MOL0     C16913   4.969  11.093  11.770 -0.7372  0.8124  0.5119
  126MOL0     C16914   4.921  11.226  11.855  0.5573 -0.1013 -0.7191
  126MOL0     C16915   4.873  11.189  11.999 -0.0001 -0.0471  0.1315
  126MOL0     C16916   4.781  11.298  12.040  0.1991  0.0478 -0.6883
  126MOL0     C16917   4.780  11.292  12.194  1.0779  0.9889  0.0377
  126MOL0     C16918   4.679  11.388  12.259 -0.3629  0.4743  0.4077
  126MOL0     C16919   4.689  11.379  12.413 -0.6232  0.1276 -0.3829
  126MOL0    Cl16920   4.562  11.493  12.473  0.0144  0.5667  0.2808
  126MOL0     C16921   4.786  10.962  11.532  0.6867  0.7262  0.4881
  126MOL0     C16922   4.688  10.864  11.510 -0.7470  0.2197  0.1813
  126MOL0     O16923   4.576  10.657  11.231 -0.4435  0.2481 -0.5099
  126MOL0     C16924   4.402  10.487  11.493 -0.4806 -0.5257  0.1255
  126MOL0     C16925   4.302  10.383  11.516  0.0759  0.5153 -0.7109
  126MOL0     N16926   4.052   9.730  11.934  0.2858  0.2710  0.3196
  126MOL0     N16927   4.149   9.648  11.957  0.7427 -0.1504 -0.4737
  126MOL0     C16928   4.972  10.089  11.235 -0.5024 -0.1416  0.1336
  126MOL0     C16929   5.030  10.170  11.128  0.0716 -0.2542  0.3072
  126MOL0     C16930   5.104  10.434  10.775  0.8441 -0.0344  0.0493
  126MOL0     C16931   5.139  10.563  10.801 -0.0470  0.0461  0.0620
  126MOL0     C16932   5.168  10.650  10.698 -0.6327  0.1443 -0.8809
  126MOL0     C16933   5.178  10.602  10.568 -0.1170  0.3700  0.7154
  126MOL0     O16934   5.228  10.678  10.471  0.7637  0.4271  0.0662
  126MOL0     C16935   5.132  10.778  10.431  0.4176 -0.0587  1.3479
  126MOL0     C16936   5.186  10.915  10.429 -0.3803 -0.4671 -0.5167
  126MOL0     C16937   5.289  10.931  10.322 -0.4661  0.7093  0.3350
  126MOL0     C16938   5.353  11.074  10.335  0.7692  0.2718  1.4744
  126MOL0     C16939   5.466  11.080  10.416  0.7086 -0.2083 -0.3290
  126MOL0     C16940   5.552  11.089  10.491 -0.7869 -0.3965  0.1832
  126MOL0     C16941   5.165  10.465  10.537  0.7964 -0.8405  0.1304
  126MOL0     C16942   5.110  10.387  10.644 -0.3532  0.0179  0.0519
  126MOL0     H16943   4.941  10.486  11.217  2.6910  0.5491  2.2438
  126MOL0     H16944   4.824  10.353  11.398 -0.3460  0.4232 -1.6743
  126MOL0     H16945   4.778   9.947  11.311 -2.1087  0.4996  0.4491
  126MOL0     H16946   4.781   9.906  11.484 -1.5438 -1.6734 -0.8125
  126MOL0     H16947   4.598  10.106  11.372  3.1056  0.4761  0.3251
  126MOL0     H16948   4.544   9.938  11.412 -0.7325  0.3464  0.9997
  126MOL0     H16949   4.587  10.156  11.622 -1.8650  0.9349 -1.0300
  126MOL0     H16950   4.464  10.041  11.586  0.0303  2.2794  1.1515
  126MOL0     H16951   4.667   9.865  11.641 -1.2115 -1.6081  1.4904
  126MOL0     H16952   4.725  10.019  11.725 -0.8621  2.2261 -2.0870
  126MOL0     H16953   4.618   9.912  11.887  0.5431 -3.5419 -1.0859
  126MOL0     H16954   4.493  10.030  11.827  3.9362  1.9123  0.8575
  126MOL0     H16955   4.341   9.845  11.828 -0.0313 -2.7594  1.9427
  126MOL0     H16956   4.416   9.823  11.682 -0.7327 -2.6887  1.2308
  126MOL0     H16957   4.561   9.649  11.788 -1.0840 -2.1926 -2.1811
  126MOL0     H16958   4.499   9.706  11.945 -0.9286  4.0359 -0.2415
  126MOL0     H16959   4.364   9.505  11.889 -3.2133 -0.3944 -0.5553
  126MOL0     H16960   4.379   9.548  11.723  1.2897  1.0496 -0.6771
  126MOL0     H16961   4.192   9.729  11.647  1.9723  0.8805  0.9443
  126MOL0     H16962   3.910   9.815  11.636  2.0184  0.9175 -2.3305
  126MOL0     H16963   3.862   9.864  11.804 -2.8115  0.0102 -2.6991
  126MOL0     H16964   4.102  10.000  11.781  1.4357  0.0469 -1.6008
  126MOL0     H16965   3.935  10.066  11.756 -2.5207 -0.2776 -1.8078
  126MOL0     H16966   3.977  10.052  11.517  0.7627  0.2728  0.3934
  126MOL0     H16967   4.120   9.951  11.540 -0.3154  0.0193 -0.6978
  126MOL0     H16968   4.257  10.123  11.621  0.8970  0.1783 -1.5250
  126MOL0     H16969   4.127  10.239  11.629  0.1081 -0.0323  0.1793
  126MOL0     H16970   4.325  10.229  11.221  1.2039  0.4098  0.6845
  126MOL0     H16971   4.439  10.318  11.063 -1.5898  1.1985 -1.6074
  126MOL0     H16972   4.446  10.489  11.069 -0.8907  0.4325  0.5830
  126MOL0     H16973   4.596  10.398  11.112 -0.1553  1.7608  1.9942
  126MOL0     H16974   4.872  10.595  11.435  0.8571  0.1967 -0.1550
  126MOL0     H16975   5.055  10.782  11.423 -0.8510 -1.7439 -0.5825
  126MOL0     H16976   5.107  11.167  11.636 -0.2348  1.9530 -3.0295
  126MOL0     H16977   4.942  11.205  11.575 -0.9160 -2.5037 -1.8279
  126MOL0     H16978   4.880  11.029  11.773 -0.2672  0.1822  1.0865
  126MOL0     H16979   5.051  11.041  11.819 -0.5193  1.4956  0.8756
  126MOL0     H16980   4.836  11.274  11.806 -0.5039 -0.9540  0.2309
  126MOL0     H16981   5.005  11.295  11.868 -1.2283  1.6521  2.4916
  126MOL0     H16982   4.823  11.091  11.997  1.8295 -1.0669  1.3042
  126MOL0     H16983   4.960  11.175  12.064 -0.8698  0.6796  1.5135
  126MOL0     H16984   4.684  11.287  11.992  1.2126 -1.9834 -2.4984
  126MOL0     H16985   4.818  11.399  12.021 -2.3023  0.9612 -0.9683
  126MOL0     H16986   4.747  11.192  12.225 -0.2294  1.8556  1.6241
  126MOL0     H16987   4.885  11.301  12.224  1.4710 -0.5235 -0.7500
  126MOL0     H16988   4.577  11.367  12.225 -0.7622 -0.0408  1.8414
  126MOL0     H16989   4.711  11.486  12.223  2.6761  0.3541  2.3900
  126MOL0     H16990   4.787  11.405  12.455 -0.3231 -0.4357 -0.7134
  126MOL0     H16991   4.691  11.276  12.451  1.3061 -0.5013 -1.9740
  126MOL0     H16992   4.768  11.053  11.588  2.2536  1.8937 -0.7883
  126MOL0     H16993   4.584  10.874  11.541 -1.5370  1.8233 -2.6333
  126MOL0     H16994   4.423  10.562  11.569  1.8267 -1.1695  0.1936
  126MOL0     H16995   4.238  10.395  11.603 -0.6771  1.0843 -1.3298
  126MOL0     H16996   4.983   9.981  11.232  3.7986  0.0941  0.2805
  126MOL0     H16997   5.090  10.134  11.045  1.6544  0.3781  1.1094
  126MOL0     H16998   5.140  10.603  10.901 -1.1894  3.2370 -1.0739
  126MOL0     H16999   5.197  10.751  10.722 -1.5267 -0.1799  1.9291
  126MOL0     H17000   5.089  10.746  10.336  1.3032 -0.9185  1.2172
  126MOL0     H17001   5.036  10.772  10.484 -1.2301 -2.3178 -1.6181
  126MOL0     H17002   5.229  10.944  10.526 -2.5938 -2.0162  1.0289
  126MOL0     H17003   5.105  10.987  10.410  0.0517 -0.0833 -0.9148
  126MOL0     H17004   5.239  10.925  10.225 -0.0282  0.9057  0.0945
  126MOL0     H17005   5.362  10.851  10.336 -2.2380 -0.9258  0.8113
  126MOL0     H17006   5.276  11.141  10.374 -0.2813  0.2724 -0.4986
  126MOL0     H17007   5.375  11.114  10.236  0.9691 -0.8934  1.0257
  126MOL0     H17008   5.640  11.082  10.552  1.4099 -3.5187 -2.9736
  126MOL0     H17009   5.149  10.429  10.436  0.6146  0.6954 -0.4123
  126MOL0     H17010   5.058  10.297  10.615  1.3515 -1.8264  2.3188
  127MOL0     O17011   3.384   6.921   4.839  0.1479 -0.2946 -0.7804
  127MOL0     C17012   3.400   7.038   4.806  0.5664  0.2641 -0.1929
  127MOL0     O17013   3.375   7.152   4.885 -0.0303 -0.0976  0.2255
  127MOL0     C17014   3.326   7.156   5.012  0.1556 -0.9326 -1.5468
  127MOL0     C17015   3.360   7.272   5.089  0.9109  0.6961  0.1889
  127MOL0     C17016   3.314   7.298   5.219  0.2183 -0.7517  0.2203
  127MOL0     C17017   3.241   7.199   5.281  1.5113 -0.2600  0.1524
  127MOL0     O17018   3.192   7.227   5.413  0.2862  0.5461  0.3225
  127MOL0     C17019   3.149   7.110   5.485 -0.8282 -0.4534 -0.2397
  127MOL0     C17020   3.148   7.144   5.631 -1.1074  0.3437  0.1175
  127MOL0     C17021   3.016   7.226   5.653  0.8668  0.6925 -0.5290
  127MOL0     C17022   3.020   7.307   5.784 -1.1177 -1.2850 -0.1854
  127MOL0     C17023   2.881   7.341   5.843 -0.6267  0.0914 -0.6102
  127MOL0     C17024   2.898   7.410   5.988 -0.7348  0.6332  0.2452
  127MOL0     C17025   2.790   7.512   6.033  0.4121 -0.0704 -0.5947
  127MOL0     C17026   2.867   7.611   6.126  0.6360 -0.7069 -0.0937
  127MOL0     N17027   2.769   7.690   6.200  0.8862  0.5881  0.2657
  127MOL0     C17028   2.697   7.638   6.305  0.5550  0.1095  0.5597
  127MOL0     C17029   2.612   7.738   6.338 -0.7228 -0.0284  0.1959
  127MOL0     C17030   2.526   7.759   6.450  0.0373  0.5980 -0.7875
  127MOL0     C17031   2.389   7.783   6.411  0.6781 -0.4619 -0.6130
  127MOL0     C17032   2.286   7.794   6.535 -0.4833  0.0081 -0.5206
  127MOL0     C17033   2.278   7.947   6.586 -0.1424  0.1898 -0.1126
  127MOL0     O17034   2.334   7.956   6.726  0.5126 -0.6773  0.3298
  127MOL0     C17035   2.266   7.896   6.825  0.3759 -0.5109 -0.3129
  127MOL0     C17036   2.350   7.869   6.938 -0.4563  1.2917 -0.1342
  127MOL0     C17037   2.297   7.782   7.040  0.8331  0.6523 -0.5896
  127MOL0     C17038   2.400   7.749   7.149  0.0685 -0.2654 -0.1972
  127MOL0     C17039   2.157   7.745   7.032 -0.4884  0.3710  0.2287
  127MOL0     C17040   2.095   7.651   7.132  0.5386  0.0424 -0.0719
  127MOL0     O17041   2.158   7.629   7.240  0.2788  0.0640 -1.3794
  127MOL0     C17042   2.098   7.552   7.338  0.8847 -0.2951  0.1178
  127MOL0     C17043   2.038   7.601   7.455 -1.1570 -0.3239 -0.6433
  127MOL0     C17044   1.998   7.529   7.570 -0.2681  0.0188 -0.1135
  127MOL0     C17045   2.000   7.388   7.565  0.2725 -0.0355  0.5497
  127MOL0     O17046   1.952   7.322   7.669  0.2551 -0.1651 -0.7391
  127MOL0     C17047   1.921   7.185   7.659 -0.0907 -0.1816  0.6249
  127MOL0     C17048   1.872   7.144   7.805  0.1739 -0.2839  0.2184
  127MOL0     C17049   1.801   7.008   7.803  0.2679 -1.0229 -0.7715
  127MOL0     C17050   1.846   6.909   7.905 -0.1550 -0.7828 -1.2153
  127MOL0     C17051   1.975   6.834   7.868 -0.1290 -0.0432 -0.1067
  127MOL0     C17052   2.010   6.740   7.985  0.1913  0.4589 -0.2409
  127MOL0     C17053   2.123   6.634   7.960  0.0177  0.4294 -0.0254
  127MOL0     C17054   2.252   6.665   8.042 -1.2177  0.0290 -0.5052
  127MOL0    Cl17055   2.218   6.649   8.222 -0.0913 -0.3128  0.1310
  127MOL0     C17056   2.054   7.329   7.443 -0.5533  0.2363 -0.1308
  127MOL0     C17057   2.102   7.415   7.331 -0.1289  0.4791 -0.6480
  127MOL0     O17058   1.986   7.606   7.099  0.0119 -1.1659  0.6526
  127MOL0     C17059   2.078   7.781   6.925  0.0340  0.5326 -1.1000
  127MOL0     C17060   2.128   7.869   6.824 -0.8518  0.4430 -0.4600
  127MOL0     N17061   2.626   7.831   6.235  0.1845  0.3375 -0.4388
  127MOL0     N17062   2.717   7.803   6.154  0.2602 -0.0072 -0.3374
  127MOL0     C17063   3.219   7.072   5.214  0.7219  0.7274  0.7175
  127MOL0     C17064   3.249   7.058   5.078 -0.9050  0.0733 -0.6713
  127MOL0     C17065   3.442   7.070   4.668 -0.4319  0.0982  0.4912
  127MOL0     C17066   3.484   7.199   4.634  0.4418 -1.6338  0.0385
  127MOL0     C17067   3.516   7.237   4.503 -0.5945 -1.5583 -0.0714
  127MOL0     C17068   3.523   7.142   4.403  0.1386 -0.1911  0.7552
  127MOL0     O17069   3.566   7.174   4.275  0.5087  0.1311  1.0340
  127MOL0     C17070   3.492   7.287   4.211 -0.0195  0.5587  0.1018
  127MOL0     C17071   3.498   7.267   4.058 -0.1156 -0.2667  0.3585
  127MOL0     C17072   3.465   7.118   4.013  0.8095 -0.2305 -0.3525
  127MOL0     C17073   3.576   7.056   3.938  0.7122 -0.4463 -0.2767
  127MOL0     C17074   3.694   7.018   4.015  0.7756  0.3552  0.3387
  127MOL0     C17075   3.778   6.988   4.086 -0.2596  0.2323 -1.1559
  127MOL0     C17076   3.499   7.009   4.438  0.3407 -0.0097  0.1929
  127MOL0     C17077   3.451   6.980   4.568 -0.4614  0.9816 -0.7299
  127MOL0     H17078   3.432   7.341   5.045  0.4020  0.5879 -0.8413
  127MOL0     H17079   3.336   7.388   5.275 -0.8082 -0.5539  0.3339
  127MOL0     H17080   3.044   7.092   5.459 -2.3885  3.5778  2.1722
  127MOL0     H17081   3.209   7.020   5.471 -0.5059 -0.2567 -0.1306
  127MOL0     H17082   3.137   7.043   5.673 -1.1543 -0.2022 -1.1664
  127MOL0     H17083   3.244   7.189   5.655 -1.8080  2.8016 -1.3948
  127MOL0     H17084   2.990   7.296   5.573  0.6791 -0.1604 -1.2342
  127MOL0     H17085   2.927   7.162   5.666  2.4145 -1.0932  2.2894
  127MOL0     H17086   3.070   7.252   5.864  2.8849  2.1471  0.0124
  127MOL0     H17087   3.078   7.400   5.775  1.3589 -2.4599  2.3255
  127MOL0     H17088   2.831   7.414   5.778  1.2071  0.8390 -1.2629
  127MOL0     H17089   2.820   7.254   5.866 -3.1309  2.4567  2.7383
  127MOL0     H17090   2.925   7.329   6.056  0.6305  0.7004 -0.1817
  127MOL0     H17091   2.988   7.473   5.990  0.8207 -1.4536 -0.4488
  127MOL0     H17092   2.756   7.574   5.950  1.9887 -0.2748 -1.4259
  127MOL0     H17093   2.699   7.469   6.076 -1.0987  1.3572 -2.1923
  127MOL0     H17094   2.939   7.676   6.075  2.4194 -1.0286  1.8339
  127MOL0     H17095   2.925   7.553   6.200 -1.1825 -1.0675  1.1136
  127MOL0     H17096   2.716   7.549   6.364  0.8373 -0.5649 -0.5136
  127MOL0     H17097   2.523   7.673   6.516 -2.5035 -0.5491 -2.2330
  127MOL0     H17098   2.571   7.839   6.510 -3.9965  2.1838  0.4750
  127MOL0     H17099   2.349   7.700   6.351  3.9192  0.1466 -4.0098
  127MOL0     H17100   2.386   7.874   6.350 -0.2640  0.1171  0.2641
  127MOL0     H17101   2.309   7.718   6.610 -0.7182 -0.1688 -0.6276
  127MOL0     H17102   2.190   7.756   6.500 -2.2204  0.3470  3.3151
  127MOL0     H17103   2.176   7.983   6.570 -0.4060 -0.3435  0.3468
  127MOL0     H17104   2.341   8.008   6.521 -1.1067 -0.1803 -1.4621
  127MOL0     H17105   2.452   7.904   6.923  0.2850  0.4000  2.3600
  127MOL0     H17106   2.403   7.643   7.173 -2.0201 -0.1857  0.5809
  127MOL0     H17107   2.496   7.788   7.112 -0.1356  1.7114  1.2010
  127MOL0     H17108   2.387   7.798   7.246  1.1994 -1.5430  0.6238
  127MOL0     H17109   2.043   7.710   7.457  5.2526 -0.2473  0.6702
  127MOL0     H17110   1.948   7.576   7.654 -2.4447 -1.4628 -0.5098
  127MOL0     H17111   1.834   7.189   7.594  1.6274 -1.0383 -1.8584
  127MOL0     H17112   2.002   7.118   7.629  2.7108  2.3246  2.0281
  127MOL0     H17113   1.959   7.143   7.871  0.6318  0.6426 -0.3449
  127MOL0     H17114   1.799   7.220   7.835 -0.4508 -0.1715 -1.4959
  127MOL0     H17115   1.807   6.964   7.703 -1.0611 -0.8401 -0.9532
  127MOL0     H17116   1.695   7.029   7.816  0.5097 -1.0595  1.6656
  127MOL0     H17117   1.863   6.955   8.003 -1.5847  0.0524 -1.3182
  127MOL0     H17118   1.763   6.838   7.916 -1.2284  0.7171  1.4180
  127MOL0     H17119   2.057   6.904   7.851  2.4475 -2.6217  0.8084
  127MOL0     H17120   1.959   6.779   7.775  0.0007 -1.4120  0.6512
  127MOL0     H17121   2.048   6.801   8.068  1.1342  1.2507 -1.2283
  127MOL0     H17122   1.918   6.685   8.004  1.1876 -1.5827 -1.0797
  127MOL0     H17123   2.151   6.644   7.855 -1.0806  0.6411 -0.3068
  127MOL0     H17124   2.086   6.535   7.987  3.4308 -0.6664  1.2378
  127MOL0     H17125   2.269   6.770   8.016 -1.9736 -0.2389 -2.2710
  127MOL0     H17126   2.333   6.597   8.015 -1.4633  0.1571 -1.6192
  127MOL0     H17127   2.090   7.227   7.439  0.9633  0.7727 -1.3645
  127MOL0     H17128   2.154   7.378   7.243 -0.3184  1.8844 -1.3804
  127MOL0     H17129   1.971   7.765   6.934 -0.0003  1.7838  1.9657
  127MOL0     H17130   2.055   7.897   6.749  1.3145 -0.6395 -3.1553
  127MOL0     H17131   3.177   6.987   5.266  1.7199  0.3310  0.8906
  127MOL0     H17132   3.233   6.964   5.026 -0.7594 -0.6241  0.5085
  127MOL0     H17133   3.472   7.277   4.709 -2.1942 -3.7312  1.9503
  127MOL0     H17134   3.527   7.343   4.480 -1.2543 -1.7005 -1.0789
  127MOL0     H17135   3.388   7.285   4.245 -0.5233 -2.0494 -1.3880
  127MOL0     H17136   3.537   7.382   4.242  2.4860 -1.0192  1.6822
  127MOL0     H17137   3.590   7.308   4.014 -2.0832  0.0954 -3.9094
  127MOL0     H17138   3.417   7.331   4.023  2.0592  2.6270  0.2487
  127MOL0     H17139   3.383   7.119   3.941 -0.4471 -0.9386  1.0346
  127MOL0     H17140   3.433   7.054   4.095 -1.0957  0.5513 -0.4363
  127MOL0     H17141   3.611   7.107   3.848  2.0077 -1.2101 -0.2422
  127MOL0     H17142   3.522   6.967   3.905  1.6465 -1.2446  0.2828
  127MOL0     H17143   3.857   6.986   4.158 -2.7016  2.7219  1.9085
  127MOL0     H17144   3.512   6.940   4.355  0.6817 -0.3016  0.4856
  127MOL0     H17145   3.431   6.875   4.582 -1.7450  1.3963  0.7257
  128MOL0     O17146   8.666   1.239   5.545 -1.8891 -0.3265 -0.4498
  128MOL0     C17147   8.788   1.280   5.535  0.2719 -0.2091 -0.2966
  128MOL0     O17148   8.897   1.202   5.517 -0.3373  0.1636 -0.0957
  128MOL0     C17149   8.898   1.071   5.539 -0.2474 -0.9836 -0.1729
  128MOL0     C17150   8.818   1.011   5.641 -1.2321  0.2368  0.1249
  128MOL0     C17151   8.824   0.870   5.664 -0.2526 -0.1397 -0.0585
  128MOL0     C17152   8.908   0.786   5.592 -0.8987  0.1275  0.4358
  128MOL0     O17153   8.926   0.656   5.617  0.4066 -0.1180  0.1990
  128MOL0     C17154   8.824   0.565   5.664 -0.5427 -0.8003  0.4677
  128MOL0     C17155   8.869   0.416   5.659  0.0909  0.2771  0.1665
  128MOL0     C17156   8.820   0.334   5.532  0.1622  0.5574 -0.2029
  128MOL0     C17157   8.847   0.185   5.556  1.0107 -0.9224 -0.4694
  128MOL0     C17158   8.778   0.099   5.448 -0.4068 -0.1230 -0.0819
  128MOL0     C17159   8.813   0.147   5.305 -0.6055 -0.3180 -0.0637
  128MOL0     C17160   8.787   0.031   5.209 -0.4237 -1.5075  0.6643
  128MOL0     C17161   8.782   0.075   5.057 -0.4323 -0.2393 -0.7806
  128MOL0     N17162   8.692   0.188   5.019 -0.5356 -0.4314 -0.7116
  128MOL0     C17163   8.557   0.195   5.043 -1.4903  0.3792 -0.6598
  128MOL0     C17164   8.531   0.327   5.051  0.2600 -0.7271  0.0459
  128MOL0     C17165   8.397   0.380   5.087 -0.4354  0.5246 -0.3447
  128MOL0     C17166   8.368   0.358   5.237  0.6705 -0.6326  1.3641
  128MOL0     C17167   8.462   0.452   5.314  1.0866  0.0573 -0.0387
  128MOL0     C17168   8.414   0.455   5.466 -0.9017 -0.7801  0.3772
  128MOL0     O17169   8.423   0.329   5.521 -0.6214  0.6278  0.4131
  128MOL0     C17170   8.398   0.333   5.653 -0.3493 -0.9343  0.1455
  128MOL0     C17171   8.499   0.326   5.746 -0.0722 -0.2338  0.2574
  128MOL0     C17172   8.476   0.327   5.883 -0.2411  0.3993  0.8469
  128MOL0     C17173   8.594   0.315   5.985 -0.9795 -0.4993 -0.3593
  128MOL0     C17174   8.339   0.332   5.924 -0.1603  0.1254  0.2046
  128MOL0     C17175   8.305   0.334   6.064  0.4659 -0.3328  0.4944
  128MOL0     O17176   8.395   0.369   6.165 -0.4979  0.0417  0.4355
  128MOL0     C17177   8.349   0.418   6.287 -0.0142 -0.3388  0.0871
  128MOL0     C17178   8.426   0.421   6.402 -0.4362  0.3176  0.5938
  128MOL0     C17179   8.376   0.459   6.521  0.0683  0.7218  0.2994
  128MOL0     C17180   8.252   0.515   6.528 -0.1996 -0.2953 -0.3145
  128MOL0     O17181   8.216   0.561   6.650  1.0306 -0.8116 -0.1377
  128MOL0     C17182   8.074   0.590   6.682 -1.3818  0.3257  0.0794
  128MOL0     C17183   8.025   0.458   6.718 -0.0428  0.0156 -0.3883
  128MOL0     C17184   7.869   0.454   6.729 -0.1936  0.4198  0.1554
  128MOL0     C17185   7.802   0.431   6.586 -0.7270 -0.4115  0.4493
  128MOL0     C17186   7.659   0.401   6.576 -0.0250  1.1301  0.9113
  128MOL0     C17187   7.570   0.497   6.659 -0.2285  1.1353  0.3354
  128MOL0     C17188   7.424   0.474   6.628 -0.5781  0.3690  1.1824
  128MOL0     C17189   7.319   0.579   6.657 -0.4311  0.1734  0.6209
  128MOL0    Cl17190   7.316   0.610   6.830 -0.1509 -0.1649  0.4396
  128MOL0     C17191   8.173   0.519   6.413 -0.3663  0.0783 -0.6634
  128MOL0     C17192   8.223   0.472   6.299  0.0132  0.0258  0.5344
  128MOL0     O17193   8.196   0.277   6.091 -0.4258  0.3730  0.1460
  128MOL0     C17194   8.230   0.313   5.832 -0.0011 -0.0090  1.1227
  128MOL0     C17195   8.266   0.321   5.695 -0.6971  0.7392  0.0626
  128MOL0     N17196   8.646   0.404   5.026 -0.3513 -0.2548 -0.0578
  128MOL0     N17197   8.745   0.318   5.020  0.1844  0.2218 -0.2475
  128MOL0     C17198   8.981   0.848   5.485 -0.0015 -0.2336 -0.3458
  128MOL0     C17199   8.980   0.987   5.456 -0.8019  0.0942  0.5836
  128MOL0     C17200   8.818   1.429   5.545 -0.6622  0.5537  0.4849
  128MOL0     C17201   8.943   1.487   5.545 -0.0751 -0.1123 -0.0632
  128MOL0     C17202   8.963   1.627   5.560  0.4365  0.9395  0.5678
  128MOL0     C17203   8.848   1.708   5.579 -0.6932 -0.2578  0.3518
  128MOL0     O17204   8.889   1.847   5.600  0.8017  0.2712 -0.1594
  128MOL0     C17205   8.781   1.938   5.642  0.1751  0.0108  0.8372
  128MOL0     C17206   8.858   2.070   5.683 -0.8720 -0.8510  0.3052
  128MOL0     C17207   8.954   2.122   5.578  0.0555  0.8533 -0.0944
  128MOL0     C17208   9.013   2.256   5.627  0.6536 -1.3351  0.6406
  128MOL0     C17209   9.106   2.320   5.528 -0.2141  0.8732 -1.0774
  128MOL0     C17210   9.188   2.373   5.464  0.1370 -0.5458  0.0823
  128MOL0     C17211   8.724   1.655   5.566  0.6968 -0.5792 -0.7580
  128MOL0     C17212   8.706   1.517   5.555 -0.7655  1.4439  0.6183
  128MOL0     H17213   8.747   1.078   5.688  0.5941  0.7637  2.3401
  128MOL0     H17214   8.756   0.824   5.735 -2.9271  0.9652 -1.7327
  128MOL0     H17215   8.800   0.586   5.769 -0.1712 -0.1615  0.4251
  128MOL0     H17216   8.735   0.583   5.603 -2.8162 -0.3776  3.6349
  128MOL0     H17217   8.978   0.408   5.650  0.4375  1.3415  2.5772
  128MOL0     H17218   8.843   0.365   5.752 -1.3976 -3.8049 -2.2047
  128MOL0     H17219   8.716   0.353   5.503  0.1358 -2.8024 -2.8579
  128MOL0     H17220   8.882   0.355   5.444  0.0744 -0.0361 -0.4128
  128MOL0     H17221   8.953   0.164   5.543  1.5195  1.0997  0.0526
  128MOL0     H17222   8.810   0.157   5.655 -0.4933 -1.1437 -1.0582
  128MOL0     H17223   8.815  -0.003   5.461  0.4759  0.3317  1.2022
  128MOL0     H17224   8.670   0.112   5.459 -0.3109  1.5202 -0.7268
  128MOL0     H17225   8.763   0.237   5.268 -2.7231 -2.4377 -2.8263
  128MOL0     H17226   8.920   0.171   5.301 -0.4526 -0.8849  0.4308
  128MOL0     H17227   8.866  -0.043   5.221  0.9182 -0.0203  1.5322
  128MOL0     H17228   8.694  -0.018   5.241 -0.3250  0.1512  3.9721
  128MOL0     H17229   8.750  -0.012   5.001 -0.9349 -0.3538 -0.3272
  128MOL0     H17230   8.884   0.099   5.024 -0.5788  2.0210  0.2238
  128MOL0     H17231   8.495   0.109   5.064 -0.0117 -0.3751  0.7958
  128MOL0     H17232   8.398   0.485   5.059 -2.3302  0.9933  1.1672
  128MOL0     H17233   8.317   0.337   5.026 -2.3242  1.2171  1.5243
  128MOL0     H17234   8.374   0.251   5.261 -2.8943 -0.7208  2.3849
  128MOL0     H17235   8.269   0.402   5.247  2.0557  2.5271  2.3337
  128MOL0     H17236   8.456   0.554   5.276 -2.4664 -0.6070 -1.6423
  128MOL0     H17237   8.566   0.418   5.302  2.7938  4.2856  1.0676
  128MOL0     H17238   8.318   0.502   5.487 -2.1633 -3.3670  0.7262
  128MOL0     H17239   8.496   0.513   5.510  0.3220 -1.3535 -1.0162
  128MOL0     H17240   8.595   0.305   5.700 -1.9349 -1.6787 -3.3654
  128MOL0     H17241   8.568   0.226   6.043  1.6232  0.5813  2.7496
  128MOL0     H17242   8.698   0.308   5.950 -0.4000  2.2116  0.5262
  128MOL0     H17243   8.591   0.412   6.036  1.0989 -0.3983 -0.3391
  128MOL0     H17244   8.528   0.389   6.385  1.6271  6.4300 -0.9701
  128MOL0     H17245   8.439   0.459   6.609 -0.9946 -3.6178  1.3085
  128MOL0     H17246   8.068   0.654   6.770  0.2740 -0.1634  0.5822
  128MOL0     H17247   8.013   0.640   6.606 -3.1658  0.8660  1.7927
  128MOL0     H17248   8.065   0.380   6.653  0.4693 -0.1673  0.1358
  128MOL0     H17249   8.067   0.422   6.813 -0.6445  0.5456  0.0868
  128MOL0     H17250   7.832   0.535   6.793  2.8298 -0.1870  2.9329
  128MOL0     H17251   7.849   0.353   6.764 -2.7185  0.5681 -0.6504
  128MOL0     H17252   7.812   0.522   6.525 -1.4511 -0.9917 -0.5538
  128MOL0     H17253   7.863   0.358   6.532 -0.3738 -0.6170  1.1163
  128MOL0     H17254   7.634   0.296   6.593  1.4152  0.3781 -1.2475
  128MOL0     H17255   7.631   0.402   6.471 -0.9480  0.3789  1.1321
  128MOL0     H17256   7.573   0.475   6.766 -2.3832  0.1582  0.2577
  128MOL0     H17257   7.590   0.603   6.639  0.5807  1.0168  0.4964
  128MOL0     H17258   7.394   0.380   6.675 -2.3563 -1.1783 -2.6404
  128MOL0     H17259   7.415   0.454   6.521  0.9699 -0.0874  1.1099
  128MOL0     H17260   7.219   0.557   6.620  0.6574 -0.8369 -2.0147
  128MOL0     H17261   7.338   0.668   6.595 -0.7400 -0.4245 -0.3616
  128MOL0     H17262   8.075   0.566   6.417  1.4175  4.1658  2.6808
  128MOL0     H17263   8.163   0.492   6.210 -0.2898  6.6880  1.6902
  128MOL0     H17264   8.132   0.282   5.867 -1.4590  1.1706 -1.6600
  128MOL0     H17265   8.202   0.313   5.607  1.8979 -0.6362 -1.8802
  128MOL0     H17266   9.035   0.780   5.421 -2.2035 -1.0318 -1.4751
  128MOL0     H17267   9.034   1.032   5.374 -0.1888 -1.5777  0.0187
  128MOL0     H17268   9.032   1.431   5.516 -1.3765 -1.1367 -2.3360
  128MOL0     H17269   9.058   1.678   5.553  0.2972  1.2446  0.9160
  128MOL0     H17270   8.711   1.947   5.559  1.4592 -1.8463 -0.5400
  128MOL0     H17271   8.735   1.911   5.738 -0.2340  0.7182  0.8452
  128MOL0     H17272   8.917   2.049   5.773 -1.3389  0.2185  0.8849
  128MOL0     H17273   8.783   2.148   5.699  0.3683  0.4787 -0.1053
  128MOL0     H17274   8.899   2.140   5.486 -1.4738  0.5258  0.7306
  128MOL0     H17275   9.035   2.050   5.561 -2.8295 -2.4264 -0.9276
  128MOL0     H17276   9.076   2.235   5.714 -3.1511 -2.4333  3.4246
  128MOL0     H17277   8.933   2.327   5.650  1.2597  0.1759 -1.6194
  128MOL0     H17278   9.253   2.431   5.402 -1.0410 -2.0257 -2.7538
  128MOL0     H17279   8.640   1.723   5.580 -0.0429 -1.5155 -0.5347
  128MOL0     H17280   8.612   1.469   5.581 -0.3142  1.5748  2.6632
  129MOL0     O17281  10.017  10.905   8.607  0.3040  0.1307 -0.3392
  129MOL0     C17282  10.125  10.925   8.661 -0.4580  0.3180  0.0048
  129MOL0     O17283  10.217  10.828   8.698 -0.4298 -0.2003  0.7189
  129MOL0     C17284  10.201  10.705   8.641  0.2887  0.0076  0.2827
  129MOL0     C17285  10.195  10.591   8.722  0.4882 -0.2305  0.3915
  129MOL0     C17286  10.183  10.468   8.661 -1.0456 -0.6555  0.2281
  129MOL0     C17287  10.194  10.451   8.524 -0.2745  0.4262  0.0483
  129MOL0     O17288  10.212  10.328   8.488  1.3816  0.0627  0.2389
  129MOL0     C17289  10.087  10.263   8.467  0.2050  0.2048 -0.4633
  129MOL0     C17290  10.047  10.263   8.328  0.0925 -0.1840 -0.2498
  129MOL0     C17291   9.904  10.209   8.305 -0.6415  0.2460  0.3616
  129MOL0     C17292   9.907  10.061   8.271  0.6169 -0.3510  0.2290
  129MOL0     C17293   9.766  10.004   8.234 -0.3790  0.4525  0.6204
  129MOL0     C17294   9.671  10.035   8.359  0.2269  1.1397 -0.0876
  129MOL0     C17295   9.531   9.990   8.325  0.3485 -0.1121  0.1401
  129MOL0     C17296   9.496   9.852   8.364  0.1958 -0.5192 -0.3943
  129MOL0     N17297   9.355   9.834   8.404 -0.1153  0.0581  0.4542
  129MOL0     C17298   9.250   9.830   8.307  2.2925 -0.0923  0.3528
  129MOL0     C17299   9.133   9.831   8.383  0.7810  0.5608  0.3216
  129MOL0     C17300   8.983   9.844   8.340 -1.1706 -0.2607  0.6718
  129MOL0     C17301   8.881   9.824   8.456  0.0320 -0.5369  1.2564
  129MOL0     C17302   8.739   9.837   8.392  0.0892 -0.1208  0.6725
  129MOL0     C17303   8.634   9.860   8.505 -0.8685  1.0710  0.2132
  129MOL0     O17304   8.504   9.833   8.459  0.2326 -0.3708  0.5260
  129MOL0     C17305   8.417   9.797   8.560 -0.1702 -0.3452 -0.4837
  129MOL0     C17306   8.334   9.691   8.534  0.4995 -0.1101 -0.4332
  129MOL0     C17307   8.232   9.654   8.623  0.0478 -1.5291 -0.1081
  129MOL0     C17308   8.124   9.556   8.564  0.5612 -0.7201 -0.0692
  129MOL0     C17309   8.221   9.713   8.750  0.4774 -0.3478  0.2251
  129MOL0     C17310   8.106   9.688   8.846  0.0650  0.5550 -0.9772
  129MOL0     O17311   8.040   9.567   8.845  0.2845 -0.0624 -0.2871
  129MOL0     C17312   7.929   9.535   8.919 -0.6073 -0.0858  0.0154
  129MOL0     C17313   7.842   9.616   8.997 -0.3929  0.7491  0.0246
  129MOL0     C17314   7.730   9.554   9.060  0.2366 -0.3130  0.3887
  129MOL0     C17315   7.703   9.417   9.055  0.1814 -0.5592 -0.9827
  129MOL0     O17316   7.591   9.362   9.115 -0.3443  0.8304  0.0864
  129MOL0     C17317   7.474   9.383   9.040 -0.1980 -0.3701  0.1718
  129MOL0     C17318   7.367   9.285   9.093 -0.4739  0.0119 -0.4151
  129MOL0     C17319   7.345   9.303   9.244 -0.4163  0.7872  0.0788
  129MOL0     C17320   7.430   9.215   9.335  0.5100  0.1264  0.4588
  129MOL0     C17321   7.412   9.231   9.482  0.1538 -0.0694  0.1757
  129MOL0     C17322   7.416   9.102   9.564 -0.5338  0.0043  0.2246
  129MOL0     C17323   7.546   9.022   9.519 -0.3084  0.6713 -0.2627
  129MOL0     C17324   7.564   8.901   9.610  0.4341  0.0860 -0.8159
  129MOL0    Cl17325   7.416   8.800   9.613  0.5742 -0.1346  0.0685
  129MOL0     C17326   7.790   9.338   8.989  0.4430 -0.0450 -0.4965
  129MOL0     C17327   7.900   9.395   8.921 -0.1232  0.0598  0.2425
  129MOL0     O17328   8.075   9.775   8.933  0.2201  0.0423  0.1328
  129MOL0     C17329   8.325   9.804   8.787  0.3927  0.9897  0.2944
  129MOL0     C17330   8.411   9.852   8.690 -1.1675  0.4205  0.4277
  129MOL0     N17331   9.175   9.808   8.517 -0.6873  0.0088  0.0995
  129MOL0     N17332   9.302   9.816   8.523 -0.6660  0.1083 -0.3329
  129MOL0     C17333  10.196  10.562   8.438  0.0999 -0.1133  0.3922
  129MOL0     C17334  10.203  10.690   8.498  0.9892  1.3672  0.3297
  129MOL0     C17335  10.156  11.058   8.721 -0.9787 -0.0614 -0.1829
  129MOL0     C17336  10.289  11.100   8.752  0.1694 -0.2878 -0.1121
  129MOL0     C17337  10.322  11.206   8.831  0.0002  0.6869  1.1288
  129MOL0     C17338  10.211  11.292   8.871 -1.0883  0.5295 -0.1427
  129MOL0     O17339  10.238  11.409   8.943 -0.2287  0.1116  0.6148
  129MOL0     C17340  10.355  11.415   9.030  0.1676 -0.6239  0.3184
  129MOL0     C17341  10.343  11.548   9.111  0.0189  0.4542 -0.1263
  129MOL0     C17342  10.471  11.549   9.199 -0.2705  0.1356 -0.0258
  129MOL0     C17343  10.446  11.625   9.324  0.2758  0.5071  0.3640
  129MOL0     C17344  10.370  11.747   9.300 -0.4763  0.4026  1.0882
  129MOL0     C17345  10.324  11.853   9.291 -0.0473 -0.0980  0.5871
  129MOL0     C17346  10.082  11.270   8.828 -0.5767  0.3288  0.3775
  129MOL0     C17347  10.055  11.154   8.753 -0.6288 -0.1005  0.2175
  129MOL0     H17348  10.189  10.596   8.830  0.9622 -0.5057  0.4337
  129MOL0     H17349  10.195  10.384   8.729  3.8735 -0.1043  0.3895
  129MOL0     H17350  10.091  10.158   8.497  1.1912  1.0870  2.8981
  129MOL0     H17351  10.005  10.305   8.524 -0.1791  2.4408 -2.5126
  129MOL0     H17352  10.048  10.368   8.299 -2.2165 -0.3680 -1.2280
  129MOL0     H17353  10.105  10.197   8.263  1.2863  1.5911 -1.0540
  129MOL0     H17354   9.840  10.250   8.384 -0.1798  2.3218 -0.2900
  129MOL0     H17355   9.845  10.246   8.220 -0.5075  0.7533  0.4863
  129MOL0     H17356   9.979  10.040   8.192  2.0846  2.0898  0.8120
  129MOL0     H17357   9.951  10.009   8.356  1.1261 -1.3272 -0.6171
  129MOL0     H17358   9.724  10.032   8.137 -0.6512 -1.2708  0.2039
  129MOL0     H17359   9.780   9.896   8.216  0.0899  0.4595  0.9193
  129MOL0     H17360   9.707   9.987   8.450  0.1179  2.6822  0.8132
  129MOL0     H17361   9.651  10.142   8.368 -3.9020  0.7746 -2.2882
  129MOL0     H17362   9.468  10.064   8.375  4.5960  3.1596  1.2518
  129MOL0     H17363   9.506  10.001   8.219 -2.6040 -1.8221  0.5456
  129MOL0     H17364   9.564   9.801   8.434  1.8630 -0.0312 -1.5970
  129MOL0     H17365   9.514   9.788   8.277  0.9482 -1.0581  0.1439
  129MOL0     H17366   9.253   9.842   8.199 -0.3025 -1.0094  0.1086
  129MOL0     H17367   8.981   9.948   8.306  3.5798  0.2078  1.0633
  129MOL0     H17368   8.967   9.770   8.261  2.0061 -0.0902 -0.2895
  129MOL0     H17369   8.885   9.910   8.523 -0.6416  0.4885  0.0239
  129MOL0     H17370   8.903   9.731   8.509  0.2270  0.0250  2.1843
  129MOL0     H17371   8.715   9.743   8.342 -1.7168  1.0128 -0.6939
  129MOL0     H17372   8.741   9.921   8.322 -0.3623  1.2892  2.2746
  129MOL0     H17373   8.637   9.963   8.542  3.3672  1.3021 -0.2803
  129MOL0     H17374   8.654   9.796   8.592 -3.6086 -0.9597 -0.5153
  129MOL0     H17375   8.346   9.648   8.435 -3.0756 -1.5350 -0.3875
  129MOL0     H17376   8.112   9.469   8.628  0.3749 -1.5064 -1.1377
  129MOL0     H17377   8.028   9.608   8.562 -0.4519 -2.5174 -0.0338
  129MOL0     H17378   8.149   9.526   8.461 -2.7325  1.7672 -1.7720
  129MOL0     H17379   7.841   9.725   8.991 -2.6354  0.7612 -0.1009
  129MOL0     H17380   7.648   9.619   9.088  0.6470  0.0615  0.7343
  129MOL0     H17381   7.457   9.491   9.039  1.3514 -0.0970 -0.9233
  129MOL0     H17382   7.500   9.353   8.939  0.6283 -0.8999  0.5269
  129MOL0     H17383   7.270   9.319   9.055 -0.6108  4.1887  2.8785
  129MOL0     H17384   7.391   9.185   9.056  1.6022  2.0403 -5.4971
  129MOL0     H17385   7.242   9.269   9.260  0.3808 -1.8968 -0.1300
  129MOL0     H17386   7.362   9.407   9.274 -3.6183  1.2116  0.7950
  129MOL0     H17387   7.414   9.116   9.291 -0.3687 -0.4609  2.0484
  129MOL0     H17388   7.539   9.225   9.334  0.5430 -0.2310 -0.0274
  129MOL0     H17389   7.321   9.288   9.502  0.6634  0.2398  1.7107
  129MOL0     H17390   7.494   9.291   9.523 -0.1931  0.5996 -0.0962
  129MOL0     H17391   7.410   9.131   9.670 -0.1963 -1.0697  0.5489
  129MOL0     H17392   7.326   9.046   9.537 -1.9910  1.9586  0.7961
  129MOL0     H17393   7.630   9.091   9.535 -1.0503  1.1141  2.3188
  129MOL0     H17394   7.522   8.989   9.418 -1.5802 -0.2403  0.2988
  129MOL0     H17395   7.582   8.927   9.715  0.9654 -2.5596 -0.1715
  129MOL0     H17396   7.647   8.838   9.578 -0.5157 -1.6375 -0.0492
  129MOL0     H17397   7.775   9.231   8.990  0.5295 -0.0557  0.7551
  129MOL0     H17398   7.965   9.326   8.868 -1.8651  0.7260 -3.0398
  129MOL0     H17399   8.314   9.844   8.887  2.0129 -1.7088  1.6552
  129MOL0     H17400   8.490   9.923   8.711 -0.4610  0.6953 -2.6332
  129MOL0     H17401  10.210  10.539   8.333 -0.1439  1.6356 -0.0705
  129MOL0     H17402  10.214  10.780   8.439 -1.7295  0.7250 -1.3144
  129MOL0     H17403  10.375  11.039   8.724  1.5043  1.6435 -0.3972
  129MOL0     H17404  10.425  11.223   8.859  0.5951 -2.1057  0.8939
  129MOL0     H17405  10.358  11.333   9.102 -2.2990  0.2890  1.5834
  129MOL0     H17406  10.444  11.420   8.966 -1.7328 -0.8937 -2.5265
  129MOL0     H17407  10.255  11.555   9.175  0.5820 -0.4667  0.7779
  129MOL0     H17408  10.346  11.621   9.029 -2.4358  1.3095  0.4523
  129MOL0     H17409  10.542  11.609   9.141 -2.3777  3.5177  0.5777
  129MOL0     H17410  10.521  11.454   9.214 -2.7829 -1.4894 -1.2112
  129MOL0     H17411  10.535  11.657   9.379  0.0182  0.2029  0.9683
  129MOL0     H17412  10.393  11.558   9.393 -2.3207  4.7818  2.9978
  129MOL0     H17413  10.279  11.950   9.282  3.4614  1.5841 -0.9562
  129MOL0     H17414   9.997  11.335   8.845 -2.4702 -1.3393 -2.0016
  129MOL0     H17415   9.952  11.128   8.730 -0.4178 -0.9462  0.1952
  130MOL0     O17416   2.479   8.908   8.495  0.1677 -0.4470  0.3731
  130MOL0     C17417   2.380   8.907   8.420 -0.6447 -1.2199 -1.2950
  130MOL0     O17418   2.282   8.995   8.425 -0.2500 -0.2020  0.0530
  130MOL0     C17419   2.249   9.078   8.533  0.2463  0.0246 -0.8254
  130MOL0     C17420   2.131   9.149   8.508  0.2025  0.7756 -1.2035
  130MOL0     C17421   2.080   9.240   8.608  0.0949 -0.0807  0.3981
  130MOL0     C17422   2.139   9.256   8.741 -0.0291  0.1407 -0.9314
  130MOL0     O17423   2.085   9.333   8.833  0.8153 -1.4321 -0.8385
  130MOL0     C17424   2.068   9.284   8.961 -0.5355 -0.0490 -0.5551
  130MOL0     C17425   1.950   9.183   8.980 -1.4966 -0.7997 -0.2366
  130MOL0     C17426   1.946   9.149   9.128 -0.3283 -0.1215 -0.2440
  130MOL0     C17427   1.830   9.069   9.177  0.5051 -0.2699  0.0479
  130MOL0     C17428   1.697   9.062   9.084  0.1957 -0.4280 -0.3132
  130MOL0     C17429   1.612   8.945   9.120 -0.3651  0.9911  0.4466
  130MOL0     C17430   1.485   8.953   9.034 -0.1326 -0.6528 -1.0194
  130MOL0     C17431   1.402   8.829   9.063  0.1420  0.8130 -0.7045
  130MOL0     N17432   1.357   8.814   9.195 -0.1554 -0.0022  0.7899
  130MOL0     C17433   1.254   8.895   9.245  0.4726 -0.0173  0.2976
  130MOL0     C17434   1.243   8.861   9.372 -0.0658  0.8378 -0.3954
  130MOL0     C17435   1.156   8.935   9.473 -0.2228  0.2300  1.1277
  130MOL0     C17436   1.022   8.851   9.496 -0.7494 -0.0979  0.8411
  130MOL0     C17437   0.974   8.852   9.639 -0.3095 -0.2662  0.5087
  130MOL0     C17438   0.931   8.995   9.677  0.3899  0.4935 -0.6058
  130MOL0     O17439   0.831   9.036   9.583  0.1387 -0.0510 -0.4888
  130MOL0     C17440   0.773   9.156   9.610 -0.2761  0.1365 -0.4816
  130MOL0     C17441   0.649   9.165   9.545 -0.7595 -0.1519 -0.3500
  130MOL0     C17442   0.565   9.272   9.545 -0.5382 -0.3073  0.1541
  130MOL0     C17443   0.449   9.259   9.450 -0.0218  0.2609  0.5809
  130MOL0     C17444   0.601   9.384   9.622  0.5655 -0.1501 -0.4168
  130MOL0     C17445   0.521   9.508   9.652  1.1707 -0.0957  0.0417
  130MOL0     O17446   0.396   9.522   9.600  0.0986  0.2589 -0.8992
  130MOL0     C17447   0.328   9.640   9.594 -0.1609 -0.1989  0.7672
  130MOL0     C17448   0.267   9.695   9.710 -0.0080  0.2418  0.1244
  130MOL0     C17449   0.188   9.811   9.693 -0.1105 -0.9451  1.1727
  130MOL0     C17450   0.180   9.879   9.577 -0.9158  0.2175 -0.3623
  130MOL0     O17451   0.102   9.988   9.571 -0.0899 -0.4468 -0.3008
  130MOL0     C17452   0.148  10.119   9.516  0.8693  0.1348 -0.6654
  130MOL0     C17453   0.256  10.190   9.608 -0.1102 -0.4094 -0.1358
  130MOL0     C17454   0.204  10.262   9.723 -0.7541  0.2460 -0.3718
  130MOL0     C17455   0.111  10.176   9.808  0.1344  0.1483  0.0112
  130MOL0     C17456   0.076  10.247   9.940 -0.2683 -0.3380 -0.3325
  130MOL0     C17457  -0.004  10.155  10.031 -0.3108  0.5722 -0.3889
  130MOL0     C17458   0.011  10.197  10.173  0.5679  0.5163 -0.4234
  130MOL0     C17459  -0.090  10.314  10.209  0.2421 -0.8996  0.1976
  130MOL0    Cl17460  -0.265  10.284  10.179 -0.0225  0.8190 -0.0466
  130MOL0     C17461   0.243   9.824   9.463  0.4696 -0.1181  0.2519
  130MOL0     C17462   0.315   9.704   9.466  0.0105  0.4122  0.4507
  130MOL0     O17463   0.569   9.588   9.728 -0.1255  0.2474  0.6239
  130MOL0     C17464   0.724   9.373   9.693 -1.1932 -0.5214  0.1488
  130MOL0     C17465   0.806   9.255   9.697  0.0310  0.2256 -1.0548
  130MOL0     N17466   1.332   8.758   9.395 -0.0838  0.7260 -0.5519
  130MOL0     N17467   1.389   8.726   9.282 -0.4782 -0.5686  0.7684
  130MOL0     C17468   2.258   9.187   8.761 -0.1616  0.2361 -0.0242
  130MOL0     C17469   2.308   9.101   8.659 -0.2957 -0.7446 -0.2131
  130MOL0     C17470   2.396   8.825   8.305  0.6718  0.3831 -0.2833
  130MOL0     C17471   2.506   8.757   8.261 -0.0930  0.0499 -0.0365
  130MOL0     C17472   2.505   8.682   8.148 -0.3011 -0.3428  0.1884
  130MOL0     C17473   2.406   8.659   8.065  0.5554 -0.7805  0.4233
  130MOL0     O17474   2.426   8.589   7.951  0.7965 -0.2954  0.2484
  130MOL0     C17475   2.316   8.549   7.883 -0.4130 -1.1912  0.5187
  130MOL0     C17476   2.359   8.435   7.788  0.3366 -0.6725  0.7099
  130MOL0     C17477   2.232   8.372   7.724  0.5068 -0.6018  0.2382
  130MOL0     C17478   2.275   8.260   7.630  0.2110  0.2250 -1.0530
  130MOL0     C17479   2.337   8.290   7.498  0.2844  0.4066  0.2552
  130MOL0     C17480   2.387   8.295   7.384 -0.5471 -0.7388 -0.0954
  130MOL0     C17481   2.288   8.738   8.100  0.6529  1.3163 -0.6549
  130MOL0     C17482   2.279   8.807   8.220  0.3202 -0.4377 -0.0932
  130MOL0     H17483   2.058   9.129   8.431  1.1523  0.6115 -2.0898
  130MOL0     H17484   1.991   9.294   8.577 -0.8404 -1.2978  0.8794
  130MOL0     H17485   2.156   9.227   8.995 -0.7375  0.3384  0.6490
  130MOL0     H17486   2.056   9.362   9.036  1.4399 -0.4897  0.2866
  130MOL0     H17487   1.858   9.232   8.946  0.4777  0.9618 -3.4855
  130MOL0     H17488   1.974   9.096   8.918 -0.7203  1.3309 -3.1384
  130MOL0     H17489   2.036   9.096   9.159  0.1054  0.8880  0.2594
  130MOL0     H17490   1.937   9.247   9.175 -1.7458  0.4275 -1.5839
  130MOL0     H17491   1.878   8.972   9.187  0.7434 -0.0949  0.6262
  130MOL0     H17492   1.797   9.118   9.270  5.1169  0.4493  1.5808
  130MOL0     H17493   1.636   9.151   9.097 -2.6345 -2.4405  1.3233
  130MOL0     H17494   1.732   9.065   8.980  0.0854 -2.6304 -0.4587
  130MOL0     H17495   1.674   8.858   9.097 -1.5795 -1.1562  4.2816
  130MOL0     H17496   1.596   8.947   9.228 -0.6668 -2.5403  0.5929
  130MOL0     H17497   1.422   9.040   9.060 -2.2773 -2.6079  0.8307
  130MOL0     H17498   1.507   8.955   8.927  0.4027  1.2931 -0.9077
  130MOL0     H17499   1.448   8.733   9.037 -2.5746 -1.0072  0.8068
  130MOL0     H17500   1.315   8.822   8.997  0.8474 -1.5461 -1.4956
  130MOL0     H17501   1.202   8.965   9.180 -2.5642  0.7647  3.2752
  130MOL0     H17502   1.188   8.944   9.577 -0.2745  1.0371  1.0783
  130MOL0     H17503   1.120   9.031   9.436  0.0387 -0.1410 -0.1363
  130MOL0     H17504   1.055   8.758   9.449 -1.3256  0.7709 -1.3687
  130MOL0     H17505   0.941   8.885   9.432  0.9432  0.3736 -1.1529
  130MOL0     H17506   1.049   8.809   9.705 -2.0975 -2.5057  1.2145
  130MOL0     H17507   0.884   8.790   9.640 -0.1114 -1.0790 -4.5326
  130MOL0     H17508   1.015   9.066   9.685  1.9209 -1.2921 -0.0941
  130MOL0     H17509   0.888   8.996   9.778  1.8255 -1.2192  0.0835
  130MOL0     H17510   0.623   9.075   9.489  1.4102 -1.2233  0.2469
  130MOL0     H17511   0.466   9.312   9.356 -4.1584  3.8954  1.5484
  130MOL0     H17512   0.427   9.159   9.413 -2.3366  0.5776  0.8932
  130MOL0     H17513   0.348   9.293   9.476 -1.3162 -2.2783 -0.7518
  130MOL0     H17514   0.257   9.638   9.802 -1.0908 -2.3276 -1.4711
  130MOL0     H17515   0.129   9.846   9.778  0.6969 -1.2544  1.8751
  130MOL0     H17516   0.184  10.105   9.413  1.9666  2.0809 -0.5846
  130MOL0     H17517   0.067  10.191   9.508  0.2783 -0.4884 -0.3269
  130MOL0     H17518   0.340  10.122   9.628  3.2194  4.0140  2.7165
  130MOL0     H17519   0.312  10.268   9.556  1.5484 -1.2472  0.3295
  130MOL0     H17520   0.150  10.354   9.699  1.5530  1.5933 -0.7006
  130MOL0     H17521   0.289  10.289   9.787  0.1787 -1.5466 -0.8124
  130MOL0     H17522   0.027  10.158   9.740  0.8467 -0.7948 -0.6348
  130MOL0     H17523   0.159  10.085   9.842 -1.5642 -0.3492  1.2006
  130MOL0     H17524   0.034  10.348   9.932 -0.1408  0.0248  2.5337
  130MOL0     H17525   0.176  10.261   9.983  0.2259  1.2368 -1.8813
  130MOL0     H17526  -0.106  10.165   9.993 -0.1050 -1.6985 -1.8011
  130MOL0     H17527   0.023  10.051  10.009 -2.2839  0.2658 -1.5977
  130MOL0     H17528   0.110  10.240  10.192  0.4511  1.1395 -1.1963
  130MOL0     H17529   0.005  10.107  10.236  0.0708  1.8726  1.5542
  130MOL0     H17530  -0.051  10.407  10.168  0.8772 -0.9956  0.5756
  130MOL0     H17531  -0.064  10.336  10.312  1.0608 -2.6579  0.4123
  130MOL0     H17532   0.236   9.872   9.366 -2.7888 -1.5374 -0.3412
  130MOL0     H17533   0.365   9.665   9.378  1.0194 -0.9279  1.5501
  130MOL0     H17534   0.756   9.456   9.755  0.5322 -0.8919 -0.2103
  130MOL0     H17535   0.899   9.244   9.752 -0.3672 -2.9151 -0.7969
  130MOL0     H17536   2.311   9.169   8.855  0.4370 -2.5619 -0.8025
  130MOL0     H17537   2.399   9.045   8.682 -0.9679 -1.9619 -0.4596
  130MOL0     H17538   2.600   8.762   8.314  1.3001  0.1557 -2.3964
  130MOL0     H17539   2.598   8.643   8.109 -0.4074 -0.6982  0.2899
  130MOL0     H17540   2.241   8.520   7.957 -0.0410  0.8286  1.7668
  130MOL0     H17541   2.285   8.633   7.821  2.5568  0.7225  1.3825
  130MOL0     H17542   2.416   8.364   7.849  1.8622  0.5733  0.8064
  130MOL0     H17543   2.431   8.478   7.718  0.7986 -1.6947  0.5373
  130MOL0     H17544   2.173   8.444   7.667  1.1588 -0.2017  0.0546
  130MOL0     H17545   2.171   8.323   7.800 -0.7169  0.8175  0.2178
  130MOL0     H17546   2.193   8.192   7.603  0.6816 -1.1764  0.8762
  130MOL0     H17547   2.339   8.190   7.684 -0.8538  0.6017  0.7896
  130MOL0     H17548   2.425   8.315   7.286  1.6654 -2.4850  0.3177
  130MOL0     H17549   2.194   8.746   8.046 -1.0204  1.2224  2.0690
  130MOL0     H17550   2.184   8.859   8.228 -0.1686 -1.3490  0.2161
  131MOL0     O17551  10.272   7.186   6.225 -0.4737  0.2307  0.0764
  131MOL0     C17552  10.372   7.150   6.287 -0.6578  1.0051  0.5306
  131MOL0     O17553  10.464   7.227   6.356  0.0497  0.1345  0.6569
  131MOL0     C17554  10.472   7.364   6.352 -0.3981 -0.9548 -0.1665
  131MOL0     C17555  10.588   7.419   6.413  0.6141  0.1428  0.4372
  131MOL0     C17556  10.609   7.558   6.398 -0.6313 -0.7420 -1.1630
  131MOL0     C17557  10.514   7.644   6.343  0.1191 -0.0499 -0.3819
  131MOL0     O17558  10.526   7.785   6.315  0.1904  0.1282  0.2018
  131MOL0     C17559  10.629   7.859   6.399  0.4757  0.2734  0.8445
  131MOL0     C17560  10.641   8.010   6.359  0.9713 -0.5405  1.4781
  131MOL0     C17561  10.529   8.094   6.439  0.4212  0.5457  1.0636
  131MOL0     C17562  10.564   8.243   6.458  0.0313  1.0926  1.4605
  131MOL0     C17563  10.445   8.326   6.515 -0.6507 -0.1775  0.5190
  131MOL0     C17564  10.489   8.448   6.594 -0.0211  0.3934 -0.6380
  131MOL0     C17565  10.584   8.533   6.513  0.3422 -1.0251  0.8479
  131MOL0     C17566  10.551   8.682   6.532 -0.4041  0.2220 -0.4239
  131MOL0     N17567  10.550   8.737   6.666  0.0833  1.0028  0.1561
  131MOL0     C17568  10.608   8.684   6.781 -0.4381  0.0719 -0.8012
  131MOL0     C17569  10.552   8.752   6.879  0.4434  0.1296  0.9165
  131MOL0     C17570  10.553   8.696   7.018 -0.4871 -1.0109  0.0679
  131MOL0     C17571  10.514   8.556   7.051  0.4494 -0.2485  0.1659
  131MOL0     C17572  10.371   8.547   7.105  0.1841  0.4419 -0.7369
  131MOL0     C17573  10.257   8.616   7.028  0.9881 -0.9949  0.5217
  131MOL0     O17574  10.224   8.545   6.907  0.5838  0.5019  0.0220
  131MOL0     C17575  10.095   8.574   6.866 -0.2771  0.1490 -0.6635
  131MOL0     C17576   9.987   8.492   6.906  0.2558  0.0197 -1.3251
  131MOL0     C17577   9.869   8.501   6.830  0.0490 -0.3899  0.4691
  131MOL0     C17578   9.742   8.437   6.881  0.1272  1.1895  0.2388
  131MOL0     C17579   9.859   8.596   6.723 -0.6996 -0.1758  0.1131
  131MOL0     C17580   9.733   8.615   6.645 -0.6626  0.5544 -0.0655
  131MOL0     O17581   9.651   8.502   6.625  0.2388 -0.5928  1.0587
  131MOL0     C17582   9.560   8.504   6.525 -0.0910 -0.6935  0.7986
  131MOL0     C17583   9.557   8.583   6.414 -0.5889 -0.5970 -0.3084
  131MOL0     C17584   9.450   8.578   6.317 -1.1837  0.0160 -0.9050
  131MOL0     C17585   9.350   8.477   6.335 -0.3324 -0.9647  0.1482
  131MOL0     O17586   9.241   8.459   6.246 -0.4356  0.3425 -0.4464
  131MOL0     C17587   9.272   8.477   6.111 -0.4119  0.4330 -0.2438
  131MOL0     C17588   9.341   8.355   6.041  0.0083 -0.0828 -0.8061
  131MOL0     C17589   9.307   8.374   5.894  0.0322  0.0930 -1.4242
  131MOL0     C17590   9.393   8.285   5.812 -0.7596  0.3157 -1.0693
  131MOL0     C17591   9.358   8.300   5.665 -0.1010  0.8173  1.3864
  131MOL0     C17592   9.461   8.253   5.571 -0.3262 -0.4793  0.4734
  131MOL0     C17593   9.508   8.112   5.588 -1.3614 -0.0666 -0.3360
  131MOL0     C17594   9.403   8.000   5.557  0.4225  0.2304 -0.3296
  131MOL0    Cl17595   9.428   7.947   5.396 -0.5310  0.3729 -0.5768
  131MOL0     C17596   9.348   8.393   6.452 -0.6752 -0.9833 -0.1738
  131MOL0     C17597   9.460   8.402   6.539 -0.5061  0.5255  0.5436
  131MOL0     O17598   9.716   8.726   6.596  0.1329  0.3407  0.9186
  131MOL0     C17599   9.967   8.673   6.694  0.1734 -1.0718 -0.2468
  131MOL0     C17600  10.082   8.659   6.758  0.4353  0.2204 -0.2760
  131MOL0     N17601  10.475   8.854   6.824  0.4293 -0.8724 -0.6891
  131MOL0     N17602  10.478   8.843   6.695  0.4507  0.3837 -0.1062
  131MOL0     C17603  10.396   7.587   6.287  0.2253  0.0969  0.2979
  131MOL0     C17604  10.375   7.451   6.291 -0.3275  0.4189 -0.4786
  131MOL0     C17605  10.393   7.005   6.257 -0.1886  0.8707 -0.2870
  131MOL0     C17606  10.288   6.931   6.195 -0.1277  0.2725 -0.7183
  131MOL0     C17607  10.296   6.794   6.187  0.8727 -0.2585  0.4579
  131MOL0     C17608  10.410   6.719   6.232 -0.4325 -0.2737  0.8401
  131MOL0     O17609  10.435   6.585   6.218 -0.3909 -0.5864 -0.4358
  131MOL0     C17610  10.354   6.516   6.115 -0.4109  1.0791 -0.3912
  131MOL0     C17611  10.387   6.370   6.086  0.6257  1.0035  0.7200
  131MOL0     C17612  10.299   6.325   5.971  0.4189  0.8443  0.6180
  131MOL0     C17613  10.225   6.187   5.982  0.1715  0.5101  0.7894
  131MOL0     C17614  10.310   6.073   5.998 -0.3536  0.3449 -0.1342
  131MOL0     C17615  10.382   5.984   6.010  0.2171 -0.1057  0.2278
  131MOL0     C17616  10.516   6.794   6.285  0.5719  0.9062 -0.2673
  131MOL0     C17617  10.509   6.932   6.293  0.3089 -0.4413 -0.6880
  131MOL0     H17618  10.658   7.348   6.456  0.5340  0.3524  0.9220
  131MOL0     H17619  10.700   7.595   6.445  1.4177 -0.0407 -5.2561
  131MOL0     H17620  10.595   7.849   6.503 -0.3754 -2.5095  0.3893
  131MOL0     H17621  10.727   7.813   6.380 -0.3253 -0.4024 -2.2322
  131MOL0     H17622  10.738   8.057   6.376  1.2959 -0.6563  0.1146
  131MOL0     H17623  10.638   8.015   6.250  1.3111 -0.8517  1.4506
  131MOL0     H17624  10.433   8.083   6.388  1.8296  1.6571 -2.0457
  131MOL0     H17625  10.515   8.055   6.540  0.7129  0.7876  1.1995
  131MOL0     H17626  10.630   8.249   6.545  0.8424  3.5459  0.7599
  131MOL0     H17627  10.616   8.292   6.376 -2.4021 -1.5494 -1.9592
  131MOL0     H17628  10.378   8.360   6.435  2.2799  2.3139 -1.0730
  131MOL0     H17629  10.404   8.263   6.595  2.2506  1.4071  3.4744
  131MOL0     H17630  10.405   8.511   6.623 -1.5856 -1.4461 -1.0184
  131MOL0     H17631  10.542   8.411   6.682  2.1422  0.1506 -1.9674
  131MOL0     H17632  10.685   8.513   6.549  1.3729  1.8994 -0.1577
  131MOL0     H17633  10.581   8.510   6.406  2.2903 -0.8391  0.7117
  131MOL0     H17634  10.445   8.677   6.502 -0.7535 -0.2550  0.8565
  131MOL0     H17635  10.611   8.748   6.468 -1.7252 -0.2449 -2.2490
  131MOL0     H17636  10.680   8.603   6.782  2.1379  2.2244 -1.1752
  131MOL0     H17637  10.661   8.703   7.033 -0.4594  2.4698 -0.8098
  131MOL0     H17638  10.508   8.767   7.087  2.1739 -1.1025  2.0646
  131MOL0     H17639  10.591   8.512   7.115 -1.4517 -2.2564  1.2264
  131MOL0     H17640  10.514   8.504   6.955 -1.1289  1.0023 -0.5739
  131MOL0     H17641  10.377   8.575   7.210  1.8080 -2.6184  0.1140
  131MOL0     H17642  10.341   8.442   7.105 -0.3539  0.4965  2.3334
  131MOL0     H17643  10.301   8.709   6.992 -0.5528  0.6518  2.6534
  131MOL0     H17644  10.168   8.632   7.089 -1.5470 -0.7566 -2.9401
  131MOL0     H17645   9.995   8.412   6.979  2.0432 -1.1658 -2.7133
  131MOL0     H17646   9.652   8.498   6.882  1.5545  3.3816  0.8049
  131MOL0     H17647   9.724   8.346   6.823  2.0274 -0.3734  1.9435
  131MOL0     H17648   9.754   8.407   6.986 -0.8377  1.6611  0.4854
  131MOL0     H17649   9.632   8.657   6.388  1.8057 -3.5030 -2.3262
  131MOL0     H17650   9.435   8.649   6.237  0.1145 -0.2544 -1.4041
  131MOL0     H17651   9.176   8.501   6.065 -0.1342  0.9431 -0.5732
  131MOL0     H17652   9.337   8.563   6.089 -1.9662  2.6209  2.9021
  131MOL0     H17653   9.448   8.370   6.057 -0.1131 -0.4723  0.4299
  131MOL0     H17654   9.303   8.262   6.085  1.3630  0.1380  0.9450
  131MOL0     H17655   9.333   8.477   5.864  1.0312  0.2121 -0.2498
  131MOL0     H17656   9.198   8.376   5.892 -0.0070  2.8295 -0.7719
  131MOL0     H17657   9.497   8.303   5.841 -0.5485 -0.7697 -1.1011
  131MOL0     H17658   9.376   8.179   5.834  0.2862  1.0069  4.3769
  131MOL0     H17659   9.333   8.405   5.647 -0.2212  0.6393  0.4435
  131MOL0     H17660   9.276   8.231   5.646  0.2745  0.4345  1.1327
  131MOL0     H17661   9.415   8.268   5.472 -1.3329 -0.6066  0.9039
  131MOL0     H17662   9.549   8.318   5.577 -1.7947  1.6791 -0.0665
  131MOL0     H17663   9.541   8.094   5.690  0.8699 -0.0222 -1.0005
  131MOL0     H17664   9.598   8.089   5.531 -0.2103 -0.1845  1.4514
  131MOL0     H17665   9.297   8.028   5.561  0.7113  1.7721 -1.8544
  131MOL0     H17666   9.398   7.911   5.619 -2.1053  1.1133  0.8617
  131MOL0     H17667   9.269   8.320   6.456 -0.8538 -0.7610  0.6028
  131MOL0     H17668   9.465   8.315   6.603  0.2665 -1.0981 -1.6211
  131MOL0     H17669   9.968   8.749   6.616 -0.5643  2.0553  2.5712
  131MOL0     H17670  10.166   8.717   6.722  0.8458  0.9342  1.7060
  131MOL0     H17671  10.324   7.659   6.249  0.6797  0.5197  0.2222
  131MOL0     H17672  10.287   7.413   6.241  0.6231 -1.4405 -0.8695
  131MOL0     H17673  10.203   6.990   6.164 -1.4184 -1.3839 -0.4510
  131MOL0     H17674  10.206   6.754   6.142 -1.2803 -1.0173  4.8958
  131MOL0     H17675  10.253   6.509   6.156 -0.8360  1.9927 -1.2281
  131MOL0     H17676  10.354   6.589   6.032 -2.6387  1.9454  0.2906
  131MOL0     H17677  10.363   6.305   6.170 -0.3215  0.6164  0.1670
  131MOL0     H17678  10.494   6.357   6.066  1.0760  0.5852  3.0683
  131MOL0     H17679  10.358   6.326   5.879 -2.6732 -1.8899 -1.6379
  131MOL0     H17680  10.218   6.400   5.973 -1.3233 -0.9059 -0.4428
  131MOL0     H17681  10.168   6.187   5.889 -1.3843  2.1341  1.6794
  131MOL0     H17682  10.151   6.180   6.062 -2.6363 -0.0400 -1.6694
  131MOL0     H17683  10.449   5.901   6.004 -0.2286 -0.4271 -4.3138
  131MOL0     H17684  10.613   6.749   6.304 -0.7345 -1.7352  0.6778
  131MOL0     H17685  10.597   6.985   6.328 -1.2237  4.2004 -2.9504
  132MOL0     O17686   5.009   4.456   4.662  0.3121  0.2142 -0.9902
  132MOL0     C17687   5.048   4.439   4.549 -0.4109 -0.1922  0.8090
  132MOL0     O17688   5.149   4.354   4.511  0.1995  0.0159 -0.5021
  132MOL0     C17689   5.168   4.224   4.553  0.3065  0.7600  0.2965
  132MOL0     C17690   5.071   4.149   4.617 -0.0389  0.4669 -1.0715
  132MOL0     C17691   5.096   4.019   4.656 -0.4049  0.5242  0.5612
  132MOL0     C17692   5.220   3.958   4.631  0.3498 -0.0303  1.1286
  132MOL0     O17693   5.236   3.835   4.668 -0.7107 -0.0443  0.2475
  132MOL0     C17694   5.292   3.739   4.577 -0.5524  0.1980 -0.6253
  132MOL0     C17695   5.278   3.608   4.654 -0.0442 -0.1658 -0.0141
  132MOL0     C17696   5.138   3.587   4.718  0.7243 -0.7768  0.7457
  132MOL0     C17697   5.012   3.625   4.633  0.0649  0.9654 -0.5277
  132MOL0     C17698   4.885   3.577   4.700 -0.6804 -0.1491  1.0749
  132MOL0     C17699   4.849   3.677   4.808  0.1770 -0.0563 -0.6465
  132MOL0     C17700   4.713   3.637   4.874 -0.2842  1.0069  0.0619
  132MOL0     C17701   4.640   3.715   4.981 -0.5148 -0.1422  0.2522
  132MOL0     N17702   4.500   3.682   4.994 -0.3264 -0.4661 -0.4905
  132MOL0     C17703   4.410   3.733   4.908  1.2346  0.3798 -0.0946
  132MOL0     C17704   4.285   3.679   4.954 -0.3407  0.9691 -0.0922
  132MOL0     C17705   4.149   3.715   4.905  0.3130  0.3164 -0.1040
  132MOL0     C17706   4.082   3.825   4.992 -0.3871  0.3032  0.3466
  132MOL0     C17707   3.944   3.855   4.936 -0.1091 -1.2290  0.1864
  132MOL0     C17708   3.841   3.753   5.000 -0.0999  0.1214  0.4567
  132MOL0     O17709   3.712   3.787   4.957 -0.2602 -0.0132  0.4789
  132MOL0     C17710   3.674   3.907   4.992  0.9093  0.4778 -0.2075
  132MOL0     C17711   3.609   3.980   4.887  0.7722  0.2347 -0.3957
  132MOL0     C17712   3.538   4.099   4.912 -0.0567  1.0777  0.2397
  132MOL0     C17713   3.487   4.173   4.786 -0.9303 -1.3488 -0.0514
  132MOL0     C17714   3.533   4.142   5.046 -0.7209 -0.2797  0.2908
  132MOL0     C17715   3.460   4.263   5.086 -1.2327  0.8147 -0.1747
  132MOL0     O17716   3.359   4.251   5.178 -0.4631 -0.3346 -0.7286
  132MOL0     C17717   3.274   4.362   5.193 -0.2871  0.9765  0.8864
  132MOL0     C17718   3.228   4.366   5.317 -0.1526 -0.2047  0.2677
  132MOL0     C17719   3.144   4.473   5.346 -0.0161  0.5781 -0.1160
  132MOL0     C17720   3.098   4.563   5.251 -0.3121 -0.3187  0.3492
  132MOL0     O17721   3.019   4.675   5.265 -0.2962  0.8642  0.0319
  132MOL0     C17722   2.958   4.697   5.387  0.2360 -0.6665 -0.7229
  132MOL0     C17723   2.897   4.829   5.369  0.0183 -1.1668  0.0275
  132MOL0     C17724   2.821   4.869   5.500 -0.2106  0.2482 -0.8345
  132MOL0     C17725   2.735   5.002   5.479  0.9465  0.0958  1.3159
  132MOL0     C17726   2.592   4.965   5.427 -0.0721 -0.1758 -0.1462
  132MOL0     C17727   2.496   5.082   5.399 -0.5588  0.6450 -0.2121
  132MOL0     C17728   2.342   5.043   5.383 -0.6816  0.2158  0.7366
  132MOL0     C17729   2.299   4.916   5.455 -0.1809 -0.5598  0.6522
  132MOL0    Cl17730   2.127   4.892   5.461  0.1821 -0.0177 -0.1750
  132MOL0     C17731   3.147   4.549   5.120 -0.2177  0.3852  0.2726
  132MOL0     C17732   3.225   4.440   5.088 -0.0623  0.6607 -0.2994
  132MOL0     O17733   3.524   4.372   5.058  0.5158 -0.0756  0.0007
  132MOL0     C17734   3.584   4.065   5.151  0.2384  0.1582 -0.7306
  132MOL0     C17735   3.656   3.947   5.123  0.7422 -0.5687 -0.7316
  132MOL0     N17736   4.315   3.604   5.065 -0.7979  0.5556  0.9548
  132MOL0     N17737   4.445   3.602   5.082  0.4725 -0.3292 -0.1704
  132MOL0     C17738   5.311   4.037   4.564  0.3848  0.5987 -0.1600
  132MOL0     C17739   5.284   4.162   4.523 -0.1184 -0.0404  0.0371
  132MOL0     C17740   4.981   4.521   4.444 -0.4414 -0.7739 -0.2295
  132MOL0     C17741   4.867   4.599   4.481  0.5971 -0.1025  0.3520
  132MOL0     C17742   4.798   4.675   4.381  0.4296  0.8355 -0.2596
  132MOL0     C17743   4.843   4.697   4.256 -0.3370  0.6122  2.0094
  132MOL0     O17744   4.783   4.803   4.185  0.2940  0.1122  0.8172
  132MOL0     C17745   4.859   4.873   4.073  0.0091  0.7785 -0.0961
  132MOL0     C17746   4.766   4.881   3.943 -0.4857  0.5531  0.1704
  132MOL0     C17747   4.656   4.976   3.975 -0.1307  0.2990  0.1070
  132MOL0     C17748   4.573   5.004   3.855 -0.2904 -0.7700  0.1412
  132MOL0     C17749   4.502   4.897   3.791  0.8312  0.0132  0.0745
  132MOL0     C17750   4.435   4.805   3.758  0.3434 -0.5045  0.6682
  132MOL0     C17751   4.959   4.624   4.213  0.1090  0.1026  0.4180
  132MOL0     C17752   5.029   4.545   4.313  0.6607  0.5792  0.5896
  132MOL0     H17753   4.983   4.198   4.656  0.6032  0.0004  1.1011
  132MOL0     H17754   5.016   3.958   4.697  1.2031 -2.1055  0.0468
  132MOL0     H17755   5.244   3.738   4.478 -0.2710 -1.9458 -0.7946
  132MOL0     H17756   5.394   3.762   4.548 -0.6887  1.1344 -0.3766
  132MOL0     H17757   5.285   3.525   4.584  3.8877 -2.9172  3.1905
  132MOL0     H17758   5.349   3.603   4.737 -0.9044 -1.1684  0.6888
  132MOL0     H17759   5.128   3.478   4.729  0.0098 -0.8186 -0.2201
  132MOL0     H17760   5.137   3.635   4.817  3.5501  3.0197 -0.8198
  132MOL0     H17761   5.010   3.733   4.617  0.7433  0.9793 -0.5636
  132MOL0     H17762   5.015   3.567   4.541 -0.0088  0.2798 -0.1033
  132MOL0     H17763   4.806   3.581   4.624  0.2587 -0.4456  0.0631
  132MOL0     H17764   4.897   3.474   4.735  0.1036 -0.5886 -0.4260
  132MOL0     H17765   4.927   3.691   4.884 -0.3578  1.5644 -0.3540
  132MOL0     H17766   4.831   3.772   4.756 -1.9002  0.7188  1.3162
  132MOL0     H17767   4.632   3.648   4.802 -1.0063  2.0291  1.0008
  132MOL0     H17768   4.731   3.533   4.902  1.4966  1.7581  1.9426
  132MOL0     H17769   4.656   3.823   4.971  0.4594  0.0245  2.8846
  132MOL0     H17770   4.702   3.690   5.067  0.7274  0.1060 -0.5444
  132MOL0     H17771   4.417   3.792   4.817 -1.0352 -0.3954 -0.8423
  132MOL0     H17772   4.138   3.738   4.798 -4.2309  1.3819  0.3943
  132MOL0     H17773   4.098   3.619   4.915 -0.2874  0.8364  2.6928
  132MOL0     H17774   4.126   3.925   4.993  1.3693 -0.4354  0.8982
  132MOL0     H17775   4.074   3.791   5.095 -2.7410 -1.3913 -0.2966
  132MOL0     H17776   3.957   3.846   4.828  3.5179 -3.2720  0.6189
  132MOL0     H17777   3.932   3.960   4.962  0.2536 -0.6409 -1.8803
  132MOL0     H17778   3.843   3.756   5.109 -0.0167  0.8258  0.4359
  132MOL0     H17779   3.864   3.651   4.965 -3.0813 -0.6179  0.4169
  132MOL0     H17780   3.623   3.933   4.791 -2.1180  1.1838 -1.3775
  132MOL0     H17781   3.395   4.231   4.802 -1.7784 -2.5420 -0.4950
  132MOL0     H17782   3.564   4.246   4.759 -2.7104  0.0882 -1.5118
  132MOL0     H17783   3.467   4.112   4.698 -1.7505 -2.0925  0.6326
  132MOL0     H17784   3.261   4.305   5.400 -0.9567  0.4904  1.1125
  132MOL0     H17785   3.110   4.482   5.449  0.0213 -2.4706  0.2822
  132MOL0     H17786   2.883   4.624   5.419  1.4549 -2.7998 -2.4005
  132MOL0     H17787   3.030   4.718   5.466  1.1864  2.8218 -2.3351
  132MOL0     H17788   2.978   4.903   5.369  1.5067 -2.7140  1.0442
  132MOL0     H17789   2.838   4.846   5.279  0.9169  0.6186 -0.2693
  132MOL0     H17790   2.895   4.890   5.578  0.0539  1.8157 -1.4843
  132MOL0     H17791   2.757   4.782   5.519 -1.5845  1.5291  0.8852
  132MOL0     H17792   2.733   5.076   5.559  0.1993  1.8273 -0.2224
  132MOL0     H17793   2.787   5.056   5.399  1.1820  0.1970  1.5359
  132MOL0     H17794   2.544   4.932   5.520  1.4076  1.8621  1.4280
  132MOL0     H17795   2.582   4.883   5.355 -1.5903 -0.2355  0.1090
  132MOL0     H17796   2.502   5.159   5.476  1.7715  0.2677  0.0587
  132MOL0     H17797   2.529   5.125   5.304  1.4123  3.2516  1.4958
  132MOL0     H17798   2.309   5.025   5.280  0.6558 -1.6414  0.5731
  132MOL0     H17799   2.279   5.122   5.425 -2.6148 -1.8502  1.9584
  132MOL0     H17800   2.345   4.913   5.554 -0.1111  3.0335  0.8638
  132MOL0     H17801   2.347   4.834   5.401 -0.8444 -1.3676  1.2582
  132MOL0     H17802   3.136   4.634   5.054  4.3124  0.0262 -1.2242
  132MOL0     H17803   3.249   4.425   4.983 -3.6297  0.7523 -1.2492
  132MOL0     H17804   3.563   4.101   5.251  0.9678  1.8956 -1.1781
  132MOL0     H17805   3.702   3.891   5.203  0.7431  3.4065  2.3729
  132MOL0     H17806   5.411   3.993   4.560  0.1719  0.0184  0.6339
  132MOL0     H17807   5.356   4.222   4.469  0.2417 -2.2898 -2.1417
  132MOL0     H17808   4.829   4.601   4.583  0.3082 -1.5099  0.2931
  132MOL0     H17809   4.717   4.734   4.423 -1.1812 -1.0330 -0.5896
  132MOL0     H17810   4.905   4.969   4.096 -0.1727  1.1231 -1.1044
  132MOL0     H17811   4.935   4.803   4.037 -0.3135  0.5014 -0.2401
  132MOL0     H17812   4.730   4.783   3.911 -1.9568  0.2207  2.6130
  132MOL0     H17813   4.823   4.913   3.855  2.9325 -2.7844  0.9093
  132MOL0     H17814   4.715   5.058   4.015 -1.6848  0.9403  1.1386
  132MOL0     H17815   4.593   4.946   4.059  0.2723  3.4117  1.6549
  132MOL0     H17816   4.647   5.050   3.788 -0.7954  1.3012  0.9227
  132MOL0     H17817   4.505   5.084   3.885  2.4498  1.1279  1.8256
  132MOL0     H17818   4.386   4.726   3.705 -0.7393  1.1114 -0.8528
  132MOL0     H17819   5.003   4.627   4.114  1.8928 -0.1735  1.1640
  132MOL0     H17820   5.120   4.504   4.270 -0.0033 -0.3860  0.0537
  133MOL0     O17821   6.653   5.867   7.215  0.5213 -0.0464  0.1263
  133MOL0     C17822   6.552   5.933   7.238 -1.2165  0.2368  0.0747
  133MOL0     O17823   6.419   5.897   7.223 -0.2497  1.2381 -0.3666
  133MOL0     C17824   6.403   5.772   7.165  0.5349  0.2893 -0.0118
  133MOL0     C17825   6.371   5.750   7.032 -0.4246  0.0900 -0.1038
  133MOL0     C17826   6.364   5.617   6.986 -0.3985 -0.1205 -0.2496
  133MOL0     C17827   6.387   5.510   7.062  0.2750  0.8644 -1.0865
  133MOL0     O17828   6.389   5.373   7.027  0.2762 -0.3599  0.5355
  133MOL0     C17829   6.327   5.332   6.906 -0.5794 -0.1057 -0.6348
  133MOL0     C17830   6.400   5.205   6.872  0.6926  0.4449 -0.5045
  133MOL0     C17831   6.314   5.115   6.782 -0.0712  0.1245 -0.8627
  133MOL0     C17832   6.400   4.977   6.759  0.2533 -0.1789 -0.3331
  133MOL0     C17833   6.340   4.844   6.810  0.1851 -0.5413  0.2044
  133MOL0     C17834   6.373   4.841   6.958 -1.2189 -0.1207  0.1978
  133MOL0     C17835   6.328   4.709   7.015 -0.3149  0.4379  0.0696
  133MOL0     C17836   6.183   4.694   7.016 -0.6392  0.4027  0.0386
  133MOL0     N17837   6.138   4.588   7.099  0.0695  0.4959 -0.1231
  133MOL0     C17838   6.165   4.461   7.071 -0.0096  0.0961  0.8621
  133MOL0     C17839   6.130   4.391   7.187 -0.4005 -0.0776  0.4940
  133MOL0     C17840   6.128   4.247   7.227 -0.4863  0.6760  0.3468
  133MOL0     C17841   5.984   4.187   7.240  0.0650 -0.5269  0.0688
  133MOL0     C17842   5.980   4.025   7.213  0.0086  0.2522 -0.2924
  133MOL0     C17843   5.848   3.960   7.242  1.0485  0.1101  0.4828
  133MOL0     O17844   5.736   4.030   7.183  0.1071 -0.3344  0.9046
  133MOL0     C17845   5.647   3.951   7.112 -0.7753 -0.0289  0.4718
  133MOL0     C17846   5.618   3.816   7.139 -0.4810 -0.0425  0.5462
  133MOL0     C17847   5.498   3.750   7.095  0.0003 -0.8064 -0.1409
  133MOL0     C17848   5.467   3.611   7.138 -0.5624 -0.1058  0.2218
  133MOL0     C17849   5.425   3.822   7.001  0.1032  0.6483  0.0573
  133MOL0     C17850   5.313   3.767   6.920  0.4180  0.6468 -0.7366
  133MOL0     O17851   5.235   3.851   6.847  0.1833 -0.6941  0.4336
  133MOL0     C17852   5.105   3.816   6.810  0.3108 -0.3279  0.1921
  133MOL0     C17853   5.079   3.790   6.676  0.9223 -0.4815 -0.7848
  133MOL0     C17854   4.944   3.763   6.640 -0.9382  0.7742 -0.0812
  133MOL0     C17855   4.840   3.745   6.728 -1.2936  0.1315 -0.0413
  133MOL0     O17856   4.724   3.701   6.683  0.1459  0.3379  0.7110
  133MOL0     C17857   4.608   3.752   6.752  1.5184  0.7563 -0.3627
  133MOL0     C17858   4.483   3.733   6.653 -0.1257 -0.0348  0.9761
  133MOL0     C17859   4.497   3.816   6.525  0.4230 -1.1267  0.7222
  133MOL0     C17860   4.396   3.773   6.419  0.2456  0.4151 -0.0996
  133MOL0     C17861   4.247   3.790   6.461  0.1371 -0.2545 -0.1620
  133MOL0     C17862   4.170   3.657   6.472  0.0401  0.4799  0.4549
  133MOL0     C17863   4.018   3.681   6.498  0.2211  0.0796 -0.2934
  133MOL0     C17864   3.923   3.667   6.381  0.3767 -0.7167  0.4566
  133MOL0    Cl17865   3.777   3.758   6.424 -0.4798 -0.2275 -0.3621
  133MOL0     C17866   4.879   3.749   6.865  0.5484  0.5972  0.9644
  133MOL0     C17867   5.008   3.799   6.910  0.2330  0.5902  0.2580
  133MOL0     O17868   5.296   3.648   6.916 -0.9980 -0.6759 -0.3915
  133MOL0     C17869   5.463   3.957   6.967  0.4579  0.1947 -0.6615
  133MOL0     C17870   5.569   4.023   7.028 -0.9652 -0.2112 -0.1338
  133MOL0     N17871   6.071   4.486   7.268 -0.2883  0.3765 -0.6655
  133MOL0     N17872   6.084   4.602   7.222  0.0392  0.2398 -0.6840
  133MOL0     C17873   6.405   5.529   7.196  0.3795  0.2805 -0.7881
  133MOL0     C17874   6.406   5.657   7.247  0.3895  0.7880 -0.0918
  133MOL0     C17875   6.580   6.073   7.267  0.2804 -0.0262 -0.0125
  133MOL0     C17876   6.712   6.110   7.301 -1.1489 -0.1279  0.2341
  133MOL0     C17877   6.743   6.248   7.329  0.2541 -0.5041  0.2864
  133MOL0     C17878   6.637   6.343   7.336  0.1716 -0.1609  0.8849
  133MOL0     O17879   6.660   6.475   7.334  0.7344 -0.8107 -0.8642
  133MOL0     C17880   6.769   6.530   7.404 -1.2481 -0.7814 -0.0739
  133MOL0     C17881   6.776   6.488   7.553  0.0754  0.6996  0.4322
  133MOL0     C17882   6.874   6.561   7.636  0.9065 -0.7991 -0.7369
  133MOL0     C17883   7.024   6.532   7.616 -0.9277 -0.9397 -0.0756
  133MOL0     C17884   7.100   6.638   7.671 -0.0459 -0.6451 -0.3185
  133MOL0     C17885   7.153   6.733   7.728  0.5047 -0.7804  0.3774
  133MOL0     C17886   6.514   6.305   7.298  0.9603 -0.1858  0.6960
  133MOL0     C17887   6.478   6.170   7.276 -0.1327 -0.2151 -0.6434
  133MOL0     H17888   6.348   5.831   6.963 -0.4671  0.3991  0.2729
  133MOL0     H17889   6.337   5.598   6.883 -0.9959  2.9277 -0.7499
  133MOL0     H17890   6.220   5.313   6.907 -0.7400  0.7415  0.8192
  133MOL0     H17891   6.345   5.403   6.825  4.2823  1.0152  1.0980
  133MOL0     H17892   6.496   5.234   6.827  1.7039 -0.6313  0.8507
  133MOL0     H17893   6.416   5.145   6.962 -1.2100 -0.2843 -0.6099
  133MOL0     H17894   6.223   5.106   6.842  0.1058  0.5963 -0.5142
  133MOL0     H17895   6.284   5.157   6.686 -3.0556 -0.2778 -0.2083
  133MOL0     H17896   6.412   4.975   6.651  3.0578  1.7541 -0.1791
  133MOL0     H17897   6.500   4.994   6.799  0.1165  0.8787 -0.3887
  133MOL0     H17898   6.238   4.826   6.776  1.2700 -2.0145 -2.6111
  133MOL0     H17899   6.394   4.764   6.758 -0.0545 -0.7715  0.3020
  133MOL0     H17900   6.481   4.836   6.972 -1.3213 -2.2873  0.6150
  133MOL0     H17901   6.329   4.924   7.014 -1.2953 -0.8927  1.3301
  133MOL0     H17902   6.364   4.636   6.942 -0.1405  0.9533 -0.3627
  133MOL0     H17903   6.369   4.698   7.116 -0.0448 -0.3839 -0.1254
  133MOL0     H17904   6.153   4.673   6.913  1.6480 -4.4049  0.1058
  133MOL0     H17905   6.143   4.784   7.063 -1.9498 -1.1421  2.0644
  133MOL0     H17906   6.220   4.427   6.983  1.6926  4.0208  0.2121
  133MOL0     H17907   6.187   4.187   7.156 -2.6652 -0.3157 -0.7604
  133MOL0     H17908   6.173   4.257   7.326 -0.0275 -0.9020  0.3312
  133MOL0     H17909   5.931   4.236   7.158  1.3762 -1.4848 -1.4021
  133MOL0     H17910   5.933   4.214   7.333 -0.8391  2.6414 -1.1995
  133MOL0     H17911   6.048   3.978   7.285 -1.8127 -1.5905  0.3176
  133MOL0     H17912   6.012   4.011   7.109  3.9087  0.7586  0.6552
  133MOL0     H17913   5.818   3.937   7.345  2.0075 -5.4962 -0.1827
  133MOL0     H17914   5.849   3.858   7.201 -4.0822 -0.4249  0.9975
  133MOL0     H17915   5.692   3.755   7.189  0.3638 -0.2033 -0.8371
  133MOL0     H17916   5.542   3.584   7.213 -2.3541  2.9640  3.4656
  133MOL0     H17917   5.370   3.623   7.186  1.3821  0.7181  4.3944
  133MOL0     H17918   5.465   3.531   7.063  0.6390 -1.8475  1.9583
  133MOL0     H17919   5.166   3.807   6.613  1.4679  3.9255  0.8114
  133MOL0     H17920   4.918   3.747   6.536  0.6460 -1.7201 -0.1620
  133MOL0     H17921   4.584   3.697   6.844 -0.5915 -0.1973 -1.4068
  133MOL0     H17922   4.619   3.854   6.788  1.2418  1.1086 -1.2464
  133MOL0     H17923   4.481   3.628   6.621  1.1184  0.7228 -1.9867
  133MOL0     H17924   4.390   3.763   6.703 -0.2109  1.5543 -0.0656
  133MOL0     H17925   4.602   3.806   6.499  1.1306 -0.6805  3.1401
  133MOL0     H17926   4.482   3.923   6.540  0.7231 -1.1089  0.9131
  133MOL0     H17927   4.422   3.836   6.334  0.8124  1.9364  1.1540
  133MOL0     H17928   4.420   3.668   6.397  1.4212  0.2662  1.6341
  133MOL0     H17929   4.202   3.857   6.386  3.4249  4.2431  1.4689
  133MOL0     H17930   4.248   3.859   6.546  2.7087  2.1350 -1.9507
  133MOL0     H17931   4.187   3.585   6.391 -1.1342 -2.1585  2.3725
  133MOL0     H17932   4.216   3.611   6.560  0.8107 -0.9297 -0.6375
  133MOL0     H17933   4.006   3.786   6.526 -1.2111  0.2257 -1.3618
  133MOL0     H17934   3.971   3.618   6.574 -1.2227  0.8507 -0.5181
  133MOL0     H17935   3.902   3.564   6.352 -0.9265 -0.2086 -0.5110
  133MOL0     H17936   3.973   3.714   6.296  2.7322  0.0800  2.1765
  133MOL0     H17937   4.807   3.722   6.942 -4.2297  6.2700 -0.7942
  133MOL0     H17938   5.019   3.811   7.018 -1.4885  0.7304  0.4429
  133MOL0     H17939   5.402   4.014   6.897 -1.5387  3.9654  3.6321
  133MOL0     H17940   5.591   4.123   6.992 -2.1748 -0.7423 -2.6420
  133MOL0     H17941   6.420   5.438   7.253 -0.5576  0.7905  0.3233
  133MOL0     H17942   6.438   5.673   7.350  2.6994 -0.8687 -0.4889
  133MOL0     H17943   6.791   6.039   7.321 -0.8397  0.3604  0.7860
  133MOL0     H17944   6.841   6.287   7.353  0.0017  0.2571  0.1216
  133MOL0     H17945   6.859   6.491   7.356 -0.1050  1.2645  0.3219
  133MOL0     H17946   6.753   6.638   7.412 -2.3728 -0.9763  0.5534
  133MOL0     H17947   6.812   6.384   7.549 -4.3257 -1.0961  1.9410
  133MOL0     H17948   6.675   6.496   7.593  0.6337 -0.1570  2.0819
  133MOL0     H17949   6.842   6.538   7.738 -0.2939  3.6705  0.1165
  133MOL0     H17950   6.846   6.666   7.620 -0.4270 -0.9049  0.7366
  133MOL0     H17951   7.039   6.534   7.508 -1.9222 -2.6926 -0.2667
  133MOL0     H17952   7.050   6.430   7.644 -2.2518 -0.7636  2.0712
  133MOL0     H17953   7.191   6.824   7.769 -3.4824  0.4110  1.8679
  133MOL0     H17954   6.437   6.381   7.290 -0.5408 -1.7939 -1.0384
  133MOL0     H17955   6.376   6.148   7.247 -0.0790  0.1607 -1.1402
  134MOL0     O17956  10.198   4.720   2.745  0.2999 -0.4260 -0.1089
  134MOL0     C17957  10.130   4.646   2.674  0.1534  0.1276 -0.7940
  134MOL0     O17958  10.028   4.694   2.599  0.1125 -0.3860 -0.5621
  134MOL0     C17959   9.989   4.824   2.612  1.1826  0.1450 -0.0826
  134MOL0     C17960   9.855   4.853   2.626  0.4223  0.2435 -0.2721
  134MOL0     C17961   9.819   4.991   2.621 -0.4860 -1.1137 -0.9712
  134MOL0     C17962   9.911   5.102   2.626 -0.4462  0.1496  0.1046
  134MOL0     O17963   9.852   5.226   2.622 -0.5958  0.2185  0.0722
  134MOL0     C17964   9.914   5.314   2.711 -0.5400  0.0518 -0.9178
  134MOL0     C17965   9.809   5.330   2.819 -1.2779  0.3958  0.6023
  134MOL0     C17966   9.842   5.428   2.921  0.1691  0.9631  0.8961
  134MOL0     C17967   9.717   5.464   2.992  0.6364  0.3341  0.1726
  134MOL0     C17968   9.743   5.581   3.090  1.0803  0.2798  0.0218
  134MOL0     C17969   9.627   5.590   3.194  0.2271  0.3100  0.9727
  134MOL0     C17970   9.642   5.730   3.263 -0.4466  0.2847 -0.5659
  134MOL0     C17971   9.518   5.745   3.344  0.6340 -0.4176 -0.3034
  134MOL0     N17972   9.502   5.877   3.407  0.5452  0.2651 -0.3270
  134MOL0     C17973   9.514   5.999   3.345  0.0024 -0.5593  0.4236
  134MOL0     C17974   9.478   6.089   3.421  1.5188  0.0784 -0.7153
  134MOL0     C17975   9.467   6.233   3.381 -0.7294  0.5647  0.5785
  134MOL0     C17976   9.603   6.300   3.411 -0.1025  0.3770 -0.5415
  134MOL0     C17977   9.608   6.449   3.365 -0.0972  0.0418  0.1536
  134MOL0     C17978   9.515   6.490   3.252  0.9887  0.4194 -0.1910
  134MOL0     O17979   9.569   6.611   3.205  0.7986 -0.2159 -0.2623
  134MOL0     C17980   9.557   6.651   3.078  0.3053  0.6799  0.0969
  134MOL0     C17981   9.654   6.750   3.039  1.4344 -0.5085 -0.3873
  134MOL0     C17982   9.651   6.814   2.920 -0.2470 -0.3371  0.1797
  134MOL0     C17983   9.735   6.940   2.911  0.6744  0.6966 -0.1364
  134MOL0     C17984   9.543   6.793   2.824 -0.4871 -0.2802  0.4316
  134MOL0     C17985   9.504   6.866   2.706 -0.4823 -0.3205  0.9980
  134MOL0     O17986   9.368   6.868   2.683  0.1659 -0.1669 -0.0800
  134MOL0     C17987   9.295   6.889   2.567  0.5769  0.3226 -1.0311
  134MOL0     C17988   9.157   6.920   2.579 -0.4038  0.5746  0.0758
  134MOL0     C17989   9.080   6.929   2.468  0.0681  0.1833  0.6705
  134MOL0     C17990   9.138   6.906   2.342 -0.6922 -0.2109 -0.2132
  134MOL0     O17991   9.053   6.919   2.231  0.6165 -0.0792 -0.5198
  134MOL0     C17992   9.094   6.890   2.096 -0.7488  0.5310  0.4608
  134MOL0     C17993   8.982   6.914   1.992 -0.3732  0.1777  0.4962
  134MOL0     C17994   9.024   6.895   1.849 -0.8975 -0.3342 -0.3744
  134MOL0     C17995   8.923   6.945   1.758  0.2408 -0.5732  0.5067
  134MOL0     C17996   8.978   6.940   1.620  0.4041 -0.2716 -0.1036
  134MOL0     C17997   8.860   6.965   1.525  0.1663 -0.0458  0.6403
  134MOL0     C17998   8.888   6.924   1.372 -0.5922  0.3464 -0.6314
  134MOL0     C17999   9.021   6.993   1.337  0.2829  0.0250  0.2441
  134MOL0    Cl18000   9.014   7.061   1.166  0.1825  0.1709  0.0323
  134MOL0     C18001   9.281   6.873   2.332  0.9428 -0.4765 -0.2451
  134MOL0     C18002   9.354   6.856   2.447  0.2004  0.4443 -0.4046
  134MOL0     O18003   9.592   6.933   2.642 -0.7469  0.3147  0.0073
  134MOL0     C18004   9.447   6.690   2.865 -0.8335 -0.5498 -0.8491
  134MOL0     C18005   9.459   6.620   2.982 -0.6656 -0.2564 -0.0580
  134MOL0     N18006   9.443   6.027   3.541 -0.1121  0.2279 -0.2183
  134MOL0     N18007   9.459   5.898   3.532  0.3649 -0.4627 -0.0306
  134MOL0     C18008  10.050   5.069   2.620  1.0348  1.1329  0.3393
  134MOL0     C18009  10.080   4.930   2.591 -0.3543 -0.9900  0.5878
  134MOL0     C18010  10.155   4.498   2.678 -0.2377 -0.2419  0.6647
  134MOL0     C18011  10.230   4.430   2.779 -0.3784 -0.1296  1.3480
  134MOL0     C18012  10.221   4.295   2.803  0.9101 -1.5256  0.4937
  134MOL0     C18013  10.140   4.214   2.727  0.2758  0.6206 -0.1815
  134MOL0     O18014  10.126   4.072   2.763 -0.5347 -0.3394 -0.0744
  134MOL0     C18015  10.030   3.992   2.694 -0.4563  0.7076  1.1165
  134MOL0     C18016  10.064   3.845   2.704 -0.6701  0.1377 -0.0041
  134MOL0     C18017   9.939   3.754   2.684  0.9821  0.9871 -0.5841
  134MOL0     C18018   9.869   3.786   2.564  0.8897 -0.1451  0.1826
  134MOL0     C18019   9.762   3.684   2.544  0.7862  0.2708 -0.6357
  134MOL0     C18020   9.663   3.618   2.509 -0.3749  0.6241 -0.3156
  134MOL0     C18021  10.076   4.278   2.615  0.1836  0.7512  0.1251
  134MOL0     C18022  10.074   4.413   2.597 -0.4614  0.0841 -0.7175
  134MOL0     H18023   9.774   4.782   2.619 -0.9049  1.3213  2.5305
  134MOL0     H18024   9.716   5.024   2.623 -0.5822 -1.4302  0.5742
  134MOL0     H18025  10.010   5.278   2.748  0.4949  3.1567 -0.2534
  134MOL0     H18026   9.918   5.413   2.662 -2.9406  1.4399  1.4278
  134MOL0     H18027   9.715   5.358   2.771  0.7737  2.1793 -2.8009
  134MOL0     H18028   9.805   5.237   2.876  3.1877  1.0226  2.3652
  134MOL0     H18029   9.906   5.376   2.993  1.4914  3.0374  1.2814
  134MOL0     H18030   9.875   5.522   2.876  1.4588  0.3242  0.4458
  134MOL0     H18031   9.634   5.482   2.923  1.3687 -0.9795 -1.1052
  134MOL0     H18032   9.703   5.369   3.045 -0.3522  1.3756  1.8574
  134MOL0     H18033   9.835   5.556   3.144  0.2234 -0.1324  1.3377
  134MOL0     H18034   9.767   5.670   3.031 -0.3840 -0.1492 -1.2778
  134MOL0     H18035   9.529   5.581   3.145  0.4724  2.5033  0.0081
  134MOL0     H18036   9.633   5.515   3.274 -0.7136 -0.0955  0.6901
  134MOL0     H18037   9.727   5.719   3.331 -0.6274 -0.6932 -0.4875
  134MOL0     H18038   9.664   5.814   3.197  0.9288 -1.3751 -2.3395
  134MOL0     H18039   9.499   5.662   3.413 -0.3311  0.4771  0.5543
  134MOL0     H18040   9.434   5.729   3.276  0.6081 -4.0068  0.3824
  134MOL0     H18041   9.559   6.014   3.247  1.0712  0.5591  1.0575
  134MOL0     H18042   9.437   6.225   3.276  1.7937  0.0570 -0.1584
  134MOL0     H18043   9.384   6.275   3.440  0.1267  2.1809  0.6815
  134MOL0     H18044   9.681   6.254   3.350  1.7721  5.1498 -2.1828
  134MOL0     H18045   9.627   6.284   3.517  1.8903  1.5161 -0.7866
  134MOL0     H18046   9.709   6.454   3.322 -0.4115  1.0667 -0.5088
  134MOL0     H18047   9.600   6.523   3.445 -2.2245 -2.1164  2.0863
  134MOL0     H18048   9.410   6.499   3.281  0.9518 -1.6274  0.4873
  134MOL0     H18049   9.503   6.409   3.180 -0.7540 -0.7221  1.2802
  134MOL0     H18050   9.734   6.761   3.111  0.7562  1.9500  0.0900
  134MOL0     H18051   9.787   6.953   3.006 -0.5911  2.2187  0.3871
  134MOL0     H18052   9.811   6.931   2.832  0.9587 -5.6045  0.3030
  134MOL0     H18053   9.667   7.023   2.894  2.4357  1.8439 -2.2392
  134MOL0     H18054   9.121   6.930   2.680  0.5347 -1.0460  0.6007
  134MOL0     H18055   8.973   6.937   2.481  0.2148  0.2034  1.9772
  134MOL0     H18056   9.181   6.951   2.069 -2.7582  3.4883  0.1054
  134MOL0     H18057   9.129   6.788   2.083 -0.8493  0.5673 -0.1344
  134MOL0     H18058   8.904   6.838   2.007  1.4493 -1.8770  0.0631
  134MOL0     H18059   8.947   7.017   1.999 -0.2985  0.2718 -0.3800
  134MOL0     H18060   9.034   6.787   1.832 -0.9236 -0.1735 -1.5485
  134MOL0     H18061   9.127   6.924   1.824 -0.9628  0.3703  0.1788
  134MOL0     H18062   8.830   6.891   1.774 -1.1404  1.3214 -0.6997
  134MOL0     H18063   8.910   7.053   1.774 -1.2135 -0.6532 -0.0049
  134MOL0     H18064   9.025   6.841   1.610  0.6819 -0.0973 -0.5107
  134MOL0     H18065   9.050   7.016   1.590  1.7545 -0.7000  1.8373
  134MOL0     H18066   8.775   6.904   1.557 -0.3130 -0.0342 -0.5554
  134MOL0     H18067   8.834   7.071   1.534 -0.2919 -0.1157  0.1968
  134MOL0     H18068   8.811   6.958   1.302  0.4270 -3.6514 -4.1087
  134MOL0     H18069   8.918   6.821   1.351  3.7124  2.0517 -4.7952
  134MOL0     H18070   9.107   6.926   1.338 -1.3878 -2.2265  0.6281
  134MOL0     H18071   9.042   7.079   1.401  1.2300 -0.3865  0.4993
  134MOL0     H18072   9.319   6.842   2.235 -1.8808 -0.9170 -1.2936
  134MOL0     H18073   9.448   6.803   2.437 -0.4256 -0.6126 -0.7982
  134MOL0     H18074   9.366   6.661   2.798 -1.3567  1.6728 -1.2555
  134MOL0     H18075   9.374   6.559   3.012  0.3656 -0.4420  2.7942
  134MOL0     H18076  10.130   5.142   2.621  1.2534  0.9466 -0.9794
  134MOL0     H18077  10.179   4.896   2.563 -1.1498 -1.0576 -2.3900
  134MOL0     H18078  10.293   4.483   2.849  1.4411 -0.7401  0.2237
  134MOL0     H18079  10.276   4.251   2.886 -2.2451  0.3336  3.9074
  134MOL0     H18080   9.928   4.012   2.728 -1.5787 -1.8569 -0.4709
  134MOL0     H18081  10.050   4.020   2.590  1.7313 -1.0078  1.0162
  134MOL0     H18082  10.084   3.831   2.810 -2.1700  0.9588  0.4119
  134MOL0     H18083  10.148   3.810   2.642 -1.5846 -0.8726 -0.7081
  134MOL0     H18084   9.877   3.748   2.774  0.6609 -1.8334 -0.9026
  134MOL0     H18085   9.969   3.651   2.666 -1.0523  0.4035 -0.9621
  134MOL0     H18086   9.927   3.784   2.472  0.8322  1.0506  0.1032
  134MOL0     H18087   9.835   3.890   2.569  2.0987  0.2964 -0.4165
  134MOL0     H18088   9.566   3.574   2.498 -0.5760  0.1807  2.4343
  134MOL0     H18089  10.005   4.233   2.545 -2.4543  1.1944  2.3308
  134MOL0     H18090  10.017   4.460   2.518  0.8971  2.0691 -0.5854
  135MOL0     O18091   8.972   0.867   4.589 -0.0593  0.5190 -0.1612
  135MOL0     C18092   9.068   0.865   4.666  0.7630 -0.1270 -0.3152
  135MOL0     O18093   9.196   0.896   4.639 -0.0908 -0.6141  0.1572
  135MOL0     C18094   9.225   0.987   4.534 -0.4109 -0.4716  0.3420
  135MOL0     C18095   9.342   0.976   4.459 -0.9136 -0.0914  1.3079
  135MOL0     C18096   9.388   1.065   4.365 -0.6548 -0.8586  0.0501
  135MOL0     C18097   9.306   1.170   4.330 -0.6245  0.3872  0.2211
  135MOL0     O18098   9.342   1.275   4.248  0.2032  0.6480  0.6011
  135MOL0     C18099   9.454   1.340   4.287 -0.6833  1.1762 -0.0550
  135MOL0     C18100   9.519   1.425   4.181 -0.5402 -0.1655 -0.6612
  135MOL0     C18101   9.527   1.357   4.042  0.1125  0.1854  0.7497
  135MOL0     C18102   9.651   1.396   3.953  0.3983 -0.9680  0.5393
  135MOL0     C18103   9.617   1.427   3.806 -0.2712 -0.2260 -0.4221
  135MOL0     C18104   9.726   1.433   3.700  0.5971 -0.4477  0.0607
  135MOL0     C18105   9.667   1.400   3.560  1.0171  0.1672  0.7129
  135MOL0     C18106   9.775   1.431   3.459  0.3528 -0.3091 -0.0453
  135MOL0     N18107   9.766   1.574   3.417 -0.7222 -0.3965 -0.1995
  135MOL0     C18108   9.836   1.678   3.470 -0.3417  0.3379  0.2604
  135MOL0     C18109   9.775   1.784   3.413  0.3739 -0.0212 -0.1043
  135MOL0     C18110   9.810   1.932   3.420 -1.2069 -0.8473 -0.2059
  135MOL0     C18111   9.726   2.032   3.356 -0.2469 -0.1196  0.8036
  135MOL0     C18112   9.580   2.055   3.399 -0.5022 -1.0734  0.6547
  135MOL0     C18113   9.523   2.184   3.329 -0.7107  0.0032 -0.3073
  135MOL0     O18114   9.377   2.186   3.341 -1.3092 -0.3001 -0.3302
  135MOL0     C18115   9.320   2.192   3.470 -0.4177  0.0874  0.3679
  135MOL0     C18116   9.200   2.130   3.486  0.1385 -1.0144  0.1438
  135MOL0     C18117   9.130   2.136   3.606 -0.1842 -0.6218 -1.1645
  135MOL0     C18118   8.989   2.082   3.602  0.2949 -0.5220 -0.2876
  135MOL0     C18119   9.188   2.201   3.721  0.3412  0.9077 -0.3416
  135MOL0     C18120   9.118   2.196   3.856  0.5938  0.8012  0.5579
  135MOL0     O18121   9.030   2.093   3.886 -0.2145  0.3111 -0.3167
  135MOL0     C18122   8.939   2.108   3.988  0.0035 -0.0055  0.7972
  135MOL0     C18123   8.919   2.014   4.088  0.2648  0.1111 -0.9079
  135MOL0     C18124   8.803   2.029   4.178 -0.9748  0.1328 -0.0660
  135MOL0     C18125   8.712   2.127   4.163  0.8554  0.5539 -0.4128
  135MOL0     O18126   8.598   2.156   4.234  0.8046  0.2132  0.3057
  135MOL0     C18127   8.561   2.094   4.359 -0.2026  0.4616 -0.0053
  135MOL0     C18128   8.465   2.189   4.433  0.1338 -0.2690  0.1817
  135MOL0     C18129   8.430   2.150   4.579  0.5242 -0.5890 -0.6207
  135MOL0     C18130   8.385   2.265   4.665  0.6925  0.2402  0.8251
  135MOL0     C18131   8.372   2.239   4.814  0.0634 -0.7419  0.0252
  135MOL0     C18132   8.491   2.169   4.889  0.1460 -0.1141 -0.0030
  135MOL0     C18133   8.456   2.155   5.041  0.3418 -0.7296  0.3747
  135MOL0     C18134   8.457   2.298   5.111 -0.6226 -0.5412  0.4119
  135MOL0    Cl18135   8.281   2.352   5.146  0.3956 -0.3083 -0.1678
  135MOL0     C18136   8.738   2.224   4.062  0.2413 -0.4232 -0.1747
  135MOL0     C18137   8.846   2.205   3.974 -0.4713 -0.7622 -0.7167
  135MOL0     O18138   9.151   2.283   3.938  0.6795 -0.3773  0.1391
  135MOL0     C18139   9.312   2.253   3.706  0.0821  0.3636 -0.1269
  135MOL0     C18140   9.374   2.262   3.586 -0.6991  0.5718  0.8574
  135MOL0     N18141   9.669   1.741   3.327  0.7639 -0.4552 -0.4864
  135MOL0     N18142   9.665   1.616   3.332 -0.7830  0.1295  0.4328
  135MOL0     C18143   9.185   1.188   4.402  1.0112 -1.0217 -0.8984
  135MOL0     C18144   9.143   1.101   4.507 -0.2200  0.7358  0.3623
  135MOL0     C18145   9.050   0.797   4.794 -0.4847  0.2166 -0.8746
  135MOL0     C18146   8.920   0.747   4.844 -0.4666  0.4425  0.0449
  135MOL0     C18147   8.902   0.714   4.978 -0.2596 -0.7159 -0.2881
  135MOL0     C18148   9.014   0.704   5.065 -0.6236  0.0534  0.9290
  135MOL0     O18149   9.022   0.669   5.192 -0.0514  1.0999 -0.6394
  135MOL0     C18150   8.957   0.548   5.233 -1.0445 -0.6559  1.2483
  135MOL0     C18151   9.018   0.424   5.162  0.1808  0.3582 -0.1394
  135MOL0     C18152   9.167   0.394   5.214 -0.0492 -0.5791 -0.1702
  135MOL0     C18153   9.219   0.257   5.158 -0.4239 -0.6259  0.0827
  135MOL0     C18154   9.254   0.280   5.006 -0.2582  0.1207  0.1104
  135MOL0     C18155   9.272   0.287   4.884  0.2219 -1.0174 -0.0719
  135MOL0     C18156   9.139   0.741   5.016 -0.5134 -0.1386  0.0645
  135MOL0     C18157   9.162   0.792   4.886 -0.5798 -0.0798 -0.6399
  135MOL0     H18158   9.414   0.909   4.505 -0.6570  0.4053  1.6309
  135MOL0     H18159   9.491   1.063   4.331  1.0879 -2.0391  4.7627
  135MOL0     H18160   9.422   1.392   4.378 -2.1058 -1.7992  1.2749
  135MOL0     H18161   9.532   1.268   4.312  1.6041  3.4190 -0.3456
  135MOL0     H18162   9.456   1.514   4.179 -1.3880 -0.7505 -0.5066
  135MOL0     H18163   9.617   1.452   4.222 -0.1946 -2.4499  0.1772
  135MOL0     H18164   9.534   1.248   4.042  2.7484  0.1895 -2.3118
  135MOL0     H18165   9.429   1.378   3.997 -0.5431  0.3162  2.1788
  135MOL0     H18166   9.700   1.484   3.995  0.0164 -1.4066  1.9762
  135MOL0     H18167   9.719   1.311   3.963 -1.8183 -3.0096 -0.5221
  135MOL0     H18168   9.557   1.337   3.787 -0.9035 -0.7888  3.3942
  135MOL0     H18169   9.549   1.513   3.808  1.0198  0.8266  1.4593
  135MOL0     H18170   9.771   1.533   3.693  0.4949 -0.2294  1.8856
  135MOL0     H18171   9.805   1.361   3.722 -1.1640 -2.1817  0.9874
  135MOL0     H18172   9.651   1.292   3.557  0.5102  0.0612  3.8730
  135MOL0     H18173   9.569   1.447   3.557  1.3183  0.8464  1.2088
  135MOL0     H18174   9.757   1.376   3.366  4.5802 -0.0705 -1.2077
  135MOL0     H18175   9.876   1.408   3.496 -0.2175 -0.4931  1.4362
  135MOL0     H18176   9.914   1.680   3.546  0.9357  2.4731 -1.0053
  135MOL0     H18177   9.814   1.955   3.527 -0.3467 -0.5703 -0.2909
  135MOL0     H18178   9.913   1.953   3.391  0.6999 -2.3533  4.4867
  135MOL0     H18179   9.722   2.012   3.249  2.5462  1.7424  0.2686
  135MOL0     H18180   9.782   2.126   3.358 -0.0398 -0.2181  3.3130
  135MOL0     H18181   9.579   2.080   3.505 -0.3341 -1.9776  0.8793
  135MOL0     H18182   9.522   1.965   3.379  1.3171 -1.8218 -1.8618
  135MOL0     H18183   9.561   2.172   3.227 -1.3812 -2.5940 -0.3145
  135MOL0     H18184   9.556   2.267   3.391  0.3364 -1.6708  1.4761
  135MOL0     H18185   9.155   2.079   3.401 -2.4736 -0.7654  1.2585
  135MOL0     H18186   8.958   2.056   3.501  0.0585  3.2593 -1.3573
  135MOL0     H18187   8.997   1.987   3.654  2.3594 -0.2138  0.0499
  135MOL0     H18188   8.929   2.158   3.653  2.8754  1.7873 -0.4467
  135MOL0     H18189   9.002   1.945   4.099 -0.5803 -1.5281 -3.6820
  135MOL0     H18190   8.780   1.954   4.253  3.1744 -1.2218  0.1338
  135MOL0     H18191   8.505   2.001   4.343 -0.4145  0.9338 -2.4285
  135MOL0     H18192   8.640   2.061   4.427 -0.0248  1.4815  0.3046
  135MOL0     H18193   8.510   2.288   4.437 -3.1222  1.5829 -2.8541
  135MOL0     H18194   8.372   2.183   4.375  1.9753 -0.8887 -2.9086
  135MOL0     H18195   8.524   2.102   4.609  1.1819 -1.6771 -3.9491
  135MOL0     H18196   8.344   2.083   4.569 -0.1487 -0.0935  1.5330
  135MOL0     H18197   8.457   2.347   4.661  3.0519 -1.7145  1.3404
  135MOL0     H18198   8.293   2.308   4.624  1.8263  1.8476 -0.1614
  135MOL0     H18199   8.287   2.170   4.826  0.4603 -1.3839 -0.7814
  135MOL0     H18200   8.355   2.332   4.868 -0.0253  0.7996 -2.5011
  135MOL0     H18201   8.515   2.071   4.847  1.3766  0.1008  0.1684
  135MOL0     H18202   8.576   2.237   4.877 -0.4524  0.6238 -0.1395
  135MOL0     H18203   8.524   2.081   5.084 -0.1847 -0.2106  2.1906
  135MOL0     H18204   8.354   2.116   5.056  0.3414  0.1314  3.3673
  135MOL0     H18205   8.504   2.368   5.041 -2.5498  0.3552 -0.0394
  135MOL0     H18206   8.521   2.297   5.200 -0.8222 -2.7908  0.5865
  135MOL0     H18207   8.664   2.304   4.065 -1.6283 -2.0664 -0.1382
  135MOL0     H18208   8.864   2.278   3.895 -2.4078  2.4408  1.5670
  135MOL0     H18209   9.345   2.306   3.795 -1.3801 -0.9581  1.2845
  135MOL0     H18210   9.472   2.309   3.577  1.9248 -3.8188  2.9306
  135MOL0     H18211   9.131   1.280   4.380  0.7133 -1.5336 -2.4704
  135MOL0     H18212   9.049   1.103   4.562 -1.3340 -0.7205 -1.3530
  135MOL0     H18213   8.838   0.750   4.773 -1.3136 -0.1354  0.9663
  135MOL0     H18214   8.812   0.671   5.020  0.6142  0.7100  3.4062
  135MOL0     H18215   8.964   0.531   5.341 -2.6183 -1.2762  1.2651
  135MOL0     H18216   8.853   0.553   5.200 -0.4265 -1.8712 -1.0874
  135MOL0     H18217   9.018   0.449   5.055  1.4705 -0.5917 -0.3793
  135MOL0     H18218   8.959   0.336   5.187  2.4116 -1.0896  0.3003
  135MOL0     H18219   9.168   0.395   5.324  1.3241 -0.4087 -0.1616
  135MOL0     H18220   9.235   0.477   5.192 -3.2024  2.2104 -0.1929
  135MOL0     H18221   9.147   0.180   5.186 -0.3333  0.0329  2.2908
  135MOL0     H18222   9.311   0.224   5.206 -1.1720 -2.4103  0.3608
  135MOL0     H18223   9.284   0.285   4.777  1.3117  0.8586 -0.0233
  135MOL0     H18224   9.219   0.745   5.089 -0.6233 -3.3177  0.5186
  135MOL0     H18225   9.258   0.833   4.855 -0.7816  0.6032 -0.3805
  136MOL0     O18226   5.287   7.942   6.897 -0.5951 -0.0795 -1.1879
  136MOL0     C18227   5.181   7.992   6.843  0.0850  0.8572  0.7883
  136MOL0     O18228   5.113   8.100   6.877  0.4080  0.2399 -0.7791
  136MOL0     C18229   5.146   8.162   7.000 -0.2028  0.4409 -0.1446
  136MOL0     C18230   5.068   8.125   7.112 -0.4311 -0.3106  1.2664
  136MOL0     C18231   5.083   8.189   7.229  0.1349 -0.5960 -0.2924
  136MOL0     C18232   5.181   8.287   7.248 -0.2146 -1.2971  0.5956
  136MOL0     O18233   5.196   8.361   7.355  0.1589  0.5286 -0.7709
  136MOL0     C18234   5.153   8.306   7.484  1.2401  0.0916  0.5382
  136MOL0     C18235   4.995   8.334   7.509 -0.0144  0.2514 -0.7708
  136MOL0     C18236   4.973   8.490   7.529  0.6170 -0.1561  0.5894
  136MOL0     C18237   4.993   8.547   7.672 -0.1224  0.4809 -0.4304
  136MOL0     C18238   4.979   8.693   7.684 -0.1876 -0.5505 -0.1283
  136MOL0     C18239   4.986   8.757   7.828 -0.6311 -0.1477  0.1361
  136MOL0     C18240   4.977   8.906   7.827  0.6431  1.0415 -0.6090
  136MOL0     C18241   5.008   8.950   7.970  0.9598  0.0202 -0.5328
  136MOL0     N18242   5.093   9.070   7.972  0.2402  0.4044 -0.4376
  136MOL0     C18243   5.210   9.091   7.902 -0.3243  0.2260 -0.1526
  136MOL0     C18244   5.253   9.211   7.940 -0.2589 -0.8753  0.0999
  136MOL0     C18245   5.378   9.276   7.883 -0.0062  0.2500 -0.8822
  136MOL0     C18246   5.370   9.300   7.731 -0.4343  0.0435  0.5373
  136MOL0     C18247   5.474   9.205   7.652  0.2463  0.0887  0.0915
  136MOL0     C18248   5.438   9.199   7.501  0.7755 -0.2569 -0.6441
  136MOL0     O18249   5.334   9.107   7.479  0.5724  0.4223 -0.0914
  136MOL0     C18250   5.305   9.074   7.350  1.0095  0.1204 -0.0019
  136MOL0     C18251   5.216   8.967   7.355  0.1058 -0.0095  0.4469
  136MOL0     C18252   5.163   8.905   7.240 -0.5191 -0.6181 -0.1452
  136MOL0     C18253   5.067   8.792   7.270  0.3079 -0.1379  0.7886
  136MOL0     C18254   5.205   8.955   7.115  0.0881 -0.5393  0.4051
  136MOL0     C18255   5.159   8.896   6.984 -1.2166 -0.2040 -1.3843
  136MOL0     O18256   5.147   8.757   6.976 -0.5403  0.1088 -0.2612
  136MOL0     C18257   5.052   8.708   6.886 -0.9725 -0.4659 -0.4832
  136MOL0     C18258   4.963   8.787   6.806 -0.7156  1.2323  0.1090
  136MOL0     C18259   4.900   8.708   6.706 -0.2990 -0.2751  0.0205
  136MOL0     C18260   4.904   8.568   6.694  0.5480  0.1833 -0.1207
  136MOL0     O18261   4.844   8.519   6.579 -0.0729 -0.3927  0.4236
  136MOL0     C18262   4.902   8.410   6.497 -0.2543  0.4820  0.6770
  136MOL0     C18263   4.873   8.435   6.350  0.8041  0.0843 -1.0972
  136MOL0     C18264   4.956   8.552   6.292  0.1303  0.3329 -0.0331
  136MOL0     C18265   4.919   8.552   6.142 -0.0754  0.6882  0.3394
  136MOL0     C18266   4.786   8.630   6.120 -0.4815 -0.0544  0.1810
  136MOL0     C18267   4.768   8.675   5.969 -0.0726 -0.9193 -0.5283
  136MOL0     C18268   4.736   8.569   5.861 -0.0972 -0.6625  0.7829
  136MOL0     C18269   4.788   8.617   5.719 -0.2884  0.3698 -0.4658
  136MOL0    Cl18270   4.961   8.631   5.703  0.2643 -0.0045  0.2282
  136MOL0     C18271   4.986   8.497   6.773  0.3415  0.6216  0.9687
  136MOL0     C18272   5.065   8.571   6.872  0.3416  0.6465 -0.1704
  136MOL0     O18273   5.151   8.974   6.888 -0.0113  0.5960 -0.0081
  136MOL0     C18274   5.295   9.065   7.112  0.3824  0.4709  0.5403
  136MOL0     C18275   5.347   9.122   7.222  0.9472 -0.5759  0.0991
  136MOL0     N18276   5.169   9.270   8.015 -0.3156 -0.4969  0.2354
  136MOL0     N18277   5.073   9.188   8.042 -0.8147  0.9285 -0.0371
  136MOL0     C18278   5.259   8.327   7.144  0.1240 -0.0876  0.1778
  136MOL0     C18279   5.241   8.264   7.019  0.5137 -0.6235  0.0324
  136MOL0     C18280   5.134   7.916   6.723 -0.2932  0.6084 -1.3189
  136MOL0     C18281   5.027   7.966   6.640  0.2270 -0.5275  0.2981
  136MOL0     C18282   4.992   7.904   6.519 -0.7680 -0.3161  0.0107
  136MOL0     C18283   5.052   7.778   6.488 -0.3496  0.5351 -0.4534
  136MOL0     O18284   5.023   7.709   6.378 -0.4526 -0.1214  0.4628
  136MOL0     C18285   4.914   7.748   6.298 -0.4318  0.3170  0.1874
  136MOL0     C18286   4.897   7.657   6.168  0.3557 -0.0252  0.5936
  136MOL0     C18287   4.840   7.735   6.055 -0.0293 -0.3164  1.1061
  136MOL0     C18288   4.800   7.630   5.955  0.2567  1.1991  0.1178
  136MOL0     C18289   4.758   7.684   5.827  0.3984  0.0510  0.0647
  136MOL0     C18290   4.723   7.721   5.724 -0.5980 -1.0856 -0.2883
  136MOL0     C18291   5.156   7.732   6.564 -0.2095  0.7192 -0.3096
  136MOL0     C18292   5.197   7.795   6.686 -0.2064 -0.4805 -0.5864
  136MOL0     H18293   5.007   8.035   7.113  0.5350 -0.9974  2.9018
  136MOL0     H18294   5.007   8.166   7.304 -0.8481  0.8540 -0.8031
  136MOL0     H18295   5.150   8.197   7.490  2.9226 -0.0281 -0.3150
  136MOL0     H18296   5.205   8.356   7.566  1.8602  2.6508 -1.2987
  136MOL0     H18297   4.933   8.302   7.426  0.4553  3.8975 -2.7336
  136MOL0     H18298   4.968   8.284   7.603  0.7286 -3.7412 -2.4905
  136MOL0     H18299   5.043   8.548   7.468 -0.1467  1.8555  1.5410
  136MOL0     H18300   4.870   8.508   7.498  1.1179 -0.9024 -1.7212
  136MOL0     H18301   4.918   8.495   7.733  0.2960  1.0774  0.6071
  136MOL0     H18302   5.094   8.511   7.693 -0.9508 -3.0062 -1.7534
  136MOL0     H18303   5.056   8.734   7.618 -1.7751 -1.9799 -3.0586
  136MOL0     H18304   4.885   8.711   7.633 -0.4423 -1.6154 -0.0714
  136MOL0     H18305   4.915   8.704   7.893  1.0764 -0.2479  2.0059
  136MOL0     H18306   5.086   8.733   7.865 -0.6224  2.7511  2.3272
  136MOL0     H18307   5.046   8.953   7.757 -2.0356  2.4312 -2.4690
  136MOL0     H18308   4.878   8.944   7.801 -0.4811  0.7402  2.7185
  136MOL0     H18309   5.059   8.871   8.025  0.5990  1.0261  1.3153
  136MOL0     H18310   4.912   8.971   8.018  1.5858  4.2675 -0.7834
  136MOL0     H18311   5.267   9.027   7.836  0.5355  1.4418 -0.6205
  136MOL0     H18312   5.391   9.365   7.946 -1.5578 -1.0674  1.4267
  136MOL0     H18313   5.462   9.209   7.904  0.1384  0.3573 -1.1108
  136MOL0     H18314   5.380   9.408   7.715 -0.0076  0.3100  2.3816
  136MOL0     H18315   5.275   9.257   7.696 -0.7515  0.3866  0.9666
  136MOL0     H18316   5.474   9.110   7.707  1.2529  0.0196 -0.0158
  136MOL0     H18317   5.573   9.251   7.653  0.3447 -0.0715 -1.0502
  136MOL0     H18318   5.533   9.179   7.450  2.4799 -1.1657  2.6574
  136MOL0     H18319   5.400   9.301   7.488  1.0332 -0.3364 -2.2498
  136MOL0     H18320   5.195   8.911   7.446  2.5887  1.7497  2.2387
  136MOL0     H18321   5.017   8.793   7.367 -2.3992  0.9225 -0.5401
  136MOL0     H18322   4.981   8.775   7.206  2.0778 -3.0470 -1.0315
  136MOL0     H18323   5.112   8.693   7.258 -3.5116 -1.8100 -1.2154
  136MOL0     H18324   4.945   8.893   6.815  0.7845  1.6666 -1.5428
  136MOL0     H18325   4.826   8.765   6.650 -0.0228  1.2548  1.1332
  136MOL0     H18326   5.010   8.404   6.517 -0.3047 -2.1425  0.4406
  136MOL0     H18327   4.854   8.315   6.521 -2.8038  1.5715  0.2464
  136MOL0     H18328   4.901   8.346   6.293  1.0158  0.3395 -1.3953
  136MOL0     H18329   4.765   8.451   6.340 -0.6275 -5.0539  2.1876
  136MOL0     H18330   5.064   8.533   6.299 -0.4403 -2.9062  2.6067
  136MOL0     H18331   4.924   8.645   6.339 -1.1963  1.6941 -3.3609
  136MOL0     H18332   4.998   8.603   6.086  2.3086  2.4394  4.8055
  136MOL0     H18333   4.901   8.454   6.097 -1.1775  0.5809  0.9560
  136MOL0     H18334   4.782   8.716   6.188 -2.0661 -1.2718  1.7183
  136MOL0     H18335   4.706   8.558   6.140 -0.1128 -0.3217  0.7234
  136MOL0     H18336   4.682   8.742   5.962 -0.9842 -1.2359  4.1263
  136MOL0     H18337   4.864   8.724   5.950 -0.3319  0.3777  1.2238
  136MOL0     H18338   4.626   8.563   5.863 -0.2076 -0.0633 -1.5292
  136MOL0     H18339   4.782   8.476   5.894  1.3755 -0.1646  0.1830
  136MOL0     H18340   4.761   8.718   5.688 -1.0046  0.6396  0.9526
  136MOL0     H18341   4.758   8.538   5.651  4.9720 -2.5713  0.0525
  136MOL0     H18342   5.001   8.390   6.764  0.7953  0.6148  1.7397
  136MOL0     H18343   5.133   8.514   6.935 -0.9466 -2.1299 -1.1230
  136MOL0     H18344   5.332   9.100   7.016 -0.9408 -1.9084 -0.9362
  136MOL0     H18345   5.418   9.203   7.209 -1.0147  1.1642 -0.3301
  136MOL0     H18346   5.318   8.418   7.150 -3.6394  2.5307  0.4656
  136MOL0     H18347   5.294   8.295   6.930  0.2097 -1.8032 -0.5748
  136MOL0     H18348   4.980   8.057   6.676 -0.0400 -0.8569  0.7915
  136MOL0     H18349   4.927   7.961   6.455  0.5933 -1.1254 -2.2308
  136MOL0     H18350   4.830   7.729   6.365  0.9843 -2.9064  1.2481
  136MOL0     H18351   4.919   7.851   6.262  1.3299  0.0194 -0.5644
  136MOL0     H18352   4.831   7.575   6.200 -1.4164  0.9392 -0.4188
  136MOL0     H18353   4.994   7.614   6.141 -1.0445 -2.2996 -1.1997
  136MOL0     H18354   4.921   7.798   6.016 -1.3372  2.6615  2.8188
  136MOL0     H18355   4.754   7.799   6.077 -0.6762 -0.5662 -0.5789
  136MOL0     H18356   4.716   7.584   6.008  0.0076  1.9670  0.4049
  136MOL0     H18357   4.878   7.554   5.943 -1.8446 -1.2967  1.1970
  136MOL0     H18358   4.724   7.766   5.627 -2.0398  0.7032  0.4661
  136MOL0     H18359   5.221   7.645   6.553  0.0431  0.6723  1.2077
  136MOL0     H18360   5.264   7.756   6.762 -2.0602  0.6165  1.7558
  137MOL0     O18361   4.421   6.865   7.231 -0.2696 -0.0401 -0.1326
  137MOL0     C18362   4.373   6.951   7.303 -0.5371 -0.1494  0.7528
  137MOL0     O18363   4.393   6.950   7.434  0.1858  0.7074  0.2591
  137MOL0     C18364   4.477   6.855   7.494  0.4702  0.4439 -0.9410
  137MOL0     C18365   4.462   6.711   7.468 -0.6527  0.1387 -0.9626
  137MOL0     C18366   4.546   6.609   7.518  1.3042  0.5360 -0.1517
  137MOL0     C18367   4.647   6.653   7.605  0.2395 -0.2347 -0.1501
  137MOL0     O18368   4.718   6.555   7.673  0.4460 -0.1393 -0.5508
  137MOL0     C18369   4.700   6.577   7.813  0.9821 -0.3425 -0.0259
  137MOL0     C18370   4.720   6.455   7.895 -0.4473  0.6062 -0.0394
  137MOL0     C18371   4.716   6.480   8.045 -0.1616  0.7056  0.0607
  137MOL0     C18372   4.714   6.348   8.120  0.0179  1.3407 -0.4609
  137MOL0     C18373   4.674   6.369   8.270  1.5813  0.6902  0.7190
  137MOL0     C18374   4.791   6.409   8.352 -0.7989  0.4602 -0.6116
  137MOL0     C18375   4.769   6.401   8.506 -0.3726  0.8162  0.0914
  137MOL0     C18376   4.722   6.534   8.570 -0.1014  0.2826  0.5492
  137MOL0     N18377   4.714   6.507   8.715  0.1780 -0.2289 -0.2006
  137MOL0     C18378   4.610   6.440   8.782 -0.5697  0.7020  1.0458
  137MOL0     C18379   4.645   6.442   8.915  0.1228  0.9332 -0.2357
  137MOL0     C18380   4.561   6.416   9.044  0.0528 -0.2988  0.6496
  137MOL0     C18381   4.519   6.267   9.057 -0.7517 -0.3398 -0.1902
  137MOL0     C18382   4.483   6.212   9.189 -0.2953  0.0274 -0.4663
  137MOL0     C18383   4.358   6.285   9.219  0.7122  0.8783  0.3493
  137MOL0     O18384   4.255   6.216   9.144  0.2664 -0.6724  0.7007
  137MOL0     C18385   4.176   6.288   9.062  0.2255  0.4195  0.5739
  137MOL0     C18386   4.098   6.394   9.093  0.4798  0.0900  0.0283
  137MOL0     C18387   4.037   6.468   8.986  0.3240  0.0187  0.1365
  137MOL0     C18388   3.961   6.593   9.029  0.3885  0.1674 -0.4663
  137MOL0     C18389   4.050   6.421   8.849 -0.2037 -1.2358  0.4165
  137MOL0     C18390   3.997   6.503   8.730 -0.5907 -0.6777  0.5210
  137MOL0     O18391   4.000   6.447   8.610  0.0944 -0.7528 -1.4113
  137MOL0     C18392   3.923   6.477   8.492  0.3543 -1.2349 -0.7240
  137MOL0     C18393   3.816   6.579   8.481 -1.0456  0.0633  0.3271
  137MOL0     C18394   3.745   6.588   8.354 -1.1904  0.3116  0.0578
  137MOL0     C18395   3.781   6.507   8.251  0.5479  0.4121 -0.5874
  137MOL0     O18396   3.702   6.525   8.142  0.5324 -0.1729  0.1045
  137MOL0     C18397   3.657   6.414   8.058 -0.5309  0.1705 -0.7497
  137MOL0     C18398   3.542   6.338   8.121 -0.5670 -0.5644  0.1370
  137MOL0     C18399   3.460   6.272   8.021 -0.6268  0.6613 -1.0907
  137MOL0     C18400   3.317   6.209   8.068 -0.2169  0.1832  1.1439
  137MOL0     C18401   3.243   6.124   7.961 -0.1825 -0.8721  0.1723
  137MOL0     C18402   3.302   5.984   7.946 -0.3737 -0.0369 -0.9048
  137MOL0     C18403   3.236   5.880   7.858 -0.3217  0.1845 -0.2176
  137MOL0     C18404   3.090   5.861   7.890 -0.5036 -0.1332 -0.4420
  137MOL0    Cl18405   3.009   5.748   7.782  0.2642 -0.0403 -0.2358
  137MOL0     C18406   3.876   6.410   8.270 -0.0503 -0.1002 -0.3692
  137MOL0     C18407   3.957   6.397   8.378  1.4142 -1.0319  0.1617
  137MOL0     O18408   3.955   6.617   8.752 -0.3416 -0.4155 -0.0240
  137MOL0     C18409   4.120   6.314   8.825 -0.9468  0.1414 -0.2088
  137MOL0     C18410   4.187   6.242   8.928  0.2114 -0.6148  0.4038
  137MOL0     N18411   4.773   6.489   8.915 -0.6750 -0.4516  0.2518
  137MOL0     N18412   4.815   6.531   8.801 -0.8785  0.5208 -0.1079
  137MOL0     C18413   4.673   6.789   7.633  0.1083 -0.1196  1.1184
  137MOL0     C18414   4.592   6.887   7.581  0.1360  1.5685  0.1446
  137MOL0     C18415   4.292   7.060   7.249  0.2022  0.3513  0.1746
  137MOL0     C18416   4.254   7.052   7.114 -0.7047  0.3772 -1.0887
  137MOL0     C18417   4.188   7.165   7.067  0.1331  0.4982 -0.0054
  137MOL0     C18418   4.143   7.272   7.154 -0.2141 -1.1724  0.1280
  137MOL0     O18419   4.078   7.387   7.102  0.4516  0.3110 -0.3975
  137MOL0     C18420   4.058   7.392   6.960  0.6396  0.4068  0.2498
  137MOL0     C18421   3.969   7.516   6.910 -0.1845  0.4553  0.4552
  137MOL0     C18422   4.016   7.648   6.976  0.0446 -0.1378 -0.5092
  137MOL0     C18423   3.943   7.768   6.916  0.2251  0.1193 -0.5345
  137MOL0     C18424   3.802   7.786   6.959 -0.0093  0.3178 -0.1643
  137MOL0     C18425   3.685   7.798   6.990 -0.5659 -0.2125 -0.4344
  137MOL0     C18426   4.171   7.263   7.286 -1.2571  0.4820 -0.5280
  137MOL0     C18427   4.249   7.161   7.331 -1.5513  0.7154  0.6028
  137MOL0     H18428   4.379   6.684   7.404 -2.2587  1.3531  0.5210
  137MOL0     H18429   4.525   6.504   7.505  3.9026 -0.2090  1.0137
  137MOL0     H18430   4.775   6.650   7.848  1.6404 -1.8136  1.7725
  137MOL0     H18431   4.602   6.618   7.839  0.9726 -0.6988  0.5175
  137MOL0     H18432   4.626   6.402   7.878 -1.9894  4.1940 -4.4107
  137MOL0     H18433   4.802   6.394   7.855 -0.9163 -0.0267 -0.0587
  137MOL0     H18434   4.802   6.533   8.087  0.0910 -1.2654  2.2342
  137MOL0     H18435   4.621   6.533   8.061 -1.0164 -0.5385 -0.6988
  137MOL0     H18436   4.636   6.285   8.077 -0.5823  1.7132  0.0738
  137MOL0     H18437   4.809   6.295   8.118 -0.6202  0.0297  1.4893
  137MOL0     H18438   4.595   6.441   8.289  1.9478  1.4605 -0.5330
  137MOL0     H18439   4.643   6.267   8.297  2.6218 -0.4873 -2.0834
  137MOL0     H18440   4.872   6.338   8.336 -0.3836  0.5220  1.0605
  137MOL0     H18441   4.828   6.511   8.334 -0.6134  0.4178 -0.4750
  137MOL0     H18442   4.707   6.317   8.538 -1.1643  0.3467 -2.4765
  137MOL0     H18443   4.867   6.382   8.553  0.5698  2.5221 -1.0786
  137MOL0     H18444   4.623   6.561   8.533 -0.1420 -0.7506 -0.1228
  137MOL0     H18445   4.795   6.614   8.551  0.7284 -0.6716 -0.4215
  137MOL0     H18446   4.512   6.426   8.738  0.5515  0.9287 -1.6889
  137MOL0     H18447   4.620   6.450   9.130  1.4633  2.2056 -1.1499
  137MOL0     H18448   4.471   6.478   9.047  1.7829  2.5074 -0.7953
  137MOL0     H18449   4.592   6.194   9.023  1.6425  1.2176  1.2913
  137MOL0     H18450   4.441   6.257   8.981  0.0267  1.1847 -1.2574
  137MOL0     H18451   4.551   6.247   9.267  2.1184 -1.4926 -1.7951
  137MOL0     H18452   4.466   6.104   9.193 -0.4901  0.0872  1.0390
  137MOL0     H18453   4.367   6.393   9.204  4.2558  0.8702  1.4380
  137MOL0     H18454   4.341   6.270   9.326  2.6880  1.9415  0.8534
  137MOL0     H18455   4.081   6.425   9.196 -2.0533  4.1452 -1.3717
  137MOL0     H18456   3.856   6.583   9.001 -1.8218  2.6702  5.3424
  137MOL0     H18457   3.963   6.604   9.138  0.6188  2.1480 -0.6344
  137MOL0     H18458   4.004   6.682   8.981 -1.4930 -0.7702 -4.2160
  137MOL0     H18459   3.800   6.651   8.561  0.9150  2.5663 -1.4043
  137MOL0     H18460   3.671   6.666   8.337 -0.5125  1.6597  2.7501
  137MOL0     H18461   3.637   6.464   7.963 -1.6871 -0.5452 -0.8937
  137MOL0     H18462   3.744   6.348   8.044 -0.2561  0.3833 -0.0873
  137MOL0     H18463   3.580   6.268   8.195  0.8086  1.6883  1.6879
  137MOL0     H18464   3.476   6.415   8.162 -0.8664  0.9032 -2.7990
  137MOL0     H18465   3.521   6.193   7.975  0.4746 -0.6387  2.2811
  137MOL0     H18466   3.434   6.340   7.941  2.5437  0.0882 -2.7916
  137MOL0     H18467   3.332   6.142   8.153  1.9233  2.1627  2.4532
  137MOL0     H18468   3.265   6.298   8.104 -0.8157  0.3075  0.0258
  137MOL0     H18469   3.226   6.172   7.864  0.5835 -1.6204 -0.3482
  137MOL0     H18470   3.140   6.126   8.000 -2.3577 -0.9152 -4.7881
  137MOL0     H18471   3.404   5.985   7.906  1.1203  1.7414  2.4494
  137MOL0     H18472   3.311   5.927   8.039  0.4007 -5.6878 -3.9612
  137MOL0     H18473   3.295   5.789   7.849  0.7324  0.9244 -1.0463
  137MOL0     H18474   3.244   5.898   7.750 -0.2571 -1.8549 -0.5859
  137MOL0     H18475   3.028   5.952   7.885 -1.6601 -0.9711 -2.7188
  137MOL0     H18476   3.099   5.824   7.993  2.0974  1.2403 -0.0847
  137MOL0     H18477   3.894   6.348   8.183  1.5744  1.0277 -0.8935
  137MOL0     H18478   4.048   6.339   8.373  2.8282  1.1925 -2.0302
  137MOL0     H18479   4.134   6.269   8.727 -4.1999 -3.5799  0.7644
  137MOL0     H18480   4.230   6.143   8.915  3.3557  0.2272  2.9040
  137MOL0     H18481   4.753   6.810   7.703  3.7506 -1.7186 -2.1764
  137MOL0     H18482   4.606   6.994   7.598 -3.2073  2.3150 -1.1506
  137MOL0     H18483   4.270   6.967   7.049 -1.9178 -2.5418  2.0921
  137MOL0     H18484   4.183   7.170   6.958 -2.1464  1.0303  0.0755
  137MOL0     H18485   4.158   7.400   6.916  0.3969  0.7196 -0.2576
  137MOL0     H18486   3.995   7.307   6.930 -0.5044  0.2165  2.9723
  137MOL0     H18487   3.868   7.493   6.946  0.1371 -0.5096  0.7756
  137MOL0     H18488   3.961   7.530   6.802  1.4849  1.3391  0.4146
  137MOL0     H18489   4.125   7.653   6.970  0.4252 -2.9470  1.7803
  137MOL0     H18490   3.981   7.639   7.079  1.2714  0.7537  0.0093
  137MOL0     H18491   3.948   7.759   6.807  1.3175  4.1603 -0.9775
  137MOL0     H18492   3.997   7.860   6.942 -0.1790  0.1592  0.1997
  137MOL0     H18493   3.585   7.815   7.024  0.3506  2.1469  1.3720
  137MOL0     H18494   4.145   7.330   7.368  0.7528  2.2980 -1.2781
  137MOL0     H18495   4.275   7.170   7.436 -2.9799 -0.3746  1.0745
  138MOL0     O18496   3.441  10.649  11.086  0.1018  0.4703  0.0395
  138MOL0     C18497   3.431  10.677  10.964 -1.0544  0.3622 -0.0351
  138MOL0     O18498   3.492  10.610  10.858 -0.1269  0.3011  0.4094
  138MOL0     C18499   3.534  10.480  10.868 -0.8282 -0.2134 -0.2182
  138MOL0     C18500   3.462  10.390  10.933  0.6022  0.1321  0.3467
  138MOL0     C18501   3.499  10.252  10.945 -0.4379  0.3042 -0.6168
  138MOL0     C18502   3.625  10.208  10.890 -0.1277  0.6856 -0.5452
  138MOL0     O18503   3.672  10.076  10.912  0.3682  0.2325  0.6086
  138MOL0     C18504   3.577   9.970  10.918  0.2275 -0.3695  0.6029
  138MOL0     C18505   3.547   9.921  11.068  0.3421  0.2514 -0.0878
  138MOL0     C18506   3.464   9.792  11.066 -0.3660  0.1707  0.2689
  138MOL0     C18507   3.386   9.758  11.194 -1.0407 -0.1924  0.2438
  138MOL0     C18508   3.337   9.607  11.206 -0.4262 -0.9383 -1.1553
  138MOL0     C18509   3.229   9.575  11.094 -0.6729 -0.2263  0.2550
  138MOL0     C18510   3.138   9.453  11.122  0.4092 -0.3552 -0.4031
  138MOL0     C18511   3.016   9.453  11.022 -0.6878  0.8478  0.4529
  138MOL0     N18512   2.949   9.318  11.031  0.4315 -0.5290 -0.3705
  138MOL0     C18513   2.906   9.238  10.927 -0.6226  0.4361 -0.7230
  138MOL0     C18514   2.869   9.118  10.979  0.8489  0.2072 -0.9153
  138MOL0     C18515   2.828   9.004  10.896  0.2234 -0.4660 -0.1738
  138MOL0     C18516   2.739   9.052  10.777  0.0650  0.2287  0.5395
  138MOL0     C18517   2.684   8.938  10.691  0.1946  0.2647 -1.1109
  138MOL0     C18518   2.791   8.863  10.613  0.0076 -0.6833  1.3823
  138MOL0     O18519   2.736   8.746  10.542  0.3242 -0.0892 -0.3196
  138MOL0     C18520   2.824   8.667  10.482 -0.7029 -1.2369 -0.1659
  138MOL0     C18521   2.792   8.615  10.363 -0.4908 -1.1882 -1.0950
  138MOL0     C18522   2.879   8.533  10.298 -0.4348  0.1914  1.0636
  138MOL0     C18523   2.835   8.490  10.161  0.5684 -0.2648 -0.6595
  138MOL0     C18524   3.006   8.494  10.356  0.2662  0.5495  0.6032
  138MOL0     C18525   3.110   8.415  10.278 -0.0202  0.3228 -0.1459
  138MOL0     O18526   3.073   8.309  10.196 -0.0567 -0.3537 -0.1582
  138MOL0     C18527   3.158   8.253  10.116 -0.7857 -0.1977 -0.7234
  138MOL0     C18528   3.217   8.122  10.129  0.0159  0.2090 -0.3109
  138MOL0     C18529   3.305   8.079  10.035 -0.5084  0.5674  0.3479
  138MOL0     C18530   3.336   8.152   9.922 -0.6737  0.4795 -0.3419
  138MOL0     O18531   3.407   8.093   9.826 -0.5611  0.2413  0.4785
  138MOL0     C18532   3.403   8.122   9.688 -0.3962  0.0724 -0.0769
  138MOL0     C18533   3.347   8.011   9.610 -0.1854 -0.7116  1.2998
  138MOL0     C18534   3.340   8.060   9.461  0.2402 -0.6838 -0.7601
  138MOL0     C18535   3.262   7.960   9.370  0.1424 -0.3799 -0.5010
  138MOL0     C18536   3.225   8.034   9.232 -0.8680  0.3736 -0.5527
  138MOL0     C18537   3.105   7.999   9.148 -0.6682  0.0155  0.1576
  138MOL0     C18538   3.071   7.853   9.126 -0.0651 -0.5869 -0.3244
  138MOL0     C18539   2.943   7.833   9.045  0.2046  0.1033 -0.1872
  138MOL0    Cl18540   2.927   7.654   9.044 -0.5172  0.0788 -0.1689
  138MOL0     C18541   3.281   8.275   9.912  0.1647  0.7363 -0.4204
  138MOL0     C18542   3.188   8.330  10.005 -0.3347  0.4032 -0.2662
  138MOL0     O18543   3.225   8.433  10.306  0.0445 -0.5277  0.0568
  138MOL0     C18544   3.039   8.554  10.476 -0.0087  0.5237  1.0103
  138MOL0     C18545   2.954   8.649  10.534  0.0223  0.5158 -0.4925
  138MOL0     N18546   2.880   9.126  11.117  0.2794  0.7750 -0.0638
  138MOL0     N18547   2.934   9.240  11.139  0.7086  0.1743 -0.6022
  138MOL0     C18548   3.706  10.305  10.823 -0.5123  0.2447 -0.3279
  138MOL0     C18549   3.657  10.432  10.809  0.4709 -0.1447 -1.0300
  138MOL0     C18550   3.373  10.809  10.923  0.3882 -0.0363 -0.4927
  138MOL0     C18551   3.370  10.853  10.797  1.1251 -0.6284  0.1270
  138MOL0     C18552   3.306  10.968  10.757  0.0277 -0.0182  0.6048
  138MOL0     C18553   3.252  11.056  10.855  1.2138 -0.0306  0.2613
  138MOL0     O18554   3.183  11.165  10.809  0.9782  0.2550 -0.3015
  138MOL0     C18555   3.171  11.274  10.901  0.6416  0.8774 -0.5909
  138MOL0     C18556   3.154  11.402  10.824  0.6185  0.9227 -0.4285
  138MOL0     C18557   3.282  11.457  10.758 -0.4385  0.6272  0.0681
  138MOL0     C18558   3.322  11.400  10.627 -0.5934  0.7253  0.0057
  138MOL0     C18559   3.449  11.458  10.592 -0.7016  0.2775 -0.6117
  138MOL0     C18560   3.564  11.493  10.571 -0.6479 -0.7876  0.3568
  138MOL0     C18561   3.247  11.004  10.986 -0.5544 -0.0223  0.6393
  138MOL0     C18562   3.310  10.885  11.026 -0.6090 -0.7971  0.6181
  138MOL0     H18563   3.370  10.413  10.986  1.1142  0.7750  0.9753
  138MOL0     H18564   3.433  10.188  11.002 -2.6742  2.2984 -0.8132
  138MOL0     H18565   3.482   9.978  10.864  0.9962 -0.4814 -0.8060
  138MOL0     H18566   3.629   9.893  10.862 -1.3117  0.4573 -2.1576
  138MOL0     H18567   3.640   9.900  11.121 -1.0559  0.4630  2.6302
  138MOL0     H18568   3.490   9.994  11.126  0.8714 -0.8963  2.0098
  138MOL0     H18569   3.399   9.808  10.980  2.1699 -1.7122 -2.1499
  138MOL0     H18570   3.530   9.712  11.032  1.4257  2.4034 -1.8233
  138MOL0     H18571   3.457   9.768  11.277  1.1207 -6.4386 -0.3555
  138MOL0     H18572   3.306   9.832  11.201 -1.6902 -0.6208 -1.8167
  138MOL0     H18573   3.420   9.535  11.210 -0.2818 -0.7134  0.8753
  138MOL0     H18574   3.291   9.605  11.305 -2.7523  2.0558 -2.0465
  138MOL0     H18575   3.168   9.661  11.063  1.0063 -0.0877 -3.2170
  138MOL0     H18576   3.285   9.556  11.001 -4.4759  0.9665 -2.5195
  138MOL0     H18577   3.199   9.363  11.117 -1.3358 -1.6578  0.7673
  138MOL0     H18578   3.101   9.475  11.223  1.7183  0.2923 -0.0460
  138MOL0     H18579   3.045   9.476  10.919  0.7837  0.8473  0.8423
  138MOL0     H18580   2.945   9.534  11.038 -3.5780 -1.2758 -0.7602
  138MOL0     H18581   2.924   9.266  10.823  2.1995  0.3491 -0.3476
  138MOL0     H18582   2.922   8.970  10.851  0.3836 -1.9312  1.1906
  138MOL0     H18583   2.787   8.922  10.956 -2.5309 -1.0046 -2.5709
  138MOL0     H18584   2.795   9.125  10.717 -0.2242  2.5082  2.8614
  138MOL0     H18585   2.652   9.099  10.824 -0.1489  0.5559 -0.1628
  138MOL0     H18586   2.602   8.969  10.626 -0.7372 -0.2816 -0.2233
  138MOL0     H18587   2.639   8.873  10.767  0.6054 -1.5203 -2.3133
  138MOL0     H18588   2.865   8.839  10.690  1.3425  0.8726  0.6414
  138MOL0     H18589   2.843   8.927  10.541 -2.0587 -0.4606 -0.0162
  138MOL0     H18590   2.699   8.644  10.316 -0.5363 -1.0169 -0.9002
  138MOL0     H18591   2.805   8.385  10.167 -0.6046  0.0948  0.3770
  138MOL0     H18592   2.741   8.541  10.135  1.4483  3.1120  2.0550
  138MOL0     H18593   2.910   8.504  10.083  0.2490  0.4226 -0.8530
  138MOL0     H18594   3.196   8.048  10.206 -0.3922 -1.4489 -1.9337
  138MOL0     H18595   3.355   7.987  10.063 -3.6394 -0.4938  3.1218
  138MOL0     H18596   3.356   8.218   9.664 -0.9519  0.6529  2.9078
  138MOL0     H18597   3.510   8.139   9.668 -1.1376  2.0568 -2.9502
  138MOL0     H18598   3.419   7.931   9.629  0.6500 -0.0363  1.0279
  138MOL0     H18599   3.251   7.969   9.641 -1.2207 -1.6914 -2.6580
  138MOL0     H18600   3.440   8.081   9.424 -0.1853  3.2235 -0.1403
  138MOL0     H18601   3.298   8.161   9.458 -2.4109 -1.7160 -0.9593
  138MOL0     H18602   3.323   7.870   9.359  0.9713 -0.2399  2.0823
  138MOL0     H18603   3.163   7.926   9.400 -0.0485  0.1888 -0.4753
  138MOL0     H18604   3.306   7.985   9.178  0.1908 -1.7408  2.6751
  138MOL0     H18605   3.243   8.142   9.239  0.4503  0.1670 -0.5837
  138MOL0     H18606   3.015   8.045   9.189 -0.3604 -0.8689  1.9461
  138MOL0     H18607   3.106   8.054   9.054  0.0413  0.7099  0.5585
  138MOL0     H18608   3.065   7.818   9.229 -2.9848 -1.9007 -0.8451
  138MOL0     H18609   3.156   7.804   9.078  0.4972  1.7033 -1.8393
  138MOL0     H18610   2.969   7.863   8.943  3.4285 -2.6271 -0.3407
  138MOL0     H18611   2.862   7.880   9.102  0.4720 -1.9572  2.0489
  138MOL0     H18612   3.291   8.333   9.821 -1.9150  1.1208 -0.4684
  138MOL0     H18613   3.157   8.435  10.000  1.4106  0.8789 -2.5849
  138MOL0     H18614   3.132   8.540  10.530 -0.4620 -2.4144  1.1856
  138MOL0     H18615   2.986   8.695  10.627 -4.0655  1.8084  0.4834
  138MOL0     H18616   3.797  10.260  10.785 -1.3649 -2.0358  0.1056
  138MOL0     H18617   3.706  10.509  10.749  1.1986  2.2066  2.2941
  138MOL0     H18618   3.407  10.774  10.732  3.3493  1.3085 -1.0736
  138MOL0     H18619   3.304  10.990  10.651  1.6767 -0.5347  0.4393
  138MOL0     H18620   3.077  11.273  10.957 -0.0366 -1.9189 -1.5753
  138MOL0     H18621   3.263  11.281  10.960  1.6452  1.6129 -2.1808
  138MOL0     H18622   3.121  11.484  10.887  2.2192  2.6241 -1.7156
  138MOL0     H18623   3.072  11.374  10.757  2.1746 -0.7462 -1.7418
  138MOL0     H18624   3.365  11.448  10.829  0.4522 -0.9228 -1.0893
  138MOL0     H18625   3.269  11.562  10.729 -0.3676  0.0184 -2.4047
  138MOL0     H18626   3.248  11.418  10.548  2.0236 -0.1775 -2.8298
  138MOL0     H18627   3.325  11.290  10.630  0.1967  0.5992 -2.8000
  138MOL0     H18628   3.665  11.523  10.552 -1.0675  1.8372  1.8001
  138MOL0     H18629   3.194  11.058  11.064 -1.0186  2.1920 -1.0966
  138MOL0     H18630   3.305  10.858  11.131 -1.5692  3.0409  1.7068
  139MOL0     O18631   1.843   8.362   5.009 -0.3417  0.1178 -0.1096
  139MOL0     C18632   1.842   8.342   5.130  0.4453  0.1542 -0.4032
  139MOL0     O18633   1.927   8.265   5.199 -0.2848  0.7548 -0.3685
  139MOL0     C18634   2.022   8.185   5.134  0.1824 -1.4186  0.3308
  139MOL0     C18635   2.105   8.225   5.023 -0.8856  0.2545  0.3987
  139MOL0     C18636   2.193   8.134   4.968  0.9921  0.5314  0.3772
  139MOL0     C18637   2.221   8.009   5.033  0.6858 -0.2378  0.4706
  139MOL0     O18638   2.306   7.917   4.994 -0.1460 -0.4773  0.0025
  139MOL0     C18639   2.429   7.970   4.952 -1.4220 -0.1396  0.0749
  139MOL0     C18640   2.541   7.979   5.067 -0.5227  0.3609  0.3886
  139MOL0     C18641   2.496   8.098   5.159 -0.3424  0.0556  0.8574
  139MOL0     C18642   2.582   8.128   5.287  0.0661  0.0646  0.2422
  139MOL0     C18643   2.495   8.225   5.368 -0.1188 -0.3142 -0.4871
  139MOL0     C18644   2.572   8.279   5.495  0.1689 -0.0476  0.9358
  139MOL0     C18645   2.462   8.358   5.584 -0.2320 -0.0947 -0.8446
  139MOL0     C18646   2.526   8.381   5.720  0.0653 -0.4654  0.1629
  139MOL0     N18647   2.664   8.443   5.727 -0.0464 -0.9996 -0.4888
  139MOL0     C18648   2.698   8.560   5.662  0.3111  1.0165  0.1794
  139MOL0     C18649   2.834   8.548   5.658 -0.0287 -0.6952 -0.3331
  139MOL0     C18650   2.923   8.644   5.577  0.9782  0.2885  0.1598
  139MOL0     C18651   2.881   8.677   5.431 -0.4313  0.7742 -0.6703
  139MOL0     C18652   2.855   8.551   5.340 -0.6753  0.5429 -0.2568
  139MOL0     C18653   2.837   8.610   5.199  0.2529  0.2533 -0.0014
  139MOL0     O18654   2.836   8.508   5.098 -0.2154 -0.4909  0.6390
  139MOL0     C18655   2.765   8.539   4.980  0.1544  0.0735 -0.2279
  139MOL0     C18656   2.693   8.437   4.926  0.8018  0.3853  0.9197
  139MOL0     C18657   2.635   8.452   4.800  0.1349  1.2474 -0.1246
  139MOL0     C18658   2.569   8.321   4.746 -0.4520 -0.3243 -0.3586
  139MOL0     C18659   2.629   8.577   4.738 -0.2930  0.5026  0.7256
  139MOL0     C18660   2.578   8.612   4.604 -0.9357  0.7091 -0.4592
  139MOL0     O18661   2.601   8.522   4.514 -0.3842  0.5862  0.1836
  139MOL0     C18662   2.528   8.528   4.394  0.0396  0.4979  0.1785
  139MOL0     C18663   2.605   8.549   4.274 -0.0429 -0.3710  0.7028
  139MOL0     C18664   2.552   8.542   4.143 -0.9477  1.0132 -1.4047
  139MOL0     C18665   2.414   8.535   4.139 -0.1607 -0.0681  0.0363
  139MOL0     O18666   2.361   8.551   4.015 -0.2078  0.3200 -0.2707
  139MOL0     C18667   2.259   8.461   3.991  0.7732  0.5078 -0.0335
  139MOL0     C18668   2.308   8.328   3.955  0.8893  1.0998 -0.3548
  139MOL0     C18669   2.197   8.212   3.952  0.8890 -0.1732  0.3401
  139MOL0     C18670   2.200   8.135   3.819  0.0352  0.6176  0.0521
  139MOL0     C18671   2.089   8.023   3.822 -0.0543  0.1582 -0.4459
  139MOL0     C18672   1.947   8.086   3.823 -0.5954  0.3796 -0.2821
  139MOL0     C18673   1.839   7.973   3.827  0.4377 -0.2878 -0.6546
  139MOL0     C18674   1.697   8.028   3.814  0.5234 -0.8213 -0.5323
  139MOL0    Cl18675   1.663   8.139   3.939  0.1179 -0.3523  0.4186
  139MOL0     C18676   2.337   8.519   4.254  0.5669  0.5676  0.5906
  139MOL0     C18677   2.396   8.514   4.383 -0.5640  0.1910 -0.4472
  139MOL0     O18678   2.513   8.714   4.585 -0.6013 -0.5006  0.2013
  139MOL0     C18679   2.689   8.685   4.806 -0.6357  0.0641 -0.5621
  139MOL0     C18680   2.758   8.671   4.927  0.2299  0.3533 -0.4837
  139MOL0     N18681   2.881   8.442   5.727 -0.1440  0.4486  0.4746
  139MOL0     N18682   2.773   8.386   5.776  0.4343 -0.1363 -0.1864
  139MOL0     C18683   2.152   7.971   5.147  0.0694 -0.2415  1.4062
  139MOL0     C18684   2.047   8.053   5.184 -0.5338 -0.9076 -1.5215
  139MOL0     C18685   1.732   8.407   5.199  0.1587 -0.2634 -1.0329
  139MOL0     C18686   1.717   8.401   5.337  0.4111 -0.0433  0.0711
  139MOL0     C18687   1.605   8.457   5.395  0.6412 -0.8523  0.5683
  139MOL0     C18688   1.511   8.532   5.321  0.2117  0.3223 -0.1904
  139MOL0     O18689   1.394   8.571   5.378  0.0436  0.1259  0.2950
  139MOL0     C18690   1.324   8.690   5.354  0.8945 -0.0143 -0.8391
  139MOL0     C18691   1.363   8.801   5.440  0.0603  0.0200  0.5253
  139MOL0     C18692   1.286   8.928   5.412  0.3849 -0.1699  0.5099
  139MOL0     C18693   1.286   8.995   5.277 -0.2676 -0.0739  0.1953
  139MOL0     C18694   1.238   9.131   5.282 -0.5436 -0.7855 -0.1514
  139MOL0     C18695   1.201   9.246   5.301  0.3274 -0.2576 -0.5196
  139MOL0     C18696   1.534   8.554   5.192 -1.2934  0.1701  0.4504
  139MOL0     C18697   1.636   8.484   5.121  0.0979  0.3350 -0.9153
  139MOL0     H18698   2.097   8.323   4.977 -2.1854 -0.0533 -0.0808
  139MOL0     H18699   2.226   8.144   4.865 -2.9654 -1.3527 -1.2977
  139MOL0     H18700   2.480   7.910   4.876  1.4447  1.4062  0.6327
  139MOL0     H18701   2.413   8.061   4.892 -1.6100 -0.6741 -0.7054
  139MOL0     H18702   2.551   7.879   5.110  2.9218  0.9617  1.2997
  139MOL0     H18703   2.638   8.015   5.030  0.0756 -1.2890  0.3091
  139MOL0     H18704   2.494   8.187   5.096 -0.8453  0.8116  1.9034
  139MOL0     H18705   2.397   8.067   5.195 -0.8530 -0.5698 -0.9584
  139MOL0     H18706   2.604   8.034   5.338  3.2094 -1.4821 -3.5333
  139MOL0     H18707   2.678   8.168   5.255 -1.0458  0.1323 -3.4289
  139MOL0     H18708   2.475   8.314   5.308 -1.2122 -1.7092 -2.3031
  139MOL0     H18709   2.401   8.181   5.404 -0.2589  1.4699  1.5269
  139MOL0     H18710   2.603   8.186   5.544  2.0673 -0.7035 -1.3441
  139MOL0     H18711   2.653   8.349   5.475 -0.0648  0.7666  2.6354
  139MOL0     H18712   2.439   8.457   5.546 -0.5035 -0.0386 -0.5403
  139MOL0     H18713   2.375   8.291   5.583 -0.1952 -0.1376 -1.1922
  139MOL0     H18714   2.537   8.278   5.755 -2.1856 -0.4483  1.0729
  139MOL0     H18715   2.467   8.437   5.793  0.7658  2.5561 -1.4241
  139MOL0     H18716   2.637   8.639   5.618  2.6128  3.4285  1.0217
  139MOL0     H18717   2.926   8.740   5.629  0.5094  0.2753  0.2134
  139MOL0     H18718   3.022   8.598   5.572  1.1887  0.8350 -1.4513
  139MOL0     H18719   2.967   8.738   5.402  2.7228 -1.9874  1.9982
  139MOL0     H18720   2.794   8.743   5.429 -0.7506  0.3791 -0.0634
  139MOL0     H18721   2.769   8.488   5.365  0.0109 -0.4684 -0.3327
  139MOL0     H18722   2.942   8.484   5.336 -0.2725  1.0795 -4.3211
  139MOL0     H18723   2.914   8.685   5.184  0.9742 -0.8087 -1.9021
  139MOL0     H18724   2.748   8.673   5.191  1.0457  1.5106  0.7665
  139MOL0     H18725   2.711   8.336   4.963 -1.1762 -1.5449 -2.8454
  139MOL0     H18726   2.592   8.237   4.812 -1.0644  0.8151  1.3523
  139MOL0     H18727   2.462   8.336   4.736 -0.2086  3.1132  1.0622
  139MOL0     H18728   2.611   8.288   4.650 -0.7570 -2.3128  0.1341
  139MOL0     H18729   2.712   8.557   4.295 -0.5418  0.3896  3.3505
  139MOL0     H18730   2.621   8.538   4.059 -1.5548 -1.7510 -1.8491
  139MOL0     H18731   2.189   8.449   4.074 -1.4544  5.3161 -0.8925
  139MOL0     H18732   2.201   8.516   3.916  1.7793  2.8504  0.8196
  139MOL0     H18733   2.354   8.340   3.857  1.7950  3.0742  0.2472
  139MOL0     H18734   2.394   8.291   4.012  1.1758  0.9094 -0.9029
  139MOL0     H18735   2.108   8.271   3.975  1.9583  2.2199 -1.2598
  139MOL0     H18736   2.216   8.137   4.030 -2.2536 -3.4692 -1.7108
  139MOL0     H18737   2.207   8.196   3.729  2.8909  1.1147  0.5070
  139MOL0     H18738   2.300   8.091   3.812 -0.7851 -1.1207 -4.8122
  139MOL0     H18739   2.091   7.960   3.911  0.7625  1.2738  0.3498
  139MOL0     H18740   2.100   7.962   3.732 -2.6503 -3.3012  1.3251
  139MOL0     H18741   1.931   8.148   3.912  1.1154 -1.0749  1.1063
  139MOL0     H18742   1.927   8.149   3.735 -0.5358  0.4136 -0.2719
  139MOL0     H18743   1.853   7.926   3.925  1.3311 -0.7568 -0.9980
  139MOL0     H18744   1.850   7.888   3.759  0.5662 -2.3588  1.7954
  139MOL0     H18745   1.625   7.946   3.820 -1.2538  0.7221  0.2617
  139MOL0     H18746   1.680   8.070   3.715 -2.2124  0.9487  0.5852
  139MOL0     H18747   2.229   8.528   4.258  0.3361 -1.8539  2.0687
  139MOL0     H18748   2.328   8.507   4.467  1.9046 -1.0657  1.5739
  139MOL0     H18749   2.701   8.786   4.770 -0.6886 -0.0753 -0.9722
  139MOL0     H18750   2.804   8.757   4.975  3.3915 -1.1141 -0.6313
  139MOL0     H18751   2.167   7.872   5.189  1.0951 -0.5640  0.3688
  139MOL0     H18752   1.978   8.027   5.263 -1.7245  5.0821 -0.0971
  139MOL0     H18753   1.786   8.341   5.395  1.9521  1.2337 -0.3819
  139MOL0     H18754   1.594   8.453   5.502 -3.0154 -1.0466  0.3181
  139MOL0     H18755   1.346   8.719   5.251 -2.9950 -1.9875 -2.4143
  139MOL0     H18756   1.218   8.667   5.371  1.0568  0.3250  0.7446
  139MOL0     H18757   1.462   8.833   5.406 -0.0496 -0.8973 -0.7309
  139MOL0     H18758   1.374   8.770   5.545  0.2763  0.2137  0.5598
  139MOL0     H18759   1.334   8.998   5.480  2.4891 -1.0908  0.0580
  139MOL0     H18760   1.179   8.911   5.430 -0.2276  1.7501 -0.9439
  139MOL0     H18761   1.217   8.942   5.211 -0.6108  0.8030 -0.1594
  139MOL0     H18762   1.387   8.987   5.234 -0.7506  2.6619 -1.6569
  139MOL0     H18763   1.170   9.348   5.307  4.0826  1.0298 -0.8528
  139MOL0     H18764   1.466   8.612   5.130 -0.4391 -1.2307 -1.9553
  139MOL0     H18765   1.643   8.501   5.014  4.6309 -0.4700 -0.9694
  140MOL0     O18766   9.517   1.341  10.524 -0.9664 -0.1489  0.5141
  140MOL0     C18767   9.488   1.289  10.421 -0.3511 -0.0200  0.1169
  140MOL0     O18768   9.386   1.206  10.391 -0.1723 -0.4777 -0.0848
  140MOL0     C18769   9.298   1.188  10.506 -1.4565  0.1009  1.3147
  140MOL0     C18770   9.290   1.065  10.561  0.0245  0.3644  0.5475
  140MOL0     C18771   9.199   1.037  10.663  0.0456  1.0195 -0.6529
  140MOL0     C18772   9.112   1.132  10.708 -1.4716  0.4872 -0.4181
  140MOL0     O18773   9.031   1.104  10.818  0.3196  0.1435  0.0008
  140MOL0     C18774   8.943   1.210  10.873  0.1495  0.5966 -1.0571
  140MOL0     C18775   9.033   1.298  10.967 -0.0961 -0.5887 -0.1259
  140MOL0     C18776   8.940   1.398  11.038  0.2814 -0.5609 -1.0072
  140MOL0     C18777   9.009   1.527  11.099  0.3032  0.1790  0.8906
  140MOL0     C18778   8.972   1.666  11.030  0.0813 -0.4284  0.3273
  140MOL0     C18779   9.063   1.777  11.084 -1.0147  0.8233  0.4954
  140MOL0     C18780   9.035   1.918  11.019  0.6393 -0.1741 -0.0907
  140MOL0     C18781   9.144   2.019  11.057  0.5581 -0.9065 -0.1471
  140MOL0     N18782   9.119   2.141  10.975 -0.1172  0.7760 -0.0276
  140MOL0     C18783   9.144   2.158  10.842  0.4604 -0.2734  0.4246
  140MOL0     C18784   9.144   2.286  10.818  0.5131  0.0155  0.4604
  140MOL0     C18785   9.156   2.349  10.676 -0.1550 -0.5609 -0.6110
  140MOL0     C18786   9.304   2.334  10.619 -0.2085  0.0863  0.0468
  140MOL0     C18787   9.406   2.395  10.716  0.1235  0.1124  0.4669
  140MOL0     C18788   9.541   2.418  10.644 -0.1295 -0.2377  0.2023
  140MOL0     O18789   9.649   2.441  10.730 -0.4267 -0.1799  0.6791
  140MOL0     C18790   9.665   2.566  10.791 -0.1421  0.0165  0.4295
  140MOL0     C18791   9.790   2.567  10.854 -0.0370  0.7043  1.0051
  140MOL0     C18792   9.848   2.685  10.902  0.8249 -0.6152 -0.0089
  140MOL0     C18793   9.974   2.674  10.986  0.1846 -0.8546 -0.2080
  140MOL0     C18794   9.783   2.810  10.886 -0.1155 -0.7135  0.1638
  140MOL0     C18795   9.832   2.943  10.929 -0.5073 -0.6693 -1.4082
  140MOL0     O18796   9.959   2.953  10.990 -0.2122  0.3883  0.4110
  140MOL0     C18797   9.975   3.085  11.043  0.0822  0.3085 -0.5250
  140MOL0     C18798   9.991   3.191  10.952  1.5109 -0.4405  0.2560
  140MOL0     C18799  10.014   3.325  10.995  0.0956 -0.0786  0.4490
  140MOL0     C18800  10.024   3.345  11.136 -0.7367 -0.0837  0.4786
  140MOL0     O18801  10.057   3.473  11.180  0.4042 -0.0710 -0.3453
  140MOL0     C18802  10.112   3.495  11.305 -0.4343 -1.4726  0.6208
  140MOL0     C18803  10.184   3.633  11.298 -1.0847  0.0674  0.3613
  140MOL0     C18804  10.307   3.659  11.201  0.1229  0.3470  0.8113
  140MOL0     C18805  10.316   3.796  11.150  0.1589  0.0822 -0.1300
  140MOL0     C18806  10.300   3.803  10.997 -0.8914 -0.1866  0.1536
  140MOL0     C18807  10.303   3.948  10.961  0.1314  0.6810  1.1756
  140MOL0     C18808  10.264   3.987  10.820  0.2431 -0.1138  0.0130
  140MOL0     C18809  10.361   3.945  10.699  0.3852  0.1289  0.3777
  140MOL0    Cl18810  10.529   4.010  10.705  0.5266 -0.3339 -0.1130
  140MOL0     C18811  10.015   3.240  11.222  0.0847 -0.0714  0.2017
  140MOL0     C18812   9.997   3.107  11.184  0.3055  0.3005 -0.9447
  140MOL0     O18813   9.759   3.034  10.903  0.4317 -0.0566  0.0578
  140MOL0     C18814   9.651   2.807  10.826 -1.2802  0.6111 -0.5072
  140MOL0     C18815   9.588   2.684  10.780 -0.1397 -0.6926  0.3782
  140MOL0     N18816   9.110   2.349  10.941  0.9068 -0.8419  0.2524
  140MOL0     N18817   9.105   2.263  11.034 -0.6448  0.9321 -0.3280
  140MOL0     C18818   9.117   1.264  10.646 -0.4381  0.0291 -0.2402
  140MOL0     C18819   9.204   1.292  10.541 -1.1247 -0.1711 -0.0859
  140MOL0     C18820   9.562   1.352  10.310  0.0519  0.3307  0.1733
  140MOL0     C18821   9.615   1.481  10.305 -0.8322 -0.2348 -0.5570
  140MOL0     C18822   9.701   1.523  10.198 -0.0545  0.7472  1.0638
  140MOL0     C18823   9.718   1.432  10.091  0.6539  0.4267  0.5776
  140MOL0     O18824   9.797   1.442   9.975 -0.8288 -0.1008  0.0632
  140MOL0     C18825   9.826   1.573   9.923  0.2812 -0.5517  0.3435
  140MOL0     C18826   9.711   1.634   9.844 -0.0574 -0.7108  0.4746
  140MOL0     C18827   9.700   1.585   9.695  0.0430  0.0924  0.1811
  140MOL0     C18828   9.573   1.615   9.618 -1.4083  0.1066 -1.3629
  140MOL0     C18829   9.456   1.553   9.678 -0.7303  0.5943 -0.1210
  140MOL0     C18830   9.355   1.506   9.722 -0.1314 -0.4465  0.9214
  140MOL0     C18831   9.663   1.305  10.091  1.1409  0.7708 -0.7135
  140MOL0     C18832   9.581   1.269  10.199  0.3128 -0.5815  0.3476
  140MOL0     H18833   9.363   0.992  10.527 -1.0486 -1.0222  1.1322
  140MOL0     H18834   9.223   0.940  10.705  5.2643  1.2721 -2.2824
  140MOL0     H18835   8.889   1.264  10.795 -3.8387 -1.0400  0.3221
  140MOL0     H18836   8.866   1.157  10.930  1.0680 -1.6800 -1.7805
  140MOL0     H18837   9.099   1.236  11.028  3.8938 -1.0385 -4.3724
  140MOL0     H18838   9.104   1.346  10.900  1.6200  0.0180  2.0400
  140MOL0     H18839   8.871   1.442  10.965  0.4588  2.1542  0.3455
  140MOL0     H18840   8.887   1.338  11.113 -2.8609  1.4364 -1.4320
  140MOL0     H18841   8.974   1.526  11.203  1.5407 -0.1072  1.3235
  140MOL0     H18842   9.116   1.507  11.092 -0.0632 -2.0204  0.7735
  140MOL0     H18843   8.989   1.648  10.923 -2.5417 -0.8558 -0.0907
  140MOL0     H18844   8.866   1.686  11.044 -0.2407 -0.3967 -1.7277
  140MOL0     H18845   9.058   1.777  11.193 -0.8268 -0.7959  0.5343
  140MOL0     H18846   9.165   1.748  11.058 -1.4355  0.7385 -1.2206
  140MOL0     H18847   9.015   1.902  10.913 -1.6319 -0.7727  0.3679
  140MOL0     H18848   8.945   1.961  11.064  1.1482  0.2611  0.5229
  140MOL0     H18849   9.239   1.980  11.019  2.5715  2.3383  1.1619
  140MOL0     H18850   9.148   2.047  11.163  0.4047 -0.6447 -0.2085
  140MOL0     H18851   9.161   2.075  10.774 -0.3169 -0.2391  0.1821
  140MOL0     H18852   9.081   2.310  10.606  2.0729 -1.5304 -2.6035
  140MOL0     H18853   9.128   2.454  10.685 -3.0199 -1.2958 -0.0234
  140MOL0     H18854   9.306   2.373  10.516 -3.0008 -0.6062 -0.3412
  140MOL0     H18855   9.329   2.228  10.618  0.1195  0.1504 -1.5703
  140MOL0     H18856   9.412   2.323  10.798 -1.3872 -1.5664 -0.7974
  140MOL0     H18857   9.365   2.488  10.757 -0.9977  0.4077 -1.2318
  140MOL0     H18858   9.531   2.498  10.571 -1.2359 -0.6267 -0.0960
  140MOL0     H18859   9.564   2.327  10.588  0.9945 -0.2909  0.7244
  140MOL0     H18860   9.826   2.467  10.877  2.3701  1.4499  0.8031
  140MOL0     H18861  10.018   2.574  10.994  0.4771 -0.8382 -1.5173
  140MOL0     H18862  10.052   2.737  10.943  1.4349 -2.4143 -0.3440
  140MOL0     H18863   9.968   2.710  11.089  3.7739 -2.0862  0.5918
  140MOL0     H18864   9.988   3.170  10.845  1.7683  1.7597 -0.2428
  140MOL0     H18865  10.020   3.408  10.925  0.4240 -1.9609 -1.8990
  140MOL0     H18866  10.038   3.501  11.385 -2.5653 -3.5386 -1.0473
  140MOL0     H18867  10.185   3.420  11.338 -2.4635 -4.2898 -0.9277
  140MOL0     H18868  10.115   3.717  11.288  1.3486  2.0497 -0.8279
  140MOL0     H18869  10.239   3.631  11.393  0.1533 -2.6688 -0.3056
  140MOL0     H18870  10.305   3.584  11.121  0.8699 -0.5737  1.6360
  140MOL0     H18871  10.401   3.644  11.255  1.9616  6.5881  0.0697
  140MOL0     H18872  10.249   3.868  11.197  0.5594  0.2224  0.2296
  140MOL0     H18873  10.417   3.829  11.176 -0.9527  0.4395  4.5208
  140MOL0     H18874  10.204   3.761  10.964  0.4003 -1.4572 -2.2882
  140MOL0     H18875  10.378   3.743  10.949  2.0842 -0.4191  4.6200
  140MOL0     H18876  10.252   4.021  11.025  1.5929  2.1261  0.7749
  140MOL0     H18877  10.408   3.978  10.976  1.0722  1.4578 -4.6169
  140MOL0     H18878  10.259   4.096  10.817 -1.1900 -0.1722 -1.3586
  140MOL0     H18879  10.170   3.943  10.784  2.1245 -0.5265 -5.0688
  140MOL0     H18880  10.315   3.984  10.608  0.6743 -0.1553  0.1084
  140MOL0     H18881  10.386   3.839  10.689  3.8235  0.7786  0.7918
  140MOL0     H18882  10.011   3.259  11.329 -0.3761  1.7056 -0.1021
  140MOL0     H18883   9.985   3.027  11.256 -0.5652  0.7711 -0.5541
  140MOL0     H18884   9.594   2.894  10.797  0.0338  1.5602 -0.3481
  140MOL0     H18885   9.494   2.697  10.728 -0.5757  0.5231  1.4393
  140MOL0     H18886   9.062   1.347  10.688  0.4996  0.2123  0.6776
  140MOL0     H18887   9.207   1.384  10.484  2.3587 -1.0007 -1.4860
  140MOL0     H18888   9.616   1.546  10.392  0.2906  0.5941 -1.1599
  140MOL0     H18889   9.741   1.624  10.194  2.6338 -0.2760 -0.0674
  140MOL0     H18890   9.846   1.651   9.998  1.5319 -0.5241  0.0072
  140MOL0     H18891   9.909   1.565   9.852 -0.5222 -1.9973 -0.4762
  140MOL0     H18892   9.725   1.743   9.835  2.4220 -0.7834  2.4571
  140MOL0     H18893   9.617   1.616   9.896 -1.1628 -3.7159 -2.2556
  140MOL0     H18894   9.720   1.478   9.690 -0.9448 -0.1947  1.7546
  140MOL0     H18895   9.779   1.639   9.641 -0.9259  1.2002 -0.1592
  140MOL0     H18896   9.579   1.594   9.511  4.0686  1.5682 -1.6469
  140MOL0     H18897   9.556   1.723   9.627  0.2178  0.2704  0.3165
  140MOL0     H18898   9.257   1.482   9.758  0.3251 -1.9012  1.2513
  140MOL0     H18899   9.669   1.228  10.015 -1.2841  2.0578 -2.3275
  140MOL0     H18900   9.542   1.169  10.215 -0.5822  0.1757  3.7167
  141MOL0     O18901   9.868   8.934   4.917 -0.8603  0.5741  0.1682
  141MOL0     C18902   9.775   8.997   4.975 -0.3120 -0.3646 -0.8123
  141MOL0     O18903   9.787   9.092   5.081 -0.2108 -0.3531  0.2986
  141MOL0     C18904   9.915   9.118   5.126 -0.2394 -0.6036  0.6295
  141MOL0     C18905   9.951   9.087   5.256  0.0424  0.0594  0.2375
  141MOL0     C18906  10.078   9.106   5.304 -0.0101  0.1913 -0.2587
  141MOL0     C18907  10.184   9.145   5.215 -0.4594 -0.4629 -0.3770
  141MOL0     O18908  10.315   9.160   5.260  0.2319 -0.0801 -0.2257
  141MOL0     C18909  10.339   9.199   5.395  0.1375  0.3640 -0.7778
  141MOL0     C18910  10.482   9.242   5.420 -0.4730 -0.2255  0.3436
  141MOL0     C18911  10.519   9.368   5.344 -0.0591  0.0382  1.0309
  141MOL0     C18912  10.649   9.433   5.392  0.9471  0.5639 -0.0063
  141MOL0     C18913  10.770   9.338   5.361  0.2089 -0.4617  0.1300
  141MOL0     C18914  10.907   9.423   5.363  0.0094  0.9204  0.8161
  141MOL0     C18915  11.042   9.341   5.341 -0.8952 -0.0073  0.1834
  141MOL0     C18916  11.165   9.401   5.419  0.7582 -0.7881  0.3766
  141MOL0     N18917  11.150   9.369   5.564 -0.3968  0.0724  0.5317
  141MOL0     C18918  11.129   9.238   5.623 -0.1469 -0.5055 -0.3514
  141MOL0     C18919  11.083   9.259   5.756  0.0565 -1.3460 -0.2163
  141MOL0     C18920  11.032   9.150   5.844  0.0908 -0.1003 -1.2539
  141MOL0     C18921  10.987   9.208   5.972  0.6309  0.2710  0.3774
  141MOL0     C18922  10.931   9.103   6.074 -1.2336  0.7365  0.5845
  141MOL0     C18923  10.864   9.156   6.198 -0.0785 -0.0206  0.3229
  141MOL0     O18924  10.724   9.184   6.161 -1.0119  0.0644 -0.5560
  141MOL0     C18925  10.645   9.227   6.263  0.0577 -0.5620  0.0527
  141MOL0     C18926  10.614   9.362   6.278  0.2939  0.6946  1.3495
  141MOL0     C18927  10.540   9.416   6.390  0.4194  0.0155  0.4209
  141MOL0     C18928  10.508   9.565   6.369 -0.2073 -0.8266 -0.1936
  141MOL0     C18929  10.498   9.330   6.484  0.0066  0.2405 -0.8062
  141MOL0     C18930  10.401   9.369   6.596  0.1355 -0.4380 -0.8194
  141MOL0     O18931  10.315   9.269   6.643  0.2693 -0.7042  0.0803
  141MOL0     C18932  10.242   9.288   6.766 -0.3797 -0.1940  0.1983
  141MOL0     C18933  10.158   9.398   6.790 -0.4298 -0.4483  1.2129
  141MOL0     C18934  10.080   9.411   6.910  0.3691 -0.4553  0.0426
  141MOL0     C18935  10.084   9.302   7.007  1.2444  0.1924  0.1581
  141MOL0     O18936  10.027   9.309   7.135  0.4382 -0.0001  0.5973
  141MOL0     C18937   9.992   9.431   7.188  0.2929 -0.3985 -0.3214
  141MOL0     C18938   9.932   9.401   7.330  0.5773 -0.0852  0.1275
  141MOL0     C18939   9.824   9.294   7.333 -0.3948  0.3676 -0.7249
  141MOL0     C18940   9.748   9.280   7.468 -1.1759  0.1403 -0.7624
  141MOL0     C18941   9.655   9.162   7.470  0.4776  0.9098  0.1341
  141MOL0     C18942   9.720   9.035   7.527 -0.6574 -0.7166 -0.1635
  141MOL0     C18943   9.735   9.041   7.687  0.3923  1.0448  0.0391
  141MOL0     C18944   9.809   8.921   7.725  0.1176  0.5260 -0.0827
  141MOL0    Cl18945   9.983   8.948   7.775  0.5218  0.1782 -0.0790
  141MOL0     C18946  10.161   9.191   6.978  0.1933 -1.0320  0.6164
  141MOL0     C18947  10.245   9.190   6.865 -0.2065 -1.5895 -0.5489
  141MOL0     O18948  10.419   9.477   6.650 -0.1372 -0.3030  0.3455
  141MOL0     C18949  10.537   9.195   6.475  0.8473 -0.2855  0.2080
  141MOL0     C18950  10.600   9.143   6.364  0.5255  0.4670 -0.4866
  141MOL0     N18951  11.075   9.397   5.777  0.7605  0.1878  0.2827
  141MOL0     N18952  11.117   9.462   5.668 -0.7022 -0.0117 -0.6844
  141MOL0     C18953  10.146   9.192   5.091  0.5727 -0.0635  0.2774
  141MOL0     C18954  10.017   9.171   5.044  0.1715  0.1456 -0.0293
  141MOL0     C18955   9.638   8.985   4.930  0.8240 -0.1385  0.8981
  141MOL0     C18956   9.607   8.992   4.793 -1.4351 -0.6361 -0.1954
  141MOL0     C18957   9.477   8.970   4.749 -0.1520 -0.9919  0.4293
  141MOL0     C18958   9.380   8.936   4.838 -0.6694 -0.2024 -0.0493
  141MOL0     O18959   9.268   8.900   4.770  0.1096 -0.2820 -0.8935
  141MOL0     C18960   9.156   8.874   4.855  0.6908  0.1638 -0.9620
  141MOL0     C18961   9.031   8.928   4.787  0.9366  0.0083 -0.1730
  141MOL0     C18962   8.905   8.914   4.889 -0.4325  0.4128 -0.0823
  141MOL0     C18963   8.758   8.915   4.833 -0.1663 -0.7334  0.4839
  141MOL0     C18964   8.741   9.056   4.782  0.6426  0.0270 -0.7504
  141MOL0     C18965   8.717   9.152   4.730 -0.8717 -1.1850  0.5093
  141MOL0     C18966   9.405   8.936   4.977  0.1071 -0.4790 -0.1741
  141MOL0     C18967   9.534   8.970   5.013  0.4223 -0.0477 -0.6961
  141MOL0     H18968   9.878   9.038   5.319  0.2707 -1.6415 -0.7410
  141MOL0     H18969  10.087   9.086   5.410 -0.1305  1.7664  0.0694
  141MOL0     H18970  10.275   9.283   5.422 -0.3821  0.3510 -1.9078
  141MOL0     H18971  10.319   9.112   5.458  4.4852 -1.0568 -1.0099
  141MOL0     H18972  10.491   9.251   5.528 -0.2799  0.9167  0.2416
  141MOL0     H18973  10.539   9.156   5.385 -0.2054  0.7015 -1.6420
  141MOL0     H18974  10.527   9.331   5.242 -0.0149 -0.0884  1.0805
  141MOL0     H18975  10.442   9.446   5.337  0.0830  0.0195 -4.2456
  141MOL0     H18976  10.662   9.529   5.341  2.3271 -1.0172 -2.8967
  141MOL0     H18977  10.646   9.445   5.501  0.3111 -0.0455  0.0526
  141MOL0     H18978  10.783   9.263   5.440  2.5628 -1.9900 -1.5844
  141MOL0     H18979  10.744   9.289   5.268 -3.1720 -3.6295  2.4592
  141MOL0     H18980  10.917   9.501   5.286  3.2215  2.9689  3.0596
  141MOL0     H18981  10.905   9.455   5.468 -0.4698  2.0426  0.4830
  141MOL0     H18982  11.032   9.245   5.393 -0.6704  0.7772  1.7379
  141MOL0     H18983  11.077   9.328   5.238  0.5755  0.6952  0.5632
  141MOL0     H18984  11.167   9.510   5.407  3.5747 -0.7088  0.8964
  141MOL0     H18985  11.263   9.368   5.385  1.1904  0.7497  0.0606
  141MOL0     H18986  11.158   9.146   5.574 -0.2569 -1.1617  0.7858
  141MOL0     H18987  10.940   9.118   5.794  0.6786 -2.5437 -0.9406
  141MOL0     H18988  11.107   9.074   5.867 -1.9076 -1.6513  0.5698
  141MOL0     H18989  10.909   9.282   5.952 -1.0962 -1.7237 -0.6928
  141MOL0     H18990  11.077   9.255   6.013  0.6209  3.6384 -2.8842
  141MOL0     H18991  11.012   9.039   6.112 -0.7692  1.6268  1.1257
  141MOL0     H18992  10.859   9.041   6.020 -0.6388 -0.6778  1.3455
  141MOL0     H18993  10.908   9.251   6.229 -1.3077  2.0639 -3.6648
  141MOL0     H18994  10.862   9.087   6.283  0.9782  2.6230  2.6509
  141MOL0     H18995  10.629   9.438   6.202  1.0990  0.4066  1.2224
  141MOL0     H18996  10.445   9.572   6.279  1.2156 -3.2722 -1.4725
  141MOL0     H18997  10.471   9.614   6.460  0.6241  1.8642 -1.1996
  141MOL0     H18998  10.601   9.620   6.354  0.1507 -0.0692  3.8251
  141MOL0     H18999  10.143   9.464   6.705 -0.2199 -3.6241 -1.5215
  141MOL0     H19000  10.037   9.506   6.939 -1.3096 -0.4470 -2.2675
  141MOL0     H19001  10.078   9.499   7.197  1.8405 -2.4035  1.1141
  141MOL0     H19002   9.920   9.470   7.116  0.1486 -1.6026 -0.8486
  141MOL0     H19003  10.007   9.398   7.409 -0.1870  2.1722  1.0003
  141MOL0     H19004   9.879   9.495   7.345  0.5300  1.2583 -5.8740
  141MOL0     H19005   9.874   9.197   7.328 -1.1969 -0.3439  2.7471
  141MOL0     H19006   9.762   9.312   7.245 -0.5804  2.4228 -0.2357
  141MOL0     H19007   9.824   9.267   7.546 -1.9125  1.7922  0.2895
  141MOL0     H19008   9.686   9.367   7.488 -1.3793 -0.6000  2.3060
  141MOL0     H19009   9.609   9.161   7.370  0.8879 -0.7220 -0.0771
  141MOL0     H19010   9.566   9.182   7.531 -0.0568  0.7474 -0.5792
  141MOL0     H19011   9.652   8.953   7.505 -2.6647  0.7768  0.1568
  141MOL0     H19012   9.814   9.027   7.470 -0.0950 -1.1095  0.8039
  141MOL0     H19013   9.636   9.031   7.733 -0.3823  0.5007 -1.6491
  141MOL0     H19014   9.783   9.132   7.725 -1.4225  2.4874 -0.9047
  141MOL0     H19015   9.800   8.843   7.649  0.0895 -1.2276  1.6558
  141MOL0     H19016   9.779   8.886   7.824  2.6762  0.6909  0.8339
  141MOL0     H19017  10.159   9.111   7.052 -1.5868 -1.3688  0.2337
  141MOL0     H19018  10.300   9.099   6.844  2.2993 -0.4294  0.6017
  141MOL0     H19019  10.500   9.126   6.549 -1.6583  1.9601  1.2009
  141MOL0     H19020  10.629   9.038   6.372 -1.1982 -0.1621 -1.8470
  141MOL0     H19021  10.223   9.242   5.033  1.2343 -0.9280  0.3826
  141MOL0     H19022   9.996   9.215   4.947  0.6270 -1.5780 -0.9509
  141MOL0     H19023   9.685   9.001   4.718 -3.0002  2.7561 -1.6248
  141MOL0     H19024   9.450   8.965   4.644 -1.3969  1.3793  0.5709
  141MOL0     H19025   9.159   8.765   4.866  5.6177  0.3183  2.9038
  141MOL0     H19026   9.160   8.925   4.952  1.3179 -0.2450 -0.7717
  141MOL0     H19027   9.020   8.862   4.700  3.3972  0.2972 -0.7801
  141MOL0     H19028   9.031   9.032   4.754 -0.8996 -0.4420 -1.7846
  141MOL0     H19029   8.922   8.989   4.967 -4.3079 -0.6522  2.0447
  141MOL0     H19030   8.926   8.815   4.932  0.1757  1.8831  3.3372
  141MOL0     H19031   8.693   8.886   4.917  0.4570  0.8616  1.5774
  141MOL0     H19032   8.746   8.846   4.749  0.0326 -1.3627  0.9599
  141MOL0     H19033   8.695   9.248   4.687  0.9786 -0.2795  1.4470
  141MOL0     H19034   9.329   8.904   5.047  2.3631 -1.9293  1.7799
  141MOL0     H19035   9.558   8.972   5.119 -3.0944 -0.1279  0.2025
  142MOL0     O19036   9.116   3.198  10.956 -0.7536 -0.3147  0.0209
  142MOL0     C19037   9.234   3.171  10.923  0.0159 -0.3693  0.1625
  142MOL0     O19038   9.277   3.055  10.872  0.0784 -0.5306 -0.8428
  142MOL0     C19039   9.191   2.952  10.849 -0.2455  0.3667 -1.0898
  142MOL0     C19040   9.077   2.971  10.770 -0.8519 -0.4420  0.6859
  142MOL0     C19041   8.987   2.861  10.751  0.7012  1.3415  0.3008
  142MOL0     C19042   9.028   2.732  10.789  0.4193 -0.9049  0.6015
  142MOL0     O19043   8.957   2.618  10.778 -0.1014  0.4109 -0.0948
  142MOL0     C19044   8.816   2.620  10.744 -0.4775 -0.4486 -0.0575
  142MOL0     C19045   8.737   2.651  10.867 -0.0789 -0.7937  0.0982
  142MOL0     C19046   8.769   2.568  10.986  0.7724 -1.0173  0.5777
  142MOL0     C19047   8.749   2.408  10.981  0.3242  0.3034  0.5208
  142MOL0     C19048   8.784   2.343  11.121 -0.7791  0.9859 -0.1496
  142MOL0     C19049   8.675   2.365  11.219  0.2771  0.0654  0.3177
  142MOL0     C19050   8.687   2.286  11.346  0.4745  0.8546 -0.4489
  142MOL0     C19051   8.786   2.337  11.457  0.5738 -0.1242 -0.7421
  142MOL0     N19052   8.817   2.227  11.548 -0.6976 -0.9945 -0.2962
  142MOL0     C19053   8.928   2.143  11.538  0.4384  0.1486  1.1092
  142MOL0     C19054   8.895   2.046  11.623  0.2514 -1.1961 -0.3910
  142MOL0     C19055   8.988   1.933  11.639  0.2606 -0.3580 -0.5621
  142MOL0     C19056   9.087   1.939  11.772 -0.4637  1.7709 -0.2052
  142MOL0     C19057   9.112   1.801  11.847 -0.7014 -0.4549  0.1518
  142MOL0     C19058   9.191   1.823  11.982 -0.2869 -1.3567 -0.9361
  142MOL0     O19059   9.179   1.701  12.061 -0.7592 -1.1546  0.3458
  142MOL0     C19060   9.181   1.720  12.192 -0.3574 -0.3318  0.5082
  142MOL0     C19061   9.110   1.625  12.267 -0.1460  0.6964  0.2381
  142MOL0     C19062   9.111   1.614  12.406  0.0605 -0.8224 -1.1332
  142MOL0     C19063   9.028   1.512  12.472 -0.7461  0.9589  0.1102
  142MOL0     C19064   9.185   1.711  12.475  0.4529 -0.0071 -0.1663
  142MOL0     C19065   9.183   1.728  12.628  0.2810  0.3190  0.8971
  142MOL0     O19066   9.270   1.823  12.683 -1.4706  0.9092 -0.1658
  142MOL0     C19067   9.249   1.845  12.819  0.4324  0.5216  0.8106
  142MOL0     C19068   9.143   1.930  12.843 -0.7924 -0.3334  0.2777
  142MOL0     C19069   9.109   1.961  12.972  0.5159 -0.2140  0.2682
  142MOL0     C19070   9.187   1.918  13.082 -1.2831  0.1455  0.3376
  142MOL0     O19071   9.165   1.956  13.209  0.0519 -0.2336 -0.4764
  142MOL0     C19072   9.048   2.031  13.248 -0.6429  0.9438 -0.1460
  142MOL0     C19073   9.030   2.033  13.405  0.9404  0.5072  0.1906
  142MOL0     C19074   8.915   2.122  13.453  0.2786 -0.7833 -0.0337
  142MOL0     C19075   8.919   2.138  13.606  0.5973 -0.3131  0.7300
  142MOL0     C19076   8.814   2.232  13.660 -0.9429  0.5201 -0.3379
  142MOL0     C19077   8.805   2.243  13.814 -0.2468  0.0139 -0.3575
  142MOL0     C19078   8.666   2.280  13.873  0.3386 -0.8479 -0.3200
  142MOL0     C19079   8.662   2.389  13.980  0.0942 -0.6829 -0.1723
  142MOL0    Cl19080   8.674   2.552  13.914  0.0759 -0.5849  0.3876
  142MOL0     C19081   9.295   1.829  13.062  0.2019  0.1909  0.3639
  142MOL0     C19082   9.316   1.788  12.931 -0.4876 -0.2656 -0.1611
  142MOL0     O19083   9.110   1.654  12.694 -0.0645 -0.8288 -0.5029
  142MOL0     C19084   9.268   1.807  12.400  0.4851 -0.2650  0.7230
  142MOL0     C19085   9.259   1.807  12.263 -1.4169 -0.0945  0.1617
  142MOL0     N19086   8.774   2.072  11.691  1.8314  0.2264 -0.3345
  142MOL0     N19087   8.729   2.182  11.642 -1.0624 -0.5219  0.0710
  142MOL0     C19088   9.157   2.724  10.856  0.3965  0.5538 -0.6875
  142MOL0     C19089   9.243   2.826  10.890  0.5349 -0.8382  0.0806
  142MOL0     C19090   9.330   3.285  10.945 -0.6234 -0.2204  0.0716
  142MOL0     C19091   9.464   3.256  10.920  1.1699 -0.2925 -0.3338
  142MOL0     C19092   9.567   3.348  10.945  1.0163  0.8255  0.0503
  142MOL0     C19093   9.535   3.479  10.991  0.0808 -0.0520  0.2107
  142MOL0     O19094   9.623   3.585  11.029 -0.2109 -0.4656  0.0929
  142MOL0     C19095   9.760   3.553  11.033 -0.9034 -0.4759 -0.1546
  142MOL0     C19096   9.848   3.672  11.061 -0.4226  0.3046 -0.6541
  142MOL0     C19097   9.830   3.777  10.962 -0.1398 -0.0372 -0.0091
  142MOL0     C19098   9.929   3.893  10.990  0.7103  0.5292 -0.6914
  142MOL0     C19099   9.864   4.023  11.007  0.1082  0.1109  0.7205
  142MOL0     C19100   9.825   4.139  11.015  0.2245 -0.3004  0.7881
  142MOL0     C19101   9.398   3.509  11.011 -0.0483  0.0540 -0.4279
  142MOL0     C19102   9.295   3.416  10.982  0.4633 -0.1973 -0.1321
  142MOL0     H19103   9.050   3.071  10.737  0.8695  0.0347  0.5941
  142MOL0     H19104   8.890   2.875  10.704 -0.3698 -1.0993  1.6430
  142MOL0     H19105   8.800   2.683  10.655  4.2324  3.0102  1.0856
  142MOL0     H19106   8.791   2.517  10.719  2.1518 -1.1765  0.0381
  142MOL0     H19107   8.776   2.747  10.904 -1.9479 -0.8375  2.4672
  142MOL0     H19108   8.629   2.661  10.851 -0.1729  0.7011  1.3803
  142MOL0     H19109   8.872   2.596  11.007  0.2826  3.4710 -1.8316
  142MOL0     H19110   8.701   2.608  11.062 -3.3408 -3.7318 -1.2964
  142MOL0     H19111   8.648   2.388  10.943 -0.7661  2.5486  2.0244
  142MOL0     H19112   8.810   2.356  10.907 -0.8880 -0.0641 -0.2460
  142MOL0     H19113   8.799   2.235  11.111  0.7560  1.1866 -0.2981
  142MOL0     H19114   8.877   2.389  11.154 -1.5177  2.0336  0.5379
  142MOL0     H19115   8.673   2.470  11.249 -0.9004  0.5317 -1.2621
  142MOL0     H19116   8.580   2.339  11.171  2.3592 -2.2519 -2.9737
  142MOL0     H19117   8.591   2.288  11.398  2.3484 -0.3250  3.3521
  142MOL0     H19118   8.709   2.180  11.331 -1.5543  0.5340 -1.4449
  142MOL0     H19119   8.751   2.430  11.503  0.2851  0.3624 -1.9168
  142MOL0     H19120   8.879   2.369  11.410  2.9602 -0.8103  3.0569
  142MOL0     H19121   9.006   2.136  11.463  1.7431  0.6187  2.3693
  142MOL0     H19122   8.931   1.840  11.636 -1.9721  0.9386 -0.7503
  142MOL0     H19123   9.044   1.932  11.546  0.3127  0.9164 -0.5615
  142MOL0     H19124   9.040   2.001  11.849  1.7995  1.6446  1.3694
  142MOL0     H19125   9.183   1.986  11.751  0.1991  1.1086  1.2028
  142MOL0     H19126   9.169   1.740  11.777  0.2405  0.3783  0.1599
  142MOL0     H19127   9.016   1.757  11.874 -0.1501  0.3255  3.9386
  142MOL0     H19128   9.162   1.909  12.044 -0.5285 -2.5311  0.6478
  142MOL0     H19129   9.297   1.831  11.960 -0.5335  0.7630 -1.5351
  142MOL0     H19130   9.077   1.545  12.201  2.1275  0.9173 -1.2689
  142MOL0     H19131   9.019   1.425  12.406  4.6508 -1.9663  2.5247
  142MOL0     H19132   9.083   1.459  12.550 -0.0705 -1.0562 -1.6388
  142MOL0     H19133   8.941   1.558  12.521 -0.6260 -1.9671  3.4552
  142MOL0     H19134   9.083   1.974  12.764 -1.3792  0.0207  0.9080
  142MOL0     H19135   9.024   2.027  12.983  0.1753 -0.7466  0.9248
  142MOL0     H19136   9.063   2.134  13.216 -0.6264  2.1290  3.3351
  142MOL0     H19137   8.968   1.978  13.195  2.9404 -4.1019 -1.2950
  142MOL0     H19138   9.026   1.927  13.432  1.0196  0.9452  1.9968
  142MOL0     H19139   9.122   2.070  13.451 -0.4958  1.2360  2.6483
  142MOL0     H19140   8.822   2.072  13.424 -1.3602 -0.5401  4.1993
  142MOL0     H19141   8.924   2.215  13.397  3.2493 -1.6314 -1.1509
  142MOL0     H19142   8.907   2.035  13.642  3.0488 -1.6670 -1.9046
  142MOL0     H19143   9.019   2.173  13.632  0.4616 -0.1028  0.9748
  142MOL0     H19144   8.716   2.206  13.619 -2.6592  0.3224  3.3925
  142MOL0     H19145   8.836   2.334  13.629  0.7332 -1.0016 -4.9158
  142MOL0     H19146   8.820   2.141  13.849 -0.5826 -0.7075 -2.1808
  142MOL0     H19147   8.880   2.305  13.862 -1.5281  0.3549  1.3178
  142MOL0     H19148   8.615   2.192  13.915 -2.3763  0.6146 -0.3473
  142MOL0     H19149   8.607   2.329  13.796 -1.4808  0.0955  1.5578
  142MOL0     H19150   8.724   2.358  14.065  0.9649 -0.7779 -0.8211
  142MOL0     H19151   8.571   2.404  14.039  1.3359 -1.0253  1.9633
  142MOL0     H19152   9.358   1.781  13.137  2.8455  1.8700 -0.6085
  142MOL0     H19153   9.405   1.728  12.912  0.5138  0.0720  2.7725
  142MOL0     H19154   9.333   1.880  12.446  0.8751  0.3649 -0.7921
  142MOL0     H19155   9.326   1.872  12.207 -1.6603  0.0267  0.0090
  142MOL0     H19156   9.195   2.625  10.874  1.9342  0.6570 -2.9328
  142MOL0     H19157   9.341   2.821  10.934  0.5649  0.3793  0.1772
  142MOL0     H19158   9.498   3.161  10.880  1.2510 -0.0155 -0.9258
  142MOL0     H19159   9.666   3.304  10.933  0.1998 -1.2278  0.3368
  142MOL0     H19160   9.773   3.475  11.109  1.0756  1.4996  1.6623
  142MOL0     H19161   9.799   3.520  10.936  1.2497  2.8647 -0.6121
  142MOL0     H19162   9.954   3.644  11.065 -0.7388 -0.8123  0.6786
  142MOL0     H19163   9.811   3.699  11.161 -0.1175  0.6165 -0.6243
  142MOL0     H19164   9.729   3.818  10.961  0.6563  2.0587 -1.3339
  142MOL0     H19165   9.851   3.733  10.864 -0.3722  3.6447 -1.8558
  142MOL0     H19166  10.000   3.900  10.907  2.6007  2.0482  0.9697
  142MOL0     H19167   9.994   3.888  11.077  2.3134 -0.2718 -1.8834
  142MOL0     H19168   9.776   4.234  11.013 -1.2625 -1.0430 -0.9638
  142MOL0     H19169   9.380   3.605  11.058  0.9242  0.8127 -1.5606
  142MOL0     H19170   9.192   3.448  10.992  0.7436  1.0454 -0.9185
  143MOL0     O19171   0.867   1.774   4.601  0.7366  0.2209 -0.7388
  143MOL0     C19172   0.831   1.831   4.704 -0.4353 -0.6979 -0.0240
  143MOL0     O19173   0.743   1.783   4.795 -0.4581 -0.7206  0.4039
  143MOL0     C19174   0.654   1.703   4.737  0.9984  0.1576 -0.4987
  143MOL0     C19175   0.675   1.572   4.764 -1.1495  0.4238  0.0326
  143MOL0     C19176   0.582   1.474   4.708 -0.6811 -0.7755 -0.3100
  143MOL0     C19177   0.467   1.514   4.642  0.4666 -0.4134  0.2810
  143MOL0     O19178   0.370   1.437   4.582  0.0480 -0.5339  0.3601
  143MOL0     C19179   0.361   1.295   4.616  0.4013  0.2450 -0.1907
  143MOL0     C19180   0.253   1.226   4.543  0.9664 -0.7422  0.3159
  143MOL0     C19181   0.261   1.242   4.393  0.5487  0.0741  0.2835
  143MOL0     C19182   0.124   1.215   4.316  0.1507  0.5282  0.4231
  143MOL0     C19183   0.143   1.259   4.169 -0.3399  0.0077  0.5242
  143MOL0     C19184   0.008   1.288   4.102 -0.0061 -0.7217 -0.1339
  143MOL0     C19185   0.018   1.279   3.951 -0.5904 -0.7259  0.9407
  143MOL0     C19186  -0.110   1.307   3.871  0.6680  0.2399  0.8592
  143MOL0     N19187  -0.222   1.229   3.908  0.7229 -0.0237 -0.1945
  143MOL0     C19188  -0.308   1.254   4.013 -0.0030  0.4705 -0.5087
  143MOL0     C19189  -0.415   1.166   3.983 -0.0515  0.4496 -1.7591
  143MOL0     C19190  -0.547   1.168   4.067  0.4680  0.5814 -0.1117
  143MOL0     C19191  -0.663   1.077   3.999  0.2487  0.9846  0.5424
  143MOL0     C19192  -0.745   1.006   4.097  1.0672  0.8814 -1.2390
  143MOL0     C19193  -0.874   0.930   4.053 -0.1466 -0.3014 -0.4763
  143MOL0     O19194  -0.921   0.842   4.153  0.2007 -0.0138 -0.9059
  143MOL0     C19195  -1.012   0.875   4.247 -0.7975  0.5647 -0.1975
  143MOL0     C19196  -1.071   0.999   4.260  0.7692  0.5409  1.0754
  143MOL0     C19197  -1.170   1.035   4.345 -0.3432 -0.1246 -0.1834
  143MOL0     C19198  -1.220   1.172   4.341  0.5017  0.1934  0.5718
  143MOL0     C19199  -1.213   0.933   4.432  0.1410  0.3194  0.0209
  143MOL0     C19200  -1.318   0.947   4.536 -0.1903  0.0549 -1.2842
  143MOL0     O19201  -1.310   1.057   4.614  0.4892 -0.5108  0.5537
  143MOL0     C19202  -1.410   1.086   4.704  0.0428  0.2625 -0.0419
  143MOL0     C19203  -1.414   1.011   4.824  0.4183  0.6106 -0.1864
  143MOL0     C19204  -1.512   1.025   4.916  0.0829 -0.2029  0.0351
  143MOL0     C19205  -1.615   1.124   4.893 -1.0034  0.9918 -0.3001
  143MOL0     O19206  -1.720   1.112   4.980  1.0296 -0.3620  0.0319
  143MOL0     C19207  -1.699   1.096   5.125  0.1224 -0.3896 -0.6097
  143MOL0     C19208  -1.662   1.236   5.174  1.1291  0.5112 -0.6417
  143MOL0     C19209  -1.769   1.353   5.147 -0.3363  0.5759  0.1286
  143MOL0     C19210  -1.907   1.318   5.207 -0.0925 -0.3614 -0.4999
  143MOL0     C19211  -2.006   1.441   5.185 -1.0311 -0.1318 -0.4748
  143MOL0     C19212  -2.155   1.420   5.207 -0.2284  0.1637  0.3485
  143MOL0     C19213  -2.198   1.446   5.356 -0.0399 -0.8573 -0.1186
  143MOL0     C19214  -2.179   1.595   5.394  0.8732 -0.0972 -0.0283
  143MOL0    Cl19215  -2.252   1.631   5.547  0.0649  0.0062  0.0026
  143MOL0     C19216  -1.608   1.199   4.775  0.0694  0.7686  0.1171
  143MOL0     C19217  -1.506   1.172   4.686 -0.4841  0.3458  0.5134
  143MOL0     O19218  -1.405   0.857   4.551  0.7085  0.1002 -0.2838
  143MOL0     C19219  -1.153   0.807   4.429 -1.5725  0.3119 -0.6934
  143MOL0     C19220  -1.053   0.782   4.332  0.8358  1.1358 -0.0827
  143MOL0     N19221  -0.395   1.102   3.864  0.0923 -0.6012 -0.3238
  143MOL0     N19222  -0.278   1.135   3.823 -0.4282 -0.6881  0.8070
  143MOL0     C19223   0.452   1.647   4.612  0.9828 -0.0637 -0.1686
  143MOL0     C19224   0.545   1.735   4.663 -0.2295 -0.4180 -0.4675
  143MOL0     C19225   0.898   1.964   4.735  0.4980  0.0173  0.1875
  143MOL0     C19226   0.826   2.053   4.817  0.1254 -0.9394 -0.7143
  143MOL0     C19227   0.878   2.183   4.851  0.6536 -0.3731 -0.4878
  143MOL0     C19228   0.998   2.224   4.799 -0.6031 -0.2867 -0.0280
  143MOL0     O19229   1.060   2.341   4.826  0.1697 -0.3944  0.1763
  143MOL0     C19230   1.002   2.426   4.925 -0.9536 -0.4745 -0.6938
  143MOL0     C19231   0.883   2.500   4.878 -0.1077  0.2386  0.8366
  143MOL0     C19232   0.811   2.611   4.969 -0.5386 -0.2220 -0.8477
  143MOL0     C19233   0.700   2.671   4.881  0.7604  0.4435  0.5214
  143MOL0     C19234   0.619   2.761   4.966 -0.4158  0.0776 -0.0377
  143MOL0     C19235   0.549   2.821   5.045 -0.3385  0.3182 -0.1979
  143MOL0     C19236   1.066   2.145   4.703  0.7000  0.3927 -0.4048
  143MOL0     C19237   1.015   2.013   4.680 -1.3301 -0.6472  1.7624
  143MOL0     H19238   0.767   1.541   4.813 -1.0210 -1.7697 -1.4552
  143MOL0     H19239   0.602   1.370   4.732 -0.0687 -0.5757  0.0608
  143MOL0     H19240   0.457   1.249   4.591 -0.6938 -0.1610 -4.3226
  143MOL0     H19241   0.347   1.277   4.723  0.2022  0.2402 -0.2169
  143MOL0     H19242   0.259   1.120   4.569  1.5787  0.0423  3.9423
  143MOL0     H19243   0.163   1.268   4.587  0.9557  0.8938 -1.1627
  143MOL0     H19244   0.282   1.347   4.369  3.1753 -0.1602  1.2003
  143MOL0     H19245   0.342   1.182   4.350  1.1720  1.3556 -0.3950
  143MOL0     H19246   0.099   1.108   4.321 -3.1325  1.2574  2.0581
  143MOL0     H19247   0.038   1.263   4.363  0.9009  0.8191  1.5289
  143MOL0     H19248   0.208   1.345   4.154 -0.7096  0.1113 -0.6203
  143MOL0     H19249   0.195   1.184   4.108 -2.7341 -1.1470 -0.2347
  143MOL0     H19250  -0.063   1.216   4.143  1.5646 -1.4228  1.5636
  143MOL0     H19251  -0.022   1.388   4.133 -2.0723 -1.1857 -0.5072
  143MOL0     H19252   0.096   1.346   3.914 -0.2134 -1.1708  0.9155
  143MOL0     H19253   0.042   1.173   3.938 -3.3884 -1.8182  3.4703
  143MOL0     H19254  -0.097   1.289   3.764  0.1931  1.5345  0.5553
  143MOL0     H19255  -0.135   1.414   3.877  0.7716  0.4929 -1.8796
  143MOL0     H19256  -0.310   1.315   4.102 -1.3571 -0.7414  0.3388
  143MOL0     H19257  -0.544   1.143   4.174 -0.6836  2.9878  0.5567
  143MOL0     H19258  -0.561   1.276   4.073  0.3785  0.5034  3.5904
  143MOL0     H19259  -0.630   1.001   3.927 -0.3247  1.1742  0.0743
  143MOL0     H19260  -0.732   1.152   3.960  0.7359  1.5907  0.8452
  143MOL0     H19261  -0.772   1.082   4.171 -0.7286  0.3459 -1.3143
  143MOL0     H19262  -0.678   0.933   4.143  2.6845  4.2305  2.3341
  143MOL0     H19263  -0.845   0.876   3.962  0.5935  2.0188 -1.7266
  143MOL0     H19264  -0.955   0.993   4.014 -0.2215 -0.9235 -1.3636
  143MOL0     H19265  -1.057   1.076   4.185 -1.3527  2.4531  2.4958
  143MOL0     H19266  -1.168   1.242   4.407  1.5952 -0.5721  0.5490
  143MOL0     H19267  -1.197   1.201   4.238 -1.0320 -3.3590 -0.9470
  143MOL0     H19268  -1.328   1.169   4.356  0.4633 -0.8477  0.2026
  143MOL0     H19269  -1.334   0.938   4.832 -2.1331 -2.3305  0.5401
  143MOL0     H19270  -1.503   0.960   5.002 -3.9216  0.4739  1.1423
  143MOL0     H19271  -1.787   1.058   5.178  0.5319 -0.2299  0.2126
  143MOL0     H19272  -1.612   1.034   5.151  3.5005  2.1262 -4.6336
  143MOL0     H19273  -1.632   1.234   5.280  0.7332 -1.1277 -0.5229
  143MOL0     H19274  -1.572   1.264   5.119  1.8305 -0.3870  0.0022
  143MOL0     H19275  -1.783   1.371   5.040  0.0831  3.5566  0.4715
  143MOL0     H19276  -1.741   1.446   5.198 -0.4364 -0.2125  1.6762
  143MOL0     H19277  -1.956   1.241   5.147 -1.9427  0.8898 -0.6917
  143MOL0     H19278  -1.901   1.288   5.311  1.9492  1.0296 -0.1650
  143MOL0     H19279  -1.990   1.470   5.081 -0.0823  0.1991 -0.2464
  143MOL0     H19280  -1.960   1.520   5.246  0.3749 -2.7300  2.0777
  143MOL0     H19281  -2.205   1.494   5.143  1.4702  3.5746  2.6420
  143MOL0     H19282  -2.194   1.329   5.161  1.4190 -1.5558  2.2018
  143MOL0     H19283  -2.145   1.380   5.425  2.0171  0.1144 -0.6962
  143MOL0     H19284  -2.305   1.436   5.379 -0.5703  1.4503 -1.2292
  143MOL0     H19285  -2.221   1.658   5.315  0.6071 -1.7010 -1.2188
  143MOL0     H19286  -2.072   1.618   5.400  1.1082 -0.2015 -2.7300
  143MOL0     H19287  -1.687   1.272   4.764 -1.7974 -0.6479  2.8752
  143MOL0     H19288  -1.485   1.241   4.605 -0.7021 -1.5853 -1.2557
  143MOL0     H19289  -1.176   0.725   4.497  2.1789 -1.1100 -0.8958
  143MOL0     H19290  -0.994   0.692   4.319 -0.6468  0.1544 -0.3370
  143MOL0     H19291   0.375   1.671   4.539 -0.2727  1.3209  1.5235
  143MOL0     H19292   0.544   1.840   4.636 -1.6913 -0.4975 -0.8387
  143MOL0     H19293   0.743   2.015   4.876  0.4858  1.6231  1.6630
  143MOL0     H19294   0.817   2.231   4.927 -0.0214 -1.6695 -0.1800
  143MOL0     H19295   0.985   2.375   5.020  2.3937 -4.1749 -1.7846
  143MOL0     H19296   1.078   2.503   4.945 -1.0973 -0.4493 -0.2357
  143MOL0     H19297   0.819   2.418   4.844  1.3118 -0.6052  0.0880
  143MOL0     H19298   0.912   2.560   4.791 -2.6748  3.1061  1.8126
  143MOL0     H19299   0.878   2.694   4.993  0.2406 -1.5574  2.0059
  143MOL0     H19300   0.772   2.565   5.061 -1.1381 -1.2685 -1.5991
  143MOL0     H19301   0.625   2.601   4.842  2.7452 -1.4895 -0.0096
  143MOL0     H19302   0.751   2.734   4.807  4.5038 -2.5402  0.2450
  143MOL0     H19303   0.474   2.854   5.114 -0.5210 -0.8468  0.1888
  143MOL0     H19304   1.163   2.171   4.662  1.6478 -0.8322  0.9834
  143MOL0     H19305   1.079   1.952   4.618 -0.3772  1.5479  0.4643
  144MOL0     O19306   7.666   8.026   4.717  0.0027  1.0916 -0.4873
  144MOL0     C19307   7.695   8.139   4.683  0.0215  0.8802  0.5656
  144MOL0     O19308   7.801   8.209   4.719 -0.3322 -0.9626 -0.0409
  144MOL0     C19309   7.906   8.159   4.798 -0.6953 -0.2784 -1.1186
  144MOL0     C19310   7.882   8.072   4.911 -0.1291  0.3897 -0.0391
  144MOL0     C19311   7.985   8.017   4.988  0.3632 -0.5038 -0.3354
  144MOL0     C19312   8.113   8.040   4.939 -0.0682 -0.7943 -0.9393
  144MOL0     O19313   8.225   7.991   5.004 -0.8148  0.0843 -0.4818
  144MOL0     C19314   8.214   7.891   5.102 -0.0370 -0.3552  0.2594
  144MOL0     C19315   8.190   7.954   5.241  0.7007 -0.1692 -1.6486
  144MOL0     C19316   8.327   8.023   5.295 -0.6820 -0.5651  0.2804
  144MOL0     C19317   8.315   8.060   5.441 -0.8903  0.0511  0.3505
  144MOL0     C19318   8.195   8.138   5.482 -0.4786 -1.2860 -0.3494
  144MOL0     C19319   8.089   8.063   5.555 -0.1666  0.7562  0.3653
  144MOL0     C19320   7.949   8.136   5.545 -0.0962 -0.1585  0.4911
  144MOL0     C19321   7.893   8.119   5.686 -0.3497  0.0885  0.2082
  144MOL0     N19322   7.927   8.237   5.775  0.0308 -0.0317  1.6356
  144MOL0     C19323   7.864   8.360   5.760 -0.5637  0.2510  1.6733
  144MOL0     C19324   7.915   8.431   5.861  0.5933 -0.7818  0.2164
  144MOL0     C19325   7.888   8.577   5.884 -0.2505 -0.9122 -0.3529
  144MOL0     C19326   8.020   8.654   5.886  0.2015 -0.3095 -0.5031
  144MOL0     C19327   8.001   8.797   5.945  0.0434  0.8084  0.8192
  144MOL0     C19328   8.014   8.803   6.095  0.0355 -0.2842  1.1336
  144MOL0     O19329   8.032   8.940   6.144 -0.0878  0.3789 -0.1194
  144MOL0     C19330   8.156   8.983   6.161 -1.1241 -0.0655  0.2191
  144MOL0     C19331   8.181   9.112   6.206  0.0967 -0.7521 -0.5052
  144MOL0     C19332   8.310   9.163   6.229  0.1411  0.5610  0.0966
  144MOL0     C19333   8.312   9.298   6.281  0.9437  0.5342  0.2298
  144MOL0     C19334   8.416   9.080   6.197  0.7478 -0.3408  0.2764
  144MOL0     C19335   8.564   9.122   6.206 -0.1189  0.2436 -0.8344
  144MOL0     O19336   8.649   9.017   6.233 -0.2245  0.3839 -0.2272
  144MOL0     C19337   8.785   9.027   6.202  0.3185  0.2220  0.1856
  144MOL0     C19338   8.857   9.115   6.116 -1.2048  0.4705 -0.0190
  144MOL0     C19339   8.991   9.075   6.063 -0.8424 -0.6189  0.3181
  144MOL0     C19340   9.053   8.971   6.128 -0.7985 -0.2128  0.1270
  144MOL0     O19341   9.171   8.915   6.089 -0.5888  0.0149 -0.8965
  144MOL0     C19342   9.252   8.970   5.986 -0.2495 -1.2616 -0.3658
  144MOL0     C19343   9.379   8.886   5.977 -0.9333  0.5037 -0.2983
  144MOL0     C19344   9.471   8.917   6.089  0.2369 -1.1960  0.4829
  144MOL0     C19345   9.605   8.844   6.063  0.1496  0.4605 -0.1849
  144MOL0     C19346   9.705   8.888   6.175 -1.1163  0.0195 -0.7118
  144MOL0     C19347   9.855   8.855   6.148 -0.2537  0.4295 -1.3878
  144MOL0     C19348   9.876   8.723   6.205  0.1812 -0.4085  0.1663
  144MOL0     C19349  10.016   8.693   6.238 -1.1978  0.0267  1.3941
  144MOL0    Cl19350  10.030   8.543   6.332 -0.0171  0.1756 -0.5605
  144MOL0     C19351   8.991   8.908   6.238 -0.4034  0.3849  1.1878
  144MOL0     C19352   8.852   8.927   6.266 -0.2227  0.2822  0.1528
  144MOL0     O19353   8.596   9.232   6.173 -0.1015 -0.9328  0.4123
  144MOL0     C19354   8.404   8.947   6.156 -0.1487  0.3268 -0.9395
  144MOL0     C19355   8.274   8.906   6.138 -0.2036  1.0123  0.3641
  144MOL0     N19356   8.004   8.358   5.931  0.0489 -0.0764  0.0904
  144MOL0     N19357   8.022   8.243   5.874 -0.2257  0.0518 -0.3408
  144MOL0     C19358   8.137   8.125   4.830 -0.4746 -0.5036 -0.4910
  144MOL0     C19359   8.033   8.182   4.767 -0.2594 -0.2277  0.5674
  144MOL0     C19360   7.612   8.198   4.574  0.5469  0.2130  0.4916
  144MOL0     C19361   7.540   8.127   4.483  0.3228  0.3301 -0.9985
  144MOL0     C19362   7.466   8.184   4.385  0.7133  0.2847 -0.4306
  144MOL0     C19363   7.464   8.317   4.364 -0.8781  0.4744 -0.0084
  144MOL0     O19364   7.385   8.359   4.253 -1.6600 -0.3232 -0.2186
  144MOL0     C19365   7.451   8.456   4.166 -0.0922 -0.5703 -0.7416
  144MOL0     C19366   7.370   8.437   4.036 -0.8747 -0.9878  0.4958
  144MOL0     C19367   7.478   8.465   3.923 -0.7517 -0.1940  0.0614
  144MOL0     C19368   7.415   8.491   3.786  0.8770 -0.4724 -0.6287
  144MOL0     C19369   7.371   8.360   3.727 -1.1660 -0.3249  0.0113
  144MOL0     C19370   7.349   8.252   3.675  0.1327 -0.9411 -0.2926
  144MOL0     C19371   7.536   8.402   4.457 -0.5305  0.0255  0.0161
  144MOL0     C19372   7.617   8.341   4.552  0.4287  0.2038  0.7607
  144MOL0     H19373   7.783   8.038   4.943  0.4051 -0.2300  1.0102
  144MOL0     H19374   7.963   7.965   5.080 -2.0328  1.4851  0.3316
  144MOL0     H19375   8.131   7.827   5.071 -0.2246  0.3844 -0.8605
  144MOL0     H19376   8.296   7.818   5.098 -1.4781 -2.0138  0.0956
  144MOL0     H19377   8.101   8.017   5.240 -0.1402 -1.3235 -2.8005
  144MOL0     H19378   8.162   7.875   5.311 -0.4095  1.1214 -0.5834
  144MOL0     H19379   8.417   7.963   5.281 -0.2645 -0.5862  2.6591
  144MOL0     H19380   8.344   8.114   5.237  0.3078 -1.8171 -1.4584
  144MOL0     H19381   8.330   7.974   5.507  2.5913  0.1984 -0.0635
  144MOL0     H19382   8.402   8.124   5.458 -2.3627  1.3086  4.1671
  144MOL0     H19383   8.223   8.223   5.545 -1.3672  0.0161 -1.6499
  144MOL0     H19384   8.138   8.190   5.404 -1.1430  2.9244  2.5978
  144MOL0     H19385   8.076   7.963   5.512 -0.0812  2.5756 -4.4056
  144MOL0     H19386   8.122   8.059   5.659  1.5794  2.5649 -0.0555
  144MOL0     H19387   7.949   8.239   5.507  0.6627 -0.2020  0.3605
  144MOL0     H19388   7.882   8.088   5.472 -1.2392 -0.5143  1.7310
  144MOL0     H19389   7.908   8.017   5.721 -4.0230 -0.6395  0.1370
  144MOL0     H19390   7.784   8.123   5.671 -0.0011  0.2489 -2.7186
  144MOL0     H19391   7.792   8.377   5.681 -0.1062 -0.3226  1.1255
  144MOL0     H19392   7.828   8.616   5.801 -0.7150 -0.6925  0.0851
  144MOL0     H19393   7.846   8.594   5.983  0.0913 -0.2250 -0.3187
  144MOL0     H19394   8.062   8.665   5.786  1.3517 -0.8028 -0.0874
  144MOL0     H19395   8.095   8.597   5.941 -0.0054 -3.2189 -2.9652
  144MOL0     H19396   7.898   8.827   5.923  0.4469  1.3170 -0.4994
  144MOL0     H19397   8.077   8.866   5.907  2.4345 -2.2277 -0.2421
  144MOL0     H19398   8.088   8.729   6.129 -0.2184 -0.9420  0.2722
  144MOL0     H19399   7.917   8.766   6.131 -3.2118  3.5448 -2.6200
  144MOL0     H19400   8.092   9.172   6.220 -0.7247 -1.9157 -0.6163
  144MOL0     H19401   8.217   9.353   6.286  0.5318 -0.1943  4.2032
  144MOL0     H19402   8.354   9.314   6.381  0.8807 -2.4160  0.8217
  144MOL0     H19403   8.377   9.350   6.211 -2.2996  1.9964 -1.9319
  144MOL0     H19404   8.811   9.200   6.067 -1.1761  0.4325 -0.1128
  144MOL0     H19405   9.036   9.117   5.974 -0.9780  0.2325  0.6403
  144MOL0     H19406   9.192   8.959   5.896 -0.4838  1.8901 -0.7126
  144MOL0     H19407   9.270   9.078   5.992 -2.8025 -0.7718 -0.5652
  144MOL0     H19408   9.358   8.779   5.988  0.8689  0.0559 -0.7820
  144MOL0     H19409   9.411   8.910   5.875 -3.7073  2.5521 -0.7995
  144MOL0     H19410   9.442   8.900   6.193  2.2659  0.8376  1.4843
  144MOL0     H19411   9.483   9.026   6.081 -0.7110 -0.7633  3.6013
  144MOL0     H19412   9.595   8.736   6.055 -1.5672  0.5872  0.0102
  144MOL0     H19413   9.653   8.881   5.971 -1.0982 -2.5420 -2.1875
  144MOL0     H19414   9.664   8.863   6.273  3.5740 -0.8190  1.2914
  144MOL0     H19415   9.707   8.997   6.168 -0.7200 -0.0791 -3.0181
  144MOL0     H19416   9.883   8.873   6.044  2.7072  0.4659 -0.6717
  144MOL0     H19417   9.919   8.918   6.212  0.0039  0.2615 -1.4796
  144MOL0     H19418   9.837   8.654   6.129  2.4378 -4.1047  2.0555
  144MOL0     H19419   9.818   8.701   6.295  0.8295  2.2063  1.3045
  144MOL0     H19420  10.072   8.778   6.275 -0.0252 -1.4443  3.1670
  144MOL0     H19421  10.059   8.666   6.141 -1.5606 -0.8009  1.4511
  144MOL0     H19422   9.047   8.837   6.298  1.4470 -0.4783 -1.3497
  144MOL0     H19423   8.810   8.840   6.317  0.5429 -0.8263 -1.0389
  144MOL0     H19424   8.488   8.880   6.140  0.4367  0.4850  1.1864
  144MOL0     H19425   8.268   8.808   6.092 -0.0719  2.1667 -2.2745
  144MOL0     H19426   8.239   8.148   4.800 -0.2082 -0.2777  0.5438
  144MOL0     H19427   8.048   8.254   4.687 -1.7863 -1.6654 -1.0941
  144MOL0     H19428   7.555   8.020   4.489  0.5833  0.3924 -0.5242
  144MOL0     H19429   7.417   8.111   4.322  1.8778 -0.1822 -0.8249
  144MOL0     H19430   7.429   8.552   4.214  0.6599 -0.6351 -0.2445
  144MOL0     H19431   7.558   8.437   4.152 -0.2207 -3.0536  1.0083
  144MOL0     H19432   7.286   8.507   4.027  0.7908  1.1694  1.0121
  144MOL0     H19433   7.324   8.339   4.025 -2.2915 -0.1792 -1.4363
  144MOL0     H19434   7.539   8.375   3.926 -1.6284 -0.8576 -0.9720
  144MOL0     H19435   7.537   8.554   3.947 -0.1258 -0.2105 -1.3201
  144MOL0     H19436   7.496   8.542   3.733  2.1965 -0.6443  1.1598
  144MOL0     H19437   7.331   8.555   3.813  2.9343  1.5972  1.1973
  144MOL0     H19438   7.339   8.168   3.610 -1.8525 -0.2643 -0.9348
  144MOL0     H19439   7.533   8.510   4.458  0.2714  0.0510  0.8503
  144MOL0     H19440   7.669   8.419   4.608  0.4938  0.1987  0.7073
  145MOL0     O19441   4.879   6.988   4.097  0.2395  0.6814  0.7014
  145MOL0     C19442   4.989   6.992   4.152 -0.1244 -1.1859  0.1292
  145MOL0     O19443   5.054   7.111   4.198 -0.7224 -0.4035  0.7328
  145MOL0     C19444   5.005   7.233   4.159 -1.0244  0.6983  0.3264
  145MOL0     C19445   5.036   7.265   4.027 -1.2349 -0.4572 -0.5252
  145MOL0     C19446   4.987   7.378   3.971  0.5903  0.1401  0.6030
  145MOL0     C19447   4.916   7.469   4.045 -0.0500 -0.2013  0.0224
  145MOL0     O19448   4.850   7.579   3.992 -0.5162 -0.2098 -0.2330
  145MOL0     C19449   4.932   7.645   3.893  1.1079  0.5011  0.3696
  145MOL0     C19450   4.862   7.774   3.825  1.1223 -0.2307 -0.9128
  145MOL0     C19451   4.729   7.736   3.756  0.0244 -0.6697  0.1996
  145MOL0     C19452   4.712   7.828   3.631 -0.6356 -0.4718 -0.6150
  145MOL0     C19453   4.771   7.757   3.508 -0.2695 -0.1880  0.3184
  145MOL0     C19454   4.770   7.847   3.376  1.0551 -0.5403  0.2863
  145MOL0     C19455   4.627   7.911   3.356 -0.2827 -0.2110 -0.0169
  145MOL0     C19456   4.594   7.948   3.211  0.6123 -0.3820  0.4428
  145MOL0     N19457   4.620   7.827   3.127 -0.1645 -1.7327  0.5343
  145MOL0     C19458   4.553   7.711   3.132  1.0030 -0.4413 -0.0201
  145MOL0     C19459   4.621   7.624   3.054 -0.6987 -0.0339 -0.4334
  145MOL0     C19460   4.604   7.479   3.036 -0.7037  0.0741  0.0193
  145MOL0     C19461   4.457   7.438   3.002 -0.4167  0.4114 -0.5313
  145MOL0     C19462   4.435   7.482   2.859  0.5653  0.6785  0.7352
  145MOL0     C19463   4.291   7.448   2.830 -0.4537  0.7194  0.1457
  145MOL0     O19464   4.286   7.349   2.729  0.6670  1.0773 -0.0708
  145MOL0     C19465   4.189   7.249   2.736  0.1086 -1.6403  0.8170
  145MOL0     C19466   4.219   7.126   2.682  0.1380  0.3680  0.0537
  145MOL0     C19467   4.142   7.012   2.712 -0.3152  0.0577 -0.3768
  145MOL0     C19468   4.221   6.881   2.687 -0.2843  0.1512 -0.8950
  145MOL0     C19469   4.016   7.030   2.778 -0.1604 -0.3418  0.4832
  145MOL0     C19470   3.917   6.917   2.795 -0.3577  1.4479 -0.9964
  145MOL0     O19471   3.800   6.951   2.865 -0.6459 -0.1024  0.4870
  145MOL0     C19472   3.722   6.851   2.915  0.4909  1.2526  0.1731
  145MOL0     C19473   3.723   6.819   3.052 -0.2750 -0.2504 -0.6251
  145MOL0     C19474   3.627   6.735   3.108  0.8660  0.5600 -0.3532
  145MOL0     C19475   3.542   6.660   3.016 -0.5087 -0.8241 -0.1781
  145MOL0     O19476   3.435   6.586   3.064 -0.0791  0.3154  0.5915
  145MOL0     C19477   3.337   6.674   3.119  1.2418 -0.0780  0.6141
  145MOL0     C19478   3.208   6.593   3.119 -0.5187  0.0014 -0.0418
  145MOL0     C19479   3.170   6.551   2.978  0.0877 -1.0898 -0.3542
  145MOL0     C19480   3.068   6.441   2.985  0.4371  0.0598 -0.0725
  145MOL0     C19481   3.003   6.442   2.849  0.5863 -0.1413 -0.3530
  145MOL0     C19482   2.928   6.307   2.840 -0.1549 -1.0536 -0.3356
  145MOL0     C19483   2.844   6.318   2.701  0.8683  0.4138 -0.4680
  145MOL0     C19484   2.719   6.223   2.693  0.3923 -0.0008 -0.7746
  145MOL0    Cl19485   2.762   6.063   2.742  0.1958  0.2635  0.4436
  145MOL0     C19486   3.554   6.683   2.875  0.0317 -0.2118 -0.0492
  145MOL0     C19487   3.636   6.784   2.831  0.7110 -0.9644  0.4076
  145MOL0     O19488   3.949   6.799   2.773 -0.3367  0.2705 -0.5613
  145MOL0     C19489   3.987   7.155   2.831  0.3115 -0.5505  0.3567
  145MOL0     C19490   4.076   7.265   2.813 -0.2461  0.2971 -0.0606
  145MOL0     N19491   4.724   7.689   3.009  0.6830  0.6482  0.7985
  145MOL0     N19492   4.725   7.811   3.051  0.3592  0.2420 -0.3231
  145MOL0     C19493   4.883   7.444   4.179 -0.3106  0.0815 -0.7306
  145MOL0     C19494   4.924   7.323   4.235  0.4801  0.7684  0.3625
  145MOL0     C19495   5.056   6.868   4.194 -0.1036 -0.1561 -0.4731
  145MOL0     C19496   5.201   6.861   4.225 -0.0696  0.3886 -1.4457
  145MOL0     C19497   5.251   6.739   4.272  0.1882  0.4749  0.9145
  145MOL0     C19498   5.170   6.620   4.269  1.1914 -0.3368 -0.1998
  145MOL0     O19499   5.212   6.489   4.265  0.1319  0.3189 -0.1539
  145MOL0     C19500   5.348   6.466   4.282 -0.3214  1.0608 -0.7551
  145MOL0     C19501   5.374   6.434   4.435  0.4743  0.3769  0.2040
  145MOL0     C19502   5.521   6.398   4.464 -0.2871  0.2707 -0.8869
  145MOL0     C19503   5.568   6.377   4.610 -0.2299  0.0902  0.5615
  145MOL0     C19504   5.514   6.248   4.651  0.1171  0.3190 -0.0448
  145MOL0     C19505   5.466   6.149   4.706 -0.9127  0.2496  0.3980
  145MOL0     C19506   5.035   6.640   4.247  0.1838 -0.3732 -0.5472
  145MOL0     C19507   4.973   6.762   4.224 -0.4992 -0.4677  0.4844
  145MOL0     H19508   5.095   7.205   3.958  1.6946  2.2995 -0.6412
  145MOL0     H19509   5.004   7.393   3.865 -0.4427 -4.0684 -0.3402
  145MOL0     H19510   5.028   7.685   3.928  1.0733 -0.2923  1.4597
  145MOL0     H19511   4.933   7.593   3.797 -3.4360 -0.4583  0.6392
  145MOL0     H19512   4.828   7.855   3.891  1.4957 -0.8163  0.0183
  145MOL0     H19513   4.936   7.820   3.759  0.8160  1.9146  0.1364
  145MOL0     H19514   4.721   7.635   3.716 -0.2613 -0.8574  0.7241
  145MOL0     H19515   4.642   7.756   3.818 -0.6007  0.4596 -0.9800
  145MOL0     H19516   4.603   7.833   3.627 -0.5897  1.4747 -0.1892
  145MOL0     H19517   4.765   7.923   3.640  0.5145 -1.2414  1.2297
  145MOL0     H19518   4.870   7.720   3.536 -0.3427  0.4037  1.4090
  145MOL0     H19519   4.700   7.674   3.497 -1.8086  1.3169 -1.6351
  145MOL0     H19520   4.840   7.927   3.401  0.6415 -0.1610  0.2395
  145MOL0     H19521   4.809   7.796   3.287  2.0350  0.3422  0.1922
  145MOL0     H19522   4.552   7.840   3.393 -2.0811  2.5104  1.9118
  145MOL0     H19523   4.625   7.992   3.428  1.2462 -0.7568  0.6858
  145MOL0     H19524   4.639   8.044   3.181 -0.6285  0.2215  0.4263
  145MOL0     H19525   4.488   7.978   3.211  1.7808  4.7280  0.0441
  145MOL0     H19526   4.456   7.699   3.178  0.7834  0.6699 -0.1695
  145MOL0     H19527   4.673   7.439   2.962  0.8761  2.6556 -0.0466
  145MOL0     H19528   4.626   7.431   3.132  0.5249 -0.2509 -0.4068
  145MOL0     H19529   4.384   7.483   3.069 -2.6454 -1.7101 -1.3935
  145MOL0     H19530   4.454   7.329   3.008  3.3859  0.1351 -0.9250
  145MOL0     H19531   4.509   7.436   2.793  1.1595  2.5031  0.0897
  145MOL0     H19532   4.447   7.590   2.854 -1.3351  1.0619  2.8941
  145MOL0     H19533   4.231   7.534   2.797 -1.6277 -0.5683 -1.2616
  145MOL0     H19534   4.240   7.419   2.923 -1.5135  1.9679 -0.0202
  145MOL0     H19535   4.306   7.123   2.617 -0.9327  0.5544 -1.4394
  145MOL0     H19536   4.326   6.906   2.707 -0.1703 -0.1708 -1.0787
  145MOL0     H19537   4.194   6.792   2.744 -1.4859  0.5064 -0.8854
  145MOL0     H19538   4.207   6.857   2.581 -0.3781  1.3493 -1.1673
  145MOL0     H19539   3.784   6.868   3.127 -1.5521  1.5928 -0.7339
  145MOL0     H19540   3.600   6.729   3.213  0.0110  1.4724 -0.5061
  145MOL0     H19541   3.354   6.709   3.222 -0.1923 -0.3497  0.9618
  145MOL0     H19542   3.307   6.760   3.059 -0.8154  0.7960  2.7373
  145MOL0     H19543   3.237   6.506   3.179  0.9869  0.8189  0.4808
  145MOL0     H19544   3.132   6.657   3.164 -0.0999 -0.9654  2.1740
  145MOL0     H19545   3.258   6.517   2.922  1.6934 -0.0394  1.4022
  145MOL0     H19546   3.121   6.640   2.938  1.3855  0.7151  1.8383
  145MOL0     H19547   3.117   6.343   2.995  3.2330  1.1163 -2.1579
  145MOL0     H19548   3.003   6.461   3.071  2.4521 -0.8532  1.7624
  145MOL0     H19549   3.072   6.455   2.766 -0.4393 -2.4596 -1.6678
  145MOL0     H19550   2.936   6.528   2.853  1.3291  0.4810 -1.0918
  145MOL0     H19551   2.996   6.221   2.839  1.0724 -0.1184 -0.5705
  145MOL0     H19552   2.850   6.315   2.916 -1.0191  1.6253 -1.3811
  145MOL0     H19553   2.911   6.304   2.615  0.5507 -1.2098 -0.4834
  145MOL0     H19554   2.821   6.425   2.693  2.9861  0.8101 -2.3541
  145MOL0     H19555   2.662   6.220   2.600 -0.6494 -0.4408 -0.1359
  145MOL0     H19556   2.647   6.265   2.764  2.5300  1.2105  0.7922
  145MOL0     H19557   3.492   6.617   2.815 -1.0477 -3.4479  4.0813
  145MOL0     H19558   3.655   6.827   2.733 -1.5330 -1.9615 -0.5234
  145MOL0     H19559   3.911   7.171   2.907  0.5047 -1.0583  0.6570
  145MOL0     H19560   4.047   7.356   2.864 -0.8426 -0.9496  1.9452
  145MOL0     H19561   4.823   7.519   4.230  1.0016 -0.5857  1.9847
  145MOL0     H19562   4.898   7.280   4.331 -1.9201 -0.5703 -0.7827
  145MOL0     H19563   5.278   6.936   4.214  1.6639 -0.1820  3.8436
  145MOL0     H19564   5.356   6.745   4.299  0.4849  2.3683 -0.4945
  145MOL0     H19565   5.373   6.380   4.219  1.6694  1.6373 -0.8305
  145MOL0     H19566   5.415   6.544   4.244  1.1468  0.5505  0.6801
  145MOL0     H19567   5.308   6.350   4.455  0.4084 -0.7070 -3.7865
  145MOL0     H19568   5.332   6.520   4.489 -2.6010 -0.4919 -0.6133
  145MOL0     H19569   5.582   6.481   4.428 -0.6052  1.2467  0.7167
  145MOL0     H19570   5.542   6.304   4.412  1.0311  0.5243 -0.8273
  145MOL0     H19571   5.528   6.454   4.677 -2.7871 -1.2664  0.6882
  145MOL0     H19572   5.676   6.361   4.617 -0.6727 -3.5215  0.8232
  145MOL0     H19573   5.430   6.065   4.762 -0.0389  0.9512  2.1078
  145MOL0     H19574   4.965   6.557   4.243  1.3799 -1.5603  1.4267
  145MOL0     H19575   4.868   6.769   4.198  0.5197  1.4632 -4.3080
  146MOL0     O19576   6.785   7.841   3.711 -0.1336 -0.2801 -0.5046
  146MOL0     C19577   6.904   7.832   3.732 -0.1641 -0.6018  0.4563
  146MOL0     O19578   7.006   7.905   3.673  0.5805 -0.2286  0.1073
  146MOL0     C19579   6.950   7.970   3.566  0.2654  0.2368  0.1352
  146MOL0     C19580   6.853   8.080   3.590 -0.1922  0.3867  0.7288
  146MOL0     C19581   6.795   8.145   3.480  0.6896 -0.1819 -0.0583
  146MOL0     C19582   6.821   8.101   3.352  0.1554  0.2599  0.3144
  146MOL0     O19583   6.753   8.153   3.244  1.3599  0.2988 -0.4248
  146MOL0     C19584   6.658   8.269   3.257  0.1860 -0.2924  0.1031
  146MOL0     C19585   6.521   8.232   3.315  1.0978  0.5979 -0.3028
  146MOL0     C19586   6.419   8.170   3.204 -0.2348  0.0046 -0.2686
  146MOL0     C19587   6.476   8.057   3.116 -0.2390 -0.4436 -0.0574
  146MOL0     C19588   6.543   8.101   2.986  0.0547  0.5702  0.2188
  146MOL0     C19589   6.584   7.967   2.918 -0.8773 -0.1305 -0.0919
  146MOL0     C19590   6.706   7.891   2.989 -0.6600 -0.5769  0.6547
  146MOL0     C19591   6.779   7.790   2.905  0.8414  0.1463 -0.3880
  146MOL0     N19592   6.684   7.674   2.872  0.1464 -0.5807  0.1096
  146MOL0     C19593   6.732   7.549   2.837  0.1963  0.5210  0.2602
  146MOL0     C19594   6.625   7.482   2.786  0.8124 -0.0743 -0.3488
  146MOL0     C19595   6.621   7.348   2.735  0.4672 -0.6954 -0.0822
  146MOL0     C19596   6.543   7.254   2.817 -0.3149 -0.4332 -0.2546
  146MOL0     C19597   6.397   7.241   2.787 -0.0641 -0.3330 -0.1881
  146MOL0     C19598   6.354   7.116   2.703  0.2006  0.1657  0.2096
  146MOL0     O19599   6.217   7.113   2.670 -0.5356  0.0485 -0.6332
  146MOL0     C19600   6.170   7.055   2.559 -0.4097  0.0345  0.2682
  146MOL0     C19601   6.031   7.035   2.548  0.2510 -0.7104  0.2947
  146MOL0     C19602   5.970   6.975   2.441 -0.5656  0.2024 -0.7423
  146MOL0     C19603   5.815   6.964   2.453 -0.3594  1.2946 -0.8331
  146MOL0     C19604   6.048   6.935   2.333 -0.5321 -0.5511  0.9316
  146MOL0     C19605   5.991   6.889   2.200 -0.6213 -0.0698  0.0495
  146MOL0     O19606   5.871   6.836   2.195  0.1561 -0.5869 -0.1544
  146MOL0     C19607   5.826   6.751   2.094  0.1946  0.5454 -0.4424
  146MOL0     C19608   5.905   6.666   2.006 -0.3118 -0.1071  0.6306
  146MOL0     C19609   5.843   6.566   1.924 -0.6747  0.8069  0.1065
  146MOL0     C19610   5.713   6.553   1.919  1.2323  0.1466 -0.4304
  146MOL0     O19611   5.659   6.460   1.844 -0.6714 -0.0708  0.4092
  146MOL0     C19612   5.590   6.514   1.734 -0.6143  0.1545  0.0696
  146MOL0     C19613   5.703   6.558   1.634 -0.4822 -0.5197 -0.0772
  146MOL0     C19614   5.745   6.710   1.636  0.1877 -0.4337  0.3432
  146MOL0     C19615   5.811   6.751   1.507 -0.3624  0.5531 -0.4896
  146MOL0     C19616   5.844   6.904   1.504  0.0667  0.0131 -0.5007
  146MOL0     C19617   5.915   6.935   1.373  0.0922 -0.1317  1.2395
  146MOL0     C19618   5.968   7.084   1.384  0.7618 -0.8614 -1.0970
  146MOL0     C19619   5.880   7.186   1.308  1.5686  0.4868 -0.1712
  146MOL0    Cl19620   5.870   7.164   1.139  0.0059 -0.5424 -0.2138
  146MOL0     C19621   5.630   6.637   2.004 -0.4049 -0.1229 -0.8106
  146MOL0     C19622   5.690   6.731   2.092  0.4170  0.0480 -0.0721
  146MOL0     O19623   6.068   6.898   2.106 -0.0462  0.1233 -0.2976
  146MOL0     C19624   6.187   6.948   2.341 -0.3147 -0.6660  0.6590
  146MOL0     C19625   6.251   6.998   2.454 -1.0890  0.9550  0.2073
  146MOL0     N19626   6.515   7.568   2.791  0.1545 -0.1413 -0.1709
  146MOL0     N19627   6.550   7.683   2.838 -0.6028 -0.8703 -0.3654
  146MOL0     C19628   6.911   7.994   3.333 -0.8702 -0.4829  0.8994
  146MOL0     C19629   6.979   7.927   3.434 -0.0213 -0.1996 -0.1705
  146MOL0     C19630   6.949   7.744   3.840 -1.1978  0.4043 -1.0344
  146MOL0     C19631   6.880   7.731   3.954  0.0114 -0.2867 -0.3703
  146MOL0     C19632   6.931   7.656   4.057  0.6722 -0.1110 -0.6706
  146MOL0     C19633   7.052   7.583   4.040 -0.2976 -0.2146  0.0517
  146MOL0     O19634   7.081   7.495   4.147 -1.0827 -0.6553 -1.1292
  146MOL0     C19635   7.076   7.357   4.132 -0.5813 -0.4584 -0.0293
  146MOL0     C19636   7.207   7.287   4.182 -0.2309 -0.5347  1.1285
  146MOL0     C19637   7.257   7.321   4.320  0.8296  0.0757 -0.7076
  146MOL0     C19638   7.399   7.293   4.336 -0.3266 -0.6579 -0.5769
  146MOL0     C19639   7.460   7.394   4.427  0.6787 -0.0824 -0.2666
  146MOL0     C19640   7.501   7.488   4.492 -0.9482 -0.0316  0.5161
  146MOL0     C19641   7.135   7.610   3.937 -0.1925 -0.7104  0.2782
  146MOL0     C19642   7.081   7.684   3.832  0.2338 -0.2281  0.3389
  146MOL0     H19643   6.817   8.118   3.685 -2.7583  0.2553 -0.1181
  146MOL0     H19644   6.732   8.230   3.505 -0.3262 -1.0072  0.2555
  146MOL0     H19645   6.698   8.355   3.312  2.6725 -0.1699 -1.7209
  146MOL0     H19646   6.653   8.326   3.164  1.8453  2.5200  1.6050
  146MOL0     H19647   6.524   8.170   3.405 -1.1566  3.1692  1.7503
  146MOL0     H19648   6.469   8.319   3.356 -0.9078 -0.7928  0.2467
  146MOL0     H19649   6.343   8.126   3.269  2.3660 -1.7413  1.8261
  146MOL0     H19650   6.387   8.254   3.141  1.5639 -0.2177 -1.5551
  146MOL0     H19651   6.546   7.993   3.172  2.1815 -0.6218 -3.0152
  146MOL0     H19652   6.394   7.991   3.088 -0.7786  0.4345 -0.6050
  146MOL0     H19653   6.475   8.145   2.913  1.8085  1.7919 -0.7708
  146MOL0     H19654   6.624   8.172   3.008 -1.3776  1.9367  1.3275
  146MOL0     H19655   6.489   7.914   2.903 -1.6760  1.3300 -0.4325
  146MOL0     H19656   6.621   8.004   2.822  3.2745  2.5954  2.2527
  146MOL0     H19657   6.782   7.967   3.008 -1.6239  1.3869 -2.5578
  146MOL0     H19658   6.664   7.834   3.073 -3.3675  0.4799  0.1109
  146MOL0     H19659   6.866   7.751   2.957  1.2219  2.2217  0.6406
  146MOL0     H19660   6.816   7.851   2.822  0.7801 -0.2349 -0.6968
  146MOL0     H19661   6.832   7.507   2.834  0.6776  1.3635 -5.3149
  146MOL0     H19662   6.580   7.347   2.634  3.5616  1.4305 -1.5259
  146MOL0     H19663   6.725   7.314   2.726 -0.7042 -4.2767 -1.8349
  146MOL0     H19664   6.582   7.253   2.919 -0.7609 -1.3188 -0.0885
  146MOL0     H19665   6.564   7.153   2.783  2.4935  0.5566 -1.8154
  146MOL0     H19666   6.354   7.325   2.731 -1.6601 -0.1524  1.2281
  146MOL0     H19667   6.345   7.225   2.882 -1.1562  0.0574 -0.7005
  146MOL0     H19668   6.386   7.026   2.755 -1.6778 -0.8685 -0.3184
  146MOL0     H19669   6.413   7.126   2.612  1.7897  0.1643  1.2103
  146MOL0     H19670   5.957   7.079   2.615  0.8978 -0.9674  1.1976
  146MOL0     H19671   5.771   6.872   2.413 -1.1166  0.2264  2.2068
  146MOL0     H19672   5.775   6.966   2.555  0.4753  3.3047 -0.4956
  146MOL0     H19673   5.772   7.047   2.396 -2.1879 -0.7090 -2.5243
  146MOL0     H19674   6.011   6.678   1.988 -0.6268  0.6112 -0.9542
  146MOL0     H19675   5.910   6.505   1.864 -1.0104 -0.7670  1.2739
  146MOL0     H19676   5.541   6.436   1.675  0.1609  0.5448 -1.1461
  146MOL0     H19677   5.523   6.596   1.762 -0.7004 -0.1587  0.7746
  146MOL0     H19678   5.791   6.494   1.649 -0.2331 -0.2313 -0.2954
  146MOL0     H19679   5.674   6.543   1.530  1.3497 -0.7085 -0.5875
  146MOL0     H19680   5.821   6.731   1.712  1.0572  1.9839 -1.0929
  146MOL0     H19681   5.652   6.768   1.638 -0.4481 -1.3935 -0.2021
  146MOL0     H19682   5.901   6.692   1.488 -0.5275 -0.1976  0.9291
  146MOL0     H19683   5.735   6.736   1.430 -2.3772  1.8225  1.1368
  146MOL0     H19684   5.924   6.920   1.577 -0.5684  0.2219  0.1529
  146MOL0     H19685   5.761   6.972   1.525  0.4498 -0.0774  1.5154
  146MOL0     H19686   5.996   6.862   1.367 -1.6040 -1.9300 -1.8076
  146MOL0     H19687   5.850   6.917   1.288  0.2142  0.4698  1.0204
  146MOL0     H19688   6.067   7.078   1.337  0.5691 -0.6534 -1.5336
  146MOL0     H19689   5.984   7.115   1.488 -0.0568  0.8396 -1.4395
  146MOL0     H19690   5.914   7.288   1.327 -0.8683  1.4051 -0.3590
  146MOL0     H19691   5.778   7.188   1.349  0.5915 -2.8549 -2.0570
  146MOL0     H19692   5.523   6.642   1.988 -0.5145 -1.4125 -0.5983
  146MOL0     H19693   5.615   6.780   2.153  1.4604 -0.7019  1.9297
  146MOL0     H19694   6.249   6.923   2.255  0.0992 -1.5370  1.1903
  146MOL0     H19695   6.359   7.000   2.464 -0.7338 -0.3588 -2.4086
  146MOL0     H19696   6.943   7.976   3.231 -0.0479 -0.0490  1.0700
  146MOL0     H19697   7.057   7.854   3.416  0.4736  0.0087  1.0138
  146MOL0     H19698   6.779   7.770   3.967 -0.4744 -0.0815 -3.8164
  146MOL0     H19699   6.873   7.638   4.147 -0.0844  1.2111 -0.8717
  146MOL0     H19700   7.002   7.311   4.198 -0.1081 -0.8249  0.2585
  146MOL0     H19701   7.055   7.342   4.026  2.1670  0.4779 -0.7800
  146MOL0     H19702   7.283   7.310   4.106 -2.4046  3.1436 -0.1823
  146MOL0     H19703   7.189   7.179   4.182 -2.3410 -0.2518 -0.5312
  146MOL0     H19704   7.207   7.255   4.392  1.3748  3.3752  3.0498
  146MOL0     H19705   7.232   7.425   4.345  0.3282  0.7813 -3.7372
  146MOL0     H19706   7.457   7.317   4.246  1.7739 -1.3589  0.5443
  146MOL0     H19707   7.422   7.193   4.372  1.5142 -1.0377 -2.6086
  146MOL0     H19708   7.538   7.577   4.537  0.8459  0.1505 -1.2013
  146MOL0     H19709   7.238   7.576   3.938  1.5171  3.4500 -2.8533
  146MOL0     H19710   7.141   7.716   3.747 -4.0709  2.1705 -2.1042
  147MOL0     O19711   3.565   5.319   9.319 -0.0393 -0.4534  0.5167
  147MOL0     C19712   3.487   5.414   9.304  0.3672 -0.0726  0.5061
  147MOL0     O19713   3.399   5.423   9.197 -0.3867 -0.8141  0.0158
  147MOL0     C19714   3.412   5.347   9.083 -0.5514  0.4455 -0.0069
  147MOL0     C19715   3.308   5.259   9.039  0.3903  0.3382  0.1306
  147MOL0     C19716   3.316   5.187   8.914 -0.1853  0.0733 -0.8737
  147MOL0     C19717   3.431   5.198   8.844  0.5067  0.2151  0.8771
  147MOL0     O19718   3.452   5.141   8.724  0.1570 -0.2844 -0.5325
  147MOL0     C19719   3.372   5.200   8.616 -0.1195 -0.6369  0.5720
  147MOL0     C19720   3.459   5.293   8.525  0.6098 -0.0689 -0.9513
  147MOL0     C19721   3.379   5.320   8.392 -0.5200 -1.1141 -0.2841
  147MOL0     C19722   3.333   5.471   8.391  1.0843  0.4565  0.6217
  147MOL0     C19723   3.250   5.510   8.264 -0.9643  0.5662  0.0766
  147MOL0     C19724   3.321   5.458   8.127 -0.7731 -0.3399 -0.2444
  147MOL0     C19725   3.243   5.511   8.004  1.0344  0.3909 -1.3287
  147MOL0     C19726   3.262   5.427   7.885  0.6200  0.3238 -1.0480
  147MOL0     N19727   3.211   5.296   7.892  0.5041  0.1141  0.6085
  147MOL0     C19728   3.077   5.273   7.900  0.8325  0.2680 -0.0696
  147MOL0     C19729   3.052   5.147   7.855  0.2728  0.1279  0.4657
  147MOL0     C19730   2.913   5.084   7.830  0.3476 -0.0487 -0.8679
  147MOL0     C19731   2.833   5.158   7.726 -0.6606 -0.0697  0.5472
  147MOL0     C19732   2.677   5.145   7.726 -0.4795  1.0707  0.0390
  147MOL0     C19733   2.611   5.266   7.783 -0.2810 -0.2616  0.5831
  147MOL0     O19734   2.620   5.250   7.923  0.3561  0.4079 -1.0256
  147MOL0     C19735   2.678   5.355   7.988 -0.1944  0.9355  0.5147
  147MOL0     C19736   2.652   5.491   7.958  0.1180  0.3808  0.0340
  147MOL0     C19737   2.717   5.593   8.034  0.3803 -0.3314 -0.4996
  147MOL0     C19738   2.685   5.741   7.982  0.7367 -0.0813  0.3697
  147MOL0     C19739   2.799   5.557   8.146  0.5740 -0.1599 -0.1764
  147MOL0     C19740   2.872   5.669   8.226 -0.1090 -0.2297  0.0001
  147MOL0     O19741   2.865   5.785   8.176  0.7518 -0.7190  0.0241
  147MOL0     C19742   2.934   5.895   8.226 -0.3290  1.0713  1.1557
  147MOL0     C19743   2.898   6.015   8.171 -0.0196  0.1557  0.2790
  147MOL0     C19744   2.970   6.128   8.199 -0.1771  0.4272  0.3859
  147MOL0     C19745   3.070   6.125   8.300 -0.7240  0.0561 -0.2651
  147MOL0     O19746   3.132   6.246   8.325  0.0739 -0.4607 -0.0362
  147MOL0     C19747   3.215   6.253   8.441 -0.2021  0.6821 -0.5323
  147MOL0     C19748   3.224   6.399   8.472 -0.1376 -0.4965  0.5684
  147MOL0     C19749   3.083   6.467   8.461  0.1732 -0.6366  0.5751
  147MOL0     C19750   3.067   6.568   8.571  1.1399 -0.7333  0.3925
  147MOL0     C19751   2.927   6.632   8.576 -0.1144  0.3646  0.8528
  147MOL0     C19752   2.928   6.780   8.517  0.2506  1.3554 -0.1138
  147MOL0     C19753   2.971   6.878   8.622  0.0659  0.1408  0.0379
  147MOL0     C19754   3.045   6.991   8.560 -0.5320 -0.6386 -0.2828
  147MOL0    Cl19755   3.118   7.122   8.671  0.2450 -0.1900 -0.5605
  147MOL0     C19756   3.109   6.003   8.354 -0.5944  0.7645 -0.2897
  147MOL0     C19757   3.031   5.894   8.325 -0.1187 -0.0016 -0.2798
  147MOL0     O19758   2.913   5.640   8.331  0.2272  0.0531 -0.7048
  147MOL0     C19759   2.805   5.425   8.183 -0.2320  0.7082 -0.0623
  147MOL0     C19760   2.759   5.320   8.102 -0.2909 -0.2351 -0.1016
  147MOL0     N19761   3.180   5.095   7.834 -0.4741 -0.1522 -0.6652
  147MOL0     N19762   3.273   5.180   7.845  0.1083 -1.3469 -0.4634
  147MOL0     C19763   3.539   5.278   8.893  0.8383  0.1766  0.1846
  147MOL0     C19764   3.530   5.352   9.005 -0.4875  0.6440  0.5781
  147MOL0     C19765   3.467   5.512   9.408 -0.6533 -0.5596 -0.5858
  147MOL0     C19766   3.556   5.520   9.517 -1.0056 -1.6923  0.5863
  147MOL0     C19767   3.533   5.617   9.619  0.6365 -0.6585  0.9311
  147MOL0     C19768   3.431   5.714   9.599 -0.4726  0.7788 -0.4471
  147MOL0     O19769   3.430   5.824   9.683  0.0085  0.5007  0.0172
  147MOL0     C19770   3.401   5.950   9.612  0.1556  0.2940  0.2526
  147MOL0     C19771   3.473   6.062   9.679 -0.7609 -0.7527  0.3215
  147MOL0     C19772   3.442   6.076   9.826 -0.0324  0.0783 -0.3130
  147MOL0     C19773   3.306   6.119   9.866 -0.0323  0.4950 -0.0037
  147MOL0     C19774   3.298   6.133  10.010  0.2341  0.2163  0.3001
  147MOL0     C19775   3.303   6.165  10.128 -0.1265 -0.5710  0.7720
  147MOL0     C19776   3.337   5.695   9.502 -0.6083 -0.0863 -0.1322
  147MOL0     C19777   3.357   5.595   9.403 -0.1113  0.2048  0.3050
  147MOL0     H19778   3.222   5.229   9.098  1.7309 -3.6615  0.3787
  147MOL0     H19779   3.235   5.124   8.878  0.7822 -0.0149 -3.0121
  147MOL0     H19780   3.342   5.115   8.555  0.6619 -0.8285  0.4384
  147MOL0     H19781   3.281   5.254   8.643  0.0195  0.2215 -0.5750
  147MOL0     H19782   3.475   5.382   8.588 -0.3041 -1.2324  1.0196
  147MOL0     H19783   3.555   5.245   8.503 -0.1837 -2.1165 -0.2075
  147MOL0     H19784   3.439   5.306   8.302 -0.3065 -0.3344 -0.2715
  147MOL0     H19785   3.286   5.262   8.396 -1.7391  0.7912  0.6257
  147MOL0     H19786   3.267   5.482   8.477  1.1110  0.7830  0.5986
  147MOL0     H19787   3.419   5.537   8.402  1.5375  0.4472 -2.1623
  147MOL0     H19788   3.153   5.459   8.268 -0.5754 -0.0905  1.6718
  147MOL0     H19789   3.237   5.618   8.265 -0.7704  0.6066 -0.8057
  147MOL0     H19790   3.429   5.475   8.129 -0.3470 -2.3547  3.6808
  147MOL0     H19791   3.308   5.349   8.133 -4.0162  0.0045  0.6828
  147MOL0     H19792   3.142   5.525   8.045  0.3778 -3.1479 -1.3911
  147MOL0     H19793   3.287   5.609   7.988  3.2228  0.5510  3.7386
  147MOL0     H19794   3.367   5.408   7.863  1.1713  0.5220  1.1770
  147MOL0     H19795   3.216   5.485   7.805 -0.0703  0.0172 -0.8874
  147MOL0     H19796   2.996   5.344   7.914 -0.4748 -1.2275  0.1569
  147MOL0     H19797   2.915   4.979   7.799 -1.8496 -1.2931  2.6967
  147MOL0     H19798   2.866   5.083   7.929 -0.2011  3.1278 -0.9832
  147MOL0     H19799   2.867   5.121   7.629 -1.8763  0.7331 -0.2190
  147MOL0     H19800   2.862   5.263   7.732  5.4399 -1.4823  4.3194
  147MOL0     H19801   2.662   5.051   7.781 -0.7850  1.0521 -0.0776
  147MOL0     H19802   2.643   5.155   7.623  3.3142  1.3276 -1.3424
  147MOL0     H19803   2.506   5.260   7.751 -0.3935 -1.7425  1.1359
  147MOL0     H19804   2.633   5.360   7.732 -4.3304  1.6371  1.9160
  147MOL0     H19805   2.594   5.511   7.869  3.3248 -0.4245 -2.3960
  147MOL0     H19806   2.785   5.781   7.962  0.3914  0.6979  0.1643
  147MOL0     H19807   2.619   5.744   7.895  0.2530 -0.2264  0.7267
  147MOL0     H19808   2.627   5.802   8.053  1.3422  2.4444 -1.1517
  147MOL0     H19809   2.830   6.020   8.086 -1.4958 -0.7380  1.3721
  147MOL0     H19810   2.926   6.216   8.154  0.1874  0.4302  0.0267
  147MOL0     H19811   3.178   6.189   8.521 -1.5796  0.3173 -1.4102
  147MOL0     H19812   3.320   6.230   8.420 -1.2883 -1.4864 -4.7123
  147MOL0     H19813   3.279   6.410   8.566  2.1746  0.5969 -0.8379
  147MOL0     H19814   3.291   6.441   8.396  0.7929 -2.0650  0.4745
  147MOL0     H19815   2.994   6.403   8.465 -1.7701  1.8896  0.4304
  147MOL0     H19816   3.077   6.513   8.361 -0.1563 -2.4483 -0.2801
  147MOL0     H19817   3.066   6.505   8.660 -3.7010  0.3568  1.4067
  147MOL0     H19818   3.145   6.645   8.575 -0.5080  1.0994 -0.6374
  147MOL0     H19819   2.879   6.627   8.674 -1.6511  2.1270  0.2475
  147MOL0     H19820   2.864   6.564   8.516  0.7057 -1.1090  1.6063
  147MOL0     H19821   2.987   6.787   8.425  0.5891 -0.0292 -0.0244
  147MOL0     H19822   2.823   6.800   8.495 -0.4011 -0.7696  0.7670
  147MOL0     H19823   3.036   6.826   8.693  2.4278  0.5612 -1.7028
  147MOL0     H19824   2.886   6.922   8.676  0.8631  2.0194 -0.1701
  147MOL0     H19825   2.981   7.036   8.484  2.1857 -1.3566 -3.2143
  147MOL0     H19826   3.129   6.943   8.509  0.4850  1.2905 -0.5289
  147MOL0     H19827   3.172   5.993   8.442 -0.0715 -1.5650 -0.8449
  147MOL0     H19828   3.041   5.813   8.396 -2.6616 -0.2590 -0.1300
  147MOL0     H19829   2.877   5.394   8.258  1.0582  2.8376 -0.3352
  147MOL0     H19830   2.761   5.224   8.152 -1.5819  1.6006  3.8799
  147MOL0     H19831   3.620   5.308   8.827  1.5230 -0.6340  0.6342
  147MOL0     H19832   3.612   5.419   9.030 -1.1718  1.5711  0.3790
  147MOL0     H19833   3.635   5.445   9.525 -0.0951 -0.6170  2.4442
  147MOL0     H19834   3.600   5.634   9.703 -0.1542  1.1867  1.2479
  147MOL0     H19835   3.426   5.948   9.506 -0.0528  0.9897  0.1810
  147MOL0     H19836   3.294   5.971   9.611  0.2608  0.8646 -1.2444
  147MOL0     H19837   3.446   6.154   9.626 -1.9521 -1.2475  0.0406
  147MOL0     H19838   3.580   6.044   9.671 -0.4441  1.7382 -2.6047
  147MOL0     H19839   3.506   6.149   9.877 -3.5868  2.7501  0.6738
  147MOL0     H19840   3.469   5.978   9.866 -0.7820 -0.4754 -1.1140
  147MOL0     H19841   3.243   6.036   9.832  1.8288 -1.5879  1.3544
  147MOL0     H19842   3.280   6.218   9.829  0.6636  0.9432  0.6773
  147MOL0     H19843   3.334   6.190  10.227 -1.1390  0.6638  0.8002
  147MOL0     H19844   3.263   5.774   9.490 -0.9065 -0.5410 -1.4823
  147MOL0     H19845   3.282   5.590   9.325  1.1590  1.0860 -1.0295
  148MOL0     O19846   7.220   4.262   3.029 -0.2650  0.4549 -0.2859
  148MOL0     C19847   7.165   4.151   3.004  0.1176 -0.2258 -0.6533
  148MOL0     O19848   7.223   4.034   2.993  0.7811 -1.2055  0.1632
  148MOL0     C19849   7.356   4.036   3.029 -0.3558 -0.2716 -0.6697
  148MOL0     C19850   7.393   4.071   3.161  0.3361 -0.5792 -0.5323
  148MOL0     C19851   7.527   4.058   3.197 -0.1624  0.9287 -0.0864
  148MOL0     C19852   7.629   4.015   3.109  0.8908 -0.2405  0.0252
  148MOL0     O19853   7.758   3.984   3.148  0.2461  0.0454  0.4819
  148MOL0     C19854   7.797   4.000   3.281 -0.1042 -0.0941  0.4341
  148MOL0     C19855   7.946   3.946   3.291 -0.4288  1.6495 -0.4646
  148MOL0     C19856   8.031   3.993   3.408  1.0476 -0.4635  0.2439
  148MOL0     C19857   8.178   3.947   3.397 -0.1323  0.2189 -0.1132
  148MOL0     C19858   8.252   3.952   3.533 -0.3236 -0.7995 -0.2480
  148MOL0     C19859   8.244   4.092   3.599  0.4924  1.4419  0.7456
  148MOL0     C19860   8.321   4.106   3.730  0.5252 -1.1005 -0.3389
  148MOL0     C19861   8.281   4.239   3.813 -0.6469  0.0586 -0.3749
  148MOL0     N19862   8.326   4.362   3.746  0.3286  0.3391 -0.3791
  148MOL0     C19863   8.449   4.407   3.734  0.4795  0.0106  0.1975
  148MOL0     C19864   8.431   4.542   3.732  1.1400 -0.9268 -1.8830
  148MOL0     C19865   8.545   4.641   3.744 -0.7170  0.1527  0.2494
  148MOL0     C19866   8.584   4.683   3.887  0.0798  0.6400  0.3040
  148MOL0     C19867   8.490   4.785   3.947  0.7383 -0.4149 -0.1848
  148MOL0     C19868   8.524   4.818   4.090 -0.4178 -0.4640 -0.1756
  148MOL0     O19869   8.442   4.916   4.150  0.5255 -0.2144 -0.2714
  148MOL0     C19870   8.451   5.049   4.125 -0.0734 -0.4934  0.7600
  148MOL0     C19871   8.335   5.132   4.142 -0.1867  0.6668 -0.1315
  148MOL0     C19872   8.336   5.280   4.125  0.5316 -0.0958  0.0689
  148MOL0     C19873   8.203   5.351   4.141  0.4602 -0.5486  0.0802
  148MOL0     C19874   8.445   5.336   4.058 -0.7190 -0.3056 -0.4382
  148MOL0     C19875   8.464   5.472   4.006 -0.5020  0.4060 -0.3223
  148MOL0     O19876   8.528   5.484   3.898 -0.4066 -0.6581 -0.3681
  148MOL0     C19877   8.592   5.601   3.868 -0.1328 -0.7152 -0.5039
  148MOL0     C19878   8.647   5.696   3.965 -0.7324 -0.1494 -0.4125
  148MOL0     C19879   8.698   5.822   3.908 -0.6839  0.2797 -0.0196
  148MOL0     C19880   8.717   5.847   3.768  0.2222  0.2628 -0.9325
  148MOL0     O19881   8.763   5.960   3.720  0.1849 -1.1364  0.1099
  148MOL0     C19882   8.686   6.078   3.765 -0.0321  0.1391 -0.3635
  148MOL0     C19883   8.690   6.196   3.660 -0.6621 -0.6671 -0.5992
  148MOL0     C19884   8.592   6.160   3.545 -0.6661 -0.2156 -0.5609
  148MOL0     C19885   8.665   6.078   3.437  0.1863  1.2340 -1.2353
  148MOL0     C19886   8.595   6.088   3.306 -0.8993  0.8219  0.3219
  148MOL0     C19887   8.675   5.996   3.208 -0.1609 -0.3882 -0.5256
  148MOL0     C19888   8.609   5.999   3.067  0.9978  0.3466 -0.7024
  148MOL0     C19889   8.664   5.880   2.978  0.5739  0.3764 -0.3002
  148MOL0    Cl19890   8.632   5.711   3.038 -0.1502 -0.0844  0.1392
  148MOL0     C19891   8.661   5.740   3.683  0.0021  0.0655 -0.1658
  148MOL0     C19892   8.607   5.615   3.737 -0.6983 -0.1383 -0.4541
  148MOL0     O19893   8.415   5.565   4.072 -0.2058  0.4689  0.8852
  148MOL0     C19894   8.560   5.260   4.041  0.0099  0.6784 -0.7997
  148MOL0     C19895   8.567   5.125   4.083  0.4916  0.6394  0.2812
  148MOL0     N19896   8.294   4.570   3.743  0.8894 -0.4303  0.1380
  148MOL0     N19897   8.231   4.461   3.749 -0.5637  0.4829 -0.4003
  148MOL0     C19898   7.595   3.982   2.978  0.2545  0.0083  0.2291
  148MOL0     C19899   7.461   3.997   2.938 -0.5385 -0.0820  0.0771
  148MOL0     C19900   7.021   4.158   2.949  0.0905 -0.3761  0.0577
  148MOL0     C19901   6.939   4.044   2.956 -0.1968 -0.0348  0.1591
  148MOL0     C19902   6.803   4.056   2.897  0.0524 -0.2468 -0.7370
  148MOL0     C19903   6.763   4.185   2.861 -0.1583 -0.0733  0.4359
  148MOL0     O19904   6.623   4.207   2.839 -0.5515  0.2938  0.0710
  148MOL0     C19905   6.587   4.171   2.702 -0.7889  0.3471  0.5116
  148MOL0     C19906   6.466   4.254   2.654  1.0190  0.1098 -0.5105
  148MOL0     C19907   6.485   4.401   2.665  0.0401 -0.0400  1.3793
  148MOL0     C19908   6.409   4.484   2.560 -0.1822 -0.0334 -0.5345
  148MOL0     C19909   6.426   4.633   2.563  0.0876 -0.4808  0.4018
  148MOL0     C19910   6.435   4.754   2.567  0.1690 -0.0532 -1.1110
  148MOL0     C19911   6.847   4.288   2.837  0.5122  0.7009  0.4191
  148MOL0     C19912   6.982   4.267   2.878  0.7101  1.8203 -0.4812
  148MOL0     H19913   7.309   4.102   3.224 -0.9906  0.5296 -2.7272
  148MOL0     H19914   7.561   4.088   3.295 -2.1461  3.8452 -0.1778
  148MOL0     H19915   7.813   4.106   3.301  0.4597 -0.1240  0.1587
  148MOL0     H19916   7.725   3.946   3.343 -0.0754 -1.0452 -0.3257
  148MOL0     H19917   7.932   3.838   3.291 -3.1287  1.9320 -0.3360
  148MOL0     H19918   8.000   3.969   3.199  0.6983  1.7366  0.2066
  148MOL0     H19919   8.031   4.102   3.412 -3.5868 -0.3221  1.2146
  148MOL0     H19920   7.987   3.961   3.503  1.6835  3.1420  1.9318
  148MOL0     H19921   8.172   3.845   3.357 -3.0507  0.5407 -0.7528
  148MOL0     H19922   8.243   4.004   3.331 -3.2568  0.9091 -2.9054
  148MOL0     H19923   8.210   3.886   3.610 -1.1297  2.4189  2.2785
  148MOL0     H19924   8.357   3.924   3.522 -0.4561 -1.3192 -0.2522
  148MOL0     H19925   8.285   4.162   3.526  1.1172 -3.0817 -3.8387
  148MOL0     H19926   8.140   4.119   3.619 -0.3492 -1.9976  1.7360
  148MOL0     H19927   8.314   4.019   3.796 -0.2226 -1.7437 -1.2360
  148MOL0     H19928   8.427   4.103   3.706  1.4274 -1.2884  3.2076
  148MOL0     H19929   8.328   4.219   3.910  1.6763  0.0840 -1.4327
  148MOL0     H19930   8.174   4.243   3.837 -0.4814  1.6484  0.1463
  148MOL0     H19931   8.535   4.341   3.743  1.3659  1.2655  1.3708
  148MOL0     H19932   8.626   4.589   3.693 -1.5188 -2.0575  1.1366
  148MOL0     H19933   8.532   4.736   3.690  1.6765  0.8593  0.8019
  148MOL0     H19934   8.681   4.730   3.876 -0.6186  2.1670  0.4590
  148MOL0     H19935   8.595   4.601   3.959  0.6182  0.8637  0.4726
  148MOL0     H19936   8.387   4.751   3.933 -1.3910  4.8440  0.3008
  148MOL0     H19937   8.506   4.878   3.892  3.5367 -0.7957 -0.1668
  148MOL0     H19938   8.628   4.848   4.105 -1.2964  2.4904  0.6692
  148MOL0     H19939   8.528   4.720   4.140  1.2131 -0.2465  0.1751
  148MOL0     H19940   8.239   5.093   4.175  1.6353 -3.6378  0.8188
  148MOL0     H19941   8.187   5.421   4.059  0.8172  0.2854  0.7050
  148MOL0     H19942   8.114   5.289   4.134  0.4413 -0.5222  0.0860
  148MOL0     H19943   8.181   5.390   4.241  0.8737 -0.3420  0.0962
  148MOL0     H19944   8.632   5.689   4.072  0.9991 -1.0717 -0.1978
  148MOL0     H19945   8.712   5.905   3.977 -0.6557  0.4549 -0.2351
  148MOL0     H19946   8.583   6.054   3.794  0.0200 -0.5992 -0.7467
  148MOL0     H19947   8.735   6.111   3.857  0.5002  1.8182 -1.2295
  148MOL0     H19948   8.667   6.291   3.708 -0.4427 -1.8152  1.9690
  148MOL0     H19949   8.791   6.196   3.618 -0.8167 -2.3041 -1.0460
  148MOL0     H19950   8.566   6.251   3.490 -0.0196 -0.2228 -0.8968
  148MOL0     H19951   8.504   6.112   3.588 -0.8266 -0.6371 -1.3317
  148MOL0     H19952   8.766   6.120   3.439  1.3360 -1.0526  3.2504
  148MOL0     H19953   8.660   5.972   3.464 -0.3013  1.3790 -0.7320
  148MOL0     H19954   8.590   6.191   3.271 -0.1927  0.7434 -0.0135
  148MOL0     H19955   8.500   6.033   3.299  0.2273 -1.0276 -1.7033
  148MOL0     H19956   8.777   6.036   3.202 -0.0715 -0.0630  2.0321
  148MOL0     H19957   8.677   5.893   3.242 -0.4790 -0.7171 -1.4763
  148MOL0     H19958   8.622   6.097   3.019  5.1860  0.4365  0.2114
  148MOL0     H19959   8.502   5.977   3.072  1.0598 -0.1365 -1.3601
  148MOL0     H19960   8.772   5.895   2.970  1.0345 -2.2038  0.4533
  148MOL0     H19961   8.636   5.892   2.873  1.2308 -1.9385 -0.7890
  148MOL0     H19962   8.665   5.753   3.576 -0.0364  0.0909 -0.1642
  148MOL0     H19963   8.566   5.548   3.663 -0.5761 -1.4827  0.6650
  148MOL0     H19964   8.648   5.301   3.991  1.2294  1.0934  1.5770
  148MOL0     H19965   8.663   5.075   4.080  1.7373  2.9048  0.6396
  148MOL0     H19966   7.673   3.955   2.907 -0.9053 -1.7986 -0.4294
  148MOL0     H19967   7.433   3.989   2.833 -1.8001  1.7947  0.2135
  148MOL0     H19968   6.984   3.956   3.002 -1.2599  1.3673  4.3151
  148MOL0     H19969   6.722   3.983   2.893  0.4002 -1.3667  4.4424
  148MOL0     H19970   6.674   4.186   2.638 -1.2526  0.3069 -0.1356
  148MOL0     H19971   6.577   4.062   2.705 -1.5157  0.4158  0.9738
  148MOL0     H19972   6.377   4.224   2.710  2.1779 -0.8755  0.8741
  148MOL0     H19973   6.456   4.223   2.550 -1.1609 -0.1619 -0.2782
  148MOL0     H19974   6.592   4.426   2.657 -0.2828  0.6925 -2.2131
  148MOL0     H19975   6.465   4.431   2.768  4.0913  3.0538  1.5281
  148MOL0     H19976   6.302   4.475   2.576 -0.0977  0.2399  0.2398
  148MOL0     H19977   6.435   4.451   2.459 -2.7147  0.0876 -1.2890
  148MOL0     H19978   6.444   4.861   2.568  3.1044 -0.2063 -0.4086
  148MOL0     H19979   6.820   4.389   2.809 -0.1549  0.3639 -0.1791
  148MOL0     H19980   7.050   4.351   2.869  3.4038 -0.4181 -3.0354
  149MOL0     O19981  11.059   0.982   1.019  0.4658  0.3656  0.0107
  149MOL0     C19982  10.956   1.032   0.964 -1.1331  1.3419 -0.0641
  149MOL0     O19983  10.838   1.049   1.034 -0.9516 -1.3357 -0.0928
  149MOL0     C19984  10.843   1.031   1.168  0.3494  0.7570 -0.4977
  149MOL0     C19985  10.930   1.095   1.262  0.0536  0.0433  0.6868
  149MOL0     C19986  10.931   1.071   1.399 -0.4382  0.2924 -0.0551
  149MOL0     C19987  10.844   0.977   1.461  0.1268  0.1061 -0.2417
  149MOL0     O19988  10.829   0.950   1.592  0.0978  0.7083 -0.1681
  149MOL0     C19989  10.924   1.012   1.686 -0.3176  0.5211 -0.6200
  149MOL0     C19990  10.868   1.149   1.721 -0.3330 -0.1586 -0.2249
  149MOL0     C19991  10.978   1.254   1.759  0.8477  0.6893 -0.1898
  149MOL0     C19992  11.043   1.314   1.639 -0.8146 -0.1301  0.9191
  149MOL0     C19993  11.090   1.459   1.681  0.1280  0.5010  0.8862
  149MOL0     C19994  11.189   1.475   1.805  0.5938 -0.4402 -0.3903
  149MOL0     C19995  11.295   1.373   1.816  0.2783 -0.1001 -0.0644
  149MOL0     C19996  11.428   1.411   1.753 -0.0758 -0.7839  0.8149
  149MOL0     N19997  11.422   1.428   1.613  0.1852 -0.2775  0.5891
  149MOL0     C19998  11.384   1.335   1.519 -0.0361  0.5969 -0.6571
  149MOL0     C19999  11.409   1.384   1.406  0.4761  0.1491  0.8921
  149MOL0     C20000  11.355   1.339   1.271 -0.3818 -0.0570 -0.6277
  149MOL0     C20001  11.357   1.186   1.270 -0.7253  0.2873  0.4049
  149MOL0     C20002  11.350   1.119   1.124  0.2369 -0.9795 -0.3689
  149MOL0     C20003  11.351   0.965   1.133 -0.1988 -0.3840  0.0686
  149MOL0     O20004  11.350   0.903   1.007  0.5581 -0.3061 -0.0607
  149MOL0     C20005  11.476   0.872   0.956 -0.3459  0.5005  0.2153
  149MOL0     C20006  11.543   0.756   0.998 -0.1405  0.1016  0.8867
  149MOL0     C20007  11.673   0.726   0.944 -0.7248 -0.6535  0.6028
  149MOL0     C20008  11.736   0.591   0.986 -0.6527  0.4844  0.3715
  149MOL0     C20009  11.721   0.814   0.842 -0.3539  0.8359 -0.6684
  149MOL0     C20010  11.856   0.803   0.786 -0.0192  0.7899 -0.5907
  149MOL0     O20011  11.955   0.738   0.867  0.4914  0.5135 -0.0624
  149MOL0     C20012  12.080   0.784   0.840 -0.2335  0.0530 -0.1027
  149MOL0     C20013  12.147   0.886   0.902  0.4468  0.1063  0.2883
  149MOL0     C20014  12.283   0.915   0.865  1.1488  0.6561 -0.4960
  149MOL0     C20015  12.334   0.856   0.755 -0.9130 -0.2885  0.7312
  149MOL0     O20016  12.464   0.874   0.711 -0.0859  0.5331  0.5872
  149MOL0     C20017  12.529   1.001   0.713  0.1321  0.0284 -0.5451
  149MOL0     C20018  12.454   1.128   0.679  0.3572 -0.3278 -0.0508
  149MOL0     C20019  12.552   1.241   0.667 -1.0901 -0.8741 -0.4929
  149MOL0     C20020  12.473   1.368   0.638 -0.9685 -0.2142  0.0927
  149MOL0     C20021  12.455   1.397   0.481  0.6099  0.4596 -0.0214
  149MOL0     C20022  12.378   1.528   0.468  0.3466  0.3439 -0.0222
  149MOL0     C20023  12.315   1.551   0.323  0.5761 -0.0774  0.2020
  149MOL0     C20024  12.219   1.676   0.311 -0.8956 -0.3251  0.5696
  149MOL0    Cl20025  12.143   1.661   0.152  0.0617 -0.0749  0.1032
  149MOL0     C20026  12.264   0.764   0.675  0.6537 -1.0816 -0.0815
  149MOL0     C20027  12.133   0.731   0.718  0.4037  0.7509  0.6738
  149MOL0     O20028  11.874   0.835   0.671 -0.1020  0.2013  0.1928
  149MOL0     C20029  11.642   0.925   0.804  0.4427 -0.3800 -0.3120
  149MOL0     C20030  11.526   0.955   0.865 -0.8148 -0.7012  0.4985
  149MOL0     N20031  11.452   1.514   1.430  0.4297 -0.8770  0.7480
  149MOL0     N20032  11.474   1.536   1.554 -0.6193 -0.1369 -0.0575
  149MOL0     C20033  10.761   0.916   1.368 -0.8170  0.3471 -0.2862
  149MOL0     C20034  10.766   0.929   1.233 -0.5427 -0.0608  0.1235
  149MOL0     C20035  10.970   1.072   0.822 -0.1005  0.5832 -0.5767
  149MOL0     C20036  10.856   1.103   0.763  0.4968  0.4019  0.6331
  149MOL0     C20037  10.842   1.144   0.623 -0.1734  0.0670 -0.8553
  149MOL0     C20038  10.947   1.164   0.545  0.6173  0.2631 -0.5498
  149MOL0     O20039  10.922   1.225   0.421  0.2276 -0.3025 -0.2904
  149MOL0     C20040  11.040   1.266   0.352  0.4088  0.0346  0.1277
  149MOL0     C20041  10.997   1.360   0.232 -0.2526  0.4816 -0.8397
  149MOL0     C20042  11.108   1.403   0.145 -0.7274  0.1962 -0.6664
  149MOL0     C20043  11.050   1.467   0.019 -1.4869 -0.1552 -0.3139
  149MOL0     C20044  11.035   1.606   0.031  0.4343 -0.2062  0.0436
  149MOL0     C20045  11.016   1.719   0.059 -0.7250 -1.0417 -0.2194
  149MOL0     C20046  11.068   1.137   0.597 -0.0930  0.6926 -0.1142
  149MOL0     C20047  11.084   1.077   0.731 -0.2141  0.2505 -0.3053
  149MOL0     H20048  11.000   1.166   1.220 -0.1598 -0.9141 -1.4377
  149MOL0     H20049  11.000   1.128   1.460 -0.3420 -0.3410  0.4295
  149MOL0     H20050  10.928   0.956   1.780 -1.3698  3.9653  1.6468
  149MOL0     H20051  11.023   1.009   1.640  1.3116 -2.5329  2.6000
  149MOL0     H20052  10.803   1.194   1.645 -1.0057 -1.3570 -0.3794
  149MOL0     H20053  10.792   1.128   1.797 -0.7160  1.4064 -0.1275
  149MOL0     H20054  10.932   1.328   1.826  2.6264 -1.2090  3.4251
  149MOL0     H20055  11.045   1.203   1.828  2.1209 -0.0594 -1.9059
  149MOL0     H20056  11.123   1.262   1.586  0.3622  1.0953  1.4310
  149MOL0     H20057  10.964   1.332   1.565 -3.7221  0.8341  3.9865
  149MOL0     H20058  11.145   1.509   1.602  1.5648  2.9299  3.2390
  149MOL0     H20059  11.004   1.526   1.672  1.2744  1.8116 -0.6482
  149MOL0     H20060  11.234   1.574   1.795  0.4228 -0.5404 -2.7393
  149MOL0     H20061  11.127   1.479   1.895  0.6427 -0.8949 -0.3310
  149MOL0     H20062  11.312   1.332   1.916  2.2153  1.8356  0.4824
  149MOL0     H20063  11.266   1.287   1.755  1.8325 -1.0829  0.4997
  149MOL0     H20064  11.513   1.345   1.775  2.7783  2.5525  0.7163
  149MOL0     H20065  11.455   1.507   1.797 -1.9231  0.2069 -0.1404
  149MOL0     H20066  11.331   1.246   1.551  2.8966  0.0607  3.6575
  149MOL0     H20067  11.251   1.372   1.270 -1.0675 -1.3105  3.9998
  149MOL0     H20068  11.415   1.375   1.187 -0.0592 -1.4879 -1.0301
  149MOL0     H20069  11.270   1.150   1.326 -0.8336  0.6014  0.4407
  149MOL0     H20070  11.443   1.153   1.329 -0.6766  1.5970  1.1031
  149MOL0     H20071  11.424   1.166   1.058  1.8376 -1.8970  0.7021
  149MOL0     H20072  11.245   1.136   1.101  0.1751  0.5444  0.8497
  149MOL0     H20073  11.272   0.929   1.201 -0.8993  2.3644  0.8302
  149MOL0     H20074  11.445   0.929   1.174  0.7455  2.2570  0.4035
  149MOL0     H20075  11.489   0.702   1.075  0.9378  1.2170  2.4871
  149MOL0     H20076  11.835   0.585   1.031  1.0901 -3.2546 -3.2577
  149MOL0     H20077  11.670   0.541   1.057  0.2120 -0.6724  0.3859
  149MOL0     H20078  11.751   0.528   0.897 -0.4464 -0.8781  1.3366
  149MOL0     H20079  12.111   0.922   0.998 -0.0016 -1.3768  0.7098
  149MOL0     H20080  12.350   0.976   0.925  0.7222  2.6339 -1.9283
  149MOL0     H20081  12.559   1.019   0.816 -0.3324  0.1069 -0.4198
  149MOL0     H20082  12.622   1.003   0.655  1.8178 -2.8025  1.7636
  149MOL0     H20083  12.404   1.125   0.582  2.6067 -2.4664 -1.2681
  149MOL0     H20084  12.374   1.134   0.754 -0.6651 -1.8184 -0.9609
  149MOL0     H20085  12.637   1.227   0.599  1.0516 -3.1106  2.3935
  149MOL0     H20086  12.591   1.257   0.768  0.7543 -0.8443 -1.1562
  149MOL0     H20087  12.376   1.380   0.688 -0.5645  3.3770  0.2853
  149MOL0     H20088  12.534   1.447   0.684 -2.0194 -0.7045  2.4584
  149MOL0     H20089  12.401   1.310   0.442 -0.8713 -1.8483  5.9166
  149MOL0     H20090  12.554   1.398   0.434  0.9159  0.0922  0.5911
  149MOL0     H20091  12.294   1.540   0.536 -0.3165 -2.4864 -0.2289
  149MOL0     H20092  12.459   1.597   0.497 -0.1187  0.1636  1.8288
  149MOL0     H20093  12.252   1.465   0.302 -0.7795  1.3141 -1.7871
  149MOL0     H20094  12.395   1.551   0.247 -0.0268  1.4674 -0.4794
  149MOL0     H20095  12.279   1.767   0.325 -2.3397  0.4781  1.9095
  149MOL0     H20096  12.137   1.660   0.381 -0.5286 -3.1872  0.4700
  149MOL0     H20097  12.301   0.733   0.578  0.3611  0.0207 -0.5527
  149MOL0     H20098  12.066   0.667   0.662  0.6200  1.0872  0.0113
  149MOL0     H20099  11.690   0.993   0.735  0.6450 -1.9090 -1.7300
  149MOL0     H20100  11.479   1.050   0.840  2.9878  0.8184 -1.8124
  149MOL0     H20101  10.704   0.835   1.412  3.0868 -4.6121 -3.2257
  149MOL0     H20102  10.686   0.891   1.170 -0.1021  2.7332 -2.3272
  149MOL0     H20103  10.764   1.099   0.820  0.3990  1.3442  0.5452
  149MOL0     H20104  10.746   1.178   0.585  0.3956  0.9611 -1.5301
  149MOL0     H20105  11.107   1.326   0.415 -1.3157  1.8131  0.3900
  149MOL0     H20106  11.097   1.185   0.306  0.5315  1.0482 -1.6082
  149MOL0     H20107  10.952   1.447   0.280  1.4165  0.9372 -0.0529
  149MOL0     H20108  10.934   1.294   0.171  1.9967 -1.0918 -1.6039
  149MOL0     H20109  11.165   1.310   0.137  2.0981  1.6206  1.1325
  149MOL0     H20110  11.172   1.479   0.191 -2.4808  1.1868  0.2524
  149MOL0     H20111  10.953   1.417   0.006 -1.3365 -1.1403  1.9687
  149MOL0     H20112  11.125   1.445  -0.057 -0.3975  1.9231  0.1021
  149MOL0     H20113  10.988   1.820   0.082  0.2354 -1.0576  1.1191
  149MOL0     H20114  11.155   1.162   0.537 -0.1565  2.4252  0.4634
  149MOL0     H20115  11.183   1.051   0.766  0.2785 -2.4204 -3.2770
  150MOL0     O20116   5.828   0.495   3.712 -0.0556  0.3140  0.4830
  150MOL0     C20117   5.924   0.432   3.767  0.5647 -0.6440 -0.0416
  150MOL0     O20118   6.034   0.403   3.705  0.0066 -0.3224  0.0663
  150MOL0     C20119   6.067   0.474   3.589 -0.3334 -0.1277  0.2000
  150MOL0     C20120   6.095   0.405   3.471  0.4691  0.2559  0.8755
  150MOL0     C20121   6.142   0.483   3.364  0.2975  0.7703  0.5404
  150MOL0     C20122   6.164   0.623   3.373 -0.5198  0.7051  0.0680
  150MOL0     O20123   6.215   0.681   3.264 -0.7077 -0.7145  0.0063
  150MOL0     C20124   6.153   0.808   3.231 -0.0944 -0.1266  0.4259
  150MOL0     C20125   6.007   0.801   3.187 -0.2893 -0.2701 -0.9946
  150MOL0     C20126   5.978   0.682   3.099 -0.3268  0.0552 -0.8177
  150MOL0     C20127   5.893   0.703   2.981 -0.3394 -0.0211 -0.0136
  150MOL0     C20128   5.973   0.794   2.884 -1.3153 -0.0694  0.8946
  150MOL0     C20129   5.879   0.867   2.783 -0.0937  0.1349  0.0390
  150MOL0     C20130   5.774   0.776   2.725 -0.1748  0.1476 -0.6522
  150MOL0     C20131   5.640   0.858   2.717 -0.7714 -0.5860  0.1031
  150MOL0     N20132   5.646   0.963   2.618  0.1864 -0.3944  1.1987
  150MOL0     C20133   5.653   0.942   2.479 -0.7631 -0.6296  0.2028
  150MOL0     C20134   5.619   1.062   2.437  0.6224 -0.2319 -0.3980
  150MOL0     C20135   5.600   1.107   2.292 -0.0867  0.3033 -0.3688
  150MOL0     C20136   5.725   1.083   2.207  0.2591  0.0812  0.3056
  150MOL0     C20137   5.852   1.165   2.268  1.3153 -0.3613  0.3826
  150MOL0     C20138   5.828   1.319   2.241  1.6401  0.1891 -0.2727
  150MOL0     O20139   5.948   1.385   2.277 -0.1027 -0.5585  0.0711
  150MOL0     C20140   5.973   1.391   2.416 -0.5027  1.0477 -0.0048
  150MOL0     C20141   5.877   1.403   2.515 -0.2876 -1.4230  0.7140
  150MOL0     C20142   5.909   1.381   2.651  0.0568 -0.0992  0.2626
  150MOL0     C20143   5.801   1.369   2.745  0.5414 -0.1320  0.1083
  150MOL0     C20144   6.046   1.354   2.689  0.2384 -0.1097  0.1808
  150MOL0     C20145   6.091   1.331   2.830  0.0851 -0.0387 -0.4559
  150MOL0     O20146   6.127   1.203   2.861  1.2018  0.2030  0.1704
  150MOL0     C20147   6.149   1.169   2.993 -1.2254 -0.4704  0.1095
  150MOL0     C20148   6.278   1.145   3.039  0.7911 -0.1552  0.5800
  150MOL0     C20149   6.294   1.145   3.179 -0.4972  0.8794  0.5594
  150MOL0     C20150   6.196   1.155   3.274 -0.1647 -0.5435  0.5645
  150MOL0     O20151   6.214   1.133   3.410 -0.1836  0.6573  0.4224
  150MOL0     C20152   6.335   1.069   3.458 -0.0510  0.6912 -0.4669
  150MOL0     C20153   6.342   1.063   3.604 -0.1296 -0.5142  0.1363
  150MOL0     C20154   6.437   0.951   3.646 -0.1233 -0.5299  0.2494
  150MOL0     C20155   6.374   0.912   3.786 -0.8730 -0.3723 -0.0297
  150MOL0     C20156   6.454   0.792   3.840 -0.5292  0.0472 -0.7733
  150MOL0     C20157   6.595   0.829   3.893  0.6782 -0.1381  0.2179
  150MOL0     C20158   6.614   0.967   3.978  0.9778 -0.0866  0.5147
  150MOL0     C20159   6.536   0.961   4.108 -0.5164 -1.2361  0.0703
  150MOL0    Cl20160   6.605   0.829   4.212  0.0595  0.6281  0.4299
  150MOL0     C20161   6.065   1.165   3.234  0.0484 -0.1217 -0.1558
  150MOL0     C20162   6.037   1.172   3.091 -0.0283  0.0716  0.2095
  150MOL0     O20163   6.082   1.424   2.911  0.5310 -0.0134  0.1154
  150MOL0     C20164   6.145   1.357   2.594 -0.3669  0.8813  0.2979
  150MOL0     C20165   6.102   1.367   2.457  0.4716 -0.2059 -0.0177
  150MOL0     N20166   5.594   1.153   2.540 -0.4464  0.6117 -0.1142
  150MOL0     N20167   5.606   1.088   2.645  0.2313 -0.2256 -0.0115
  150MOL0     C20168   6.142   0.684   3.493  0.2829  0.1212  0.9785
  150MOL0     C20169   6.089   0.618   3.599  0.1881 -0.0645  0.5607
  150MOL0     C20170   5.901   0.367   3.896  0.1707 -0.2074 -0.0506
  150MOL0     C20171   5.988   0.281   3.963  0.2494 -0.6966  0.7040
  150MOL0     C20172   5.965   0.240   4.094 -1.0504 -1.0066  0.4307
  150MOL0     C20173   5.852   0.266   4.164  0.2733  0.6360  0.5066
  150MOL0     O20174   5.843   0.221   4.304 -0.0048 -0.0422  0.7565
  150MOL0     C20175   5.797   0.310   4.403  0.8555 -0.6736  0.0887
  150MOL0     C20176   5.915   0.347   4.505 -0.0166 -0.3547  0.2214
  150MOL0     C20177   6.021   0.440   4.445 -0.3913 -0.2649  0.1150
  150MOL0     C20178   6.119   0.472   4.548 -0.6105 -0.8727  0.3124
  150MOL0     C20179   6.182   0.369   4.628  0.3035 -0.4037 -0.4979
  150MOL0     C20180   6.238   0.295   4.707 -1.2565  0.5356 -1.0115
  150MOL0     C20181   5.752   0.342   4.094 -0.4407  0.0059 -0.0360
  150MOL0     C20182   5.782   0.395   3.965 -0.0976  0.7030  0.7607
  150MOL0     H20183   6.086   0.297   3.458  3.4827 -0.2747  2.3411
  150MOL0     H20184   6.185   0.437   3.275  2.3250 -1.1504  2.4109
  150MOL0     H20185   6.170   0.891   3.300 -1.8477  1.7702 -1.2972
  150MOL0     H20186   6.221   0.843   3.152  3.4268 -2.7939  1.9892
  150MOL0     H20187   5.963   0.785   3.286 -3.9162 -0.7850 -2.5623
  150MOL0     H20188   5.981   0.900   3.150  1.9367  0.6727 -0.2585
  150MOL0     H20189   6.076   0.652   3.061  0.5356  1.6828  0.0060
  150MOL0     H20190   5.929   0.602   3.154 -1.3297  1.3471  0.2141
  150MOL0     H20191   5.872   0.611   2.925 -0.0589 -0.4731  0.6138
  150MOL0     H20192   5.792   0.741   2.998 -0.7759  0.0150 -2.3859
  150MOL0     H20193   6.033   0.864   2.944  0.6405 -1.3197  0.5088
  150MOL0     H20194   6.036   0.719   2.836  2.4562  2.8193  0.8648
  150MOL0     H20195   5.832   0.950   2.837  0.5594  0.4557  0.1237
  150MOL0     H20196   5.947   0.916   2.713 -1.2343  1.3685 -0.2509
  150MOL0     H20197   5.816   0.728   2.637  2.3630  2.7680 -1.0212
  150MOL0     H20198   5.745   0.694   2.792  2.6633  0.8620  1.6618
  150MOL0     H20199   5.609   0.890   2.817  3.5101 -2.5785  2.3097
  150MOL0     H20200   5.561   0.797   2.674  0.0665 -1.2936 -0.4661
  150MOL0     H20201   5.674   0.850   2.426 -1.9550  0.2588 -1.9371
  150MOL0     H20202   5.519   1.043   2.257  0.5932 -3.6580  4.2032
  150MOL0     H20203   5.577   1.214   2.295  0.6061  0.5047  3.3674
  150MOL0     H20204   5.714   1.106   2.101  0.9794  0.0218  0.2125
  150MOL0     H20205   5.751   0.977   2.207  0.4296  0.1162 -0.4002
  150MOL0     H20206   5.939   1.130   2.213 -0.1339 -1.5914 -1.2119
  150MOL0     H20207   5.874   1.135   2.371 -0.3836 -3.2860  0.0043
  150MOL0     H20208   5.740   1.358   2.293  0.5781 -1.0436 -1.0667
  150MOL0     H20209   5.824   1.339   2.133  1.2764 -4.1035 -1.2372
  150MOL0     H20210   5.777   1.433   2.487  0.3419 -0.0942 -0.1938
  150MOL0     H20211   5.783   1.467   2.792  0.9745  1.0984 -2.1374
  150MOL0     H20212   5.707   1.351   2.692 -0.1179  1.1739  0.7769
  150MOL0     H20213   5.813   1.293   2.822 -0.8008  1.5935  2.1564
  150MOL0     H20214   6.359   1.143   2.967  0.6857 -0.0085  0.4554
  150MOL0     H20215   6.392   1.126   3.221 -1.5394 -2.5220  1.7336
  150MOL0     H20216   6.336   0.965   3.425 -1.6607  1.0401 -1.7852
  150MOL0     H20217   6.426   1.123   3.430  0.7874  3.1969  5.6093
  150MOL0     H20218   6.376   1.162   3.635 -0.8858  0.3397 -1.6197
  150MOL0     H20219   6.238   1.042   3.634 -0.3979  1.4208  0.6714
  150MOL0     H20220   6.542   0.981   3.643 -0.5363  1.0742  0.9823
  150MOL0     H20221   6.427   0.866   3.578 -2.6257 -0.8354  0.9204
  150MOL0     H20222   6.371   1.003   3.847 -2.5116  0.7987 -1.7488
  150MOL0     H20223   6.279   0.861   3.765 -1.0532  0.7763 -2.1798
  150MOL0     H20224   6.435   0.700   3.784  0.3811 -1.7197  1.6504
  150MOL0     H20225   6.409   0.774   3.938  2.2690  0.4653  0.6885
  150MOL0     H20226   6.623   0.741   3.953  0.2743 -1.2248 -1.1398
  150MOL0     H20227   6.651   0.825   3.799  0.2389 -1.9525 -0.0066
  150MOL0     H20228   6.589   1.052   3.914  3.1751 -0.0575 -0.4105
  150MOL0     H20229   6.718   0.983   4.007  1.2800 -1.7373  0.4813
  150MOL0     H20230   6.431   0.934   4.093 -0.4502 -3.1290  2.4877
  150MOL0     H20231   6.542   1.057   4.160  1.3214 -1.2401 -0.0563
  150MOL0     H20232   5.994   1.184   3.314  1.4341  0.8228  0.9147
  150MOL0     H20233   5.940   1.185   3.043 -0.6875 -1.8320  0.9263
  150MOL0     H20234   6.249   1.344   2.621 -0.3843 -0.1604 -0.1112
  150MOL0     H20235   6.187   1.368   2.389 -0.1387  1.5391 -0.7996
  150MOL0     H20236   6.166   0.789   3.506  3.9629 -0.7018  2.0862
  150MOL0     H20237   6.066   0.655   3.698  0.2421  1.8907 -0.1074
  150MOL0     H20238   6.088   0.266   3.925  0.5378 -1.8677  1.8716
  150MOL0     H20239   6.030   0.177   4.153 -0.6196 -1.4157 -0.4536
  150MOL0     H20240   5.769   0.403   4.353  2.7595  0.3338  0.7677
  150MOL0     H20241   5.720   0.265   4.466  0.2502 -0.1315 -0.2564
  150MOL0     H20242   5.971   0.257   4.530 -0.5233 -0.4746  0.9465
  150MOL0     H20243   5.870   0.379   4.599 -0.4545 -1.7908  0.5178
  150MOL0     H20244   5.963   0.529   4.418 -0.7409 -0.8706 -1.2286
  150MOL0     H20245   6.051   0.412   4.343 -2.6735  4.3174 -2.1084
  150MOL0     H20246   6.064   0.533   4.620  0.6515  0.3395  0.2985
  150MOL0     H20247   6.194   0.532   4.494 -1.8815  1.2741  0.8113
  150MOL0     H20248   6.287   0.233   4.779 -1.7408  1.5545  0.2438
  150MOL0     H20249   5.659   0.375   4.139 -2.4105  1.1159 -4.4283
  150MOL0     H20250   5.711   0.467   3.926 -0.7657  0.3561  1.3191
  151MOL0     O20251   0.957   3.937   0.927  0.1718  0.2776 -0.0933
  151MOL0     C20252   1.066   3.984   0.895  0.8440 -0.2763 -0.4461
  151MOL0     O20253   1.169   4.005   0.990 -0.5578  0.1943 -0.0909
  151MOL0     C20254   1.150   3.967   1.123  0.5385 -0.0630  0.1328
  151MOL0     C20255   1.165   4.059   1.232 -0.4709  0.4859 -0.2644
  151MOL0     C20256   1.183   4.012   1.367 -0.2781  0.2608 -0.2168
  151MOL0     C20257   1.183   3.876   1.404  0.6233 -0.0794  0.3321
  151MOL0     O20258   1.188   3.831   1.531  0.4110 -0.0848 -0.9533
  151MOL0     C20259   1.062   3.782   1.585 -0.2041 -0.0886  0.5642
  151MOL0     C20260   1.089   3.686   1.706 -0.4192 -1.3049 -0.8681
  151MOL0     C20261   1.194   3.569   1.685 -0.4985  0.5284 -0.5577
  151MOL0     C20262   1.117   3.447   1.608 -0.0309  1.1935 -0.5917
  151MOL0     C20263   1.225   3.333   1.578  0.7163  0.7644 -0.4762
  151MOL0     C20264   1.154   3.192   1.545  0.1738 -0.4195  0.0637
  151MOL0     C20265   1.256   3.078   1.500 -0.7880  0.1613 -0.6413
  151MOL0     C20266   1.174   2.952   1.493 -0.4831  0.2777  0.1330
  151MOL0     N20267   1.261   2.837   1.463 -0.3919  0.8617 -0.2675
  151MOL0     C20268   1.267   2.771   1.341  0.0851  0.8892  0.3969
  151MOL0     C20269   1.367   2.680   1.356  0.1581  0.2444 -0.2916
  151MOL0     C20270   1.407   2.576   1.253 -0.9172 -0.7553  0.3712
  151MOL0     C20271   1.470   2.647   1.134  0.5340 -0.8458  0.3889
  151MOL0     C20272   1.530   2.539   1.048  0.5198  0.6499  0.2444
  151MOL0     C20273   1.434   2.462   0.952 -0.0064  0.4308 -0.4987
  151MOL0     O20274   1.373   2.542   0.849  0.3377  0.1955  0.0046
  151MOL0     C20275   1.294   2.470   0.760 -0.2340  0.0678 -0.6161
  151MOL0     C20276   1.341   2.372   0.677 -1.5974  0.5539 -0.7831
  151MOL0     C20277   1.265   2.304   0.589  0.5688  0.3501 -0.4296
  151MOL0     C20278   1.340   2.199   0.504 -0.2585  0.0600  0.2336
  151MOL0     C20279   1.129   2.330   0.579  0.6980  0.2087 -0.4561
  151MOL0     C20280   1.029   2.267   0.477  1.2278  0.4068 -0.8612
  151MOL0     O20281   0.902   2.322   0.459  0.3760 -0.3257 -0.5443
  151MOL0     C20282   0.799   2.269   0.376 -0.7265 -0.2623 -1.1922
  151MOL0     C20283   0.779   2.136   0.354  0.6078 -0.5062 -0.6261
  151MOL0     C20284   0.697   2.090   0.247 -0.3527  0.6079 -0.6001
  151MOL0     C20285   0.613   2.182   0.178  0.7724 -0.3693 -0.3014
  151MOL0     O20286   0.518   2.151   0.083 -0.1138 -0.7634  0.3399
  151MOL0     C20287   0.503   2.019   0.031 -0.4232  0.4197 -0.6308
  151MOL0     C20288   0.400   2.032  -0.074 -0.6228 -0.2970  0.7794
  151MOL0     C20289   0.324   1.909  -0.118 -0.6516 -0.6345  0.4068
  151MOL0     C20290   0.226   1.873  -0.015  0.3437  0.4117  0.2635
  151MOL0     C20291   0.129   1.772  -0.076  0.5180  0.3525  0.4297
  151MOL0     C20292   0.024   1.713   0.029 -0.0958  0.9252  0.4677
  151MOL0     C20293  -0.061   1.595  -0.022 -0.0967  0.4007 -0.0992
  151MOL0     C20294   0.006   1.459  -0.039 -0.2583  1.1222 -0.2938
  151MOL0    Cl20295  -0.111   1.334  -0.099 -0.3740 -0.6216  0.3845
  151MOL0     C20296   0.613   2.318   0.222 -0.8442 -0.1581 -0.1900
  151MOL0     C20297   0.710   2.364   0.314  0.1151 -0.3248  1.1997
  151MOL0     O20298   1.067   2.177   0.406 -0.7780  0.0311 -0.3143
  151MOL0     C20299   1.079   2.442   0.652 -0.3860  1.0950  0.4670
  151MOL0     C20300   1.165   2.510   0.740  1.3947 -0.0502 -0.7269
  151MOL0     N20301   1.426   2.704   1.477 -0.1800 -0.1039 -0.5191
  151MOL0     N20302   1.361   2.790   1.544 -0.1103 -0.3059 -0.5558
  151MOL0     C20303   1.166   3.787   1.295  0.3028 -0.7818 -0.4068
  151MOL0     C20304   1.155   3.833   1.161 -0.1388 -0.0876  0.3717
  151MOL0     C20305   1.080   4.030   0.754  0.4258 -0.3309  0.2197
  151MOL0     C20306   1.203   4.047   0.687 -1.3201  0.3032 -1.0654
  151MOL0     C20307   1.218   4.098   0.558  0.3763  1.3004 -0.5778
  151MOL0     C20308   1.099   4.136   0.489 -0.1710  0.9595 -0.1514
  151MOL0     O20309   1.100   4.184   0.366  0.2007 -0.3568 -0.0101
  151MOL0     C20310   1.219   4.240   0.321 -0.3907 -1.0253  1.3732
  151MOL0     C20311   1.192   4.299   0.183 -0.2667  0.4014 -0.8253
  151MOL0     C20312   1.096   4.414   0.187  0.7036  0.1832  0.1900
  151MOL0     C20313   1.095   4.489   0.058 -1.1272 -1.1277  0.1936
  151MOL0     C20314   1.209   4.580   0.050 -0.5156  0.3222  0.7251
  151MOL0     C20315   1.300   4.658   0.060 -0.3766 -0.0686  0.1222
  151MOL0     C20316   0.975   4.107   0.547  0.2813 -0.6291 -0.2491
  151MOL0     C20317   0.962   4.051   0.678  0.5773 -0.3971 -0.0658
  151MOL0     H20318   1.168   4.164   1.204 -1.8144  1.1835  1.9213
  151MOL0     H20319   1.184   4.086   1.446 -2.7609  1.5871 -1.3292
  151MOL0     H20320   0.998   3.867   1.613  0.8550  0.8183  0.2796
  151MOL0     H20321   1.020   3.721   1.504  1.5495 -1.0512  0.3351
  151MOL0     H20322   1.144   3.755   1.772 -0.9135 -0.2631 -1.5114
  151MOL0     H20323   0.993   3.663   1.751  0.0866 -1.3811  0.2112
  151MOL0     H20324   1.283   3.597   1.629  0.7153 -3.4745 -0.9286
  151MOL0     H20325   1.236   3.530   1.778 -0.4385  4.6223  1.3419
  151MOL0     H20326   1.030   3.408   1.663 -1.1438  1.2786 -2.2140
  151MOL0     H20327   1.074   3.471   1.510 -2.9617 -1.4896 -0.1392
  151MOL0     H20328   1.285   3.367   1.493  1.3479  0.0971 -0.3056
  151MOL0     H20329   1.288   3.304   1.663  0.5736 -3.6112 -1.6229
  151MOL0     H20330   1.095   3.158   1.630 -1.4336  2.3160  0.1563
  151MOL0     H20331   1.082   3.216   1.467 -0.4895 -0.5328  0.6369
  151MOL0     H20332   1.288   3.109   1.400  2.0502  1.5150  0.5956
  151MOL0     H20333   1.343   3.071   1.565 -0.6051 -0.0966 -0.9100
  151MOL0     H20334   1.094   2.970   1.421 -0.6231  2.5350  0.7701
  151MOL0     H20335   1.123   2.919   1.584 -0.8653  0.3699 -0.0471
  151MOL0     H20336   1.212   2.780   1.248 -0.0393 -0.1459  0.3604
  151MOL0     H20337   1.479   2.505   1.295  3.0363  0.5888 -3.4006
  151MOL0     H20338   1.317   2.523   1.221 -0.8524  0.2228 -1.5679
  151MOL0     H20339   1.546   2.719   1.166 -0.4036 -0.3498  1.6108
  151MOL0     H20340   1.399   2.714   1.085  1.5508  0.1886  0.2651
  151MOL0     H20341   1.593   2.473   1.108  1.2056  1.6128  0.6087
  151MOL0     H20342   1.605   2.561   0.972  1.2709 -4.5213 -0.8797
  151MOL0     H20343   1.356   2.410   1.008  1.5305 -0.3251  1.0322
  151MOL0     H20344   1.493   2.383   0.904 -0.7983 -0.9417  0.6996
  151MOL0     H20345   1.447   2.350   0.683 -2.0079 -1.8376 -1.3033
  151MOL0     H20346   1.438   2.175   0.547 -0.9313 -0.7429  1.3778
  151MOL0     H20347   1.299   2.097   0.499 -2.1843  0.8504 -1.6886
  151MOL0     H20348   1.355   2.232   0.401  0.9367  1.2630  0.7587
  151MOL0     H20349   0.835   2.070   0.419  1.3706 -1.0548 -1.8037
  151MOL0     H20350   0.698   1.983   0.228 -0.5222  0.6591 -0.9103
  151MOL0     H20351   0.603   1.988  -0.001  0.9906  2.1283  1.7860
  151MOL0     H20352   0.476   1.954   0.114  1.0949 -3.3885 -2.8484
  151MOL0     H20353   0.328   2.107  -0.038 -1.6096 -1.9298  2.3585
  151MOL0     H20354   0.438   2.069  -0.170 -3.6411 -1.8286 -1.1952
  151MOL0     H20355   0.391   1.824  -0.134  1.3452 -0.3286  5.4704
  151MOL0     H20356   0.263   1.930  -0.207 -1.2870  0.6044  1.1142
  151MOL0     H20357   0.273   1.816   0.066 -1.1529 -2.0570 -0.5218
  151MOL0     H20358   0.175   1.964   0.017 -1.9128 -0.6929 -0.0188
  151MOL0     H20359   0.182   1.691  -0.127  0.2293  0.1624  0.4244
  151MOL0     H20360   0.081   1.822  -0.161  1.3357  4.7911  2.3335
  151MOL0     H20361   0.067   1.699   0.129 -1.3124  0.1816  0.9014
  151MOL0     H20362  -0.057   1.785   0.043  0.0927  1.1865  0.2572
  151MOL0     H20363  -0.092   1.632  -0.120  0.6582 -2.3535 -1.4759
  151MOL0     H20364  -0.142   1.582   0.051  1.7670 -1.2572  1.8273
  151MOL0     H20365   0.039   1.424   0.059  1.0695  1.0831 -0.7346
  151MOL0     H20366   0.088   1.445  -0.110 -1.3541 -1.2861 -1.1839
  151MOL0     H20367   0.545   2.398   0.193 -0.1431  1.6210  2.6728
  151MOL0     H20368   0.722   2.471   0.323 -0.5887 -0.2533  1.3236
  151MOL0     H20369   0.978   2.481   0.653  0.8322  4.6035  1.2810
  151MOL0     H20370   1.127   2.596   0.795  5.2667  1.5331 -0.1707
  151MOL0     H20371   1.173   3.681   1.318 -0.1745 -0.7391 -0.0529
  151MOL0     H20372   1.163   3.772   1.071 -0.8649  0.2754  0.0481
  151MOL0     H20373   1.295   4.031   0.743 -0.5804  0.6533 -2.1361
  151MOL0     H20374   1.317   4.123   0.520  1.3583  3.8039  3.1173
  151MOL0     H20375   1.263   4.308   0.395 -0.5213 -0.4915  0.9652
  151MOL0     H20376   1.297   4.163   0.314 -2.4935 -3.4340  2.7678
  151MOL0     H20377   1.160   4.224   0.110  0.4446 -0.4941 -0.2392
  151MOL0     H20378   1.294   4.327   0.155  0.0542  3.9224  2.9120
  151MOL0     H20379   1.122   4.481   0.269 -0.1095 -0.3348  0.8975
  151MOL0     H20380   0.992   4.385   0.206 -0.0006  2.4526  0.1010
  151MOL0     H20381   1.003   4.548   0.049  0.1068  0.5945 -2.6869
  151MOL0     H20382   1.098   4.420  -0.027 -0.9275 -1.8724  0.7989
  151MOL0     H20383   1.381   4.727   0.048  0.4322 -1.1968 -1.1715
  151MOL0     H20384   0.891   4.140   0.486 -0.8169  0.5965  1.8425
  151MOL0     H20385   0.869   4.043   0.735  1.0132 -1.1578  0.5595
  152MOL0     O20386   3.434   9.627   6.604 -1.6191  0.0467 -0.2183
  152MOL0     C20387   3.362   9.531   6.625  0.5521 -0.3542  0.4804
  152MOL0     O20388   3.292   9.468   6.525 -0.0889 -0.2891 -0.1121
  152MOL0     C20389   3.306   9.508   6.392  0.4616 -0.5662  0.4836
  152MOL0     C20390   3.356   9.419   6.297  0.1140 -0.2038 -0.3290
  152MOL0     C20391   3.396   9.455   6.173  0.5395  1.7487 -0.4697
  152MOL0     C20392   3.391   9.589   6.132 -1.1884  0.5583 -0.2039
  152MOL0     O20393   3.430   9.656   6.019  0.7162  0.1567 -0.3324
  152MOL0     C20394   3.386   9.610   5.890 -0.6616 -0.0092 -0.2319
  152MOL0     C20395   3.521   9.576   5.816  0.1210  0.6229 -0.7030
  152MOL0     C20396   3.580   9.708   5.775 -0.8846  0.5261  1.8099
  152MOL0     C20397   3.728   9.704   5.726  0.9539 -1.4085 -0.0822
  152MOL0     C20398   3.764   9.823   5.633  0.1342 -0.6322  0.1834
  152MOL0     C20399   3.763   9.948   5.712  1.1009  0.1457  0.9024
  152MOL0     C20400   3.747  10.074   5.628  0.3351 -0.6032 -0.3521
  152MOL0     C20401   3.715  10.204   5.714 -0.1636  0.2115 -0.3882
  152MOL0     N20402   3.844  10.252   5.767  0.1019 -0.3169 -0.2312
  152MOL0     C20403   3.872  10.264   5.896 -0.0592 -0.2997 -1.5341
  152MOL0     C20404   4.005  10.294   5.895 -0.2275 -0.5888  0.3779
  152MOL0     C20405   4.100  10.318   6.015  0.7099  0.5917 -0.5618
  152MOL0     C20406   4.119  10.176   6.081 -0.7226  0.6739 -0.6211
  152MOL0     C20407   4.233  10.151   6.179  0.5725  0.0265 -0.2397
  152MOL0     C20408   4.262  10.261   6.289  0.3782  0.0712 -0.9257
  152MOL0     O20409   4.134  10.293   6.368  0.3724  0.8813  0.6158
  152MOL0     C20410   4.102  10.200   6.462  0.3824 -0.0733 -0.6528
  152MOL0     C20411   4.175  10.199   6.583  0.0368  0.5492  0.1636
  152MOL0     C20412   4.147  10.104   6.680 -0.0649  0.0857  1.6342
  152MOL0     C20413   4.220  10.106   6.808  0.1470  1.6812 -0.4529
  152MOL0     C20414   4.036  10.017   6.656  0.2710  0.2334  0.2531
  152MOL0     C20415   3.996   9.907   6.752 -0.0056 -0.2617  0.9080
  152MOL0     O20416   3.861   9.883   6.748 -0.5671 -0.4318  0.0121
  152MOL0     C20417   3.826   9.757   6.787 -0.2332 -0.3731 -0.6986
  152MOL0     C20418   3.852   9.648   6.709  1.0358  0.2863 -0.2115
  152MOL0     C20419   3.827   9.514   6.750 -0.3836 -0.9511 -0.6325
  152MOL0     C20420   3.785   9.501   6.886 -0.6360  0.0426 -0.0605
  152MOL0     O20421   3.762   9.388   6.956  0.1974  0.0773  0.1346
  152MOL0     C20422   3.723   9.270   6.883 -0.3099  0.2274  0.1301
  152MOL0     C20423   3.659   9.170   6.984 -0.3300 -0.4789 -0.2876
  152MOL0     C20424   3.770   9.108   7.070  0.3827 -0.5277 -0.1823
  152MOL0     C20425   3.718   9.025   7.191  0.6157  0.0470 -0.6040
  152MOL0     C20426   3.827   9.016   7.291 -1.2875 -0.6748 -0.0459
  152MOL0     C20427   3.805   8.909   7.399  0.0129  0.4856 -0.4495
  152MOL0     C20428   3.853   8.773   7.358  0.1702 -1.1717 -0.8015
  152MOL0     C20429   3.869   8.678   7.483  0.5924  0.3160 -0.0644
  152MOL0    Cl20430   3.910   8.507   7.437  0.2009  0.6076  0.2662
  152MOL0     C20431   3.763   9.613   6.964  1.4250 -0.3306 -0.6650
  152MOL0     C20432   3.760   9.741   6.910 -0.8938 -0.0731 -0.2089
  152MOL0     O20433   4.081   9.853   6.828 -0.3556  0.6165  0.3498
  152MOL0     C20434   3.952  10.029   6.539 -0.3806  0.4897 -0.2452
  152MOL0     C20435   3.985  10.129   6.442 -0.2833  0.1822  0.7538
  152MOL0     N20436   4.050  10.304   5.761  0.0223 -1.0158  0.2235
  152MOL0     N20437   3.945  10.290   5.692  0.0717 -0.1454 -0.1180
  152MOL0     C20438   3.341   9.684   6.222  0.0281 -0.6382 -0.4046
  152MOL0     C20439   3.285   9.641   6.345  1.3751  0.4420  0.5673
  152MOL0     C20440   3.371   9.474   6.761 -0.3385  0.1045  0.2241
  152MOL0     C20441   3.418   9.563   6.862 -0.0903  1.0454 -0.1198
  152MOL0     C20442   3.415   9.525   6.994 -0.3311 -0.2150 -0.4562
  152MOL0     C20443   3.383   9.395   7.034 -0.1293 -0.0525  1.1238
  152MOL0     O20444   3.386   9.337   7.157  0.2832 -0.2397 -0.5306
  152MOL0     C20445   3.418   9.414   7.270 -0.1370 -0.1395 -0.4805
  152MOL0     C20446   3.319   9.522   7.297  0.3005 -0.3663 -0.4267
  152MOL0     C20447   3.343   9.599   7.429  0.6568  0.1367 -0.5257
  152MOL0     C20448   3.466   9.698   7.420 -0.1050 -0.5170  1.3226
  152MOL0     C20449   3.474   9.785   7.296 -0.2906  0.0570 -0.5069
  152MOL0     C20450   3.501   9.872   7.213  0.3591 -0.1103 -0.3066
  152MOL0     C20451   3.342   9.305   6.930 -0.8788 -1.1609 -0.6816
  152MOL0     C20452   3.320   9.343   6.796  0.5470  0.0238  0.6682
  152MOL0     H20453   3.370   9.313   6.314  3.1328  0.1780  0.3058
  152MOL0     H20454   3.445   9.385   6.105 -0.6394  0.0374  0.3572
  152MOL0     H20455   3.320   9.523   5.892  1.7814 -1.9805  1.8725
  152MOL0     H20456   3.326   9.690   5.845  2.1340  2.7888  0.6638
  152MOL0     H20457   3.590   9.523   5.882 -1.2432  0.2164  0.4519
  152MOL0     H20458   3.498   9.524   5.722 -2.4425  1.4824 -0.6284
  152MOL0     H20459   3.522   9.751   5.692 -1.7859 -1.0347  1.5707
  152MOL0     H20460   3.590   9.776   5.860  3.5070  2.1333  0.2693
  152MOL0     H20461   3.796   9.698   5.811  1.8039 -0.1589 -0.6473
  152MOL0     H20462   3.726   9.613   5.665 -1.7275 -0.5692 -1.3881
  152MOL0     H20463   3.863   9.813   5.587 -0.6414 -0.6794 -1.5287
  152MOL0     H20464   3.698   9.817   5.546 -1.5263 -0.0813  1.3615
  152MOL0     H20465   3.671   9.941   5.770  0.7380  0.2308  0.3513
  152MOL0     H20466   3.853   9.959   5.772  0.4698 -1.9622  2.3299
  152MOL0     H20467   3.834  10.090   5.563 -0.9470 -0.7283 -2.1667
  152MOL0     H20468   3.660  10.075   5.562 -0.1491 -1.0563  0.2694
  152MOL0     H20469   3.652  10.180   5.800 -0.7137 -0.3986 -0.9539
  152MOL0     H20470   3.661  10.282   5.661  0.5902  1.2085  0.2780
  152MOL0     H20471   3.801  10.250   5.977 -0.4514 -0.7767 -1.9533
  152MOL0     H20472   4.192  10.362   5.975  1.0059  1.1738  0.7006
  152MOL0     H20473   4.047  10.384   6.085  0.7442 -4.2515  4.8077
  152MOL0     H20474   4.138  10.105   6.000 -1.7503  2.4648 -2.5553
  152MOL0     H20475   4.027  10.148   6.133 -0.2552 -2.4581 -1.3254
  152MOL0     H20476   4.321  10.146   6.115  0.8479  1.3928  0.0141
  152MOL0     H20477   4.234  10.049   6.218  1.5234 -0.2356 -0.9032
  152MOL0     H20478   4.299  10.345   6.229 -0.7090  1.5398  0.3733
  152MOL0     H20479   4.348  10.239   6.353  3.6352  1.5321 -4.3976
  152MOL0     H20480   4.252  10.273   6.602 -0.1524  1.1170 -1.1608
  152MOL0     H20481   4.284  10.192   6.831 -0.4243  2.8076 -2.7900
  152MOL0     H20482   4.143  10.094   6.884  2.4684 -2.1144  1.6045
  152MOL0     H20483   4.276  10.012   6.813 -0.2256  1.3364 -2.1527
  152MOL0     H20484   3.888   9.664   6.608 -0.2148 -2.3334 -1.1616
  152MOL0     H20485   3.861   9.436   6.684  0.2971 -3.9814  2.9627
  152MOL0     H20486   3.659   9.289   6.797  1.7411 -2.2357 -2.0856
  152MOL0     H20487   3.818   9.237   6.839 -0.2465 -2.4831  2.0551
  152MOL0     H20488   3.591   9.235   7.041  2.9315  2.1515  0.8986
  152MOL0     H20489   3.606   9.096   6.922 -2.9613  1.3351 -0.3877
  152MOL0     H20490   3.833   9.187   7.111  2.0179 -1.5871 -0.5726
  152MOL0     H20491   3.837   9.037   7.020 -0.2509 -4.1004  3.4618
  152MOL0     H20492   3.631   9.081   7.227 -0.1285  0.1107 -2.4258
  152MOL0     H20493   3.682   8.927   7.158 -1.8611 -0.1205  2.1319
  152MOL0     H20494   3.831   9.110   7.347 -3.4139  0.0586 -1.0392
  152MOL0     H20495   3.921   9.006   7.235 -3.4242  0.8477 -4.2657
  152MOL0     H20496   3.868   8.945   7.480  0.8006  2.3998 -1.8397
  152MOL0     H20497   3.704   8.895   7.441  0.8415 -0.4229  1.3525
  152MOL0     H20498   3.954   8.790   7.318  1.6982 -1.9368  2.3461
  152MOL0     H20499   3.787   8.741   7.277 -0.7838  0.8684 -0.8774
  152MOL0     H20500   3.776   8.669   7.540  1.1804 -1.1269  0.7338
  152MOL0     H20501   3.943   8.710   7.557  0.0824 -1.6927  1.3944
  152MOL0     H20502   3.740   9.600   7.069 -1.1678  0.7465 -1.0032
  152MOL0     H20503   3.733   9.834   6.959  0.5907  1.1149 -1.5416
  152MOL0     H20504   3.863   9.970   6.516 -1.1491  0.1546  3.1332
  152MOL0     H20505   3.937  10.144   6.346  3.0959  0.8439 -0.9636
  152MOL0     H20506   3.337   9.790   6.198 -1.9664  0.0758  2.5416
  152MOL0     H20507   3.231   9.713   6.407 -0.2425  2.2806 -2.7247
  152MOL0     H20508   3.466   9.658   6.842  2.8341 -0.6010 -1.5760
  152MOL0     H20509   3.453   9.603   7.059  0.8496 -3.0741  2.5154
  152MOL0     H20510   3.416   9.343   7.353 -3.4710 -0.8972 -1.0692
  152MOL0     H20511   3.521   9.450   7.262 -0.0964  0.3217  1.7086
  152MOL0     H20512   3.221   9.476   7.308  0.7949 -1.0623  1.4862
  152MOL0     H20513   3.313   9.597   7.218  0.5487 -1.2204 -1.2841
  152MOL0     H20514   3.363   9.533   7.514 -0.6987  2.4420  1.7301
  152MOL0     H20515   3.250   9.653   7.444  0.8044  0.0772  0.7310
  152MOL0     H20516   3.561   9.644   7.425  0.5425  0.0062 -2.4676
  152MOL0     H20517   3.457   9.762   7.509 -0.7263  0.4167  0.6071
  152MOL0     H20518   3.534   9.944   7.141  0.9044 -1.3904 -1.3788
  152MOL0     H20519   3.317   9.207   6.968 -1.8265 -1.3350 -1.6779
  152MOL0     H20520   3.284   9.274   6.720  2.4892 -0.1886 -0.1222
  153MOL0     O20521   4.681   8.841   7.526 -0.0307 -0.0005  0.0523
  153MOL0     C20522   4.677   8.895   7.413  0.6909 -0.0097  0.5809
  153MOL0     O20523   4.655   9.026   7.390 -0.1979 -0.2037  0.9402
  153MOL0     C20524   4.699   9.118   7.482 -0.2573 -0.7511  0.8521
  153MOL0     C20525   4.606   9.217   7.524  0.6302  0.7413  0.4280
  153MOL0     C20526   4.647   9.314   7.610 -0.1245 -0.3485 -0.1117
  153MOL0     C20527   4.775   9.323   7.665 -0.3471  0.3298 -0.8765
  153MOL0     O20528   4.794   9.419   7.755 -0.2711  0.2509  0.2301
  153MOL0     C20529   4.932   9.477   7.772 -0.2804  0.5270  0.0029
  153MOL0     C20530   4.956   9.558   7.890 -0.0422  0.8286  0.7566
  153MOL0     C20531   4.907   9.704   7.869  1.0672 -0.5964  0.2272
  153MOL0     C20532   4.749   9.710   7.873  0.0676 -0.1012  0.2739
  153MOL0     C20533   4.689   9.848   7.911 -0.3547  0.1873  0.4663
  153MOL0     C20534   4.713   9.889   8.054 -0.0305 -0.2015  0.6208
  153MOL0     C20535   4.614   9.999   8.100  0.3262  0.3594 -0.4080
  153MOL0     C20536   4.500   9.949   8.191 -0.0350 -0.3200 -0.2687
  153MOL0     N20537   4.402  10.062   8.212 -1.5755  0.1979 -0.0830
  153MOL0     C20538   4.278  10.050   8.153  0.0841  0.4566 -1.0550
  153MOL0     C20539   4.216  10.153   8.215 -0.0339 -0.2194  0.9745
  153MOL0     C20540   4.075  10.193   8.185 -0.1498  0.7608  0.0751
  153MOL0     C20541   4.043  10.203   8.030  0.3395  1.1223  0.2489
  153MOL0     C20542   3.895  10.212   8.007 -0.7033  0.4065 -0.6745
  153MOL0     C20543   3.858  10.212   7.857  0.3090 -0.4897  0.2328
  153MOL0     O20544   3.871  10.342   7.807  0.4048 -0.2112  1.2157
  153MOL0     C20545   3.984  10.376   7.746  0.6677  0.2499 -0.4616
  153MOL0     C20546   3.984  10.504   7.697  0.2940 -0.5201 -1.0575
  153MOL0     C20547   4.089  10.557   7.620 -0.0323  0.3925  0.2225
  153MOL0     C20548   4.065  10.690   7.568 -0.1061  0.7959  1.2668
  153MOL0     C20549   4.199  10.478   7.590  0.5066 -0.5942  0.0676
  153MOL0     C20550   4.320  10.514   7.504  0.0521 -0.4784 -0.4869
  153MOL0     O20551   4.310  10.640   7.435 -0.4792 -0.9138 -0.3014
  153MOL0     C20552   4.406  10.683   7.351 -0.0347  0.3382  0.6865
  153MOL0     C20553   4.394  10.811   7.298 -1.0710 -0.4189 -0.2143
  153MOL0     C20554   4.458  10.851   7.186 -0.8927  0.4704  0.0581
  153MOL0     C20555   4.547  10.769   7.109 -0.0689  0.3272 -0.2453
  153MOL0     O20556   4.638  10.790   7.002  0.3024 -0.2210  0.0716
  153MOL0     C20557   4.589  10.885   6.896  0.8994  0.5152  0.0751
  153MOL0     C20558   4.715  10.907   6.811 -0.0066 -0.0493  0.1909
  153MOL0     C20559   4.698  10.992   6.688  0.5043  0.1635 -1.3692
  153MOL0     C20560   4.642  10.922   6.562 -0.9618 -0.2047  0.9840
  153MOL0     C20561   4.644  11.008   6.439 -1.1460  0.0396 -0.8584
  153MOL0     C20562   4.524  10.986   6.351 -0.6798  0.6736 -0.0837
  153MOL0     C20563   4.385  11.005   6.399 -1.4630 -0.1424  0.0183
  153MOL0     C20564   4.301  10.982   6.281  1.2308  0.1924  0.3865
  153MOL0    Cl20565   4.127  11.021   6.326 -0.1049 -0.0646 -0.5106
  153MOL0     C20566   4.562  10.641   7.165  0.4050  0.1524 -0.5213
  153MOL0     C20567   4.496  10.601   7.283  0.4484  0.1595  0.2386
  153MOL0     O20568   4.417  10.436   7.510 -0.0837 -0.3503  0.1604
  153MOL0     C20569   4.199  10.350   7.654  0.5664 -0.0605  0.5622
  153MOL0     C20570   4.098  10.297   7.729  0.1614  0.2204  1.2304
  153MOL0     N20571   4.295  10.222   8.300  0.2111 -0.7070 -0.2787
  153MOL0     N20572   4.411  10.162   8.301  0.5534  0.2697  0.7818
  153MOL0     C20573   4.865   9.221   7.624 -0.1358 -1.1037 -0.3244
  153MOL0     C20574   4.825   9.122   7.539  0.4702 -0.3190  0.2799
  153MOL0     C20575   4.668   8.796   7.305 -0.7589  0.5212 -1.1689
  153MOL0     C20576   4.679   8.835   7.167  0.5352  0.6522  1.3783
  153MOL0     C20577   4.667   8.737   7.063 -0.2410 -0.3698 -0.7894
  153MOL0     C20578   4.655   8.603   7.087  0.7743 -0.6880 -0.8202
  153MOL0     O20579   4.665   8.507   6.992 -0.6786 -0.8649 -0.0974
  153MOL0     C20580   4.571   8.516   6.878  0.1138  0.2172 -0.9934
  153MOL0     C20581   4.435   8.445   6.901  0.6215 -0.0789 -0.7364
  153MOL0     C20582   4.456   8.300   6.941 -0.6928  0.5589 -0.3031
  153MOL0     C20583   4.329   8.222   6.898 -0.2889  0.0927  0.3493
  153MOL0     C20584   4.328   8.092   6.956 -0.2692 -0.2169  0.6777
  153MOL0     C20585   4.319   7.979   7.003  0.1299 -0.1422 -0.4237
  153MOL0     C20586   4.648   8.563   7.222 -0.5977  0.4876  0.5445
  153MOL0     C20587   4.656   8.653   7.324  0.2608  0.1089  0.0600
  153MOL0     H20588   4.505   9.217   7.485  0.7403  1.4471  0.1290
  153MOL0     H20589   4.573   9.382   7.652  0.2618 -0.7839  1.3319
  153MOL0     H20590   5.014   9.405   7.766 -2.5646 -2.0790 -3.5078
  153MOL0     H20591   4.946   9.548   7.690  0.2213 -1.5438 -1.7819
  153MOL0     H20592   4.917   9.522   7.986 -1.6133  0.7287  0.1090
  153MOL0     H20593   5.063   9.564   7.910 -0.0804 -0.0474  1.2650
  153MOL0     H20594   4.937   9.762   7.957 -0.3928 -0.6303  0.7810
  153MOL0     H20595   4.949   9.739   7.775 -0.9475 -3.2274 -1.8101
  153MOL0     H20596   4.713   9.679   7.774 -0.9292 -0.1971  0.6565
  153MOL0     H20597   4.718   9.640   7.950  2.3983  0.2924  1.6509
  153MOL0     H20598   4.734   9.932   7.856 -1.5562  0.7931  0.3830
  153MOL0     H20599   4.584   9.842   7.883 -0.2446  0.9187 -0.1477
  153MOL0     H20600   4.718   9.799   8.118 -1.9498  1.1857  2.9072
  153MOL0     H20601   4.810   9.936   8.066  0.1534 -0.7690  1.4664
  153MOL0     H20602   4.660  10.063   8.176 -1.2384 -1.8420  2.5602
  153MOL0     H20603   4.582  10.059   8.014 -0.2643 -2.1022 -1.9998
  153MOL0     H20604   4.537   9.922   8.290 -1.4376 -6.0418 -0.9581
  153MOL0     H20605   4.453   9.855   8.162  1.1262 -1.0597  0.2011
  153MOL0     H20606   4.246   9.970   8.087  0.2109  1.8474 -2.8874
  153MOL0     H20607   4.010  10.114   8.222  0.2823 -0.1251 -0.9999
  153MOL0     H20608   4.065  10.291   8.232  0.6729  0.7261  0.3451
  153MOL0     H20609   4.081  10.112   7.983 -1.1995 -3.0023  5.8125
  153MOL0     H20610   4.090  10.295   7.997  0.0132  1.7011  1.3404
  153MOL0     H20611   3.848  10.304   8.044  2.3775  1.8574 -0.0920
  153MOL0     H20612   3.857  10.126   8.063  1.1479 -0.2776 -0.3956
  153MOL0     H20613   3.750  10.190   7.861  0.3443 -0.4947  2.9504
  153MOL0     H20614   3.912  10.132   7.805 -1.3280 -0.0637 -2.3068
  153MOL0     H20615   3.890  10.559   7.703  0.5686  0.2552 -2.9512
  153MOL0     H20616   4.153  10.750   7.597 -1.0011  2.1387  1.2977
  153MOL0     H20617   4.054  10.680   7.460  0.8704 -1.7687  1.3399
  153MOL0     H20618   3.973  10.738   7.602 -0.5704  0.3341  0.6723
  153MOL0     H20619   4.328  10.879   7.353 -0.1923 -0.6579  1.1964
  153MOL0     H20620   4.440  10.950   7.147 -2.4767 -0.8817 -2.9706
  153MOL0     H20621   4.512  10.846   6.829  1.6362 -4.7433  1.8578
  153MOL0     H20622   4.558  10.982   6.937  0.2833  1.1712 -1.8476
  153MOL0     H20623   4.786  10.957   6.878 -1.0609  1.2326  0.3958
  153MOL0     H20624   4.752  10.808   6.785 -4.2313 -2.0852  1.0604
  153MOL0     H20625   4.794  11.040   6.663  0.6486  0.7021  0.1632
  153MOL0     H20626   4.638  11.076   6.721 -2.1312 -2.1184  0.0414
  153MOL0     H20627   4.721  10.849   6.547  1.1734  2.1658 -0.0636
  153MOL0     H20628   4.550  10.866   6.583 -1.8764  1.3391  1.2608
  153MOL0     H20629   4.736  10.991   6.383 -1.1320 -0.5252 -0.6683
  153MOL0     H20630   4.646  11.116   6.458  0.6082 -0.1575  0.3261
  153MOL0     H20631   4.538  11.061   6.272  0.2592 -2.3177 -3.0272
  153MOL0     H20632   4.542  10.889   6.303  2.0365  1.6901 -1.3460
  153MOL0     H20633   4.382  11.113   6.419  4.2787  1.6141 -5.3347
  153MOL0     H20634   4.360  10.935   6.479 -0.9506 -0.2603  0.0779
  153MOL0     H20635   4.304  10.877   6.250  0.9900  0.3881 -0.3256
  153MOL0     H20636   4.336  11.042   6.196 -1.4550  1.1768 -0.1250
  153MOL0     H20637   4.636  10.570   7.129 -1.4590 -0.7267 -2.8523
  153MOL0     H20638   4.493  10.496   7.309  3.0805 -0.2356 -0.7305
  153MOL0     H20639   4.282  10.281   7.660  1.5576  1.0609  0.0131
  153MOL0     H20640   4.101  10.198   7.773 -1.3747 -1.9082 -2.9185
  153MOL0     H20641   4.966   9.222   7.664 -0.7691 -1.1261  1.3447
  153MOL0     H20642   4.911   9.061   7.514  0.8974 -1.2033  3.4558
  153MOL0     H20643   4.687   8.940   7.140  0.4273  1.0937  2.9504
  153MOL0     H20644   4.679   8.768   6.960 -0.8991 -1.4760 -1.2116
  153MOL0     H20645   4.529   8.617   6.866 -1.8822 -0.5515 -0.8570
  153MOL0     H20646   4.624   8.502   6.783 -1.3111 -0.7062 -1.6819
  153MOL0     H20647   4.372   8.441   6.811 -2.0745  0.0631  1.0360
  153MOL0     H20648   4.381   8.488   6.985 -2.4715 -0.8650 -2.1646
  153MOL0     H20649   4.479   8.277   7.045 -3.8669  2.0337  0.8491
  153MOL0     H20650   4.534   8.264   6.873 -0.8847  6.1886 -4.2364
  153MOL0     H20651   4.330   8.209   6.789 -1.7879 -1.0116  0.4392
  153MOL0     H20652   4.239   8.278   6.924  0.9829  2.0679  0.7391
  153MOL0     H20653   4.339   7.890   7.058 -2.0805  0.7298  2.0497
  153MOL0     H20654   4.643   8.457   7.248 -0.1304  0.4890  0.6437
  153MOL0     H20655   4.671   8.612   7.424  0.2328  1.7399  0.7660
  154MOL0     O20656   5.635   7.910   1.382  0.1648  0.0758  0.0812
  154MOL0     C20657   5.544   7.865   1.451 -0.2514  0.2242 -0.1649
  154MOL0     O20658   5.458   7.931   1.534  0.8314  0.5121 -0.1561
  154MOL0     C20659   5.485   8.057   1.576  0.3347  0.3819  0.2751
  154MOL0     C20660   5.387   8.160   1.582  0.4437 -0.5393 -0.2827
  154MOL0     C20661   5.428   8.285   1.627  1.1056  0.5152 -0.3328
  154MOL0     C20662   5.553   8.318   1.673 -0.7506  0.3192 -0.7862
  154MOL0     O20663   5.585   8.443   1.722 -0.4098  0.3581  0.3132
  154MOL0     C20664   5.508   8.556   1.673 -0.1002 -0.0600  0.5549
  154MOL0     C20665   5.578   8.681   1.724  0.4233 -0.5553  0.1224
  154MOL0     C20666   5.699   8.719   1.650  0.0542 -0.3180 -0.2192
  154MOL0     C20667   5.826   8.636   1.651  0.4036 -1.0578 -0.3224
  154MOL0     C20668   5.874   8.615   1.804  0.1253  0.2045  0.7420
  154MOL0     C20669   6.015   8.543   1.822  0.6261  0.2968  0.5608
  154MOL0     C20670   6.030   8.421   1.729  0.9380 -0.2744 -0.8067
  154MOL0     C20671   6.165   8.352   1.740 -0.6768 -0.6344  0.5870
  154MOL0     N20672   6.261   8.443   1.688  0.3843  0.2724 -0.1622
  154MOL0     C20673   6.266   8.495   1.560 -0.0736  0.8876  0.1113
  154MOL0     C20674   6.386   8.545   1.539 -0.2759  0.7920 -0.0313
  154MOL0     C20675   6.433   8.574   1.398 -0.0100 -0.4953 -0.2020
  154MOL0     C20676   6.581   8.528   1.377  0.5693 -0.4660 -0.2131
  154MOL0     C20677   6.613   8.567   1.231  1.3370 -0.2882 -0.4025
  154MOL0     C20678   6.662   8.455   1.149 -0.6038  1.2599  0.6787
  154MOL0     O20679   6.806   8.452   1.156  0.6046 -0.1189 -0.1822
  154MOL0     C20680   6.878   8.337   1.107  0.4051  0.1381 -0.5156
  154MOL0     C20681   6.822   8.239   1.025  0.8616 -0.5100  0.4555
  154MOL0     C20682   6.895   8.117   0.998 -0.7773  0.2427 -0.3408
  154MOL0     C20683   6.815   7.996   0.945  0.2837  0.5022 -0.0400
  154MOL0     C20684   7.024   8.106   1.042 -0.8287  0.2975  0.4267
  154MOL0     C20685   7.103   7.974   1.026 -0.1497  0.4227 -0.1726
  154MOL0     O20686   7.234   8.002   1.035  0.2208 -1.0092  0.1320
  154MOL0     C20687   7.321   7.898   1.052  0.0972  0.1010 -0.3435
  154MOL0     C20688   7.449   7.923   1.004  0.6757  0.7347  0.9317
  154MOL0     C20689   7.548   7.824   1.021 -0.0768  0.5519 -0.1761
  154MOL0     C20690   7.524   7.711   1.097  0.0399  0.4509  0.1560
  154MOL0     O20691   7.613   7.605   1.116  0.3773 -0.3944  0.1525
  154MOL0     C20692   7.749   7.615   1.066 -0.1508  0.6392 -0.6280
  154MOL0     C20693   7.854   7.553   1.164 -0.0863  0.0573 -0.1232
  154MOL0     C20694   7.861   7.612   1.305 -1.0463 -0.4544 -0.0752
  154MOL0     C20695   7.964   7.562   1.398  0.1962 -0.7048  0.9567
  154MOL0     C20696   7.980   7.637   1.531 -0.1642  0.4795  0.5973
  154MOL0     C20697   7.841   7.626   1.603 -0.2061  0.0506  0.5529
  154MOL0     C20698   7.846   7.700   1.742  0.3382  0.6618 -0.0325
  154MOL0     C20699   7.748   7.622   1.823  0.2499  0.2018 -0.3568
  154MOL0    Cl20700   7.587   7.577   1.755 -0.1655 -0.3411  0.0708
  154MOL0     C20701   7.395   7.686   1.147 -0.5565  0.2767 -0.6755
  154MOL0     C20702   7.299   7.776   1.119  0.1394  0.5060 -0.2475
  154MOL0     O20703   7.059   7.873   0.975  0.1071  0.4788 -1.0912
  154MOL0     C20704   7.084   8.216   1.111 -0.0389  0.1318  0.5896
  154MOL0     C20705   7.008   8.327   1.154 -1.1142  0.3632  0.2614
  154MOL0     N20706   6.451   8.527   1.664 -0.2552 -0.4166  0.3005
  154MOL0     N20707   6.366   8.491   1.757 -0.1307 -0.9911  0.0996
  154MOL0     C20708   5.649   8.218   1.666 -0.1098  0.0856  0.7434
  154MOL0     C20709   5.612   8.091   1.625 -0.3399  0.3960  0.8540
  154MOL0     C20710   5.524   7.723   1.448  0.4660  0.4437 -0.2168
  154MOL0     C20711   5.600   7.653   1.356  0.7427 -0.2267  0.3162
  154MOL0     C20712   5.567   7.518   1.337 -0.0966  0.1306  0.3090
  154MOL0     C20713   5.472   7.449   1.406  0.6212 -0.4309  0.5248
  154MOL0     O20714   5.467   7.319   1.370 -0.2472  0.1799  0.4929
  154MOL0     C20715   5.339   7.267   1.392 -1.0996  0.0347  0.1956
  154MOL0     C20716   5.346   7.124   1.339  1.2740  0.1633 -0.8940
  154MOL0     C20717   5.222   7.040   1.380 -0.4601  0.5398 -0.1528
  154MOL0     C20718   5.234   6.898   1.316 -0.0534  0.6728  0.1384
  154MOL0     C20719   5.223   6.903   1.170 -0.0108 -0.5107 -0.2534
  154MOL0     C20720   5.204   6.933   1.057  0.0373 -0.2735 -0.3234
  154MOL0     C20721   5.410   7.516   1.511 -0.4927  0.4916 -0.7253
  154MOL0     C20722   5.434   7.650   1.535  0.8911 -0.5009  0.5527
  154MOL0     H20723   5.285   8.154   1.546  0.6394 -1.1774 -0.7603
  154MOL0     H20724   5.347   8.357   1.628  0.2455 -0.3383 -2.5266
  154MOL0     H20725   5.503   8.568   1.564 -0.5293 -1.5488  0.3959
  154MOL0     H20726   5.410   8.561   1.720 -0.8174  3.5316 -0.9553
  154MOL0     H20727   5.511   8.768   1.729 -1.7271 -2.1013 -0.1822
  154MOL0     H20728   5.604   8.668   1.829  3.1985 -1.1954 -0.5572
  154MOL0     H20729   5.671   8.728   1.545  1.6934 -2.2369 -0.8742
  154MOL0     H20730   5.729   8.819   1.682  0.8394 -0.0226 -1.8007
  154MOL0     H20731   5.795   8.541   1.607 -0.4966 -0.1722 -1.6966
  154MOL0     H20732   5.907   8.691   1.600 -1.6400  0.4307 -2.1562
  154MOL0     H20733   5.880   8.712   1.855 -0.3030  2.3748 -2.9564
  154MOL0     H20734   5.790   8.555   1.837 -0.5785  0.5666 -0.3229
  154MOL0     H20735   6.091   8.617   1.798 -1.7080  2.0623 -1.9108
  154MOL0     H20736   6.024   8.513   1.927  2.1523  0.1159  0.4038
  154MOL0     H20737   5.950   8.348   1.747 -1.1093  2.3660  1.9703
  154MOL0     H20738   6.017   8.458   1.627 -1.6881  0.2526 -0.3706
  154MOL0     H20739   6.166   8.270   1.668  0.0103  3.4062 -4.6293
  154MOL0     H20740   6.203   8.307   1.832  1.9052 -0.0289 -0.1004
  154MOL0     H20741   6.189   8.479   1.484 -1.0090  0.9831  1.0123
  154MOL0     H20742   6.379   8.506   1.333 -5.7437 -1.5769  4.7632
  154MOL0     H20743   6.409   8.675   1.364 -2.4066 -0.1377  2.1764
  154MOL0     H20744   6.589   8.423   1.404  1.8452 -0.7716 -1.6407
  154MOL0     H20745   6.652   8.577   1.444  0.5208  0.0036 -0.5014
  154MOL0     H20746   6.669   8.660   1.222  0.1303  0.4231 -0.9155
  154MOL0     H20747   6.521   8.601   1.182  2.1430  2.8249  0.0374
  154MOL0     H20748   6.628   8.481   1.049  0.0924  4.4146  1.1452
  154MOL0     H20749   6.606   8.366   1.179 -1.8965  0.8472 -2.5736
  154MOL0     H20750   6.719   8.254   0.993  0.8123 -0.2364  0.7350
  154MOL0     H20751   6.714   8.030   0.919 -0.0027 -0.0060  0.3816
  154MOL0     H20752   6.859   7.943   0.860 -3.1391 -1.4005 -0.8226
  154MOL0     H20753   6.795   7.928   1.028  2.7981  3.0405  2.8956
  154MOL0     H20754   7.450   8.015   0.947 -1.9272  1.3943  1.8243
  154MOL0     H20755   7.644   7.833   0.972 -0.8485  0.8182 -1.6985
  154MOL0     H20756   7.750   7.550   0.977  1.0030  1.3670 -1.1829
  154MOL0     H20757   7.787   7.714   1.039  3.0635 -0.8963 -2.4215
  154MOL0     H20758   7.817   7.451   1.184 -2.0394  1.4326  4.8015
  154MOL0     H20759   7.954   7.543   1.120  0.4426 -1.0755  1.2406
  154MOL0     H20760   7.768   7.595   1.360  0.2210 -1.1231  1.9662
  154MOL0     H20761   7.870   7.720   1.288 -0.1176 -0.6106 -0.6453
  154MOL0     H20762   7.939   7.458   1.417  2.2996 -1.2020  1.2389
  154MOL0     H20763   8.058   7.556   1.342 -0.3091 -1.2981  0.1499
  154MOL0     H20764   8.000   7.741   1.503 -2.3772  0.4138 -1.6149
  154MOL0     H20765   8.069   7.602   1.583  1.8016  1.1148 -2.1087
  154MOL0     H20766   7.758   7.670   1.546 -1.4661 -1.1926  1.3502
  154MOL0     H20767   7.807   7.522   1.607 -2.4049  0.4923 -2.6603
  154MOL0     H20768   7.832   7.807   1.726  3.7821  0.8842 -2.7813
  154MOL0     H20769   7.942   7.674   1.788  0.7778  1.3534 -0.5497
  154MOL0     H20770   7.733   7.679   1.915 -1.4424  2.1551 -1.7411
  154MOL0     H20771   7.786   7.524   1.853 -2.9053 -0.7188  1.0316
  154MOL0     H20772   7.376   7.606   1.217 -0.7542  0.7711 -0.1560
  154MOL0     H20773   7.196   7.753   1.144 -0.2355  0.7790 -1.4821
  154MOL0     H20774   7.184   8.190   1.145  0.2674  0.3409 -0.1244
  154MOL0     H20775   7.050   8.395   1.228 -2.3648  1.9963 -0.4824
  154MOL0     H20776   5.756   8.222   1.688  0.3237  0.7867 -1.2366
  154MOL0     H20777   5.687   8.014   1.636 -0.8559  0.1355  2.8304
  154MOL0     H20778   5.664   7.700   1.281 -1.8366 -0.5890 -2.2570
  154MOL0     H20779   5.614   7.473   1.250 -0.3210  1.1206 -0.3383
  154MOL0     H20780   5.322   7.262   1.500  1.3765 -1.8460  0.5836
  154MOL0     H20781   5.264   7.322   1.335  1.6531 -0.8512 -4.8379
  154MOL0     H20782   5.435   7.084   1.389 -0.2692 -0.6111  1.3997
  154MOL0     H20783   5.362   7.130   1.231  1.2637 -0.1216 -0.9095
  154MOL0     H20784   5.134   7.099   1.354  1.1830  2.0329 -2.8782
  154MOL0     H20785   5.221   7.023   1.488  3.1228 -0.5356 -0.1514
  154MOL0     H20786   5.151   6.835   1.349 -0.1809  0.8095  0.0770
  154MOL0     H20787   5.322   6.839   1.344 -3.0213 -3.5975  1.4850
  154MOL0     H20788   5.200   6.963   0.954  3.4050 -1.3534 -0.8720
  154MOL0     H20789   5.343   7.457   1.574 -1.3387  0.2668 -1.7958
  154MOL0     H20790   5.383   7.691   1.621 -1.2250  0.3600 -1.0145
  155MOL0     O20791   6.041   9.219   2.464 -0.5790 -0.4195 -0.4907
  155MOL0     C20792   6.142   9.229   2.398 -1.3961  0.5862 -0.6893
  155MOL0     O20793   6.272   9.176   2.426 -0.1543  0.0111  0.7961
  155MOL0     C20794   6.285   9.083   2.514  0.0702  0.3016 -0.4590
  155MOL0     C20795   6.211   9.052   2.631  0.0709  0.6763 -0.0803
  155MOL0     C20796   6.258   8.945   2.712 -0.1738  1.0394  0.5930
  155MOL0     C20797   6.366   8.872   2.686 -0.0453 -0.0863 -0.6559
  155MOL0     O20798   6.412   8.768   2.756  0.9257  0.5986  0.1920
  155MOL0     C20799   6.320   8.679   2.822 -0.7835  0.0140 -0.0553
  155MOL0     C20800   6.394   8.546   2.841  1.1364  0.3271  0.5665
  155MOL0     C20801   6.506   8.540   2.956  0.2059  0.1384  0.6693
  155MOL0     C20802   6.624   8.626   2.928 -1.1690  0.4950 -0.0804
  155MOL0     C20803   6.746   8.583   3.017 -0.1209  0.4582 -0.2671
  155MOL0     C20804   6.875   8.648   2.976  0.0105 -0.3960  0.3990
  155MOL0     C20805   6.997   8.587   3.046  0.2485  0.4435  0.8799
  155MOL0     C20806   7.106   8.601   2.935 -0.0977  0.0910 -0.7753
  155MOL0     N20807   7.243   8.581   2.992 -0.5778  0.1239  0.2968
  155MOL0     C20808   7.339   8.676   2.971 -0.1219 -0.1966  0.2862
  155MOL0     C20809   7.461   8.629   3.021 -0.3322  0.1170  0.5781
  155MOL0     C20810   7.587   8.719   3.019 -0.4804  0.7701  0.7810
  155MOL0     C20811   7.715   8.641   3.012  0.3454  0.8709 -0.3969
  155MOL0     C20812   7.824   8.741   2.989  0.7691 -0.2465  0.3912
  155MOL0     C20813   7.952   8.658   3.009  0.2906  0.3291  0.2337
  155MOL0     O20814   8.067   8.738   2.996  0.8248 -0.3370 -0.3780
  155MOL0     C20815   8.178   8.740   3.077  0.8929  0.0057 -0.8429
  155MOL0     C20816   8.191   8.652   3.186  0.5932 -0.1482  0.4897
  155MOL0     C20817   8.302   8.658   3.275 -0.4895  0.1004 -0.0201
  155MOL0     C20818   8.304   8.554   3.380  0.9773  0.9366 -0.3109
  155MOL0     C20819   8.394   8.768   3.254 -0.8950  0.5406 -0.2864
  155MOL0     C20820   8.502   8.798   3.364  0.1284  0.2995 -0.5162
  155MOL0     O20821   8.571   8.913   3.333  0.3687  0.0091  0.0250
  155MOL0     C20822   8.685   8.940   3.405 -0.0586  1.3063  0.2095
  155MOL0     C20823   8.669   8.990   3.538  0.5290  0.1582  0.8150
  155MOL0     C20824   8.785   8.998   3.611 -0.4719  0.5494  0.1495
  155MOL0     C20825   8.919   8.981   3.557  0.6972 -0.4259  0.2414
  155MOL0     O20826   9.025   8.987   3.640 -0.0082  0.4693  0.1072
  155MOL0     C20827   9.137   8.898   3.634  0.4038  0.8049  0.3818
  155MOL0     C20828   9.134   8.843   3.780 -0.5549  0.4585 -0.2153
  155MOL0     C20829   9.260   8.782   3.810  0.6128 -0.5199 -0.3712
  155MOL0     C20830   9.349   8.883   3.868  0.2510 -0.6523 -0.2498
  155MOL0     C20831   9.487   8.817   3.880  0.5433 -0.5228  0.7406
  155MOL0     C20832   9.592   8.901   3.947  0.5985  0.2014 -0.2955
  155MOL0     C20833   9.656   8.999   3.853  0.6297  1.1381  0.9644
  155MOL0     C20834   9.736   9.104   3.923 -0.4566  1.5192  0.9298
  155MOL0    Cl20835   9.644   9.191   4.039  0.3351  0.2575 -0.8672
  155MOL0     C20836   8.928   8.922   3.428  0.3773 -1.1773 -0.8947
  155MOL0     C20837   8.808   8.911   3.349  0.1728 -0.0945 -0.1776
  155MOL0     O20838   8.531   8.708   3.445  0.8430  0.3288  0.0546
  155MOL0     C20839   8.383   8.849   3.137  0.4082 -0.8483  0.6078
  155MOL0     C20840   8.277   8.835   3.051 -0.0457 -0.2409 -0.9180
  155MOL0     N20841   7.432   8.497   3.062  0.1328  0.1148 -0.8286
  155MOL0     N20842   7.302   8.461   3.041  0.6391 -0.1704 -0.0237
  155MOL0     C20843   6.455   8.913   2.586  0.7049 -1.0319 -0.0144
  155MOL0     C20844   6.415   9.021   2.501  0.3214  0.3849  0.2259
  155MOL0     C20845   6.134   9.328   2.285  0.9462  0.8568  0.2629
  155MOL0     C20846   6.006   9.383   2.249 -0.0116 -0.8063  0.5323
  155MOL0     C20847   6.006   9.487   2.144 -1.0872 -0.4276  0.3055
  155MOL0     C20848   6.125   9.515   2.074 -0.0987 -0.3181 -0.0903
  155MOL0     O20849   6.139   9.601   1.963  0.0507  0.3774 -1.5457
  155MOL0     C20850   6.033   9.665   1.905 -0.4075  0.6982  1.0667
  155MOL0     C20851   5.988   9.783   1.982 -0.5324  0.1032 -0.7490
  155MOL0     C20852   5.856   9.835   1.936  0.2618  1.4901  0.7179
  155MOL0     C20853   5.828   9.979   1.983  0.1618 -0.5100  1.1805
  155MOL0     C20854   5.930  10.076   1.941  1.0730 -0.3959  0.4853
  155MOL0     C20855   6.024  10.150   1.910 -0.8625  0.4048  0.0978
  155MOL0     C20856   6.238   9.441   2.105  0.7710 -0.5888  0.4407
  155MOL0     C20857   6.246   9.359   2.213  1.1440  0.1987  0.5243
  155MOL0     H20858   6.120   9.106   2.656  0.3256  0.6076  1.0545
  155MOL0     H20859   6.206   8.923   2.805  1.8531 -3.1005  0.9616
  155MOL0     H20860   6.287   8.714   2.920 -0.9850 -0.1434 -0.0669
  155MOL0     H20861   6.235   8.662   2.756  1.4977 -4.3377 -2.2711
  155MOL0     H20862   6.312   8.483   2.876  1.5263 -1.5381 -1.6394
  155MOL0     H20863   6.433   8.519   2.743  2.3020  3.3828  0.0890
  155MOL0     H20864   6.457   8.556   3.053 -0.0172  0.1679  0.5516
  155MOL0     H20865   6.537   8.436   2.974  2.0638 -0.1199 -3.0502
  155MOL0     H20866   6.654   8.621   2.822 -0.1114 -1.5181  0.2699
  155MOL0     H20867   6.594   8.729   2.951 -1.1929  0.2716  0.8930
  155MOL0     H20868   6.726   8.587   3.124  0.4711  1.7673 -0.1837
  155MOL0     H20869   6.751   8.474   3.008 -1.9790  0.4328 -1.7477
  155MOL0     H20870   6.880   8.650   2.867 -0.6911  1.2820  0.3707
  155MOL0     H20871   6.855   8.748   3.017 -0.0630  0.0161 -0.6130
  155MOL0     H20872   7.038   8.645   3.130 -0.6944  0.6438  1.2197
  155MOL0     H20873   6.971   8.485   3.074  0.8789  0.1506  0.4196
  155MOL0     H20874   7.093   8.700   2.890 -3.3492 -0.7408 -1.9280
  155MOL0     H20875   7.100   8.528   2.853  3.0796  0.3674 -1.3668
  155MOL0     H20876   7.316   8.780   2.950 -3.1368 -0.6746  0.8206
  155MOL0     H20877   7.584   8.783   2.931 -3.2930  1.6337  1.4051
  155MOL0     H20878   7.590   8.787   3.105 -1.3859  2.2136 -0.2866
  155MOL0     H20879   7.719   8.565   2.933 -0.1467 -0.1703  0.5492
  155MOL0     H20880   7.726   8.588   3.107 -3.1850 -0.1950 -0.4613
  155MOL0     H20881   7.817   8.828   3.054 -2.3810  0.6103 -0.9255
  155MOL0     H20882   7.833   8.786   2.890  1.7123 -1.9324 -0.3485
  155MOL0     H20883   7.971   8.577   2.937  1.4361 -3.3712  4.2529
  155MOL0     H20884   7.943   8.618   3.111 -0.3060 -0.9886 -0.3094
  155MOL0     H20885   8.122   8.569   3.199  1.1459 -0.9223 -1.1240
  155MOL0     H20886   8.302   8.594   3.482  1.2703  0.6351 -0.1830
  155MOL0     H20887   8.221   8.483   3.374  2.2335 -0.5666 -0.6763
  155MOL0     H20888   8.393   8.490   3.385  0.4232  0.2128  2.8957
  155MOL0     H20889   8.576   9.005   3.593 -0.7150 -2.4131 -0.3674
  155MOL0     H20890   8.770   9.034   3.713 -3.2945 -5.1846  2.1886
  155MOL0     H20891   9.122   8.827   3.552 -1.3018  0.0812  1.2825
  155MOL0     H20892   9.229   8.955   3.617 -0.5683  3.4253  3.0299
  155MOL0     H20893   9.115   8.928   3.846  1.2788  1.5793 -1.0688
  155MOL0     H20894   9.052   8.772   3.798 -1.7314  0.9997 -2.9267
  155MOL0     H20895   9.310   8.740   3.722  1.2183 -1.1699  0.2659
  155MOL0     H20896   9.254   8.697   3.879  2.4152 -0.9516 -0.6839
  155MOL0     H20897   9.341   8.971   3.804  2.8108 -0.3115 -0.2141
  155MOL0     H20898   9.307   8.927   3.959 -2.3349 -0.3661 -1.4829
  155MOL0     H20899   9.517   8.774   3.784 -0.3494 -1.0253  0.6731
  155MOL0     H20900   9.476   8.722   3.931 -0.2530 -2.1929 -2.2855
  155MOL0     H20901   9.538   8.961   4.020  2.5893  1.6928  0.0188
  155MOL0     H20902   9.663   8.844   4.007 -0.8651 -0.2146  1.0873
  155MOL0     H20903   9.587   9.050   3.785  2.5139 -0.0481 -2.0411
  155MOL0     H20904   9.715   8.948   3.777 -2.5491  2.0811 -2.3939
  155MOL0     H20905   9.783   9.170   3.850  2.0702 -1.8167 -0.7398
  155MOL0     H20906   9.807   9.050   3.986 -0.8750  2.9093  2.6726
  155MOL0     H20907   9.020   8.895   3.377  1.5010 -0.3827  0.6234
  155MOL0     H20908   8.806   8.877   3.246 -1.8355 -2.1172  0.4534
  155MOL0     H20909   8.446   8.937   3.126 -3.8030  2.2823 -1.0723
  155MOL0     H20910   8.253   8.892   2.961 -2.2425 -2.5181 -1.9146
  155MOL0     H20911   6.548   8.860   2.574  0.7211 -1.1976  0.7809
  155MOL0     H20912   6.481   9.031   2.415  2.8567 -2.4298  1.6656
  155MOL0     H20913   5.918   9.342   2.298 -2.7248  3.0986 -0.6416
  155MOL0     H20914   5.923   9.557   2.153  1.5366  2.6442  2.7836
  155MOL0     H20915   6.057   9.696   1.803  1.9038 -2.7187  0.4146
  155MOL0     H20916   5.947   9.599   1.891 -1.4227  0.8201  5.4194
  155MOL0     H20917   6.065   9.858   1.963 -0.2662 -0.1823 -0.8150
  155MOL0     H20918   5.986   9.776   2.091 -5.1805  1.7499 -0.4801
  155MOL0     H20919   5.785   9.775   1.994  2.8638 -0.3798  2.2565
  155MOL0     H20920   5.839   9.814   1.830  1.4123  1.8485  0.4462
  155MOL0     H20921   5.819   9.986   2.092  2.2071 -2.1400  1.5406
  155MOL0     H20922   5.729  10.004   1.946  0.2023 -2.0329 -0.0868
  155MOL0     H20923   6.101  10.215   1.874 -0.6940 -0.3434 -0.9447
  155MOL0     H20924   6.336   9.460   2.064  1.3864 -1.2787  1.5544
  155MOL0     H20925   6.342   9.311   2.227 -0.2270 -2.5107  1.3146
  156MOL0     O20926   9.677  11.554   8.156 -0.9794  0.1932  0.3600
  156MOL0     C20927   9.661  11.555   8.281 -0.0135 -0.6661 -0.4439
  156MOL0     O20928   9.691  11.458   8.372 -0.5063 -0.0435  0.1244
  156MOL0     C20929   9.714  11.330   8.330 -0.0725 -0.1544 -0.7413
  156MOL0     C20930   9.648  11.273   8.228  0.3012  1.5400  0.0796
  156MOL0     C20931   9.674  11.144   8.182  0.5519  0.6772 -0.3559
  156MOL0     C20932   9.774  11.063   8.233  0.7429 -0.0021 -0.5536
  156MOL0     O20933   9.794  10.932   8.193  0.2578  0.7591  0.1050
  156MOL0     C20934   9.867  10.840   8.285  0.8417 -0.4261  0.3904
  156MOL0     C20935   9.864  10.693   8.262 -1.0116  0.8750  0.0906
  156MOL0     C20936   9.733  10.622   8.298  0.2665  0.3917 -0.3308
  156MOL0     C20937   9.729  10.584   8.447  0.1768 -1.1359 -0.0801
  156MOL0     C20938   9.591  10.533   8.496 -0.7822  0.7894 -0.4265
  156MOL0     C20939   9.496  10.660   8.508  0.1303 -0.4527 -0.4714
  156MOL0     C20940   9.390  10.647   8.620  0.1210 -0.4309 -0.0608
  156MOL0     C20941   9.258  10.720   8.591 -0.5186  0.7795 -0.1303
  156MOL0     N20942   9.282  10.859   8.569  0.2269  0.1292  0.3369
  156MOL0     C20943   9.275  10.939   8.459  0.6666  0.8666 -0.2610
  156MOL0     C20944   9.275  11.064   8.505 -0.7615  0.2203  0.1842
  156MOL0     C20945   9.256  11.178   8.408  0.0726  0.8368 -0.4228
  156MOL0     C20946   9.287  11.317   8.460  0.8760 -0.6988  0.4082
  156MOL0     C20947   9.170  11.368   8.542 -0.3005  0.0618 -0.2344
  156MOL0     C20948   9.185  11.520   8.568  0.3277 -0.3058 -0.0496
  156MOL0     O20949   9.147  11.591   8.450  0.3042 -0.3745  0.1199
  156MOL0     C20950   9.100  11.724   8.444 -0.1360  0.0372 -0.9756
  156MOL0     C20951   9.023  11.766   8.334 -0.4445  0.1837  0.0613
  156MOL0     C20952   8.972  11.899   8.325  0.7497 -0.1548 -0.6583
  156MOL0     C20953   8.891  11.942   8.205  1.1413  0.1064 -0.8973
  156MOL0     C20954   8.984  11.987   8.433 -0.0653  0.9104  0.8643
  156MOL0     C20955   8.923  12.124   8.430 -0.1160  0.1072  0.2380
  156MOL0     O20956   8.788  12.132   8.396 -0.1003  0.8958  0.4778
  156MOL0     C20957   8.730  12.253   8.387  0.5156  1.4559  0.2080
  156MOL0     C20958   8.655  12.307   8.491 -0.2286  0.1247  1.0540
  156MOL0     C20959   8.599  12.434   8.481  0.8235  0.4205  0.3103
  156MOL0     C20960   8.611  12.516   8.366  0.2092 -0.3061 -0.9602
  156MOL0     O20961   8.558  12.642   8.352 -0.6067  0.1622 -1.1448
  156MOL0     C20962   8.464  12.690   8.446  0.8098 -1.0148 -0.7411
  156MOL0     C20963   8.543  12.765   8.552  1.1508  0.2200  0.0533
  156MOL0     C20964   8.455  12.832   8.655  0.6429 -0.2943  0.6320
  156MOL0     C20965   8.553  12.915   8.738 -0.0596 -0.1987  0.2912
  156MOL0     C20966   8.569  13.058   8.689  0.3622 -0.6306 -0.1152
  156MOL0     C20967   8.631  13.150   8.794  0.0783  0.3565 -0.3507
  156MOL0     C20968   8.766  13.102   8.849  0.1797 -0.1903  0.8160
  156MOL0     C20969   8.841  13.200   8.934 -0.2718  0.0427 -0.6082
  156MOL0    Cl20970   8.940  13.108   9.050  0.0438  0.0224  0.7323
  156MOL0     C20971   8.693  12.465   8.263  0.5216  0.2315  0.4070
  156MOL0     C20972   8.756  12.335   8.273 -0.1431  0.6123 -0.1379
  156MOL0     O20973   9.004  12.218   8.463  0.5085  0.4761 -0.4494
  156MOL0     C20974   9.062  11.944   8.541 -0.2235 -0.0504 -0.8971
  156MOL0     C20975   9.115  11.809   8.550  0.4642  0.1569 -0.3609
  156MOL0     N20976   9.288  11.066   8.640 -0.5352  0.7032 -0.8418
  156MOL0     N20977   9.297  10.936   8.673  0.4437 -0.2253 -0.0116
  156MOL0     C20978   9.851  11.128   8.330  1.4420  0.1008  0.6632
  156MOL0     C20979   9.825  11.256   8.377  0.3034 -0.0758  0.4500
  156MOL0     C20980   9.620  11.684   8.339  0.6756 -1.3967 -0.1062
  156MOL0     C20981   9.515  11.759   8.278  0.3453 -0.1779  0.4015
  156MOL0     C20982   9.464  11.873   8.334  0.3364  0.8484 -0.4636
  156MOL0     C20983   9.515  11.916   8.459 -0.0725  0.9344 -0.1144
  156MOL0     O20984   9.484  12.031   8.522  0.0017 -0.2491 -0.2725
  156MOL0     C20985   9.384  12.111   8.468 -0.1104  0.1891  0.3130
  156MOL0     C20986   9.439  12.211   8.358 -0.3672 -0.0287 -0.2503
  156MOL0     C20987   9.326  12.291   8.298  0.0396 -0.2202  0.5043
  156MOL0     C20988   9.321  12.259   8.144 -0.1407 -0.5828 -0.7589
  156MOL0     C20989   9.260  12.132   8.102  0.8923 -0.0948  0.6915
  156MOL0     C20990   9.191  12.038   8.067  0.3664 -0.8064  0.6072
  156MOL0     C20991   9.630  11.852   8.510  0.6730 -0.7076  0.7623
  156MOL0     C20992   9.678  11.740   8.453 -0.3646  0.2493  0.2508
  156MOL0     H20993   9.578  11.334   8.171  1.7143  1.4042 -1.8753
  156MOL0     H20994   9.618  11.112   8.095  0.1540 -0.0963  0.1692
  156MOL0     H20995   9.971  10.866   8.266  0.6864 -0.1282 -0.0530
  156MOL0     H20996   9.841  10.859   8.390 -0.8340 -3.2949  0.6146
  156MOL0     H20997   9.869  10.676   8.154  0.0250 -2.8513  0.5816
  156MOL0     H20998   9.957  10.654   8.305 -0.4964  1.0626 -0.8435
  156MOL0     H20999   9.647  10.686   8.277 -1.7306 -2.0978 -0.2439
  156MOL0     H21000   9.715  10.534   8.236 -3.1850  0.9616 -0.3434
  156MOL0     H21001   9.804  10.507   8.469  2.7474  1.6502  1.8541
  156MOL0     H21002   9.760  10.667   8.512 -2.3730  1.2174 -1.6567
  156MOL0     H21003   9.553  10.460   8.424  0.1530  1.0943 -1.2637
  156MOL0     H21004   9.590  10.488   8.595 -1.2943 -2.5081 -1.7937
  156MOL0     H21005   9.557  10.750   8.523 -3.1981  2.2351 -1.5732
  156MOL0     H21006   9.434  10.675   8.419 -1.7310 -0.0745  0.8241
  156MOL0     H21007   9.367  10.541   8.631 -1.3928 -0.1881 -0.7096
  156MOL0     H21008   9.430  10.672   8.719  0.8754 -1.1072 -0.1859
  156MOL0     H21009   9.200  10.707   8.683 -2.0583  4.0831 -0.4867
  156MOL0     H21010   9.191  10.668   8.522 -1.9845 -0.3660  2.0667
  156MOL0     H21011   9.245  10.905   8.360 -3.8931  1.0225  0.8145
  156MOL0     H21012   9.321  11.177   8.320  0.9802  1.2605  0.2262
  156MOL0     H21013   9.152  11.181   8.376 -0.2589  2.7287  0.6587
  156MOL0     H21014   9.311  11.382   8.376 -2.4841 -0.5418 -0.5708
  156MOL0     H21015   9.375  11.290   8.520 -0.7272 -3.8532  1.5635
  156MOL0     H21016   9.178  11.322   8.641 -0.1814  3.4844  1.5184
  156MOL0     H21017   9.076  11.354   8.487 -1.7482  1.5169  1.7094
  156MOL0     H21018   9.284  11.540   8.609  1.4440 -0.3784 -2.5740
  156MOL0     H21019   9.114  11.541   8.649 -0.5845  0.7387 -1.0831
  156MOL0     H21020   8.987  11.703   8.253  0.5648  0.2245 -0.4410
  156MOL0     H21021   8.929  11.877   8.127  4.4068 -0.8461  1.2656
  156MOL0     H21022   8.784  11.932   8.222  0.9217 -0.6170 -2.5517
  156MOL0     H21023   8.913  12.047   8.181 -1.2675  0.4966 -1.6383
  156MOL0     H21024   8.634  12.249   8.580  0.9485 -0.3278  1.0550
  156MOL0     H21025   8.537  12.459   8.566  0.4893  1.0368 -0.1063
  156MOL0     H21026   8.400  12.763   8.397 -0.8149  0.5425  3.2641
  156MOL0     H21027   8.396  12.611   8.483 -3.7442  0.9293 -3.9637
  156MOL0     H21028   8.604  12.694   8.609  1.4064  1.5458  1.5030
  156MOL0     H21029   8.615  12.832   8.505  3.9369 -2.7730 -0.2421
  156MOL0     H21030   8.403  12.764   8.723 -1.2090 -0.4686 -0.8565
  156MOL0     H21031   8.389  12.900   8.599  0.6649 -0.8875 -0.1302
  156MOL0     H21032   8.525  12.911   8.844 -0.0408  3.4987  0.5743
  156MOL0     H21033   8.651  12.868   8.736  1.3408  2.5116 -1.9028
  156MOL0     H21034   8.466  13.092   8.674 -1.7152 -4.7654  2.6799
  156MOL0     H21035   8.636  13.060   8.603  0.9336  1.7148  0.3020
  156MOL0     H21036   8.665  13.247   8.758  1.5167  0.2893  0.7326
  156MOL0     H21037   8.552  13.162   8.868 -0.4136 -1.4881 -0.5034
  156MOL0     H21038   8.826  13.087   8.758 -0.5943  1.5377 -0.0234
  156MOL0     H21039   8.752  13.014   8.912  6.4760 -1.7705  0.6368
  156MOL0     H21040   8.772  13.264   8.989 -0.7803  0.3742 -1.5935
  156MOL0     H21041   8.901  13.266   8.871 -2.2893  1.7153 -0.8989
  156MOL0     H21042   8.718  12.536   8.184  3.2502  0.9424  1.8002
  156MOL0     H21043   8.819  12.305   8.190 -0.6416 -0.5957 -0.0997
  156MOL0     H21044   9.078  12.021   8.616  0.6190  3.5319 -4.3502
  156MOL0     H21045   9.174  11.785   8.639 -0.0888  0.9572  0.2367
  156MOL0     H21046   9.933  11.076   8.377  0.0376 -1.9624  0.9729
  156MOL0     H21047   9.886  11.294   8.458 -0.8359  1.2179  0.7376
  156MOL0     H21048   9.464  11.725   8.188  4.0116  1.1927 -2.4414
  156MOL0     H21049   9.378  11.919   8.285 -0.8080 -2.2064 -1.5720
  156MOL0     H21050   9.298  12.054   8.433  0.2064  0.7473 -1.4817
  156MOL0     H21051   9.352  12.158   8.562 -0.8077 -1.4097  0.9176
  156MOL0     H21052   9.484  12.152   8.277 -3.7874 -3.4100 -0.0041
  156MOL0     H21053   9.508  12.281   8.405 -0.0817  1.0585 -2.1701
  156MOL0     H21054   9.352  12.397   8.304  2.1971 -0.6204 -0.8746
  156MOL0     H21055   9.227  12.270   8.339 -0.5696  2.2553  0.4502
  156MOL0     H21056   9.424  12.266   8.108  0.4568  0.4019  1.0159
  156MOL0     H21057   9.268  12.336   8.086  3.5289  2.2952 -0.6934
  156MOL0     H21058   9.132  11.956   8.030 -0.9971 -1.1013  3.2007
  156MOL0     H21059   9.686  11.893   8.593 -1.8257 -0.8954  2.6605
  156MOL0     H21060   9.773  11.698   8.485 -0.2806  0.6907  0.6065
  157MOL0     O21061   6.488   6.742   8.938  0.6766  0.5295  0.6678
  157MOL0     C21062   6.390   6.815   8.968  0.0546  0.5583 -1.1579
  157MOL0     O21063   6.272   6.818   8.905  0.2732 -0.7147 -0.4902
  157MOL0     C21064   6.285   6.806   8.770  0.4570 -1.0038  0.2204
  157MOL0     C21065   6.292   6.925   8.700 -0.2386 -0.9012 -0.8817
  157MOL0     C21066   6.312   6.921   8.565  0.1102 -0.8729 -0.0974
  157MOL0     C21067   6.310   6.797   8.490 -0.4925 -0.5166 -0.1364
  157MOL0     O21068   6.345   6.784   8.358  0.1212 -0.3841  0.1117
  157MOL0     C21069   6.365   6.908   8.284  1.2424 -0.0851  0.1582
  157MOL0     C21070   6.359   6.897   8.129  0.6595  0.3643  0.7772
  157MOL0     C21071   6.217   6.845   8.090  0.3118  0.0265 -0.4775
  157MOL0     C21072   6.189   6.812   7.937 -0.2670  0.2688 -0.0862
  157MOL0     C21073   6.072   6.712   7.923 -0.4598  0.7690  0.0974
  157MOL0     C21074   6.068   6.687   7.768  1.1763 -0.6671  1.2553
  157MOL0     C21075   5.955   6.588   7.728 -0.0131 -0.6230 -0.1420
  157MOL0     C21076   5.942   6.544   7.579 -0.6185 -0.0891 -0.8927
  157MOL0     N21077   5.814   6.474   7.575 -0.5649 -0.3546 -0.6623
  157MOL0     C21078   5.800   6.339   7.551 -0.1068  0.2299 -0.7329
  157MOL0     C21079   5.668   6.319   7.550 -0.0631 -0.0410 -0.1310
  157MOL0     C21080   5.598   6.189   7.526 -0.6390 -0.8533 -0.0040
  157MOL0     C21081   5.578   6.122   7.659  0.6659  0.0037 -0.3856
  157MOL0     C21082   5.500   6.198   7.764  0.0804  0.0577 -0.5562
  157MOL0     C21083   5.523   6.119   7.894 -0.2382  0.7604 -0.0909
  157MOL0     O21084   5.472   6.190   8.009  1.3013 -0.2704  0.2624
  157MOL0     C21085   5.492   6.131   8.130  0.1231 -0.4090 -0.4940
  157MOL0     C21086   5.530   6.207   8.234 -0.2085 -0.4196  0.6118
  157MOL0     C21087   5.558   6.156   8.362  0.5357 -0.6827  0.2345
  157MOL0     C21088   5.609   6.252   8.468  0.5209  0.4924  0.5311
  157MOL0     C21089   5.531   6.014   8.383 -1.2440 -0.7726 -1.1214
  157MOL0     C21090   5.541   5.947   8.517  0.3267  0.3924 -0.4503
  157MOL0     O21091   5.519   5.810   8.515 -0.2310  0.1328 -0.0817
  157MOL0     C21092   5.513   5.738   8.635 -0.2898 -0.2084 -0.0571
  157MOL0     C21093   5.413   5.763   8.735 -1.3386  0.3384  0.7254
  157MOL0     C21094   5.428   5.701   8.857  0.0238  0.0601  0.6317
  157MOL0     C21095   5.519   5.593   8.876 -0.0732  0.7878  0.8215
  157MOL0     O21096   5.539   5.526   8.986 -0.3277  0.1050 -1.3068
  157MOL0     C21097   5.457   5.561   9.097 -0.6335 -0.6239  0.6627
  157MOL0     C21098   5.498   5.505   9.237  0.8931  0.7643 -0.1214
  157MOL0     C21099   5.381   5.485   9.334 -0.1254 -1.2848  0.0165
  157MOL0     C21100   5.294   5.362   9.294 -0.2972  0.7973 -0.0080
  157MOL0     C21101   5.179   5.335   9.399 -1.2238  0.4276 -1.1458
  157MOL0     C21102   5.111   5.194   9.377  0.7693 -0.1814 -0.3076
  157MOL0     C21103   4.979   5.162   9.446 -0.2639  0.9824 -0.0364
  157MOL0     C21104   4.981   5.083   9.571  0.2792 -0.0592  0.2914
  157MOL0    Cl21105   4.826   5.102   9.641 -0.0013 -0.0636 -0.1588
  157MOL0     C21106   5.619   5.562   8.773  0.5021 -0.4382 -0.3739
  157MOL0     C21107   5.605   5.634   8.648 -0.2135  0.2249 -0.5816
  157MOL0     O21108   5.549   6.010   8.621 -0.1258 -0.0478 -0.6285
  157MOL0     C21109   5.504   5.938   8.272 -0.7849  0.5250  0.1226
  157MOL0     C21110   5.481   5.994   8.147  0.3202  0.4161  0.5198
  157MOL0     N21111   5.598   6.431   7.567 -0.9997 -0.0296 -0.0100
  157MOL0     N21112   5.683   6.524   7.580 -0.6912  0.3994 -0.2888
  157MOL0     C21113   6.287   6.689   8.568  0.5148  1.2698  0.5845
  157MOL0     C21114   6.275   6.682   8.708 -0.5530 -0.0205 -0.5664
  157MOL0     C21115   6.400   6.879   9.106  0.8994 -0.1995  0.0044
  157MOL0     C21116   6.523   6.896   9.168  0.9353  0.5618  1.0009
  157MOL0     C21117   6.526   6.955   9.281 -0.4658  0.1134 -1.0459
  157MOL0     C21118   6.419   7.010   9.349 -0.1809 -0.5928 -0.7407
  157MOL0     O21119   6.456   7.096   9.456 -0.1584  0.4129  0.4643
  157MOL0     C21120   6.355   7.135   9.544  1.3867 -0.4993 -0.2820
  157MOL0     C21121   6.368   7.042   9.676 -0.8336  1.2368  0.1643
  157MOL0     C21122   6.271   7.069   9.792 -0.7557 -0.6120  0.3992
  157MOL0     C21123   6.319   7.018   9.927 -0.5919  0.6350 -0.3187
  157MOL0     C21124   6.416   7.119   9.985 -0.3155  0.4929 -0.0348
  157MOL0     C21125   6.484   7.209  10.032 -0.2334 -0.3959  0.4137
  157MOL0     C21126   6.291   6.975   9.298  0.3316 -0.5312 -1.2022
  157MOL0     C21127   6.280   6.904   9.174 -0.2693  0.3728  0.0929
  157MOL0     H21128   6.282   7.016   8.758  0.4002 -2.0514  1.1237
  157MOL0     H21129   6.312   7.023   8.529 -0.0809  0.6894  3.8892
  157MOL0     H21130   6.280   6.971   8.314  0.9664 -0.8040  0.9483
  157MOL0     H21131   6.450   6.963   8.326  0.3251 -1.0793  3.7048
  157MOL0     H21132   6.371   6.998   8.090 -1.2117  1.0703  1.9058
  157MOL0     H21133   6.434   6.825   8.093 -1.4266 -1.1539 -0.7680
  157MOL0     H21134   6.208   6.753   8.148  1.6750 -0.0131 -0.2918
  157MOL0     H21135   6.140   6.911   8.131  3.7353  1.9559  3.6808
  157MOL0     H21136   6.169   6.905   7.883 -0.1626  1.8622  2.4086
  157MOL0     H21137   6.273   6.765   7.885 -1.2794 -1.0391 -0.6074
  157MOL0     H21138   6.083   6.616   7.974 -2.0527 -1.1174 -2.8083
  157MOL0     H21139   5.980   6.753   7.965 -0.5846  0.4632  0.1255
  157MOL0     H21140   6.059   6.785   7.720  1.4062 -1.0317  0.4694
  157MOL0     H21141   6.156   6.632   7.734  1.6005  0.9518 -0.3797
  157MOL0     H21142   5.966   6.497   7.788  0.3663  0.1101  0.9260
  157MOL0     H21143   5.859   6.633   7.756 -1.7475 -3.4729 -1.1004
  157MOL0     H21144   6.026   6.476   7.560 -2.1093 -1.6896 -2.0465
  157MOL0     H21145   5.950   6.632   7.514  0.4026  0.3087 -0.2428
  157MOL0     H21146   5.877   6.265   7.535 -3.3289 -3.6765 -0.0123
  157MOL0     H21147   5.501   6.201   7.476 -0.2032 -0.0381 -0.6847
  157MOL0     H21148   5.660   6.124   7.463  0.3901  1.2975 -1.3504
  157MOL0     H21149   5.675   6.090   7.698  0.2595  0.8030  1.3960
  157MOL0     H21150   5.512   6.044   7.622 -0.3596 -0.2906  1.8862
  157MOL0     H21151   5.397   6.201   7.727 -0.0704  4.2342 -0.2904
  157MOL0     H21152   5.528   6.300   7.789  2.6087 -1.2264  2.5772
  157MOL0     H21153   5.630   6.107   7.917 -0.2580  4.3056  2.6528
  157MOL0     H21154   5.488   6.015   7.887  2.5680 -0.2203 -0.8546
  157MOL0     H21155   5.548   6.311   8.212 -0.4322 -0.3083  0.9500
  157MOL0     H21156   5.546   6.239   8.556  0.7753  2.5700  1.0656
  157MOL0     H21157   5.712   6.231   8.499 -0.0064 -2.3359  0.6151
  157MOL0     H21158   5.605   6.358   8.442  0.5928  0.8797  2.0198
  157MOL0     H21159   5.341   5.844   8.727 -0.5345  1.0118  0.0854
  157MOL0     H21160   5.352   5.729   8.930 -2.0333 -0.4540 -1.2195
  157MOL0     H21161   5.455   5.670   9.104 -0.4588 -0.6268  0.7583
  157MOL0     H21162   5.351   5.533   9.087 -0.5519 -1.6057  2.2141
  157MOL0     H21163   5.532   5.402   9.222 -0.4692  0.4782 -1.4768
  157MOL0     H21164   5.560   5.575   9.294  1.8222  0.1020 -0.2970
  157MOL0     H21165   5.318   5.574   9.343  0.5901 -0.7627 -0.0906
  157MOL0     H21166   5.399   5.467   9.441 -2.7859 -2.5747  0.3295
  157MOL0     H21167   5.250   5.369   9.194  1.0882  0.2742 -0.6899
  157MOL0     H21168   5.360   5.275   9.288 -0.1248  0.7954  1.6088
  157MOL0     H21169   5.109   5.419   9.393 -2.2581 -0.5105 -3.2654
  157MOL0     H21170   5.223   5.339   9.499 -1.9936 -0.9713 -0.7278
  157MOL0     H21171   5.101   5.171   9.270 -0.2173 -1.1268 -0.0279
  157MOL0     H21172   5.185   5.126   9.422  3.4175  2.8295  0.2726
  157MOL0     H21173   4.915   5.124   9.366 -1.9464 -0.2912  1.8266
  157MOL0     H21174   4.935   5.260   9.467 -0.0247  1.4735 -1.6798
  157MOL0     H21175   5.057   5.119   9.641 -1.3726  0.7708  1.7408
  157MOL0     H21176   4.994   4.985   9.525 -2.3504  0.3232 -1.5362
  157MOL0     H21177   5.694   5.486   8.791 -0.7277 -2.1023 -1.9207
  157MOL0     H21178   5.676   5.611   8.570  1.8085  1.2061  0.8952
  157MOL0     H21179   5.507   5.830   8.287  0.1857  0.7079  1.4766
  157MOL0     H21180   5.455   5.931   8.062 -3.2734  1.2680  0.8125
  157MOL0     H21181   6.285   6.595   8.514  2.4968  2.5952 -2.0489
  157MOL0     H21182   6.255   6.591   8.763  1.4798 -1.0127 -1.3641
  157MOL0     H21183   6.608   6.851   9.117  2.5278  3.3308  1.0090
  157MOL0     H21184   6.625   6.957   9.326 -1.9880  0.6960  2.6631
  157MOL0     H21185   6.368   7.241   9.568 -3.9040 -0.0032  1.7587
  157MOL0     H21186   6.259   7.118   9.495  0.7357 -1.7897  1.3281
  157MOL0     H21187   6.468   7.028   9.719 -1.9970  0.0650  2.7049
  157MOL0     H21188   6.332   6.944   9.646 -0.6754 -0.2655  4.2988
  157MOL0     H21189   6.181   7.008   9.778 -1.1255  0.1362 -0.5689
  157MOL0     H21190   6.244   7.174   9.805  0.5495 -0.0720 -0.9311
  157MOL0     H21191   6.357   6.916   9.919 -3.1841 -0.5340  1.0201
  157MOL0     H21192   6.235   7.009   9.996 -0.5312 -0.1307 -0.3382
  157MOL0     H21193   6.574   7.256  10.069  0.3119  0.8548 -2.2365
  157MOL0     H21194   6.202   6.990   9.358  1.3922  0.4397  0.2014
  157MOL0     H21195   6.186   6.864   9.139  0.6713 -0.8615 -1.1252
  158MOL0     O21196   2.927  10.298   8.987  0.3364 -0.0235  0.7074
  158MOL0     C21197   2.945  10.308   9.109 -0.3014  0.3119  0.8804
  158MOL0     O21198   2.869  10.387   9.197 -0.9655  0.0406 -0.6838
  158MOL0     C21199   2.752  10.448   9.169 -0.0019 -0.2716 -1.0050
  158MOL0     C21200   2.719  10.494   9.046  0.5662  0.4489  0.3521
  158MOL0     C21201   2.593  10.564   9.028  0.1244 -0.4142  0.0941
  158MOL0     C21202   2.503  10.581   9.122  0.1529  0.0811  0.1550
  158MOL0     O21203   2.395  10.665   9.107  0.3849 -0.2970 -0.3776
  158MOL0     C21204   2.276  10.625   9.039  0.1481  0.7354 -0.2017
  158MOL0     C21205   2.156  10.607   9.136 -0.2350 -0.3452 -0.0477
  158MOL0     C21206   2.035  10.532   9.060 -0.1368 -1.0260  0.4808
  158MOL0     C21207   1.918  10.517   9.158  0.0497  0.4043  0.2669
  158MOL0     C21208   1.785  10.462   9.119  0.9406 -1.1738  0.3195
  158MOL0     C21209   1.776  10.330   9.051 -0.2414  0.6819 -0.3469
  158MOL0     C21210   1.787  10.221   9.154  0.5649  1.9788 -0.0714
  158MOL0     C21211   1.662  10.174   9.226  0.1316 -0.1074 -0.1039
  158MOL0     N21212   1.573  10.080   9.150 -0.4220 -0.6285  0.3728
  158MOL0     C21213   1.504  10.112   9.031 -0.2737 -0.7032 -0.1655
  158MOL0     C21214   1.446   9.995   8.988  0.2102 -0.1531  0.2324
  158MOL0     C21215   1.383   9.976   8.853  1.4040  0.2937 -0.2268
  158MOL0     C21216   1.227  10.012   8.852  0.4864  0.5568 -0.3465
  158MOL0     C21217   1.138   9.908   8.919  0.2652  0.1053  0.8717
  158MOL0     C21218   0.997   9.946   8.905 -1.1749  0.0882 -0.1920
  158MOL0     O21219   0.971  10.075   8.962  0.1344  0.1856 -0.0217
  158MOL0     C21220   0.847  10.123   8.982  0.1387 -0.9175  1.1589
  158MOL0     C21221   0.843  10.256   9.028  0.4847  0.6680  0.3076
  158MOL0     C21222   0.719  10.321   9.044 -0.0048 -0.7321  0.2459
  158MOL0     C21223   0.745  10.462   9.095 -0.5103 -0.5023  0.5550
  158MOL0     C21224   0.597  10.264   9.012  0.1156 -0.0605  0.1782
  158MOL0     C21225   0.463  10.326   9.034 -0.2990  0.2011 -0.5840
  158MOL0     O21226   0.355  10.263   8.977 -0.0502 -0.5645 -0.2546
  158MOL0     C21227   0.229  10.286   9.010  0.5734 -0.2756 -0.7931
  158MOL0     C21228   0.150  10.307   8.900  0.5095  0.4586  0.1872
  158MOL0     C21229   0.008  10.309   8.910 -0.1474  0.0362  0.5386
  158MOL0     C21230  -0.057  10.280   9.028 -0.2313 -0.8419  0.6879
  158MOL0     O21231  -0.190  10.276   9.021  1.2935  0.5611 -0.5371
  158MOL0     C21232  -0.259  10.202   9.121  0.5167 -0.0589  0.2349
  158MOL0     C21233  -0.391  10.162   9.041  0.3970  1.0231 -0.4723
  158MOL0     C21234  -0.404  10.004   9.063 -0.0430 -1.2176  0.4205
  158MOL0     C21235  -0.536   9.965   9.001  0.7301 -0.5455 -0.7017
  158MOL0     C21236  -0.592   9.829   9.034  0.3443  0.4797 -0.6765
  158MOL0     C21237  -0.481   9.721   8.999  0.8557 -0.1691 -0.3489
  158MOL0     C21238  -0.510   9.575   9.028 -0.2393 -0.6241  0.2411
  158MOL0     C21239  -0.638   9.542   9.114 -0.2832 -0.1359  0.5568
  158MOL0    Cl21240  -0.641   9.375   9.164 -0.7840 -0.1649  0.6460
  158MOL0     C21241   0.033  10.253   9.142  0.3645 -0.0729  0.5093
  158MOL0     C21242   0.168  10.256   9.136 -0.1786  0.3403 -0.1312
  158MOL0     O21243   0.451  10.419   9.114  1.0759  0.5429  0.0805
  158MOL0     C21244   0.611  10.142   8.946  0.6941 -0.4890  0.5339
  158MOL0     C21245   0.730  10.065   8.931  0.0946  1.1962  0.3993
  158MOL0     N21246   1.467   9.896   9.081 -0.3799  0.1165  0.8698
  158MOL0     N21247   1.545   9.946   9.174  0.1238  0.3358  0.4320
  158MOL0     C21248   2.535  10.523   9.246 -0.5159 -0.3793 -0.0286
  158MOL0     C21249   2.661  10.468   9.267 -0.1223  0.5809 -0.4704
  158MOL0     C21250   3.056  10.221   9.154  0.6435  0.1137  0.3820
  158MOL0     C21251   3.164  10.188   9.070  1.4131  0.3967  0.1983
  158MOL0     C21252   3.271  10.097   9.098  0.2247 -0.2341  0.2449
  158MOL0     C21253   3.262  10.042   9.224  0.6596  0.4020  0.2692
  158MOL0     O21254   3.350   9.947   9.263 -0.8073 -0.8569  0.4523
  158MOL0     C21255   3.483   9.999   9.292 -0.4218 -1.1412  0.2903
  158MOL0     C21256   3.600   9.910   9.249  0.5998 -0.9495 -0.2203
  158MOL0     C21257   3.598   9.890   9.093  0.5655 -0.0257 -0.3399
  158MOL0     C21258   3.632  10.014   9.009 -0.1138  0.5299 -0.8512
  158MOL0     C21259   3.761  10.079   9.064  0.8217 -0.7683 -0.3500
  158MOL0     C21260   3.877  10.111   9.089 -0.7254  0.4168 -1.0660
  158MOL0     C21261   3.155  10.077   9.311  0.1572  0.8884  0.3585
  158MOL0     C21262   3.058  10.172   9.280 -0.2322  0.1366  0.8517
  158MOL0     H21263   2.788  10.483   8.964  2.9169  1.1702  2.1322
  158MOL0     H21264   2.558  10.598   8.931 -0.7006  1.1333  0.9017
  158MOL0     H21265   2.249  10.713   8.980  1.8483  2.2535  1.1677
  158MOL0     H21266   2.289  10.541   8.970  0.3958  1.1412 -0.6490
  158MOL0     H21267   2.191  10.547   9.220 -0.4290 -2.0499 -1.1248
  158MOL0     H21268   2.122  10.703   9.176  1.4631  0.0266  0.5533
  158MOL0     H21269   1.999  10.603   8.985 -3.5800  0.4578  3.2159
  158MOL0     H21270   2.056  10.438   9.009  2.5871 -0.0670 -0.3155
  158MOL0     H21271   1.937  10.469   9.255 -1.9960 -1.6904 -0.2849
  158MOL0     H21272   1.898  10.622   9.184  1.4184  0.1475  2.6603
  158MOL0     H21273   1.721  10.471   9.207 -0.4327  0.5119 -0.8006
  158MOL0     H21274   1.750  10.524   9.036  1.9781 -2.4065 -1.0980
  158MOL0     H21275   1.679  10.326   9.000  0.3205  0.8762 -1.4686
  158MOL0     H21276   1.862  10.321   8.983  0.0589  0.4596  0.0584
  158MOL0     H21277   1.837  10.134   9.110 -1.6814  1.2104 -1.2457
  158MOL0     H21278   1.852  10.254   9.236 -0.5297  0.8078  1.3044
  158MOL0     H21279   1.602  10.262   9.249 -1.0012 -0.5478 -1.2427
  158MOL0     H21280   1.701  10.117   9.311 -1.7057 -0.6804  0.4173
  158MOL0     H21281   1.501  10.207   8.980 -2.0984 -1.2384 -1.1512
  158MOL0     H21282   1.425  10.040   8.774 -3.3581  0.5617 -2.9371
  158MOL0     H21283   1.404   9.874   8.819 -1.1501 -0.7256  0.9608
  158MOL0     H21284   1.207  10.020   8.745  5.4656  5.1454 -1.3563
  158MOL0     H21285   1.215  10.115   8.889  2.6138 -0.3289  3.2608
  158MOL0     H21286   1.158   9.893   9.026 -1.0953  2.5103  1.5284
  158MOL0     H21287   1.151   9.808   8.875  3.0019  0.3698  0.8866
  158MOL0     H21288   0.942   9.867   8.957  1.6265 -1.7684  0.1620
  158MOL0     H21289   0.965   9.953   8.800 -0.7874  2.6254 -0.2039
  158MOL0     H21290   0.937  10.305   9.052 -0.3969  1.4062  2.4475
  158MOL0     H21291   0.699  10.534   9.026  1.6962  0.3151 -0.1731
  158MOL0     H21292   0.697  10.465   9.193  1.9889  2.0975  1.8509
  158MOL0     H21293   0.847  10.496   9.112  0.9471 -1.0478 -4.9695
  158MOL0     H21294   0.190  10.326   8.801  0.2700 -4.5843 -1.1683
  158MOL0     H21295  -0.047  10.337   8.821  0.9193 -0.1884 -0.2165
  158MOL0     H21296  -0.200  10.111   9.137  0.0507  0.0176  2.7586
  158MOL0     H21297  -0.291  10.248   9.215 -1.8906  2.1574 -1.5410
  158MOL0     H21298  -0.475  10.213   9.089  1.4516  1.0815  1.4110
  158MOL0     H21299  -0.380  10.188   8.935  2.2740 -0.3148 -0.6604
  158MOL0     H21300  -0.405   9.974   9.168 -0.9194 -3.1549 -0.0920
  158MOL0     H21301  -0.324   9.946   9.016 -1.6187 -2.8005 -0.4471
  158MOL0     H21302  -0.619  10.033   9.023 -1.9056 -4.6212  4.0135
  158MOL0     H21303  -0.525   9.970   8.892 -0.8942  2.2694 -0.8405
  158MOL0     H21304  -0.677   9.813   8.966 -0.7637 -3.7690  1.3666
  158MOL0     H21305  -0.613   9.823   9.141  2.1938  2.4264 -0.1325
  158MOL0     H21306  -0.461   9.735   8.893 -2.1819 -0.9785 -1.1219
  158MOL0     H21307  -0.397   9.766   9.052  0.2004  1.1590 -0.3993
  158MOL0     H21308  -0.423   9.532   9.078 -0.6768 -0.1403  1.4487
  158MOL0     H21309  -0.521   9.519   8.934  3.1731  2.3098 -2.1459
  158MOL0     H21310  -0.733   9.574   9.070  1.3763  1.1719 -2.3663
  158MOL0     H21311  -0.637   9.596   9.210  0.7074  0.0603  0.4394
  158MOL0     H21312  -0.009  10.237   9.241  0.8925 -1.8699  0.4752
  158MOL0     H21313   0.231  10.222   9.217 -0.8480 -0.8007 -0.0708
  158MOL0     H21314   0.527  10.086   8.907 -0.5391  1.2607  0.5815
  158MOL0     H21315   0.718   9.969   8.882 -2.9328  0.4247  2.3412
  158MOL0     H21316   2.476  10.535   9.336  2.9172  1.0636  2.2279
  158MOL0     H21317   2.698  10.456   9.369  3.5149  0.4555 -1.6798
  158MOL0     H21318   3.160  10.232   8.971  1.9088 -3.4784 -1.7484
  158MOL0     H21319   3.336  10.067   9.017  0.7894 -0.0526  0.6306
  158MOL0     H21320   3.492  10.098   9.246 -3.1159  0.7572  3.3771
  158MOL0     H21321   3.498  10.028   9.397 -0.0608  0.9649 -0.2983
  158MOL0     H21322   3.598   9.825   9.318 -1.4171  1.7017  3.3467
  158MOL0     H21323   3.689   9.968   9.271 -1.0533  2.0530 -0.8413
  158MOL0     H21324   3.503   9.855   9.051  1.6471 -1.6874 -1.5351
  158MOL0     H21325   3.669   9.808   9.075 -0.8765 -1.7801  1.5607
  158MOL0     H21326   3.548  10.083   9.021  0.2454  0.4876  3.3461
  158MOL0     H21327   3.644   9.976   8.907  0.4602  2.1381 -1.4195
  158MOL0     H21328   3.980  10.132   9.107 -0.0469 -3.5491  1.0196
  158MOL0     H21329   3.156  10.023   9.405 -0.6146 -1.6888 -1.0176
  158MOL0     H21330   2.975  10.198   9.345  0.4937  2.7186  0.8884
  159MOL0     O21331  10.411   5.570   7.670  0.0309 -0.8444 -0.8892
  159MOL0     C21332  10.345   5.572   7.769  0.6177 -0.4876 -0.2803
  159MOL0     O21333  10.213   5.618   7.774 -0.0599 -0.1395 -0.3986
  159MOL0     C21334  10.142   5.656   7.660  0.8162 -0.0991 -0.1059
  159MOL0     C21335  10.070   5.561   7.585 -0.4528 -0.4131 -0.1614
  159MOL0     C21336  10.015   5.592   7.460  0.0143  0.1205  0.8181
  159MOL0     C21337  10.016   5.717   7.411  0.1006 -1.4023 -0.0679
  159MOL0     O21338   9.955   5.746   7.284 -0.4130  0.3204  0.1318
  159MOL0     C21339   9.816   5.752   7.303  0.0253  0.0427 -1.0018
  159MOL0     C21340   9.735   5.652   7.210 -0.0600  0.3381 -0.4924
  159MOL0     C21341   9.768   5.684   7.057 -0.2612  0.8088 -0.6985
  159MOL0     C21342   9.655   5.639   6.961 -0.0713 -0.3559 -0.4978
  159MOL0     C21343   9.688   5.524   6.866 -1.0281 -0.9339 -0.0164
  159MOL0     C21344   9.558   5.467   6.796  0.6079  0.3261 -0.2925
  159MOL0     C21345   9.600   5.404   6.665  0.1325  0.2440 -0.4862
  159MOL0     C21346   9.468   5.340   6.601 -0.5867 -1.3155 -0.1851
  159MOL0     N21347   9.488   5.298   6.459  0.6809  1.0410  0.2023
  159MOL0     C21348   9.582   5.200   6.439  0.3779 -0.4846  1.1070
  159MOL0     C21349   9.625   5.225   6.309  1.0200 -0.0665  0.7412
  159MOL0     C21350   9.723   5.158   6.230  0.2390  0.8527  0.3063
  159MOL0     C21351   9.790   5.234   6.110  1.0324  0.5101 -0.3139
  159MOL0     C21352   9.882   5.142   6.034  0.1212 -0.8383 -0.6686
  159MOL0     C21353   9.934   5.226   5.920  0.3201  0.3655 -0.9980
  159MOL0     O21354  10.021   5.146   5.847  0.6303  0.2970  0.1957
  159MOL0     C21355   9.984   5.094   5.725  0.3929  0.2235  0.5710
  159MOL0     C21356   9.847   5.092   5.688  0.5190 -0.0351 -0.3860
  159MOL0     C21357   9.816   5.059   5.553 -0.0731 -0.1935  0.0806
  159MOL0     C21358   9.675   5.089   5.507  0.7469  0.4200 -0.1240
  159MOL0     C21359   9.908   5.008   5.469  0.4860  0.3411  0.0898
  159MOL0     C21360   9.875   4.955   5.332  0.2900  0.5555  0.4134
  159MOL0     O21361   9.957   4.982   5.224 -0.2310  0.3912 -0.2577
  159MOL0     C21362   9.907   4.946   5.103  0.1462 -0.7643  0.9963
  159MOL0     C21363   9.951   4.823   5.058 -0.7931 -0.2309 -0.3665
  159MOL0     C21364   9.915   4.770   4.938  0.4821 -0.3979 -0.1065
  159MOL0     C21365   9.842   4.857   4.851  0.8292 -1.6561 -1.2967
  159MOL0     O21366   9.821   4.816   4.723  0.3451 -0.3355  0.2484
  159MOL0     C21367   9.831   4.909   4.624 -0.0904 -0.2216 -0.0480
  159MOL0     C21368   9.833   4.833   4.490 -0.1020  0.3318  0.0783
  159MOL0     C21369   9.981   4.779   4.475 -0.2691 -0.0112  0.3176
  159MOL0     C21370   9.976   4.681   4.361 -0.3511  0.7218  0.2637
  159MOL0     C21371  10.098   4.708   4.258  0.9163  0.3936  0.2372
  159MOL0     C21372  10.097   4.616   4.139 -0.3411 -0.1309  0.5088
  159MOL0     C21373  10.093   4.466   4.178  0.4639  0.2799 -0.3847
  159MOL0     C21374  10.146   4.372   4.080  0.2657  0.8803 -0.1913
  159MOL0    Cl21375  10.321   4.372   4.109 -0.3442  0.3982  0.1665
  159MOL0     C21376   9.785   4.978   4.900 -1.0756  0.4988  0.4280
  159MOL0     C21377   9.828   5.019   5.024  0.4554 -1.2619  0.2700
  159MOL0     O21378   9.797   4.858   5.331 -0.7283 -0.6653 -0.5826
  159MOL0     C21379  10.043   5.017   5.508 -0.4239  0.2934  1.0490
  159MOL0     C21380  10.083   5.059   5.631  0.3175 -0.1008 -0.0258
  159MOL0     N21381   9.546   5.326   6.256  0.5481  0.5357  0.6838
  159MOL0     N21382   9.460   5.372   6.348  0.1861 -0.7866  0.4789
  159MOL0     C21383  10.087   5.825   7.483 -0.4041 -0.4959  0.6809
  159MOL0     C21384  10.146   5.793   7.607  0.8943 -0.4692 -0.2140
  159MOL0     C21385  10.388   5.517   7.895 -0.3074  0.7285 -0.1743
  159MOL0     C21386  10.503   5.428   7.904  0.4923  0.1372  1.0607
  159MOL0     C21387  10.546   5.373   8.022 -0.2373 -0.2790  0.8297
  159MOL0     C21388  10.486   5.415   8.140 -0.2114 -0.1759  0.5785
  159MOL0     O21389  10.533   5.362   8.257  0.1451 -0.1686  0.1514
  159MOL0     C21390  10.441   5.368   8.372  0.6018 -0.1231 -0.6816
  159MOL0     C21391  10.335   5.260   8.365  0.8030 -0.4035 -0.5162
  159MOL0     C21392  10.258   5.283   8.497 -0.9623  0.9187  0.0041
  159MOL0     C21393  10.119   5.227   8.495  1.0520  0.3060  0.2953
  159MOL0     C21394  10.020   5.278   8.392 -0.9694 -0.1691 -0.1301
  159MOL0     C21395   9.954   5.315   8.303 -0.1528  0.6460 -0.8132
  159MOL0     C21396  10.362   5.482   8.132 -0.3993  0.1989  0.2449
  159MOL0     C21397  10.310   5.526   8.011 -0.0775  0.0361 -1.1557
  159MOL0     H21398  10.067   5.461   7.628  0.3583 -0.6936 -0.7348
  159MOL0     H21399   9.967   5.514   7.403  1.5339 -1.2421  1.3388
  159MOL0     H21400   9.786   5.726   7.404  0.1545  1.0720 -0.6913
  159MOL0     H21401   9.789   5.856   7.282  0.3720  0.8425  2.0500
  159MOL0     H21402   9.773   5.552   7.232  0.3963  0.4702 -0.6757
  159MOL0     H21403   9.631   5.662   7.243  0.2722 -1.3768  1.2468
  159MOL0     H21404   9.780   5.792   7.070  3.0109  0.3902  0.9205
  159MOL0     H21405   9.865   5.643   7.027 -0.8422 -0.5179 -0.7943
  159MOL0     H21406   9.564   5.608   7.013 -1.9456  2.3212 -1.9392
  159MOL0     H21407   9.613   5.719   6.899 -2.1875 -2.1561 -1.5359
  159MOL0     H21408   9.773   5.562   6.807  0.0338 -2.6514  0.3388
  159MOL0     H21409   9.741   5.446   6.921  1.1934 -0.2125 -0.9716
  159MOL0     H21410   9.515   5.386   6.855  0.9110  2.6420  3.4245
  159MOL0     H21411   9.492   5.553   6.784  1.3827  1.1519  1.1179
  159MOL0     H21412   9.637   5.476   6.591 -1.3742  0.2650 -1.2557
  159MOL0     H21413   9.681   5.334   6.686 -4.0426 -5.2886 -0.7662
  159MOL0     H21414   9.379   5.401   6.616  0.3468 -0.3587  1.7772
  159MOL0     H21415   9.451   5.247   6.656 -0.3200  0.0919  2.4142
  159MOL0     H21416   9.624   5.131   6.512  1.6887 -1.6588 -0.6949
  159MOL0     H21417   9.808   5.138   6.296  0.5814  2.2123  0.3063
  159MOL0     H21418   9.679   5.062   6.200 -0.5474  0.0927  3.4976
  159MOL0     H21419   9.841   5.325   6.144 -0.7864  1.7650 -0.8469
  159MOL0     H21420   9.700   5.261   6.055 -0.2935 -0.1847  1.4167
  159MOL0     H21421   9.839   5.047   6.002  2.3920 -1.6552 -1.5278
  159MOL0     H21422   9.961   5.110   6.103 -0.1647  2.0902  1.2004
  159MOL0     H21423   9.988   5.310   5.966  0.0038  0.9674 -1.6889
  159MOL0     H21424   9.849   5.267   5.865  0.7709 -0.0097 -2.0010
  159MOL0     H21425   9.769   5.106   5.762  2.2385 -1.5830  1.8512
  159MOL0     H21426   9.646   5.042   5.413  0.0959  1.2686 -0.3516
  159MOL0     H21427   9.601   5.079   5.588 -0.0059  2.9368 -0.4194
  159MOL0     H21428   9.669   5.196   5.486 -0.2807  0.5675  0.7894
  159MOL0     H21429  10.020   4.782   5.131 -0.9581  1.7156  0.9571
  159MOL0     H21430   9.942   4.671   4.903  1.5257 -0.1021 -0.1579
  159MOL0     H21431   9.738   4.967   4.619 -0.8050 -1.3415 -0.2763
  159MOL0     H21432   9.919   4.974   4.626  0.9703 -1.5815 -0.6603
  159MOL0     H21433   9.754   4.758   4.500  0.5109 -0.0652  2.9210
  159MOL0     H21434   9.811   4.894   4.402  0.9548 -1.8613 -1.8110
  159MOL0     H21435  10.024   4.712   4.550 -0.8983 -3.4653 -2.1518
  159MOL0     H21436  10.050   4.862   4.462 -1.4208  1.0615  0.8743
  159MOL0     H21437   9.987   4.584   4.411 -0.4486 -0.0207 -1.1128
  159MOL0     H21438   9.879   4.684   4.311 -2.1693  2.5824  3.5868
  159MOL0     H21439  10.187   4.707   4.322 -0.8972  1.7293  2.9763
  159MOL0     H21440  10.094   4.811   4.221 -0.7611  0.3324  0.1913
  159MOL0     H21441  10.001   4.643   4.093  0.0868  3.7348  1.5691
  159MOL0     H21442  10.176   4.648   4.070 -1.6988  1.7321 -0.2878
  159MOL0     H21443   9.990   4.438   4.201  0.4166 -0.1049 -1.0273
  159MOL0     H21444  10.158   4.451   4.265  2.2018  1.4695 -1.4047
  159MOL0     H21445  10.127   4.400   3.976 -1.8040 -0.9017 -0.3742
  159MOL0     H21446  10.106   4.274   4.109  2.8024  0.5386  2.6890
  159MOL0     H21447   9.702   5.019   4.843  0.4249  3.4590  0.1458
  159MOL0     H21448   9.797   5.118   5.054 -0.9591 -2.1009  1.7411
  159MOL0     H21449  10.121   4.997   5.436 -2.7147  0.6029 -1.6958
  159MOL0     H21450  10.187   5.063   5.660  0.7946  0.7210 -1.7128
  159MOL0     H21451  10.077   5.926   7.446 -2.8577 -0.6865  0.6632
  159MOL0     H21452  10.195   5.875   7.658 -0.2780 -0.2249  0.5483
  159MOL0     H21453  10.562   5.400   7.817  2.0021 -2.4016  2.7604
  159MOL0     H21454  10.628   5.305   8.040  0.3713 -0.5691 -2.5116
  159MOL0     H21455  10.506   5.371   8.460  0.0610  0.3833 -0.2940
  159MOL0     H21456  10.393   5.466   8.372 -3.3188 -1.8475  1.1795
  159MOL0     H21457  10.382   5.161   8.363  1.7204 -0.1776  2.9279
  159MOL0     H21458  10.264   5.267   8.282  0.0492 -0.5942  0.0978
  159MOL0     H21459  10.245   5.387   8.528 -3.9353  1.5022 -2.5749
  159MOL0     H21460  10.316   5.243   8.580 -0.7768  1.0469 -0.0632
  159MOL0     H21461  10.086   5.239   8.598  2.9697 -2.2201  1.3214
  159MOL0     H21462  10.117   5.118   8.487 -0.5130  0.4542 -3.2027
  159MOL0     H21463   9.896   5.322   8.213  0.9870  2.0548 -1.4745
  159MOL0     H21464  10.289   5.507   8.208 -1.2745  0.7778 -0.7669
  159MOL0     H21465  10.214   5.572   8.030 -0.0491 -0.3124 -0.1071
  160MOL0     O21466  11.090   8.735   2.067  0.6313 -0.3997 -0.5021
  160MOL0     C21467  11.128   8.676   1.968 -0.4151  0.2823 -0.4530
  160MOL0     O21468  11.199   8.559   1.962 -0.4917 -0.0210  0.4558
  160MOL0     C21469  11.223   8.484   2.075  0.5792  1.0399 -0.0892
  160MOL0     C21470  11.346   8.494   2.144 -0.6054  0.7191  0.5331
  160MOL0     C21471  11.376   8.400   2.248 -0.1567 -0.9611 -0.0802
  160MOL0     C21472  11.279   8.311   2.289 -0.0538 -1.0409 -1.0465
  160MOL0     O21473  11.303   8.217   2.389 -0.7183  0.0042  0.1246
  160MOL0     C21474  11.343   8.272   2.517 -0.2105  0.6932 -0.1845
  160MOL0     C21475  11.501   8.262   2.533  0.3539 -0.2048  0.2543
  160MOL0     C21476  11.537   8.342   2.666 -0.1498  0.1988  0.3812
  160MOL0     C21477  11.683   8.347   2.713 -0.5139 -0.2532 -0.2288
  160MOL0     C21478  11.696   8.423   2.846  0.5671 -0.4797 -0.0044
  160MOL0     C21479  11.645   8.335   2.965  0.0472 -0.1270 -0.4047
  160MOL0     C21480  11.659   8.412   3.103  0.1659 -0.0505  0.1078
  160MOL0     C21481  11.614   8.336   3.221  0.3997  0.2194 -0.0454
  160MOL0     N21482  11.604   8.406   3.351  0.5140  0.1119 -0.2119
  160MOL0     C21483  11.705   8.448   3.442 -0.4702 -0.6081 -0.8181
  160MOL0     C21484  11.633   8.530   3.525 -0.0197  0.4787  0.7953
  160MOL0     C21485  11.705   8.583   3.644  0.4603  0.0195 -0.7772
  160MOL0     C21486  11.635   8.713   3.694 -0.0578  0.0647 -0.0592
  160MOL0     C21487  11.668   8.733   3.846 -1.3226 -0.6029  0.0691
  160MOL0     C21488  11.601   8.869   3.880  0.1555 -1.1061  0.3782
  160MOL0     O21489  11.464   8.856   3.901 -0.1675  0.3646  0.4419
  160MOL0     C21490  11.381   8.965   3.897 -1.7830 -0.6251 -0.6386
  160MOL0     C21491  11.402   9.076   3.974  0.6629  0.3731  0.2792
  160MOL0     C21492  11.327   9.189   3.969 -0.1257 -0.4509 -0.9000
  160MOL0     C21493  11.355   9.284   4.079 -0.6502 -0.9124  0.0114
  160MOL0     C21494  11.220   9.202   3.878 -0.0961  1.6509 -0.7817
  160MOL0     C21495  11.133   9.325   3.870  0.5735  0.7167 -0.5371
  160MOL0     O21496  11.164   9.441   3.940  0.0085  0.4982  0.6910
  160MOL0     C21497  11.065   9.530   3.935  0.0082  0.0344  0.2782
  160MOL0     C21498  10.985   9.556   4.042 -0.8644 -0.6713 -0.1750
  160MOL0     C21499  10.884   9.656   4.027  0.5080 -0.1912  0.5080
  160MOL0     C21500  10.871   9.739   3.916  1.4307  0.0905  0.1108
  160MOL0     O21501  10.770   9.835   3.918 -0.3634  0.1590  0.2802
  160MOL0     C21502  10.750   9.922   3.811  0.7158 -0.0259 -0.1639
  160MOL0     C21503  10.636  10.024   3.863 -0.2616  0.5064 -0.0792
  160MOL0     C21504  10.498   9.958   3.875  0.1230  0.5738 -0.3665
  160MOL0     C21505  10.398  10.026   3.981 -0.8682  0.0524  0.8158
  160MOL0     C21506  10.289   9.925   4.006  1.1796 -0.3993 -0.0042
  160MOL0     C21507  10.157   9.987   4.076  0.1711  0.2198  0.6130
  160MOL0     C21508  10.186  10.083   4.197 -0.1244 -0.6518  0.4644
  160MOL0     C21509  10.257  10.000   4.298 -1.1112  0.4558 -0.2795
  160MOL0    Cl21510  10.285  10.088   4.455 -0.2706  0.0241 -0.0374
  160MOL0     C21511  10.968   9.727   3.823  0.8017 -0.3801 -0.9185
  160MOL0     C21512  11.065   9.623   3.823  0.2692  0.7786 -1.1471
  160MOL0     O21513  11.039   9.314   3.790 -0.3519  0.0587 -0.1063
  160MOL0     C21514  11.199   9.085   3.796  0.3139 -0.1727  0.4412
  160MOL0     C21515  11.277   8.969   3.809  0.7036 -0.1462  0.2632
  160MOL0     N21516  11.503   8.555   3.473  1.2286 -0.8825 -0.5706
  160MOL0     N21517  11.490   8.480   3.373 -0.7894 -1.2568  0.1014
  160MOL0     C21518  11.157   8.300   2.223  0.0681  0.8875 -0.6490
  160MOL0     C21519  11.127   8.387   2.115  0.0197 -1.0385  0.1678
  160MOL0     C21520  11.100   8.738   1.839 -0.4361 -0.4758  1.3196
  160MOL0     C21521  11.008   8.835   1.826  1.0268 -0.2980  0.0083
  160MOL0     C21522  10.957   8.877   1.706  0.3865 -0.2366  0.1662
  160MOL0     C21523  11.004   8.836   1.585 -0.2707 -0.0284 -0.2436
  160MOL0     O21524  10.945   8.892   1.476 -0.3566  0.1788 -0.4887
  160MOL0     C21525  10.853   8.802   1.411  0.1420  0.4249 -0.7691
  160MOL0     C21526  10.797   8.872   1.294 -0.4318 -0.1887  0.0592
  160MOL0     C21527  10.779   8.791   1.165 -0.1595  0.7420  0.7943
  160MOL0     C21528  10.654   8.833   1.106  0.1249  0.5294 -0.6352
  160MOL0     C21529  10.653   8.973   1.063 -0.2767 -0.0420  0.5727
  160MOL0     C21530  10.677   9.083   1.003  1.2588  0.1853  0.3734
  160MOL0     C21531  11.109   8.745   1.592  0.0362 -0.5695  0.0365
  160MOL0     C21532  11.167   8.700   1.713 -0.4004  0.2409  0.6979
  160MOL0     H21533  11.422   8.563   2.109 -0.2361  0.0504 -0.0334
  160MOL0     H21534  11.479   8.404   2.284 -0.2063  1.1927 -0.0569
  160MOL0     H21535  11.308   8.373   2.539  0.6236  1.5455 -2.4757
  160MOL0     H21536  11.298   8.202   2.587 -0.5642  1.4292  0.3417
  160MOL0     H21537  11.534   8.158   2.542  1.6351  0.0963 -0.7452
  160MOL0     H21538  11.565   8.307   2.457 -0.2259 -4.1993 -2.9673
  160MOL0     H21539  11.495   8.442   2.651 -3.7980 -1.2790 -0.4332
  160MOL0     H21540  11.488   8.287   2.747  0.8626  2.6113  2.7665
  160MOL0     H21541  11.734   8.251   2.724  0.7231  0.2257 -1.5132
  160MOL0     H21542  11.733   8.400   2.631  0.0109 -0.7432 -0.2348
  160MOL0     H21543  11.802   8.437   2.869  0.7907 -1.0970 -0.6398
  160MOL0     H21544  11.637   8.515   2.844  1.5979  0.2190  0.4454
  160MOL0     H21545  11.540   8.305   2.950 -0.4536  2.0430 -1.6796
  160MOL0     H21546  11.709   8.247   2.964  1.2861  0.7592 -0.4006
  160MOL0     H21547  11.765   8.437   3.115 -0.0069  1.1546 -0.7266
  160MOL0     H21548  11.601   8.504   3.092 -0.9416 -0.9086 -1.8787
  160MOL0     H21549  11.684   8.253   3.237  1.3903  1.3858  2.1128
  160MOL0     H21550  11.516   8.304   3.184  1.0530  0.4950 -2.1680
  160MOL0     H21551  11.805   8.407   3.454 -0.1614 -0.0412 -1.3976
  160MOL0     H21552  11.708   8.517   3.731  1.5378  2.8836  1.5503
  160MOL0     H21553  11.806   8.605   3.607 -0.1031  2.4892 -1.0646
  160MOL0     H21554  11.527   8.695   3.697  0.0308 -0.4409  0.1076
  160MOL0     H21555  11.652   8.799   3.629 -2.1174 -0.4431 -1.3817
  160MOL0     H21556  11.773   8.748   3.870 -1.4961 -2.9498  2.8441
  160MOL0     H21557  11.632   8.649   3.907  1.3590  0.5500  3.5839
  160MOL0     H21558  11.634   8.938   3.801  0.9684 -0.5193  1.2136
  160MOL0     H21559  11.638   8.914   3.972 -1.5903  1.1541  0.0491
  160MOL0     H21560  11.487   9.074   4.041 -0.0061 -3.2757  1.2435
  160MOL0     H21561  11.377   9.382   4.035 -3.0443  1.0441  2.7033
  160MOL0     H21562  11.264   9.300   4.138  0.1487  1.6786  0.6927
  160MOL0     H21563  11.434   9.252   4.148 -1.4402  0.7463  1.8085
  160MOL0     H21564  10.988   9.494   4.131  0.5872  0.9591  0.9771
  160MOL0     H21565  10.809   9.652   4.105 -0.2846  1.7763 -0.1024
  160MOL0     H21566  10.839   9.983   3.792  0.6404  1.9568  4.4903
  160MOL0     H21567  10.726   9.861   3.723  2.1106 -0.7546 -0.0624
  160MOL0     H21568  10.662  10.050   3.966 -0.2831 -2.5519  0.8060
  160MOL0     H21569  10.628  10.113   3.801  0.7511  1.4972  1.1493
  160MOL0     H21570  10.525   9.862   3.921  0.0604  0.2044 -1.0785
  160MOL0     H21571  10.459   9.950   3.773 -1.3389  0.0271  0.2121
  160MOL0     H21572  10.455  10.045   4.072 -0.7249  2.3119  0.2968
  160MOL0     H21573  10.354  10.115   3.936  1.6185  0.9780  0.0300
  160MOL0     H21574  10.322   9.844   4.072  0.5788 -0.0010  0.7938
  160MOL0     H21575  10.249   9.875   3.917 -1.4139 -2.5068  2.1426
  160MOL0     H21576  10.098  10.047   4.006  1.9282  0.7693 -0.4653
  160MOL0     H21577  10.094   9.911   4.123  2.0638 -2.8497 -1.4864
  160MOL0     H21578  10.092  10.123   4.238 -0.3703  0.0732 -0.7582
  160MOL0     H21579  10.248  10.169   4.170 -1.0653 -0.6277 -1.8698
  160MOL0     H21580  10.350   9.954   4.263 -1.7771 -1.8735  0.7786
  160MOL0     H21581  10.205   9.906   4.321  2.0512 -1.8900 -1.8042
  160MOL0     H21582  10.965   9.795   3.739  2.0182 -1.4004 -1.8278
  160MOL0     H21583  11.135   9.622   3.740 -2.1318  1.9769 -3.3510
  160MOL0     H21584  11.125   9.089   3.716  1.7117  1.1759 -0.8507
  160MOL0     H21585  11.248   8.887   3.743 -3.3451  1.8594 -0.7811
  160MOL0     H21586  11.087   8.226   2.260  0.2931  1.2071  0.4610
  160MOL0     H21587  11.042   8.389   2.048 -0.2211  2.2204  0.4254
  160MOL0     H21588  10.969   8.885   1.914  1.1177  0.8170 -0.5675
  160MOL0     H21589  10.883   8.955   1.706  2.2663  1.6386  0.3712
  160MOL0     H21590  10.889   8.702   1.387 -2.3297 -0.0967 -2.6619
  160MOL0     H21591  10.767   8.779   1.475  1.7387 -0.3077  1.2333
  160MOL0     H21592  10.867   8.953   1.270  0.9326 -1.4018 -0.1790
  160MOL0     H21593  10.701   8.909   1.331  0.1826  1.1605  0.3771
  160MOL0     H21594  10.767   8.686   1.191 -0.7931  1.2978  2.9507
  160MOL0     H21595  10.867   8.815   1.105  0.8639 -0.6911  1.6779
  160MOL0     H21596  10.574   8.811   1.177 -1.2097 -0.2011 -2.2928
  160MOL0     H21597  10.625   8.773   1.019 -1.3983 -2.5565  1.8152
  160MOL0     H21598  10.711   9.166   0.945  2.1992 -0.9659 -0.7580
  160MOL0     H21599  11.142   8.713   1.494  1.4497 -3.9030  1.4399
  160MOL0     H21600  11.251   8.632   1.706 -1.4044 -0.9078 -0.8883
  161MOL0     O21601  11.384  11.349   1.135 -0.4744  0.0556  0.4397
  161MOL0     C21602  11.374  11.273   1.035 -1.1328  0.5424 -0.6481
  161MOL0     O21603  11.316  11.146   1.033  0.2816 -0.1438  0.3829
  161MOL0     C21604  11.287  11.091   1.159 -0.1738 -0.2981  0.6024
  161MOL0     C21605  11.392  11.037   1.238  0.6384  0.4836  1.0241
  161MOL0     C21606  11.354  10.971   1.355  0.3260  0.4178  0.3268
  161MOL0     C21607  11.222  10.965   1.392  0.3621 -0.5786  0.0103
  161MOL0     O21608  11.201  10.878   1.499  0.4459 -0.3201  0.3113
  161MOL0     C21609  11.065  10.836   1.531 -0.1788  0.3193  0.3242
  161MOL0     C21610  11.087  10.725   1.640  0.1163 -0.1827  1.6423
  161MOL0     C21611  10.957  10.668   1.696  1.0662 -0.3565 -0.0009
  161MOL0     C21612  10.866  10.779   1.760  0.2225  0.6655 -1.4296
  161MOL0     C21613  10.796  10.729   1.880  1.1699 -0.3850 -0.0246
  161MOL0     C21614  10.717  10.832   1.957  0.4438  0.8130  0.1883
  161MOL0     C21615  10.631  10.774   2.068  0.2249 -0.6483  0.9166
  161MOL0     C21616  10.535  10.879   2.110  0.4438  1.1066  1.4060
  161MOL0     N21617  10.456  10.839   2.234  0.0540  0.5981  0.0949
  161MOL0     C21618  10.375  10.913   2.315  0.4743  0.4057 -0.0877
  161MOL0     C21619  10.331  10.827   2.417  0.1756 -0.3363 -0.2643
  161MOL0     C21620  10.240  10.877   2.526  0.6717 -0.5634 -0.0118
  161MOL0     C21621  10.297  10.855   2.662 -0.6876 -0.0161  0.4619
  161MOL0     C21622  10.197  10.883   2.770 -0.5179  0.5759  1.0280
  161MOL0     C21623  10.261  10.936   2.899 -0.2077  0.5027 -0.3210
  161MOL0     O21624  10.187  10.917   3.021 -0.0130  0.5791 -0.7875
  161MOL0     C21625  10.229  10.979   3.140  0.8808 -0.4782 -0.5860
  161MOL0     C21626  10.338  11.060   3.141 -0.2305 -1.0483 -0.0539
  161MOL0     C21627  10.368  11.137   3.258  0.0251  0.2459  0.4078
  161MOL0     C21628  10.495  11.228   3.262 -0.4570  1.4499 -0.0145
  161MOL0     C21629  10.282  11.132   3.370 -0.4042 -0.8910  0.2174
  161MOL0     C21630  10.302  11.215   3.491  0.1633  0.6125 -0.2098
  161MOL0     O21631  10.249  11.170   3.603 -0.1559  1.0015 -0.5271
  161MOL0     C21632  10.240  11.241   3.729 -1.3057  1.0224 -0.2042
  161MOL0     C21633  10.148  11.339   3.735  0.3514 -0.0542  0.0273
  161MOL0     C21634  10.120  11.401   3.856  0.7904  0.1547  0.7906
  161MOL0     C21635  10.182  11.360   3.980 -0.6678  0.2684  1.1865
  161MOL0     O21636  10.155  11.434   4.090  0.2085  0.2435  0.4533
  161MOL0     C21637  10.017  11.421   4.129 -0.4533 -1.0580  0.0855
  161MOL0     C21638   9.964  11.554   4.192 -0.2349  0.4142 -0.1766
  161MOL0     C21639  10.033  11.587   4.333 -0.2386 -0.4502 -0.3540
  161MOL0     C21640  10.008  11.493   4.455  0.1349 -0.0440  0.2285
  161MOL0     C21641  10.055  11.556   4.589 -0.9312  0.8671 -0.3618
  161MOL0     C21642  10.071  11.465   4.708 -1.0174  0.1575  1.0645
  161MOL0     C21643   9.954  11.375   4.744 -0.2694  0.1861 -0.0848
  161MOL0     C21644   9.994  11.274   4.854  0.6773 -0.3026 -0.1298
  161MOL0    Cl21645   9.866  11.160   4.909 -0.1041  0.0309 -0.3522
  161MOL0     C21646  10.283  11.267   3.974  0.2417  0.1446 -0.2587
  161MOL0     C21647  10.308  11.208   3.846 -0.6710  0.4525 -0.6971
  161MOL0     O21648  10.337  11.332   3.468 -0.6432 -0.2211 -0.4040
  161MOL0     C21649  10.175  11.039   3.368  0.0273  0.0717  0.2107
  161MOL0     C21650  10.142  10.962   3.254  0.4288 -0.4829  0.0202
  161MOL0     N21651  10.405  10.715   2.405 -0.1453  0.1594 -0.7558
  161MOL0     N21652  10.480  10.717   2.305 -0.2799 -1.3737 -0.3057
  161MOL0     C21653  11.123  11.020   1.316 -0.2528 -0.9976 -0.7651
  161MOL0     C21654  11.155  11.079   1.189  0.0472  0.5576  0.4914
  161MOL0     C21655  11.447  11.312   0.913  0.6229 -0.0583  0.3914
  161MOL0     C21656  11.544  11.418   0.914 -0.2789  0.3626 -0.3644
  161MOL0     C21657  11.620  11.449   0.799  0.8649 -0.1511 -0.4358
  161MOL0     C21658  11.585  11.375   0.675 -0.1189 -0.2431  0.4762
  161MOL0     O21659  11.651  11.397   0.558  0.6012 -0.3456 -0.1389
  161MOL0     C21660  11.622  11.530   0.511 -0.6369 -0.0942  0.4823
  161MOL0     C21661  11.660  11.540   0.362  0.2956 -0.0279  0.1988
  161MOL0     C21662  11.598  11.665   0.301  1.0790  0.1109 -1.1018
  161MOL0     C21663  11.670  11.791   0.353 -0.5210  0.3679  0.6941
  161MOL0     C21664  11.682  11.892   0.239  0.8971  0.7833 -0.0772
  161MOL0     C21665  11.694  11.966   0.143  0.2462 -1.2444  0.1246
  161MOL0     C21666  11.483  11.279   0.680 -0.8714 -0.5064 -0.6692
  161MOL0     C21667  11.416  11.240   0.798 -0.5465  0.1354  0.1613
  161MOL0     H21668  11.499  11.039   1.223  0.3621  1.0609 -1.1812
  161MOL0     H21669  11.425  10.917   1.418 -1.0782 -0.2999  1.3513
  161MOL0     H21670  11.010  10.915   1.584  1.1285 -0.5973  3.2380
  161MOL0     H21671  11.014  10.784   1.450  0.5430 -2.9348  1.7963
  161MOL0     H21672  11.140  10.643   1.591 -0.0036  2.3266 -3.2528
  161MOL0     H21673  11.143  10.774   1.720 -1.3806  1.2030  1.9044
  161MOL0     H21674  10.892  10.627   1.618  2.8437  0.2957 -1.9024
  161MOL0     H21675  10.984  10.591   1.769 -1.8689 -0.1167  1.5234
  161MOL0     H21676  10.913  10.871   1.796  0.3368 -0.0236  0.2509
  161MOL0     H21677  10.794  10.825   1.691  0.3888  0.2434 -1.8881
  161MOL0     H21678  10.719  10.660   1.843  3.3196 -3.4809  0.8842
  161MOL0     H21679  10.852  10.670   1.954 -0.4641 -1.3075  0.5259
  161MOL0     H21680  10.787  10.910   1.989 -0.3241  1.3873  0.5178
  161MOL0     H21681  10.649  10.891   1.895  0.0486  0.5917  0.4079
  161MOL0     H21682  10.584  10.682   2.033  0.0099  0.4828 -2.0164
  161MOL0     H21683  10.699  10.757   2.152 -3.4961  3.0723  5.2008
  161MOL0     H21684  10.470  10.906   2.027  0.8726 -3.3239 -0.6687
  161MOL0     H21685  10.597  10.964   2.140 -1.8180  2.7912  1.5461
  161MOL0     H21686  10.337  11.014   2.309 -0.0078  0.2052 -0.4942
  161MOL0     H21687  10.211  10.982   2.515  0.6266 -0.7390 -2.1632
  161MOL0     H21688  10.147  10.819   2.518  0.8549 -0.7490 -0.9580
  161MOL0     H21689  10.398  10.893   2.683  1.0448 -3.2235 -1.1311
  161MOL0     H21690  10.324  10.749   2.666  0.5747  0.0116 -3.2597
  161MOL0     H21691  10.150  10.788   2.798 -0.4561  0.4930  0.8493
  161MOL0     H21692  10.124  10.958   2.739 -0.3545  0.3447  0.0414
  161MOL0     H21693  10.271  11.045   2.893 -2.2413  0.9929  2.7952
  161MOL0     H21694  10.361  10.892   2.902  0.3683  1.6535 -1.5229
  161MOL0     H21695  10.407  11.064   3.057  1.4326 -2.2618  1.1854
  161MOL0     H21696  10.561  11.209   3.347 -1.8860 -0.8405  0.6651
  161MOL0     H21697  10.544  11.202   3.168  1.3303 -3.1021  1.8818
  161MOL0     H21698  10.464  11.332   3.249  0.7663  1.5530 -2.8628
  161MOL0     H21699  10.097  11.373   3.645  1.6761 -1.6724 -1.4168
  161MOL0     H21700  10.038  11.472   3.851  1.2047  0.5724 -0.3262
  161MOL0     H21701   9.948  11.410   4.045 -0.4318 -0.8382  0.0388
  161MOL0     H21702   9.981  11.338   4.191 -1.4220 -0.5555  0.2237
  161MOL0     H21703   9.989  11.631   4.119  0.9984  1.8300  1.6346
  161MOL0     H21704   9.855  11.543   4.197 -0.1127 -0.2339  1.9305
  161MOL0     H21705   9.992  11.683   4.365 -2.6333 -0.9355 -1.6629
  161MOL0     H21706  10.142  11.589   4.326  0.2678 -0.7874  4.2501
  161MOL0     H21707   9.901  11.472   4.453 -0.3985  2.3577  0.5167
  161MOL0     H21708  10.059  11.398   4.434 -0.0728 -0.3489  1.0761
  161MOL0     H21709   9.995  11.645   4.612 -1.6203  1.3203 -3.5138
  161MOL0     H21710  10.154  11.599   4.573 -0.4535  0.1791  0.6684
  161MOL0     H21711  10.148  11.390   4.685 -1.8454 -0.4016  0.0618
  161MOL0     H21712  10.113  11.524   4.790  2.3764  1.1499 -1.2156
  161MOL0     H21713   9.921  11.312   4.660 -0.9544 -1.4099  1.3286
  161MOL0     H21714   9.869  11.431   4.783  1.5886  1.5866  2.2269
  161MOL0     H21715  10.027  11.333   4.940 -3.2293 -1.1868  2.2585
  161MOL0     H21716  10.077  11.211   4.822  2.5237  2.7415 -1.7582
  161MOL0     H21717  10.339  11.233   4.061 -0.1458 -3.8120 -1.3236
  161MOL0     H21718  10.385  11.133   3.830  0.2537  0.9986  0.8624
  161MOL0     H21719  10.112  11.029   3.455 -0.7058 -0.2578 -0.3481
  161MOL0     H21720  10.054  10.900   3.243  0.2417  0.0970 -2.2420
  161MOL0     H21721  11.019  10.995   1.335 -0.3210 -2.5650 -2.7690
  161MOL0     H21722  11.079  11.102   1.115 -1.2962  0.8470  1.8977
  161MOL0     H21723  11.574  11.479   0.998 -0.4797 -2.2692  1.7514
  161MOL0     H21724  11.693  11.529   0.789  0.0518  0.5817 -0.6671
  161MOL0     H21725  11.518  11.562   0.521 -0.6834  0.1091 -0.5174
  161MOL0     H21726  11.689  11.590   0.573 -2.8604 -1.7275  4.8661
  161MOL0     H21727  11.630  11.453   0.302  1.5551 -0.9419  0.8516
  161MOL0     H21728  11.768  11.538   0.346  0.1246 -1.6412 -0.9888
  161MOL0     H21729  11.493  11.663   0.331  1.7589 -1.5566  1.5712
  161MOL0     H21730  11.616  11.665   0.193  0.7431  1.3132 -1.1677
  161MOL0     H21731  11.775  11.770   0.377 -0.4542  2.1518  2.2165
  161MOL0     H21732  11.621  11.839   0.438 -1.3366  1.5839 -0.4421
  161MOL0     H21733  11.703  12.045   0.072  0.5052 -0.1560  1.3235
  161MOL0     H21734  11.448  11.230   0.590  1.8290 -2.7915 -0.6353
  161MOL0     H21735  11.339  11.164   0.794 -2.6233  2.0413  1.2343
  162MOL0     O21736   2.461   3.250   1.890  0.0627 -0.4240  0.4789
  162MOL0     C21737   2.549   3.313   1.834  0.0690 -0.4464  0.2197
  162MOL0     O21738   2.642   3.268   1.754  0.3097  0.1412 -0.6345
  162MOL0     C21739   2.670   3.127   1.747 -0.1387  0.5397 -0.3628
  162MOL0     C21740   2.761   3.083   1.649  0.1283  1.1162 -0.3063
  162MOL0     C21741   2.804   2.956   1.635 -0.0338  1.3971  0.0149
  162MOL0     C21742   2.758   2.855   1.718 -0.7107 -0.8637 -0.0182
  162MOL0     O21743   2.795   2.723   1.707  0.2422 -0.3149  0.4108
  162MOL0     C21744   2.707   2.616   1.753 -0.2277  0.3232  0.6219
  162MOL0     C21745   2.678   2.531   1.623 -0.4994  0.5402  0.2666
  162MOL0     C21746   2.807   2.485   1.546 -0.2796 -0.4828 -0.5073
  162MOL0     C21747   2.895   2.383   1.621  0.2698  0.1959 -0.8402
  162MOL0     C21748   3.026   2.355   1.545 -0.1494  0.4232  0.5670
  162MOL0     C21749   3.106   2.482   1.549 -1.0242  0.9801  0.0441
  162MOL0     C21750   3.249   2.454   1.485 -0.3113  0.9222 -0.9197
  162MOL0     C21751   3.331   2.574   1.523 -0.4340 -0.0161  0.8698
  162MOL0     N21752   3.466   2.574   1.463 -0.1309 -0.1397 -0.5156
  162MOL0     C21753   3.579   2.622   1.530  0.9555  0.3903  0.8558
  162MOL0     C21754   3.681   2.624   1.443  0.1895  0.3855 -0.5157
  162MOL0     C21755   3.824   2.677   1.453 -0.4925  0.3867 -0.6109
  162MOL0     C21756   3.835   2.774   1.333  0.1112 -0.9507 -0.0124
  162MOL0     C21757   3.976   2.823   1.310 -0.0087  0.1130  0.6160
  162MOL0     C21758   4.070   2.718   1.249  0.1858 -0.4762  0.3399
  162MOL0     O21759   4.171   2.685   1.348  0.0399  0.7836 -0.4852
  162MOL0     C21760   4.267   2.596   1.331 -0.1563 -0.1883  0.5962
  162MOL0     C21761   4.294   2.535   1.207 -1.5342 -0.4782 -0.0560
  162MOL0     C21762   4.400   2.438   1.195 -0.0977 -0.1227 -0.5654
  162MOL0     C21763   4.408   2.359   1.074 -0.0880  0.2633 -0.1101
  162MOL0     C21764   4.471   2.413   1.316  0.0116  0.2210 -0.2801
  162MOL0     C21765   4.593   2.323   1.312 -0.5010 -0.1723 -0.3729
  162MOL0     O21766   4.622   2.268   1.432  0.9219 -0.1876 -0.1991
  162MOL0     C21767   4.711   2.163   1.440 -0.5072  0.2294  0.0244
  162MOL0     C21768   4.836   2.185   1.494  0.0007 -0.6635 -0.0373
  162MOL0     C21769   4.937   2.089   1.494  0.5106  0.4092  0.3163
  162MOL0     C21770   4.901   1.953   1.465 -0.2269  0.0868  0.2376
  162MOL0     O21771   4.982   1.846   1.489  0.1614  0.4942  0.6857
  162MOL0     C21772   5.048   1.841   1.614  0.1669 -0.1204  0.4610
  162MOL0     C21773   4.943   1.870   1.731  0.6043 -0.0675  0.1105
  162MOL0     C21774   5.015   1.918   1.861 -0.5642 -0.0876 -0.2650
  162MOL0     C21775   4.901   1.951   1.961  0.9858 -0.2529 -0.1450
  162MOL0     C21776   4.952   2.047   2.069 -0.4857 -0.4130  0.4317
  162MOL0     C21777   5.080   1.996   2.131  0.2750 -0.2854  0.2044
  162MOL0     C21778   5.123   2.083   2.247 -0.3473 -1.0287 -0.0757
  162MOL0     C21779   5.201   2.027   2.364 -0.4112 -0.2046 -0.2401
  162MOL0    Cl21780   5.125   1.872   2.439 -0.5688 -0.6661 -0.0619
  162MOL0     C21781   4.772   1.928   1.417  0.6371 -0.4123 -0.0915
  162MOL0     C21782   4.681   2.031   1.414 -0.8298 -0.0369  0.0318
  162MOL0     O21783   4.662   2.318   1.212  0.5221  0.5302 -0.5762
  162MOL0     C21784   4.452   2.488   1.430 -0.0310 -0.4631  0.3842
  162MOL0     C21785   4.352   2.570   1.443  0.6649  1.0830  0.2708
  162MOL0     N21786   3.630   2.577   1.329  0.4153  0.4725  1.0665
  162MOL0     N21787   3.503   2.543   1.338 -0.1767 -0.4295  0.6267
  162MOL0     C21788   2.678   2.891   1.825  0.4950  0.2274 -0.4542
  162MOL0     C21789   2.635   3.021   1.841 -0.7758 -0.0572  0.1792
  162MOL0     C21790   2.539   3.460   1.866 -0.0581  0.0307 -0.4047
  162MOL0     C21791   2.618   3.551   1.798 -0.1777  0.9272 -0.3472
  162MOL0     C21792   2.627   3.685   1.838 -0.9795 -0.0802  0.4091
  162MOL0     C21793   2.544   3.732   1.940 -0.3568 -0.3080 -0.4161
  162MOL0     O21794   2.552   3.861   1.988  0.3815  0.7208 -0.3703
  162MOL0     C21795   2.635   3.953   1.915  0.0218  0.1162  0.7915
  162MOL0     C21796   2.602   4.088   1.986  0.0589 -0.1105  0.3569
  162MOL0     C21797   2.697   4.197   1.942  0.2613  0.3756  0.9870
  162MOL0     C21798   2.637   4.324   2.002 -0.1599  0.8419  0.3442
  162MOL0     C21799   2.736   4.434   1.986 -1.0928 -0.1588 -0.0037
  162MOL0     C21800   2.817   4.523   1.971 -1.4941 -0.7315  0.3270
  162MOL0     C21801   2.458   3.647   2.002  0.5082  0.3890  0.0382
  162MOL0     C21802   2.456   3.514   1.970  0.6837  1.7024 -0.2848
  162MOL0     H21803   2.788   3.156   1.573 -0.9485 -0.4159 -2.2646
  162MOL0     H21804   2.891   2.937   1.572 -0.5164 -1.3638  0.0465
  162MOL0     H21805   2.770   2.553   1.816  0.4066 -2.5030 -2.5373
  162MOL0     H21806   2.622   2.658   1.808  0.2157 -0.3923  1.8963
  162MOL0     H21807   2.617   2.441   1.641 -0.0220  0.1197 -0.2095
  162MOL0     H21808   2.620   2.604   1.566 -3.1780  0.3809  2.5692
  162MOL0     H21809   2.776   2.445   1.449 -0.7532  0.7515 -0.8896
  162MOL0     H21810   2.859   2.581   1.539 -0.0418 -0.4913  0.9453
  162MOL0     H21811   2.901   2.400   1.729 -1.4927 -0.3535 -0.6253
  162MOL0     H21812   2.840   2.289   1.621 -0.3360  0.5223  0.3071
  162MOL0     H21813   3.081   2.278   1.599  0.4845  1.6172  1.6805
  162MOL0     H21814   3.004   2.327   1.442 -0.0254  2.4489 -0.0607
  162MOL0     H21815   3.065   2.569   1.497  2.0475  1.4114 -1.9120
  162MOL0     H21816   3.110   2.506   1.655  0.9240  2.1839 -0.2583
  162MOL0     H21817   3.296   2.362   1.522 -1.7154  0.6001  0.1651
  162MOL0     H21818   3.233   2.449   1.377 -1.3950  2.3602 -0.8471
  162MOL0     H21819   3.335   2.583   1.632 -0.3896  0.8753  0.7996
  162MOL0     H21820   3.273   2.661   1.492 -3.2378 -1.8139  0.6564
  162MOL0     H21821   3.575   2.654   1.634 -1.0318  2.0053  0.3485
  162MOL0     H21822   3.840   2.737   1.543 -3.8995 -3.6701  3.1066
  162MOL0     H21823   3.894   2.594   1.446  1.9531  2.2678 -0.1496
  162MOL0     H21824   3.784   2.864   1.369  0.4886 -0.8740  0.3493
  162MOL0     H21825   3.800   2.731   1.239  3.1780  1.3605 -2.4503
  162MOL0     H21826   4.011   2.858   1.407 -1.5045 -3.0236  2.4472
  162MOL0     H21827   3.961   2.910   1.246 -1.1506 -1.2826 -1.1227
  162MOL0     H21828   4.120   2.778   1.173  0.5922  0.1234  1.0616
  162MOL0     H21829   4.027   2.622   1.218  2.3878 -0.9576 -1.4379
  162MOL0     H21830   4.244   2.559   1.114 -3.1330  0.8963  1.0897
  162MOL0     H21831   4.496   2.394   1.020  1.1764  0.4397  1.9500
  162MOL0     H21832   4.415   2.250   1.081 -0.5760  0.1206 -1.4764
  162MOL0     H21833   4.321   2.373   1.009  0.7038 -1.9627 -1.7480
  162MOL0     H21834   4.862   2.288   1.517 -0.8625 -0.1765 -1.1523
  162MOL0     H21835   5.042   2.112   1.513 -0.0204  1.3095  2.4797
  162MOL0     H21836   5.093   1.747   1.647  1.5487  1.1731  2.5073
  162MOL0     H21837   5.137   1.904   1.601  0.0927 -0.2949 -1.0480
  162MOL0     H21838   4.872   1.947   1.699  0.3972 -0.4712 -0.4207
  162MOL0     H21839   4.893   1.778   1.761 -0.4529  0.9722  1.6826
  162MOL0     H21840   5.079   2.005   1.844  1.6442 -1.2933  1.3616
  162MOL0     H21841   5.081   1.841   1.901 -0.1684 -0.0991 -0.9355
  162MOL0     H21842   4.820   2.001   1.907  3.5500  2.6929 -1.5070
  162MOL0     H21843   4.844   1.869   2.007 -1.6362 -0.0125 -2.6607
  162MOL0     H21844   4.883   2.046   2.153  0.0039  1.5312  0.9124
  162MOL0     H21845   4.953   2.143   2.016  0.1402 -1.2752 -1.2016
  162MOL0     H21846   5.064   1.896   2.171 -0.4873  0.7036  2.5426
  162MOL0     H21847   5.160   1.988   2.057  0.2700  2.0548 -0.1289
  162MOL0     H21848   5.035   2.122   2.300  1.0837  0.1833  1.5352
  162MOL0     H21849   5.172   2.170   2.203 -2.6942  2.4550  3.5220
  162MOL0     H21850   5.203   2.106   2.440  0.6622 -2.3117  2.0676
  162MOL0     H21851   5.306   2.007   2.345  0.6677  0.3322  3.9826
  162MOL0     H21852   4.729   1.829   1.403  1.2703 -0.8065  0.6587
  162MOL0     H21853   4.579   2.000   1.391 -0.2324 -0.6718 -1.8759
  162MOL0     H21854   4.510   2.478   1.522  2.9996  0.3583 -1.3192
  162MOL0     H21855   4.335   2.632   1.529  0.2024  1.4313 -0.0664
  162MOL0     H21856   2.647   2.823   1.904  0.2356  1.2410  0.3371
  162MOL0     H21857   2.563   3.039   1.920 -0.7793 -1.8733  0.6412
  162MOL0     H21858   2.677   3.511   1.716  0.3194  1.7495 -0.4018
  162MOL0     H21859   2.708   3.742   1.793 -1.5588 -0.9882 -1.9278
  162MOL0     H21860   2.740   3.922   1.924 -0.4606 -1.6392  0.7640
  162MOL0     H21861   2.604   3.959   1.811 -1.3050  1.1154  1.2164
  162MOL0     H21862   2.585   4.076   2.093  0.4842  0.6395  0.5123
  162MOL0     H21863   2.505   4.118   1.946 -0.6050 -1.5044  0.8601
  162MOL0     H21864   2.692   4.202   1.833 -2.0719  1.2799  1.0768
  162MOL0     H21865   2.796   4.168   1.977  1.1234 -0.0784 -1.5899
  162MOL0     H21866   2.620   4.301   2.108  2.1039  0.1753  0.6202
  162MOL0     H21867   2.543   4.348   1.952  0.6212  2.9363 -0.2039
  162MOL0     H21868   2.879   4.604   1.937 -0.9440 -1.9880 -1.8026
  162MOL0     H21869   2.399   3.690   2.083 -0.9654  2.4662 -2.0110
  162MOL0     H21870   2.394   3.446   2.027 -0.0714  1.3281 -1.5043
  163MOL0     O21871   2.030   0.243   7.973 -0.3007 -0.2116 -0.1132
  163MOL0     C21872   2.127   0.215   7.912 -0.2202 -0.2273  0.5046
  163MOL0     O21873   2.257   0.202   7.960  0.0796 -0.1586  0.6066
  163MOL0     C21874   2.265   0.224   8.092  0.3595 -0.3944 -0.0142
  163MOL0     C21875   2.223   0.132   8.191  0.4942 -0.1711  0.1970
  163MOL0     C21876   2.216   0.169   8.325  0.2919  0.0439 -0.8283
  163MOL0     C21877   2.272   0.294   8.370  0.2648  0.6220  1.2538
  163MOL0     O21878   2.284   0.304   8.499  0.4919 -0.3062  0.0520
  163MOL0     C21879   2.386   0.392   8.548 -0.6765  0.9599 -0.2495
  163MOL0     C21880   2.373   0.413   8.701 -0.1003  0.2818  0.2250
  163MOL0     C21881   2.492   0.467   8.780 -1.2699 -0.5806  1.3213
  163MOL0     C21882   2.635   0.438   8.730 -0.1449  0.1955 -1.0121
  163MOL0     C21883   2.755   0.507   8.799 -0.2363  0.0076 -0.6287
  163MOL0     C21884   2.759   0.483   8.956 -0.1972 -0.6968 -0.7184
  163MOL0     C21885   2.853   0.594   9.022  0.4344 -1.2888  0.8313
  163MOL0     C21886   2.860   0.584   9.178 -0.9889 -0.3446 -1.3076
  163MOL0     N21887   2.794   0.690   9.241  0.1054 -0.3291  0.0534
  163MOL0     C21888   2.671   0.682   9.311  0.9407 -0.9298 -0.2016
  163MOL0     C21889   2.633   0.810   9.336 -0.2120  0.4985  1.2366
  163MOL0     C21890   2.516   0.851   9.426  0.6490  0.1369 -0.0989
  163MOL0     C21891   2.374   0.865   9.350  0.3256  0.1189 -0.0164
  163MOL0     C21892   2.318   0.991   9.391  0.7777 -0.2716 -0.5706
  163MOL0     C21893   2.186   1.019   9.312  0.6988  1.0504  0.0367
  163MOL0     O21894   2.082   0.924   9.331  0.1598 -0.9574  0.0543
  163MOL0     C21895   1.990   0.897   9.227  0.4130  0.3384 -0.5834
  163MOL0     C21896   1.942   0.984   9.131 -0.5017  0.1981  0.0764
  163MOL0     C21897   1.853   0.957   9.025 -0.3673 -0.3907  0.4849
  163MOL0     C21898   1.806   1.084   8.947  0.5768 -0.0424 -0.1948
  163MOL0     C21899   1.807   0.823   9.008  0.6935 -1.0123  0.5092
  163MOL0     C21900   1.702   0.780   8.909 -0.0461 -0.8614 -0.1254
  163MOL0     O21901   1.662   0.647   8.908 -0.2982 -0.5390 -0.5573
  163MOL0     C21902   1.562   0.602   8.830  0.3392  0.5978  0.1540
  163MOL0     C21903   1.434   0.662   8.845  0.0810 -0.5924  0.2853
  163MOL0     C21904   1.343   0.621   8.755 -0.2596  0.3369  0.1404
  163MOL0     C21905   1.375   0.531   8.651  0.0337 -0.6250  0.1813
  163MOL0     O21906   1.290   0.513   8.540 -0.8280  0.1993 -0.1202
  163MOL0     C21907   1.196   0.618   8.518 -0.7222 -0.4912  0.2168
  163MOL0     C21908   1.151   0.592   8.380 -0.5606 -0.0255  0.2099
  163MOL0     C21909   1.083   0.724   8.321 -0.6039 -0.0926  0.5728
  163MOL0     C21910   1.000   0.708   8.186 -0.7718  0.1968 -0.4707
  163MOL0     C21911   1.091   0.658   8.083  0.0788  0.3091  0.3194
  163MOL0     C21912   1.017   0.658   7.951  0.6469  0.1057  0.3466
  163MOL0     C21913   1.102   0.597   7.833  0.6041  0.6008 -0.3084
  163MOL0     C21914   1.091   0.447   7.854  0.2945 -0.1865 -0.2274
  163MOL0    Cl21915   1.127   0.362   7.703  0.0550 -0.2370  0.1080
  163MOL0     C21916   1.495   0.467   8.642 -0.3792 -0.4443 -0.1771
  163MOL0     C21917   1.591   0.503   8.732 -0.5196 -0.0277  0.0589
  163MOL0     O21918   1.639   0.872   8.848 -0.9214  0.1470  0.3481
  163MOL0     C21919   1.853   0.726   9.108  0.0507 -0.2326 -0.1269
  163MOL0     C21920   1.933   0.763   9.215  0.6848  0.0980 -0.7907
  163MOL0     N21921   2.729   0.888   9.274 -0.1478  0.0949  0.4496
  163MOL0     N21922   2.815   0.822   9.217 -0.1396  0.2312  0.5076
  163MOL0     C21923   2.324   0.374   8.269 -0.7296 -0.2128  0.1737
  163MOL0     C21924   2.326   0.339   8.134  0.6976  0.7983  0.0246
  163MOL0     C21925   2.110   0.220   7.764  0.4624  0.7359 -0.2371
  163MOL0     C21926   2.228   0.234   7.682 -0.4371  0.3852 -0.1503
  163MOL0     C21927   2.213   0.223   7.541  0.2265 -0.5937 -0.3324
  163MOL0     C21928   2.090   0.199   7.480 -0.6241 -0.6704  0.4834
  163MOL0     O21929   2.096   0.204   7.337  0.5740  0.2520 -0.4476
  163MOL0     C21930   1.983   0.153   7.259 -0.4545 -0.1631 -0.6745
  163MOL0     C21931   2.033   0.159   7.115  0.7387 -0.0818  0.6407
  163MOL0     C21932   1.966   0.043   7.025  0.0921 -0.0434  0.4963
  163MOL0     C21933   1.990   0.056   6.875  0.6300  1.0463 -0.3735
  163MOL0     C21934   2.131   0.014   6.832  0.7888 -0.0997  0.3206
  163MOL0     C21935   2.242  -0.026   6.806  0.1505  0.2638  0.2881
  163MOL0     C21936   1.983   0.185   7.564  0.3459 -0.0574 -0.3927
  163MOL0     C21937   1.993   0.189   7.704  0.7608 -0.3125  0.3955
  163MOL0     H21938   2.171   0.041   8.163 -1.2949  1.1186 -0.8734
  163MOL0     H21939   2.209   0.105   8.412  3.5288  1.5161  0.6780
  163MOL0     H21940   2.488   0.354   8.534 -0.8888  0.2020  0.2078
  163MOL0     H21941   2.370   0.488   8.497 -0.0427  1.0341 -0.3243
  163MOL0     H21942   2.289   0.482   8.711 -0.6331 -0.6564  3.0291
  163MOL0     H21943   2.360   0.318   8.754  1.7185 -0.3723 -0.4266
  163MOL0     H21944   2.492   0.576   8.793 -3.5874 -0.4567  0.6169
  163MOL0     H21945   2.486   0.426   8.881 -1.3109 -3.1750  0.3302
  163MOL0     H21946   2.641   0.328   8.731 -2.4672 -0.1019 -4.0589
  163MOL0     H21947   2.651   0.468   8.626 -0.2657 -0.5904 -1.2647
  163MOL0     H21948   2.847   0.482   8.745  1.9510 -0.4243  2.9553
  163MOL0     H21949   2.755   0.615   8.784 -2.7198 -0.3112 -4.4312
  163MOL0     H21950   2.660   0.498   9.000  1.4912  4.3372  2.2237
  163MOL0     H21951   2.800   0.386   8.985  2.8079  0.6827  0.0752
  163MOL0     H21952   2.958   0.581   8.995  1.1172  3.9905 -0.0282
  163MOL0     H21953   2.823   0.694   8.990  1.4748 -1.6518 -1.4731
  163MOL0     H21954   2.967   0.584   9.201 -1.0809  0.6103 -0.8375
  163MOL0     H21955   2.827   0.483   9.206 -1.7405 -0.0386 -1.0709
  163MOL0     H21956   2.617   0.594   9.343 -1.0769 -0.1977 -1.4351
  163MOL0     H21957   2.517   0.793   9.519  1.0452 -1.7905 -1.2477
  163MOL0     H21958   2.546   0.955   9.445  1.5193 -0.4104  1.8076
  163MOL0     H21959   2.318   0.774   9.371  2.7059 -1.7135 -1.0240
  163MOL0     H21960   2.402   0.873   9.244  0.5471 -4.1618 -0.4691
  163MOL0     H21961   2.386   1.074   9.371  1.0791 -0.4437 -0.2653
  163MOL0     H21962   2.283   0.986   9.494 -2.7760  0.8939 -1.5858
  163MOL0     H21963   2.207   1.011   9.204 -3.4822 -2.4939 -0.8120
  163MOL0     H21964   2.157   1.123   9.325 -1.4076  0.6390 -0.8365
  163MOL0     H21965   1.967   1.089   9.137 -1.3636  0.3321  1.9742
  163MOL0     H21966   1.724   1.134   9.000 -1.0987 -0.8336 -1.9022
  163MOL0     H21967   1.884   1.161   8.951  1.0021 -0.4785 -0.0219
  163MOL0     H21968   1.787   1.071   8.840 -1.0975  1.8928 -0.2028
  163MOL0     H21969   1.410   0.731   8.925  3.2350 -0.2175  1.0432
  163MOL0     H21970   1.241   0.656   8.768 -1.5791 -3.0417 -0.2404
  163MOL0     H21971   1.110   0.624   8.585  0.9321 -1.2009  2.5735
  163MOL0     H21972   1.241   0.718   8.518 -0.9179 -0.3971 -0.5643
  163MOL0     H21973   1.236   0.570   8.316 -0.2764  2.0860 -0.2282
  163MOL0     H21974   1.072   0.517   8.390 -0.3941 -0.1196  0.8640
  163MOL0     H21975   1.165   0.795   8.305 -2.8538  2.8937  1.4069
  163MOL0     H21976   1.013   0.762   8.396 -0.5193 -2.3893  1.9104
  163MOL0     H21977   0.914   0.645   8.207 -1.0987  0.6145 -0.5424
  163MOL0     H21978   0.952   0.805   8.166 -1.8536  0.0105  1.0421
  163MOL0     H21979   1.121   0.557   8.110 -3.9098 -1.3507 -0.7268
  163MOL0     H21980   1.181   0.718   8.065  0.7275 -0.9235 -0.7169
  163MOL0     H21981   0.924   0.599   7.958  0.7178 -0.4389 -2.2675
  163MOL0     H21982   0.988   0.761   7.932  0.3334 -0.0887 -0.2458
  163MOL0     H21983   1.204   0.637   7.837  1.9220 -2.4635 -0.5878
  163MOL0     H21984   1.057   0.621   7.736 -1.9821  2.8135  1.2976
  163MOL0     H21985   0.990   0.411   7.876  0.8780 -3.5333 -2.3500
  163MOL0     H21986   1.160   0.412   7.931  0.1393 -0.1354 -0.0628
  163MOL0     H21987   1.526   0.395   8.567  2.0295 -1.4491  1.6384
  163MOL0     H21988   1.688   0.463   8.704 -0.4444  1.4584 -2.0977
  163MOL0     H21989   1.834   0.620   9.093  0.5369 -0.2422 -0.7042
  163MOL0     H21990   1.969   0.684   9.280 -0.5651 -1.1148 -1.5239
  163MOL0     H21991   2.371   0.471   8.275  3.0178 -1.7805 -1.1512
  163MOL0     H21992   2.348   0.407   8.052 -1.4980  1.4280 -0.1219
  163MOL0     H21993   2.331   0.235   7.716  1.4337 -2.3137 -4.7785
  163MOL0     H21994   2.292   0.259   7.476 -2.2526 -1.9591 -4.4708
  163MOL0     H21995   1.951   0.054   7.292  1.7126 -0.3602  1.1233
  163MOL0     H21996   1.898   0.218   7.281  0.2402  1.1090 -1.5957
  163MOL0     H21997   2.141   0.160   7.099  0.5338 -0.5730 -0.9576
  163MOL0     H21998   1.998   0.251   7.067 -0.7842 -1.6737 -1.5341
  163MOL0     H21999   1.857   0.037   7.034  0.0112 -2.5500 -1.1394
  163MOL0     H22000   1.995  -0.055   7.063 -0.5996  0.9753  4.0756
  163MOL0     H22001   1.969   0.154   6.833  2.4869  0.2949 -3.3539
  163MOL0     H22002   1.917  -0.012   6.830  0.1910  1.5311 -0.3929
  163MOL0     H22003   2.341  -0.063   6.793 -0.8873 -1.8599 -2.6195
  163MOL0     H22004   1.883   0.164   7.527  0.4626 -1.5716  0.0921
  163MOL0     H22005   1.901   0.172   7.760  0.7193  1.1410  0.8247
  164MOL0     O22006   9.469   8.688   3.358  0.1683 -0.1514 -0.0320
  164MOL0     C22007   9.584   8.719   3.365 -0.1225  0.1775  0.2228
  164MOL0     O22008   9.688   8.636   3.327  0.1779  0.1622  0.3738
  164MOL0     C22009   9.661   8.524   3.251 -0.0360  0.3721 -0.3997
  164MOL0     C22010   9.734   8.493   3.139 -0.0601  1.2322 -0.1286
  164MOL0     C22011   9.722   8.370   3.068  0.4102 -1.1196 -0.1656
  164MOL0     C22012   9.628   8.277   3.107 -0.1589  0.4746  0.8947
  164MOL0     O22013   9.599   8.155   3.039 -0.3374 -0.4634 -0.1275
  164MOL0     C22014   9.650   8.143   2.900  0.5918  0.9109 -0.4047
  164MOL0     C22015   9.624   8.000   2.857  0.3897 -0.9030  0.1156
  164MOL0     C22016   9.477   7.963   2.846  0.6368  1.6619  0.4616
  164MOL0     C22017   9.454   7.825   2.780  0.1381  0.9160  0.8688
  164MOL0     C22018   9.297   7.800   2.770 -1.4677 -0.3964  0.1174
  164MOL0     C22019   9.255   7.675   2.853  0.2513 -1.1546 -0.1112
  164MOL0     C22020   9.105   7.696   2.896 -0.4624 -0.7230 -1.3140
  164MOL0     C22021   9.050   7.575   2.962 -0.4042  0.8561  0.4230
  164MOL0     N22022   9.018   7.464   2.859 -0.3404 -0.6333 -0.4025
  164MOL0     C22023   8.935   7.499   2.754 -0.2097 -0.1922  1.2857
  164MOL0     C22024   8.924   7.377   2.695  1.5044 -0.0459 -0.5950
  164MOL0     C22025   8.844   7.351   2.567  0.2198  0.2581  0.0218
  164MOL0     C22026   8.938   7.281   2.466 -0.9198 -0.0030  0.8967
  164MOL0     C22027   8.846   7.251   2.347 -0.7833 -0.6768  1.0123
  164MOL0     C22028   8.902   7.296   2.208  0.2697  0.4858 -0.9821
  164MOL0     O22029   8.907   7.441   2.214 -0.4342  0.0215 -0.0223
  164MOL0     C22030   8.883   7.493   2.092  0.1925  0.8222  0.4438
  164MOL0     C22031   8.950   7.443   1.975  0.5824  0.6352 -0.4975
  164MOL0     C22032   8.922   7.498   1.848 -0.5253 -0.2380  0.8330
  164MOL0     C22033   8.962   7.409   1.728 -0.4132  0.0923 -0.6294
  164MOL0     C22034   8.839   7.609   1.829  0.6254 -0.0485  1.1527
  164MOL0     C22035   8.800   7.666   1.697 -0.1742 -0.5326 -0.2546
  164MOL0     O22036   8.675   7.711   1.684  0.3232  0.1711 -0.9260
  164MOL0     C22037   8.644   7.772   1.568  0.1818 -1.4968 -0.0310
  164MOL0     C22038   8.643   7.708   1.439 -0.0636 -0.4231  0.4362
  164MOL0     C22039   8.601   7.772   1.319 -0.2518  0.0874 -0.6574
  164MOL0     C22040   8.564   7.912   1.323  0.5730 -0.4521 -0.6907
  164MOL0     O22041   8.528   7.976   1.204 -0.5930  0.7873 -0.5289
  164MOL0     C22042   8.515   8.116   1.195 -0.0483 -0.6195  0.2902
  164MOL0     C22043   8.427   8.161   1.076 -0.8566  0.6867 -0.1903
  164MOL0     C22044   8.486   8.103   0.944  1.3444  1.0879 -0.2666
  164MOL0     C22045   8.411   8.152   0.811 -0.1150  0.5971  0.2756
  164MOL0     C22046   8.483   8.097   0.685  0.1524  0.6171  0.6375
  164MOL0     C22047   8.466   7.941   0.677 -0.3009  0.3150 -0.1099
  164MOL0     C22048   8.551   7.898   0.550  0.3226 -0.5390  0.0278
  164MOL0     C22049   8.552   7.750   0.520  0.0133 -0.1071  1.0976
  164MOL0    Cl22050   8.665   7.658   0.638  0.0717 -0.0856  0.0934
  164MOL0     C22051   8.575   7.979   1.454 -0.0618 -0.9460 -0.8313
  164MOL0     C22052   8.608   7.906   1.571  0.7349  0.2570 -0.9804
  164MOL0     O22053   8.883   7.658   1.606 -0.3513  0.4550 -0.3559
  164MOL0     C22054   8.772   7.652   1.943 -0.1353  0.6163 -0.4105
  164MOL0     C22055   8.793   7.594   2.069  0.3363 -0.9990  0.3434
  164MOL0     N22056   9.003   7.281   2.759 -0.5168 -0.1949  0.5961
  164MOL0     N22057   9.056   7.334   2.864  0.0307 -0.0675 -0.5171
  164MOL0     C22058   9.545   8.312   3.220 -0.2894 -0.0407  0.0007
  164MOL0     C22059   9.566   8.426   3.292  0.4312 -0.0729 -0.3640
  164MOL0     C22060   9.630   8.851   3.416 -0.2543 -0.3118 -0.3973
  164MOL0     C22061   9.766   8.878   3.410  0.6020  0.6696 -0.8529
  164MOL0     C22062   9.806   9.008   3.445  0.3518 -0.3995 -0.3051
  164MOL0     C22063   9.719   9.091   3.509  0.0182  0.8585  0.4100
  164MOL0     O22064   9.768   9.214   3.538 -0.4309  0.2578 -0.1623
  164MOL0     C22065   9.686   9.306   3.620 -0.2470 -0.6465 -0.1377
  164MOL0     C22066   9.775   9.438   3.649 -0.1226  0.8638  0.0810
  164MOL0     C22067   9.794   9.534   3.530  0.3808  0.4212 -0.6641
  164MOL0     C22068   9.659   9.586   3.474  0.5938  0.2571 -0.5955
  164MOL0     C22069   9.683   9.682   3.366 -0.1670 -0.9392  0.4255
  164MOL0     C22070   9.716   9.761   3.283  1.2037 -1.2687  0.2709
  164MOL0     C22071   9.580   9.056   3.526  0.3088  0.7447 -0.5420
  164MOL0     C22072   9.534   8.937   3.471  0.2585 -0.3520  0.0375
  164MOL0     H22073   9.815   8.556   3.102 -1.0863  0.9177 -3.2603
  164MOL0     H22074   9.787   8.360   2.982 -0.1042 -0.1721 -0.6785
  164MOL0     H22075   9.613   8.210   2.822 -1.0476 -0.8038 -1.1798
  164MOL0     H22076   9.759   8.154   2.897  0.4541  2.2747 -2.0155
  164MOL0     H22077   9.672   7.983   2.761  2.0829  1.9171  0.3522
  164MOL0     H22078   9.671   7.943   2.938 -0.3656 -0.3780  0.9494
  164MOL0     H22079   9.434   7.956   2.946  1.0090  0.3081  0.5503
  164MOL0     H22080   9.413   8.039   2.801 -2.9649 -1.0547  0.5223
  164MOL0     H22081   9.487   7.833   2.676 -0.8323  0.1436  0.4927
  164MOL0     H22082   9.513   7.750   2.832  2.5066  2.0294 -0.0503
  164MOL0     H22083   9.255   7.890   2.816  0.4936  0.9753 -0.6353
  164MOL0     H22084   9.267   7.789   2.666  1.5383 -0.5075 -0.8420
  164MOL0     H22085   9.252   7.590   2.784 -1.1410 -0.1738 -1.3166
  164MOL0     H22086   9.315   7.656   2.942 -0.9742  1.2676  1.3365
  164MOL0     H22087   9.082   7.776   2.968  2.8243  0.5372 -1.4804
  164MOL0     H22088   9.045   7.727   2.810 -0.7284  1.8592 -0.3019
  164MOL0     H22089   8.954   7.600   3.008 -1.2769  1.0998 -1.4538
  164MOL0     H22090   9.127   7.544   3.033  2.7888  1.2918 -2.5685
  164MOL0     H22091   8.875   7.588   2.736  0.6168 -0.2980 -3.1332
  164MOL0     H22092   8.752   7.294   2.580  0.8010 -2.4867 -5.1695
  164MOL0     H22093   8.814   7.446   2.523 -0.0181  1.1031  1.9135
  164MOL0     H22094   8.983   7.192   2.511 -2.8064 -2.8480 -2.3538
  164MOL0     H22095   9.010   7.359   2.444 -1.1312  0.7181  2.5920
  164MOL0     H22096   8.743   7.283   2.367 -0.5398  0.9610 -0.1276
  164MOL0     H22097   8.836   7.143   2.338 -1.0967 -0.5532 -0.4991
  164MOL0     H22098   8.832   7.252   2.137  1.6215  0.6941 -2.4823
  164MOL0     H22099   8.998   7.244   2.195 -0.0737 -0.4696  0.1273
  164MOL0     H22100   9.018   7.359   1.983 -0.9955 -0.5026  2.7898
  164MOL0     H22101   8.875   7.391   1.664  0.1733  0.1898 -1.4598
  164MOL0     H22102   9.042   7.465   1.679  1.4206  1.9742  3.9283
  164MOL0     H22103   8.997   7.308   1.752 -1.8680 -0.3683 -0.3041
  164MOL0     H22104   8.675   7.608   1.413 -0.9889  0.1936 -3.9362
  164MOL0     H22105   8.587   7.707   1.233  0.8938 -1.6958  0.4231
  164MOL0     H22106   8.466   8.149   1.287 -0.0540 -1.8959  0.7687
  164MOL0     H22107   8.614   8.160   1.180 -1.0990  1.1325 -2.0312
  164MOL0     H22108   8.319   8.145   1.082 -1.0529 -0.3087 -3.8503
  164MOL0     H22109   8.432   8.270   1.075 -0.6110  0.7490  2.2351
  164MOL0     H22110   8.475   7.994   0.942  1.6947  1.0484 -2.2281
  164MOL0     H22111   8.593   8.125   0.945  1.7003 -0.4957  0.7137
  164MOL0     H22112   8.311   8.111   0.828  1.0221 -2.3717  0.2283
  164MOL0     H22113   8.403   8.262   0.811 -1.5839  0.5183  1.3714
  164MOL0     H22114   8.588   8.122   0.673  0.5598  1.0508  4.0844
  164MOL0     H22115   8.429   8.143   0.601 -1.8277  1.2284  2.1502
  164MOL0     H22116   8.510   7.896   0.767  0.0540  2.4185  0.8321
  164MOL0     H22117   8.363   7.907   0.661  0.1246 -0.9365 -0.3284
  164MOL0     H22118   8.657   7.917   0.568  0.4286 -0.4665 -0.6520
  164MOL0     H22119   8.523   7.937   0.452  0.2067 -6.3432 -2.7046
  164MOL0     H22120   8.606   7.724   0.428 -0.9087 -0.7934  0.7289
  164MOL0     H22121   8.453   7.704   0.525  0.4507 -0.9745  2.3606
  164MOL0     H22122   8.547   8.083   1.466 -2.2754 -1.6058  0.3257
  164MOL0     H22123   8.620   7.946   1.671 -1.0673 -4.3265  1.3939
  164MOL0     H22124   8.694   7.725   1.958 -0.6584 -0.6127  4.6436
  164MOL0     H22125   8.741   7.625   2.159  1.3287 -0.1766  0.6674
  164MOL0     H22126   9.467   8.244   3.251  0.7796 -1.4053 -0.2098
  164MOL0     H22127   9.501   8.434   3.379  1.1758 -1.1086  0.3143
  164MOL0     H22128   9.837   8.812   3.362  1.0383 -0.2488  0.9622
  164MOL0     H22129   9.910   9.036   3.436  0.6135 -0.3631  2.0659
  164MOL0     H22130   9.602   9.331   3.554  0.0605 -4.3771 -2.2623
  164MOL0     H22131   9.650   9.260   3.712  1.4391  0.3235  1.0805
  164MOL0     H22132   9.870   9.406   3.693 -1.2458  0.2347  2.1717
  164MOL0     H22133   9.719   9.500   3.719  0.1785  0.7898  0.3888
  164MOL0     H22134   9.841   9.479   3.448 -0.4171 -1.5164  0.1204
  164MOL0     H22135   9.853   9.619   3.563 -0.5576  1.0090 -0.4702
  164MOL0     H22136   9.604   9.624   3.560  2.1191  0.5954  0.2775
  164MOL0     H22137   9.597   9.510   3.426 -1.5872  1.2353  0.5647
  164MOL0     H22138   9.754   9.837   3.218 -0.5584 -1.5974 -1.2431
  164MOL0     H22139   9.501   9.119   3.565 -2.8671 -2.9109 -0.4777
  164MOL0     H22140   9.429   8.912   3.478 -0.4702  1.9384 -1.6871
  165MOL0     O22141   6.055   0.621   7.921  0.1365 -0.7738 -0.1964
  165MOL0     C22142   5.931   0.625   7.915 -0.0866 -1.0351 -0.0569
  165MOL0     O22143   5.859   0.745   7.909 -0.3412 -0.6498 -0.8691
  165MOL0     C22144   5.900   0.875   7.903  0.0524  0.4109 -0.1594
  165MOL0     C22145   5.977   0.924   7.798  0.7026  0.1062  0.0736
  165MOL0     C22146   5.995   1.062   7.777 -0.1638  0.1640 -0.7763
  165MOL0     C22147   5.939   1.161   7.861 -0.4240  0.8187 -0.7354
  165MOL0     O22148   5.941   1.298   7.843  0.3438 -0.2540  0.0168
  165MOL0     C22149   5.938   1.337   7.709 -0.4938 -0.1831 -0.5800
  165MOL0     C22150   6.031   1.467   7.694  0.5551  1.5071  0.1787
  165MOL0     C22151   6.034   1.510   7.554  0.4154  0.8910 -0.0076
  165MOL0     C22152   6.176   1.501   7.497  0.1812 -0.7258 -0.5709
  165MOL0     C22153   6.283   1.591   7.563 -0.4604 -0.0428 -0.1635
  165MOL0     C22154   6.417   1.609   7.489  0.6275  0.8681  1.0455
  165MOL0     C22155   6.527   1.690   7.562 -0.0136  0.4291 -0.1993
  165MOL0     C22156   6.498   1.835   7.572 -0.2625 -0.4644  0.1621
  165MOL0     N22157   6.585   1.903   7.682 -0.2068  0.0911 -0.9697
  165MOL0     C22158   6.726   1.902   7.691  0.0903  0.2777 -0.1071
  165MOL0     C22159   6.757   1.945   7.815 -0.1622  0.4154  0.1625
  165MOL0     C22160   6.894   1.945   7.873 -0.1049 -0.1201 -0.0167
  165MOL0     C22161   6.956   1.809   7.919  0.9687  0.5197  0.7718
  165MOL0     C22162   6.982   1.713   7.803 -0.5561 -0.1335  0.3965
  165MOL0     C22163   7.080   1.598   7.832  0.4781  0.3768 -0.7232
  165MOL0     O22164   7.205   1.644   7.873 -0.1483  0.0434  0.7559
  165MOL0     C22165   7.293   1.548   7.917  0.3175 -0.0486 -1.5656
  165MOL0     C22166   7.253   1.410   7.932 -0.0610 -0.0652  0.2463
  165MOL0     C22167   7.353   1.319   7.984  0.1796 -0.6543  0.4260
  165MOL0     C22168   7.324   1.169   8.011  0.2305  0.2857  0.2182
  165MOL0     C22169   7.478   1.372   8.017  0.2199  0.1892  0.1624
  165MOL0     C22170   7.577   1.281   8.075 -0.3018  0.7005  0.8464
  165MOL0     O22171   7.613   1.305   8.198  0.5692  0.2725  0.4036
  165MOL0     C22172   7.720   1.235   8.247 -0.3551  0.6854 -0.5471
  165MOL0     C22173   7.846   1.295   8.256 -0.1530  0.7697 -0.6218
  165MOL0     C22174   7.958   1.218   8.288  0.3566  0.0381 -0.1228
  165MOL0     C22175   7.944   1.073   8.297 -0.4831 -0.9729  1.0010
  165MOL0     O22176   8.061   1.003   8.324 -0.5571  0.0098  0.0213
  165MOL0     C22177   8.068   0.866   8.314 -0.2389  0.8762 -0.2898
  165MOL0     C22178   8.206   0.821   8.261 -0.0489 -0.2394  0.5304
  165MOL0     C22179   8.229   0.670   8.287 -0.1864 -0.5508  0.4308
  165MOL0     C22180   8.341   0.607   8.199 -0.4310  0.7058  0.0105
  165MOL0     C22181   8.290   0.552   8.065 -0.1985  0.3529 -0.2600
  165MOL0     C22182   8.232   0.652   7.970 -0.9138  0.5178  0.7106
  165MOL0     C22183   8.206   0.591   7.834  0.0068 -1.2428  0.1703
  165MOL0     C22184   8.329   0.597   7.750  0.1884 -0.3071 -0.9056
  165MOL0    Cl22185   8.307   0.524   7.593  0.3227  0.0078 -0.6524
  165MOL0     C22186   7.817   1.015   8.302  0.3562  0.8303  0.9736
  165MOL0     C22187   7.703   1.102   8.272  0.2212  0.0491  0.1659
  165MOL0     O22188   7.631   1.200   7.997 -0.1587 -0.0746 -0.3623
  165MOL0     C22189   7.503   1.508   8.006  0.2461  0.6593 -0.0280
  165MOL0     C22190   7.413   1.592   7.958 -0.9684 -1.0820 -0.8267
  165MOL0     N22191   6.636   1.992   7.871  0.2291  0.6930 -0.9302
  165MOL0     N22192   6.536   1.967   7.789 -0.3430  0.2339 -0.7063
  165MOL0     C22193   5.868   1.113   7.971 -0.2400 -0.7026 -0.0624
  165MOL0     C22194   5.848   0.970   7.991  0.9970 -0.1121  0.2264
  165MOL0     C22195   5.856   0.498   7.929  0.2935  0.1757 -0.2211
  165MOL0     C22196   5.713   0.499   7.946 -0.5747  0.3181  0.1334
  165MOL0     C22197   5.642   0.376   7.945  0.3066  0.3561  0.0332
  165MOL0     C22198   5.711   0.258   7.962  0.1061  0.1816 -0.8851
  165MOL0     O22199   5.674   0.127   7.983 -0.4043 -0.8204 -0.4335
  165MOL0     C22200   5.548   0.091   7.946  0.0188  0.6876 -0.1015
  165MOL0     C22201   5.557   0.049   7.803 -0.0339  0.1100  0.3769
  165MOL0     C22202   5.654  -0.053   7.774  0.6479  0.1664 -0.1419
  165MOL0     C22203   5.745  -0.011   7.661  0.0218 -0.0761 -0.3664
  165MOL0     C22204   5.682   0.004   7.530 -0.1426 -0.5289  0.4831
  165MOL0     C22205   5.635  -0.002   7.420  0.1380 -0.3403 -0.5824
  165MOL0     C22206   5.857   0.265   7.977 -0.2746  0.6241  0.5290
  165MOL0     C22207   5.930   0.378   7.963  0.4537 -0.4033 -0.7336
  165MOL0     H22208   6.023   0.836   7.754  0.9014  0.0766  0.3387
  165MOL0     H22209   6.057   1.088   7.692  0.2370  0.6292 -0.3442
  165MOL0     H22210   5.969   1.263   7.635 -1.1668  1.1755 -2.2749
  165MOL0     H22211   5.835   1.372   7.693 -0.5954 -1.4282 -2.9877
  165MOL0     H22212   5.979   1.546   7.750  0.3627  2.3384 -1.1470
  165MOL0     H22213   6.131   1.444   7.732 -0.9478 -0.3698  3.4816
  165MOL0     H22214   5.976   1.438   7.495 -0.6494  0.8496  1.0703
  165MOL0     H22215   5.985   1.607   7.541 -0.1415  0.2700 -4.1099
  165MOL0     H22216   6.215   1.401   7.475  0.0162 -0.5460 -1.7545
  165MOL0     H22217   6.158   1.539   7.396  0.4538 -3.4019 -1.7005
  165MOL0     H22218   6.242   1.692   7.572  0.1328  0.3725 -1.6913
  165MOL0     H22219   6.306   1.543   7.659  2.4343  0.2238 -0.6392
  165MOL0     H22220   6.448   1.505   7.473 -0.8200  0.7389 -1.2559
  165MOL0     H22221   6.401   1.653   7.391  3.3708  0.8739  0.5047
  165MOL0     H22222   6.521   1.666   7.669 -5.0500 -1.5512 -0.6696
  165MOL0     H22223   6.623   1.676   7.512  0.2147  1.1379  0.0301
  165MOL0     H22224   6.391   1.850   7.589 -0.3987 -0.6081 -0.5035
  165MOL0     H22225   6.510   1.890   7.478 -1.7037  2.2821  1.4687
  165MOL0     H22226   6.788   1.846   7.622  0.5534 -2.2414  2.1627
  165MOL0     H22227   6.958   2.004   7.806  1.0734 -0.4504  0.7854
  165MOL0     H22228   6.890   2.021   7.952 -3.1654 -1.0946  0.9130
  165MOL0     H22229   6.892   1.756   7.990  1.7859 -1.7941 -0.0999
  165MOL0     H22230   7.043   1.836   7.980  0.5276  0.7968  1.2820
  165MOL0     H22231   7.013   1.762   7.711  1.0401  0.5191  1.2457
  165MOL0     H22232   6.884   1.668   7.782 -0.3749  0.5047 -2.1374
  165MOL0     H22233   7.098   1.536   7.744  0.5537 -2.1664  0.9721
  165MOL0     H22234   7.028   1.536   7.905  3.4621 -3.2350 -1.3932
  165MOL0     H22235   7.157   1.371   7.900 -0.2882  1.4783 -1.1221
  165MOL0     H22236   7.224   1.160   8.053 -0.1572  0.3939 -0.6719
  165MOL0     H22237   7.325   1.110   7.919  3.9213  1.5517 -0.7333
  165MOL0     H22238   7.395   1.110   8.071  0.0497 -0.5371 -0.3559
  165MOL0     H22239   7.855   1.403   8.244 -1.3995  1.2173  1.9105
  165MOL0     H22240   8.054   1.267   8.297 -1.1833  3.1444  1.2997
  165MOL0     H22241   8.046   0.833   8.416 -0.3036 -0.6673 -0.7668
  165MOL0     H22242   7.988   0.825   8.251  0.3434  0.8718 -1.0418
  165MOL0     H22243   8.211   0.844   8.155 -0.5221  0.5168  0.6602
  165MOL0     H22244   8.283   0.882   8.311 -1.6989  2.7139 -0.2848
  165MOL0     H22245   8.131   0.625   8.267 -1.3620  1.7524  0.7034
  165MOL0     H22246   8.252   0.663   8.394  2.3604 -0.8260 -0.0819
  165MOL0     H22247   8.427   0.669   8.171  1.2770 -0.9422  1.3628
  165MOL0     H22248   8.373   0.524   8.262  2.3471  1.5632 -0.1524
  165MOL0     H22249   8.200   0.490   8.075  0.7659 -1.4088 -1.9062
  165MOL0     H22250   8.366   0.485   8.025  0.6902  0.2494  1.5347
  165MOL0     H22251   8.141   0.700   8.008 -2.4736 -1.9747  0.3928
  165MOL0     H22252   8.307   0.731   7.962  0.7318 -1.1034 -0.6182
  165MOL0     H22253   8.143   0.662   7.781 -0.7142 -2.5514 -0.7839
  165MOL0     H22254   8.159   0.491   7.837  0.5994 -1.5137  0.5817
  165MOL0     H22255   8.410   0.543   7.799 -0.9716 -0.5231  0.8482
  165MOL0     H22256   8.369   0.698   7.733  3.3020 -1.2267  0.2262
  165MOL0     H22257   7.801   0.912   8.331  1.4495  0.0186 -1.1103
  165MOL0     H22258   7.608   1.049   8.264 -0.6045  1.3370  1.0124
  165MOL0     H22259   7.599   1.542   8.044  1.0829 -1.9232  0.3891
  165MOL0     H22260   7.437   1.695   7.934 -1.9206 -0.2060  1.6395
  165MOL0     H22261   5.825   1.175   8.049  1.2391 -0.7427  0.8240
  165MOL0     H22262   5.770   0.946   8.062 -1.0563  2.2294 -1.0553
  165MOL0     H22263   5.646   0.584   7.938 -1.2193 -0.3379 -2.8079
  165MOL0     H22264   5.534   0.377   7.931  0.5085 -0.1388 -1.7832
  165MOL0     H22265   5.517   0.005   8.006  1.9291 -0.7002 -0.9995
  165MOL0     H22266   5.478   0.172   7.971 -1.1408 -0.8189  1.8223
  165MOL0     H22267   5.590   0.132   7.741  2.3378 -1.3527 -0.4535
  165MOL0     H22268   5.458   0.012   7.775 -0.0717 -1.4185  2.3208
  165MOL0     H22269   5.623  -0.155   7.751  1.2334  0.2188 -1.2101
  165MOL0     H22270   5.705  -0.076   7.869  0.0174 -0.6133  0.0193
  165MOL0     H22271   5.831  -0.077   7.645 -1.2768 -1.5759 -1.4077
  165MOL0     H22272   5.778   0.091   7.685  0.6993 -0.2843 -0.3778
  165MOL0     H22273   5.600  -0.007   7.318  0.2739  0.2529 -0.6622
  165MOL0     H22274   5.919   0.190   8.025  0.0957  1.5659  1.5563
  165MOL0     H22275   6.032   0.397   7.997 -0.0187 -2.3794  2.1902
  166MOL0     O22276   3.066   6.817   5.493 -0.8874 -0.8371 -0.3106
  166MOL0     C22277   2.994   6.724   5.491  0.1011  0.1461 -0.2261
  166MOL0     O22278   2.863   6.723   5.497 -0.1766 -0.1347 -0.2319
  166MOL0     C22279   2.784   6.838   5.514  0.8786  0.2351  0.3732
  166MOL0     C22280   2.792   6.879   5.647  0.4425  0.0748 -1.3949
  166MOL0     C22281   2.734   7.003   5.681  0.1277  0.2393 -1.2909
  166MOL0     C22282   2.664   7.080   5.595 -1.0318 -0.3759  1.2312
  166MOL0     O22283   2.615   7.200   5.631  0.1126 -0.0190 -0.5385
  166MOL0     C22284   2.649   7.299   5.550 -0.7987 -0.5824  0.0197
  166MOL0     C22285   2.524   7.377   5.546  0.5840  0.3566  0.5342
  166MOL0     C22286   2.479   7.416   5.686  0.8758  0.2376 -0.6226
  166MOL0     C22287   2.370   7.513   5.673  0.3801 -0.2184  0.1695
  166MOL0     C22288   2.301   7.560   5.805 -0.0955  0.5303 -0.2062
  166MOL0     C22289   2.404   7.641   5.884 -0.2338 -0.0863 -1.5384
  166MOL0     C22290   2.338   7.712   6.008 -0.1992 -0.5427 -0.9427
  166MOL0     C22291   2.212   7.792   5.969 -0.2410 -0.1364 -0.7005
  166MOL0     N22292   2.170   7.856   6.089  0.3464  0.5063  0.0983
  166MOL0     C22293   2.160   7.999   6.114 -0.7108  0.2427  1.0867
  166MOL0     C22294   2.088   8.002   6.225  0.1660 -0.8047 -0.6710
  166MOL0     C22295   2.046   8.124   6.309  0.6571 -0.2416 -0.3714
  166MOL0     C22296   2.163   8.203   6.330 -0.4657 -0.2362  0.2949
  166MOL0     C22297   2.130   8.320   6.427  0.5982  0.1722  0.3489
  166MOL0     C22298   2.233   8.424   6.443 -0.1859 -1.5023 -1.0301
  166MOL0     O22299   2.197   8.553   6.380 -0.7898  0.2609 -0.1593
  166MOL0     C22300   2.299   8.615   6.310  0.0217 -0.0637 -0.7798
  166MOL0     C22301   2.340   8.733   6.357 -0.0519  0.4951  0.2018
  166MOL0     C22302   2.448   8.801   6.309  0.0540 -0.1275 -0.5092
  166MOL0     C22303   2.469   8.939   6.352  0.1535 -0.6693  0.1800
  166MOL0     C22304   2.527   8.752   6.203  0.1589  0.4890  0.3455
  166MOL0     C22305   2.642   8.818   6.146  0.4525  1.0659  0.4157
  166MOL0     O22306   2.747   8.739   6.142  0.2212 -0.5536 -0.0876
  166MOL0     C22307   2.855   8.755   6.054 -0.8172 -0.3779 -0.0012
  166MOL0     C22308   2.962   8.653   6.061  0.5289  0.7197  0.2315
  166MOL0     C22309   3.085   8.667   5.992  0.2944 -0.2617 -1.2627
  166MOL0     C22310   3.099   8.772   5.899 -0.6441  0.0357  0.1450
  166MOL0     O22311   3.221   8.785   5.824 -0.2444 -0.0315 -0.3664
  166MOL0     C22312   3.313   8.680   5.801 -0.6681  0.3239  0.2227
  166MOL0     C22313   3.441   8.731   5.732  0.6590  0.6816 -0.6207
  166MOL0     C22314   3.403   8.780   5.598  0.1492 -1.1188 -0.7627
  166MOL0     C22315   3.350   8.669   5.505 -0.0689  0.2068  1.3363
  166MOL0     C22316   3.358   8.700   5.352 -0.4926 -0.2394 -1.2515
  166MOL0     C22317   3.397   8.578   5.263 -0.2359  0.1232  0.1566
  166MOL0     C22318   3.425   8.635   5.119  0.0862  0.8729  0.9946
  166MOL0     C22319   3.297   8.627   5.033 -0.1669 -0.9473 -0.2053
  166MOL0    Cl22320   3.232   8.459   5.007 -0.0803  0.0560 -0.0611
  166MOL0     C22321   2.999   8.871   5.896 -0.8443 -0.5084 -0.3170
  166MOL0     C22322   2.876   8.863   5.965 -0.8348 -0.2760  1.2452
  166MOL0     O22323   2.640   8.934   6.114  0.5439  0.6382 -1.0651
  166MOL0     C22324   2.482   8.628   6.147  0.3158  0.5376 -0.7348
  166MOL0     C22325   2.369   8.560   6.199 -1.1721 -0.4418  0.0923
  166MOL0     N22326   2.056   7.873   6.259  1.0481 -0.8286 -0.6757
  166MOL0     N22327   2.094   7.787   6.176  0.7180 -0.5889 -0.7841
  166MOL0     C22328   2.647   7.025   5.458  1.3688  0.3526 -0.0868
  166MOL0     C22329   2.710   6.907   5.422  0.6656  0.2911 -0.5307
  166MOL0     C22330   3.068   6.593   5.482  0.3480 -0.6343  0.2372
  166MOL0     C22331   3.006   6.481   5.524  0.7611  0.1355  0.0964
  166MOL0     C22332   3.069   6.360   5.507 -0.2363 -0.6668 -0.6709
  166MOL0     C22333   3.200   6.352   5.458 -0.7225 -0.3032  0.7908
  166MOL0     O22334   3.265   6.231   5.449  0.8720 -0.7589  0.6469
  166MOL0     C22335   3.312   6.181   5.325 -0.4802  0.7165  0.7347
  166MOL0     C22336   3.377   6.045   5.345  0.3024  0.2567 -0.2514
  166MOL0     C22337   3.443   6.027   5.490 -0.2554  0.3062  0.0193
  166MOL0     C22338   3.349   5.951   5.585 -0.1079  0.8683 -0.1247
  166MOL0     C22339   3.401   5.938   5.719 -0.0583 -1.4702 -0.0614
  166MOL0     C22340   3.433   5.903   5.835 -1.0039 -0.9539  0.0417
  166MOL0     C22341   3.267   6.466   5.422 -0.0356  0.1636  0.8303
  166MOL0     C22342   3.200   6.585   5.443  0.5571 -0.1231 -0.3268
  166MOL0     H22343   2.856   6.828   5.718 -0.5754  0.3634 -0.2484
  166MOL0     H22344   2.744   7.027   5.786  2.2015 -2.1169 -0.8229
  166MOL0     H22345   2.737   7.346   5.595  1.7476 -2.4115 -2.6572
  166MOL0     H22346   2.672   7.255   5.453 -0.5557 -1.4429  0.4578
  166MOL0     H22347   2.534   7.468   5.486  0.6784 -0.6389 -1.0177
  166MOL0     H22348   2.448   7.319   5.492  1.8228 -1.9058  1.0826
  166MOL0     H22349   2.433   7.334   5.743 -2.3332  3.6438  2.2214
  166MOL0     H22350   2.567   7.456   5.737 -0.3570  0.5238  1.4215
  166MOL0     H22351   2.401   7.604   5.621 -2.0632  0.6964  0.1836
  166MOL0     H22352   2.296   7.489   5.596 -1.7050 -0.4569  2.1325
  166MOL0     H22353   2.214   7.620   5.778  0.6356  2.9889  2.3480
  166MOL0     H22354   2.280   7.481   5.878 -1.1555  2.3788  1.6113
  166MOL0     H22355   2.489   7.578   5.911  1.4669  0.3824 -5.1857
  166MOL0     H22356   2.446   7.725   5.828 -1.5489  0.7778 -1.2694
  166MOL0     H22357   2.301   7.640   6.083 -0.9953  0.6902 -0.1136
  166MOL0     H22358   2.413   7.776   6.056 -3.0572  0.8190  2.1188
  166MOL0     H22359   2.119   7.740   5.941 -0.9852 -0.8427  2.6478
  166MOL0     H22360   2.252   7.855   5.889  0.4330 -2.5956 -2.3999
  166MOL0     H22361   2.188   8.077   6.044  0.9804 -2.1368 -1.1250
  166MOL0     H22362   1.965   8.174   6.256 -1.2314 -0.8220  1.8123
  166MOL0     H22363   2.016   8.085   6.407 -2.5307 -1.3589 -1.6757
  166MOL0     H22364   2.194   8.240   6.232  1.3150 -3.7189 -0.6489
  166MOL0     H22365   2.249   8.148   6.372  0.6613  1.2533  0.0315
  166MOL0     H22366   2.108   8.275   6.524  3.2754 -2.5406 -0.1489
  166MOL0     H22367   2.040   8.360   6.379  0.1629 -1.1892 -0.0056
  166MOL0     H22368   2.333   8.392   6.412  0.8492 -0.7098  1.2670
  166MOL0     H22369   2.238   8.448   6.550 -0.7417  1.4708 -1.6151
  166MOL0     H22370   2.286   8.770   6.444  0.1859 -2.9545  2.0137
  166MOL0     H22371   2.439   8.997   6.264 -0.9947 -1.9911 -0.3388
  166MOL0     H22372   2.405   8.964   6.437  2.0852 -1.6556  2.0207
  166MOL0     H22373   2.574   8.955   6.375 -0.7348  1.2793  3.7079
  166MOL0     H22374   2.951   8.559   6.113 -0.6400 -0.6998 -2.3966
  166MOL0     H22375   3.159   8.594   6.022  0.1545  0.2013  0.3085
  166MOL0     H22376   3.336   8.647   5.902  0.0204 -0.0994 -0.0637
  166MOL0     H22377   3.281   8.600   5.734  2.8073  0.0098 -1.3049
  166MOL0     H22378   3.478   8.809   5.800  3.1388 -2.8187  2.4781
  166MOL0     H22379   3.515   8.650   5.725  0.0902 -0.0771  1.4353
  166MOL0     H22380   3.490   8.831   5.554 -0.4751  1.1613  0.4634
  166MOL0     H22381   3.327   8.859   5.606 -0.0012 -1.4526  2.5375
  166MOL0     H22382   3.407   8.577   5.519 -0.7589 -0.8996 -2.1213
  166MOL0     H22383   3.242   8.661   5.518 -0.0129  0.5109  2.0426
  166MOL0     H22384   3.433   8.778   5.339 -1.6443  1.3170  0.8828
  166MOL0     H22385   3.264   8.737   5.309 -0.3304  0.6471 -0.8519
  166MOL0     H22386   3.487   8.534   5.305 -0.2224 -2.6600 -2.4833
  166MOL0     H22387   3.327   8.494   5.265  0.1704 -0.2319  2.7459
  166MOL0     H22388   3.500   8.568   5.077  0.4956  1.3980  0.8825
  166MOL0     H22389   3.467   8.736   5.128 -0.5654  1.1154  1.4582
  166MOL0     H22390   3.300   8.688   4.942  0.5578 -0.2358  0.2871
  166MOL0     H22391   3.219   8.671   5.096 -0.4673 -1.0453 -0.5016
  166MOL0     H22392   3.016   8.957   5.832  2.1888  0.4561  1.5948
  166MOL0     H22393   2.801   8.940   5.958  0.9773  1.4966  0.0806
  166MOL0     H22394   2.542   8.574   6.074  2.3757 -1.4394  2.1945
  166MOL0     H22395   2.348   8.470   6.144  1.4359 -1.5331  0.7110
  166MOL0     H22396   2.582   7.072   5.385 -0.8583 -1.5849  0.5353
  166MOL0     H22397   2.695   6.861   5.325 -2.6847  1.1229 -0.5265
  166MOL0     H22398   2.905   6.471   5.564 -0.5600 -2.9443 -3.3681
  166MOL0     H22399   3.018   6.275   5.549  1.2916  0.3882  3.8305
  166MOL0     H22400   3.230   6.165   5.254 -0.4136 -0.9164  0.9716
  166MOL0     H22401   3.392   6.242   5.284  1.2917 -1.1242  1.2846
  166MOL0     H22402   3.459   6.048   5.273 -0.1342  2.9987 -0.7556
  166MOL0     H22403   3.318   5.955   5.323  3.4195 -1.4712 -2.3755
  166MOL0     H22404   3.474   6.122   5.535  1.9921 -0.9480  1.3214
  166MOL0     H22405   3.540   5.978   5.478  0.4917  2.2886 -2.9014
  166MOL0     H22406   3.333   5.848   5.553  0.6501 -0.1595  2.5490
  166MOL0     H22407   3.257   6.010   5.589  1.2071  3.5098 -3.5447
  166MOL0     H22408   3.458   5.869   5.934 -0.2551  0.2412  0.2715
  166MOL0     H22409   3.368   6.472   5.382 -0.4688  3.6883 -0.0837
  166MOL0     H22410   3.252   6.679   5.425 -0.1049  1.2841  3.8454
  167MOL0     O22411   2.247   3.754   9.930 -0.6314 -0.4952  0.4732
  167MOL0     C22412   2.174   3.739  10.027 -0.3541 -0.3456 -0.3571
  167MOL0     O22413   2.028   3.720  10.032 -0.4561 -0.9870  0.5638
  167MOL0     C22414   1.952   3.745   9.926  0.4676  0.0165 -0.3628
  167MOL0     C22415   1.814   3.720   9.955 -0.2620 -0.0395 -0.0874
  167MOL0     C22416   1.714   3.760   9.867  0.9005 -0.4914 -0.0027
  167MOL0     C22417   1.738   3.839   9.754 -0.1428  0.2962 -0.3493
  167MOL0     O22418   1.633   3.874   9.664  0.3493 -0.3873  0.2193
  167MOL0     C22419   1.530   3.942   9.716  1.0084 -0.2530  0.5352
  167MOL0     C22420   1.436   4.020   9.618  0.2079 -0.0154 -0.9924
  167MOL0     C22421   1.305   4.070   9.690 -0.5011  1.2634 -0.6071
  167MOL0     C22422   1.210   4.132   9.593 -0.3687  0.3189  0.4851
  167MOL0     C22423   1.095   4.195   9.667  0.8512  0.5492 -0.4540
  167MOL0     C22424   1.106   4.340   9.692  0.6446 -0.0024  0.5483
  167MOL0     C22425   0.984   4.405   9.766  0.8162  0.9525 -0.7315
  167MOL0     C22426   1.029   4.554   9.789 -0.5508  0.9192  0.4188
  167MOL0     N22427   1.061   4.631   9.668  0.4561  0.1755 -0.0125
  167MOL0     C22428   0.971   4.693   9.579 -0.1680  0.0118 -0.4850
  167MOL0     C22429   1.049   4.771   9.491 -0.6945 -0.4140  0.7495
  167MOL0     C22430   0.993   4.819   9.364  0.3568  0.5750  0.0397
  167MOL0     C22431   0.892   4.932   9.371  1.0312  1.3577  0.0770
  167MOL0     C22432   0.763   4.913   9.281  0.7930  0.6630  0.0700
  167MOL0     C22433   0.804   4.857   9.148 -0.5698  0.0952  0.1021
  167MOL0     O22434   0.715   4.907   9.043 -0.3630 -0.3128  0.0453
  167MOL0     C22435   0.584   4.867   9.038 -0.3553  0.0402 -0.2050
  167MOL0     C22436   0.494   4.942   8.963 -0.8048  0.2418  0.3144
  167MOL0     C22437   0.367   4.905   8.935 -0.1590  0.0705 -0.1231
  167MOL0     C22438   0.290   5.005   8.854  0.0328  0.3129  0.0685
  167MOL0     C22439   0.317   4.780   8.984 -0.3480 -0.7227 -0.6312
  167MOL0     C22440   0.164   4.744   8.988  0.5000 -0.5932  0.2127
  167MOL0     O22441   0.138   4.625   9.035 -0.3359  0.1469 -0.3133
  167MOL0     C22442   0.010   4.584   9.044 -0.4233  0.8706  0.4085
  167MOL0     C22443  -0.025   4.555   9.176  0.1879 -0.6475 -1.2534
  167MOL0     C22444  -0.156   4.505   9.212 -0.0081 -0.0233  0.5180
  167MOL0     C22445  -0.254   4.475   9.118  0.3805  0.2203  0.0361
  167MOL0     O22446  -0.375   4.410   9.158  0.3104 -0.0854  0.5329
  167MOL0     C22447  -0.494   4.492   9.177  0.3403 -0.5706 -0.1486
  167MOL0     C22448  -0.640   4.441   9.161  0.2722  0.6072  0.8466
  167MOL0     C22449  -0.672   4.338   9.272 -0.0119 -0.9075 -0.4143
  167MOL0     C22450  -0.668   4.384   9.423 -0.3676  0.3057  0.3973
  167MOL0     C22451  -0.761   4.298   9.504  0.7581  0.2265  0.9415
  167MOL0     C22452  -0.696   4.156   9.521  0.0724  0.1531 -1.0339
  167MOL0     C22453  -0.783   4.097   9.641 -0.0569  0.1336  0.0165
  167MOL0     C22454  -0.707   3.972   9.682  0.1859 -0.7867  0.5789
  167MOL0    Cl22455  -0.724   3.828   9.576  0.0263 -0.4803  0.0478
  167MOL0     C22456  -0.222   4.504   8.986  0.2169 -0.3696 -0.3235
  167MOL0     C22457  -0.091   4.558   8.949 -0.1531  0.5117  1.0995
  167MOL0     O22458   0.085   4.828   8.944  1.2647 -0.5862  0.0087
  167MOL0     C22459   0.413   4.702   9.047 -0.2945 -0.0646 -0.1207
  167MOL0     C22460   0.543   4.744   9.078  0.5293  1.0061  0.4175
  167MOL0     N22461   1.176   4.757   9.530 -1.2129  0.4296 -0.0652
  167MOL0     N22462   1.181   4.674   9.635  0.0028 -0.8062 -0.6955
  167MOL0     C22463   1.870   3.856   9.718  0.8008 -1.0287 -0.0601
  167MOL0     C22464   1.977   3.811   9.806 -0.4015 -0.0736  0.3003
  167MOL0     C22465   2.231   3.761  10.161  0.0490  0.2662  0.4797
  167MOL0     C22466   2.153   3.774  10.280  0.2796 -0.2654  0.7045
  167MOL0     C22467   2.213   3.784  10.408 -0.3801 -0.3139  0.5239
  167MOL0     C22468   2.347   3.807  10.422 -0.0844 -0.1990  1.0199
  167MOL0     O22469   2.416   3.814  10.540  0.0766 -0.6294  0.4357
  167MOL0     C22470   2.361   3.897  10.654  0.2627  0.2756  0.4608
  167MOL0     C22471   2.470   3.973  10.743 -0.0079  0.1929  0.4427
  167MOL0     C22472   2.552   3.871  10.818 -0.3215  0.7407 -0.2427
  167MOL0     C22473   2.686   3.919  10.867  0.9519 -0.3888 -1.0997
  167MOL0     C22474   2.655   4.007  10.986  0.1358  0.3024 -0.3622
  167MOL0     C22475   2.627   4.064  11.088 -0.1329  0.7510 -0.1976
  167MOL0     C22476   2.432   3.786  10.307 -0.1329 -1.0406 -0.5122
  167MOL0     C22477   2.370   3.762  10.180 -0.2392 -0.3360  0.4205
  167MOL0     H22478   1.791   3.667  10.047 -1.6399  3.8363  2.0000
  167MOL0     H22479   1.610   3.744   9.897 -0.4589  3.0244 -2.1866
  167MOL0     H22480   1.464   3.874   9.771 -0.8898  0.7026 -0.4771
  167MOL0     H22481   1.564   4.013   9.793 -0.5642 -0.3584  1.3628
  167MOL0     H22482   1.479   4.105   9.564 -1.2870  0.1347 -2.0047
  167MOL0     H22483   1.412   3.942   9.545 -1.6413  0.2846 -0.7300
  167MOL0     H22484   1.258   3.981   9.733 -1.2041  1.4543 -0.9756
  167MOL0     H22485   1.349   4.135   9.766 -0.6552  1.7341 -0.9190
  167MOL0     H22486   1.266   4.208   9.537 -1.5781  1.1001  0.2909
  167MOL0     H22487   1.162   4.058   9.529  1.9110 -0.8326  0.0061
  167MOL0     H22488   1.008   4.185   9.603  0.6003  0.7994 -0.1565
  167MOL0     H22489   1.080   4.142   9.762  3.5194 -0.0449 -0.2794
  167MOL0     H22490   1.204   4.337   9.743  1.7993 -2.8490 -1.5845
  167MOL0     H22491   1.123   4.403   9.605 -0.1393 -0.5289  0.0120
  167MOL0     H22492   0.896   4.385   9.705  0.6526  1.7358 -0.7715
  167MOL0     H22493   0.964   4.355   9.861 -0.5032  0.8934 -1.0256
  167MOL0     H22494   1.125   4.543   9.839 -0.8400  1.5460  1.1304
  167MOL0     H22495   0.956   4.601   9.856  1.3705  0.4499  2.9877
  167MOL0     H22496   0.866   4.668   9.588  0.4544 -2.2236  1.6549
  167MOL0     H22497   1.084   4.850   9.312 -0.4324  3.8591  0.4360
  167MOL0     H22498   0.952   4.733   9.311 -0.2355  0.5916  0.4661
  167MOL0     H22499   0.936   5.011   9.310 -0.2185  0.8711 -1.5202
  167MOL0     H22500   0.863   4.958   9.474 -1.3731 -1.6347  0.3057
  167MOL0     H22501   0.717   5.012   9.276 -0.4642  0.1941  1.3819
  167MOL0     H22502   0.693   4.840   9.324  1.4684 -0.4607 -0.6942
  167MOL0     H22503   0.788   4.750   9.160  0.0449 -0.2717 -2.0201
  167MOL0     H22504   0.912   4.864   9.131 -0.6400 -0.1447 -0.4373
  167MOL0     H22505   0.533   5.041   8.939  0.7728 -0.1022  1.3030
  167MOL0     H22506   0.230   4.945   8.785 -1.2186  2.4799 -0.8199
  167MOL0     H22507   0.229   5.078   8.908  0.9588  1.0889  0.0878
  167MOL0     H22508   0.356   5.059   8.786 -4.7168  1.7282 -3.9528
  167MOL0     H22509   0.045   4.561   9.259 -0.7446  0.7346 -0.5403
  167MOL0     H22510  -0.174   4.481   9.316 -0.4147  0.0741  0.4683
  167MOL0     H22511  -0.506   4.550   9.269 -1.0036  4.4096 -3.1001
  167MOL0     H22512  -0.485   4.569   9.100  4.0426  2.9824  3.3754
  167MOL0     H22513  -0.717   4.518   9.162 -1.3763 -0.9819  2.2868
  167MOL0     H22514  -0.653   4.392   9.064 -0.5649 -0.2981  1.4018
  167MOL0     H22515  -0.609   4.250   9.256  0.1496 -1.7514  3.7872
  167MOL0     H22516  -0.773   4.303   9.249 -0.8353  1.0010  0.0991
  167MOL0     H22517  -0.563   4.368   9.449  0.2516  1.8814 -0.9451
  167MOL0     H22518  -0.680   4.493   9.425  1.8147  0.8092 -3.3755
  167MOL0     H22519  -0.859   4.299   9.456  1.8618  1.6563 -1.4993
  167MOL0     H22520  -0.776   4.351   9.599 -0.7023  0.8799  0.3741
  167MOL0     H22521  -0.715   4.086   9.438 -0.0986 -1.7312  0.5182
  167MOL0     H22522  -0.592   4.158   9.553  0.3233 -2.0700 -1.5599
  167MOL0     H22523  -0.886   4.085   9.607  0.0758 -3.3151  0.4965
  167MOL0     H22524  -0.782   4.166   9.727  2.0646  1.2448 -0.8085
  167MOL0     H22525  -0.733   3.951   9.786 -2.8942 -1.2485 -0.1752
  167MOL0     H22526  -0.600   3.995   9.683  0.3258 -0.0890 -4.4726
  167MOL0     H22527  -0.289   4.476   8.905  2.7248 -1.2758 -2.2407
  167MOL0     H22528  -0.069   4.564   8.843  0.0009 -2.3524  0.9061
  167MOL0     H22529   0.384   4.605   9.085 -3.0976  0.7735  0.1591
  167MOL0     H22530   0.613   4.675   9.125 -0.1216  0.9466  1.3318
  167MOL0     H22531   1.893   3.908   9.626  3.2662 -0.0596  1.0312
  167MOL0     H22532   2.081   3.833   9.784 -0.8976  2.6216  0.3541
  167MOL0     H22533   2.044   3.770  10.277  0.3359 -2.9825 -1.0562
  167MOL0     H22534   2.154   3.789  10.499 -1.5359 -3.1097  0.0323
  167MOL0     H22535   2.301   3.980  10.616  3.4581  0.7493 -4.5321
  167MOL0     H22536   2.307   3.830  10.722  1.5690  4.1186  5.9775
  167MOL0     H22537   2.426   4.025  10.828  0.2759  1.3208 -0.0855
  167MOL0     H22538   2.532   4.039  10.681 -2.5092  2.3332  0.0901
  167MOL0     H22539   2.585   3.791  10.751  0.6103  0.3797  0.6194
  167MOL0     H22540   2.497   3.822  10.899  2.8065 -0.9817  1.0299
  167MOL0     H22541   2.735   3.979  10.790  0.5700  0.6383 -0.5685
  167MOL0     H22542   2.753   3.835  10.886  0.7954 -0.2251  0.2944
  167MOL0     H22543   2.613   4.102  11.187  1.2440 -0.9253  0.6875
  167MOL0     H22544   2.538   3.781  10.329 -0.6610  1.2450  3.5156
  167MOL0     H22545   2.438   3.737  10.099  1.5425  1.6928  1.1896
  168MOL0     O22546   5.775   2.212   2.154  0.0142  0.3162 -0.7798
  168MOL0     C22547   5.679   2.135   2.189 -0.3425 -0.5580  0.3159
  168MOL0     O22548   5.559   2.126   2.124  0.1896  0.1653 -0.9592
  168MOL0     C22549   5.528   2.189   2.009  0.8357 -0.1102  0.3660
  168MOL0     C22550   5.617   2.182   1.895  0.4494  0.1737 -0.3910
  168MOL0     C22551   5.579   2.252   1.784  0.3506  0.1051  0.7636
  168MOL0     C22552   5.454   2.312   1.754 -0.1602  0.9410 -0.8810
  168MOL0     O22553   5.427   2.347   1.627  1.2820 -0.6519  0.5088
  168MOL0     C22554   5.319   2.438   1.612  0.0230  0.1279 -0.2583
  168MOL0     C22555   5.316   2.499   1.469 -0.1340 -1.0778 -0.4210
  168MOL0     C22556   5.207   2.613   1.448  0.2962 -0.3044 -0.1969
  168MOL0     C22557   5.062   2.560   1.453 -0.3453  0.6633  0.6981
  168MOL0     C22558   4.957   2.666   1.409  0.1545 -1.0666 -0.0527
  168MOL0     C22559   4.834   2.597   1.345  0.6081 -0.2258  0.2313
  168MOL0     C22560   4.757   2.685   1.247  0.2896 -0.3166  0.4950
  168MOL0     C22561   4.792   2.671   1.101 -0.4441  0.1424  0.1758
  168MOL0     N22562   4.716   2.751   1.012  0.6115 -0.0193  0.1550
  168MOL0     C22563   4.576   2.737   0.997  0.0999 -0.8349 -0.2356
  168MOL0     C22564   4.534   2.858   0.944  0.2790  0.0251  1.3662
  168MOL0     C22565   4.388   2.896   0.930  0.5019 -0.4033 -0.7498
  168MOL0     C22566   4.359   3.052   0.907  0.4823 -0.5236  0.2267
  168MOL0     C22567   4.323   3.084   0.755 -0.2297 -0.1345 -0.4522
  168MOL0     C22568   4.190   3.018   0.706  0.2117 -0.8004 -0.6814
  168MOL0     O22569   4.103   2.993   0.813 -0.4358  0.0493  0.0170
  168MOL0     C22570   3.971   3.026   0.791  1.0411 -0.2067 -0.1440
  168MOL0     C22571   3.887   2.990   0.898 -0.2322 -0.0630  0.1442
  168MOL0     C22572   3.749   3.012   0.901 -0.5099 -0.3765  0.9471
  168MOL0     C22573   3.663   2.960   1.014 -0.2729  0.9713 -1.0572
  168MOL0     C22574   3.686   3.073   0.788 -0.5918  1.6505 -0.3650
  168MOL0     C22575   3.542   3.124   0.794  0.8201  0.1991  0.7882
  168MOL0     O22576   3.495   3.158   0.912  0.1814 -0.0646  0.1212
  168MOL0     C22577   3.383   3.232   0.926  0.7974 -0.0469  1.5737
  168MOL0     C22578   3.304   3.209   1.046 -0.5760  0.7775  0.4631
  168MOL0     C22579   3.189   3.281   1.067  0.5649 -0.2095 -0.3075
  168MOL0     C22580   3.142   3.371   0.973  0.7919 -0.1077 -0.0579
  168MOL0     O22581   3.030   3.457   0.981 -0.4149  1.1947 -0.2012
  168MOL0     C22582   2.928   3.405   1.073  0.1339 -0.5442 -0.0394
  168MOL0     C22583   2.804   3.499   1.061 -1.1367 -0.3658  0.2346
  168MOL0     C22584   2.827   3.642   1.123 -1.1347  0.0793 -0.4353
  168MOL0     C22585   2.854   3.640   1.274  0.4449  0.6593 -0.4741
  168MOL0     C22586   2.731   3.646   1.362  0.2719  0.7336 -0.6762
  168MOL0     C22587   2.666   3.509   1.386  0.6490 -0.5284 -0.2911
  168MOL0     C22588   2.529   3.542   1.455  0.1433  0.1064 -0.4906
  168MOL0     C22589   2.430   3.581   1.342 -0.7353 -0.2035  0.9105
  168MOL0    Cl22590   2.283   3.598   1.425  0.0313  0.2490  0.1115
  168MOL0     C22591   3.215   3.398   0.857  0.4190  1.0180  0.1445
  168MOL0     C22592   3.334   3.328   0.837  0.5750  0.6840 -0.0166
  168MOL0     O22593   3.489   3.141   0.688 -0.1158  0.1837  0.1912
  168MOL0     C22594   3.761   3.101   0.673  0.4413 -0.0222  0.8594
  168MOL0     C22595   3.905   3.077   0.679  0.2585 -0.1450  0.3293
  168MOL0     N22596   4.651   2.920   0.909  0.4520  1.1716 -0.1774
  168MOL0     N22597   4.755   2.854   0.941 -0.3363 -0.8128 -0.3086
  168MOL0     C22598   5.365   2.304   1.864 -0.9413  0.4428  0.8620
  168MOL0     C22599   5.400   2.246   1.990  0.0690 -0.2797  0.4126
  168MOL0     C22600   5.703   2.049   2.303 -0.3614  0.2859  0.1879
  168MOL0     C22601   5.809   2.079   2.390 -0.1619  0.0952  0.1853
  168MOL0     C22602   5.837   2.005   2.506 -0.4607  0.0074  0.0829
  168MOL0     C22603   5.744   1.900   2.536 -0.0378  0.9714 -0.1493
  168MOL0     O22604   5.751   1.846   2.664  0.4629 -1.2824  0.4619
  168MOL0     C22605   5.816   1.724   2.671 -0.1435  0.5336  0.1409
  168MOL0     C22606   5.960   1.717   2.732  1.0855  0.8075 -0.9255
  168MOL0     C22607   6.058   1.741   2.623 -0.0290  0.2540 -0.0212
  168MOL0     C22608   6.197   1.712   2.680  0.3418  0.5110 -1.8951
  168MOL0     C22609   6.297   1.801   2.639  0.0322 -0.7599 -0.2165
  168MOL0     C22610   6.390   1.874   2.608  0.3486  0.5227  0.4884
  168MOL0     C22611   5.642   1.864   2.446 -0.1643  0.6838  0.3719
  168MOL0     C22612   5.627   1.937   2.329 -0.1686  0.1766 -0.2960
  168MOL0     H22613   5.709   2.130   1.920 -0.0363  0.3030  1.7953
  168MOL0     H22614   5.649   2.260   1.701 -0.7427  2.3557 -0.0187
  168MOL0     H22615   5.224   2.389   1.636 -0.1550  1.2983  1.5574
  168MOL0     H22616   5.337   2.517   1.685  3.1580 -0.7993  0.0979
  168MOL0     H22617   5.413   2.546   1.452 -0.5720 -0.1078 -0.3583
  168MOL0     H22618   5.312   2.431   1.383  3.3804  1.0715 -2.5388
  168MOL0     H22619   5.206   2.690   1.526 -2.8672 -0.4129 -0.0094
  168MOL0     H22620   5.236   2.657   1.352 -3.3585  2.7134 -0.1343
  168MOL0     H22621   5.056   2.472   1.390  1.2620 -0.0259  1.4654
  168MOL0     H22622   5.046   2.527   1.556  2.8497  0.7295  1.2892
  168MOL0     H22623   4.928   2.720   1.499 -2.6600 -2.8776  0.2592
  168MOL0     H22624   5.015   2.726   1.338  0.4502  0.7148  1.6123
  168MOL0     H22625   4.868   2.508   1.292  1.0766  0.9881 -1.6129
  168MOL0     H22626   4.760   2.565   1.418  1.7632  0.5795  1.8033
  168MOL0     H22627   4.650   2.665   1.257 -0.1973  2.3352  1.2360
  168MOL0     H22628   4.763   2.790   1.274 -4.4641  0.6172 -1.0727
  168MOL0     H22629   4.786   2.563   1.082 -0.1057  0.1552 -0.0073
  168MOL0     H22630   4.898   2.699   1.093 -0.5095  0.3024 -0.1199
  168MOL0     H22631   4.519   2.652   1.035 -0.3438 -0.9728 -1.1820
  168MOL0     H22632   4.341   2.853   0.840 -2.4713  0.1856  0.3848
  168MOL0     H22633   4.341   2.864   1.024  0.3905 -0.2910 -0.7677
  168MOL0     H22634   4.441   3.111   0.950  0.4537 -2.0096  2.4589
  168MOL0     H22635   4.267   3.073   0.961 -1.1823  2.9204 -3.4600
  168MOL0     H22636   4.401   3.045   0.689  0.4259 -2.2239  1.4474
  168MOL0     H22637   4.312   3.191   0.732 -1.0323 -0.3406 -1.0739
  168MOL0     H22638   4.222   2.921   0.666 -0.1468 -1.3945  0.4169
  168MOL0     H22639   4.153   3.071   0.618 -0.9188 -3.7053 -2.0830
  168MOL0     H22640   3.922   2.941   0.989 -1.7546 -2.3237 -0.3856
  168MOL0     H22641   3.720   2.878   1.060 -1.8427  0.7767  0.6411
  168MOL0     H22642   3.654   3.028   1.099  3.9459 -0.9758  1.2583
  168MOL0     H22643   3.569   2.911   0.988 -0.7323  0.7912  0.7633
  168MOL0     H22644   3.343   3.135   1.116 -0.3245 -0.0354 -0.5103
  168MOL0     H22645   3.153   3.270   1.169  1.4618  1.9075  0.2950
  168MOL0     H22646   2.892   3.305   1.048 -0.1134 -0.5870  0.4762
  168MOL0     H22647   2.975   3.392   1.171  2.4627 -1.7126 -1.2335
  168MOL0     H22648   2.776   3.519   0.957 -2.6054  2.0555  1.0137
  168MOL0     H22649   2.716   3.451   1.104 -0.9494  0.2925  1.3819
  168MOL0     H22650   2.755   3.723   1.111  2.9880  3.7763 -3.5911
  168MOL0     H22651   2.912   3.690   1.074  2.7634 -2.8112  2.7797
  168MOL0     H22652   2.920   3.558   1.301  1.1750  1.0867 -0.9282
  168MOL0     H22653   2.901   3.737   1.290  0.2933  0.7553 -0.5998
  168MOL0     H22654   2.661   3.715   1.313 -0.1858  0.2433 -0.7249
  168MOL0     H22655   2.755   3.693   1.458 -0.0629 -0.0779 -0.1874
  168MOL0     H22656   2.660   3.461   1.288 -0.4713 -0.1509 -0.4192
  168MOL0     H22657   2.743   3.447   1.434  0.5456 -0.4435 -0.0143
  168MOL0     H22658   2.541   3.628   1.522  0.7929 -0.1765 -0.2320
  168MOL0     H22659   2.483   3.452   1.497  2.2207 -0.6206  0.3817
  168MOL0     H22660   2.395   3.499   1.279 -2.0278  0.4882  0.6782
  168MOL0     H22661   2.451   3.673   1.286  0.4848  0.1433  1.8912
  168MOL0     H22662   3.176   3.483   0.801  2.2503  2.2320  0.6021
  168MOL0     H22663   3.383   3.353   0.743 -1.2765 -0.5649 -1.3789
  168MOL0     H22664   3.720   3.145   0.583 -1.1304  2.1086  2.5129
  168MOL0     H22665   3.954   3.115   0.590 -1.8495  2.0665 -0.0044
  168MOL0     H22666   5.266   2.350   1.865 -0.1043  2.3114  0.9463
  168MOL0     H22667   5.327   2.272   2.066  0.7981  0.2072  0.9572
  168MOL0     H22668   5.868   2.168   2.375  0.6889  0.1497  3.3109
  168MOL0     H22669   5.908   2.022   2.586  0.8116 -2.0840 -0.5525
  168MOL0     H22670   5.749   1.677   2.744  1.6942  1.4601  2.5641
  168MOL0     H22671   5.813   1.679   2.571 -3.4839  0.4229  0.1751
  168MOL0     H22672   5.961   1.625   2.791  0.8217  1.4938  0.1992
  168MOL0     H22673   5.968   1.794   2.810 -1.6713  2.1074 -1.7864
  168MOL0     H22674   6.042   1.841   2.582 -0.5578 -2.0903 -6.8918
  168MOL0     H22675   6.036   1.676   2.538  0.7909  0.3051 -0.2786
  168MOL0     H22676   6.226   1.607   2.673 -2.9131 -1.1423  3.3305
  168MOL0     H22677   6.199   1.724   2.789  2.7133 -1.3093 -1.6653
  168MOL0     H22678   6.477   1.926   2.574  0.4578 -1.1566 -1.9726
  168MOL0     H22679   5.587   1.777   2.479 -1.4616  0.8840 -1.1704
  168MOL0     H22680   5.549   1.914   2.258  0.5864  0.6313 -1.2992
  169MOL0     O22681   7.316   5.367   2.208 -0.8563  0.0242 -0.5886
  169MOL0     C22682   7.320   5.417   2.323 -0.2367 -0.5750 -0.0221
  169MOL0     O22683   7.366   5.367   2.431  0.0439 -0.5301 -0.4941
  169MOL0     C22684   7.463   5.270   2.426  0.3042 -0.2833 -0.0226
  169MOL0     C22685   7.558   5.240   2.325 -0.6973  0.1694  0.0667
  169MOL0     C22686   7.657   5.152   2.362  1.2653 -0.2140 -0.3128
  169MOL0     C22687   7.651   5.060   2.472  0.5203  0.3464  0.8258
  169MOL0     O22688   7.732   4.954   2.497  0.0178 -0.9039  0.6455
  169MOL0     C22689   7.801   4.897   2.382  0.3412  0.2077  0.2705
  169MOL0     C22690   7.882   4.768   2.427  0.7944  0.6850  0.6652
  169MOL0     C22691   7.980   4.813   2.540  0.9465  0.3462  0.0658
  169MOL0     C22692   8.077   4.701   2.583  0.0682  0.3087 -0.2967
  169MOL0     C22693   8.195   4.701   2.486 -0.8991  0.5105 -0.5989
  169MOL0     C22694   8.309   4.600   2.528  0.5941 -0.9227  0.3947
  169MOL0     C22695   8.426   4.622   2.430 -0.5114  0.2380  0.0055
  169MOL0     C22696   8.509   4.759   2.459  0.2962 -0.7415  0.7718
  169MOL0     N22697   8.570   4.750   2.595 -0.2608 -0.8532 -0.1108
  169MOL0     C22698   8.499   4.805   2.698 -0.8500  0.2553 -1.1885
  169MOL0     C22699   8.590   4.806   2.797 -0.6116 -0.4312  0.2941
  169MOL0     C22700   8.577   4.837   2.941 -0.3806 -0.7981  0.2684
  169MOL0     C22701   8.456   4.764   3.002 -0.7754  0.3212  0.1724
  169MOL0     C22702   8.471   4.762   3.157  0.1467  0.3933 -0.3539
  169MOL0     C22703   8.391   4.872   3.235 -0.2810  0.0279 -0.9611
  169MOL0     O22704   8.248   4.881   3.209 -0.2272  0.2991 -0.7284
  169MOL0     C22705   8.155   4.792   3.260  0.5135 -0.1032  0.6876
  169MOL0     C22706   8.181   4.669   3.326 -0.2809  0.4346 -0.1071
  169MOL0     C22707   8.084   4.587   3.373  0.6609  0.7536 -0.6620
  169MOL0     C22708   8.124   4.453   3.438 -0.0380 -0.4631  0.2832
  169MOL0     C22709   7.946   4.619   3.359 -0.0467 -0.3744 -0.4878
  169MOL0     C22710   7.818   4.548   3.406  0.9234  0.4994  0.1460
  169MOL0     O22711   7.705   4.630   3.421 -0.0131 -0.6280 -0.2198
  169MOL0     C22712   7.576   4.581   3.388 -0.1731 -1.3524 -0.7079
  169MOL0     C22713   7.538   4.456   3.323 -0.5503 -0.9089 -0.6959
  169MOL0     C22714   7.403   4.433   3.281 -0.2579 -0.7944  0.3798
  169MOL0     C22715   7.306   4.524   3.304 -0.2983 -0.6764 -0.1693
  169MOL0     O22716   7.173   4.483   3.295  1.1153 -0.7929  0.0861
  169MOL0     C22717   7.061   4.574   3.280  0.4847  0.2318  0.7920
  169MOL0     C22718   6.967   4.505   3.177 -0.7905 -0.2941 -0.7717
  169MOL0     C22719   6.870   4.606   3.118  0.4935  0.1955  0.7691
  169MOL0     C22720   6.763   4.544   3.038  1.1282  0.2664  1.2619
  169MOL0     C22721   6.624   4.597   3.086 -0.4027  0.2813  0.2406
  169MOL0     C22722   6.606   4.735   3.037 -0.9279 -0.5015 -0.2151
  169MOL0     C22723   6.472   4.799   3.060 -1.0240 -0.2106 -0.7531
  169MOL0     C22724   6.359   4.740   2.974 -0.2960  0.2274 -0.5679
  169MOL0    Cl22725   6.212   4.755   3.059 -0.0299 -0.3055 -0.1228
  169MOL0     C22726   7.344   4.650   3.369 -0.4827 -0.6114  0.1592
  169MOL0     C22727   7.481   4.683   3.406 -0.4251  0.9649 -0.1358
  169MOL0     O22728   7.826   4.432   3.454 -0.0850 -0.7342  0.2748
  169MOL0     C22729   7.922   4.744   3.291  0.1854  0.2028  0.1210
  169MOL0     C22730   8.022   4.822   3.233  0.1846  0.3955  0.4918
  169MOL0     N22731   8.716   4.757   2.744  0.8634  0.2534  0.1369
  169MOL0     N22732   8.703   4.734   2.618  0.2734  0.8914 -0.6502
  169MOL0     C22733   7.564   5.097   2.578  0.5706  0.4537  1.0065
  169MOL0     C22734   7.475   5.200   2.550  0.0885 -0.1658 -0.0996
  169MOL0     C22735   7.239   5.541   2.342  0.8343 -0.5771 -0.0612
  169MOL0     C22736   7.199   5.581   2.468 -0.3247 -0.0546  0.5303
  169MOL0     C22737   7.115   5.687   2.476  0.4097 -0.1210 -0.0321
  169MOL0     C22738   7.065   5.745   2.362  0.7898  0.3193 -0.2388
  169MOL0     O22739   6.963   5.830   2.385 -0.0327 -0.0445  0.6814
  169MOL0     C22740   6.903   5.913   2.286  0.1740  0.7927 -0.4439
  169MOL0     C22741   6.838   6.027   2.370 -0.4782 -0.6175 -0.0651
  169MOL0     C22742   6.699   5.989   2.420  0.9246  1.2465  0.1696
  169MOL0     C22743   6.670   5.995   2.569  0.9892 -0.8494  0.2795
  169MOL0     C22744   6.752   5.915   2.645  0.5944 -0.4598 -0.1682
  169MOL0     C22745   6.830   5.845   2.713  0.2090 -0.0944  0.8030
  169MOL0     C22746   7.113   5.722   2.237 -0.3892 -0.3337 -0.5523
  169MOL0     C22747   7.198   5.612   2.226 -1.0478  0.3136  0.4365
  169MOL0     H22748   7.563   5.295   2.232 -2.2475 -0.6668 -0.5459
  169MOL0     H22749   7.728   5.139   2.281  1.2369  1.3567 -0.6249
  169MOL0     H22750   7.724   4.861   2.313 -1.4608  3.4377  0.3843
  169MOL0     H22751   7.859   4.968   2.322  0.6497 -2.4169 -2.8415
  169MOL0     H22752   7.816   4.694   2.474 -0.1376 -0.5072 -2.3110
  169MOL0     H22753   7.937   4.714   2.349  0.6150 -2.7785  2.7262
  169MOL0     H22754   8.044   4.887   2.491 -1.2282  0.9116 -2.1005
  169MOL0     H22755   7.932   4.853   2.629 -2.1881 -1.5259 -0.6018
  169MOL0     H22756   8.103   4.715   2.688 -3.4996  3.9218  0.3691
  169MOL0     H22757   8.021   4.607   2.580  0.8025 -0.1641  0.4369
  169MOL0     H22758   8.154   4.673   2.388  2.0392 -1.8127 -1.2909
  169MOL0     H22759   8.244   4.799   2.480  1.3523 -0.4532  0.9926
  169MOL0     H22760   8.342   4.609   2.633 -0.1045 -1.9562  0.7144
  169MOL0     H22761   8.268   4.500   2.512 -0.7779 -0.4437  0.8183
  169MOL0     H22762   8.499   4.541   2.431 -0.3010  0.3691 -1.8156
  169MOL0     H22763   8.378   4.626   2.332 -0.4706 -0.7741 -0.0646
  169MOL0     H22764   8.445   4.848   2.462  2.3258  1.0240 -2.0941
  169MOL0     H22765   8.584   4.773   2.381 -1.4942 -1.6105 -1.2159
  169MOL0     H22766   8.392   4.820   2.712 -0.5842  0.7618  0.4457
  169MOL0     H22767   8.668   4.795   2.986  0.5869 -1.2458 -1.9724
  169MOL0     H22768   8.578   4.945   2.959  0.5362 -0.3081 -2.2899
  169MOL0     H22769   8.461   4.660   2.967  1.1189 -0.4664  2.4674
  169MOL0     H22770   8.367   4.817   2.969  0.4892  1.5443 -1.4163
  169MOL0     H22771   8.577   4.758   3.181  0.1272 -0.5168 -0.3823
  169MOL0     H22772   8.435   4.663   3.187 -0.2669  0.1809 -1.4847
  169MOL0     H22773   8.433   4.969   3.208 -1.7565  2.0211  3.1248
  169MOL0     H22774   8.403   4.846   3.340  0.8480  1.0781 -0.8183
  169MOL0     H22775   8.277   4.626   3.355 -1.3754 -1.9402  0.2334
  169MOL0     H22776   8.053   4.424   3.515  1.1395  0.6807  1.8639
  169MOL0     H22777   8.119   4.386   3.352 -0.0903 -0.8707  0.6049
  169MOL0     H22778   8.226   4.460   3.477 -0.9398  0.6235  2.6100
  169MOL0     H22779   7.620   4.386   3.309  0.0650 -0.4386  0.3569
  169MOL0     H22780   7.364   4.354   3.218 -1.0692 -0.7464  0.8062
  169MOL0     H22781   7.012   4.594   3.376 -1.1798  0.7339 -0.1275
  169MOL0     H22782   7.088   4.668   3.231  1.8065 -1.5818 -2.2518
  169MOL0     H22783   7.022   4.468   3.090 -0.3678  0.3677 -0.7905
  169MOL0     H22784   6.917   4.420   3.224  0.4841 -1.1754 -0.9537
  169MOL0     H22785   6.932   4.663   3.048  2.3954 -1.0866  1.3203
  169MOL0     H22786   6.835   4.669   3.200  0.8899  1.4048  0.0308
  169MOL0     H22787   6.780   4.562   2.932  0.2427 -1.4530  0.7977
  169MOL0     H22788   6.760   4.435   3.048 -1.7263  0.2450  1.1362
  169MOL0     H22789   6.617   4.599   3.196 -3.9021  2.0965  0.1344
  169MOL0     H22790   6.552   4.524   3.048  0.9462 -0.8032 -0.3215
  169MOL0     H22791   6.679   4.798   3.088 -0.2045 -1.1569 -0.4284
  169MOL0     H22792   6.628   4.747   2.931 -2.1777 -3.4547 -0.9022
  169MOL0     H22793   6.486   4.903   3.029 -0.6857 -0.5137 -1.6612
  169MOL0     H22794   6.454   4.793   3.168 -0.5738  0.0625 -0.6583
  169MOL0     H22795   6.380   4.635   2.949 -0.1120  0.8214 -3.1648
  169MOL0     H22796   6.348   4.794   2.880 -1.4465 -2.1263 -1.8799
  169MOL0     H22797   7.270   4.721   3.405  0.4923  0.8686 -0.6806
  169MOL0     H22798   7.511   4.765   3.471  0.8025 -0.4765  1.1893
  169MOL0     H22799   7.822   4.765   3.253  1.8452  0.9721 -4.5706
  169MOL0     H22800   7.993   4.905   3.171 -1.1236 -0.0445  0.4805
  169MOL0     H22801   7.551   5.041   2.671 -1.1821 -0.2971  0.3614
  169MOL0     H22802   7.402   5.226   2.626 -0.8521 -3.4356  0.2466
  169MOL0     H22803   7.224   5.527   2.559 -0.7420  0.9293  1.2438
  169MOL0     H22804   7.066   5.714   2.569  2.0126  1.2099  0.4908
  169MOL0     H22805   6.978   5.950   2.215 -0.1909  3.6119  0.5239
  169MOL0     H22806   6.821   5.863   2.234 -1.3555  0.7274  1.9139
  169MOL0     H22807   6.832   6.113   2.301  2.9229  0.9275  1.3161
  169MOL0     H22808   6.901   6.056   2.455 -3.2685  3.3918  0.9013
  169MOL0     H22809   6.679   5.884   2.400  1.7492  0.4880  2.9501
  169MOL0     H22810   6.615   6.038   2.369 -0.8212  0.9597  2.6150
  169MOL0     H22811   6.570   5.956   2.586  1.5425 -2.6519 -0.3502
  169MOL0     H22812   6.675   6.099   2.601  0.5296 -0.8972  0.5148
  169MOL0     H22813   6.910   5.796   2.765 -0.3996  0.0347  1.8690
  169MOL0     H22814   7.079   5.767   2.144  1.0654  0.2462 -0.8261
  169MOL0     H22815   7.229   5.597   2.123  2.6413  0.9727  1.3386
  170MOL0     O22816   0.167   3.522   2.562  0.6597 -0.0989 -0.3993
  170MOL0     C22817   0.049   3.484   2.573  0.3171 -0.2377 -0.5259
  170MOL0     O22818  -0.065   3.529   2.516 -1.1697  0.4993  0.1965
  170MOL0     C22819  -0.070   3.651   2.448  0.4859  0.8813 -0.2163
  170MOL0     C22820   0.031   3.733   2.406  0.4300 -0.0360 -0.6946
  170MOL0     C22821   0.008   3.861   2.347  0.2001 -0.1620  0.4033
  170MOL0     C22822  -0.122   3.908   2.315 -0.5164 -0.1632  0.6201
  170MOL0     O22823  -0.132   4.033   2.264 -0.4672 -0.2795 -0.1154
  170MOL0     C22824  -0.268   4.060   2.226 -0.2109  0.9631  0.9130
  170MOL0     C22825  -0.275   4.182   2.133 -0.3907 -0.1180 -0.1034
  170MOL0     C22826  -0.176   4.166   2.018 -0.2412  0.4403  0.1730
  170MOL0     C22827  -0.123   4.297   1.956  0.8031 -0.2604  0.6032
  170MOL0     C22828  -0.034   4.266   1.837 -0.7904 -0.2540  0.4100
  170MOL0     C22829   0.109   4.231   1.876  1.4538 -1.3823  0.7455
  170MOL0     C22830   0.191   4.227   1.752  0.6292  1.2168 -0.0940
  170MOL0     C22831   0.330   4.186   1.768 -0.1976 -0.3583 -0.3943
  170MOL0     N22832   0.342   4.057   1.829 -0.6124 -0.1006  0.5144
  170MOL0     C22833   0.283   3.948   1.786 -0.6619  0.6228  0.2136
  170MOL0     C22834   0.281   3.868   1.898 -0.4963  0.4311  0.7300
  170MOL0     C22835   0.203   3.735   1.893 -0.8483  0.8241  0.1927
  170MOL0     C22836   0.274   3.618   1.963  0.4014 -0.5200  0.6881
  170MOL0     C22837   0.266   3.647   2.112 -0.4519 -0.2735 -0.3677
  170MOL0     C22838   0.300   3.537   2.206  0.5628 -0.0907 -0.7039
  170MOL0     O22839   0.440   3.490   2.190 -0.1704 -0.5303 -0.1305
  170MOL0     C22840   0.475   3.367   2.232 -0.6201  0.7341  0.0188
  170MOL0     C22841   0.394   3.282   2.308 -0.0575  0.4704  0.4697
  170MOL0     C22842   0.431   3.145   2.336  0.3327  0.0305 -0.0421
  170MOL0     C22843   0.320   3.068   2.409  0.5313  0.1709  0.7947
  170MOL0     C22844   0.558   3.093   2.291 -0.3211 -0.3126 -0.3107
  170MOL0     C22845   0.593   2.945   2.295 -0.8472 -0.2228  0.4496
  170MOL0     O22846   0.709   2.903   2.237 -0.3779 -0.3259 -0.5108
  170MOL0     C22847   0.735   2.767   2.213  0.7194  0.3099 -0.1237
  170MOL0     C22848   0.683   2.712   2.095 -0.8387 -0.4971  0.6878
  170MOL0     C22849   0.720   2.588   2.045 -0.2280  0.0378  0.4003
  170MOL0     C22850   0.795   2.510   2.130 -0.2764 -0.1385 -0.8204
  170MOL0     O22851   0.823   2.382   2.097 -0.2909 -0.2717 -0.9467
  170MOL0     C22852   0.707   2.297   2.119  0.5288 -0.2688 -0.4275
  170MOL0     C22853   0.653   2.237   1.990 -0.2377  0.1948  0.0491
  170MOL0     C22854   0.570   2.116   2.015 -1.3071  0.1585  0.0553
  170MOL0     C22855   0.506   2.069   1.885  0.7182 -0.0490 -0.2166
  170MOL0     C22856   0.425   1.938   1.905 -0.5204 -0.8748 -0.8619
  170MOL0     C22857   0.340   1.910   1.780  0.4540  0.1035 -0.5134
  170MOL0     C22858   0.265   1.774   1.770 -0.5723 -0.2672  0.0370
  170MOL0     C22859   0.365   1.657   1.736  0.1465 -0.3389 -0.3937
  170MOL0    Cl22860   0.261   1.529   1.693 -0.0979 -0.0174 -0.0610
  170MOL0     C22861   0.858   2.569   2.238 -0.8185 -0.3301 -0.1809
  170MOL0     C22862   0.832   2.695   2.279  0.0679 -0.2594  0.4271
  170MOL0     O22863   0.514   2.870   2.350 -0.0908  0.1879  0.5034
  170MOL0     C22864   0.633   3.181   2.210 -0.8147 -0.3267  0.0027
  170MOL0     C22865   0.599   3.314   2.182  0.4456  0.1541  0.4761
  170MOL0     N22866   0.337   3.929   2.007  0.7677 -0.1526  0.1210
  170MOL0     N22867   0.367   4.044   1.963 -1.0346 -0.3890  0.5768
  170MOL0     C22868  -0.220   3.819   2.347 -0.2849 -0.4710 -0.9944
  170MOL0     C22869  -0.193   3.694   2.407  0.4116  0.0092 -0.2305
  170MOL0     C22870   0.024   3.348   2.653  0.5882 -1.1800  0.8656
  170MOL0     C22871  -0.102   3.296   2.663 -0.0760 -0.1431  0.0979
  170MOL0     C22872  -0.142   3.184   2.730  0.3910 -0.7392 -0.3300
  170MOL0     C22873  -0.045   3.115   2.803 -0.5842 -0.3754 -0.9625
  170MOL0     O22874  -0.078   3.008   2.871  0.3887  0.1898  0.4877
  170MOL0     C22875  -0.030   3.001   3.009  0.2740 -0.2185  0.1613
  170MOL0     C22876  -0.085   2.880   3.092 -0.3298  0.1893  0.5766
  170MOL0     C22877  -0.237   2.871   3.089  0.1081 -0.4822  0.2030
  170MOL0     C22878  -0.302   2.784   2.988 -0.3554  0.4753  0.6203
  170MOL0     C22879  -0.231   2.648   2.996  0.2003  0.1039 -0.0130
  170MOL0     C22880  -0.185   2.532   3.016  0.5170  0.4204 -0.2333
  170MOL0     C22881   0.095   3.153   2.795 -0.3876  0.1203 -0.2129
  170MOL0     C22882   0.123   3.271   2.713 -0.7579  0.7951  0.1940
  170MOL0     H22883   0.136   3.707   2.420  0.0638 -1.0602  0.3301
  170MOL0     H22884   0.092   3.917   2.308 -1.0931  0.5071 -1.5823
  170MOL0     H22885  -0.316   3.971   2.182 -1.0000  1.0396  1.5941
  170MOL0     H22886  -0.331   4.074   2.314  0.2940  0.4437  1.3718
  170MOL0     H22887  -0.375   4.203   2.094 -0.0112  2.3237  0.0909
  170MOL0     H22888  -0.249   4.261   2.204  1.4148 -1.4679  0.8172
  170MOL0     H22889  -0.091   4.103   2.050 -1.6655 -1.8326 -0.2578
  170MOL0     H22890  -0.230   4.112   1.940  0.4275  0.6605 -0.4531
  170MOL0     H22891  -0.206   4.361   1.925  0.8555 -1.1219 -1.4821
  170MOL0     H22892  -0.065   4.353   2.030 -2.5735  0.9966  2.5584
  170MOL0     H22893  -0.081   4.186   1.779 -0.1308 -1.1838  1.1265
  170MOL0     H22894  -0.035   4.354   1.773 -1.8665 -2.7540 -3.3568
  170MOL0     H22895   0.137   4.321   1.932  0.9087  0.0422 -1.1579
  170MOL0     H22896   0.106   4.142   1.940  0.1221 -2.1058 -0.2575
  170MOL0     H22897   0.156   4.157   1.676  3.4533  1.1464 -1.4438
  170MOL0     H22898   0.194   4.331   1.717 -1.7414  0.5674 -2.6051
  170MOL0     H22899   0.396   4.248   1.829  2.5805 -2.4855 -1.0143
  170MOL0     H22900   0.374   4.172   1.669 -0.4038 -0.4601 -0.4719
  170MOL0     H22901   0.232   3.931   1.692 -0.4483 -0.4630  0.2848
  170MOL0     H22902   0.102   3.748   1.932 -0.3689 -1.3973  2.3968
  170MOL0     H22903   0.194   3.697   1.791 -0.5293 -2.1744  1.1751
  170MOL0     H22904   0.378   3.604   1.931  0.4060 -1.0401  0.9275
  170MOL0     H22905   0.220   3.529   1.929 -1.1463  0.9211 -0.8062
  170MOL0     H22906   0.167   3.689   2.131 -0.4629 -1.0130  1.4001
  170MOL0     H22907   0.338   3.723   2.141 -0.8068 -0.1871  0.3160
  170MOL0     H22908   0.235   3.450   2.192  1.7696 -0.9418 -1.2817
  170MOL0     H22909   0.297   3.554   2.314  2.0292 -0.0272 -0.6456
  170MOL0     H22910   0.295   3.313   2.340 -0.2746  0.2374  0.0317
  170MOL0     H22911   0.350   3.030   2.507  0.8319 -3.4864 -0.5695
  170MOL0     H22912   0.229   3.129   2.414 -1.3895 -2.3642 -0.9119
  170MOL0     H22913   0.301   2.977   2.351 -0.0146 -0.9470  2.6411
  170MOL0     H22914   0.615   2.770   2.035  0.0691  0.6922  0.7809
  170MOL0     H22915   0.673   2.547   1.957  0.4113 -1.8222  0.8674
  170MOL0     H22916   0.739   2.212   2.180 -0.2990  1.2823  2.3346
  170MOL0     H22917   0.623   2.347   2.170  0.4295 -0.3910 -0.4727
  170MOL0     H22918   0.597   2.313   1.935  3.4071  2.0260 -1.4613
  170MOL0     H22919   0.733   2.212   1.920 -2.1188  1.7748 -2.8494
  170MOL0     H22920   0.495   2.137   2.091 -1.6772 -1.1301  0.0749
  170MOL0     H22921   0.633   2.029   2.037 -0.5650 -0.0980 -2.6851
  170MOL0     H22922   0.436   2.151   1.874  0.5346 -0.2862 -0.9080
  170MOL0     H22923   0.583   2.060   1.807  0.1071 -2.0640 -0.6700
  170MOL0     H22924   0.357   1.956   1.988 -0.3569 -3.4432 -0.0956
  170MOL0     H22925   0.505   1.865   1.915  0.1289  0.0082  0.9338
  170MOL0     H22926   0.262   1.986   1.775  0.5918  0.2111 -1.0347
  170MOL0     H22927   0.405   1.924   1.693  0.0517  2.7564 -0.4760
  170MOL0     H22928   0.200   1.783   1.682  1.5826  0.4604 -1.5791
  170MOL0     H22929   0.209   1.758   1.862  0.9374 -0.2087  0.9828
  170MOL0     H22930   0.410   1.624   1.830 -0.4767 -0.6578 -0.1947
  170MOL0     H22931   0.444   1.677   1.664  2.0715 -4.6544  0.1872
  170MOL0     H22932   0.931   2.516   2.299 -0.8283 -0.7346 -0.5178
  170MOL0     H22933   0.886   2.734   2.365  1.8215  2.1471 -1.6020
  170MOL0     H22934   0.724   3.138   2.168 -0.1456  1.2568 -0.2683
  170MOL0     H22935   0.664   3.377   2.122 -2.8551  2.2438 -1.2387
  170MOL0     H22936  -0.323   3.833   2.316 -1.7648  0.9942  3.6655
  170MOL0     H22937  -0.274   3.623   2.421 -0.0401 -0.0192 -2.6774
  170MOL0     H22938  -0.184   3.350   2.616 -0.0873  0.8843  1.2419
  170MOL0     H22939  -0.248   3.164   2.742 -0.0526  2.5386  2.3240
  170MOL0     H22940   0.079   2.993   3.004  0.2790  0.4545 -1.2362
  170MOL0     H22941  -0.039   3.101   3.051  1.4222  0.8216 -1.9204
  170MOL0     H22942  -0.048   2.885   3.194  1.7333  0.2169 -0.1253
  170MOL0     H22943  -0.047   2.788   3.045 -0.6178 -0.2135  1.1219
  170MOL0     H22944  -0.273   2.974   3.092 -1.9524 -1.1607  0.5724
  170MOL0     H22945  -0.260   2.827   3.187  2.6518 -0.5039  0.8609
  170MOL0     H22946  -0.272   2.830   2.893  1.1170  0.8544  1.2319
  170MOL0     H22947  -0.410   2.769   2.994 -0.4524  0.7617 -0.2010
  170MOL0     H22948  -0.139   2.439   3.041  1.3959  1.1337  0.8953
  170MOL0     H22949   0.178   3.087   2.819 -0.8901 -2.5949 -4.8477
  170MOL0     H22950   0.226   3.303   2.696 -0.2288 -0.2933  1.1543
  171MOL0     O22951   6.765   0.490   6.623 -0.6573  0.5544 -0.4176
  171MOL0     C22952   6.846   0.501   6.529 -0.0841  0.4463  0.0732
  171MOL0     O22953   6.887   0.614   6.478  0.1578 -0.5433 -0.1292
  171MOL0     C22954   6.829   0.727   6.533  0.0202  0.4322  0.4316
  171MOL0     C22955   6.727   0.777   6.453  0.6476 -0.5705 -0.3607
  171MOL0     C22956   6.667   0.900   6.489  0.5405 -0.2532  0.3049
  171MOL0     C22957   6.708   0.963   6.610 -1.0945 -0.3063  0.5662
  171MOL0     O22958   6.655   1.079   6.658  0.6892  0.1012 -0.6052
  171MOL0     C22959   6.512   1.103   6.662 -0.9841 -0.6329 -0.6903
  171MOL0     C22960   6.453   0.979   6.731  1.1474 -0.6321 -0.4573
  171MOL0     C22961   6.296   0.972   6.742  0.9836 -0.8365  0.1376
  171MOL0     C22962   6.233   1.110   6.781 -1.1442  0.4943 -0.0621
  171MOL0     C22963   6.256   1.143   6.929  0.2196 -0.1038 -0.9413
  171MOL0     C22964   6.183   1.277   6.965 -0.0138  0.3026 -0.2231
  171MOL0     C22965   6.248   1.362   7.082 -1.0205 -0.1255  1.0921
  171MOL0     C22966   6.359   1.460   7.051 -0.3185 -0.6155  0.1776
  171MOL0     N22967   6.311   1.553   6.954 -0.6765  0.5584  0.0071
  171MOL0     C22968   6.343   1.556   6.822 -0.9173  0.4632 -0.9519
  171MOL0     C22969   6.320   1.687   6.784  0.6479 -0.1124 -0.2395
  171MOL0     C22970   6.351   1.752   6.655  0.4848  0.1540  0.1797
  171MOL0     C22971   6.344   1.906   6.673 -0.0545 -0.4228  0.4901
  171MOL0     C22972   6.348   1.952   6.520 -0.2900  0.3649  0.0394
  171MOL0     C22973   6.352   2.105   6.501 -1.0276 -1.9680  0.5017
  171MOL0     O22974   6.213   2.141   6.527  1.3662 -0.2523 -0.2621
  171MOL0     C22975   6.190   2.244   6.619  0.9756  0.3366  0.3379
  171MOL0     C22976   6.269   2.357   6.631  0.2654  0.1162 -0.1762
  171MOL0     C22977   6.240   2.444   6.727 -0.6365 -0.6167 -0.0581
  171MOL0     C22978   6.328   2.574   6.730 -0.6762 -0.2524 -0.5015
  171MOL0     C22979   6.140   2.431   6.825 -0.5656  0.2027  0.3717
  171MOL0     C22980   6.105   2.533   6.937 -0.1194 -0.4743  0.3083
  171MOL0     O22981   6.027   2.495   7.043  0.5519 -0.1714  0.7018
  171MOL0     C22982   5.972   2.585   7.126 -0.5525  0.2934  0.9988
  171MOL0     C22983   5.891   2.692   7.070  0.4103  0.1091 -1.1516
  171MOL0     C22984   5.843   2.794   7.158  0.0501 -0.2362  0.2857
  171MOL0     C22985   5.879   2.800   7.286 -0.6551  0.1118 -0.4010
  171MOL0     O22986   5.839   2.898   7.376  0.1421  0.2152 -0.3018
  171MOL0     C22987   5.701   2.927   7.364 -0.5255  0.3132  0.8991
  171MOL0     C22988   5.631   2.929   7.499 -0.5208  0.3100 -0.5197
  171MOL0     C22989   5.660   2.808   7.593  0.3115 -0.3832 -0.4343
  171MOL0     C22990   5.538   2.716   7.619 -0.4239 -0.0131  0.0345
  171MOL0     C22991   5.514   2.632   7.485 -0.3232  0.3721  0.4016
  171MOL0     C22992   5.616   2.520   7.447  0.5491  0.2223 -0.6307
  171MOL0     C22993   5.597   2.468   7.296  0.4834  0.7817 -0.8366
  171MOL0     C22994   5.712   2.388   7.246  0.5110 -0.2609 -0.1990
  171MOL0    Cl22995   5.704   2.233   7.330  0.0157  0.0078  0.0194
  171MOL0     C22996   5.951   2.693   7.343  0.1352  0.0665 -0.2355
  171MOL0     C22997   6.006   2.590   7.263  0.3406 -0.1497 -1.2362
  171MOL0     O22998   6.149   2.648   6.916 -0.2459 -0.4408 -0.2611
  171MOL0     C22999   6.066   2.314   6.813 -0.0123  0.7606  0.5126
  171MOL0     C23000   6.087   2.225   6.709  0.0609  0.6476  0.3813
  171MOL0     N23001   6.254   1.744   6.885 -0.1717  0.5871 -0.0577
  171MOL0     N23002   6.239   1.662   6.983 -0.2474  0.0413 -0.3253
  171MOL0     C23003   6.813   0.915   6.682  0.4207 -0.1860  0.4754
  171MOL0     C23004   6.869   0.793   6.647 -0.5503  1.3525  0.7805
  171MOL0     C23005   6.892   0.386   6.440  0.2747 -0.4335  0.9832
  171MOL0     C23006   6.802   0.276   6.422 -0.4963 -0.5174 -0.3305
  171MOL0     C23007   6.812   0.184   6.320 -0.4508 -1.3414 -0.3988
  171MOL0     C23008   6.939   0.175   6.258  0.2505 -0.0912  0.4163
  171MOL0     O23009   6.962   0.081   6.164  0.5164 -0.3040 -0.5340
  171MOL0     C23010   7.064  -0.002   6.214 -0.0161  0.7815 -0.2224
  171MOL0     C23011   6.999  -0.118   6.288  0.3605 -0.1354  0.2071
  171MOL0     C23012   6.911  -0.211   6.197  0.2693 -1.1717 -0.4050
  171MOL0     C23013   6.769  -0.164   6.191 -0.2209 -0.3768 -0.4191
  171MOL0     C23014   6.707  -0.187   6.323  0.6962  0.0050  0.2168
  171MOL0     C23015   6.644  -0.206   6.423  0.2683  0.0107 -0.0151
  171MOL0     C23016   7.034   0.283   6.269  1.4613  0.1247  0.5769
  171MOL0     C23017   7.007   0.381   6.357 -0.4564  0.6877 -0.7014
  171MOL0     H23018   6.716   0.728   6.356 -0.4290  0.1818 -0.6385
  171MOL0     H23019   6.584   0.939   6.432  1.4009 -0.0596 -0.8495
  171MOL0     H23020   6.504   1.190   6.728 -1.3811 -3.2752  3.0057
  171MOL0     H23021   6.473   1.122   6.561  2.1168 -2.4394 -2.3846
  171MOL0     H23022   6.479   0.890   6.674  1.8418  0.5973 -2.1469
  171MOL0     H23023   6.494   0.978   6.832 -0.2592  1.6577  0.2291
  171MOL0     H23024   6.261   0.945   6.641 -3.0713  4.3458 -0.3001
  171MOL0     H23025   6.267   0.892   6.811  0.2777 -1.5584 -0.9468
  171MOL0     H23026   6.274   1.178   6.705 -0.9866 -1.7310 -2.1000
  171MOL0     H23027   6.124   1.112   6.769 -1.2532 -0.0743  0.7991
  171MOL0     H23028   6.216   1.059   6.988 -0.0964  0.6365 -0.0741
  171MOL0     H23029   6.361   1.134   6.959 -0.0715  1.3764  0.6879
  171MOL0     H23030   6.172   1.351   6.886 -1.7552  0.9336  0.5513
  171MOL0     H23031   6.081   1.248   6.990  0.4227  0.0484  1.3969
  171MOL0     H23032   6.158   1.411   7.120 -1.7605 -0.6189  0.0295
  171MOL0     H23033   6.273   1.297   7.166 -2.4872  0.4039  1.9665
  171MOL0     H23034   6.459   1.418   7.032 -0.2379  0.6575 -2.8404
  171MOL0     H23035   6.373   1.521   7.140  0.8091 -0.0602 -0.3518
  171MOL0     H23036   6.401   1.475   6.779 -0.2565 -0.5472  1.6632
  171MOL0     H23037   6.452   1.725   6.623  1.7390  2.0829  2.2947
  171MOL0     H23038   6.279   1.727   6.576 -0.7865 -2.9219  2.1261
  171MOL0     H23039   6.430   1.948   6.726 -1.0363  0.7682  1.2039
  171MOL0     H23040   6.248   1.940   6.713  0.8466  0.0661  2.3057
  171MOL0     H23041   6.254   1.929   6.469 -0.1335  1.7101 -0.9081
  171MOL0     H23042   6.437   1.913   6.470 -1.0982 -0.2695 -0.9417
  171MOL0     H23043   6.376   2.128   6.397 -2.6580 -2.2039  0.0449
  171MOL0     H23044   6.420   2.165   6.563 -0.2454  1.8410 -3.5569
  171MOL0     H23045   6.360   2.361   6.572  0.0256 -1.9336 -0.7816
  171MOL0     H23046   6.269   2.660   6.696 -1.0871 -1.1601 -2.1537
  171MOL0     H23047   6.368   2.603   6.828 -2.9780  3.4614 -0.4420
  171MOL0     H23048   6.423   2.567   6.675  0.5175 -1.6189  1.5910
  171MOL0     H23049   5.864   2.681   6.966 -2.3912 -1.7588 -0.3608
  171MOL0     H23050   5.783   2.873   7.114  0.9386  0.2514 -0.0646
  171MOL0     H23051   5.686   3.024   7.317 -1.1472 -0.1968  0.0002
  171MOL0     H23052   5.644   2.858   7.300 -2.0795  1.1005  1.3675
  171MOL0     H23053   5.668   3.017   7.553 -1.9547 -0.3532  1.6771
  171MOL0     H23054   5.523   2.940   7.489 -0.3912  1.2867 -0.9945
  171MOL0     H23055   5.705   2.850   7.684  0.6278 -0.1797 -0.6833
  171MOL0     H23056   5.740   2.749   7.547 -0.7587 -0.5341 -2.1913
  171MOL0     H23057   5.532   2.641   7.698 -1.6478  0.2622  0.2206
  171MOL0     H23058   5.453   2.784   7.631 -2.7558 -2.2666 -2.4711
  171MOL0     H23059   5.498   2.695   7.398 -3.8642  0.8362  1.2280
  171MOL0     H23060   5.415   2.586   7.496 -0.8867 -0.3983 -5.2785
  171MOL0     H23061   5.719   2.555   7.460  1.2115 -1.4497 -0.9973
  171MOL0     H23062   5.593   2.428   7.503  2.6018 -0.4768 -0.8459
  171MOL0     H23063   5.583   2.565   7.247  1.2725  1.7288  0.7303
  171MOL0     H23064   5.501   2.416   7.288 -1.4681  3.9420  0.1927
  171MOL0     H23065   5.809   2.434   7.268  1.0004 -0.9082 -0.9492
  171MOL0     H23066   5.700   2.370   7.139 -0.5575  1.0086 -0.3267
  171MOL0     H23067   5.986   2.699   7.445 -0.7168 -1.1469  0.1511
  171MOL0     H23068   6.075   2.517   7.303 -0.9666 -0.4046  0.6887
  171MOL0     H23069   5.986   2.304   6.885 -0.4869  0.0828 -0.0934
  171MOL0     H23070   6.035   2.131   6.696  3.8188 -2.2657  3.6254
  171MOL0     H23071   6.830   0.976   6.771 -1.2936 -0.0519  0.7392
  171MOL0     H23072   6.952   0.741   6.694  0.0430 -1.0779 -2.5723
  171MOL0     H23073   6.712   0.272   6.483  1.1695 -3.1323  2.1757
  171MOL0     H23074   6.732   0.119   6.284  0.8110 -2.1988 -1.8134
  171MOL0     H23075   7.134  -0.037   6.138  0.2007 -2.6718  1.3790
  171MOL0     H23076   7.144   0.052   6.267  2.8792  0.1983 -3.6113
  171MOL0     H23077   6.953  -0.081   6.379  0.4900 -0.7070  0.5100
  171MOL0     H23078   7.077  -0.186   6.324 -0.6608 -0.0120  2.8596
  171MOL0     H23079   6.935  -0.316   6.217  4.3510 -0.9390 -2.9484
  171MOL0     H23080   6.951  -0.201   6.096  0.0313 -2.2579 -0.6156
  171MOL0     H23081   6.722  -0.237   6.124 -0.1636 -0.5689 -0.2527
  171MOL0     H23082   6.742  -0.070   6.143  0.9323 -0.1665 -0.6866
  171MOL0     H23083   6.590  -0.204   6.515 -2.1459 -1.5252 -1.2996
  171MOL0     H23084   7.129   0.281   6.216 -0.4196 -1.5976 -3.0597
  171MOL0     H23085   7.085   0.456   6.364 -0.1637  0.4172 -0.9894
  172MOL0     O23086   7.945   1.108   8.972 -0.3687  0.3830 -0.1533
  172MOL0     C23087   7.980   1.156   8.865  0.3866  0.2547  0.2208
  172MOL0     O23088   8.055   1.096   8.774 -0.2025  0.3614 -0.7188
  172MOL0     C23089   8.132   0.984   8.789 -0.0007  0.0478  0.5893
  172MOL0     C23090   8.164   0.926   8.901 -0.1868 -0.7412 -0.3795
  172MOL0     C23091   8.240   0.812   8.904  0.6731 -0.6001  0.6004
  172MOL0     C23092   8.278   0.748   8.786  0.2014  0.2279  0.5711
  172MOL0     O23093   8.348   0.629   8.775  0.2296 -0.2262 -0.7735
  172MOL0     C23094   8.349   0.549   8.900  0.1997  0.6742  1.2799
  172MOL0     C23095   8.410   0.418   8.875  0.3248  0.3863 -0.2551
  172MOL0     C23096   8.559   0.426   8.827  0.0042 -0.4038  0.2326
  172MOL0     C23097   8.624   0.291   8.824 -0.3892 -0.1074  0.0255
  172MOL0     C23098   8.772   0.296   8.766  0.6244 -0.9763  0.2414
  172MOL0     C23099   8.824   0.157   8.776 -0.0600  1.1578  0.1828
  172MOL0     C23100   8.783   0.077   8.651 -0.3979 -0.4283  0.0815
  172MOL0     C23101   8.788  -0.076   8.666 -0.6689 -0.8826  0.9595
  172MOL0     N23102   8.770  -0.142   8.537 -0.5800  0.3184  0.2236
  172MOL0     C23103   8.744  -0.082   8.421 -1.1531 -0.2027  0.3417
  172MOL0     C23104   8.778  -0.179   8.329  0.4511 -0.0091  0.1660
  172MOL0     C23105   8.779  -0.176   8.183  0.8399  0.4838 -0.0959
  172MOL0     C23106   8.886  -0.086   8.125  0.3162  0.3128 -0.6983
  172MOL0     C23107   8.904  -0.096   7.976  0.7221  0.5211 -0.0078
  172MOL0     C23108   8.780  -0.136   7.897 -0.2810  0.7395  0.6269
  172MOL0     O23109   8.811  -0.150   7.752  0.2658 -0.7001  0.4483
  172MOL0     C23110   8.852  -0.038   7.690 -0.1499  0.5942  0.4578
  172MOL0     C23111   8.753   0.050   7.639 -0.1111 -0.3656 -0.2929
  172MOL0     C23112   8.800   0.141   7.544  0.4359 -0.3365  0.2518
  172MOL0     C23113   8.698   0.245   7.498 -0.5035  0.4037  0.1781
  172MOL0     C23114   8.939   0.163   7.510  0.9533  0.1333 -0.3567
  172MOL0     C23115   9.003   0.244   7.407  0.4549 -0.5214  0.0892
  172MOL0     O23116   9.136   0.264   7.402  0.0878 -0.4225 -0.4646
  172MOL0     C23117   9.186   0.363   7.314 -1.5169  0.1191 -0.0959
  172MOL0     C23118   9.256   0.317   7.199  0.0254 -0.0131 -0.1094
  172MOL0     C23119   9.321   0.400   7.105 -1.0179  0.2418 -0.5861
  172MOL0     C23120   9.315   0.546   7.134 -0.7205  0.2247  0.0992
  172MOL0     O23121   9.373   0.638   7.048  0.1920 -1.3592 -0.5846
  172MOL0     C23122   9.421   0.595   6.925  0.2954  1.0166 -0.1079
  172MOL0     C23123   9.481   0.704   6.834  0.4128  0.4390 -0.6543
  172MOL0     C23124   9.563   0.639   6.727  0.0138  0.8911 -0.3474
  172MOL0     C23125   9.607   0.738   6.629 -0.7839 -0.0406 -0.0215
  172MOL0     C23126   9.722   0.664   6.563  0.0898 -0.2645  0.3530
  172MOL0     C23127   9.752   0.750   6.445  0.1943  0.3919  0.0431
  172MOL0     C23128   9.863   0.664   6.374 -0.6447 -0.5992  0.6763
  172MOL0     C23129   9.921   0.752   6.252 -0.1045  0.6372 -0.3136
  172MOL0    Cl23130   9.801   0.738   6.116 -0.5518 -0.0669  0.1110
  172MOL0     C23131   9.247   0.588   7.255 -0.9795  1.6305  0.0083
  172MOL0     C23132   9.178   0.493   7.336 -0.3407 -0.2640 -0.3814
  172MOL0     O23133   8.922   0.307   7.335 -0.1500  0.4465  0.5905
  172MOL0     C23134   9.033   0.073   7.579  0.3438 -0.9772 -1.2456
  172MOL0     C23135   8.983  -0.029   7.664 -0.1043  0.7941  0.0211
  172MOL0     N23136   8.827  -0.292   8.395  0.1434  0.0510  0.1640
  172MOL0     N23137   8.803  -0.267   8.512 -0.7874 -0.1352  0.2956
  172MOL0     C23138   8.250   0.812   8.672  0.3457  0.4604 -0.5267
  172MOL0     C23139   8.177   0.928   8.667  0.9948 -0.3204  0.4977
  172MOL0     C23140   7.908   1.276   8.805 -0.3168 -0.2188 -0.3787
  172MOL0     C23141   7.876   1.273   8.666  0.2295  0.0807  0.0204
  172MOL0     C23142   7.819   1.382   8.609 -0.8776  0.1578  0.1453
  172MOL0     C23143   7.799   1.504   8.678  0.5194 -0.6012  0.8562
  172MOL0     O23144   7.757   1.627   8.633 -0.2607 -0.1932 -0.5927
  172MOL0     C23145   7.685   1.627   8.503  0.5817 -0.5531 -0.3998
  172MOL0     C23146   7.581   1.732   8.490 -0.5689 -0.7241  0.3025
  172MOL0     C23147   7.498   1.716   8.354 -0.4879  0.4759 -0.3674
  172MOL0     C23148   7.415   1.836   8.301 -0.1798  0.0580  0.8356
  172MOL0     C23149   7.313   1.870   8.401  0.3134  0.0046 -0.3609
  172MOL0     C23150   7.211   1.904   8.462 -0.4420  0.7604  0.5935
  172MOL0     C23151   7.832   1.508   8.819  0.6232  0.2889 -0.5403
  172MOL0     C23152   7.887   1.391   8.882 -0.4970  0.1208  0.0238
  172MOL0     H23153   8.144   0.968   9.000 -0.7443  2.2513 -1.6362
  172MOL0     H23154   8.249   0.762   9.000 -0.4262  1.1275  1.6556
  172MOL0     H23155   8.408   0.595   8.980  2.8771 -0.7067  0.2151
  172MOL0     H23156   8.244   0.538   8.932 -0.4165 -0.9509 -1.0612
  172MOL0     H23157   8.393   0.346   8.955 -4.4097  2.2735  0.7445
  172MOL0     H23158   8.353   0.378   8.790  0.5302  1.4876 -0.9298
  172MOL0     H23159   8.561   0.485   8.735 -1.4100 -0.2419  0.2749
  172MOL0     H23160   8.615   0.487   8.898  0.7129 -0.7084 -0.0566
  172MOL0     H23161   8.618   0.253   8.927  3.3269 -0.4367  0.2572
  172MOL0     H23162   8.566   0.222   8.762  1.4695 -0.9726 -0.8105
  172MOL0     H23163   8.782   0.342   8.667  4.4392  0.4490  1.1083
  172MOL0     H23164   8.812   0.362   8.843  1.1639  1.0073 -1.6409
  172MOL0     H23165   8.932   0.162   8.790 -0.1473  1.5748  0.7401
  172MOL0     H23166   8.785   0.106   8.864 -1.6001  1.1170 -0.4839
  172MOL0     H23167   8.684   0.109   8.616 -0.8511 -0.9143  0.8683
  172MOL0     H23168   8.842   0.118   8.568 -2.0065  1.3567 -0.2531
  172MOL0     H23169   8.729  -0.115   8.749  0.0542  0.7013  2.2753
  172MOL0     H23170   8.893  -0.088   8.695  0.4964  2.0834 -1.4724
  172MOL0     H23171   8.696   0.014   8.404  0.4295  0.2850 -1.7306
  172MOL0     H23172   8.782  -0.278   8.144 -0.3650  1.5881 -3.4528
  172MOL0     H23173   8.683  -0.128   8.161 -0.2083  1.0376  4.6040
  172MOL0     H23174   8.977  -0.087   8.186 -1.5040 -0.6977  2.2173
  172MOL0     H23175   8.849   0.015   8.146  2.9121  0.5402  4.6509
  172MOL0     H23176   8.979  -0.174   7.965 -1.1491 -1.3962  0.0237
  172MOL0     H23177   8.929   0.005   7.941  0.3339  0.8363  0.6078
  172MOL0     H23178   8.700  -0.063   7.913 -0.8913  2.0911 -5.8991
  172MOL0     H23179   8.731  -0.226   7.935  1.7573 -0.3296  0.8909
  172MOL0     H23180   8.647   0.030   7.652  0.1745 -1.4166  0.5495
  172MOL0     H23181   8.666   0.219   7.396 -0.6142  0.0702  0.2936
  172MOL0     H23182   8.600   0.243   7.547 -0.4035  2.6346  0.5690
  172MOL0     H23183   8.741   0.345   7.502  2.2358 -0.6040 -1.6916
  172MOL0     H23184   9.269   0.209   7.195 -3.8402 -0.8671  3.5556
  172MOL0     H23185   9.366   0.355   7.018 -3.2423 -0.9833 -1.1941
  172MOL0     H23186   9.491   0.511   6.925 -1.6393 -0.6755 -1.0426
  172MOL0     H23187   9.335   0.550   6.875 -0.4123  2.0495  0.1588
  172MOL0     H23188   9.404   0.769   6.791 -1.4675 -1.8393 -0.9631
  172MOL0     H23189   9.547   0.764   6.897 -0.4066 -1.2454  1.9508
  172MOL0     H23190   9.514   0.561   6.668  0.2466  1.4484 -1.3186
  172MOL0     H23191   9.647   0.592   6.778 -0.8096 -3.7288 -2.7654
  172MOL0     H23192   9.521   0.758   6.564  0.0755  0.6180 -0.9854
  172MOL0     H23193   9.638   0.836   6.667 -2.3353  0.7765 -0.7908
  172MOL0     H23194   9.691   0.567   6.525 -2.4341  0.9336 -0.8608
  172MOL0     H23195   9.814   0.662   6.623  0.3402  3.4065  0.3532
  172MOL0     H23196   9.665   0.755   6.380  0.9716 -3.8194 -1.6044
  172MOL0     H23197   9.798   0.845   6.477  0.4224  0.9887 -1.9125
  172MOL0     H23198   9.831   0.565   6.341  3.1277 -1.5152 -0.6518
  172MOL0     H23199   9.947   0.638   6.439  0.8588  1.0074 -0.5168
  172MOL0     H23200  10.017   0.710   6.221  0.4304 -0.3413  2.4579
  172MOL0     H23201   9.938   0.859   6.272 -1.6181  0.3974  2.7792
  172MOL0     H23202   9.236   0.692   7.281  0.0315  2.3911 -2.3106
  172MOL0     H23203   9.120   0.529   7.421  0.7660 -0.4232  0.4697
  172MOL0     H23204   9.140   0.067   7.562  0.8396  2.9060 -0.2242
  172MOL0     H23205   9.058  -0.102   7.692  0.7159  1.2131 -1.0003
  172MOL0     H23206   8.289   0.778   8.576 -0.5845  1.5965 -1.3401
  172MOL0     H23207   8.145   0.971   8.572  0.8122 -2.1374 -0.3017
  172MOL0     H23208   7.899   1.182   8.611 -2.9641 -0.4858 -0.5648
  172MOL0     H23209   7.797   1.392   8.504 -0.4075 -1.5090 -0.1552
  172MOL0     H23210   7.763   1.628   8.426  2.2627 -1.9792  1.1922
  172MOL0     H23211   7.629   1.533   8.488  0.3376 -1.0656  3.0443
  172MOL0     H23212   7.626   1.832   8.490 -2.9861  0.5144  2.1560
  172MOL0     H23213   7.529   1.736   8.587 -0.0222 -3.9893  0.8210
  172MOL0     H23214   7.439   1.625   8.366  1.3135 -0.4166  2.6775
  172MOL0     H23215   7.575   1.706   8.276 -2.2498  2.3837 -2.4821
  172MOL0     H23216   7.375   1.816   8.201  0.9858 -0.9203  0.5405
  172MOL0     H23217   7.470   1.930   8.305  0.0376  0.0876 -1.6588
  172MOL0     H23218   7.117   1.932   8.506 -0.9247 -1.4917  1.0935
  172MOL0     H23219   7.818   1.601   8.874  2.3326  0.7160 -0.7576
  172MOL0     H23220   7.911   1.391   8.988 -0.3303  0.8913 -0.0024
  173MOL0     O23221   0.444   8.020   1.933 -0.4396  0.7508 -0.0918
  173MOL0     C23222   0.357   8.090   1.882  0.4874 -0.3121  0.5781
  173MOL0     O23223   0.335   8.098   1.750  1.0637  0.0247 -0.6775
  173MOL0     C23224   0.418   8.033   1.662 -0.3926  0.8864 -0.0176
  173MOL0     C23225   0.420   7.891   1.643  0.5196  0.0738 -0.4863
  173MOL0     C23226   0.511   7.831   1.553  0.7383  0.0125 -1.7799
  173MOL0     C23227   0.591   7.918   1.470 -1.3551  0.2654 -0.1178
  173MOL0     O23228   0.672   7.857   1.379 -0.9387 -0.8989  0.0473
  173MOL0     C23229   0.722   7.939   1.269  0.6234  0.0939  0.5973
  173MOL0     C23230   0.812   7.841   1.179 -1.0443  0.2056  0.4359
  173MOL0     C23231   0.879   7.913   1.061  0.4985  0.1318 -0.8749
  173MOL0     C23232   1.015   7.865   1.050 -0.0493  0.0263 -0.5952
  173MOL0     C23233   1.106   7.915   0.942  0.9930  0.7112 -0.7499
  173MOL0     C23234   1.126   8.072   0.935  0.2159  0.6342  0.7252
  173MOL0     C23235   1.248   8.101   0.847 -0.4187 -0.4492  0.0432
  173MOL0     C23236   1.386   8.060   0.900  0.6043 -0.4982  0.1669
  173MOL0     N23237   1.485   8.092   0.798 -0.5296  0.4380 -0.1664
  173MOL0     C23238   1.492   8.205   0.715 -0.2039 -0.2027  0.0114
  173MOL0     C23239   1.598   8.176   0.634  0.6222  0.0788 -1.2744
  173MOL0     C23240   1.658   8.274   0.533  0.0499  0.1293 -0.5642
  173MOL0     C23241   1.734   8.396   0.604  0.2528  0.1578 -0.8552
  173MOL0     C23242   1.843   8.342   0.699  0.7838 -0.1790 -0.3079
  173MOL0     C23243   1.900   8.452   0.778 -0.3668 -0.2407 -0.7628
  173MOL0     O23244   1.802   8.514   0.864  0.5918  0.6347 -0.7752
  173MOL0     C23245   1.835   8.611   0.955  0.0427  0.2179  0.5574
  173MOL0     C23246   1.734   8.663   1.037 -1.0609 -0.4210  0.1140
  173MOL0     C23247   1.757   8.779   1.121 -0.1223  0.2849  0.4573
  173MOL0     C23248   1.644   8.801   1.225  0.5461  0.4664  0.4559
  173MOL0     C23249   1.892   8.833   1.119  0.3906 -0.3041 -0.0387
  173MOL0     C23250   1.941   8.961   1.198 -0.1343  0.2111  0.5152
  173MOL0     O23251   2.072   9.017   1.164 -0.0255 -0.1749  0.3778
  173MOL0     C23252   2.140   9.101   1.247 -0.7738 -1.2130  0.3629
  173MOL0     C23253   2.247   9.158   1.186  0.2510 -0.5886 -0.5454
  173MOL0     C23254   2.321   9.261   1.250  0.4161  0.0517 -0.5330
  173MOL0     C23255   2.274   9.311   1.376  0.7838  0.1821  0.8975
  173MOL0     O23256   2.326   9.425   1.428  0.1488  0.3971 -0.0912
  173MOL0     C23257   2.336   9.530   1.338  0.0236 -1.0176  0.4971
  173MOL0     C23258   2.327   9.668   1.404  0.6171 -0.2256  0.2709
  173MOL0     C23259   2.201   9.682   1.492  0.4375 -0.4329 -0.5477
  173MOL0     C23260   2.071   9.693   1.410  0.9157 -0.0383 -0.0063
  173MOL0     C23261   1.949   9.737   1.503 -0.6355  0.5037 -0.0541
  173MOL0     C23262   1.920   9.622   1.606 -0.1238  1.0245  0.0223
  173MOL0     C23263   1.806   9.658   1.703  0.6833  0.3479 -0.5767
  173MOL0     C23264   1.785   9.534   1.791 -0.4280  0.8070  0.1986
  173MOL0    Cl23265   1.651   9.543   1.912 -0.2383 -0.3660 -0.4715
  173MOL0     C23266   2.180   9.234   1.444 -0.5370 -0.6359  0.2314
  173MOL0     C23267   2.103   9.135   1.377 -0.9331 -0.1977 -0.8874
  173MOL0     O23268   1.860   9.007   1.275 -0.0836 -0.3032  0.3891
  173MOL0     C23269   1.990   8.775   1.037 -1.4885  0.1746  0.7230
  173MOL0     C23270   1.962   8.664   0.955 -0.9777 -0.2035 -0.3078
  173MOL0     N23271   1.644   8.054   0.666  0.3537  0.3025 -0.8531
  173MOL0     N23272   1.575   7.996   0.761 -0.3458 -0.0347 -0.4564
  173MOL0     C23273   0.582   8.056   1.490  0.7854 -0.3342  0.3961
  173MOL0     C23274   0.500   8.110   1.585 -0.8092  0.1116 -0.4308
  173MOL0     C23275   0.295   8.183   1.976 -0.0028 -0.4255 -0.6841
  173MOL0     C23276   0.322   8.184   2.124  0.2895  0.7723  1.5480
  173MOL0     C23277   0.262   8.278   2.207  0.7858 -0.2386  0.3651
  173MOL0     C23278   0.183   8.378   2.151 -0.5671 -0.2680 -0.5058
  173MOL0     O23279   0.143   8.478   2.221  1.2780  0.0320  0.2576
  173MOL0     C23280   0.197   8.610   2.201 -0.7252 -0.3673  0.5452
  173MOL0     C23281   0.129   8.715   2.278  0.6480 -0.6071 -0.3589
  173MOL0     C23282   0.088   8.674   2.426 -1.2937  0.7625  0.9382
  173MOL0     C23283   0.211   8.660   2.516  0.2939  0.2032  0.0697
  173MOL0     C23284   0.287   8.779   2.548  0.2240  0.4251  0.6135
  173MOL0     C23285   0.356   8.878   2.552  0.5707  0.6620 -0.0496
  173MOL0     C23286   0.159   8.376   2.014 -0.1835 -0.9656 -0.0531
  173MOL0     C23287   0.207   8.278   1.930  0.3379 -0.3267  0.2367
  173MOL0     H23288   0.347   7.836   1.702  0.2483  2.1767  1.2377
  173MOL0     H23289   0.501   7.723   1.550  0.1528 -0.5238  5.0119
  173MOL0     H23290   0.642   7.987   1.212 -1.2254 -2.4119  0.9210
  173MOL0     H23291   0.780   8.023   1.310 -0.2929  2.1568 -2.0542
  173MOL0     H23292   0.892   7.810   1.246  2.5216  4.8002 -1.1315
  173MOL0     H23293   0.755   7.754   1.144  1.7132 -1.5198 -0.1510
  173MOL0     H23294   0.835   7.884   0.965 -1.2485  1.0653 -0.4071
  173MOL0     H23295   0.884   8.022   1.075  2.1653 -0.1697  1.4491
  173MOL0     H23296   1.066   7.901   1.140  0.6831 -0.0362 -0.9748
  173MOL0     H23297   1.009   7.756   1.053  3.2301 -0.2402  0.6463
  173MOL0     H23298   1.207   7.873   0.951  0.3854 -0.4396  1.2856
  173MOL0     H23299   1.064   7.876   0.849  3.4254 -0.9282 -1.2666
  173MOL0     H23300   1.043   8.129   0.891 -1.2863 -2.3147 -0.5753
  173MOL0     H23301   1.152   8.115   1.032 -0.3999 -0.8509  1.5790
  173MOL0     H23302   1.236   8.060   0.747  1.7062 -3.7467  0.9875
  173MOL0     H23303   1.255   8.210   0.837 -1.0038 -0.5534 -1.8948
  173MOL0     H23304   1.378   7.951   0.909  0.1658 -0.3498  1.9133
  173MOL0     H23305   1.400   8.114   0.993 -0.0775  2.4204 -1.3167
  173MOL0     H23306   1.430   8.292   0.732 -3.3522 -1.5229 -3.3750
  173MOL0     H23307   1.729   8.215   0.474 -0.7700 -1.1860 -0.2714
  173MOL0     H23308   1.578   8.305   0.465 -0.5473  1.2768  0.6344
  173MOL0     H23309   1.663   8.449   0.667  1.3694 -2.0227  2.5158
  173MOL0     H23310   1.778   8.464   0.531 -0.4355  2.3538  0.6870
  173MOL0     H23311   1.914   8.281   0.642  0.5389  0.7525 -1.6468
  173MOL0     H23312   1.796   8.279   0.775 -0.9423 -0.9832 -1.9666
  173MOL0     H23313   1.942   8.528   0.712  1.6731  0.4231  1.1844
  173MOL0     H23314   1.987   8.421   0.837  0.8939  0.5993 -2.1210
  173MOL0     H23315   1.644   8.602   1.032 -1.0793 -0.5883  1.8976
  173MOL0     H23316   1.675   8.846   1.320  2.1053  0.5361 -0.0557
  173MOL0     H23317   1.573   8.867   1.172 -3.9753 -4.9850 -1.2595
  173MOL0     H23318   1.594   8.705   1.238  1.6896 -1.0280 -4.1540
  173MOL0     H23319   2.287   9.124   1.091  4.2979 -2.2517  1.4784
  173MOL0     H23320   2.386   9.311   1.179 -0.0084  1.7473  0.2197
  173MOL0     H23321   2.425   9.503   1.280 -0.3334  0.2676 -0.6938
  173MOL0     H23322   2.258   9.525   1.262 -0.1421 -2.5473  0.7428
  173MOL0     H23323   2.421   9.682   1.459  1.8676 -1.6341 -1.4030
  173MOL0     H23324   2.311   9.748   1.331 -0.7866 -2.9975 -2.7074
  173MOL0     H23325   2.203   9.779   1.542  3.1825  1.2143 -3.4818
  173MOL0     H23326   2.197   9.606   1.571 -2.1519  0.7578  0.6219
  173MOL0     H23327   2.070   9.775   1.339 -0.2282  1.0126  1.1624
  173MOL0     H23328   2.059   9.599   1.356 -0.8937 -0.2869  0.7501
  173MOL0     H23329   1.854   9.752   1.452 -3.4902  1.0851  4.8087
  173MOL0     H23330   1.979   9.830   1.551 -0.6744  1.2673 -1.4480
  173MOL0     H23331   1.886   9.539   1.544 -3.2198  1.7941  0.5224
  173MOL0     H23332   2.003   9.584   1.667 -1.1115 -2.4885 -0.5975
  173MOL0     H23333   1.716   9.687   1.648  0.3505  1.6724  0.5998
  173MOL0     H23334   1.843   9.743   1.761 -1.2457  2.2040 -1.9040
  173MOL0     H23335   1.879   9.498   1.833 -0.5510 -1.3775 -1.2135
  173MOL0     H23336   1.748   9.462   1.716 -2.4488  0.0798  1.7967
  173MOL0     H23337   2.164   9.253   1.550 -1.5355 -2.9301  0.5454
  173MOL0     H23338   2.030   9.068   1.423 -1.2156  0.4731 -0.3377
  173MOL0     H23339   2.088   8.822   1.043 -1.0584 -0.7767  5.5021
  173MOL0     H23340   2.050   8.626   0.905 -0.5873  0.2555  0.0192
  173MOL0     H23341   0.625   8.121   1.415 -0.5971  1.5413  1.1459
  173MOL0     H23342   0.489   8.218   1.592  0.0542  0.0905  2.2196
  173MOL0     H23343   0.386   8.107   2.167 -1.9246 -0.2149  3.3394
  173MOL0     H23344   0.265   8.273   2.316 -0.8986  0.1052  0.4631
  173MOL0     H23345   0.294   8.620   2.250 -0.6454 -0.6236  0.4427
  173MOL0     H23346   0.215   8.629   2.095  4.4629 -2.4777  0.7597
  173MOL0     H23347   0.034   8.737   2.228 -0.5307  1.1571  2.4356
  173MOL0     H23348   0.178   8.811   2.260  2.5030 -1.5808 -0.7873
  173MOL0     H23349   0.033   8.580   2.428  3.4901 -2.3459  1.9715
  173MOL0     H23350   0.023   8.760   2.446  0.0379  2.3534 -1.1410
  173MOL0     H23351   0.280   8.579   2.490  1.5270  0.6035  1.8745
  173MOL0     H23352   0.170   8.632   2.614 -0.9986  0.6023 -0.3356
  173MOL0     H23353   0.401   8.974   2.536 -0.5885  0.8221 -2.9094
  173MOL0     H23354   0.088   8.451   1.981  1.3886  0.6596  0.1156
  173MOL0     H23355   0.176   8.283   1.826 -0.0660 -0.8746  0.3210
  174MOL0     O23356   0.792   9.229   6.530  0.3669 -0.5017 -0.1515
  174MOL0     C23357   0.763   9.132   6.468  0.2156  0.7998  1.7137
  174MOL0     O23358   0.684   9.128   6.350  0.8516 -0.5339  0.4050
  174MOL0     C23359   0.618   9.242   6.319  0.2576  0.6131 -0.1461
  174MOL0     C23360   0.675   9.351   6.255  0.6398  0.0944 -0.9962
  174MOL0     C23361   0.612   9.473   6.244 -0.4439  0.4286 -0.0581
  174MOL0     C23362   0.481   9.493   6.288  1.4003  0.1091  0.3516
  174MOL0     O23363   0.425   9.620   6.289 -0.5670  0.0270 -0.2213
  174MOL0     C23364   0.294   9.635   6.361 -0.4652  0.0478  1.2795
  174MOL0     C23365   0.250   9.786   6.344 -0.4823  0.3592 -0.3816
  174MOL0     C23366   0.339   9.889   6.420 -0.2522 -0.3812  0.7635
  174MOL0     C23367   0.250  10.017   6.445 -0.4975  0.1729 -0.4966
  174MOL0     C23368   0.346  10.134   6.476 -0.1289 -0.3596  0.2124
  174MOL0     C23369   0.263  10.249   6.525  0.3855 -0.3196  0.4239
  174MOL0     C23370   0.146  10.297   6.426 -0.3870  0.0598 -0.4819
  174MOL0     C23371   0.177  10.321   6.270  0.4248  0.2805  0.2134
  174MOL0     N23372   0.079  10.403   6.197  0.3748  0.1006 -0.5036
  174MOL0     C23373   0.076  10.538   6.194 -0.4922 -0.2677 -0.4833
  174MOL0     C23374  -0.047  10.580   6.156  0.3510  0.9663  0.4664
  174MOL0     C23375  -0.086  10.730   6.133  0.0584  0.3280 -0.1295
  174MOL0     C23376  -0.038  10.767   5.988 -0.3455 -0.3656  0.2240
  174MOL0     C23377  -0.062  10.911   5.949  0.0316 -0.6374 -0.4792
  174MOL0     C23378  -0.037  10.920   5.793  0.2003  0.8129 -0.1795
  174MOL0     O23379  -0.093  11.023   5.722  0.2531 -0.1409 -0.1781
  174MOL0     C23380  -0.069  11.024   5.587 -0.5564  0.0261 -1.1432
  174MOL0     C23381   0.044  10.956   5.524  0.0530 -0.1613 -0.4852
  174MOL0     C23382   0.070  10.966   5.386  0.7890  0.0291 -0.0950
  174MOL0     C23383   0.202  10.904   5.331  0.9740  0.6400  0.2418
  174MOL0     C23384  -0.009  11.053   5.297  0.0356  0.2938 -0.5038
  174MOL0     C23385   0.009  11.081   5.154  0.4523 -0.2906  0.7666
  174MOL0     O23386  -0.104  11.102   5.090  0.3170 -0.9104 -0.3512
  174MOL0     C23387  -0.110  11.198   4.992  0.8090  0.5299  0.8813
  174MOL0     C23388  -0.211  11.295   5.006 -0.0670  0.0464 -0.1179
  174MOL0     C23389  -0.232  11.393   4.915  0.5336 -0.2471  0.2382
  174MOL0     C23390  -0.155  11.402   4.795 -0.0426  0.9244 -0.2765
  174MOL0     O23391  -0.197  11.496   4.709  0.4171 -0.4618  0.5926
  174MOL0     C23392  -0.332  11.509   4.668 -0.5087  0.0292  0.0322
  174MOL0     C23393  -0.345  11.534   4.522 -0.5630 -0.3375  0.3539
  174MOL0     C23394  -0.305  11.673   4.477  0.7229 -0.1697 -0.7689
  174MOL0     C23395  -0.385  11.726   4.360 -0.3015  0.0709 -0.2426
  174MOL0     C23396  -0.382  11.639   4.236  0.0298  0.3477  0.5386
  174MOL0     C23397  -0.449  11.703   4.114 -0.6048 -0.0371 -0.8186
  174MOL0     C23398  -0.373  11.821   4.058 -0.3802 -0.1648  0.1089
  174MOL0     C23399  -0.234  11.800   4.017 -0.2740 -0.0701  0.2659
  174MOL0    Cl23400  -0.126  11.838   4.152 -0.5554  0.5263  0.6562
  174MOL0     C23401  -0.041  11.315   4.783 -0.0176  0.0182 -1.0362
  174MOL0     C23402  -0.027  11.206   4.880  0.3948  0.0630  0.4473
  174MOL0     O23403   0.120  11.093   5.111  0.3662  0.2950 -0.1577
  174MOL0     C23404  -0.110  11.128   5.364 -0.0005 -0.7652  0.2505
  174MOL0     C23405  -0.150  11.101   5.498  0.0606  0.3955  0.2461
  174MOL0     N23406  -0.119  10.463   6.122  0.3489  0.5762 -0.1001
  174MOL0     N23407  -0.049  10.357   6.153  0.8442  0.5796 -0.4570
  174MOL0     C23408   0.423   9.373   6.351 -0.0250  0.2082 -0.4582
  174MOL0     C23409   0.483   9.249   6.355 -0.2084 -0.5527  0.2028
  174MOL0     C23410   0.814   9.001   6.532 -0.0163  0.3659  0.3201
  174MOL0     C23411   0.935   8.992   6.609 -0.0356 -0.6162  1.0501
  174MOL0     C23412   0.979   8.871   6.670 -0.2382 -0.2224  0.5868
  174MOL0     C23413   0.917   8.756   6.631  0.4407  0.0476 -0.2101
  174MOL0     O23414   0.976   8.649   6.679  0.5784 -1.0563  0.5354
  174MOL0     C23415   1.030   8.568   6.575  0.3796 -0.5722 -0.4421
  174MOL0     C23416   1.148   8.631   6.501  0.0755 -0.2973 -0.6556
  174MOL0     C23417   1.181   8.529   6.389  0.0699  0.8794  0.4629
  174MOL0     C23418   1.311   8.554   6.306 -0.9453 -0.2291 -0.3222
  174MOL0     C23419   1.285   8.683   6.240 -0.0568 -0.0132  0.0263
  174MOL0     C23420   1.232   8.787   6.184 -0.2791  0.2910  0.2912
  174MOL0     C23421   0.795   8.757   6.553 -0.5178  0.7641  1.2245
  174MOL0     C23422   0.743   8.881   6.511 -0.1238 -0.1301  0.6994
  174MOL0     H23423   0.770   9.347   6.203  0.5598 -1.2253 -1.0710
  174MOL0     H23424   0.675   9.546   6.193  0.6619  0.9444  1.9060
  174MOL0     H23425   0.215   9.575   6.313 -0.0494  0.3093  0.2316
  174MOL0     H23426   0.296   9.606   6.466  1.0400 -1.8931  0.7897
  174MOL0     H23427   0.250   9.801   6.236 -1.5013  0.1149 -0.4255
  174MOL0     H23428   0.147   9.798   6.380  0.4415  0.3399  2.5848
  174MOL0     H23429   0.387   9.844   6.508  1.5340  2.2115  1.2419
  174MOL0     H23430   0.435   9.912   6.374  0.0229 -3.8434 -0.6877
  174MOL0     H23431   0.184  10.023   6.358 -0.4235 -1.7705 -0.7176
  174MOL0     H23432   0.193   9.992   6.535  1.7323 -1.9424  0.4500
  174MOL0     H23433   0.427  10.102   6.543  0.5273  2.1015  0.6781
  174MOL0     H23434   0.396  10.177   6.390  0.4798  1.8593  1.6062
  174MOL0     H23435   0.210  10.237   6.621  0.3421 -1.8168  0.2375
  174MOL0     H23436   0.322  10.338   6.549 -1.4074  0.8788  0.6546
  174MOL0     H23437   0.061  10.228   6.428  0.7255 -1.3407  0.6387
  174MOL0     H23438   0.105  10.394   6.457  0.6566  1.0689 -2.0574
  174MOL0     H23439   0.186  10.221   6.224  1.3281 -0.2178  1.4406
  174MOL0     H23440   0.272  10.374   6.266  0.8825 -0.5015  0.3886
  174MOL0     H23441   0.151  10.605   6.234 -1.6884  0.6152  0.3549
  174MOL0     H23442  -0.193  10.737   6.156  0.3565 -1.1193  2.0984
  174MOL0     H23443  -0.049  10.796   6.211  2.6041 -2.2768  1.0421
  174MOL0     H23444  -0.087  10.693   5.924  0.5905 -0.9868  0.2020
  174MOL0     H23445   0.069  10.744   5.984  0.0276  1.3916 -0.6417
  174MOL0     H23446   0.018  10.967   5.998 -0.0235 -1.6694  0.8472
  174MOL0     H23447  -0.161  10.953   5.971  0.3887 -0.5520  1.1149
  174MOL0     H23448  -0.079  10.834   5.741  2.2456 -0.0612 -0.4886
  174MOL0     H23449   0.067  10.897   5.768  0.2927 -3.0620  2.8608
  174MOL0     H23450   0.111  10.897   5.585 -2.7837  0.3538  3.5025
  174MOL0     H23451   0.240  10.829   5.401  0.2079 -1.0626 -1.0754
  174MOL0     H23452   0.174  10.848   5.241  4.0732 -1.6736  0.5624
  174MOL0     H23453   0.281  10.967   5.288  1.1802  2.0242  2.5277
  174MOL0     H23454  -0.264  11.287   5.100  2.9104 -1.5439  1.5916
  174MOL0     H23455  -0.304  11.473   4.928 -2.6772 -3.0397  1.0731
  174MOL0     H23456  -0.379  11.414   4.695 -2.4306  0.7229 -0.6951
  174MOL0     H23457  -0.368  11.588   4.734  1.6568 -0.2737  1.6626
  174MOL0     H23458  -0.269  11.475   4.469 -0.9612 -1.3864  0.9354
  174MOL0     H23459  -0.442  11.520   4.473 -0.3128  2.9606 -1.3708
  174MOL0     H23460  -0.205  11.658   4.435  2.2281 -1.2344  2.7333
  174MOL0     H23461  -0.306  11.746   4.559 -0.5163  0.5241 -1.3738
  174MOL0     H23462  -0.490  11.744   4.388  0.0481  1.5684  0.1638
  174MOL0     H23463  -0.358  11.829   4.338 -0.9349  0.4755  0.8218
  174MOL0     H23464  -0.443  11.554   4.268  1.4484 -0.8552  0.1420
  174MOL0     H23465  -0.280  11.605   4.216 -0.9038 -4.5189  2.5535
  174MOL0     H23466  -0.457  11.623   4.039 -1.0552 -0.1648 -0.6379
  174MOL0     H23467  -0.548  11.725   4.155  0.0705 -0.0987  0.9453
  174MOL0     H23468  -0.382  11.911   4.119  2.4126  0.7563 -0.6696
  174MOL0     H23469  -0.437  11.846   3.973 -1.0494 -1.1119  0.3111
  174MOL0     H23470  -0.204  11.875   3.942  3.7607  0.1008  1.8023
  174MOL0     H23471  -0.221  11.698   3.981 -1.6359  0.6815 -2.7189
  174MOL0     H23472   0.037  11.336   4.710  2.0859  1.5266  1.4763
  174MOL0     H23473   0.042  11.123   4.877  0.8559  0.4636 -1.8158
  174MOL0     H23474  -0.176  11.203   5.320 -1.1024  1.3567  4.9216
  174MOL0     H23475  -0.245  11.148   5.522 -0.1363  1.1039 -1.8090
  174MOL0     H23476   0.335   9.378   6.414 -0.3327  2.0921 -0.9703
  174MOL0     H23477   0.430   9.161   6.390  1.1632 -1.0495  1.1352
  174MOL0     H23478   0.997   9.081   6.618 -1.9345  1.0308 -0.9581
  174MOL0     H23479   1.064   8.862   6.736 -1.1683 -0.6622  1.7768
  174MOL0     H23480   1.065   8.481   6.633 -1.2522 -1.1376 -0.2594
  174MOL0     H23481   0.953   8.531   6.508  0.5980 -0.0391 -0.9931
  174MOL0     H23482   1.228   8.644   6.575 -0.2773  4.7144 -0.7980
  174MOL0     H23483   1.128   8.727   6.452  2.5074 -0.2681 -1.7456
  174MOL0     H23484   1.105   8.537   6.311  0.0926 -0.7016  0.2272
  174MOL0     H23485   1.171   8.424   6.420 -0.1067  0.6359 -0.3743
  174MOL0     H23486   1.321   8.471   6.236  0.4347  1.1586 -1.8672
  174MOL0     H23487   1.397   8.560   6.374 -1.1387 -4.0401  0.4886
  174MOL0     H23488   1.183   8.854   6.115 -1.4384 -1.0217 -0.2088
  174MOL0     H23489   0.741   8.669   6.519  0.9258 -0.4906  2.0040
  174MOL0     H23490   0.655   8.896   6.448 -0.3162 -2.0451  0.4360
  175MOL0     O23491   3.199   1.134   8.068  0.0215  0.4641  0.3594
  175MOL0     C23492   3.287   1.215   8.036 -0.0666 -0.4815  0.0783
  175MOL0     O23493   3.293   1.354   8.053  0.0593 -0.9048  0.0000
  175MOL0     C23494   3.226   1.404   8.171  0.9916  0.0636  0.6510
  175MOL0     C23495   3.199   1.335   8.295 -0.1457 -0.2515 -0.4225
  175MOL0     C23496   3.155   1.401   8.409 -1.1295  0.0796 -0.2794
  175MOL0     C23497   3.123   1.541   8.403 -0.4666 -0.1907  0.0162
  175MOL0     O23498   3.068   1.612   8.508  0.3354  0.4966  0.1561
  175MOL0     C23499   3.120   1.575   8.638 -0.1882 -0.1789  0.0070
  175MOL0     C23500   3.086   1.696   8.739  0.7075  0.7770 -0.0464
  175MOL0     C23501   2.933   1.729   8.741 -1.5551 -0.3193 -0.2812
  175MOL0     C23502   2.890   1.821   8.859 -0.2205  0.1559 -0.8316
  175MOL0     C23503   2.741   1.843   8.856  0.5234  0.4146  0.0023
  175MOL0     C23504   2.710   1.984   8.913  0.7283  0.1132 -0.2158
  175MOL0     C23505   2.721   2.086   8.800 -0.4575 -0.2599  0.3565
  175MOL0     C23506   2.621   2.204   8.811  0.6102  0.2102  0.2220
  175MOL0     N23507   2.476   2.179   8.804 -0.7743 -0.3621 -0.6237
  175MOL0     C23508   2.419   2.111   8.713  0.2340  0.6060  0.8429
  175MOL0     C23509   2.302   2.063   8.763  0.0701  1.1170  1.1081
  175MOL0     C23510   2.203   1.978   8.682  0.0890  1.0913 -0.4939
  175MOL0     C23511   2.111   2.062   8.588  0.0703  0.0432  0.2338
  175MOL0     C23512   2.190   2.127   8.469 -0.7116 -0.6746 -0.0453
  175MOL0     C23513   2.243   2.034   8.362 -0.2864  0.2284 -0.2744
  175MOL0     O23514   2.355   1.960   8.412  0.2269  0.1942 -0.1094
  175MOL0     C23515   2.453   1.895   8.340  0.6956 -0.0810  0.1493
  175MOL0     C23516   2.544   1.818   8.407 -0.0776  1.7352  0.6542
  175MOL0     C23517   2.642   1.751   8.346  0.8087 -0.1503  0.3508
  175MOL0     C23518   2.731   1.652   8.413 -0.0855 -0.3356 -0.0002
  175MOL0     C23519   2.662   1.771   8.204  0.0400 -0.8627  0.3886
  175MOL0     C23520   2.767   1.710   8.135 -0.2453 -0.0041  0.6340
  175MOL0     O23521   2.747   1.578   8.092 -0.0490  0.3488  0.2245
  175MOL0     C23522   2.826   1.519   7.988  0.8655 -0.2441  0.2775
  175MOL0     C23523   2.916   1.420   7.997 -1.0387 -0.0852  0.0040
  175MOL0     C23524   2.987   1.348   7.893  0.4169  0.5024  0.9807
  175MOL0     C23525   2.948   1.392   7.761 -0.2716  0.3812 -0.0892
  175MOL0     O23526   2.986   1.325   7.646 -0.1496  0.3358  0.3509
  175MOL0     C23527   3.082   1.218   7.650 -0.0590 -0.3614  0.7899
  175MOL0     C23528   3.096   1.159   7.517 -1.2930  0.2232  0.2639
  175MOL0     C23529   3.225   1.072   7.520 -0.8919  0.1787 -0.5484
  175MOL0     C23530   3.238   1.007   7.388  0.0417  0.3667  0.0224
  175MOL0     C23531   3.359   0.910   7.373  0.5918  0.0683  1.2659
  175MOL0     C23532   3.337   0.773   7.456  0.2186  1.4585  0.5879
  175MOL0     C23533   3.460   0.675   7.458 -0.9843  1.3467  0.0440
  175MOL0     C23534   3.434   0.566   7.568  0.7624  0.4762  0.1732
  175MOL0    Cl23535   3.585   0.465   7.584 -0.2567 -0.1806 -0.5496
  175MOL0     C23536   2.857   1.500   7.752 -1.1715 -0.5222 -0.5861
  175MOL0     C23537   2.796   1.567   7.867 -0.3750 -0.1627  0.3984
  175MOL0     O23538   2.876   1.771   8.125  0.8991  0.8611 -0.2006
  175MOL0     C23539   2.572   1.854   8.134 -0.9663 -0.2456  0.1282
  175MOL0     C23540   2.471   1.912   8.202  1.1760 -0.0717  0.0938
  175MOL0     N23541   2.290   2.091   8.894  0.1089  0.9975 -0.6832
  175MOL0     N23542   2.395   2.170   8.917  0.1838 -0.1409 -0.0686
  175MOL0     C23543   3.155   1.613   8.287  0.3691  0.1769 -0.3630
  175MOL0     C23544   3.212   1.546   8.173 -0.5953  0.1432 -0.4914
  175MOL0     C23545   3.372   1.162   7.929 -0.3029 -0.8505 -0.1648
  175MOL0     C23546   3.377   1.025   7.899  0.6762 -0.2524  0.4908
  175MOL0     C23547   3.466   0.980   7.798 -0.1948 -1.7670  0.1356
  175MOL0     C23548   3.550   1.069   7.736 -0.1234  0.5271  0.2513
  175MOL0     O23549   3.627   1.017   7.643 -0.3857  0.1003  0.0985
  175MOL0     C23550   3.677   1.109   7.547  0.0308  0.3725  0.1546
  175MOL0     C23551   3.804   1.179   7.593 -0.0638  0.1569  0.9393
  175MOL0     C23552   3.929   1.129   7.511 -0.4351 -0.3517 -0.2247
  175MOL0     C23553   4.041   1.241   7.512  0.3329  0.1417  0.3539
  175MOL0     C23554   4.159   1.193   7.432 -0.4131 -0.5290  0.2306
  175MOL0     C23555   4.246   1.172   7.357  0.4056 -0.8467  0.3505
  175MOL0     C23556   3.549   1.205   7.771 -0.1310  0.2181 -0.5621
  175MOL0     C23557   3.453   1.253   7.856  0.6179 -0.0010 -0.6865
  175MOL0     H23558   3.224   1.229   8.295 -2.0788 -0.7479 -0.6909
  175MOL0     H23559   3.129   1.341   8.496  0.6810 -0.7301 -0.2535
  175MOL0     H23560   3.069   1.488   8.681  0.8407 -0.3999  0.8395
  175MOL0     H23561   3.227   1.553   8.647  0.0320  1.4329  2.1695
  175MOL0     H23562   3.101   1.651   8.837 -0.6534 -1.8168 -0.9361
  175MOL0     H23563   3.143   1.786   8.713  2.2954 -0.6715 -1.9039
  175MOL0     H23564   2.916   1.770   8.641 -0.4074 -0.8161 -0.7047
  175MOL0     H23565   2.881   1.634   8.756  1.2575 -2.1423 -1.2336
  175MOL0     H23566   2.923   1.769   8.949  0.1817 -1.5972 -1.9364
  175MOL0     H23567   2.940   1.917   8.848 -3.4722  1.7299 -3.9466
  175MOL0     H23568   2.706   1.825   8.754  2.2656 -1.5624 -0.3287
  175MOL0     H23569   2.687   1.767   8.913  0.6026  0.8282  0.6418
  175MOL0     H23570   2.610   1.982   8.957 -0.3560  1.3177 -2.4975
  175MOL0     H23571   2.773   2.007   9.000  2.4939  1.3175 -1.7505
  175MOL0     H23572   2.825   2.120   8.797 -0.5659  0.1356  0.8363
  175MOL0     H23573   2.704   2.036   8.704  1.9661  1.3986 -1.0681
  175MOL0     H23574   2.657   2.269   8.732 -0.5321  0.0774 -0.4373
  175MOL0     H23575   2.625   2.266   8.901 -4.7455  3.0208 -1.0249
  175MOL0     H23576   2.456   2.112   8.611 -1.4815 -0.0261  0.1790
  175MOL0     H23577   2.262   1.910   8.620  2.3109  3.8083 -1.5928
  175MOL0     H23578   2.142   1.915   8.747 -0.6054  1.7227 -0.5280
  175MOL0     H23579   2.059   2.139   8.645 -3.7222 -2.8228  1.0371
  175MOL0     H23580   2.029   2.008   8.538  0.9639  0.5434 -1.8712
  175MOL0     H23581   2.282   2.175   8.501 -0.1115 -0.3348 -2.1006
  175MOL0     H23582   2.125   2.204   8.425 -2.4516 -0.9033  1.9803
  175MOL0     H23583   2.266   2.087   8.268 -1.6750 -1.3181 -1.5514
  175MOL0     H23584   2.163   1.974   8.318 -1.4563  1.2496  0.4320
  175MOL0     H23585   2.525   1.792   8.511 -2.9155 -2.6683 -0.6684
  175MOL0     H23586   2.710   1.553   8.373  2.2096 -0.3712 -1.3109
  175MOL0     H23587   2.839   1.668   8.405 -0.4072  1.7478 -0.7850
  175MOL0     H23588   2.708   1.653   8.520  1.3053 -2.3697  0.3686
  175MOL0     H23589   2.923   1.382   8.099  0.8564 -1.6382 -0.6311
  175MOL0     H23590   3.065   1.275   7.912  0.1852  0.7603  3.0852
  175MOL0     H23591   3.178   1.255   7.686  0.7271 -3.3155  2.0624
  175MOL0     H23592   3.023   1.151   7.714 -2.7526 -0.2609 -1.3918
  175MOL0     H23593   3.008   1.102   7.487 -0.2834 -0.6352 -1.1975
  175MOL0     H23594   3.106   1.242   7.445 -0.9191 -0.1877 -0.1679
  175MOL0     H23595   3.205   0.986   7.585  0.7268  0.4240  0.3114
  175MOL0     H23596   3.315   1.123   7.555  1.1111 -2.9904 -0.6727
  175MOL0     H23597   3.145   0.954   7.368 -1.2445  2.8566 -1.0266
  175MOL0     H23598   3.244   1.088   7.315  0.5117  0.3805  0.0687
  175MOL0     H23599   3.450   0.951   7.418  2.7404  1.0586 -3.3638
  175MOL0     H23600   3.387   0.876   7.273  0.7395 -0.1617  1.3864
  175MOL0     H23601   3.320   0.807   7.559 -1.2291  2.4114  0.0693
  175MOL0     H23602   3.249   0.732   7.405  2.3438 -0.5659 -1.7374
  175MOL0     H23603   3.550   0.731   7.486 -0.3054  0.1680  0.2720
  175MOL0     H23604   3.479   0.608   7.374  0.7120  2.2128 -0.3143
  175MOL0     H23605   3.342   0.511   7.546  1.5420  0.1603 -2.6673
  175MOL0     H23606   3.426   0.620   7.663  5.1588 -0.3414  1.2231
  175MOL0     H23607   2.828   1.533   7.652  2.1695 -0.6118 -1.6932
  175MOL0     H23608   2.723   1.647   7.855 -0.9756 -0.1878  3.1651
  175MOL0     H23609   2.582   1.878   8.029  1.9018  0.4035  0.4740
  175MOL0     H23610   2.390   1.965   8.152 -0.2115 -1.5033  0.7407
  175MOL0     H23611   3.139   1.719   8.269 -0.9142 -0.4060 -3.2864
  175MOL0     H23612   3.234   1.588   8.075 -0.8395 -2.0792 -1.5472
  175MOL0     H23613   3.308   0.954   7.943 -0.3728  0.3518 -0.1285
  175MOL0     H23614   3.475   0.874   7.777 -3.6613 -2.5521  1.8832
  175MOL0     H23615   3.698   1.050   7.458  0.8970 -0.2549  0.7667
  175MOL0     H23616   3.610   1.184   7.504  0.5691  1.3028  0.9133
  175MOL0     H23617   3.822   1.171   7.701  0.3114 -0.2700  0.8521
  175MOL0     H23618   3.789   1.285   7.572  0.4409 -0.2144 -1.5792
  175MOL0     H23619   3.905   1.093   7.411 -2.5880  0.8318 -0.1843
  175MOL0     H23620   3.969   1.046   7.571 -0.6516 -0.0448  0.3467
  175MOL0     H23621   4.067   1.272   7.614 -1.9220 -1.4908  1.5221
  175MOL0     H23622   4.005   1.335   7.469 -1.0820  1.0932  3.2892
  175MOL0     H23623   4.333   1.158   7.297  0.9637  2.5194  0.2265
  175MOL0     H23624   3.612   1.271   7.711  1.5995 -1.5606 -0.7802
  175MOL0     H23625   3.447   1.361   7.857  1.2443  0.0389 -0.9707
  176MOL0     O23626   9.411  10.684   4.275  0.8066  0.2259 -0.4065
  176MOL0     C23627   9.294  10.673   4.310  1.0818  0.2326 -0.1990
  176MOL0     O23628   9.185  10.731   4.238  0.1888  0.4394  0.7240
  176MOL0     C23629   9.217  10.800   4.124  0.2657 -0.0087  0.6272
  176MOL0     C23630   9.242  10.732   4.000  0.5288  0.5517  0.0304
  176MOL0     C23631   9.238  10.802   3.879  0.4658 -0.5541  0.2986
  176MOL0     C23632   9.243  10.941   3.869  0.4332 -0.2611  1.3514
  176MOL0     O23633   9.253  11.009   3.745  0.9702  0.3956  0.7188
  176MOL0     C23634   9.257  11.154   3.735 -0.6867  0.0355  0.3257
  176MOL0     C23635   9.386  11.213   3.787  0.8731  0.9538 -0.6929
  176MOL0     C23636   9.511  11.125   3.759  0.1484 -0.0171  0.6959
  176MOL0     C23637   9.635  11.200   3.807  0.0900 -0.4891  0.1239
  176MOL0     C23638   9.763  11.137   3.749  0.0462 -0.4793 -0.0614
  176MOL0     C23639   9.812  11.017   3.814 -0.6147  0.4913 -0.4110
  176MOL0     C23640   9.884  11.046   3.944  0.0810 -0.4620  0.3726
  176MOL0     C23641  10.000  10.945   3.972 -0.1944  0.5012 -0.8318
  176MOL0     N23642  10.063  10.952   4.104  0.1759 -0.5322  0.4502
  176MOL0     C23643   9.993  10.996   4.219  0.0073 -1.3296 -0.3476
  176MOL0     C23644  10.101  11.001   4.310  0.5204 -0.0539  0.1113
  176MOL0     C23645  10.070  11.062   4.448 -0.0128  0.2497  0.2802
  176MOL0     C23646  10.066  10.952   4.552  0.4242 -0.5297  0.2447
  176MOL0     C23647  10.199  10.956   4.634 -0.5344 -0.6142  0.1116
  176MOL0     C23648  10.202  10.844   4.740 -0.7168 -0.1933 -0.4801
  176MOL0     O23649  10.143  10.899   4.852 -0.1080 -0.0281  0.3612
  176MOL0     C23650  10.136  10.819   4.958  0.4412 -1.1547  0.2272
  176MOL0     C23651  10.056  10.865   5.059 -0.3232  0.0952 -1.1350
  176MOL0     C23652  10.020  10.776   5.165  0.4320  0.3543  0.1605
  176MOL0     C23653   9.912  10.825   5.261 -1.0446 -0.3504  0.0747
  176MOL0     C23654  10.073  10.643   5.176 -0.6242  0.2282  0.8853
  176MOL0     C23655  10.040  10.537   5.281  0.8912 -0.3812 -0.4006
  176MOL0     O23656  10.005  10.573   5.401  0.6012  0.2537 -0.3428
  176MOL0     C23657  10.001  10.479   5.492  0.3588  0.4364 -0.2865
  176MOL0     C23658  10.111  10.408   5.531 -1.3526  0.1436 -0.3109
  176MOL0     C23659  10.110  10.317   5.637 -0.1746  0.4066 -0.1039
  176MOL0     C23660   9.993  10.290   5.712 -0.2825  1.1124  0.0039
  176MOL0     O23661  10.002  10.186   5.808  0.1634 -0.5943 -0.2744
  176MOL0     C23662  10.072  10.071   5.764  0.1862  0.3330 -0.0703
  176MOL0     C23663  10.008   9.949   5.838  0.4907 -0.9577 -0.2663
  176MOL0     C23664  10.010   9.967   5.993 -0.3000  0.8335 -0.1614
  176MOL0     C23665   9.948   9.843   6.077  0.4130 -1.1722  0.6050
  176MOL0     C23666   9.979   9.859   6.218  0.7794  0.5602 -0.2431
  176MOL0     C23667   9.931   9.994   6.270 -0.6031  0.4422 -0.3309
  176MOL0     C23668   9.786  10.034   6.255 -0.2348  0.7254 -0.4154
  176MOL0     C23669   9.752  10.145   6.355  0.7013 -0.4912 -1.2879
  176MOL0    Cl23670   9.586  10.114   6.390  0.5666  0.2595 -0.0698
  176MOL0     C23671   9.879  10.362   5.663 -0.0079 -0.1150  0.2172
  176MOL0     C23672   9.884  10.467   5.566 -0.4798  0.2030  0.0415
  176MOL0     O23673  10.056  10.426   5.241  0.1870  0.7679  0.8899
  176MOL0     C23674  10.176  10.605   5.077  0.1788  0.5400  0.2889
  176MOL0     C23675  10.198  10.691   4.970 -0.5213 -0.3013 -0.3399
  176MOL0     N23676  10.217  10.941   4.262 -0.3021  0.0684  1.5545
  176MOL0     N23677  10.190  10.913   4.136  0.4866  0.0656 -0.3468
  176MOL0     C23678   9.226  11.008   3.994 -0.1737 -0.4058 -0.1177
  176MOL0     C23679   9.209  10.938   4.116  0.0166 -1.0295 -0.2456
  176MOL0     C23680   9.262  10.592   4.433  0.3895  0.1466 -1.5351
  176MOL0     C23681   9.134  10.591   4.491  0.5489  0.3875  0.4369
  176MOL0     C23682   9.105  10.499   4.596 -0.3796  0.8511 -0.5098
  176MOL0     C23683   9.205  10.406   4.637 -1.0240  0.5149  0.4926
  176MOL0     O23684   9.188  10.312   4.735  0.1160  0.5588 -0.1174
  176MOL0     C23685   9.090  10.322   4.842  0.5845 -0.2260  0.4257
  176MOL0     C23686   9.150  10.395   4.949  0.0549 -0.4756 -0.7478
  176MOL0     C23687   9.276  10.324   5.016  0.3257 -0.3536 -0.1854
  176MOL0     C23688   9.411  10.362   4.958  0.1212 -0.3284 -0.4348
  176MOL0     C23689   9.515  10.341   5.060  0.7417  0.1089  0.9347
  176MOL0     C23690   9.596  10.282   5.136  0.7236 -0.3943  0.7279
  176MOL0     C23691   9.331  10.405   4.579  0.6249 -0.5118  0.5660
  176MOL0     C23692   9.363  10.499   4.484 -0.4379  0.9672 -0.3996
  176MOL0     H23693   9.245  10.624   4.002 -3.5074  0.2971  1.6169
  176MOL0     H23694   9.247  10.751   3.783 -3.6867 -0.9619 -0.0634
  176MOL0     H23695   9.252  11.175   3.628  0.9978  0.1040  0.2391
  176MOL0     H23696   9.169  11.207   3.773 -0.5128  1.0453 -0.6298
  176MOL0     H23697   9.405  11.309   3.738  1.1524  0.8131 -0.8578
  176MOL0     H23698   9.374  11.239   3.893 -0.1736 -1.2463 -0.2060
  176MOL0     H23699   9.504  11.028   3.810 -1.6800 -0.9163 -1.1112
  176MOL0     H23700   9.519  11.101   3.653  3.1930 -0.7137  0.9929
  176MOL0     H23701   9.632  11.304   3.772 -1.6224 -0.1473  1.1472
  176MOL0     H23702   9.650  11.208   3.916  0.2777 -1.1871  0.1550
  176MOL0     H23703   9.755  11.127   3.641 -2.3719  4.1600 -0.5315
  176MOL0     H23704   9.844  11.207   3.767 -0.3636  0.2484 -1.0060
  176MOL0     H23705   9.736  10.942   3.835 -0.2301  0.0883 -0.4417
  176MOL0     H23706   9.885  10.967   3.749 -1.5818 -1.6791  0.0759
  176MOL0     H23707   9.920  11.149   3.938 -1.0888  0.2168  3.4831
  176MOL0     H23708   9.809  11.042   4.023 -1.1044 -1.1932 -0.7270
  176MOL0     H23709  10.073  10.959   3.892  1.4774 -0.8374  0.3602
  176MOL0     H23710   9.966  10.841   3.968 -1.2940  0.8112  0.0396
  176MOL0     H23711   9.893  11.033   4.239  0.1450 -1.9653  1.8082
  176MOL0     H23712  10.156  11.128   4.461  0.6014 -0.0120 -2.0435
  176MOL0     H23713   9.965  11.094   4.444 -0.4521 -1.2810 -1.0456
  176MOL0     H23714  10.053  10.856   4.501  0.3573  0.1827 -1.1288
  176MOL0     H23715   9.973  10.960   4.611 -1.7105 -1.4787 -2.7518
  176MOL0     H23716  10.214  11.044   4.697  2.9915 -1.9653  1.4121
  176MOL0     H23717  10.284  10.962   4.566  0.4800  0.0730  1.3721
  176MOL0     H23718  10.298  10.793   4.754  0.4191  1.8008 -0.5823
  176MOL0     H23719  10.135  10.760   4.719  0.5900 -1.7413  1.1195
  176MOL0     H23720  10.002  10.958   5.044  1.6923  1.4384 -0.4695
  176MOL0     H23721   9.954  10.810   5.361 -0.7847  0.5057  0.1014
  176MOL0     H23722   9.875  10.928   5.254 -2.2073 -0.4536  3.1603
  176MOL0     H23723   9.825  10.759   5.256 -1.0812 -0.2668 -0.4839
  176MOL0     H23724  10.200  10.417   5.469 -1.1472  0.0409 -0.0381
  176MOL0     H23725  10.194  10.254   5.662 -0.2609 -0.8447 -2.7147
  176MOL0     H23726  10.063  10.048   5.658  2.3447 -0.3660 -0.1454
  176MOL0     H23727  10.180  10.076   5.785  0.4428  1.0576 -1.4352
  176MOL0     H23728   9.906   9.947   5.800  0.5934 -0.5881 -0.5631
  176MOL0     H23729  10.066   9.859   5.812  1.3672 -0.3884 -0.3244
  176MOL0     H23730   9.970  10.067   6.016 -0.4364  0.6066  0.6167
  176MOL0     H23731  10.116   9.954   6.015 -0.2547  0.3555 -0.6695
  176MOL0     H23732   9.841   9.838   6.054  1.1224 -1.5095 -3.3363
  176MOL0     H23733   9.982   9.746   6.039 -1.2618 -1.5847  0.0700
  176MOL0     H23734  10.087   9.852   6.232  0.3760  1.1994  5.3815
  176MOL0     H23735   9.937   9.775   6.273  1.4393  0.7053  0.4883
  176MOL0     H23736   9.942   9.984   6.378 -3.3526 -1.9199 -0.1569
  176MOL0     H23737   9.992  10.074   6.227 -0.3929  0.1888 -0.4986
  176MOL0     H23738   9.729   9.941   6.270  0.8608 -0.1764 -1.5925
  176MOL0     H23739   9.773  10.072   6.154 -0.8840 -0.2131 -0.7000
  176MOL0     H23740   9.765  10.241   6.303 -0.9369  1.0230  0.9106
  176MOL0     H23741   9.806  10.148   6.450  0.3100  0.6106 -1.0878
  176MOL0     H23742   9.781  10.351   5.708 -0.5743 -0.5977 -1.0720
  176MOL0     H23743   9.796  10.516   5.526 -1.3787 -0.2283  1.3992
  176MOL0     H23744  10.228  10.510   5.082 -0.7273 -0.0126 -0.6074
  176MOL0     H23745  10.262  10.647   4.894  1.0104  1.2369  0.0064
  176MOL0     H23746   9.240  11.114   4.012 -1.8497 -0.1124 -0.4223
  176MOL0     H23747   9.179  10.985   4.209 -1.2015 -2.0811 -0.0891
  176MOL0     H23748   9.064  10.666   4.456  1.1379  1.6467  1.8338
  176MOL0     H23749   9.007  10.511   4.641 -0.3018  1.0088 -0.3827
  176MOL0     H23750   8.999  10.373   4.808 -0.3778 -1.9704  0.2830
  176MOL0     H23751   9.060  10.224   4.881  2.5900 -0.0237  2.7636
  176MOL0     H23752   9.070  10.403   5.024  1.5382 -1.6260  1.0516
  176MOL0     H23753   9.162  10.500   4.920  2.1157  0.2132  2.0929
  176MOL0     H23754   9.256  10.216   5.012 -1.0191 -0.1028 -1.7834
  176MOL0     H23755   9.267  10.364   5.117 -1.7378  0.2269 -0.5492
  176MOL0     H23756   9.408  10.469   4.933 -0.7931 -0.0829  0.6589
  176MOL0     H23757   9.432  10.307   4.866 -0.9683 -2.0907  0.3223
  176MOL0     H23758   9.665  10.232   5.200  1.8307 -0.2550 -0.3189
  176MOL0     H23759   9.416  10.345   4.611  0.1030 -0.7780  1.4796
  176MOL0     H23760   9.461  10.486   4.439  1.4303  0.1138  3.4513
  177MOL0     O23761   7.645   7.884   1.988 -0.6588  0.1458 -0.7676
  177MOL0     C23762   7.680   8.000   1.955  0.0591 -0.7845  0.0366
  177MOL0     O23763   7.768   8.073   2.030 -0.7764 -0.0844  0.7283
  177MOL0     C23764   7.799   8.009   2.145  0.2358  0.3115  0.3801
  177MOL0     C23765   7.886   7.903   2.143 -0.0582 -0.9644  0.9263
  177MOL0     C23766   7.912   7.823   2.258  0.3610 -1.1418  0.2294
  177MOL0     C23767   7.870   7.871   2.384  0.5209  1.3476  0.1237
  177MOL0     O23768   7.894   7.807   2.498 -0.4819 -0.5215 -0.7557
  177MOL0     C23769   8.028   7.804   2.546 -0.3925 -0.8610 -0.4458
  177MOL0     C23770   8.043   7.944   2.602 -1.1592 -0.9086 -0.4993
  177MOL0     C23771   8.182   7.952   2.666 -0.0688  0.5814  0.9296
  177MOL0     C23772   8.267   8.077   2.651 -0.4283 -1.0680  0.3825
  177MOL0     C23773   8.377   8.096   2.755 -0.5775 -1.0473  0.0557
  177MOL0     C23774   8.503   8.005   2.739  0.3050 -0.1748 -0.5723
  177MOL0     C23775   8.614   8.040   2.838 -0.9873 -0.3200 -0.0298
  177MOL0     C23776   8.723   7.931   2.835  0.7345  0.7376  0.3776
  177MOL0     N23777   8.858   7.987   2.844 -1.1317  0.0693  0.0351
  177MOL0     C23778   8.925   8.024   2.960  0.1711  0.7661 -0.0062
  177MOL0     C23779   9.036   8.073   2.919 -1.3965 -0.3307 -0.2771
  177MOL0     C23780   9.150   8.122   3.007  0.4451 -0.0252 -0.5365
  177MOL0     C23781   9.248   8.223   2.942 -0.3082 -1.0342 -0.6955
  177MOL0     C23782   9.188   8.361   2.944 -0.1182 -0.1693  1.4587
  177MOL0     C23783   9.298   8.475   2.946  0.2531 -0.2654 -0.9407
  177MOL0     O23784   9.238   8.596   2.894 -0.6114 -0.2151  0.2586
  177MOL0     C23785   9.316   8.708   2.896 -0.4284 -0.2904 -0.1269
  177MOL0     C23786   9.449   8.721   2.944  0.0590  0.2300  0.0850
  177MOL0     C23787   9.531   8.836   2.933  0.4659 -0.0409  0.2878
  177MOL0     C23788   9.675   8.824   2.984 -0.0681 -0.1402 -0.7056
  177MOL0     C23789   9.470   8.950   2.887  0.0755  0.3943 -0.0344
  177MOL0     C23790   9.530   9.085   2.884  0.2976  0.0142 -0.2634
  177MOL0     O23791   9.666   9.104   2.927  0.0107 -0.7416  0.5156
  177MOL0     C23792   9.711   9.235   2.943  1.4150 -0.8178 -0.0998
  177MOL0     C23793   9.732   9.274   3.081  0.6648  0.2239  0.4064
  177MOL0     C23794   9.779   9.403   3.109 -0.1304 -0.3861 -0.1107
  177MOL0     C23795   9.794   9.501   3.006  0.1401 -0.0020  0.1783
  177MOL0     O23796   9.850   9.626   3.026 -0.4284 -0.1404 -0.3931
  177MOL0     C23797   9.803   9.734   2.956 -0.7122  0.2183  0.1114
  177MOL0     C23798   9.652   9.739   2.917 -0.9872 -1.1467 -0.3806
  177MOL0     C23799   9.612   9.888   2.887  0.1026 -0.7302  0.5884
  177MOL0     C23800   9.470   9.897   2.841  0.8436 -0.3791  0.1885
  177MOL0     C23801   9.448  10.044   2.784 -0.2466 -0.4802 -0.1801
  177MOL0     C23802   9.312  10.059   2.710  0.8709  0.2705  0.0460
  177MOL0     C23803   9.308   9.978   2.574  0.1325  0.4458 -0.1357
  177MOL0     C23804   9.169   9.895   2.575 -0.7627 -1.0582 -0.3668
  177MOL0    Cl23805   9.087   9.887   2.414  0.1440 -0.8323 -0.4649
  177MOL0     C23806   9.762   9.460   2.880  0.0389  0.2079  0.4047
  177MOL0     C23807   9.735   9.327   2.846  0.0558 -0.2368  0.0284
  177MOL0     O23808   9.449   9.182   2.861 -0.2499  1.2657  0.8320
  177MOL0     C23809   9.333   8.939   2.843 -0.1792 -0.4734  0.3453
  177MOL0     C23810   9.255   8.825   2.847  0.2145  0.1121 -1.0134
  177MOL0     N23811   9.044   8.068   2.782  0.3061  0.0771 -0.2690
  177MOL0     N23812   8.942   8.007   2.737  0.5129 -0.1542  0.6921
  177MOL0     C23813   7.776   7.979   2.388 -1.1009  0.3319  0.5075
  177MOL0     C23814   7.736   8.038   2.269  0.6537 -0.1397 -0.1219
  177MOL0     C23815   7.640   8.064   1.832  0.7127 -0.2529 -0.5572
  177MOL0     C23816   7.654   8.201   1.813 -0.4316  0.5982 -0.4946
  177MOL0     C23817   7.620   8.259   1.697  0.1126  0.1053  0.1491
  177MOL0     C23818   7.576   8.179   1.582  0.5340 -0.7932 -0.8861
  177MOL0     O23819   7.539   8.253   1.471  0.2439  0.5053  0.7991
  177MOL0     C23820   7.629   8.335   1.403 -0.6720 -0.5036  0.3278
  177MOL0     C23821   7.587   8.351   1.256  0.1009 -0.2823  0.2259
  177MOL0     C23822   7.489   8.471   1.241  0.0512  0.3706  0.7160
  177MOL0     C23823   7.482   8.507   1.092  0.5916  0.5685 -0.5179
  177MOL0     C23824   7.435   8.387   1.010 -1.0940 -1.1335 -0.3091
  177MOL0     C23825   7.404   8.298   0.937 -0.1465 -0.1930 -0.1987
  177MOL0     C23826   7.546   8.050   1.605  0.0306  0.5400  0.4545
  177MOL0     C23827   7.589   7.993   1.723  0.1188 -0.6055  0.0845
  177MOL0     H23828   7.917   7.849   2.053  1.9607 -1.7572  2.0160
  177MOL0     H23829   7.972   7.733   2.262 -0.3450 -1.5711  2.5428
  177MOL0     H23830   8.057   7.735   2.626  2.3761  2.7016  1.9363
  177MOL0     H23831   8.101   7.791   2.465 -0.1849  1.7931 -0.7895
  177MOL0     H23832   8.037   8.013   2.518  0.1690 -3.3057 -2.7408
  177MOL0     H23833   7.975   7.961   2.685 -1.9760 -1.9686 -0.9300
  177MOL0     H23834   8.156   7.949   2.772  0.6737 -0.8840  1.0917
  177MOL0     H23835   8.238   7.864   2.634  0.7422  1.7875 -1.1711
  177MOL0     H23836   8.311   8.093   2.552 -2.7962  3.1097 -0.2309
  177MOL0     H23837   8.197   8.161   2.648 -0.3585 -0.8496  2.9999
  177MOL0     H23838   8.408   8.199   2.735  0.6141 -1.2837  0.6048
  177MOL0     H23839   8.344   8.091   2.859 -0.2184 -0.2869  0.2176
  177MOL0     H23840   8.482   7.898   2.744  1.1196 -0.2980  0.9813
  177MOL0     H23841   8.541   8.028   2.639  1.6024 -3.0063 -0.8398
  177MOL0     H23842   8.669   8.130   2.809  1.7565 -1.9551 -0.2248
  177MOL0     H23843   8.587   8.065   2.941 -0.5313  2.0886 -0.4353
  177MOL0     H23844   8.738   7.892   2.734  4.2285  0.5864  0.8222
  177MOL0     H23845   8.707   7.860   2.917  0.8127 -0.8569 -0.9363
  177MOL0     H23846   8.888   8.011   3.061 -3.6797 -0.2068 -1.3785
  177MOL0     H23847   9.102   8.166   3.095 -4.8002 -3.9979 -0.9408
  177MOL0     H23848   9.206   8.037   3.047  1.0524  2.3149  4.5086
  177MOL0     H23849   9.293   8.197   2.846  0.4843 -1.9584 -0.0978
  177MOL0     H23850   9.325   8.213   3.019  0.8226 -1.3056 -1.8387
  177MOL0     H23851   9.124   8.372   3.032 -1.8977  0.5768  0.1386
  177MOL0     H23852   9.129   8.374   2.853  1.4231  1.2363  0.5916
  177MOL0     H23853   9.389   8.445   2.893 -0.6827 -2.5045 -1.3623
  177MOL0     H23854   9.331   8.490   3.049 -2.0845 -0.6684 -0.0729
  177MOL0     H23855   9.498   8.637   2.993 -0.4092 -0.0019  0.1599
  177MOL0     H23856   9.749   8.852   2.909  0.5577 -0.1032 -0.0819
  177MOL0     H23857   9.680   8.897   3.066 -1.4179 -0.2208 -0.5336
  177MOL0     H23858   9.711   8.730   3.027 -0.8816 -0.2179 -0.1696
  177MOL0     H23859   9.718   9.203   3.162  5.5460  0.0565  1.4373
  177MOL0     H23860   9.812   9.421   3.211 -0.9820 -0.4433  0.1794
  177MOL0     H23861   9.822   9.821   3.020  1.1212 -0.3978  0.4734
  177MOL0     H23862   9.871   9.754   2.872  0.0748 -0.1709  0.6412
  177MOL0     H23863   9.629   9.680   2.827  2.6693 -2.5039 -0.5946
  177MOL0     H23864   9.599   9.703   3.006  1.7326 -3.2360  0.5224
  177MOL0     H23865   9.668   9.935   2.806 -0.3792  0.4235  0.8999
  177MOL0     H23866   9.625   9.955   2.972 -2.6547  1.3132 -0.4520
  177MOL0     H23867   9.450   9.826   2.761  0.6803 -1.2455  0.9819
  177MOL0     H23868   9.398   9.884   2.922 -2.7854 -2.3051 -3.0349
  177MOL0     H23869   9.530  10.074   2.718 -0.6735 -1.5273 -1.2210
  177MOL0     H23870   9.454  10.114   2.867  0.2513 -0.1933 -0.4569
  177MOL0     H23871   9.240  10.021   2.783  1.0063  0.9244  0.5307
  177MOL0     H23872   9.288  10.165   2.700  0.4878  0.5285  2.7847
  177MOL0     H23873   9.394   9.912   2.558  2.8261  4.0460 -2.0819
  177MOL0     H23874   9.323  10.051   2.493 -1.1857 -0.3875 -1.1812
  177MOL0     H23875   9.087   9.925   2.641  1.1803  1.1869  1.2039
  177MOL0     H23876   9.183   9.788   2.595 -2.2341 -1.0201  1.0769
  177MOL0     H23877   9.773   9.533   2.800 -1.4691  2.0690  1.7889
  177MOL0     H23878   9.715   9.312   2.740 -2.1698  2.3984 -0.0369
  177MOL0     H23879   9.292   9.028   2.796  1.5243  0.6476  0.8742
  177MOL0     H23880   9.149   8.820   2.821 -0.9341 -2.2294  3.2484
  177MOL0     H23881   7.731   8.014   2.480 -0.5211  1.4808  0.3812
  177MOL0     H23882   7.665   8.118   2.285 -1.4795 -1.9198 -0.0459
  177MOL0     H23883   7.690   8.264   1.894 -0.1909  1.1858 -1.0528
  177MOL0     H23884   7.608   8.366   1.685 -0.9533  0.0225  0.3738
  177MOL0     H23885   7.613   8.427   1.460  2.3354 -0.5950  1.4597
  177MOL0     H23886   7.726   8.289   1.421 -1.1127 -0.9452  1.6713
  177MOL0     H23887   7.533   8.260   1.226 -2.5805  1.9328 -2.2742
  177MOL0     H23888   7.674   8.371   1.193  0.1858 -1.5149 -0.0795
  177MOL0     H23889   7.534   8.558   1.289  0.5455 -0.8786  2.6289
  177MOL0     H23890   7.387   8.452   1.276 -1.5192  3.9198 -1.3912
  177MOL0     H23891   7.573   8.560   1.060  0.9417  0.4891  0.3349
  177MOL0     H23892   7.402   8.582   1.087 -0.7197 -0.6770  0.8968
  177MOL0     H23893   7.380   8.223   0.864 -1.4830  2.5820 -2.8767
  177MOL0     H23894   7.491   7.995   1.528 -0.8617  1.7156  0.2116
  177MOL0     H23895   7.590   7.884   1.731  1.3900 -0.7677 -1.6538
  178MOL0     O23896   4.643  11.434  11.557 -0.0358 -0.3737 -0.8139
  178MOL0     C23897   4.567  11.345  11.517 -0.1064 -0.5288 -0.3191
  178MOL0     O23898   4.451  11.294  11.577  0.5344 -0.2292  0.5181
  178MOL0     C23899   4.416  11.357  11.691  0.5112  0.9430 -0.3166
  178MOL0     C23900   4.406  11.303  11.821  0.0052  0.7571  0.1750
  178MOL0     C23901   4.373  11.377  11.928  0.1582 -0.3807 -0.4292
  178MOL0     C23902   4.328  11.499  11.914  0.2752 -1.0531 -0.8197
  178MOL0     O23903   4.286  11.586  12.018  0.3095  0.3659  0.1356
  178MOL0     C23904   4.324  11.568  12.151  0.4764 -0.4847 -0.5201
  178MOL0     C23905   4.198  11.522  12.221 -0.7281 -0.1394 -1.1114
  178MOL0     C23906   4.199  11.565  12.370  0.0576 -0.0767  0.7616
  178MOL0     C23907   4.156  11.717  12.387 -0.4922  0.6062 -0.2175
  178MOL0     C23908   4.223  11.758  12.520  0.7929 -0.3203 -0.9633
  178MOL0     C23909   4.370  11.820  12.526  0.5260 -0.1696 -0.7703
  178MOL0     C23910   4.425  11.802  12.669  0.1802 -1.3144 -0.2090
  178MOL0     C23911   4.327  11.842  12.781  0.7746  0.8655 -0.0131
  178MOL0     N23912   4.397  11.886  12.898 -0.2411 -0.0868  0.7422
  178MOL0     C23913   4.448  11.800  12.989 -0.1131 -0.1183 -0.6980
  178MOL0     C23914   4.521  11.892  13.061 -0.4045 -0.2462 -0.1522
  178MOL0     C23915   4.610  11.844  13.179 -0.8820  0.6231  0.1771
  178MOL0     C23916   4.551  11.880  13.317  0.5563 -0.1349  0.8559
  178MOL0     C23917   4.525  12.036  13.328  0.0321  0.5048  0.3321
  178MOL0     C23918   4.646  12.129  13.290  0.5931  0.5305 -0.2527
  178MOL0     O23919   4.778  12.094  13.326 -0.3586 -0.1508 -0.3398
  178MOL0     C23920   4.815  12.057  13.449  0.2775  0.6515 -0.6039
  178MOL0     C23921   4.753  12.105  13.557 -0.7140  0.0577  0.0463
  178MOL0     C23922   4.794  12.084  13.686  1.0834  1.7425  0.3909
  178MOL0     C23923   4.707  12.146  13.791  0.8561  0.4753 -0.9497
  178MOL0     C23924   4.911  12.002  13.713 -0.2301 -0.0868 -0.3463
  178MOL0     C23925   4.984  11.986  13.835  0.4652  1.1915 -0.2840
  178MOL0     O23926   5.108  12.049  13.857  0.1668 -0.2972  0.3561
  178MOL0     C23927   5.179  12.027  13.972  0.6033 -1.3331 -0.7731
  178MOL0     C23928   5.312  12.065  13.964  0.3073  0.2311 -0.1769
  178MOL0     C23929   5.397  12.065  14.079  0.7907 -0.7293 -0.3044
  178MOL0     C23930   5.343  12.026  14.207 -0.1762 -0.6598 -0.1201
  178MOL0     O23931   5.425  12.059  14.323  0.3649  0.7596  0.2437
  178MOL0     C23932   5.394  12.012  14.457 -0.5745 -0.6560 -0.0299
  178MOL0     C23933   5.500  12.071  14.549  0.7130  0.8210  0.2683
  178MOL0     C23934   5.617  11.975  14.535  0.2933 -0.3691 -0.2351
  178MOL0     C23935   5.696  11.977  14.669  0.2644  1.0871 -0.1884
  178MOL0     C23936   5.833  11.906  14.646 -0.3780 -0.9844 -0.4556
  178MOL0     C23937   5.811  11.762  14.592  1.2629 -0.7619 -0.9349
  178MOL0     C23938   5.699  11.671  14.651  1.0463 -0.3328 -0.3609
  178MOL0     C23939   5.741  11.532  14.649  0.5861  0.2529  0.4252
  178MOL0    Cl23940   5.882  11.512  14.759 -0.1387 -0.2892 -0.2110
  178MOL0     C23941   5.209  11.981  14.220 -0.3015  0.5346 -0.0462
  178MOL0     C23942   5.127  11.987  14.100 -0.2009 -0.3085 -0.4303
  178MOL0     O23943   4.924  11.909  13.913 -0.1662  0.0150 -0.4021
  178MOL0     C23944   4.979  11.952  13.598 -0.0375  0.3827  0.4653
  178MOL0     C23945   4.921  11.975  13.469  0.4706  0.3949  0.0215
  178MOL0     N23946   4.520  12.016  13.002  0.3253  0.1204 -0.4233
  178MOL0     N23947   4.441  12.014  12.910 -0.8812 -0.1522 -0.0326
  178MOL0     C23948   4.304  11.549  11.786  0.3044 -0.1651 -0.1649
  178MOL0     C23949   4.360  11.480  11.682 -0.1280  0.3917  1.0018
  178MOL0     C23950   4.617  11.249  11.415 -0.0351  0.5796  0.4747
  178MOL0     C23951   4.745  11.264  11.360 -0.2247  0.7127 -0.0279
  178MOL0     C23952   4.790  11.195  11.247 -0.5620  0.3245 -0.0715
  178MOL0     C23953   4.713  11.101  11.190  0.2272  0.4125 -1.4717
  178MOL0     O23954   4.778  11.033  11.094  0.1737  0.2598  0.5060
  178MOL0     C23955   4.731  10.895  11.085  0.3389 -0.5448 -0.0596
  178MOL0     C23956   4.845  10.821  10.992  0.2739 -0.9730  0.2157
  178MOL0     C23957   4.823  10.666  10.993 -0.2534 -1.0051 -0.5888
  178MOL0     C23958   4.721  10.617  10.894  0.0041  0.8169 -0.1646
  178MOL0     C23959   4.772  10.615  10.757 -0.2467 -0.0232 -0.2801
  178MOL0     C23960   4.823  10.631  10.645 -0.3923  0.8372  0.9616
  178MOL0     C23961   4.586  11.078  11.252 -0.1349  0.6515  0.5354
  178MOL0     C23962   4.533  11.158  11.349 -0.2817  1.3445 -0.3581
  178MOL0     H23963   4.449  11.204  11.834 -1.0811  0.6142  3.4420
  178MOL0     H23964   4.376  11.332  12.027  1.4296  0.4965 -0.0542
  178MOL0     H23965   4.409  11.500  12.162  2.9893  2.7458  2.5531
  178MOL0     H23966   4.363  11.659  12.197  4.5085 -1.9489 -0.6595
  178MOL0     H23967   4.098  11.552  12.191 -1.5538  0.5554  1.9732
  178MOL0     H23968   4.192  11.413  12.221  1.8437 -0.4513  2.2877
  178MOL0     H23969   4.137  11.493  12.425  2.9132 -1.9435  1.7914
  178MOL0     H23970   4.298  11.534  12.405  1.9250  0.0649 -3.7006
  178MOL0     H23971   4.195  11.774  12.303  2.9543 -2.5023 -1.0058
  178MOL0     H23972   4.047  11.710  12.389 -0.4438  0.0168  0.7438
  178MOL0     H23973   4.146  11.826  12.559  1.3924  1.0764 -2.1506
  178MOL0     H23974   4.228  11.670  12.584 -0.4808  0.3308  0.0786
  178MOL0     H23975   4.432  11.759  12.460 -1.4952 -1.7743 -1.2823
  178MOL0     H23976   4.371  11.924  12.494 -1.2879  0.4429  0.9481
  178MOL0     H23977   4.471  11.703  12.669  2.7687 -0.2375  1.7140
  178MOL0     H23978   4.505  11.876  12.679 -1.0551 -0.1492  1.5553
  178MOL0     H23979   4.268  11.755  12.811 -0.7473  2.0358  0.5128
  178MOL0     H23980   4.260  11.922  12.747 -3.6634 -2.5478 -0.1694
  178MOL0     H23981   4.434  11.694  13.004 -2.5400  0.5975  3.7784
  178MOL0     H23982   4.616  11.736  13.167 -0.0005  0.2492  3.1254
  178MOL0     H23983   4.715  11.874  13.176 -0.4456 -0.9079 -0.4989
  178MOL0     H23984   4.605  11.849  13.407  3.1445  1.0750 -0.1732
  178MOL0     H23985   4.454  11.831  13.325 -0.7801  2.5946  3.2815
  178MOL0     H23986   4.497  12.044  13.434 -1.6044 -0.8209  0.0441
  178MOL0     H23987   4.437  12.057  13.267 -1.0700  3.4598  2.6832
  178MOL0     H23988   4.603  12.221  13.331 -2.5768 -1.5240  1.4055
  178MOL0     H23989   4.652  12.141  13.181  1.9634  1.0394 -0.1439
  178MOL0     H23990   4.674  12.179  13.555  0.6867  1.6608  1.1996
  178MOL0     H23991   4.653  12.236  13.763 -0.4357 -0.1328 -0.4880
  178MOL0     H23992   4.636  12.069  13.822  4.4405 -3.5200 -1.5634
  178MOL0     H23993   4.772  12.169  13.877  1.0791  1.8217 -1.4580
  178MOL0     H23994   5.337  12.104  13.866 -2.4220  0.1465 -0.9785
  178MOL0     H23995   5.498  12.102  14.084  0.2883  0.6397 -0.0090
  178MOL0     H23996   5.299  12.062  14.481 -0.2479 -0.4040  0.7419
  178MOL0     H23997   5.377  11.904  14.457 -1.0900 -0.5788 -0.1479
  178MOL0     H23998   5.529  12.175  14.528 -1.0281  0.9697 -1.7090
  178MOL0     H23999   5.467  12.076  14.653  0.8257  1.0223  0.2952
  178MOL0     H24000   5.679  12.017  14.456  0.3142  1.7719  0.8630
  178MOL0     H24001   5.588  11.870  14.519 -0.2093 -0.0855 -1.2644
  178MOL0     H24002   5.708  12.079  14.708 -0.4991  0.8702  0.6771
  178MOL0     H24003   5.625  11.925  14.735  0.3211  0.2206 -0.7935
  178MOL0     H24004   5.876  11.920  14.745 -4.0301  3.8919  0.8416
  178MOL0     H24005   5.899  11.954  14.573 -3.5284  0.6464 -2.5201
  178MOL0     H24006   5.797  11.783  14.485  1.4704 -1.2109 -1.0549
  178MOL0     H24007   5.904  11.704  14.590  2.3069  0.8064 -0.5031
  178MOL0     H24008   5.604  11.681  14.597  1.0426  4.0108  0.1030
  178MOL0     H24009   5.683  11.691  14.757  0.6711 -1.4431 -0.1881
  178MOL0     H24010   5.775  11.502  14.550 -0.9661 -0.2276  0.0149
  178MOL0     H24011   5.657  11.477  14.692 -0.8221  0.3553 -2.0328
  178MOL0     H24012   5.166  11.940  14.311  2.5565 -2.1322  0.2952
  178MOL0     H24013   5.020  11.972  14.112 -0.6382  1.8324 -1.3048
  178MOL0     H24014   5.071  11.894  13.610  0.2672  1.2704  3.2620
  178MOL0     H24015   4.966  11.921  13.386 -0.2207  0.2777 -0.2905
  178MOL0     H24016   4.259  11.648  11.776  1.2028  0.5514  2.1757
  178MOL0     H24017   4.375  11.533  11.588  2.5211 -1.6607  0.1567
  178MOL0     H24018   4.813  11.342  11.393  2.4074 -0.4425 -2.3134
  178MOL0     H24019   4.892  11.201  11.210  0.9559 -4.3214  2.5460
  178MOL0     H24020   4.728  10.843  11.181  1.1732 -0.5943 -0.0538
  178MOL0     H24021   4.632  10.884  11.040  0.4376 -1.9278  0.0275
  178MOL0     H24022   4.944  10.845  11.033  0.2534 -0.9574  0.2571
  178MOL0     H24023   4.834  10.869  10.894 -1.4591  2.4429  1.9063
  178MOL0     H24024   4.787  10.630  11.090  1.3833 -1.1729 -0.0150
  178MOL0     H24025   4.923  10.624  10.978  1.4214  2.4238  0.0759
  178MOL0     H24026   4.627  10.668  10.915  0.3408 -0.5153  7.3264
  178MOL0     H24027   4.692  10.514  10.914 -0.3304  0.8743 -0.3546
  178MOL0     H24028   4.868  10.641  10.548  1.7035  0.5344  1.8548
  178MOL0     H24029   4.523  11.009  11.197  1.4287 -0.4131  0.0116
  178MOL0     H24030   4.428  11.138  11.365  0.2549 -1.5149  0.0024
  179MOL0     O24031   4.508   3.406   3.182  0.3869  0.1192  0.3472
  179MOL0     C24032   4.505   3.390   3.304 -0.1802 -1.5826  0.5196
  179MOL0     O24033   4.397   3.335   3.381  0.5889 -0.8889  0.0494
  179MOL0     C24034   4.278   3.300   3.337  0.8806  0.1045  1.0104
  179MOL0     C24035   4.238   3.184   3.404 -0.9447 -0.3294  1.0052
  179MOL0     C24036   4.116   3.123   3.352 -0.0780 -0.5130 -0.6814
  179MOL0     C24037   4.045   3.186   3.244 -0.9180 -0.1541 -0.1826
  179MOL0     O24038   3.935   3.141   3.181 -0.2834  0.2873 -0.8257
  179MOL0     C24039   3.858   3.030   3.231 -0.0746  1.8519 -0.2507
  179MOL0     C24040   3.784   3.067   3.363 -0.8141  0.1294 -0.8742
  179MOL0     C24041   3.638   3.019   3.362 -0.0186  0.1985  0.6696
  179MOL0     C24042   3.604   2.957   3.508  0.1941  1.1238 -0.2406
  179MOL0     C24043   3.457   2.913   3.535  0.6211 -0.5402  0.9684
  179MOL0     C24044   3.439   2.863   3.680 -0.1391  0.3609 -0.3548
  179MOL0     C24045   3.347   2.946   3.769  0.0455 -0.2173  0.4819
  179MOL0     C24046   3.195   2.931   3.731  0.5813  0.1541  0.3254
  179MOL0     N24047   3.153   2.790   3.733 -0.5351  0.4910 -0.6843
  179MOL0     C24048   3.140   2.707   3.844  0.7423 -0.3505 -0.0931
  179MOL0     C24049   3.063   2.601   3.790  0.2139 -0.2425 -1.1438
  179MOL0     C24050   3.011   2.474   3.868  0.7917 -0.3504  1.1756
  179MOL0     C24051   3.087   2.341   3.831 -0.0980  0.1126 -0.0738
  179MOL0     C24052   3.031   2.221   3.906 -0.5635  0.3914 -0.1889
  179MOL0     C24053   2.905   2.163   3.848 -0.5467 -0.2082 -0.2385
  179MOL0     O24054   2.806   2.125   3.946 -0.1041 -0.0291 -0.5696
  179MOL0     C24055   2.825   2.016   4.026  0.5031 -0.0212  0.5603
  179MOL0     C24056   2.935   1.923   4.030 -0.6127  0.2198 -0.6456
  179MOL0     C24057   2.926   1.808   4.111  0.2786  0.5979 -0.3181
  179MOL0     C24058   3.047   1.720   4.090  0.2947  1.3787 -0.0421
  179MOL0     C24059   2.821   1.779   4.206 -0.4954  0.0029 -0.8051
  179MOL0     C24060   2.814   1.656   4.295 -0.1646 -1.1895  0.3185
  179MOL0     O24061   2.695   1.644   4.340  0.7462  0.2560  0.3366
  179MOL0     C24062   2.675   1.568   4.455  0.1814  0.5355 -0.0398
  179MOL0     C24063   2.731   1.602   4.580 -0.5749 -0.1775  0.1617
  179MOL0     C24064   2.698   1.547   4.693 -0.1552  0.0652 -0.4628
  179MOL0     C24065   2.615   1.432   4.701 -0.2552  0.1723  0.5052
  179MOL0     O24066   2.570   1.381   4.818  0.1964  0.5028 -0.1602
  179MOL0     C24067   2.453   1.304   4.843  0.4868 -1.1622 -0.0143
  179MOL0     C24068   2.427   1.281   4.997  0.3774  0.7641 -0.3558
  179MOL0     C24069   2.498   1.152   5.052  0.3013 -0.2818  0.6914
  179MOL0     C24070   2.450   1.114   5.185  0.1652  0.1798 -0.2492
  179MOL0     C24071   2.459   0.963   5.211  0.1535 -0.2320  0.6937
  179MOL0     C24072   2.606   0.912   5.191 -0.6172 -0.0306 -0.1276
  179MOL0     C24073   2.628   0.770   5.244  0.3411  0.2753  0.1217
  179MOL0     C24074   2.766   0.740   5.295  0.7110 -0.8177 -0.3951
  179MOL0    Cl24075   2.745   0.585   5.391  0.2489 -0.2242 -0.0611
  179MOL0     C24076   2.556   1.391   4.578 -0.5766  0.0649  0.9151
  179MOL0     C24077   2.591   1.459   4.455 -0.4286  0.0087  0.0680
  179MOL0     O24078   2.914   1.591   4.320  0.3648 -0.4026  0.3477
  179MOL0     C24079   2.715   1.871   4.204 -1.0286 -0.9036 -0.0925
  179MOL0     C24080   2.717   1.987   4.123  0.3991 -0.6971 -0.0531
  179MOL0     N24081   3.052   2.622   3.650 -0.4046  0.4806 -0.1498
  179MOL0     N24082   3.114   2.733   3.617 -0.2252 -1.2195 -0.4861
  179MOL0     C24083   4.101   3.304   3.187 -0.0353 -0.0117 -0.4165
  179MOL0     C24084   4.213   3.367   3.233  0.1904  0.2083 -0.5592
  179MOL0     C24085   4.621   3.452   3.376  1.0848  0.2966  0.3735
  179MOL0     C24086   4.651   3.423   3.517  0.5960  0.6113 -0.2457
  179MOL0     C24087   4.763   3.481   3.576 -0.0211  0.2528 -0.1647
  179MOL0     C24088   4.826   3.588   3.505 -0.8336  0.2405 -0.9723
  179MOL0     O24089   4.927   3.647   3.577 -0.3971 -0.8076 -0.2827
  179MOL0     C24090   5.036   3.702   3.495  0.2625 -0.0969  0.6708
  179MOL0     C24091   5.052   3.851   3.515 -0.9214  0.1766 -0.2706
  179MOL0     C24092   5.206   3.880   3.513 -0.3057 -0.7566  0.1409
  179MOL0     C24093   5.272   3.886   3.648  0.5035  0.4068 -0.0424
  179MOL0     C24094   5.236   3.997   3.734  0.1771  0.0198  0.4266
  179MOL0     C24095   5.210   4.100   3.799 -0.7091  0.2098 -1.3134
  179MOL0     C24096   4.791   3.615   3.374 -0.9177  0.5482 -0.0330
  179MOL0     C24097   4.689   3.554   3.314 -0.2514 -0.4062 -0.8304
  179MOL0     H24098   4.296   3.143   3.486 -1.1732  0.0742  1.3756
  179MOL0     H24099   4.086   3.022   3.377 -1.5153 -0.3784 -1.7301
  179MOL0     H24100   3.792   3.004   3.148  0.3331 -1.9562  0.3928
  179MOL0     H24101   3.925   2.945   3.245 -1.3739  1.0255  1.2640
  179MOL0     H24102   3.844   3.018   3.440 -0.7853 -0.3944 -1.2226
  179MOL0     H24103   3.778   3.173   3.387 -0.4364  0.9058 -3.8700
  179MOL0     H24104   3.579   3.110   3.344  1.2799  0.8330 -0.6256
  179MOL0     H24105   3.624   2.953   3.276 -2.2439  2.2367 -0.6632
  179MOL0     H24106   3.667   2.869   3.518  0.4312  1.5524  3.2158
  179MOL0     H24107   3.628   3.020   3.594 -2.4925 -1.1356  2.3551
  179MOL0     H24108   3.385   2.991   3.511 -0.6686 -1.8542  0.4498
  179MOL0     H24109   3.436   2.835   3.461  1.5109 -4.3844  4.3953
  179MOL0     H24110   3.392   2.764   3.669  0.9086 -0.1889 -0.0180
  179MOL0     H24111   3.528   2.842   3.739 -0.5053 -1.9634 -0.5424
  179MOL0     H24112   3.349   2.910   3.872 -1.8618 -1.0519  0.2679
  179MOL0     H24113   3.373   3.052   3.762  0.1143 -0.3292 -1.8687
  179MOL0     H24114   3.188   2.976   3.631 -0.8894 -1.4885 -0.3549
  179MOL0     H24115   3.131   2.987   3.800  2.1797  1.8665  0.4948
  179MOL0     H24116   3.160   2.730   3.948 -0.9679  1.5593 -0.1437
  179MOL0     H24117   3.037   2.504   3.970  0.2514 -0.3517  1.3165
  179MOL0     H24118   2.902   2.472   3.857  0.7903  1.2296  0.6777
  179MOL0     H24119   3.192   2.363   3.849  0.1659 -1.7540  0.9052
  179MOL0     H24120   3.074   2.321   3.725  0.7232  1.2680 -0.4190
  179MOL0     H24121   3.020   2.258   4.008  1.2666  2.3710 -0.6368
  179MOL0     H24122   3.097   2.134   3.912  1.9876  2.0908 -1.7701
  179MOL0     H24123   2.932   2.077   3.786  1.9287 -0.1311  0.6217
  179MOL0     H24124   2.853   2.243   3.794 -0.4596 -0.0621 -0.1060
  179MOL0     H24125   3.026   1.941   3.973  0.4222  0.4754  1.0195
  179MOL0     H24126   3.029   1.623   4.043  0.4598  0.7445  1.1385
  179MOL0     H24127   3.134   1.763   4.041  0.4715  3.7728  2.1011
  179MOL0     H24128   3.082   1.702   4.192 -1.4493  1.0229  0.5352
  179MOL0     H24129   2.782   1.698   4.571 -2.9694  1.2479  0.9146
  179MOL0     H24130   2.720   1.578   4.795 -1.1610  5.2145 -1.5160
  179MOL0     H24131   2.370   1.368   4.812  0.0897 -1.1132  1.0977
  179MOL0     H24132   2.450   1.212   4.784 -0.9559 -0.3442 -1.3031
  179MOL0     H24133   2.450   1.362   5.067 -0.5316  1.8652 -1.2872
  179MOL0     H24134   2.322   1.266   5.022  1.2034  2.1882  5.2010
  179MOL0     H24135   2.607   1.151   5.041  0.1846 -2.1897 -0.9454
  179MOL0     H24136   2.469   1.061   4.999  2.3239 -1.8548  2.1490
  179MOL0     H24137   2.501   1.176   5.260 -0.3797  2.4414 -1.6723
  179MOL0     H24138   2.343   1.136   5.194 -0.2637 -1.5405 -0.6727
  179MOL0     H24139   2.394   0.916   5.137  1.0869  0.3179 -0.5176
  179MOL0     H24140   2.428   0.935   5.312 -1.6016  0.2682  0.3386
  179MOL0     H24141   2.627   0.914   5.084 -1.9994 -3.3147 -0.5576
  179MOL0     H24142   2.675   0.982   5.240 -1.6881 -0.2903  1.8732
  179MOL0     H24143   2.608   0.715   5.152 -1.2286  0.7705  0.1368
  179MOL0     H24144   2.552   0.745   5.318  1.4727  0.7818  1.5102
  179MOL0     H24145   2.814   0.816   5.358  0.7802 -2.4620  1.6572
  179MOL0     H24146   2.830   0.720   5.208  1.1908  0.4845 -0.3784
  179MOL0     H24147   2.489   1.306   4.581 -1.6290  0.5388 -3.4616
  179MOL0     H24148   2.553   1.408   4.367  0.1289 -3.1318  1.5008
  179MOL0     H24149   2.633   1.880   4.275 -1.5418  1.0546 -0.8654
  179MOL0     H24150   2.625   2.043   4.128  0.1701 -1.1223  0.5336
  179MOL0     H24151   4.064   3.337   3.091  0.4372  1.5913 -0.0734
  179MOL0     H24152   4.260   3.457   3.195  0.8796  0.6270  1.1827
  179MOL0     H24153   4.583   3.363   3.577  1.7576  1.2135  1.7639
  179MOL0     H24154   4.788   3.455   3.678  0.5957 -0.6070 -0.5256
  179MOL0     H24155   5.119   3.644   3.536 -0.4932 -1.8044 -0.1492
  179MOL0     H24156   5.025   3.687   3.387  1.8874 -1.6408  0.6818
  179MOL0     H24157   5.013   3.888   3.610  1.3824  0.8806  0.4778
  179MOL0     H24158   4.998   3.893   3.429 -3.1141  0.8728  1.3622
  179MOL0     H24159   5.220   3.976   3.463 -1.7806 -1.3240 -1.4442
  179MOL0     H24160   5.260   3.811   3.447 -1.7121 -0.9452 -0.8648
  179MOL0     H24161   5.379   3.898   3.630  0.2943  0.4153 -1.4018
  179MOL0     H24162   5.248   3.785   3.683 -0.2610  0.3906 -0.5891
  179MOL0     H24163   5.175   4.191   3.842 -0.8554 -0.4397  0.0028
  179MOL0     H24164   4.837   3.677   3.298  0.2942 -1.0613 -0.6675
  179MOL0     H24165   4.659   3.591   3.216 -0.3191 -2.0248 -1.4510
  180MOL0     O24166   8.162   4.484   9.020  0.8829  1.1567  0.5539
  180MOL0     C24167   8.223   4.460   8.917  0.1953 -0.0766 -0.2991
  180MOL0     O24168   8.170   4.454   8.794 -0.6070 -0.2220  0.5635
  180MOL0     C24169   8.036   4.432   8.786  0.3087  0.9635 -0.3295
  180MOL0     C24170   7.957   4.514   8.710 -0.2806 -0.1520  0.3402
  180MOL0     C24171   7.821   4.485   8.696  0.8119 -0.2830  0.7370
  180MOL0     C24172   7.757   4.377   8.766 -0.6520 -0.2872 -0.2052
  180MOL0     O24173   7.622   4.358   8.751  0.4748  0.8263  0.3553
  180MOL0     C24174   7.554   4.233   8.782  0.1944 -0.0247  0.2629
  180MOL0     C24175   7.399   4.254   8.809  0.7734  0.6532 -0.1833
  180MOL0     C24176   7.368   4.291   8.953 -0.2056 -0.1292 -0.2070
  180MOL0     C24177   7.460   4.396   9.021  0.8596 -0.6076  0.1246
  180MOL0     C24178   7.406   4.450   9.152 -0.6803 -0.6535  0.3964
  180MOL0     C24179   7.516   4.533   9.220  0.3723 -0.1464  0.0294
  180MOL0     C24180   7.493   4.596   9.365  0.1755  0.3526 -0.3433
  180MOL0     C24181   7.504   4.494   9.483 -0.0321  0.2530  0.3290
  180MOL0     N24182   7.623   4.414   9.473 -0.1774  0.2517  0.1177
  180MOL0     C24183   7.747   4.465   9.449 -0.4320 -0.1720 -0.2858
  180MOL0     C24184   7.841   4.375   9.463  0.2328 -0.2493  0.2157
  180MOL0     C24185   7.991   4.371   9.446  0.3980 -0.0363 -0.5694
  180MOL0     C24186   8.027   4.421   9.306 -0.1885 -0.0206  0.0217
  180MOL0     C24187   7.949   4.337   9.192  0.1676  0.4139  0.1878
  180MOL0     C24188   7.982   4.187   9.221 -0.2664 -1.0573  0.0515
  180MOL0     O24189   7.931   4.114   9.112  0.2056  0.7927  0.4066
  180MOL0     C24190   7.801   4.068   9.103 -0.7016  0.9562 -0.3902
  180MOL0     C24191   7.785   3.963   9.013  0.9580  0.2756  0.0990
  180MOL0     C24192   7.656   3.917   8.997 -0.1773  1.2022 -0.0209
  180MOL0     C24193   7.640   3.815   8.884 -1.2281 -0.9558 -0.4937
  180MOL0     C24194   7.542   3.961   9.070  0.4302 -0.5077  0.0451
  180MOL0     C24195   7.400   3.911   9.054  0.5969  0.1365  0.0325
  180MOL0     O24196   7.314   3.927   9.158 -0.0699 -0.6248  0.2382
  180MOL0     C24197   7.187   3.882   9.141 -0.4376 -0.7282  0.1257
  180MOL0     C24198   7.092   3.966   9.075  0.1256  0.1586  0.1978
  180MOL0     C24199   6.963   3.916   9.037  0.9289 -0.1380 -0.0198
  180MOL0     C24200   6.920   3.789   9.096 -0.4162 -1.0572 -0.6281
  180MOL0     O24201   6.795   3.749   9.076  0.1321 -0.1026  0.3935
  180MOL0     C24202   6.711   3.734   9.188  0.1042 -1.5494 -0.2405
  180MOL0     C24203   6.567   3.693   9.136  0.2783 -0.3934 -0.0512
  180MOL0     C24204   6.563   3.551   9.062  0.1125 -0.0376 -0.6847
  180MOL0     C24205   6.434   3.472   9.074 -0.3483 -1.5331  0.5655
  180MOL0     C24206   6.403   3.403   9.202 -1.4556 -0.4164  0.5124
  180MOL0     C24207   6.514   3.301   9.245 -0.2572 -0.4921 -0.1358
  180MOL0     C24208   6.442   3.192   9.326  0.3292  0.0118 -0.2278
  180MOL0     C24209   6.538   3.104   9.414 -0.3560  0.4140 -0.4713
  180MOL0    Cl24210   6.599   3.200   9.553  0.0505  0.0517  0.1338
  180MOL0     C24211   7.014   3.717   9.171  0.0648 -0.0980  0.7835
  180MOL0     C24212   7.148   3.761   9.191 -0.1652 -1.0599  1.0249
  180MOL0     O24213   7.365   3.877   8.937 -0.2310 -0.3163  0.0688
  180MOL0     C24214   7.569   4.055   9.167 -0.2969 -0.3897 -0.6237
  180MOL0     C24215   7.700   4.106   9.187  0.4953  0.0468 -0.1630
  180MOL0     N24216   7.774   4.266   9.514  0.2745 -0.2454 -0.1152
  180MOL0     N24217   7.642   4.281   9.510 -0.2122  0.5217 -0.2529
  180MOL0     C24218   7.846   4.288   8.826  0.1694 -0.1976 -0.0449
  180MOL0     C24219   7.982   4.315   8.842 -0.1657  1.3663 -0.1032
  180MOL0     C24220   8.370   4.490   8.924  1.2250  0.4017  0.1070
  180MOL0     C24221   8.427   4.573   9.028  0.3957 -0.0026  0.7300
  180MOL0     C24222   8.566   4.588   9.029 -0.2171 -0.6480 -0.0668
  180MOL0     C24223   8.656   4.533   8.938 -0.8315  0.7803  0.1517
  180MOL0     O24224   8.794   4.546   8.948  0.1377  0.6555 -0.4617
  180MOL0     C24225   8.863   4.421   8.917  0.7448 -0.1569 -0.5351
  180MOL0     C24226   9.003   4.435   8.976 -0.2371 -0.2500  0.4814
  180MOL0     C24227   9.085   4.315   8.939 -0.4047 -0.0837  1.1832
  180MOL0     C24228   9.080   4.209   9.055 -0.0082 -0.0024  0.2390
  180MOL0     C24229   9.157   4.087   9.024 -0.0179 -0.0757 -0.3533
  180MOL0     C24230   9.214   3.989   8.990 -1.0477  0.5761  0.5955
  180MOL0     C24231   8.590   4.461   8.838 -0.2540 -0.3807 -0.3755
  180MOL0     C24232   8.453   4.436   8.826  0.3977  0.3136  0.9362
  180MOL0     H24233   8.014   4.600   8.677  0.9434 -2.3697 -4.0917
  180MOL0     H24234   7.754   4.560   8.654  0.0805 -0.4128  1.6373
  180MOL0     H24235   7.564   4.169   8.694 -1.8233 -2.1237  1.4291
  180MOL0     H24236   7.594   4.183   8.871 -0.0697  1.7407  1.4137
  180MOL0     H24237   7.361   4.338   8.750  3.0710  0.6875 -1.7493
  180MOL0     H24238   7.352   4.158   8.784  4.3363 -0.9787 -1.2388
  180MOL0     H24239   7.268   4.333   8.936 -1.7684 -3.4414 -0.1708
  180MOL0     H24240   7.357   4.203   9.019  0.7371  0.0721  0.2345
  180MOL0     H24241   7.558   4.350   9.038  1.3045  0.5337  0.7364
  180MOL0     H24242   7.482   4.473   8.946  0.3624 -3.7095 -3.5838
  180MOL0     H24243   7.325   4.523   9.144  0.3783  0.7327  1.7974
  180MOL0     H24244   7.373   4.361   9.207  4.9003 -3.1380  0.3943
  180MOL0     H24245   7.597   4.460   9.229 -0.5408 -1.0262  1.5678
  180MOL0     H24246   7.560   4.614   9.161  4.5214 -1.9860  0.2459
  180MOL0     H24247   7.567   4.675   9.378  1.1637 -0.3804 -1.3388
  180MOL0     H24248   7.391   4.635   9.369 -0.3025 -0.8399  3.3507
  180MOL0     H24249   7.414   4.439   9.454 -0.4933  0.9999  0.3175
  180MOL0     H24250   7.484   4.548   9.576 -2.7679  2.5971 -1.4289
  180MOL0     H24251   7.753   4.572   9.433 -1.4982  0.1380  1.1362
  180MOL0     H24252   8.029   4.430   9.529 -3.0454  1.0590  0.3850
  180MOL0     H24253   8.031   4.270   9.459 -1.7714 -1.0235 -1.1645
  180MOL0     H24254   8.134   4.419   9.284  0.3066 -0.8199  2.2831
  180MOL0     H24255   7.990   4.524   9.304  0.5554  0.2452 -0.5290
  180MOL0     H24256   7.981   4.368   9.092 -0.1366  1.5206  0.4197
  180MOL0     H24257   7.840   4.345   9.195 -0.0138 -1.5878  0.4315
  180MOL0     H24258   7.934   4.150   9.312 -0.4046  0.4268  0.6167
  180MOL0     H24259   8.091   4.171   9.221  0.3985  2.2265 -2.3360
  180MOL0     H24260   7.866   3.921   8.954  2.1378  4.4372 -1.6339
  180MOL0     H24261   7.623   3.717   8.929  1.5677 -1.8568 -1.1455
  180MOL0     H24262   7.561   3.833   8.810 -0.7834 -0.9185 -0.9690
  180MOL0     H24263   7.729   3.803   8.821  0.9316 -3.6428  2.6849
  180MOL0     H24264   7.126   4.065   9.045 -0.7138 -0.1201 -1.9228
  180MOL0     H24265   6.892   3.964   8.970  0.2845  0.2512  0.9087
  180MOL0     H24266   6.749   3.663   9.263  0.3478 -0.8223  0.3360
  180MOL0     H24267   6.691   3.838   9.215 -3.2077 -1.4315 -2.5158
  180MOL0     H24268   6.494   3.674   9.216 -4.1228  0.4690 -3.4264
  180MOL0     H24269   6.522   3.764   9.067 -0.0625 -1.9515 -1.4914
  180MOL0     H24270   6.647   3.495   9.105 -1.8012 -0.4999  2.8532
  180MOL0     H24271   6.572   3.569   8.954 -1.5117  0.0315 -0.8370
  180MOL0     H24272   6.358   3.546   9.046  0.7866 -0.4140  0.3948
  180MOL0     H24273   6.428   3.393   8.999  3.5443 -0.1295 -1.4663
  180MOL0     H24274   6.307   3.352   9.192 -1.1605 -0.7231 -0.9146
  180MOL0     H24275   6.395   3.477   9.283  1.6700  1.6160 -0.8471
  180MOL0     H24276   6.570   3.245   9.168  2.5031 -1.2372  2.2142
  180MOL0     H24277   6.584   3.344   9.317  0.4869  0.3041 -1.2974
  180MOL0     H24278   6.392   3.134   9.247 -0.9513  1.8724 -0.8633
  180MOL0     H24279   6.357   3.234   9.382  0.7644  1.9543 -0.9594
  180MOL0     H24280   6.606   3.055   9.344 -2.8227  0.3241 -3.0053
  180MOL0     H24281   6.467   3.031   9.456 -1.6098  1.1208 -1.3056
  180MOL0     H24282   6.988   3.624   9.220 -0.7021  0.5351  1.6212
  180MOL0     H24283   7.222   3.706   9.248 -1.3976 -1.0577  2.6853
  180MOL0     H24284   7.490   4.106   9.221  1.0914  1.8300 -0.5652
  180MOL0     H24285   7.733   4.170   9.268  2.7090 -2.1823  0.8208
  180MOL0     H24286   7.803   4.196   8.866 -3.6850  0.9850 -1.0347
  180MOL0     H24287   8.054   4.251   8.892 -0.6783 -1.7882 -3.0542
  180MOL0     H24288   8.356   4.611   9.100 -0.5546 -1.7588  0.7876
  180MOL0     H24289   8.603   4.637   9.119  2.2802  0.4585 -1.5997
  180MOL0     H24290   8.805   4.337   8.958 -2.1653  1.6337 -0.7043
  180MOL0     H24291   8.880   4.411   8.810  2.6211 -1.3924 -0.1684
  180MOL0     H24292   9.001   4.442   9.085 -2.5343 -1.7839  0.6225
  180MOL0     H24293   9.043   4.528   8.936  0.1326  0.6629  2.8001
  180MOL0     H24294   9.193   4.327   8.929 -0.3997 -0.5299  0.6532
  180MOL0     H24295   9.050   4.267   8.847  2.1718  2.4794 -1.3606
  180MOL0     H24296   8.973   4.188   9.062 -1.4878  4.9982 -2.3636
  180MOL0     H24297   9.110   4.251   9.152 -4.5339  3.7277  0.3720
  180MOL0     H24298   9.252   3.891   8.966 -1.6040 -0.2242  2.6787
  180MOL0     H24299   8.644   4.428   8.750  1.7097  0.7534  0.3249
  180MOL0     H24300   8.413   4.390   8.737 -0.2360 -0.0821  1.4199
  181MOL0     O24301  11.213   2.968   2.436 -0.4349  0.0336  0.5718
  181MOL0     C24302  11.333   2.988   2.439 -0.6720 -0.5559 -0.0848
  181MOL0     O24303  11.425   2.906   2.496 -0.4572  0.0750 -0.3620
  181MOL0     C24304  11.394   2.781   2.544  1.3992 -0.5547 -0.1495
  181MOL0     C24305  11.303   2.696   2.479  0.9393  0.9104  0.0474
  181MOL0     C24306  11.290   2.562   2.520  0.7734 -0.1757  0.2666
  181MOL0     C24307  11.357   2.512   2.634 -0.3517 -0.8031  0.0032
  181MOL0     O24308  11.361   2.386   2.688  0.4327 -0.3093  0.2894
  181MOL0     C24309  11.229   2.328   2.676  0.3048 -0.0042  1.0505
  181MOL0     C24310  11.209   2.246   2.798 -0.0993 -0.5710 -0.4017
  181MOL0     C24311  11.114   2.126   2.783 -1.4499 -0.0935  0.7213
  181MOL0     C24312  10.994   2.150   2.691 -0.3596  0.4852  0.3137
  181MOL0     C24313  10.896   2.037   2.688  0.8018  0.7692  1.0492
  181MOL0     C24314  10.814   2.044   2.558  0.8308  0.9804 -0.3191
  181MOL0     C24315  10.718   1.926   2.539  0.7090 -0.2696 -0.8074
  181MOL0     C24316  10.643   1.931   2.405  0.6037 -0.1573  0.3966
  181MOL0     N24317  10.737   1.892   2.298 -0.0430  0.6820  0.2189
  181MOL0     C24318  10.794   1.769   2.268  1.2863 -1.4986 -0.1034
  181MOL0     C24319  10.818   1.770   2.133 -0.1697  0.9496 -0.5175
  181MOL0     C24320  10.876   1.649   2.057 -0.3454  0.8289  0.4202
  181MOL0     C24321  10.769   1.571   1.967  0.0532 -0.2884  0.7995
  181MOL0     C24322  10.717   1.660   1.843 -0.4169 -0.5099 -0.6562
  181MOL0     C24323  10.609   1.578   1.781 -0.4827 -0.2448 -0.3322
  181MOL0     O24324  10.497   1.529   1.859 -0.0175  0.3708  0.2348
  181MOL0     C24325  10.387   1.601   1.877 -0.0722 -0.3521 -0.5225
  181MOL0     C24326  10.384   1.738   1.909 -0.5461  0.9247 -0.6316
  181MOL0     C24327  10.283   1.803   1.967  0.4690 -0.2258 -0.1818
  181MOL0     C24328  10.312   1.937   2.020 -1.1029 -0.0471 -0.6013
  181MOL0     C24329  10.159   1.728   1.986  0.0431 -0.2522 -0.5401
  181MOL0     C24330  10.031   1.786   2.040 -0.3709  0.0363 -0.1022
  181MOL0     O24331   9.930   1.701   2.066 -0.0828  0.2128 -0.2842
  181MOL0     C24332   9.808   1.747   2.129 -0.6280 -0.1714 -0.1565
  181MOL0     C24333   9.695   1.665   2.104  0.0906 -0.0227  0.4305
  181MOL0     C24334   9.574   1.708   2.160  0.5363  0.6786  1.1610
  181MOL0     C24335   9.566   1.814   2.242 -0.8284 -0.9704 -0.0390
  181MOL0     O24336   9.444   1.861   2.287 -0.0476 -0.1190 -0.6140
  181MOL0     C24337   9.387   1.980   2.227 -0.0426  0.4050  0.5854
  181MOL0     C24338   9.237   1.969   2.252  0.5191  0.1149 -0.1449
  181MOL0     C24339   9.196   2.010   2.395 -0.9017  0.6980  0.1978
  181MOL0     C24340   9.039   2.012   2.397 -0.7179  0.3015 -0.8180
  181MOL0     C24341   8.964   1.955   2.516 -0.7898 -1.1103  0.3808
  181MOL0     C24342   8.975   2.067   2.624 -0.5242  0.0317 -0.1117
  181MOL0     C24343   8.917   2.056   2.759 -0.0346  0.2742 -1.3472
  181MOL0     C24344   8.770   2.050   2.753 -0.0244 -0.4636  0.7854
  181MOL0    Cl24345   8.687   2.210   2.716 -0.1538 -0.0636  0.1708
  181MOL0     C24346   9.675   1.891   2.282 -0.7419 -0.4055  0.7329
  181MOL0     C24347   9.797   1.864   2.212  1.0626  0.4054  0.1474
  181MOL0     O24348  10.028   1.904   2.064 -0.4382  0.1520 -0.8287
  181MOL0     C24349  10.157   1.596   1.940 -0.0555 -0.4980 -0.3328
  181MOL0     C24350  10.269   1.537   1.894  0.0641 -0.0149  0.1622
  181MOL0     N24351  10.771   1.887   2.085  0.2312  0.4985 -0.5736
  181MOL0     N24352  10.723   1.952   2.185  0.9692  0.0606  0.0241
  181MOL0     C24353  11.446   2.602   2.695  0.2213  0.0975 -0.1929
  181MOL0     C24354  11.471   2.733   2.643 -0.9668  0.4535  0.0503
  181MOL0     C24355  11.371   3.123   2.379 -0.3485  0.2472 -0.1295
  181MOL0     C24356  11.279   3.212   2.317  0.1338 -0.1229  0.0705
  181MOL0     C24357  11.321   3.310   2.223  0.8173  0.3893 -0.0213
  181MOL0     C24358  11.462   3.334   2.196  0.7494 -1.1288  0.4452
  181MOL0     O24359  11.513   3.421   2.107  0.4036  0.0052  0.6451
  181MOL0     C24360  11.436   3.532   2.059 -0.1013 -0.2699 -0.1231
  181MOL0     C24361  11.395   3.505   1.914  0.0187 -0.2199  0.2270
  181MOL0     C24362  11.490   3.411   1.836 -0.4763  0.0074 -0.4892
  181MOL0     C24363  11.507   3.450   1.694 -0.5996  0.5803 -0.6402
  181MOL0     C24364  11.389   3.437   1.607  0.8148 -0.4341 -0.5320
  181MOL0     C24365  11.284   3.425   1.537 -0.1248 -0.8867  0.7138
  181MOL0     C24366  11.549   3.250   2.269 -0.3632 -0.7921  1.0714
  181MOL0     C24367  11.504   3.149   2.350 -0.7605  0.2357 -0.1611
  181MOL0     H24368  11.251   2.737   2.393 -0.0388  2.6574  1.4330
  181MOL0     H24369  11.226   2.504   2.454  0.1453  0.5938  0.1824
  181MOL0     H24370  11.151   2.399   2.648 -0.9474 -2.0136 -0.7900
  181MOL0     H24371  11.230   2.255   2.595 -0.0518 -0.5188  1.4985
  181MOL0     H24372  11.309   2.210   2.827 -1.0314 -0.8996  2.8208
  181MOL0     H24373  11.171   2.314   2.875  0.9414  0.7932 -1.0607
  181MOL0     H24374  11.170   2.043   2.737 -0.7019  0.7786  0.0002
  181MOL0     H24375  11.076   2.088   2.878 -2.8329 -1.0429 -0.1719
  181MOL0     H24376  10.938   2.241   2.716  2.0798  2.1855 -0.0266
  181MOL0     H24377  11.036   2.164   2.592 -0.9810  1.4973  0.1764
  181MOL0     H24378  10.952   1.943   2.697 -1.2766 -0.4564  1.8985
  181MOL0     H24379  10.827   2.043   2.773 -1.3452  1.9524 -0.6834
  181MOL0     H24380  10.773   2.144   2.571  3.0782  2.0375 -0.7690
  181MOL0     H24381  10.880   2.049   2.471  1.3929 -2.9683 -0.3170
  181MOL0     H24382  10.769   1.829   2.542  2.9177  0.7720  3.0907
  181MOL0     H24383  10.643   1.915   2.618  0.6320  0.0699 -0.8271
  181MOL0     H24384  10.608   2.034   2.392 -0.0014 -0.2072  1.5659
  181MOL0     H24385  10.555   1.867   2.398 -0.3243  1.0162  1.0000
  181MOL0     H24386  10.815   1.683   2.330 -3.0629 -2.3857  0.4397
  181MOL0     H24387  10.942   1.697   1.984 -0.7429 -0.3640 -0.7462
  181MOL0     H24388  10.945   1.592   2.120  0.9745  0.4364 -1.3044
  181MOL0     H24389  10.685   1.547   2.033 -1.0673  3.0102  0.7599
  181MOL0     H24390  10.803   1.478   1.921 -0.4346 -0.3521  0.5569
  181MOL0     H24391  10.803   1.670   1.776  3.3434 -2.1079  3.4234
  181MOL0     H24392  10.685   1.761   1.872  0.3574  0.4112 -2.7950
  181MOL0     H24393  10.663   1.490   1.743  0.4002  1.0966 -2.3689
  181MOL0     H24394  10.568   1.636   1.698  3.9365  2.6489 -0.8573
  181MOL0     H24395  10.485   1.775   1.901 -0.1107  0.8512  2.8773
  181MOL0     H24396  10.407   1.978   1.985  1.0877  0.0637  4.6215
  181MOL0     H24397  10.235   2.009   1.989 -0.6147  0.0391 -1.6437
  181MOL0     H24398  10.315   1.929   2.129  0.8184  0.2787 -0.6028
  181MOL0     H24399   9.714   1.578   2.042 -0.9760 -1.4027  1.9847
  181MOL0     H24400   9.481   1.656   2.139  1.2302 -0.7545  1.4972
  181MOL0     H24401   9.423   2.077   2.262 -3.1266  0.9732  2.5794
  181MOL0     H24402   9.400   1.975   2.119  1.0782  0.4810  0.7069
  181MOL0     H24403   9.182   2.019   2.172  2.8259  0.1170 -1.8430
  181MOL0     H24404   9.204   1.864   2.248 -2.0478  0.7749  1.1912
  181MOL0     H24405   9.228   2.112   2.420 -0.7209  0.6417  0.1943
  181MOL0     H24406   9.246   1.953   2.474 -4.5533 -1.1266  1.4181
  181MOL0     H24407   9.013   2.117   2.385  3.2995  1.8000  1.7219
  181MOL0     H24408   9.005   1.952   2.312  1.4059 -1.9672 -0.2002
  181MOL0     H24409   9.018   1.866   2.551 -1.2118 -1.3031  0.5451
  181MOL0     H24410   8.861   1.924   2.495 -1.3365  0.8238 -0.0013
  181MOL0     H24411   9.083   2.080   2.633  0.0841 -2.8153 -2.1646
  181MOL0     H24412   8.933   2.159   2.582 -0.5302  0.6813  1.2401
  181MOL0     H24413   8.949   2.146   2.811 -2.2220 -0.4968  1.5615
  181MOL0     H24414   8.951   1.965   2.809 -0.7434  1.4314  1.3721
  181MOL0     H24415   8.738   2.013   2.851  1.2765  1.2996  1.9536
  181MOL0     H24416   8.735   1.974   2.682 -3.8894  0.0626  1.9222
  181MOL0     H24417   9.667   1.971   2.355  0.0641 -0.6444  1.0901
  181MOL0     H24418   9.884   1.923   2.239  0.8099 -0.2406  2.6545
  181MOL0     H24419  10.072   1.531   1.958  0.7405 -1.0078  1.8597
  181MOL0     H24420  10.269   1.429   1.882  1.9177  0.1292 -1.8887
  181MOL0     H24421  11.505   2.563   2.777 -1.2509 -0.3848  0.6665
  181MOL0     H24422  11.548   2.797   2.684  1.2854 -1.7397 -0.5004
  181MOL0     H24423  11.174   3.195   2.338  0.1685  0.6942  0.9803
  181MOL0     H24424  11.250   3.364   2.161  1.2813  1.0710  0.0216
  181MOL0     H24425  11.339   3.550   2.107 -1.7531 -2.4259 -2.3960
  181MOL0     H24426  11.495   3.624   2.056  0.7637 -0.8277 -2.7369
  181MOL0     H24427  11.395   3.606   1.871  1.8125  0.5588  1.9025
  181MOL0     H24428  11.292   3.470   1.925 -0.0366 -0.3574 -0.6478
  181MOL0     H24429  11.452   3.308   1.844 -0.2881 -0.0469 -0.2528
  181MOL0     H24430  11.593   3.420   1.873 -0.9117  2.0749  0.3140
  181MOL0     H24431  11.596   3.400   1.655 -0.0631  1.0702 -0.0784
  181MOL0     H24432  11.527   3.557   1.685 -0.7851  0.5741 -1.1781
  181MOL0     H24433  11.197   3.422   1.475  1.3165 -2.1230 -1.3818
  181MOL0     H24434  11.654   3.244   2.240 -0.2442 -4.4615  1.7374
  181MOL0     H24435  11.569   3.079   2.401 -1.7481  0.8074  1.9857
  182MOL0     O24436   2.326   6.034   0.530 -0.1357 -1.2126 -0.2615
  182MOL0     C24437   2.345   6.108   0.436  0.1362  0.8946  0.2166
  182MOL0     O24438   2.347   6.070   0.302  0.2241 -0.1061 -0.7719
  182MOL0     C24439   2.286   5.957   0.249  0.9626  0.0592  0.3495
  182MOL0     C24440   2.313   5.830   0.296  0.5159  0.5219 -0.0588
  182MOL0     C24441   2.245   5.729   0.239  0.3795  0.2779 -0.0384
  182MOL0     C24442   2.163   5.736   0.134  0.3555  0.2889  0.4867
  182MOL0     O24443   2.097   5.633   0.065  0.5159  0.0548 -0.4124
  182MOL0     C24444   2.156   5.504   0.083  0.5408  0.1333 -0.1484
  182MOL0     C24445   2.079   5.404  -0.006 -0.1338 -0.9622 -0.1976
  182MOL0     C24446   2.069   5.466  -0.149  0.3834 -0.0324 -0.4120
  182MOL0     C24447   1.937   5.447  -0.217 -0.2032 -0.3008  0.4890
  182MOL0     C24448   1.902   5.300  -0.242  0.1944 -0.4210 -0.4739
  182MOL0     C24449   2.016   5.225  -0.309 -0.4191 -0.1941  0.8832
  182MOL0     C24450   1.961   5.090  -0.343 -0.4225  0.4531 -0.0569
  182MOL0     C24451   1.846   5.075  -0.457 -1.5247  0.2580 -0.5598
  182MOL0     N24452   1.854   4.938  -0.517 -0.3159  0.7277  0.2350
  182MOL0     C24453   1.920   4.902  -0.626 -0.0345 -0.0137 -0.3842
  182MOL0     C24454   1.934   4.766  -0.618 -0.3615 -0.3869 -0.5573
  182MOL0     C24455   2.000   4.687  -0.730 -0.8663 -0.2988 -0.5219
  182MOL0     C24456   2.141   4.743  -0.771  0.8251  0.3551 -0.2518
  182MOL0     C24457   2.207   4.650  -0.875 -0.3557 -0.2225 -0.6457
  182MOL0     C24458   2.345   4.698  -0.901 -0.5925 -0.1139  0.0268
  182MOL0     O24459   2.346   4.831  -0.963  0.0574 -0.3619  0.1558
  182MOL0     C24460   2.468   4.881  -0.998  0.6771 -1.0114  1.0310
  182MOL0     C24461   2.479   5.019  -1.010  0.6101 -0.0080 -1.4039
  182MOL0     C24462   2.596   5.090  -1.042  0.1172  0.3466 -0.5094
  182MOL0     C24463   2.595   5.243  -1.058 -0.2949  0.4387 -0.3315
  182MOL0     C24464   2.707   5.017  -1.078  0.1698  0.7534  0.1107
  182MOL0     C24465   2.837   5.085  -1.113  1.7079 -0.4980 -0.7869
  182MOL0     O24466   2.950   5.004  -1.105 -0.0411  0.0344  0.1037
  182MOL0     C24467   3.069   5.049  -1.138 -0.7257  0.3943  0.5216
  182MOL0     C24468   3.123   5.170  -1.091  0.5672  0.6586  0.1760
  182MOL0     C24469   3.260   5.203  -1.115  0.7903  0.4049  0.4103
  182MOL0     C24470   3.337   5.124  -1.188 -0.5757  0.2994  0.7195
  182MOL0     O24471   3.471   5.146  -1.192 -0.9075 -0.2184  0.0134
  182MOL0     C24472   3.523   5.271  -1.228 -0.1948 -0.9763  0.3775
  182MOL0     C24473   3.662   5.243  -1.292 -0.5598 -0.9895 -0.0182
  182MOL0     C24474   3.771   5.244  -1.187  0.2411  1.0298  0.1593
  182MOL0     C24475   3.916   5.223  -1.249  1.1517  0.0603 -0.8775
  182MOL0     C24476   4.017   5.253  -1.146 -0.8160 -0.8366 -0.5623
  182MOL0     C24477   4.167   5.229  -1.192  0.1167 -0.0699  0.2340
  182MOL0     C24478   4.262   5.278  -1.079  0.0279 -0.6163  0.3712
  182MOL0     C24479   4.396   5.226  -1.105  0.3731 -0.2902  0.0319
  182MOL0    Cl24480   4.402   5.043  -1.098  0.6000  0.6865 -0.1642
  182MOL0     C24481   3.290   5.003  -1.240  0.0761  0.2884  0.1349
  182MOL0     C24482   3.159   4.964  -1.220 -0.3627 -0.0199  0.4772
  182MOL0     O24483   2.837   5.197  -1.172  0.6727 -0.4354  0.8388
  182MOL0     C24484   2.698   4.879  -1.052 -0.8775  0.3620  0.5804
  182MOL0     C24485   2.581   4.816  -1.013 -0.5675  0.5730 -0.3945
  182MOL0     N24486   1.883   4.731  -0.491  0.1520  0.2630  0.1332
  182MOL0     N24487   1.828   4.837  -0.436 -0.1325 -0.2140 -0.6737
  182MOL0     C24488   2.134   5.863   0.086 -0.0251 -0.3252 -0.1359
  182MOL0     C24489   2.205   5.973   0.143 -0.6476  0.9350 -0.4568
  182MOL0     C24490   2.363   6.251   0.466 -0.6911 -0.0240  0.6522
  182MOL0     C24491   2.303   6.307   0.577  0.2230  0.5616 -0.4803
  182MOL0     C24492   2.331   6.436   0.616 -0.8657 -0.4241 -0.6262
  182MOL0     C24493   2.413   6.516   0.532 -0.0017 -0.2356 -0.2176
  182MOL0     O24494   2.435   6.655   0.567  0.0481  0.2418 -0.4873
  182MOL0     C24495   2.394   6.702   0.690 -0.2768  0.2948  0.5007
  182MOL0     C24496   2.392   6.857   0.687 -0.5751 -0.7817 -0.2354
  182MOL0     C24497   2.524   6.910   0.758  1.0728  0.1362  0.6779
  182MOL0     C24498   2.538   6.897   0.906 -1.0518  0.8843  0.2218
  182MOL0     C24499   2.440   6.963   0.983 -0.2701 -0.2193  0.4822
  182MOL0     C24500   2.361   7.023   1.061 -0.6036 -0.9414  0.6135
  182MOL0     C24501   2.472   6.472   0.414 -0.5874  0.5777 -0.3250
  182MOL0     C24502   2.445   6.339   0.387  0.0106  0.0012 -0.2000
  182MOL0     H24503   2.362   5.826   0.392 -0.7299  0.0208  0.5884
  182MOL0     H24504   2.270   5.630   0.275  0.1110  0.0505 -0.4748
  182MOL0     H24505   2.255   5.505   0.036  0.7551  1.3559  0.2883
  182MOL0     H24506   2.158   5.474   0.188 -4.4376 -0.5481 -0.0091
  182MOL0     H24507   2.129   5.306  -0.014 -2.0733 -2.2712  2.3844
  182MOL0     H24508   1.985   5.396   0.050 -0.2872 -0.3821 -0.3711
  182MOL0     H24509   2.078   5.575  -0.154  2.4570 -0.1974 -2.0240
  182MOL0     H24510   2.156   5.435  -0.209 -0.1000  0.3594 -1.3467
  182MOL0     H24511   1.850   5.493  -0.170 -2.6357 -2.2318 -1.8248
  182MOL0     H24512   1.953   5.507  -0.306  4.2886  0.0536  1.2522
  182MOL0     H24513   1.893   5.270  -0.137 -1.4844 -1.0579 -0.7700
  182MOL0     H24514   1.803   5.291  -0.286  0.1300 -1.7930 -0.0758
  182MOL0     H24515   2.026   5.283  -0.401 -2.9070 -0.0344  0.6485
  182MOL0     H24516   2.111   5.241  -0.258 -1.2970  3.9130  1.5935
  182MOL0     H24517   2.049   5.032  -0.372  0.4986 -0.1421  3.4819
  182MOL0     H24518   1.945   5.050  -0.243  3.8565 -0.7770  0.3399
  182MOL0     H24519   1.865   5.161  -0.522  2.5794 -0.2963 -0.3115
  182MOL0     H24520   1.745   5.082  -0.414 -0.5709 -2.3352  2.5396
  182MOL0     H24521   1.956   4.959  -0.712  3.3667 -3.1573 -1.2945
  182MOL0     H24522   2.011   4.585  -0.693  1.9212  0.1671  0.2190
  182MOL0     H24523   1.938   4.701  -0.819  0.4451  3.8582 -0.9941
  182MOL0     H24524   2.207   4.750  -0.684 -2.8906 -1.3030  2.9921
  182MOL0     H24525   2.137   4.839  -0.824  3.2110 -0.1773 -1.5915
  182MOL0     H24526   2.145   4.627  -0.962  0.1772 -0.8811 -0.8631
  182MOL0     H24527   2.219   4.550  -0.832  2.7894  0.0978 -0.5083
  182MOL0     H24528   2.412   4.633  -0.957  1.9046  1.8804  0.4986
  182MOL0     H24529   2.387   4.711  -0.801 -1.2840  1.6474  0.1318
  182MOL0     H24530   2.392   5.082  -0.996  1.2210  1.0160 -2.0001
  182MOL0     H24531   2.582   5.268  -1.164 -2.0189  1.4256  0.0703
  182MOL0     H24532   2.507   5.286  -1.010 -1.1619  0.9014 -2.2566
  182MOL0     H24533   2.686   5.298  -1.031 -0.9343  2.5010 -2.0093
  182MOL0     H24534   3.064   5.241  -1.034 -0.7310  0.0932 -0.4130
  182MOL0     H24535   3.304   5.295  -1.076 -1.3198  1.1804  1.1082
  182MOL0     H24536   3.462   5.342  -1.284 -1.5500 -1.1266  1.5823
  182MOL0     H24537   3.531   5.334  -1.139  0.0721  0.7556 -0.8201
  182MOL0     H24538   3.660   5.146  -1.343  0.4173 -0.2462 -1.5248
  182MOL0     H24539   3.683   5.307  -1.378 -2.0975 -5.0847 -3.7983
  182MOL0     H24540   3.759   5.158  -1.121  0.9786  0.6677 -0.1707
  182MOL0     H24541   3.765   5.327  -1.115 -2.3779  2.8960 -1.9539
  182MOL0     H24542   3.925   5.126  -1.298 -3.7258 -1.4041  0.5951
  182MOL0     H24543   3.927   5.290  -1.335  0.4697 -2.8443 -3.4118
  182MOL0     H24544   4.000   5.192  -1.056 -1.9941 -0.1496 -0.3048
  182MOL0     H24545   4.012   5.359  -1.120 -0.0506 -1.1213  0.8773
  182MOL0     H24546   4.189   5.123  -1.202 -2.1538 -0.6735  1.0235
  182MOL0     H24547   4.182   5.281  -1.287 -0.2583  1.3221  0.8951
  182MOL0     H24548   4.215   5.236  -0.990 -0.1530 -0.8568  0.1607
  182MOL0     H24549   4.275   5.386  -1.067  0.3085 -0.3407 -1.9359
  182MOL0     H24550   4.461   5.273  -1.031 -1.5500  3.3756 -0.4110
  182MOL0     H24551   4.432   5.257  -1.204  5.2454 -2.2147  0.8856
  182MOL0     H24552   3.365   4.938  -1.284 -1.5281 -0.4467 -1.6215
  182MOL0     H24553   3.122   4.870  -1.259  1.4571 -1.7512  2.5949
  182MOL0     H24554   2.791   4.825  -1.063 -1.9598 -1.0743 -3.4700
  182MOL0     H24555   2.579   4.708  -1.013 -0.0067  0.5267  1.7363
  182MOL0     H24556   2.061   5.878   0.007 -1.3401 -1.4393  0.8150
  182MOL0     H24557   2.193   6.070   0.097  0.1085  1.5071  0.4997
  182MOL0     H24558   2.231   6.243   0.626 -1.4328  3.2409  0.8248
  182MOL0     H24559   2.288   6.471   0.709 -2.4790 -0.5440 -1.3026
  182MOL0     H24560   2.288   6.674   0.686 -0.6087  1.4953  0.6419
  182MOL0     H24561   2.448   6.659   0.775 -2.2999  3.4257  3.6616
  182MOL0     H24562   2.310   6.897   0.747  0.2961  2.7917 -1.1888
  182MOL0     H24563   2.385   6.908   0.591 -1.6726 -1.4945 -0.5498
  182MOL0     H24564   2.530   7.019   0.743 -0.2079  0.2227  0.6981
  182MOL0     H24565   2.610   6.876   0.699 -0.4255  1.3518 -2.4746
  182MOL0     H24566   2.633   6.941   0.935 -1.2709  0.3115  1.9054
  182MOL0     H24567   2.552   6.796   0.946  0.0859  2.4834  4.2464
  182MOL0     H24568   2.290   7.084   1.114 -0.6096  1.3675 -1.8245
  182MOL0     H24569   2.529   6.539   0.350 -2.7394  0.3098 -2.6466
  182MOL0     H24570   2.495   6.296   0.301  3.2486  1.8488  0.5691
  183MOL0     O24571   8.350   6.046   3.869  0.0352  0.3670 -0.2449
  183MOL0     C24572   8.236   6.013   3.875  0.1829  0.2707 -0.1145
  183MOL0     O24573   8.168   5.962   3.987 -0.4644 -0.1269  0.5784
  183MOL0     C24574   8.238   5.965   4.106  0.0035  1.2367 -1.1583
  183MOL0     C24575   8.188   6.054   4.200 -1.2957 -0.4521  0.0027
  183MOL0     C24576   8.256   6.059   4.329  0.6602  0.1599  0.1903
  183MOL0     C24577   8.347   5.959   4.355 -0.8429 -0.2566 -0.0254
  183MOL0     O24578   8.416   5.949   4.475 -0.3329 -0.1005  1.2155
  183MOL0     C24579   8.365   6.004   4.600 -0.2896 -0.5169 -0.3234
  183MOL0     C24580   8.245   5.921   4.651  0.2970  0.3948 -0.2576
  183MOL0     C24581   8.185   5.972   4.773 -0.0419 -0.2828  0.7044
  183MOL0     C24582   8.266   5.980   4.910  0.1758  0.3724 -0.2120
  183MOL0     C24583   8.191   6.005   5.037 -0.4278 -0.8681 -0.0730
  183MOL0     C24584   8.050   5.933   5.056  0.3509  0.0307 -0.1855
  183MOL0     C24585   8.054   5.787   5.101 -0.4588  0.4086 -0.0247
  183MOL0     C24586   7.912   5.734   5.143  0.3225  0.0347 -0.6222
  183MOL0     N24587   7.824   5.727   5.019 -1.0703 -1.4017 -0.4059
  183MOL0     C24588   7.823   5.621   4.932  0.7875  0.2925  0.3593
  183MOL0     C24589   7.714   5.639   4.848  0.2354 -1.1399 -1.0929
  183MOL0     C24590   7.644   5.553   4.752  0.5224 -0.2494 -0.6275
  183MOL0     C24591   7.623   5.642   4.626  0.1172  0.6698 -0.3916
  183MOL0     C24592   7.582   5.562   4.502 -1.0372  0.2447  0.4911
  183MOL0     C24593   7.453   5.485   4.513 -0.6040  0.4189  0.2316
  183MOL0     O24594   7.341   5.565   4.559 -0.6289 -0.7356  0.3950
  183MOL0     C24595   7.291   5.671   4.478  0.1625  0.0968 -0.0085
  183MOL0     C24596   7.295   5.803   4.517  0.1800  0.1627 -0.5561
  183MOL0     C24597   7.241   5.911   4.446  1.0831  0.4967 -0.8515
  183MOL0     C24598   7.245   6.043   4.525 -0.2624 -0.6238  0.4734
  183MOL0     C24599   7.173   5.876   4.324 -0.2528 -1.0747  0.2788
  183MOL0     C24600   7.092   5.962   4.241 -0.4886 -0.0636 -0.9238
  183MOL0     O24601   7.003   5.910   4.155  0.4997 -0.7171  0.6294
  183MOL0     C24602   6.919   5.983   4.076 -0.5351 -0.0698  0.3203
  183MOL0     C24603   6.839   6.079   4.129 -0.7524  0.0613  0.1938
  183MOL0     C24604   6.752   6.147   4.042  0.6121 -0.8470  0.0662
  183MOL0     C24605   6.714   6.090   3.911 -0.2829 -0.3211 -1.4787
  183MOL0     O24606   6.619   6.147   3.830 -0.2133 -0.4512 -0.2807
  183MOL0     C24607   6.516   6.224   3.896  0.2548 -0.9723  0.7367
  183MOL0     C24608   6.384   6.223   3.815  0.3867  0.2637 -0.2943
  183MOL0     C24609   6.278   6.297   3.904 -0.2874  0.2023 -0.9381
  183MOL0     C24610   6.145   6.282   3.842  0.7150  0.5741  0.4872
  183MOL0     C24611   6.048   6.375   3.902  1.1005 -0.1548 -0.0342
  183MOL0     C24612   5.908   6.369   3.835 -0.1189 -0.0237 -0.4789
  183MOL0     C24613   5.811   6.475   3.887  0.0620 -0.5049 -0.0929
  183MOL0     C24614   5.776   6.449   4.034  0.2717  0.1184 -0.9319
  183MOL0    Cl24615   5.615   6.533   4.076  0.3357  0.3742 -0.1741
  183MOL0     C24616   6.776   5.976   3.874  0.1144 -0.9495  0.4738
  183MOL0     C24617   6.888   5.931   3.949 -0.5827  0.2648 -0.2550
  183MOL0     O24618   7.116   6.086   4.244  0.2448 -0.1851 -0.2656
  183MOL0     C24619   7.169   5.738   4.289  0.4641 -0.6946  0.4676
  183MOL0     C24620   7.221   5.637   4.359 -0.4442  0.4834 -1.0820
  183MOL0     N24621   7.640   5.744   4.911  0.5013  1.4167 -0.3136
  183MOL0     N24622   7.714   5.801   5.001  0.4687  0.3044  0.2536
  183MOL0     C24623   8.393   5.870   4.256  0.7729 -0.1309 -0.4663
  183MOL0     C24624   8.330   5.861   4.139 -0.2119 -0.3802  0.5765
  183MOL0     C24625   8.156   6.036   3.749  0.1728  0.0277  0.2679
  183MOL0     C24626   8.031   5.984   3.720 -0.2698 -1.4142 -0.3128
  183MOL0     C24627   7.965   6.027   3.603  0.0624 -0.2278 -0.1645
  183MOL0     C24628   8.026   6.098   3.503 -0.4331  0.3525  0.1875
  183MOL0     O24629   7.945   6.122   3.392  0.2365 -0.0934 -0.2836
  183MOL0     C24630   7.975   6.216   3.290 -0.0329  0.5317  0.7700
  183MOL0     C24631   7.914   6.353   3.325  0.6686 -0.3676  0.0854
  183MOL0     C24632   7.910   6.459   3.203  0.1347 -0.5615  0.4921
  183MOL0     C24633   7.875   6.605   3.243  0.7567 -0.2132 -0.7247
  183MOL0     C24634   7.907   6.702   3.141  0.1957 -0.4805  1.0577
  183MOL0     C24635   7.944   6.782   3.052 -0.6267  0.1673  0.4906
  183MOL0     C24636   8.155   6.137   3.522 -0.0991 -0.0481 -0.3003
  183MOL0     C24637   8.220   6.107   3.641 -1.0527  0.2563 -0.0529
  183MOL0     H24638   8.105   6.120   4.178  0.5239  1.9369 -0.2243
  183MOL0     H24639   8.214   6.132   4.398 -1.0766  1.7170 -2.3271
  183MOL0     H24640   8.444   5.994   4.674 -0.1260  1.4523 -0.1664
  183MOL0     H24641   8.346   6.112   4.603 -0.5568 -0.5326 -1.0872
  183MOL0     H24642   8.167   5.933   4.576  1.3530  3.0181 -1.0319
  183MOL0     H24643   8.272   5.815   4.660  0.7644  0.3296 -2.0185
  183MOL0     H24644   8.157   6.076   4.754 -0.7719 -0.7905 -1.2050
  183MOL0     H24645   8.098   5.907   4.786 -0.9899  1.2619  2.7066
  183MOL0     H24646   8.318   5.885   4.925  0.3446  0.4967  0.0056
  183MOL0     H24647   8.344   6.057   4.904 -0.5067  0.9551 -3.2050
  183MOL0     H24648   8.256   5.987   5.124 -0.5248 -0.4031  0.1031
  183MOL0     H24649   8.162   6.111   5.030  1.5777 -0.1360  1.6526
  183MOL0     H24650   7.994   5.991   5.129 -0.3446  1.5795 -1.8815
  183MOL0     H24651   7.994   5.924   4.963 -2.8635  1.0752  1.5168
  183MOL0     H24652   8.102   5.722   5.027  0.9820  1.8114 -0.3608
  183MOL0     H24653   8.118   5.783   5.189 -0.3015  2.7791  0.0337
  183MOL0     H24654   7.870   5.801   5.219  0.7006 -1.5886  1.0646
  183MOL0     H24655   7.924   5.635   5.188 -2.2055 -0.9706 -1.9572
  183MOL0     H24656   7.904   5.548   4.930  0.9866  0.5070 -1.5675
  183MOL0     H24657   7.705   5.466   4.727 -0.4036 -1.0569 -0.1185
  183MOL0     H24658   7.552   5.515   4.798  0.6512  0.2602  0.0710
  183MOL0     H24659   7.711   5.685   4.576 -0.7016  1.6608 -1.0242
  183MOL0     H24660   7.556   5.726   4.645 -3.0934 -1.0618 -3.1500
  183MOL0     H24661   7.670   5.502   4.478 -1.4022 -0.7927  1.6507
  183MOL0     H24662   7.566   5.639   4.426 -3.7987 -2.3096 -1.8114
  183MOL0     H24663   7.461   5.396   4.576 -3.5271  0.1180  0.3059
  183MOL0     H24664   7.423   5.446   4.415  3.0318 -1.8222 -0.1832
  183MOL0     H24665   7.348   5.830   4.608 -2.3331  2.1761  0.4649
  183MOL0     H24666   7.347   6.083   4.527 -0.0613 -1.0938  2.9632
  183MOL0     H24667   7.169   6.113   4.490  0.1818  0.1689  1.0496
  183MOL0     H24668   7.228   6.033   4.633  1.7554 -1.5565  0.7607
  183MOL0     H24669   6.859   6.124   4.226 -2.4351 -2.4540  1.8299
  183MOL0     H24670   6.694   6.230   4.081 -0.8205 -2.5479  1.7681
  183MOL0     H24671   6.494   6.165   3.985 -1.1712 -3.4562 -1.0957
  183MOL0     H24672   6.552   6.325   3.919  0.2301  0.2931 -3.7934
  183MOL0     H24673   6.414   6.284   3.729 -1.5842  1.7356 -0.0055
  183MOL0     H24674   6.371   6.117   3.792 -2.2666 -0.0558  2.1269
  183MOL0     H24675   6.301   6.403   3.893 -5.2420  1.2419 -4.9988
  183MOL0     H24676   6.281   6.268   4.010 -1.3006  0.0380 -0.9408
  183MOL0     H24677   6.151   6.292   3.734 -1.4238  1.9942  0.4574
  183MOL0     H24678   6.105   6.184   3.868  2.5492 -0.1014  0.9802
  183MOL0     H24679   6.086   6.477   3.893  2.3253 -0.3721  1.9689
  183MOL0     H24680   6.037   6.349   4.008 -1.0558 -3.1042 -0.8250
  183MOL0     H24681   5.913   6.374   3.726  4.6175 -1.0652 -0.5101
  183MOL0     H24682   5.854   6.279   3.867 -0.1542  0.0633 -0.2927
  183MOL0     H24683   5.718   6.460   3.833 -0.1679 -1.0705  0.4392
  183MOL0     H24684   5.845   6.578   3.874 -0.8990  0.6207  4.4049
  183MOL0     H24685   5.854   6.481   4.104  0.3140  1.2800 -1.4921
  183MOL0     H24686   5.755   6.343   4.045 -2.1334  0.6669  0.7101
  183MOL0     H24687   6.753   5.929   3.780 -2.6745  2.0229 -0.5295
  183MOL0     H24688   6.947   5.845   3.919 -4.3771 -2.6954  0.0081
  183MOL0     H24689   7.108   5.715   4.202  0.9043  1.5262 -0.4847
  183MOL0     H24690   7.198   5.537   4.325  3.3736 -1.8521  2.3471
  183MOL0     H24691   8.465   5.790   4.267  1.8873  0.6473 -1.8322
  183MOL0     H24692   8.358   5.800   4.054  1.1442 -0.9378  1.3867
  183MOL0     H24693   7.985   5.932   3.804 -1.1603  1.0516  0.8240
  183MOL0     H24694   7.858   6.013   3.589  0.4312 -2.0285 -1.5231
  183MOL0     H24695   8.078   6.226   3.256 -0.9556 -0.8264 -2.9244
  183MOL0     H24696   7.914   6.184   3.205 -1.0249  1.7235  0.9993
  183MOL0     H24697   7.968   6.407   3.403  0.8525  0.8477 -0.8555
  183MOL0     H24698   7.811   6.322   3.345  1.3566 -3.7158 -0.8679
  183MOL0     H24699   7.837   6.415   3.134 -1.2915 -0.0045  1.5869
  183MOL0     H24700   8.011   6.463   3.161  0.8760  0.2734  2.2245
  183MOL0     H24701   7.932   6.628   3.334  1.0632  0.7576 -1.1484
  183MOL0     H24702   7.767   6.612   3.260  0.8849 -2.2091  1.3497
  183MOL0     H24703   7.983   6.839   2.970  0.2286  1.1052  1.5359
  183MOL0     H24704   8.204   6.196   3.445 -2.0470  2.7547  0.4428
  183MOL0     H24705   8.317   6.155   3.648 -1.1941  0.6703 -0.8135
  184MOL0     O24706   6.281  10.286   6.197  0.9442 -0.2267 -1.6463
  184MOL0     C24707   6.403  10.284   6.166 -0.8093 -0.0510 -0.1918
  184MOL0     O24708   6.505  10.219   6.240  0.8999 -0.2906  0.4154
  184MOL0     C24709   6.476  10.174   6.365  0.4054  0.7156 -0.4952
  184MOL0     C24710   6.526  10.220   6.482 -1.0732 -0.0011  0.3374
  184MOL0     C24711   6.509  10.160   6.609  1.3037  0.6423  0.7981
  184MOL0     C24712   6.423  10.043   6.622 -0.3942  0.0658 -0.2545
  184MOL0     O24713   6.398   9.974   6.741  0.5529  0.0168  0.0095
  184MOL0     C24714   6.444  10.029   6.865 -0.7107 -0.3779 -0.1180
  184MOL0     C24715   6.327  10.076   6.947 -0.1683 -0.7480  1.0294
  184MOL0     C24716   6.276  10.227   6.928  0.4634  1.2184  0.3262
  184MOL0     C24717   6.176  10.263   7.035 -0.3511  0.2149  0.1932
  184MOL0     C24718   6.245  10.284   7.175 -0.1319 -0.5627 -0.7140
  184MOL0     C24719   6.356  10.398   7.179 -0.7994 -1.4642  0.0599
  184MOL0     C24720   6.432  10.392   7.311 -1.1270  1.2741 -0.6883
  184MOL0     C24721   6.574  10.440   7.307 -1.5001 -1.2057 -0.5814
  184MOL0     N24722   6.604  10.564   7.225 -0.3543  0.3107 -0.7381
  184MOL0     C24723   6.561  10.680   7.251  0.3391  0.8894  0.2462
  184MOL0     C24724   6.592  10.756   7.152  0.1965 -0.8216  0.6236
  184MOL0     C24725   6.555  10.903   7.139 -0.4764 -0.3033  0.1526
  184MOL0     C24726   6.431  10.924   7.046  0.0476 -0.7006 -0.2822
  184MOL0     C24727   6.435  10.863   6.908 -0.2110 -0.8001  1.0315
  184MOL0     C24728   6.554  10.902   6.826 -0.3208  0.7094 -0.4249
  184MOL0     O24729   6.557  11.037   6.793 -0.1192 -0.9092  0.9437
  184MOL0     C24730   6.679  11.058   6.742  1.0909  0.1396 -0.2253
  184MOL0     C24731   6.768  11.152   6.802  0.3463  0.9120 -0.2845
  184MOL0     C24732   6.899  11.179   6.748  0.2360 -0.1601  0.6095
  184MOL0     C24733   6.976  11.289   6.820 -0.8084  0.2743 -0.2843
  184MOL0     C24734   6.932  11.126   6.618 -0.0320  0.0427  0.4268
  184MOL0     C24735   7.054  11.173   6.550  0.4406 -0.2608  0.7690
  184MOL0     O24736   7.162  11.234   6.618 -0.3414 -0.2622  0.0893
  184MOL0     C24737   7.262  11.304   6.542  0.0109  0.8151 -0.0856
  184MOL0     C24738   7.298  11.434   6.571  0.1690 -1.2892  0.5217
  184MOL0     C24739   7.389  11.505   6.497  0.3990 -0.3191  1.1572
  184MOL0     C24740   7.444  11.446   6.382  0.9839 -0.3762 -0.5786
  184MOL0     O24741   7.542  11.498   6.306  0.6199  0.3529  0.2089
  184MOL0     C24742   7.555  11.643   6.310  0.9088 -0.8441  0.0249
  184MOL0     C24743   7.648  11.687   6.201 -0.7194 -0.5367  0.4642
  184MOL0     C24744   7.788  11.636   6.209 -0.7939 -0.0567  0.0340
  184MOL0     C24745   7.863  11.680   6.332  0.1365 -1.3060  0.9439
  184MOL0     C24746   8.017  11.645   6.316 -0.0570 -0.5342  0.1541
  184MOL0     C24747   8.086  11.695   6.446 -0.4713  0.0873  0.3117
  184MOL0     C24748   8.231  11.644   6.457 -0.0295 -0.1260  0.5602
  184MOL0     C24749   8.265  11.640   6.609 -0.3126  0.2596 -0.3103
  184MOL0    Cl24750   8.168  11.494   6.661  0.0552  0.1860 -0.0868
  184MOL0     C24751   7.409  11.318   6.347  0.3419 -0.0836 -0.1451
  184MOL0     C24752   7.329  11.239   6.428 -0.9197 -0.1378 -0.6179
  184MOL0     O24753   7.056  11.130   6.441 -0.2370  0.6853  0.4437
  184MOL0     C24754   6.836  11.045   6.556 -0.0716  0.1312 -0.2238
  184MOL0     C24755   6.717  11.021   6.615 -0.9757  0.1502  0.4072
  184MOL0     N24756   6.664  10.683   7.064  0.6404  0.3795 -0.0522
  184MOL0     N24757   6.663  10.561   7.101  0.5844 -0.3218  0.4401
  184MOL0     C24758   6.362   9.996   6.504 -0.4952 -0.3905  0.6062
  184MOL0     C24759   6.380  10.075   6.387 -0.0584  0.0353  0.7495
  184MOL0     C24760   6.438  10.369   6.045 -0.9499 -0.2335  0.2947
  184MOL0     C24761   6.555  10.342   5.975 -1.1362  0.0514 -0.0999
  184MOL0     C24762   6.583  10.405   5.858 -0.2482  0.4762  0.7504
  184MOL0     C24763   6.509  10.517   5.811  0.5718 -0.3629 -0.5461
  184MOL0     O24764   6.558  10.585   5.704 -0.3786  0.5957 -0.8678
  184MOL0     C24765   6.482  10.690   5.650  0.6971  0.1832 -0.0213
  184MOL0     C24766   6.395  10.627   5.535 -0.0760 -0.7484 -0.5589
  184MOL0     C24767   6.241  10.599   5.574  0.6517  0.5167  0.2859
  184MOL0     C24768   6.146  10.613   5.458  0.6453 -0.5907 -0.8185
  184MOL0     C24769   6.144  10.482   5.377 -0.1267 -0.6753  0.3993
  184MOL0     C24770   6.129  10.372   5.325 -0.9514 -0.8320 -0.4514
  184MOL0     C24771   6.377  10.539   5.883 -0.8859 -0.8382 -0.0671
  184MOL0     C24772   6.348  10.469   5.998  0.0779 -0.4958 -0.9163
  184MOL0     H24773   6.607  10.291   6.479  1.7438 -2.9537  1.0671
  184MOL0     H24774   6.565  10.200   6.693  1.1009 -0.9359  1.7164
  184MOL0     H24775   6.492   9.947   6.919  0.1577 -0.3267 -0.7734
  184MOL0     H24776   6.518  10.109   6.851  1.1792 -2.1673 -1.0064
  184MOL0     H24777   6.238  10.016   6.929  0.5169 -2.0179  1.7378
  184MOL0     H24778   6.353  10.059   7.052 -0.5001 -2.0324  0.9207
  184MOL0     H24779   6.363  10.291   6.915 -0.3980  2.4025  0.2825
  184MOL0     H24780   6.232  10.217   6.829  1.0840 -5.1661  0.2458
  184MOL0     H24781   6.112  10.344   7.000 -1.6306 -0.1570  1.5783
  184MOL0     H24782   6.103  10.182   7.038 -3.7194  2.7037 -3.7619
  184MOL0     H24783   6.167  10.308   7.247 -2.8216 -0.8842 -3.3326
  184MOL0     H24784   6.288  10.190   7.210 -0.8493  0.1837  2.4398
  184MOL0     H24785   6.428  10.397   7.096 -0.9634  0.0134 -0.1240
  184MOL0     H24786   6.307  10.496   7.183  3.3629  0.8843 -0.7714
  184MOL0     H24787   6.371  10.455   7.377 -1.9575  0.7440 -0.9340
  184MOL0     H24788   6.424  10.286   7.337 -2.0880  1.2916 -0.8823
  184MOL0     H24789   6.640  10.353   7.294  1.9467  0.9968  0.6789
  184MOL0     H24790   6.590  10.475   7.409  1.3890  3.0878 -2.2330
  184MOL0     H24791   6.492  10.693   7.334 -2.3539 -3.4335 -0.9832
  184MOL0     H24792   6.533  10.943   7.239  2.4400  0.8537  0.4307
  184MOL0     H24793   6.629  10.961   7.084 -1.5039  1.0346  0.1405
  184MOL0     H24794   6.415  11.032   7.034 -0.8014 -0.2057  3.7107
  184MOL0     H24795   6.342  10.879   7.092 -1.0899 -0.0166 -1.7609
  184MOL0     H24796   6.353  10.893   6.842  1.6053  1.4319 -0.3559
  184MOL0     H24797   6.436  10.755   6.927  3.6862 -1.3388 -1.1642
  184MOL0     H24798   6.560  10.841   6.736 -0.9412  3.8215 -2.7420
  184MOL0     H24799   6.645  10.871   6.879 -2.1676 -2.3923  1.2305
  184MOL0     H24800   6.740  11.174   6.905 -0.7256 -3.3301  0.4956
  184MOL0     H24801   6.992  11.374   6.753  1.0459 -0.5444 -0.9362
  184MOL0     H24802   6.924  11.314   6.913  0.2221  0.8081  0.1590
  184MOL0     H24803   7.076  11.251   6.841 -0.2630  0.1488 -2.8363
  184MOL0     H24804   7.255  11.485   6.657  0.0068  0.4267 -0.5528
  184MOL0     H24805   7.424  11.606   6.514 -0.5605 -0.2523  2.9912
  184MOL0     H24806   7.463  11.691   6.276  2.9934  2.1958 -1.8974
  184MOL0     H24807   7.591  11.699   6.397 -2.0669  0.1642  0.7241
  184MOL0     H24808   7.596  11.659   6.109  2.3172  0.4438 -1.7054
  184MOL0     H24809   7.639  11.796   6.212 -1.3023 -0.5678  0.3057
  184MOL0     H24810   7.844  11.678   6.124 -0.8372  1.4999  0.7541
  184MOL0     H24811   7.792  11.527   6.198 -0.2534 -0.0051 -0.3584
  184MOL0     H24812   7.852  11.788   6.348 -1.2783 -1.7683  3.7473
  184MOL0     H24813   7.820  11.631   6.420  2.9394 -2.7710  1.6237
  184MOL0     H24814   8.045  11.708   6.230  1.2403  2.1503  2.3792
  184MOL0     H24815   8.038  11.540   6.296 -0.9657 -0.7681  0.4081
  184MOL0     H24816   8.102  11.803   6.439 -1.0531  0.3904  2.8293
  184MOL0     H24817   8.018  11.672   6.528 -3.3095  2.3666 -1.2361
  184MOL0     H24818   8.294  11.715   6.403 -0.8581 -0.5347 -1.0056
  184MOL0     H24819   8.243  11.544   6.414  1.2728  1.8053 -4.3143
  184MOL0     H24820   8.237  11.733   6.659  2.5694  1.2829 -0.3879
  184MOL0     H24821   8.371  11.611   6.612 -1.0234 -2.7631 -1.3985
  184MOL0     H24822   7.455  11.273   6.260  1.9001 -0.5858  0.8843
  184MOL0     H24823   7.306  11.140   6.391  2.6667 -0.8916 -1.2222
  184MOL0     H24824   6.846  11.005   6.455 -0.8778 -2.8489  0.7622
  184MOL0     H24825   6.635  10.975   6.562  0.1930 -0.3546 -1.0169
  184MOL0     H24826   6.290   9.915   6.512 -1.4992  0.6270  2.8876
  184MOL0     H24827   6.324  10.037   6.302  1.2537 -1.1941  0.3779
  184MOL0     H24828   6.608  10.254   6.012 -1.5680 -1.6999 -3.2732
  184MOL0     H24829   6.667  10.379   5.794 -1.0919  0.8992 -0.5603
  184MOL0     H24830   6.417  10.745   5.719 -1.2429 -2.2549  0.2676
  184MOL0     H24831   6.545  10.759   5.594 -2.9218  1.4183 -3.0121
  184MOL0     H24832   6.442  10.547   5.477  3.1217 -0.1904  1.0799
  184MOL0     H24833   6.392  10.702   5.455 -0.7367 -1.5897 -1.3419
  184MOL0     H24834   6.218  10.654   5.665  1.7091 -0.8027  1.3882
  184MOL0     H24835   6.236  10.491   5.594 -1.9780  0.2072 -1.4694
  184MOL0     H24836   6.183  10.691   5.390  0.4189  0.2557  0.0169
  184MOL0     H24837   6.049  10.647   5.495  1.0393 -2.2535  2.0224
  184MOL0     H24838   6.124  10.273   5.282 -0.6041 -1.4398  0.8709
  184MOL0     H24839   6.312  10.616   5.843  1.7283 -0.0524 -3.2527
  184MOL0     H24840   6.252  10.479   6.047 -2.4389 -2.5786 -4.9266
  185MOL0     O24841   2.253   9.885   8.072 -0.6998 -0.7866 -0.3827
  185MOL0     C24842   2.307   9.776   8.089  0.0304  0.5476 -0.3797
  185MOL0     O24843   2.244   9.652   8.085 -0.2674 -0.0279  0.4993
  185MOL0     C24844   2.119   9.637   8.059  0.0679 -0.0674 -0.2066
  185MOL0     C24845   2.073   9.673   7.938  0.0092 -0.0637 -0.0416
  185MOL0     C24846   1.931   9.668   7.907 -0.5874  0.7698  0.5144
  185MOL0     C24847   1.846   9.625   8.008 -0.0714 -0.4356 -0.4758
  185MOL0     O24848   1.710   9.633   7.982  0.8634 -0.7133  0.1036
  185MOL0     C24849   1.632   9.680   8.090 -0.1266 -0.2300  0.3593
  185MOL0     C24850   1.520   9.761   8.034  0.4539  0.0494 -0.1056
  185MOL0     C24851   1.566   9.902   7.980 -0.4406 -0.2440 -0.9394
  185MOL0     C24852   1.450   9.961   7.902  0.9200 -1.0853 -0.2918
  185MOL0     C24853   1.513  10.054   7.787 -0.4837 -0.5872 -0.1797
  185MOL0     C24854   1.398  10.132   7.720  1.1785 -0.5806 -0.9154
  185MOL0     C24855   1.423  10.239   7.615  0.6972  0.2265  0.7698
  185MOL0     C24856   1.298  10.300   7.560 -0.2093 -0.6784 -0.7123
  185MOL0     N24857   1.344  10.388   7.455 -0.1491 -0.2396 -0.0619
  185MOL0     C24858   1.357  10.527   7.477 -0.2129 -0.0049  0.0333
  185MOL0     C24859   1.435  10.569   7.378  0.3330  0.7670 -0.1141
  185MOL0     C24860   1.492  10.703   7.332 -0.0024  0.1919 -0.1688
  185MOL0     C24861   1.622  10.759   7.404 -0.2100 -0.5169  0.4346
  185MOL0     C24862   1.657  10.896   7.340 -0.6786  0.4339  0.0374
  185MOL0     C24863   1.697  10.998   7.448  0.2140 -0.4871  0.0163
  185MOL0     O24864   1.781  10.949   7.557  1.6960  0.4534  0.7949
  185MOL0     C24865   1.834  11.037   7.647  0.1164 -0.5600  0.7739
  185MOL0     C24866   1.823  11.181   7.637  0.0072 -0.1575  0.1182
  185MOL0     C24867   1.892  11.254   7.742 -0.6662  0.4405 -0.2703
  185MOL0     C24868   1.911  11.404   7.718  0.0469  0.1803  0.1416
  185MOL0     C24869   1.954  11.189   7.855 -0.0644 -0.5062 -0.2383
  185MOL0     C24870   2.038  11.259   7.966  0.5520  0.2048 -1.1647
  185MOL0     O24871   2.082  11.185   8.068  0.7579  0.0956 -0.2000
  185MOL0     C24872   2.137  11.238   8.183 -0.0816 -0.0714  0.1194
  185MOL0     C24873   2.056  11.247   8.292  0.5163  0.8374 -0.7357
  185MOL0     C24874   2.094  11.310   8.412 -1.1324  0.1318 -0.3701
  185MOL0     C24875   2.233  11.355   8.426 -0.3122  0.0772  1.1091
  185MOL0     O24876   2.274  11.414   8.547  0.9490  0.0693  0.7641
  185MOL0     C24877   2.410  11.442   8.573 -0.5270 -0.1409  0.3425
  185MOL0     C24878   2.422  11.494   8.715 -0.2408  0.3002  0.4872
  185MOL0     C24879   2.570  11.529   8.739  0.1948 -0.7235  0.7122
  185MOL0     C24880   2.601  11.601   8.866  0.3498  1.4709  1.0359
  185MOL0     C24881   2.751  11.612   8.897 -0.2205 -0.7232  0.5445
  185MOL0     C24882   2.797  11.657   9.037  0.8200  0.2835  0.0005
  185MOL0     C24883   2.942  11.674   9.054  0.0932 -1.3464 -1.0516
  185MOL0     C24884   2.968  11.738   9.185 -0.9515 -1.4650 -0.5665
  185MOL0    Cl24885   2.876  11.656   9.326  0.3059  0.0634 -0.1624
  185MOL0     C24886   2.319  11.350   8.319  0.7416 -0.2759 -1.3263
  185MOL0     C24887   2.269  11.284   8.201 -0.1753 -0.1491  0.9816
  185MOL0     O24888   2.043  11.380   7.970 -0.3465  0.3689 -0.4428
  185MOL0     C24889   1.939  11.055   7.858 -0.3563  0.7788 -0.3403
  185MOL0     C24890   1.884  10.972   7.761  0.2718 -0.1304 -0.8960
  185MOL0     N24891   1.481  10.458   7.307 -0.1708 -0.1941  0.8035
  185MOL0     N24892   1.420  10.353   7.353  0.1410 -0.4812 -0.3855
  185MOL0     C24893   1.891   9.592   8.129 -0.3413 -0.3712 -0.5621
  185MOL0     C24894   2.030   9.591   8.157 -0.4883  0.0308 -0.0098
  185MOL0     C24895   2.458   9.776   8.118  0.4093  0.6298  0.9239
  185MOL0     C24896   2.541   9.662   8.113  0.4809  0.2853 -0.3450
  185MOL0     C24897   2.673   9.672   8.152 -0.0675  0.1038  0.4261
  185MOL0     C24898   2.736   9.794   8.189 -0.1575  0.0482  0.0432
  185MOL0     O24899   2.861   9.811   8.244  0.0370 -0.7966  0.6836
  185MOL0     C24900   2.941   9.694   8.254 -0.3657 -0.6965 -0.2494
  185MOL0     C24901   2.904   9.590   8.367  0.0076 -0.3698  0.1173
  185MOL0     C24902   2.990   9.463   8.356  0.6223  0.5933  0.1259
  185MOL0     C24903   3.137   9.503   8.370 -1.1020  0.2863 -1.3139
  185MOL0     C24904   3.231   9.397   8.406  0.9054  0.2019  0.5179
  185MOL0     C24905   3.316   9.324   8.430 -0.3659 -0.3574 -0.8240
  185MOL0     C24906   2.656   9.900   8.192  0.9017 -0.1593 -1.0115
  185MOL0     C24907   2.517   9.906   8.153  0.7425  0.8857 -0.9474
  185MOL0     H24908   2.134   9.727   7.866 -0.7551  1.3951  0.3667
  185MOL0     H24909   1.887   9.696   7.812  0.3359  1.9324  0.4085
  185MOL0     H24910   1.610   9.585   8.139 -1.2377  0.3847  1.1053
  185MOL0     H24911   1.680   9.742   8.167 -1.4834  1.5454 -0.1540
  185MOL0     H24912   1.476   9.698   7.957  0.9701  0.6156 -0.8824
  185MOL0     H24913   1.439   9.779   8.104  0.0610 -3.0030  0.3429
  185MOL0     H24914   1.578   9.969   8.066  0.4478 -1.8352  0.2328
  185MOL0     H24915   1.653   9.880   7.917  0.0867  0.9250 -0.6372
  185MOL0     H24916   1.396   9.881   7.850  0.9348 -2.1111  1.2179
  185MOL0     H24917   1.377  10.022   7.955 -0.3128  0.2614 -3.3010
  185MOL0     H24918   1.592  10.112   7.834  2.0500 -3.3107 -0.7518
  185MOL0     H24919   1.550   9.982   7.713 -3.9479 -0.7029 -2.0487
  185MOL0     H24920   1.324  10.063   7.678 -0.0748  1.0670 -1.5149
  185MOL0     H24921   1.355  10.201   7.793 -3.1543 -2.0499 -1.7485
  185MOL0     H24922   1.491  10.310   7.663 -0.6345  1.4361  0.9712
  185MOL0     H24923   1.471  10.191   7.530  0.2882 -0.3422  0.8561
  185MOL0     H24924   1.254  10.353   7.644 -2.2362 -0.8712 -1.5886
  185MOL0     H24925   1.220  10.226   7.538  1.0894 -1.6130 -2.3674
  185MOL0     H24926   1.309  10.575   7.562 -1.8966 -1.5115  0.0063
  185MOL0     H24927   1.506  10.690   7.224 -1.6601  1.4652 -0.5744
  185MOL0     H24928   1.411  10.771   7.362  1.6350  2.1826 -0.0427
  185MOL0     H24929   1.713  10.704   7.376  0.3940  1.1178 -0.9778
  185MOL0     H24930   1.609  10.778   7.510 -1.4506  2.4681 -0.1611
  185MOL0     H24931   1.564  10.933   7.296 -1.6206  1.0057  2.3540
  185MOL0     H24932   1.726  10.883   7.256 -2.7804  1.3789 -1.9412
  185MOL0     H24933   1.605  11.043   7.488  1.5098  0.6019  1.9334
  185MOL0     H24934   1.756  11.073   7.395  1.4230 -1.0731  0.5009
  185MOL0     H24935   1.761  11.227   7.561  2.0243  1.4933 -0.6290
  185MOL0     H24936   1.882  11.466   7.803 -0.8551 -1.7511  1.3062
  185MOL0     H24937   2.016  11.422   7.692  0.6448 -0.1486  2.1868
  185MOL0     H24938   1.844  11.451   7.645  0.0239 -0.2527 -0.1241
  185MOL0     H24939   1.961  11.195   8.298  0.1834  1.5569  2.3237
  185MOL0     H24940   2.023  11.321   8.493  1.3235 -1.8648  2.2648
  185MOL0     H24941   2.467  11.349   8.566  2.7023  1.7667 -0.8334
  185MOL0     H24942   2.451  11.516   8.504  1.2362 -0.5178  0.9403
  185MOL0     H24943   2.352  11.574   8.744  0.5662 -0.4932  5.4723
  185MOL0     H24944   2.386  11.415   8.782  0.4474 -1.0808 -0.7334
  185MOL0     H24945   2.625  11.589   8.665  1.6949 -0.1221  2.2537
  185MOL0     H24946   2.609  11.427   8.750 -0.3880 -1.0179  0.1121
  185MOL0     H24947   2.547  11.696   8.869 -1.6186  0.4482  0.4535
  185MOL0     H24948   2.553  11.539   8.943 -1.5448  3.2487  1.3713
  185MOL0     H24949   2.793  11.672   8.815  2.7420 -0.2690  2.2591
  185MOL0     H24950   2.804  11.522   8.865 -1.7674 -0.6343 -2.7823
  185MOL0     H24951   2.747  11.754   9.043 -1.1262 -0.6240 -0.5539
  185MOL0     H24952   2.760  11.584   9.110  2.1913 -0.5617 -0.1108
  185MOL0     H24953   2.990  11.734   8.976 -0.4339 -0.4421 -0.7018
  185MOL0     H24954   2.985  11.574   9.046  1.7097 -0.6258 -1.8321
  185MOL0     H24955   2.923  11.838   9.180  0.1260 -0.7845  1.8671
  185MOL0     H24956   3.075  11.734   9.206 -1.3837 -1.8267  1.8018
  185MOL0     H24957   2.421  11.385   8.312  0.3996  0.7479 -1.3272
  185MOL0     H24958   2.350  11.267   8.131 -2.4482  0.9780 -2.1447
  185MOL0     H24959   1.986  11.005   7.942  3.2196 -1.0876 -3.1616
  185MOL0     H24960   1.892  10.865   7.774 -0.5335  0.1421  2.7129
  185MOL0     H24961   1.820   9.566   8.207 -0.7087 -4.2949 -1.9544
  185MOL0     H24962   2.058   9.576   8.261 -4.0633  3.0991  1.6258
  185MOL0     H24963   2.495   9.575   8.067  0.0670 -0.4124  1.3295
  185MOL0     H24964   2.723   9.576   8.144 -3.9330 -2.2680  1.8206
  185MOL0     H24965   2.949   9.636   8.161 -1.3116 -1.7577  0.3023
  185MOL0     H24966   3.042   9.731   8.273 -1.1429  1.2661  0.2522
  185MOL0     H24967   2.797   9.567   8.357 -0.9512  1.8706  3.4053
  185MOL0     H24968   2.921   9.647   8.459  0.5376 -0.4987  0.0991
  185MOL0     H24969   2.960   9.434   8.255  1.0352  1.4474 -0.2520
  185MOL0     H24970   2.954   9.384   8.422 -2.6796  0.9293 -1.0947
  185MOL0     H24971   3.134   9.574   8.454 -3.0379  0.9945 -1.9392
  185MOL0     H24972   3.168   9.567   8.287  5.1403  1.2070  1.1322
  185MOL0     H24973   3.397   9.261   8.460 -3.3481 -3.1598  2.2413
  185MOL0     H24974   2.707   9.993   8.217  3.1441 -1.3004 -1.1506
  185MOL0     H24975   2.454   9.994   8.147  0.4875  0.8476  0.6678
  186MOL0     O24976   8.203   9.000   6.669  0.8368  0.2289  0.2946
  186MOL0     C24977   8.137   8.949   6.578  0.0744 -0.5027  0.3418
  186MOL0     O24978   8.019   8.991   6.528 -0.5677  0.3418  0.3062
  186MOL0     C24979   7.935   9.080   6.592 -0.1956  0.1472  0.4887
  186MOL0     C24980   7.981   9.206   6.647  0.2262 -0.6884  0.9496
  186MOL0     C24981   7.892   9.295   6.725  0.4151  0.5654  0.6372
  186MOL0     C24982   7.766   9.259   6.739  0.8608 -0.5429  0.1441
  186MOL0     O24983   7.700   9.337   6.835  0.0035  0.3483  0.1612
  186MOL0     C24984   7.550   9.348   6.815  0.1323  0.5899 -0.3113
  186MOL0     C24985   7.493   9.456   6.918  0.8492  0.1505 -1.2025
  186MOL0     C24986   7.364   9.415   6.980  0.2256  0.5960 -0.5386
  186MOL0     C24987   7.342   9.476   7.126  0.2639  0.5620 -0.6587
  186MOL0     C24988   7.220   9.407   7.186 -0.6561  0.5795  0.5520
  186MOL0     C24989   7.209   9.426   7.326 -0.7769 -1.2316 -0.7460
  186MOL0     C24990   7.173   9.570   7.358  0.1069 -1.2609  0.4871
  186MOL0     C24991   7.202   9.594   7.521  0.1361  0.1765  0.4976
  186MOL0     N24992   7.179   9.737   7.558 -0.2556 -0.2812 -0.2350
  186MOL0     C24993   7.247   9.843   7.518 -0.8627  0.1581 -0.0201
  186MOL0     C24994   7.184   9.943   7.569 -0.1357 -1.5224 -0.2009
  186MOL0     C24995   7.200  10.090   7.538  0.2186  0.4033  0.5952
  186MOL0     C24996   7.300  10.150   7.628 -0.4650 -1.0347 -1.2200
  186MOL0     C24997   7.261  10.166   7.773  0.2267 -0.5017  0.0253
  186MOL0     C24998   7.384  10.212   7.855 -1.5152 -0.0275  0.3304
  186MOL0     O24999   7.343  10.253   7.991 -0.0015  0.5290  0.4066
  186MOL0     C25000   7.444  10.340   8.046  0.2111  0.1301 -0.1451
  186MOL0     C25001   7.548  10.280   8.122 -0.5151 -0.3735 -0.4416
  186MOL0     C25002   7.648  10.363   8.174 -0.3858 -0.2482  0.4205
  186MOL0     C25003   7.752  10.298   8.267  0.2872  0.1667  0.4446
  186MOL0     C25004   7.641  10.506   8.164 -0.0953  0.1317  0.1760
  186MOL0     C25005   7.751  10.605   8.190  1.5428  0.0513 -0.5909
  186MOL0     O25006   7.712  10.736   8.205  0.3679  0.3622 -0.6325
  186MOL0     C25007   7.802  10.833   8.235  0.1353  0.0904 -0.3239
  186MOL0     C25008   7.905  10.856   8.133 -0.3518 -0.4523  0.5292
  186MOL0     C25009   7.983  10.970   8.127  0.5247  0.7390 -0.0458
  186MOL0     C25010   7.951  11.065   8.228 -0.4891  0.0076  0.9026
  186MOL0     O25011   8.043  11.163   8.219 -0.2007 -0.3422  0.0054
  186MOL0     C25012   8.134  11.163   8.335 -0.2924 -0.1003  0.6717
  186MOL0     C25013   8.262  11.217   8.287 -0.1631  0.0057 -0.4603
  186MOL0     C25014   8.342  11.117   8.200 -0.1127 -0.3419 -0.5139
  186MOL0     C25015   8.446  11.195   8.118 -0.6878  0.8402 -0.3104
  186MOL0     C25016   8.491  11.127   7.985  0.1047 -0.0886 -0.2252
  186MOL0     C25017   8.538  10.983   7.993 -0.8215  0.0731 -0.0615
  186MOL0     C25018   8.594  10.932   7.855  0.5285 -0.0034 -0.1220
  186MOL0     C25019   8.698  11.012   7.783  0.1523  0.4645  0.2087
  186MOL0    Cl25020   8.840  11.022   7.892 -0.0117 -0.0842 -0.1556
  186MOL0     C25021   7.873  11.038   8.341 -0.3044 -0.2187 -1.3182
  186MOL0     C25022   7.795  10.920   8.342 -0.4138 -0.1833 -0.0953
  186MOL0     O25023   7.864  10.556   8.195 -0.2717  0.2953 -0.5066
  186MOL0     C25024   7.533  10.562   8.094 -0.6861  0.1810  0.2199
  186MOL0     C25025   7.439  10.478   8.041 -0.1060  0.2354 -0.2891
  186MOL0     N25026   7.078   9.899   7.630  0.2600  0.1153 -0.8286
  186MOL0     N25027   7.081   9.774   7.636  0.4161  0.9275 -0.7737
  186MOL0     C25028   7.721   9.139   6.680  0.3144 -1.0827 -0.1405
  186MOL0     C25029   7.801   9.055   6.600 -0.3690 -0.3674  0.2085
  186MOL0     C25030   8.196   8.829   6.513 -0.7806  0.6702  0.4700
  186MOL0     C25031   8.108   8.749   6.434 -0.6749 -0.2563 -0.3529
  186MOL0     C25032   8.161   8.636   6.377  0.0635  0.4853 -1.1211
  186MOL0     C25033   8.291   8.595   6.381 -0.8003 -0.5382 -0.8996
  186MOL0     O25034   8.340   8.485   6.313  0.7094 -0.6627  0.8233
  186MOL0     C25035   8.246   8.420   6.230 -0.4995  0.5832  0.2405
  186MOL0     C25036   8.336   8.320   6.153 -0.1008 -0.0350 -0.2199
  186MOL0     C25037   8.271   8.186   6.146  0.5196  0.2916  0.7279
  186MOL0     C25038   8.347   8.069   6.079 -0.9190  0.3788  0.3592
  186MOL0     C25039   8.350   8.080   5.930  0.5632 -0.5671 -0.8636
  186MOL0     C25040   8.365   8.086   5.808  0.0880  0.8037 -0.4366
  186MOL0     C25041   8.381   8.679   6.447 -0.0615  0.4177 -0.1236
  186MOL0     C25042   8.332   8.798   6.513 -0.7744  0.4106 -0.5241
  186MOL0     H25043   8.087   9.224   6.639  0.0678  1.6779  2.9145
  186MOL0     H25044   7.927   9.388   6.769 -0.2220  1.2645 -0.3193
  186MOL0     H25045   7.516   9.381   6.716  1.0846  0.3981 -0.7098
  186MOL0     H25046   7.505   9.249   6.828 -0.7054  0.7337 -1.8543
  186MOL0     H25047   7.568   9.469   6.997 -1.3726  1.8510  0.7619
  186MOL0     H25048   7.486   9.556   6.874 -0.7382  0.1446 -1.0123
  186MOL0     H25049   7.282   9.442   6.913  0.1946  3.4104  0.4632
  186MOL0     H25050   7.347   9.308   6.991  2.7964  0.1322 -0.4552
  186MOL0     H25051   7.428   9.465   7.193 -0.1422  3.0653  0.3812
  186MOL0     H25052   7.324   9.584   7.119 -2.6872  0.3505  1.7279
  186MOL0     H25053   7.125   9.435   7.140 -2.0368 -0.0406  2.8679
  186MOL0     H25054   7.243   9.300   7.176 -2.3474 -0.1159  3.2003
  186MOL0     H25055   7.129   9.361   7.363 -3.1459  0.9328 -1.7524
  186MOL0     H25056   7.301   9.401   7.379 -1.7498  0.6679  2.0622
  186MOL0     H25057   7.233   9.643   7.303 -3.2361  1.5031  0.1905
  186MOL0     H25058   7.067   9.585   7.340  0.6975  1.2711 -1.4477
  186MOL0     H25059   7.303   9.565   7.550  1.5466  3.3644 -0.7023
  186MOL0     H25060   7.124   9.538   7.574  1.6426 -3.3376 -0.7421
  186MOL0     H25061   7.328   9.846   7.446 -0.2574 -3.2834  0.3177
  186MOL0     H25062   7.230  10.094   7.433  0.4634  0.0448  0.6496
  186MOL0     H25063   7.101  10.135   7.543  0.4099  0.8829  0.1461
  186MOL0     H25064   7.327  10.248   7.588  1.0204 -0.5986  0.7386
  186MOL0     H25065   7.388  10.086   7.633 -0.0178 -0.3619 -0.1012
  186MOL0     H25066   7.223  10.072   7.813  0.7630 -0.4903  0.5753
  186MOL0     H25067   7.185  10.244   7.784  0.9523 -0.0250  2.2445
  186MOL0     H25068   7.438  10.292   7.804  0.6585 -1.4299  0.3138
  186MOL0     H25069   7.468  10.143   7.867 -0.3302  1.6357  2.3421
  186MOL0     H25070   7.547  10.171   8.130 -0.9972 -0.3294  0.1432
  186MOL0     H25071   7.727  10.192   8.271  1.2622 -0.1469 -1.0693
  186MOL0     H25072   7.851  10.318   8.226 -0.5357  1.0456 -1.1942
  186MOL0     H25073   7.753  10.327   8.373  1.6281  3.9116 -0.4362
  186MOL0     H25074   7.901  10.783   8.053 -0.2325  1.0615 -0.9056
  186MOL0     H25075   8.063  10.994   8.058  0.7975 -1.3160 -0.5229
  186MOL0     H25076   8.109  11.224   8.422 -0.0008  2.5761 -0.9994
  186MOL0     H25077   8.157  11.064   8.375  2.1937  1.3196  3.0187
  186MOL0     H25078   8.217  11.296   8.226 -4.4336 -2.5292 -1.0088
  186MOL0     H25079   8.321  11.263   8.367 -3.6184  2.6569  0.7862
  186MOL0     H25080   8.281  11.076   8.118  1.4534  0.6262 -2.2323
  186MOL0     H25081   8.395  11.048   8.265 -0.1724 -0.1815 -0.2954
  186MOL0     H25082   8.423  11.296   8.085  0.7280  0.7283 -1.7792
  186MOL0     H25083   8.516  11.209   8.201 -1.2097  2.9988 -0.1972
  186MOL0     H25084   8.559  11.193   7.931  0.7178 -1.7998 -1.6501
  186MOL0     H25085   8.400  11.124   7.923  0.7471 -1.4367 -1.1324
  186MOL0     H25086   8.609  10.979   8.077 -1.8212  1.5768  0.9090
  186MOL0     H25087   8.451  10.926   8.027 -1.4557 -1.4118 -3.7339
  186MOL0     H25088   8.513  10.907   7.786  0.1386 -2.8752  1.2173
  186MOL0     H25089   8.645  10.836   7.867  1.7486  0.6305 -0.0584
  186MOL0     H25090   8.662  11.110   7.751  2.5679  0.9812 -1.1944
  186MOL0     H25091   8.724  10.950   7.697  1.7389  1.6208 -0.1740
  186MOL0     H25092   7.862  11.103   8.427 -0.2956 -2.7906  0.7453
  186MOL0     H25093   7.724  10.914   8.424  0.8911 -0.0737  1.0904
  186MOL0     H25094   7.530  10.668   8.069  2.7109  0.2049 -0.5845
  186MOL0     H25095   7.354  10.518   7.985  1.0509  0.4395 -1.9636
  186MOL0     H25096   7.616   9.114   6.692 -0.3150  1.2644 -0.3334
  186MOL0     H25097   7.763   8.965   6.554 -1.9809 -0.1899  1.1236
  186MOL0     H25098   8.004   8.778   6.419 -1.1896 -1.1741  1.1201
  186MOL0     H25099   8.081   8.576   6.336 -0.4807 -2.6455  3.7379
  186MOL0     H25100   8.158   8.380   6.281 -0.9852 -1.7169 -2.1700
  186MOL0     H25101   8.214   8.496   6.158 -1.5737 -1.5706 -1.6801
  186MOL0     H25102   8.432   8.308   6.203 -0.1991 -1.0745 -0.2442
  186MOL0     H25103   8.341   8.359   6.051 -1.1944 -1.3308 -0.7987
  186MOL0     H25104   8.176   8.197   6.093 -0.4403 -1.7928  1.8682
  186MOL0     H25105   8.239   8.151   6.245 -4.1754  0.4744 -0.5115
  186MOL0     H25106   8.289   7.979   6.103 -1.7915  0.6312 -0.7064
  186MOL0     H25107   8.449   8.061   6.116 -0.9558 -0.3637  0.2975
  186MOL0     H25108   8.396   8.079   5.706  0.6893 -0.8559 -0.1649
  186MOL0     H25109   8.488   8.665   6.438 -0.1392  0.4651 -1.1680
  186MOL0     H25110   8.399   8.868   6.561 -0.8605  0.7844 -0.9449
  187MOL0     O25111  10.817   9.795   9.880 -0.4283  0.1777 -0.0041
  187MOL0     C25112  10.702   9.772   9.923 -0.0677  0.9525 -0.1345
  187MOL0     O25113  10.595   9.799   9.841  0.2563 -0.1883  0.1328
  187MOL0     C25114  10.614   9.848   9.709 -0.0611 -0.2147 -0.5393
  187MOL0     C25115  10.531   9.953   9.655  0.0765 -0.3435  0.4075
  187MOL0     C25116  10.562  10.000   9.521  0.0680  0.1674  0.2744
  187MOL0     C25117  10.654   9.933   9.435 -0.7372  1.6758  0.0988
  187MOL0     O25118  10.671   9.964   9.308 -0.7936  0.2730 -0.3361
  187MOL0     C25119  10.714  10.094   9.275  0.0470 -1.3082  1.0556
  187MOL0     C25120  10.670  10.128   9.127  0.5072  0.5165  0.0967
  187MOL0     C25121  10.741  10.250   9.067  0.7979  0.2329 -0.0731
  187MOL0     C25122  10.713  10.269   8.917 -0.4249 -0.1330  0.5089
  187MOL0     C25123  10.775  10.400   8.869  0.5698 -0.1496  0.5080
  187MOL0     C25124  10.699  10.427   8.735  1.2426  0.0082 -1.3985
  187MOL0     C25125  10.749  10.559   8.670  0.2337 -0.1367  0.2668
  187MOL0     C25126  10.862  10.551   8.578  0.7536  0.0583 -1.1641
  187MOL0     N25127  10.979  10.484   8.635  0.1329 -0.5610  0.4316
  187MOL0     C25128  11.035  10.367   8.589 -0.4439  0.2486  0.3571
  187MOL0     C25129  11.144  10.348   8.668 -0.3472 -0.6305 -0.9875
  187MOL0     C25130  11.251  10.250   8.632 -0.1723  0.3399  0.0049
  187MOL0     C25131  11.194  10.108   8.606 -0.3717  0.1305 -0.9856
  187MOL0     C25132  11.316  10.025   8.567 -0.3423 -0.2346  0.0345
  187MOL0     C25133  11.432  10.013   8.668  0.5926  0.1459 -0.6963
  187MOL0     O25134  11.537   9.936   8.590  1.5980 -0.5958  1.0711
  187MOL0     C25135  11.656   9.920   8.649 -0.4513 -0.0188 -0.6841
  187MOL0     C25136  11.695   9.957   8.777 -1.1355 -0.5983 -0.7963
  187MOL0     C25137  11.821   9.920   8.834  0.0406 -0.2618 -0.1049
  187MOL0     C25138  11.817   9.925   8.984 -0.3399  0.6272  1.1154
  187MOL0     C25139  11.920   9.861   8.750  0.0310  0.1903 -1.4762
  187MOL0     C25140  12.052   9.806   8.806  0.1223 -0.5605  0.2506
  187MOL0     O25141  12.133   9.774   8.703  0.4684  1.0264  0.4308
  187MOL0     C25142  12.257   9.721   8.725  0.0339  0.3076  0.8670
  187MOL0     C25143  12.297   9.636   8.823 -0.3668  0.2527  0.6473
  187MOL0     C25144  12.431   9.586   8.815 -0.7424  0.3395 -0.0755
  187MOL0     C25145  12.526   9.619   8.721 -0.4058  0.2320 -0.6868
  187MOL0     O25146  12.653   9.567   8.723  0.4290 -0.1510  0.8819
  187MOL0     C25147  12.681   9.457   8.799  0.2258  0.1844 -0.1724
  187MOL0     C25148  12.790   9.377   8.736 -0.4967 -0.7846 -1.3818
  187MOL0     C25149  12.923   9.447   8.771  0.4878  0.8090  0.4154
  187MOL0     C25150  13.021   9.338   8.811  0.0010 -0.8943  0.1033
  187MOL0     C25151  13.154   9.396   8.843 -1.0252  0.4131  0.7931
  187MOL0     C25152  13.221   9.477   8.722 -0.4684 -0.5547  0.3526
  187MOL0     C25153  13.378   9.479   8.742 -0.8984  0.6863 -0.7541
  187MOL0     C25154  13.455   9.561   8.634  1.1063  0.5430 -1.0640
  187MOL0    Cl25155  13.414   9.476   8.479  0.4354 -0.5837  0.2799
  187MOL0     C25156  12.474   9.698   8.616  0.4470 -0.3315  0.1824
  187MOL0     C25157  12.346   9.757   8.630  0.0117  0.0475  0.6778
  187MOL0     O25158  12.086   9.789   8.927  0.1709  0.1937  0.1980
  187MOL0     C25159  11.882   9.827   8.610 -0.2033 -0.7617  1.1569
  187MOL0     C25160  11.750   9.855   8.568  0.1857 -1.2489 -0.8226
  187MOL0     N25161  11.170  10.473   8.733 -0.1072  0.5740  0.7502
  187MOL0     N25162  11.061  10.543   8.720 -0.1683  0.5442 -1.1012
  187MOL0     C25163  10.726   9.829   9.490  0.3582 -0.8779 -0.1804
  187MOL0     C25164  10.708   9.791   9.625  0.3076  0.7711  0.0317
  187MOL0     C25165  10.694   9.724  10.061  0.0244 -0.5384 -0.4257
  187MOL0     C25166  10.789   9.642  10.134 -0.2599 -1.0039  1.6186
  187MOL0     C25167  10.755   9.580  10.255  1.4254 -1.3752  0.7203
  187MOL0     C25168  10.633   9.617  10.316 -0.2378 -0.8119 -0.4877
  187MOL0     O25169  10.606   9.590  10.448 -0.4657 -0.2938 -0.9709
  187MOL0     C25170  10.661   9.691  10.528 -1.3295  0.6049  0.0030
  187MOL0     C25171  10.566   9.793  10.595  0.0804  0.2261 -0.1225
  187MOL0     C25172  10.623   9.928  10.639  0.3337  0.3018  0.3555
  187MOL0     C25173  10.521  10.018  10.719  0.2795 -0.3905  0.1968
  187MOL0     C25174  10.593  10.142  10.733  0.6214 -0.6010  0.1410
  187MOL0     C25175  10.678  10.228  10.751 -0.5725  0.9407 -0.3748
  187MOL0     C25176  10.545   9.705  10.252 -0.4924 -0.3546  0.1727
  187MOL0     C25177  10.570   9.756  10.126  0.3338 -0.8635 -0.0043
  187MOL0     H25178  10.453   9.992   9.721  1.7017  2.1637  1.0107
  187MOL0     H25179  10.501  10.074   9.471 -0.0882  0.3434  0.7151
  187MOL0     H25180  10.669  10.168   9.342 -0.6683  1.7601 -2.4618
  187MOL0     H25181  10.823  10.088   9.283  0.0639 -1.0785  0.9936
  187MOL0     H25182  10.704  10.044   9.065 -0.7003  0.5828 -0.6876
  187MOL0     H25183  10.561  10.133   9.127  0.3788 -1.1481  1.4192
  187MOL0     H25184  10.702  10.331   9.128  1.0925 -0.1065  0.5792
  187MOL0     H25185  10.849  10.241   9.081  0.4383 -2.2314  1.8974
  187MOL0     H25186  10.764  10.196   8.855  0.9439  1.7982 -0.7247
  187MOL0     H25187  10.604  10.271   8.901 -0.2023 -1.8579 -1.5656
  187MOL0     H25188  10.751  10.480   8.939 -0.7866  0.2295 -0.3572
  187MOL0     H25189  10.884  10.390   8.859  0.4061 -0.2962 -1.5005
  187MOL0     H25190  10.701  10.347   8.661 -0.5667 -0.3960 -1.0335
  187MOL0     H25191  10.593  10.429   8.760  1.4663 -1.4146 -0.2423
  187MOL0     H25192  10.665  10.593   8.608  0.8465  1.6833  0.3828
  187MOL0     H25193  10.773  10.635   8.745 -3.3337  2.6135 -1.0664
  187MOL0     H25194  10.881  10.649   8.533  0.8705  0.1783 -0.8530
  187MOL0     H25195  10.837  10.487   8.493  2.0466 -1.6953 -0.2837
  187MOL0     H25196  10.996  10.292   8.521  0.5864 -1.4012  1.4950
  187MOL0     H25197  11.303  10.289   8.544  2.4784 -2.4471  0.1670
  187MOL0     H25198  11.329  10.254   8.708 -1.4219  1.6447  1.3010
  187MOL0     H25199  11.128  10.117   8.520  2.2664 -0.9846 -3.3010
  187MOL0     H25200  11.147  10.059   8.692  3.9742 -1.4989  0.7903
  187MOL0     H25201  11.352  10.067   8.473 -0.3858 -1.3117 -0.4880
  187MOL0     H25202  11.272   9.924   8.560 -2.9630  0.7518  1.0282
  187MOL0     H25203  11.391   9.953   8.749 -0.9288 -0.0833 -1.5827
  187MOL0     H25204  11.467  10.108   8.708  2.3872 -1.1020  0.8325
  187MOL0     H25205  11.625  10.000   8.847 -1.8285 -2.0704 -0.5549
  187MOL0     H25206  11.854   9.830   9.023  0.1110  1.0775  1.8153
  187MOL0     H25207  11.887  10.000   9.022  1.3189 -0.3317  0.1149
  187MOL0     H25208  11.717   9.951   9.020 -2.4030  0.1312 -3.4793
  187MOL0     H25209  12.222   9.583   8.881  0.1150 -0.5530  0.5541
  187MOL0     H25210  12.457   9.522   8.899 -1.9191 -2.5523 -1.7836
  187MOL0     H25211  12.726   9.504   8.887  1.7915  4.1810 -2.8547
  187MOL0     H25212  12.595   9.390   8.808 -2.2461  3.1841 -0.0707
  187MOL0     H25213  12.783   9.275   8.775 -1.3502  0.1619  1.1287
  187MOL0     H25214  12.763   9.362   8.631 -2.3732 -3.1666 -0.6571
  187MOL0     H25215  12.917   9.531   8.840 -1.7568  2.1918 -1.3377
  187MOL0     H25216  12.960   9.485   8.675  2.7080 -2.8930 -0.3942
  187MOL0     H25217  12.985   9.299   8.906 -3.9969 -0.5349 -1.0592
  187MOL0     H25218  13.020   9.253   8.742 -1.1326 -0.3148 -0.6321
  187MOL0     H25219  13.220   9.323   8.891 -1.0925  0.4220  0.9011
  187MOL0     H25220  13.143   9.477   8.916  0.3721  3.2339 -1.8990
  187MOL0     H25221  13.195   9.421   8.631  0.8815 -0.4629 -0.1192
  187MOL0     H25222  13.190   9.581   8.716  0.3487 -0.3837 -3.1386
  187MOL0     H25223  13.396   9.371   8.734 -1.8197  0.3083  1.4470
  187MOL0     H25224  13.401   9.511   8.844 -0.8787  0.1797 -0.5952
  187MOL0     H25225  13.562   9.554   8.656  0.3951 -5.4263  2.9191
  187MOL0     H25226  13.409   9.660   8.631 -0.2902 -0.0253  0.4794
  187MOL0     H25227  12.528   9.712   8.523 -0.2254  3.1732  0.1632
  187MOL0     H25228  12.311   9.834   8.562  0.4854  1.5252  2.0355
  187MOL0     H25229  11.955   9.784   8.542 -2.5675  0.6226 -2.5625
  187MOL0     H25230  11.717   9.828   8.468 -1.7287 -1.9178 -0.0700
  187MOL0     H25231  10.804   9.790   9.425 -0.0969 -1.5819 -0.3223
  187MOL0     H25232  10.788   9.722   9.651  0.5322  0.4410 -1.4121
  187MOL0     H25233  10.891   9.632  10.099  0.0604 -0.0109  2.2273
  187MOL0     H25234  10.845   9.528  10.286  0.9287 -2.3055  0.6355
  187MOL0     H25235  10.706   9.644  10.616 -1.7341  1.3882  0.6397
  187MOL0     H25236  10.741   9.750  10.482 -0.5627  0.2030  0.7787
  187MOL0     H25237  10.516   9.738  10.675  0.3859  0.6109  0.3353
  187MOL0     H25238  10.487   9.822  10.524  1.3454  3.6543 -0.3136
  187MOL0     H25239  10.664   9.978  10.550  3.5439 -1.0069  0.9581
  187MOL0     H25240  10.711   9.905  10.699  1.5321  1.2019 -0.9653
  187MOL0     H25241  10.498   9.967  10.813 -1.4043 -0.8524 -0.4313
  187MOL0     H25242  10.428  10.035  10.664 -0.6467 -0.1918  1.7852
  187MOL0     H25243  10.742  10.312  10.765 -1.4575  2.6197 -4.7928
  187MOL0     H25244  10.458   9.742  10.306 -0.7547 -1.3252  0.4292
  187MOL0     H25245  10.492   9.818  10.083  2.3666  0.9815 -1.3082
  188MOL0     O25246   8.842   8.854  10.942 -0.0178  0.1273  0.4064
  188MOL0     C25247   8.892   8.966  10.969  0.9809  0.4423 -0.1386
  188MOL0     O25248   9.027   9.008  10.938 -0.4436 -0.0179  0.1589
  188MOL0     C25249   9.101   8.904  10.897 -0.1721 -0.2881 -0.2572
  188MOL0     C25250   9.186   8.842  10.989  0.3883  0.4870 -0.5374
  188MOL0     C25251   9.257   8.720  10.966 -0.4170  0.3587  0.0685
  188MOL0     C25252   9.251   8.669  10.840 -0.2804 -1.1244  0.0248
  188MOL0     O25253   9.337   8.568  10.801  0.0420 -0.3201 -0.1256
  188MOL0     C25254   9.422   8.624  10.706 -0.0136  0.2154 -0.7761
  188MOL0     C25255   9.549   8.546  10.729  0.2702 -0.3921  0.1420
  188MOL0     C25256   9.542   8.389  10.699 -0.3413 -0.6471 -0.4533
  188MOL0     C25257   9.514   8.364  10.552 -0.2258  0.4211  0.1574
  188MOL0     C25258   9.516   8.218  10.497  0.1044  0.0772 -0.1779
  188MOL0     C25259   9.445   8.119  10.577 -0.1116  0.0465  0.5658
  188MOL0     C25260   9.464   7.975  10.503 -0.3779 -0.9046  0.0557
  188MOL0     C25261   9.405   7.959  10.366 -0.4325 -0.3464  0.2414
  188MOL0     N25262   9.256   7.957  10.367  0.2541 -0.5286 -0.2450
  188MOL0     C25263   9.169   8.067  10.342 -0.6573  0.5184  0.6382
  188MOL0     C25264   9.046   8.015  10.377  1.1561 -0.6518 -0.0623
  188MOL0     C25265   8.914   8.086  10.381  0.9130  0.1208 -0.1428
  188MOL0     C25266   8.900   8.189  10.267 -0.3981 -0.2496 -0.1975
  188MOL0     C25267   8.766   8.253  10.278  0.5239  0.0008  0.3474
  188MOL0     C25268   8.733   8.346  10.393 -0.0964  0.3156 -0.1673
  188MOL0     O25269   8.842   8.435  10.422  0.1862  0.1499  0.7778
  188MOL0     C25270   8.878   8.440  10.550  0.0334  0.3491 -0.7595
  188MOL0     C25271   8.988   8.359  10.588 -0.1362  1.3929  0.0960
  188MOL0     C25272   9.020   8.342  10.719  0.1445 -0.3866 -0.1934
  188MOL0     C25273   9.123   8.238  10.759 -0.5783  0.3498 -0.1658
  188MOL0     C25274   8.940   8.422  10.812  1.4939  0.9885  0.1163
  188MOL0     C25275   8.959   8.397  10.962  0.8589 -0.5509  0.8458
  188MOL0     O25276   8.924   8.502  11.042 -1.5389 -0.4886 -0.3158
  188MOL0     C25277   9.017   8.524  11.143  0.3108 -0.0157 -0.7140
  188MOL0     C25278   9.109   8.435  11.191  0.0770  1.2213  0.5163
  188MOL0     C25279   9.179   8.459  11.306 -0.1318  0.1117 -0.7647
  188MOL0     C25280   9.159   8.574  11.380 -0.3144 -1.0236 -0.0480
  188MOL0     O25281   9.230   8.595  11.492  0.8231  0.6656 -0.8501
  188MOL0     C25282   9.155   8.566  11.613 -0.0932 -0.9859 -1.4611
  188MOL0     C25283   9.128   8.420  11.635 -0.0615 -0.4940 -0.3392
  188MOL0     C25284   9.255   8.335  11.644  0.0311  0.1646 -0.3147
  188MOL0     C25285   9.333   8.346  11.774  0.1853 -0.2107  0.4685
  188MOL0     C25286   9.476   8.298  11.757 -0.0323  0.3446  0.9014
  188MOL0     C25287   9.490   8.147  11.721  0.2355 -0.4797 -0.7098
  188MOL0     C25288   9.475   8.064  11.849  0.8747  1.0622 -0.0755
  188MOL0     C25289   9.458   7.913  11.825 -0.5322 -0.5291  0.0750
  188MOL0    Cl25290   9.445   7.841  11.996 -0.2021 -0.0848  0.2964
  188MOL0     C25291   9.054   8.665  11.346 -0.8677  0.1888 -1.1005
  188MOL0     C25292   8.988   8.627  11.236  0.1189 -0.4647  0.3330
  188MOL0     O25293   8.967   8.279  11.001 -0.4472  0.5540  0.7095
  188MOL0     C25294   8.849   8.524  10.769 -0.5651 -1.0000 -0.2418
  188MOL0     C25295   8.808   8.527  10.635 -0.5461  0.8566  0.0597
  188MOL0     N25296   9.059   7.880  10.400 -0.8355  0.2593 -0.1166
  188MOL0     N25297   9.180   7.844  10.383  0.1642 -0.0430  0.1257
  188MOL0     C25298   9.152   8.725  10.748  0.1136 -0.5055 -0.1392
  188MOL0     C25299   9.083   8.844  10.774  0.8877  0.1450 -0.0863
  188MOL0     C25300   8.806   9.068  11.021 -0.0162 -0.3199  0.2241
  188MOL0     C25301   8.860   9.195  11.033  0.0684  0.4517  0.9087
  188MOL0     C25302   8.789   9.297  11.084  0.4313 -1.0529  0.6571
  188MOL0     C25303   8.652   9.282  11.124  0.0166 -0.8936  0.3281
  188MOL0     O25304   8.580   9.384  11.192 -1.0497  0.4855 -0.4353
  188MOL0     C25305   8.646   9.498  11.230  0.1630 -0.2167  0.6268
  188MOL0     C25306   8.520   9.584  11.257  0.2325  0.1782 -1.6638
  188MOL0     C25307   8.563   9.731  11.269 -0.8990  0.1886  0.2497
  188MOL0     C25308   8.454   9.830  11.326 -0.2262 -0.1309 -0.5670
  188MOL0     C25309   8.442   9.815  11.472  0.1168 -0.0391 -0.4597
  188MOL0     C25310   8.463   9.815  11.592  0.2422  0.5275 -0.2977
  188MOL0     C25311   8.590   9.158  11.106 -0.2580 -0.2452 -0.0368
  188MOL0     C25312   8.671   9.046  11.062 -0.1298 -0.2714 -0.3735
  188MOL0     H25313   9.204   8.891  11.084  1.6352 -0.4532 -0.2564
  188MOL0     H25314   9.321   8.680  11.045 -2.5755  2.0904  2.9210
  188MOL0     H25315   9.376   8.604  10.609  1.8550 -0.3788 -1.5860
  188MOL0     H25316   9.441   8.731  10.722  0.1614  0.2825 -1.3921
  188MOL0     H25317   9.626   8.598  10.673  0.9209  1.2496  2.4158
  188MOL0     H25318   9.581   8.552  10.833  0.7988 -0.6130 -0.0084
  188MOL0     H25319   9.645   8.358  10.716  0.6579  3.2430  1.9399
  188MOL0     H25320   9.485   8.327  10.769 -1.0464  1.5969  1.0940
  188MOL0     H25321   9.414   8.407  10.536  0.6445  2.9984  1.1192
  188MOL0     H25322   9.587   8.426  10.500  0.6633 -0.3599  0.4429
  188MOL0     H25323   9.460   8.224  10.403 -0.0239  3.7799 -0.0380
  188MOL0     H25324   9.618   8.186  10.475  0.5828 -0.1099  2.0734
  188MOL0     H25325   9.476   8.110  10.682 -3.1810  0.0278  1.5701
  188MOL0     H25326   9.337   8.140  10.580 -0.2582 -0.7311  2.3457
  188MOL0     H25327   9.571   7.956  10.487  0.9539  1.7410  4.0878
  188MOL0     H25328   9.418   7.899  10.567 -2.4936  0.6776  0.5068
  188MOL0     H25329   9.443   7.866  10.320  3.5557 -0.5842  3.5008
  188MOL0     H25330   9.449   8.040  10.307 -3.0662  1.1211  0.1366
  188MOL0     H25331   9.208   8.165  10.316  1.7676 -0.4303  0.4818
  188MOL0     H25332   8.835   8.010  10.382 -3.4287  4.1041 -0.2238
  188MOL0     H25333   8.891   8.125  10.480 -4.1013  2.1466 -1.7580
  188MOL0     H25334   8.907   8.135  10.172 -3.4242 -2.8082  0.8493
  188MOL0     H25335   8.975   8.268  10.272  1.1775 -1.7367  2.8728
  188MOL0     H25336   8.688   8.177  10.270  0.3521  0.1131  0.9203
  188MOL0     H25337   8.753   8.312  10.186  1.2106 -0.6299 -0.1666
  188MOL0     H25338   8.702   8.297  10.485 -1.2621  1.3410  0.0139
  188MOL0     H25339   8.643   8.400  10.361 -1.1773 -1.5386 -0.3638
  188MOL0     H25340   9.041   8.315  10.504 -0.9345  1.8056 -0.6493
  188MOL0     H25341   9.160   8.180  10.675  0.3190 -1.4096  1.3618
  188MOL0     H25342   9.207   8.275  10.820 -0.7189 -1.3084  1.1140
  188MOL0     H25343   9.064   8.168  10.819  0.7161 -1.5926 -1.0575
  188MOL0     H25344   9.129   8.335  11.153  1.2044 -0.9640  5.9693
  188MOL0     H25345   9.241   8.388  11.361  2.7440  3.1086  0.1893
  188MOL0     H25346   9.205   8.602  11.703 -3.6057 -0.1867  0.3451
  188MOL0     H25347   9.061   8.620  11.625  1.6637  1.9075  0.1447
  188MOL0     H25348   9.078   8.412  11.733  0.7912 -0.3295  0.1214
  188MOL0     H25349   9.056   8.377  11.566 -2.0681  2.7900 -0.5177
  188MOL0     H25350   9.314   8.349  11.553 -2.3356 -0.7216 -2.0609
  188MOL0     H25351   9.219   8.232  11.635  1.9592 -0.9647  2.9224
  188MOL0     H25352   9.337   8.452  11.802 -0.6596  0.5798 -2.1265
  188MOL0     H25353   9.285   8.304  11.862  0.9987  2.5023  2.3603
  188MOL0     H25354   9.539   8.312  11.845 -2.2040 -0.1881  2.6069
  188MOL0     H25355   9.524   8.344  11.670 -0.8196  1.3637  0.9875
  188MOL0     H25356   9.401   8.119  11.664  1.3589  0.0571 -2.8268
  188MOL0     H25357   9.590   8.129  11.683  1.5369 -1.1652  2.6552
  188MOL0     H25358   9.397   8.108  11.912  1.4348  1.8353  0.0898
  188MOL0     H25359   9.568   8.072  11.905  3.4537  2.0363 -4.0507
  188MOL0     H25360   9.547   7.868  11.779  0.7908  1.6062  0.3818
  188MOL0     H25361   9.369   7.881  11.771 -0.1895  1.0453 -1.4934
  188MOL0     H25362   9.043   8.759  11.398  2.7772  0.0720  0.1842
  188MOL0     H25363   8.894   8.666  11.198 -1.3035 -2.5129  1.5673
  188MOL0     H25364   8.796   8.587  10.840  0.9755  0.2006 -0.1017
  188MOL0     H25365   8.731   8.594  10.598 -3.3003 -0.9565  2.0906
  188MOL0     H25366   9.142   8.668  10.656 -6.5556 -1.2157  0.4956
  188MOL0     H25367   9.015   8.884  10.699  1.5723  2.0932  0.2828
  188MOL0     H25368   8.962   9.222  11.009  0.1765 -1.4371 -1.0324
  188MOL0     H25369   8.831   9.397  11.093 -2.8801  1.0012 -3.3553
  188MOL0     H25370   8.701   9.483  11.323  0.9591 -1.6079 -0.0474
  188MOL0     H25371   8.714   9.546  11.159  1.2184  0.1015  1.8202
  188MOL0     H25372   8.450   9.548  11.333  1.7179  0.5332 -0.0560
  188MOL0     H25373   8.470   9.574  11.161 -1.4225 -0.1529 -0.8046
  188MOL0     H25374   8.580   9.762  11.165 -1.0364 -0.8617 -0.0891
  188MOL0     H25375   8.662   9.749  11.312 -0.1942  2.5356 -2.0566
  188MOL0     H25376   8.359   9.821  11.273  0.5095 -1.0508 -1.7921
  188MOL0     H25377   8.497   9.929  11.309 -1.0948  0.7596  1.9248
  188MOL0     H25378   8.473   9.824  11.698 -0.8396 -4.0517  0.3961
  188MOL0     H25379   8.486   9.135  11.128 -0.7413 -0.3816 -2.2602
  188MOL0     H25380   8.634   8.946  11.039  4.9669 -2.9436  1.5503
  189MOL0     O25381   3.468   1.923   1.557 -0.2997 -0.4979 -0.1329
  189MOL0     C25382   3.584   1.900   1.509  0.2687 -0.3875  0.5852
  189MOL0     O25383   3.707   1.945   1.560  0.8314  0.1268 -0.2857
  189MOL0     C25384   3.726   1.958   1.699  0.7604 -0.0320 -0.6724
  189MOL0     C25385   3.645   1.894   1.791 -0.6739  0.7045  0.1276
  189MOL0     C25386   3.692   1.881   1.924  0.5117  0.2003 -0.6044
  189MOL0     C25387   3.811   1.941   1.964 -0.1370 -0.3149 -0.5876
  189MOL0     O25388   3.851   1.944   2.102 -0.2694  0.3644 -0.8393
  189MOL0     C25389   3.837   1.816   2.174  0.1770  0.3792 -0.3301
  189MOL0     C25390   3.924   1.812   2.299 -0.2878 -0.0671  0.1716
  189MOL0     C25391   3.926   1.674   2.366  1.0358  0.5135 -0.2153
  189MOL0     C25392   3.933   1.541   2.282  0.6102  0.2896 -0.0815
  189MOL0     C25393   4.009   1.423   2.337 -0.1803 -0.4085  0.3485
  189MOL0     C25394   4.026   1.305   2.245  0.2316  0.1570  0.4553
  189MOL0     C25395   4.070   1.182   2.334 -0.6222 -0.4961  0.7646
  189MOL0     C25396   4.025   1.044   2.302 -0.4547 -0.0705  0.4208
  189MOL0     N25397   3.886   1.023   2.317 -0.2113 -0.6309 -0.4470
  189MOL0     C25398   3.811   0.913   2.290  0.6404  0.0075  0.3210
  189MOL0     C25399   3.690   0.940   2.354 -0.4254 -0.1984  1.3939
  189MOL0     C25400   3.571   0.856   2.343  0.0465 -0.4204 -0.3913
  189MOL0     C25401   3.488   0.890   2.220 -0.2537  0.4753 -0.4274
  189MOL0     C25402   3.360   0.803   2.200  0.7976 -0.3466 -0.0423
  189MOL0     C25403   3.275   0.875   2.097 -0.1815  0.3909  0.3230
  189MOL0     O25404   3.163   0.794   2.097 -0.8355  0.1704 -0.1820
  189MOL0     C25405   3.078   0.824   1.993  0.5958  0.6039  0.2588
  189MOL0     C25406   3.095   0.761   1.868 -0.9432 -0.4212  1.1600
  189MOL0     C25407   3.018   0.777   1.755  0.5074 -1.1633  0.8260
  189MOL0     C25408   3.062   0.715   1.621 -0.4840  0.3625  0.9644
  189MOL0     C25409   2.902   0.858   1.761 -0.1153  1.4182 -0.9942
  189MOL0     C25410   2.826   0.903   1.643  0.5901  0.3359 -0.4732
  189MOL0     O25411   2.723   0.987   1.671 -0.5803  0.1989 -0.5813
  189MOL0     C25412   2.623   1.010   1.571  0.1729 -0.1733 -1.1120
  189MOL0     C25413   2.485   0.973   1.595  0.0275 -0.8801  0.1662
  189MOL0     C25414   2.384   0.989   1.499 -0.4849 -0.0757  0.4631
  189MOL0     C25415   2.419   1.064   1.381 -0.3288  0.0875 -0.7437
  189MOL0     O25416   2.334   1.096   1.287  0.5765 -0.2238  0.0648
  189MOL0     C25417   2.319   1.003   1.184  0.0180  0.6800 -0.3882
  189MOL0     C25418   2.233   0.874   1.211  0.2213  0.4436  0.9569
  189MOL0     C25419   2.258   0.768   1.101 -0.0709  0.0866  0.3441
  189MOL0     C25420   2.142   0.676   1.062  0.2760  0.1799  0.2019
  189MOL0     C25421   2.134   0.553   1.155 -1.3191  0.8448  0.5920
  189MOL0     C25422   2.102   0.579   1.302  0.1884  0.0451 -0.2331
  189MOL0     C25423   1.977   0.654   1.324  0.2134  0.7851  0.2255
  189MOL0     C25424   1.924   0.624   1.462  0.8476 -0.6820  0.6777
  189MOL0    Cl25425   1.780   0.725   1.513  0.2915  0.0105 -0.1013
  189MOL0     C25426   2.555   1.093   1.358  0.1088 -0.4397 -0.4636
  189MOL0     C25427   2.654   1.064   1.453 -0.7904  0.7439  0.2202
  189MOL0     O25428   2.851   0.859   1.529  0.2543  0.7682 -0.9798
  189MOL0     C25429   2.875   0.917   1.894 -0.4146 -0.4240  0.7783
  189MOL0     C25430   2.963   0.896   2.008  0.1138  0.6800  0.0195
  189MOL0     N25431   3.695   1.063   2.410 -0.3149  0.6450 -0.3677
  189MOL0     N25432   3.809   1.115   2.380 -0.4774  0.6859  0.7842
  189MOL0     C25433   3.889   2.004   1.873  0.3666 -0.3865 -0.0828
  189MOL0     C25434   3.851   2.018   1.734  0.3782 -0.3008 -0.5026
  189MOL0     C25435   3.591   1.835   1.381  0.2512  0.6660 -0.2955
  189MOL0     C25436   3.470   1.798   1.318 -0.6354  0.3115 -0.0415
  189MOL0     C25437   3.477   1.764   1.182  0.0391 -0.8457 -0.5161
  189MOL0     C25438   3.593   1.764   1.110 -1.1809 -0.4801 -0.5408
  189MOL0     O25439   3.608   1.751   0.981 -0.5571 -0.7789  0.7340
  189MOL0     C25440   3.494   1.726   0.900  1.0205 -0.6678 -0.3293
  189MOL0     C25441   3.549   1.704   0.754 -0.5217  0.8465 -0.5744
  189MOL0     C25442   3.441   1.710   0.637  0.1111 -0.4001 -0.5086
  189MOL0     C25443   3.386   1.849   0.598  0.2936  0.3404 -0.0872
  189MOL0     C25444   3.319   1.837   0.468 -0.0255  0.4452 -0.0077
  189MOL0     C25445   3.254   1.797   0.372 -1.3445 -0.6796  0.5933
  189MOL0     C25446   3.710   1.809   1.169  1.1287  0.6326  0.2073
  189MOL0     C25447   3.710   1.842   1.309  0.6397  0.0307  0.0180
  189MOL0     H25448   3.557   1.834   1.772 -1.4331  2.2644 -1.6749
  189MOL0     H25449   3.642   1.808   1.987 -0.8509  3.9605  3.1037
  189MOL0     H25450   3.735   1.803   2.211  0.2458  3.5884  1.3424
  189MOL0     H25451   3.865   1.733   2.109  1.8700  0.8485 -0.2322
  189MOL0     H25452   4.029   1.833   2.279 -0.2382  0.5741  1.0509
  189MOL0     H25453   3.898   1.881   2.380  2.3806 -2.0000  2.8530
  189MOL0     H25454   3.994   1.665   2.451 -1.3955  2.3725  2.1234
  189MOL0     H25455   3.827   1.664   2.410  1.8432  1.9754  2.1390
  189MOL0     H25456   3.830   1.512   2.256  0.9774  0.8649 -2.4242
  189MOL0     H25457   3.987   1.565   2.190  1.7859  1.5959  0.9135
  189MOL0     H25458   4.111   1.460   2.355  0.9613 -0.2051 -4.9561
  189MOL0     H25459   3.945   1.390   2.419 -2.6973 -1.5868 -1.9456
  189MOL0     H25460   3.933   1.276   2.196 -0.2431  4.8569 -1.9277
  189MOL0     H25461   4.093   1.328   2.161 -2.1118 -2.5361 -2.3831
  189MOL0     H25462   4.180   1.180   2.327 -0.6631  0.7210 -0.7669
  189MOL0     H25463   4.043   1.205   2.437  2.7202 -0.7338  1.8094
  189MOL0     H25464   4.077   0.969   2.362  1.5052 -0.1324 -1.2212
  189MOL0     H25465   4.043   1.011   2.200  0.6870  1.1396  0.1929
  189MOL0     H25466   3.829   0.827   2.227  0.7652  1.7138 -2.0705
  189MOL0     H25467   3.605   0.752   2.336  2.2584  0.0163  2.0174
  189MOL0     H25468   3.515   0.874   2.436 -0.7707  1.6527 -1.2352
  189MOL0     H25469   3.554   0.906   2.134 -1.2217  3.0029 -0.7802
  189MOL0     H25470   3.458   0.994   2.235  2.3997  1.5805 -2.0510
  189MOL0     H25471   3.309   0.808   2.297 -1.9054 -1.7519 -1.2704
  189MOL0     H25472   3.392   0.703   2.171  0.6397 -0.7900  1.2246
  189MOL0     H25473   3.316   0.863   1.996 -1.7027 -1.4119 -0.1592
  189MOL0     H25474   3.257   0.982   2.107 -2.6195  0.2026 -1.1177
  189MOL0     H25475   3.187   0.704   1.878 -1.5700 -1.3533  1.7088
  189MOL0     H25476   2.984   0.664   1.565 -1.7919  1.1516  2.0007
  189MOL0     H25477   3.112   0.790   1.559 -1.5587 -0.0017 -0.3748
  189MOL0     H25478   3.138   0.645   1.658 -0.6800  1.2245  3.1623
  189MOL0     H25479   2.468   0.918   1.687 -1.1213  2.3757  2.0696
  189MOL0     H25480   2.287   0.951   1.530  0.3941 -1.8091  1.2445
  189MOL0     H25481   2.283   1.051   1.092 -3.2804 -3.8810 -1.8627
  189MOL0     H25482   2.418   0.962   1.163  1.1526  0.6797  4.0441
  189MOL0     H25483   2.242   0.841   1.314 -0.0450  2.5079  1.6821
  189MOL0     H25484   2.130   0.907   1.194  0.6990  0.1723 -4.2128
  189MOL0     H25485   2.343   0.704   1.126  0.3879  0.4155 -0.3457
  189MOL0     H25486   2.294   0.827   1.016 -1.6059  0.9951  0.2725
  189MOL0     H25487   2.041   0.717   1.053 -1.1034 -2.9133  0.2233
  189MOL0     H25488   2.169   0.641   0.962 -1.1140 -3.0074  0.8035
  189MOL0     H25489   2.223   0.490   1.149 -1.8561  0.1372 -0.1880
  189MOL0     H25490   2.058   0.487   1.112 -0.0551  0.9884 -1.9942
  189MOL0     H25491   2.094   0.481   1.349  3.0500  0.0175  0.3552
  189MOL0     H25492   2.187   0.633   1.343  0.3610  0.3746 -0.9981
  189MOL0     H25493   1.897   0.639   1.251  1.3718  0.2418 -0.9782
  189MOL0     H25494   1.996   0.762   1.319  3.4803  0.2545 -1.4281
  189MOL0     H25495   2.013   0.646   1.521  0.4362  2.5335  0.2435
  189MOL0     H25496   1.898   0.517   1.464  1.6127 -0.8747  3.0685
  189MOL0     H25497   2.572   1.141   1.262 -3.0506 -1.3092 -1.6037
  189MOL0     H25498   2.755   1.080   1.416  0.6541 -0.3116  3.3838
  189MOL0     H25499   2.784   0.976   1.896  0.0326  0.8954 -4.4696
  189MOL0     H25500   2.950   0.939   2.107 -1.5481 -0.5270  0.3655
  189MOL0     H25501   3.982   2.054   1.898 -0.2354  0.4503  0.5573
  189MOL0     H25502   3.907   2.082   1.666 -0.0067 -0.3716 -0.8977
  189MOL0     H25503   3.379   1.810   1.375  0.2603 -1.2385  1.8607
  189MOL0     H25504   3.375   1.747   1.148  0.3454  0.5618 -2.2790
  189MOL0     H25505   3.441   1.632   0.918  1.0929 -1.4825 -3.7308
  189MOL0     H25506   3.423   1.809   0.913  1.7880 -0.3213  2.3861
  189MOL0     H25507   3.583   1.600   0.751 -1.4949  0.5055 -0.0918
  189MOL0     H25508   3.628   1.776   0.732  1.0122 -0.7522 -0.4472
  189MOL0     H25509   3.352   1.659   0.674  1.1720 -1.5611  0.5534
  189MOL0     H25510   3.468   1.663   0.542 -1.0583  1.5399 -1.8657
  189MOL0     H25511   3.467   1.922   0.586  0.1187  1.1405  2.7942
  189MOL0     H25512   3.314   1.880   0.675 -1.7834  1.0804 -2.2181
  189MOL0     H25513   3.200   1.770   0.283  1.1830 -0.6269 -1.0561
  189MOL0     H25514   3.797   1.811   1.105  0.8091 -1.0651 -0.3457
  189MOL0     H25515   3.800   1.883   1.354  0.6599  1.3076 -1.1407
  190MOL0     O25516   0.142  10.609   5.605  0.1024  0.6308 -0.0831
  190MOL0     C25517   0.076  10.519   5.656 -1.1955  0.4259 -0.6519
  190MOL0     O25518  -0.058  10.517   5.679 -0.0965  0.4185 -0.0245
  190MOL0     C25519  -0.141  10.605   5.616 -0.4889 -0.0826  0.2509
  190MOL0     C25520  -0.105  10.679   5.498  0.3468  0.3851  0.1958
  190MOL0     C25521  -0.196  10.772   5.441  0.8032 -1.1780  0.4333
  190MOL0     C25522  -0.326  10.803   5.501  0.4091  0.4113 -0.0700
  190MOL0     O25523  -0.412  10.891   5.447  1.1094  0.0169 -1.2598
  190MOL0     C25524  -0.409  10.922   5.315 -0.6909  0.0068  0.8089
  190MOL0     C25525  -0.550  10.995   5.290 -0.4693  0.4233 -0.2302
  190MOL0     C25526  -0.567  11.114   5.393 -0.7755 -1.2186  0.3468
  190MOL0     C25527  -0.606  11.249   5.326  0.1307  0.1825  0.5236
  190MOL0     C25528  -0.648  11.338   5.433  0.8429  0.2254  1.0756
  190MOL0     C25529  -0.686  11.477   5.393  0.1805  0.7330 -0.2272
  190MOL0     C25530  -0.572  11.569   5.335  0.4401  0.4466 -0.2433
  190MOL0     C25531  -0.603  11.720   5.342  0.4296  0.7428  1.1928
  190MOL0     N25532  -0.587  11.787   5.465  0.3310 -0.3262 -0.2898
  190MOL0     C25533  -0.461  11.812   5.506 -0.2418 -0.7610 -0.0979
  190MOL0     C25534  -0.481  11.863   5.631  0.1769 -0.5590 -0.0705
  190MOL0     C25535  -0.362  11.887   5.728  0.7366 -0.7781  0.6355
  190MOL0     C25536  -0.318  11.750   5.783  0.1207 -0.3557 -0.5260
  190MOL0     C25537  -0.240  11.768   5.920  0.3103  0.7954 -0.1788
  190MOL0     C25538  -0.231  11.633   5.996  0.2324  0.1878 -0.2421
  190MOL0     O25539  -0.348  11.597   6.055  0.8498 -0.4912 -0.4711
  190MOL0     C25540  -0.342  11.466   6.087 -0.2488  0.0804 -0.3165
  190MOL0     C25541  -0.369  11.363   6.011 -0.8351 -0.8066  0.3240
  190MOL0     C25542  -0.360  11.233   6.051  0.6083  0.9004 -0.2463
  190MOL0     C25543  -0.411  11.127   5.951  0.1406  0.0356 -0.6576
  190MOL0     C25544  -0.312  11.201   6.182 -0.1728 -1.6220  0.0438
  190MOL0     C25545  -0.309  11.063   6.241 -0.2600 -0.5767 -0.6178
  190MOL0     O25546  -0.259  11.062   6.368  0.0469 -0.2860  0.0923
  190MOL0     C25547  -0.245  10.946   6.443 -0.5624  0.5766 -0.7476
  190MOL0     C25548  -0.282  10.814   6.421  0.5129  0.2884  0.0404
  190MOL0     C25549  -0.225  10.707   6.497 -0.2723  0.5406  0.1602
  190MOL0     C25550  -0.142  10.727   6.605 -0.2638 -0.0453 -0.0895
  190MOL0     O25551  -0.073  10.634   6.678  0.2595 -0.6070 -0.2806
  190MOL0     C25552  -0.116  10.504   6.670 -0.2799  0.2932  0.0460
  190MOL0     C25553  -0.049  10.427   6.777 -0.1494  1.0906  0.3309
  190MOL0     C25554  -0.142  10.306   6.805  0.3786  0.1682  0.4983
  190MOL0     C25555  -0.084  10.197   6.901  0.9634  0.6423  0.5752
  190MOL0     C25556  -0.122  10.218   7.048 -1.0646  0.2839 -0.0815
  190MOL0     C25557  -0.048  10.130   7.146 -0.0132 -0.1022  0.0056
  190MOL0     C25558  -0.086   9.973   7.129  1.3026 -1.5489  0.7531
  190MOL0     C25559  -0.045   9.910   7.258  0.3507  0.6824 -0.8796
  190MOL0    Cl25560   0.134   9.900   7.287 -0.2687  0.4563 -0.1421
  190MOL0     C25561  -0.111  10.861   6.627 -0.8486 -0.4655  0.3961
  190MOL0     C25562  -0.151  10.965   6.553  0.5527 -0.5295  0.1816
  190MOL0     O25563  -0.344  10.970   6.179  0.2704  0.1787  0.3673
  190MOL0     C25564  -0.284  11.315   6.266  0.5255  0.4754  0.4263
  190MOL0     C25565  -0.308  11.440   6.213 -0.2315 -0.3579  0.2702
  190MOL0     N25566  -0.616  11.867   5.656  0.1542 -0.7265  0.1085
  190MOL0     N25567  -0.682  11.824   5.550  0.6564 -0.3475 -1.3391
  190MOL0     C25568  -0.343  10.735   5.629  0.3789 -0.0413 -0.3114
  190MOL0     C25569  -0.262  10.632   5.681 -0.3513  0.8458 -0.7962
  190MOL0     C25570   0.162  10.420   5.714  1.1229  0.1795  0.3392
  190MOL0     C25571   0.124  10.348   5.827  0.4173 -0.1583 -0.6496
  190MOL0     C25572   0.222  10.270   5.894  0.4889 -0.1811  0.1907
  190MOL0     C25573   0.357  10.255   5.855  0.7328  0.3791  0.4779
  190MOL0     O25574   0.442  10.176   5.917 -0.8519 -0.2880  0.0704
  190MOL0     C25575   0.400  10.068   6.004  0.2597 -0.1598  0.1261
  190MOL0     C25576   0.500   9.961   5.991  0.7996  0.8821  0.3203
  190MOL0     C25577   0.507   9.893   5.852  0.2184  0.3065 -0.3862
  190MOL0     C25578   0.570   9.754   5.849  0.5207  0.5944 -0.0109
  190MOL0     C25579   0.707   9.772   5.900  1.2546 -0.0347 -0.1124
  190MOL0     C25580   0.819   9.791   5.953 -0.6031  0.2150 -0.3111
  190MOL0     C25581   0.386  10.313   5.738  0.3484 -0.8623 -0.0471
  190MOL0     C25582   0.288  10.389   5.658  0.2791  0.0806  0.0315
  190MOL0     H25583  -0.009  10.657   5.452 -0.2414 -0.5659 -0.6352
  190MOL0     H25584  -0.167  10.811   5.344  1.0880  0.0520  0.9938
  190MOL0     H25585  -0.335  10.999   5.293 -1.3444  0.3412 -0.2836
  190MOL0     H25586  -0.386  10.836   5.251  3.0086  1.5797 -0.2286
  190MOL0     H25587  -0.556  11.030   5.187  3.2199  0.4697 -0.5699
  190MOL0     H25588  -0.634  10.930   5.317  0.8475 -0.2964  2.5792
  190MOL0     H25589  -0.636  11.084   5.472 -2.4748 -2.7294 -1.6022
  190MOL0     H25590  -0.469  11.136   5.437  0.7755  0.9974 -3.6712
  190MOL0     H25591  -0.513  11.282   5.279  1.0800 -1.7108  0.9645
  190MOL0     H25592  -0.669  11.232   5.239 -1.2871  1.9606  1.1371
  190MOL0     H25593  -0.734  11.289   5.480  1.7490  0.2436  2.8226
  190MOL0     H25594  -0.570  11.339   5.510  1.9358  1.1307 -0.0011
  190MOL0     H25595  -0.755  11.475   5.309 -1.0734 -0.2227  0.7874
  190MOL0     H25596  -0.735  11.525   5.478  2.1646  0.1053  1.3496
  190MOL0     H25597  -0.478  11.551   5.389  2.0566  2.2531 -2.2577
  190MOL0     H25598  -0.566  11.536   5.231  0.8184 -2.6642  0.6458
  190MOL0     H25599  -0.711  11.728   5.322  0.4387 -0.3379  0.6715
  190MOL0     H25600  -0.539  11.777   5.274  2.2733 -2.4121  0.0739
  190MOL0     H25601  -0.369  11.793   5.453 -1.1596  0.4308 -2.2230
  190MOL0     H25602  -0.286  11.934   5.664 -0.2131  0.6685  0.5133
  190MOL0     H25603  -0.396  11.959   5.804  0.6382  0.1694 -0.2735
  190MOL0     H25604  -0.254  11.699   5.710 -0.5861  1.6494 -2.6851
  190MOL0     H25605  -0.407  11.688   5.796  0.2556 -0.8366 -1.8213
  190MOL0     H25606  -0.287  11.834   5.992 -0.5813  0.9819 -0.9129
  190MOL0     H25607  -0.141  11.809   5.894  0.4735  0.9443  0.6693
  190MOL0     H25608  -0.149  11.648   6.066  2.7854 -3.0174 -2.2913
  190MOL0     H25609  -0.189  11.554   5.933  2.0767  0.2805  0.7961
  190MOL0     H25610  -0.405  11.377   5.909  2.0540 -1.0649 -0.8327
  190MOL0     H25611  -0.337  11.053   5.917 -0.5758  0.9568 -4.7369
  190MOL0     H25612  -0.491  11.068   5.996  1.0761 -0.2155  0.7373
  190MOL0     H25613  -0.454  11.163   5.858 -1.8567  0.4855  0.3970
  190MOL0     H25614  -0.347  10.788   6.338  0.7253 -1.4848  0.3874
  190MOL0     H25615  -0.248  10.608   6.458 -2.8615  1.9163 -2.1116
  190MOL0     H25616  -0.224  10.497   6.682  0.0551 -2.2358  2.6189
  190MOL0     H25617  -0.088  10.469   6.570  0.6614  1.3063 -0.0597
  190MOL0     H25618   0.054  10.399   6.751 -0.4669  0.2133 -0.0444
  190MOL0     H25619  -0.049  10.484   6.870 -0.6552  0.5333  0.6734
  190MOL0     H25620  -0.180  10.265   6.711 -4.7391 -0.3921  2.5305
  190MOL0     H25621  -0.230  10.341   6.859 -1.0800 -1.8131 -0.4655
  190MOL0     H25622  -0.124  10.100   6.871  0.5279  1.8024 -3.2106
  190MOL0     H25623   0.025  10.189   6.900  0.8244 -3.4497 -1.0190
  190MOL0     H25624  -0.226  10.192   7.068 -1.3970 -0.3650 -2.3443
  190MOL0     H25625  -0.099  10.323   7.069  0.5228  0.1618 -1.0318
  190MOL0     H25626   0.061  10.129   7.137 -0.0687  1.3869 -1.2307
  190MOL0     H25627  -0.089  10.160   7.243 -1.1253 -0.9385 -0.1932
  190MOL0     H25628  -0.037   9.924   7.045 -1.9143 -2.4552 -0.7691
  190MOL0     H25629  -0.193   9.968   7.106  0.6877  2.0054  2.2029
  190MOL0     H25630  -0.078   9.806   7.262  0.0408  0.5583 -4.3453
  190MOL0     H25631  -0.075   9.967   7.347  2.2429 -2.0356  1.6721
  190MOL0     H25632  -0.040  10.887   6.705 -0.1881 -1.9227  0.3224
  190MOL0     H25633  -0.126  11.068   6.575 -0.7701  0.1994 -1.4760
  190MOL0     H25634  -0.263  11.312   6.372 -0.3635 -2.0465  0.6046
  190MOL0     H25635  -0.302  11.530   6.273 -1.8978  1.2368 -1.7595
  190MOL0     H25636  -0.429  10.751   5.693 -0.9826 -3.2693 -1.1439
  190MOL0     H25637  -0.290  10.593   5.778 -1.8122  1.7701 -0.8069
  190MOL0     H25638   0.025  10.371   5.866  1.7568  1.1745  2.2654
  190MOL0     H25639   0.201  10.225   5.991 -0.4511 -2.0519 -0.8124
  190MOL0     H25640   0.400  10.110   6.105  0.0324 -0.2211  0.1522
  190MOL0     H25641   0.305  10.026   5.970  1.1164 -1.3155 -0.9596
  190MOL0     H25642   0.494   9.881   6.066 -0.4532 -0.6256 -1.2842
  190MOL0     H25643   0.597  10.009   6.002  1.3095  0.6126 -2.2519
  190MOL0     H25644   0.552   9.954   5.773 -0.8610  2.3601  0.5094
  190MOL0     H25645   0.400   9.892   5.827  0.6716  0.0194 -2.5582
  190MOL0     H25646   0.571   9.725   5.743 -0.6478 -1.6711  0.5359
  190MOL0     H25647   0.516   9.690   5.919  3.8762 -1.1882  1.1478
  190MOL0     H25648   0.921   9.791   5.988 -0.8071 -1.4103  0.3965
  190MOL0     H25649   0.484  10.289   5.700 -0.3921 -1.9900 -1.3388
  190MOL0     H25650   0.317  10.428   5.561  1.2679 -0.9177 -0.0920
  191MOL0     O25651   2.404   6.602   8.777  0.5362  0.9127  0.2044
  191MOL0     C25652   2.316   6.519   8.745  0.5550  0.4967 -0.2557
  191MOL0     O25653   2.303   6.447   8.619  0.0514 -0.7136 -1.3125
  191MOL0     C25654   2.385   6.473   8.512  0.1156  0.0338  0.2785
  191MOL0     C25655   2.442   6.598   8.492 -0.2799 -0.8159 -0.5451
  191MOL0     C25656   2.533   6.626   8.388  0.8747 -0.5684 -0.7600
  191MOL0     C25657   2.576   6.523   8.303 -0.1993 -0.4674  0.8191
  191MOL0     O25658   2.659   6.542   8.198  1.4771 -1.5243  0.5789
  191MOL0     C25659   2.764   6.446   8.192  0.0230  0.5460 -0.0643
  191MOL0     C25660   2.860   6.492   8.075 -0.2204  0.1206  0.3246
  191MOL0     C25661   2.815   6.453   7.940 -0.1063 -0.1748  0.3997
  191MOL0     C25662   2.712   6.538   7.874  0.2098 -0.0403  0.4044
  191MOL0     C25663   2.651   6.454   7.753 -0.4227 -0.9247  0.6524
  191MOL0     C25664   2.505   6.511   7.736  0.2884  0.8330  1.1324
  191MOL0     C25665   2.435   6.442   7.616 -0.5719  1.1506 -0.2062
  191MOL0     C25666   2.286   6.450   7.654 -0.2169  0.9315 -0.1980
  191MOL0     N25667   2.203   6.383   7.557 -0.5500 -0.1044  0.1496
  191MOL0     C25668   2.086   6.307   7.577  0.1766  0.3545 -0.0684
  191MOL0     C25669   2.045   6.243   7.466 -0.9645 -0.8876  0.4350
  191MOL0     C25670   1.929   6.151   7.463 -0.4500 -0.3334 -0.6379
  191MOL0     C25671   1.985   6.033   7.557 -0.1854  0.2301 -0.0633
  191MOL0     C25672   1.878   5.920   7.566 -0.7395 -0.6247  1.2374
  191MOL0     C25673   1.819   5.930   7.704  0.6565 -0.6392 -0.5363
  191MOL0     O25674   1.874   5.856   7.809  0.0695  0.8981 -0.1935
  191MOL0     C25675   1.792   5.795   7.902  0.0053 -0.5076 -0.4619
  191MOL0     C25676   1.845   5.700   7.983  0.4267  0.1634 -0.8949
  191MOL0     C25677   1.762   5.652   8.097 -0.4095  0.4485  0.7244
  191MOL0     C25678   1.829   5.541   8.177  0.1778  0.0694 -0.2910
  191MOL0     C25679   1.640   5.719   8.128  0.2968 -0.0945  0.0550
  191MOL0     C25680   1.560   5.688   8.257 -0.2157 -0.3404  0.4064
  191MOL0     O25681   1.489   5.790   8.311  0.7206  0.3255  0.4957
  191MOL0     C25682   1.437   5.772   8.437 -0.2795 -0.2007 -0.1152
  191MOL0     C25683   1.309   5.827   8.450 -0.9730  0.1405  0.2019
  191MOL0     C25684   1.244   5.810   8.575 -0.7758  0.2169 -0.6528
  191MOL0     C25685   1.309   5.753   8.691  0.0200  0.6115  0.0722
  191MOL0     O25686   1.225   5.734   8.800  0.3070 -0.6538 -0.2541
  191MOL0     C25687   1.247   5.618   8.886 -0.3963 -0.1586 -0.3823
  191MOL0     C25688   1.152   5.619   9.002 -0.2816  0.1999 -0.1880
  191MOL0     C25689   1.163   5.498   9.118  0.1633 -1.0248 -0.0423
  191MOL0     C25690   1.101   5.364   9.100 -1.1249  0.2371 -0.1349
  191MOL0     C25691   1.089   5.275   9.229  0.6857 -0.5894  1.2567
  191MOL0     C25692   1.234   5.243   9.269  0.5582 -0.3640 -1.1733
  191MOL0     C25693   1.237   5.125   9.372 -0.4170 -0.0797  0.3288
  191MOL0     C25694   1.140   5.143   9.491 -0.6653 -0.5568  0.2368
  191MOL0    Cl25695   1.195   5.274   9.604 -0.1059  0.2029 -0.4694
  191MOL0     C25696   1.434   5.712   8.676  0.1792  0.4969  0.5369
  191MOL0     C25697   1.501   5.720   8.555 -1.0196 -0.2600  0.0909
  191MOL0     O25698   1.575   5.569   8.295 -0.2594  0.1082  0.4348
  191MOL0     C25699   1.597   5.829   8.053 -0.6559  0.3623 -0.3111
  191MOL0     C25700   1.673   5.860   7.942 -0.0660 -0.2570  0.0705
  191MOL0     N25701   2.136   6.284   7.373 -0.4114 -0.8497 -0.0221
  191MOL0     N25702   2.234   6.359   7.424 -0.2000 -0.1605 -0.3446
  191MOL0     C25703   2.510   6.400   8.323 -0.1666 -0.0452 -0.0931
  191MOL0     C25704   2.406   6.369   8.416  0.1700  0.4112 -0.4094
  191MOL0     C25705   2.224   6.476   8.857 -0.1671  0.2396  0.0645
  191MOL0     C25706   2.099   6.424   8.826  0.3950  0.8707 -0.6075
  191MOL0     C25707   2.008   6.378   8.922 -0.1331 -0.6396 -0.5046
  191MOL0     C25708   2.046   6.377   9.058 -0.1343  0.0835 -1.0914
  191MOL0     O25709   1.973   6.326   9.164  0.2884 -0.0906  0.2258
  191MOL0     C25710   1.867   6.234   9.134  0.2494 -0.4550 -0.7657
  191MOL0     C25711   1.928   6.103   9.099 -0.3496  0.2752  0.0238
  191MOL0     C25712   2.006   6.037   9.213 -1.0331  1.6838  1.0207
  191MOL0     C25713   1.909   5.958   9.313 -0.7514  0.3450 -0.0139
  191MOL0     C25714   1.995   5.899   9.423  0.2619 -0.2511  0.2164
  191MOL0     C25715   2.058   5.854   9.519 -0.3567  0.2306  0.2010
  191MOL0     C25716   2.172   6.434   9.090  0.6943  0.0105  0.4431
  191MOL0     C25717   2.256   6.494   8.993  0.2874  0.5510 -0.3831
  191MOL0     H25718   2.415   6.686   8.550  0.9098 -0.7660 -0.0507
  191MOL0     H25719   2.584   6.721   8.380  0.7945 -0.5111 -0.6141
  191MOL0     H25720   2.808   6.433   8.291  3.2443 -1.0629 -1.5692
  191MOL0     H25721   2.731   6.344   8.168  0.9328 -0.2768  1.9521
  191MOL0     H25722   2.869   6.600   8.088 -0.0436  0.9076 -4.3544
  191MOL0     H25723   2.958   6.446   8.086 -0.4826 -1.2887 -2.3413
  191MOL0     H25724   2.899   6.477   7.874 -1.9704  2.3526 -1.2943
  191MOL0     H25725   2.783   6.349   7.934  1.5819 -0.6613 -1.0022
  191MOL0     H25726   2.632   6.574   7.940 -3.8966  0.9860 -4.4983
  191MOL0     H25727   2.759   6.632   7.846 -1.0733  0.5294  0.0510
  191MOL0     H25728   2.708   6.482   7.664  2.6556  0.5986  2.9401
  191MOL0     H25729   2.661   6.345   7.757  0.4254 -0.9980 -1.6134
  191MOL0     H25730   2.442   6.498   7.825  1.1009  2.5052  1.9843
  191MOL0     H25731   2.531   6.616   7.721  0.7832  0.6819  0.9288
  191MOL0     H25732   2.465   6.508   7.534 -0.5423  1.9664  0.4482
  191MOL0     H25733   2.477   6.345   7.589 -1.8665 -0.0360  1.7784
  191MOL0     H25734   2.240   6.549   7.660 -1.8560  0.0939  1.8117
  191MOL0     H25735   2.269   6.403   7.751 -2.5937 -2.6972 -2.1837
  191MOL0     H25736   2.032   6.299   7.672  0.6258  2.6745  0.4529
  191MOL0     H25737   1.840   6.209   7.486 -0.6757 -0.1633 -1.8785
  191MOL0     H25738   1.911   6.123   7.359 -1.9913  2.8133 -1.3356
  191MOL0     H25739   2.013   6.066   7.657 -1.6332 -1.6216  1.0055
  191MOL0     H25740   2.069   5.988   7.502 -1.0746 -2.1742  0.4585
  191MOL0     H25741   1.899   5.814   7.551 -2.9220 -1.0120  0.4773
  191MOL0     H25742   1.800   5.937   7.490  1.3301 -0.8685 -1.0899
  191MOL0     H25743   1.713   5.905   7.695 -0.2475  0.9231  3.4339
  191MOL0     H25744   1.820   6.035   7.734 -2.3801 -0.7764  0.3864
  191MOL0     H25745   1.943   5.664   7.954  2.1119  2.7613  1.1389
  191MOL0     H25746   1.766   5.453   8.191  0.4071 -0.0594 -0.0433
  191MOL0     H25747   1.924   5.509   8.133  0.0826  1.1198 -1.2911
  191MOL0     H25748   1.859   5.578   8.276  2.0387  0.0543 -0.8073
  191MOL0     H25749   1.243   5.875   8.378 -2.0572 -1.8554 -0.2015
  191MOL0     H25750   1.138   5.825   8.591 -0.7904 -0.7476  0.2498
  191MOL0     H25751   1.227   5.520   8.843 -2.2790 -0.8237  1.8353
  191MOL0     H25752   1.346   5.618   8.934  0.7778 -1.3103 -2.6509
  191MOL0     H25753   1.163   5.710   9.061  0.2329  0.5128 -0.7592
  191MOL0     H25754   1.053   5.621   8.954 -1.1369 -3.8625  1.0181
  191MOL0     H25755   1.098   5.533   9.198  1.5193  0.5549  0.4250
  191MOL0     H25756   1.262   5.489   9.164  1.2765 -0.4255 -2.1538
  191MOL0     H25757   1.005   5.368   9.048 -1.2317 -0.1844  0.0228
  191MOL0     H25758   1.162   5.299   9.036 -0.5458  0.2392  0.4046
  191MOL0     H25759   1.040   5.182   9.200 -2.5532  2.0274 -2.6571
  191MOL0     H25760   1.032   5.325   9.308 -1.0763  0.4294 -0.5890
  191MOL0     H25761   1.298   5.202   9.190  0.7857 -1.7309 -0.3291
  191MOL0     H25762   1.280   5.331   9.315 -0.5791 -0.6739  0.6436
  191MOL0     H25763   1.334   5.099   9.414  0.2617 -0.1747 -1.2355
  191MOL0     H25764   1.216   5.036   9.311 -1.6018  0.7380 -0.5045
  191MOL0     H25765   1.146   5.041   9.531 -0.1591 -1.3376 -1.7288
  191MOL0     H25766   1.034   5.153   9.467 -0.0965 -1.0552 -2.8263
  191MOL0     H25767   1.489   5.672   8.761 -0.2225 -0.3365  0.4198
  191MOL0     H25768   1.603   5.684   8.555 -1.0545 -0.3781  0.7778
  191MOL0     H25769   1.514   5.891   8.086 -0.4070 -0.8227  2.9409
  191MOL0     H25770   1.633   5.945   7.887 -0.9045 -0.6500  0.0599
  191MOL0     H25771   2.536   6.321   8.253  1.2902 -0.0545  0.4112
  191MOL0     H25772   2.368   6.267   8.419  0.8052  0.1924  0.3189
  191MOL0     H25773   2.085   6.408   8.719  2.9025 -0.1017 -0.8687
  191MOL0     H25774   1.905   6.349   8.902 -0.5334  0.2228  0.2309
  191MOL0     H25775   1.809   6.226   9.226  1.1445  1.3304  0.0112
  191MOL0     H25776   1.795   6.262   9.056 -0.5275 -1.1093 -0.2934
  191MOL0     H25777   2.001   6.112   9.018 -0.8773 -0.7149 -0.5828
  191MOL0     H25778   1.852   6.030   9.069  2.0387 -1.9384 -0.9565
  191MOL0     H25779   2.069   6.103   9.274 -0.9938  2.0588  0.5775
  191MOL0     H25780   2.072   5.967   9.160 -0.8170  1.3861  1.6629
  191MOL0     H25781   1.848   5.882   9.263  3.4770 -2.7501 -1.0480
  191MOL0     H25782   1.846   6.029   9.367  1.1710  0.7259  1.9087
  191MOL0     H25783   2.110   5.808   9.600 -1.4003  1.1731  1.4379
  191MOL0     H25784   2.191   6.435   9.196 -1.9876 -2.6067  1.0728
  191MOL0     H25785   2.345   6.549   9.023  1.7918 -0.6054 -2.4768
  192MOL0     O25786   3.822   7.582   4.244 -0.2849 -0.4307 -0.1802
  192MOL0     C25787   3.852   7.473   4.188  0.2853  0.6187  0.2922
  192MOL0     O25788   3.927   7.370   4.230  0.4421 -0.2206  0.1569
  192MOL0     C25789   3.973   7.379   4.355  0.3278 -0.9219 -0.3123
  192MOL0     C25790   3.949   7.293   4.470  0.1863 -0.0989 -0.1209
  192MOL0     C25791   4.023   7.301   4.595  0.0583  0.0856  0.4933
  192MOL0     C25792   4.127   7.390   4.609 -0.0379  0.5071  0.5070
  192MOL0     O25793   4.217   7.409   4.709  0.2995 -0.0785  0.2348
  192MOL0     C25794   4.178   7.345   4.832 -0.0956  0.2998  0.6924
  192MOL0     C25795   4.305   7.371   4.914 -0.3089 -0.3846  0.0603
  192MOL0     C25796   4.433   7.293   4.852  0.1038 -0.7153 -0.1087
  192MOL0     C25797   4.407   7.161   4.815  0.8941  0.2659  0.2899
  192MOL0     C25798   4.537   7.101   4.770 -0.3843 -1.2709 -0.3304
  192MOL0     C25799   4.537   6.963   4.712 -0.1732  0.5781 -0.7290
  192MOL0     C25800   4.481   6.852   4.800 -0.5438  0.3355 -0.7894
  192MOL0     C25801   4.485   6.723   4.721 -0.1049 -0.6387  0.3539
  192MOL0     N25802   4.396   6.630   4.785  0.2561 -0.2016 -0.2397
  192MOL0     C25803   4.259   6.648   4.799  0.0819  1.2353 -0.2641
  192MOL0     C25804   4.207   6.540   4.858 -0.0416 -0.4349  1.0132
  192MOL0     C25805   4.073   6.511   4.905 -0.2495 -0.1945  0.0870
  192MOL0     C25806   3.974   6.473   4.792 -0.7277 -0.0985  0.3438
  192MOL0     C25807   3.954   6.322   4.794  0.1767 -0.6336  1.0535
  192MOL0     C25808   3.822   6.269   4.723  0.2508  0.0235  0.5726
  192MOL0     O25809   3.830   6.316   4.591 -0.5661 -0.1137  0.9279
  192MOL0     C25810   3.717   6.305   4.521  1.3360  1.2880  0.8764
  192MOL0     C25811   3.684   6.398   4.418  0.1861 -0.1582  1.1438
  192MOL0     C25812   3.567   6.383   4.338 -0.2830  0.3542  0.6251
  192MOL0     C25813   3.554   6.496   4.231 -0.9764 -0.9524  0.2747
  192MOL0     C25814   3.470   6.286   4.362  0.8452  0.4704 -1.0926
  192MOL0     C25815   3.333   6.288   4.300 -0.3356  0.5296  0.5354
  192MOL0     O25816   3.253   6.190   4.348 -0.1880  0.0526  0.3292
  192MOL0     C25817   3.126   6.184   4.295  0.0508  0.2727  1.1159
  192MOL0     C25818   3.102   6.173   4.159 -0.1252  0.0803  0.3191
  192MOL0     C25819   2.974   6.168   4.109  0.8905 -0.2115  0.7129
  192MOL0     C25820   2.857   6.178   4.190 -0.3076  0.7767 -0.0405
  192MOL0     O25821   2.729   6.202   4.135  0.6147  0.5453 -0.5160
  192MOL0     C25822   2.626   6.272   4.208  0.0978 -0.9478 -0.3556
  192MOL0     C25823   2.515   6.288   4.088 -0.6020 -0.3476  0.7419
  192MOL0     C25824   2.372   6.281   4.147 -0.4372  1.2000 -0.3372
  192MOL0     C25825   2.284   6.407   4.165 -0.8462  0.0309 -0.3997
  192MOL0     C25826   2.188   6.400   4.279  0.4535  0.1647  0.1505
  192MOL0     C25827   2.144   6.530   4.347  0.2067 -0.2371 -0.2097
  192MOL0     C25828   2.044   6.612   4.264 -0.0900 -0.8918  1.3949
  192MOL0     C25829   1.984   6.733   4.335 -0.0570  0.2173 -0.5010
  192MOL0    Cl25830   1.888   6.835   4.219 -0.3749  0.4013 -0.3006
  192MOL0     C25831   2.878   6.203   4.329 -0.3756 -0.2547  0.2415
  192MOL0     C25832   3.011   6.208   4.376  0.3769  0.3542 -0.7100
  192MOL0     O25833   3.315   6.344   4.194 -0.5422  0.7307  0.0954
  192MOL0     C25834   3.505   6.190   4.461  0.0092 -0.2393  0.3696
  192MOL0     C25835   3.622   6.199   4.537  0.5250 -0.4359  1.0136
  192MOL0     N25836   4.316   6.457   4.892 -0.0310 -0.5552  0.4131
  192MOL0     N25837   4.425   6.511   4.843 -0.4276  1.0945 -0.0363
  192MOL0     C25838   4.150   7.474   4.500 -0.4852  0.1692 -0.3166
  192MOL0     C25839   4.075   7.474   4.377  0.7471 -0.4721 -0.1590
  192MOL0     C25840   3.811   7.456   4.051  0.4911 -0.3834 -0.0822
  192MOL0     C25841   3.738   7.559   3.989 -0.2656 -0.0727 -0.1054
  192MOL0     C25842   3.711   7.546   3.857  0.2222  0.0189  0.1658
  192MOL0     C25843   3.749   7.430   3.785 -0.6227 -0.3801  1.3408
  192MOL0     O25844   3.721   7.404   3.649  0.0553  0.3024  0.1471
  192MOL0     C25845   3.577   7.388   3.631  0.3460 -0.3106  0.5817
  192MOL0     C25846   3.536   7.471   3.515  0.4995  0.2386 -0.4580
  192MOL0     C25847   3.604   7.430   3.384  0.1103  0.1767 -0.1589
  192MOL0     C25848   3.575   7.499   3.251 -0.2224  0.2051 -0.1199
  192MOL0     C25849   3.655   7.445   3.139  0.2211  0.7764 -0.1938
  192MOL0     C25850   3.698   7.387   3.044  1.1420  0.5942  0.0172
  192MOL0     C25851   3.818   7.331   3.845 -1.0133 -0.1652 -0.2329
  192MOL0     C25852   3.846   7.338   3.979 -0.6841 -0.0874 -0.3243
  192MOL0     H25853   3.865   7.225   4.471 -0.2672  0.4554 -0.2747
  192MOL0     H25854   3.995   7.243   4.682  2.8826  1.1459  2.2338
  192MOL0     H25855   4.089   7.394   4.873 -0.3953  0.7071 -0.4118
  192MOL0     H25856   4.154   7.239   4.820  2.4551 -0.4380  1.4969
  192MOL0     H25857   4.305   7.480   4.914 -2.2859 -0.3475  0.0143
  192MOL0     H25858   4.299   7.333   5.016  0.7121  1.9204  1.0275
  192MOL0     H25859   4.471   7.353   4.768  3.5814 -0.3660  1.5602
  192MOL0     H25860   4.516   7.295   4.923 -1.4284  0.1109  1.7513
  192MOL0     H25861   4.386   7.102   4.905  3.8185  2.0112  2.2866
  192MOL0     H25862   4.337   7.155   4.731  0.1164 -0.2973  0.9681
  192MOL0     H25863   4.576   7.162   4.688 -1.0808 -1.6476 -0.9517
  192MOL0     H25864   4.601   7.093   4.858 -1.6777 -0.2295  0.7520
  192MOL0     H25865   4.508   6.967   4.607 -1.1162  0.7727 -0.4679
  192MOL0     H25866   4.639   6.923   4.717 -0.0731  0.5311 -2.5050
  192MOL0     H25867   4.552   6.839   4.882 -0.8654 -0.3391 -0.6151
  192MOL0     H25868   4.381   6.877   4.837 -0.4531  5.7917 -3.2939
  192MOL0     H25869   4.587   6.685   4.722  0.9520  1.6831 -3.0480
  192MOL0     H25870   4.464   6.735   4.614  0.8569 -1.1024  0.1068
  192MOL0     H25871   4.203   6.736   4.770 -1.5016  0.8607  1.5365
  192MOL0     H25872   4.073   6.439   4.987  1.9472 -1.6892 -1.1404
  192MOL0     H25873   4.025   6.601   4.946  0.3773  0.2988 -0.2410
  192MOL0     H25874   4.003   6.513   4.695  1.9969 -1.6035  0.4230
  192MOL0     H25875   3.879   6.520   4.817 -0.5987 -0.0484  0.7473
  192MOL0     H25876   3.959   6.284   4.896  0.2070 -0.2637  1.1929
  192MOL0     H25877   4.037   6.280   4.735  0.3723  0.4337  0.5430
  192MOL0     H25878   3.721   6.297   4.756 -0.7941  0.9204 -2.9781
  192MOL0     H25879   3.835   6.161   4.719  3.8246  0.3580  0.2227
  192MOL0     H25880   3.760   6.471   4.395  0.2243 -1.1292 -2.5775
  192MOL0     H25881   3.638   6.566   4.236 -1.6358 -0.2167  2.7283
  192MOL0     H25882   3.546   6.450   4.132 -1.2992  0.2778 -0.2892
  192MOL0     H25883   3.461   6.552   4.243  0.1984  1.4335 -1.0248
  192MOL0     H25884   3.183   6.162   4.089 -0.7461  1.4884 -0.6588
  192MOL0     H25885   2.961   6.169   4.002  0.0844  0.4388  0.8121
  192MOL0     H25886   2.583   6.209   4.286 -1.3591 -1.6665 -1.6896
  192MOL0     H25887   2.658   6.372   4.239  2.2099 -0.8857 -2.4755
  192MOL0     H25888   2.523   6.383   4.034 -5.3265  0.7563  1.6135
  192MOL0     H25889   2.534   6.201   4.024  2.2346 -0.3790  1.4521
  192MOL0     H25890   2.381   6.222   4.239  0.9733  0.7149 -0.7619
  192MOL0     H25891   2.322   6.209   4.080  0.2544 -0.1346  0.5240
  192MOL0     H25892   2.353   6.489   4.188 -1.9197  1.4231 -1.9038
  192MOL0     H25893   2.226   6.417   4.073 -2.1756 -3.0987 -0.0159
  192MOL0     H25894   2.242   6.348   4.358  1.1991  1.7163  0.7189
  192MOL0     H25895   2.099   6.340   4.261 -0.6950  1.6002  0.8273
  192MOL0     H25896   2.092   6.509   4.441  0.3579  1.7939  0.3708
  192MOL0     H25897   2.230   6.595   4.366 -0.4140  0.4168  0.4235
  192MOL0     H25898   1.965   6.546   4.228  0.2459 -0.4398 -0.2412
  192MOL0     H25899   2.088   6.649   4.171  0.1564 -0.0524  1.8344
  192MOL0     H25900   2.066   6.795   4.374  0.6294 -1.9085  1.6516
  192MOL0     H25901   1.929   6.699   4.423  1.3741 -2.0556 -0.4048
  192MOL0     H25902   2.794   6.236   4.389  0.3515 -0.9533  1.7020
  192MOL0     H25903   3.021   6.223   4.483  3.2926  1.0748 -0.9849
  192MOL0     H25904   3.437   6.111   4.493 -0.5812  1.2191  3.0465
  192MOL0     H25905   3.629   6.131   4.621 -0.2268 -1.1055  0.5414
  192MOL0     H25906   4.236   7.539   4.508 -0.6391  0.2093  1.2304
  192MOL0     H25907   4.112   7.532   4.293 -0.1523 -0.5497 -0.6230
  192MOL0     H25908   3.700   7.657   4.018 -0.8303  0.2372 -1.7621
  192MOL0     H25909   3.654   7.629   3.818 -0.7877 -0.1656  1.1866
  192MOL0     H25910   3.550   7.282   3.630 -3.1219  0.2776  4.2140
  192MOL0     H25911   3.523   7.430   3.717  1.2649  0.1218  0.9623
  192MOL0     H25912   3.570   7.573   3.537  1.2053  0.7462 -3.4688
  192MOL0     H25913   3.427   7.464   3.511  0.3949  0.4746  1.0862
  192MOL0     H25914   3.567   7.328   3.375  1.9270 -0.3995 -1.9684
  192MOL0     H25915   3.712   7.420   3.389  0.1685  1.1738  1.2184
  192MOL0     H25916   3.580   7.607   3.260 -1.7062  0.4127 -1.3331
  192MOL0     H25917   3.468   7.488   3.234  0.1272  0.2557 -2.9495
  192MOL0     H25918   3.731   7.325   2.963  1.2903  1.9277 -0.9831
  192MOL0     H25919   3.855   7.253   3.779 -1.1512  0.2110 -0.7612
  192MOL0     H25920   3.902   7.254   4.019 -2.1166 -0.9888 -0.1173
  193MOL0     O25921   1.579   8.542   2.645 -0.5064 -0.2140  0.2717
  193MOL0     C25922   1.491   8.460   2.642  0.1526  0.4408 -0.2704
  193MOL0     O25923   1.358   8.485   2.660 -0.5761 -0.6548 -0.1100
  193MOL0     C25924   1.307   8.605   2.647  0.3688 -0.5511 -0.3493
  193MOL0     C25925   1.289   8.666   2.524  0.1116  0.1270  0.1170
  193MOL0     C25926   1.227   8.791   2.510 -0.1441 -0.4270 -0.2754
  193MOL0     C25927   1.183   8.866   2.626 -0.2102 -0.2087  1.0726
  193MOL0     O25928   1.136   8.995   2.614 -0.2807  0.5704  0.0369
  193MOL0     C25929   1.036   9.047   2.702  0.4590  0.5908 -0.2590
  193MOL0     C25930   0.948   9.142   2.616 -0.7576  1.0001  0.3262
  193MOL0     C25931   1.021   9.242   2.525  0.0135 -0.4727 -0.3385
  193MOL0     C25932   0.925   9.362   2.475  0.3651 -0.2200 -0.1180
  193MOL0     C25933   1.004   9.456   2.387  0.0985  0.7371 -0.1096
  193MOL0     C25934   0.915   9.576   2.377 -0.8914  0.7192  0.4587
  193MOL0     C25935   0.955   9.678   2.265  0.1853  0.9555  0.2703
  193MOL0     C25936   0.977   9.820   2.315  0.4124 -0.1985 -0.7206
  193MOL0     N25937   1.060   9.832   2.437 -0.0146  0.4018  0.0667
  193MOL0     C25938   1.178   9.766   2.444  0.8144 -0.2362  0.0607
  193MOL0     C25939   1.240   9.826   2.549 -0.4624 -0.7252 -0.3217
  193MOL0     C25940   1.374   9.793   2.605 -1.4726  0.4322  0.5920
  193MOL0     C25941   1.403   9.710   2.726 -0.1830 -0.9072 -0.6299
  193MOL0     C25942   1.371   9.554   2.703 -0.7018  0.8616 -0.4837
  193MOL0     C25943   1.435   9.511   2.574 -0.5088  0.6031  0.3221
  193MOL0     O25944   1.430   9.367   2.581 -0.6906 -0.4790 -0.2551
  193MOL0     C25945   1.535   9.300   2.640 -0.3029  0.3708 -0.8635
  193MOL0     C25946   1.534   9.160   2.621  0.5258  0.6971  0.8849
  193MOL0     C25947   1.627   9.079   2.692  0.3260 -0.3654  1.1404
  193MOL0     C25948   1.595   8.935   2.665  0.2481  0.3341  0.3936
  193MOL0     C25949   1.722   9.141   2.782  0.2982 -0.0600 -0.0121
  193MOL0     C25950   1.821   9.064   2.861 -0.0789  0.8904 -0.0884
  193MOL0     O25951   1.899   9.143   2.946  0.1533 -0.3293 -0.1548
  193MOL0     C25952   1.988   9.099   3.039 -0.3640 -0.9105 -0.8043
  193MOL0     C25953   1.983   8.981   3.110 -0.4514 -0.3210 -0.3441
  193MOL0     C25954   2.085   8.942   3.197  0.2430 -0.2345 -0.1972
  193MOL0     C25955   2.186   9.028   3.233  0.1726  1.0528  0.4032
  193MOL0     O25956   2.274   9.018   3.342  0.0271  0.4617  0.7892
  193MOL0     C25957   2.293   8.882   3.393  0.4778  0.1807  0.4172
  193MOL0     C25958   2.408   8.892   3.496 -0.5471  0.5280  0.6682
  193MOL0     C25959   2.459   8.746   3.522  0.8727 -0.0856  0.3470
  193MOL0     C25960   2.552   8.748   3.649 -0.7204  0.8422 -0.0206
  193MOL0     C25961   2.653   8.627   3.673 -0.2382  1.0027 -0.4624
  193MOL0     C25962   2.597   8.487   3.669  0.9318  0.3276 -0.5911
  193MOL0     C25963   2.711   8.385   3.673 -0.1000  0.2394 -0.3038
  193MOL0     C25964   2.669   8.263   3.745 -0.1955  0.4549 -0.5743
  193MOL0    Cl25965   2.545   8.165   3.651 -0.5640  0.0235 -0.4040
  193MOL0     C25966   2.187   9.158   3.176  0.4237 -0.0805 -0.1682
  193MOL0     C25967   2.098   9.184   3.072 -0.3404  0.3162  0.4275
  193MOL0     O25968   1.828   8.937   2.855  0.7547 -0.0510 -0.0263
  193MOL0     C25969   1.711   9.279   2.810 -0.8929 -0.1456  0.3797
  193MOL0     C25970   1.627   9.363   2.738  0.2322 -0.1501 -0.2969
  193MOL0     N25971   1.152   9.923   2.601 -0.1835 -0.2234 -0.6016
  193MOL0     N25972   1.045   9.934   2.532  0.8690 -0.0861  0.9092
  193MOL0     C25973   1.208   8.805   2.744 -0.1965 -0.0292 -0.7261
  193MOL0     C25974   1.259   8.668   2.756  0.3217 -0.6483 -0.4155
  193MOL0     C25975   1.521   8.313   2.619  0.0290 -0.5182 -1.1520
  193MOL0     C25976   1.632   8.258   2.675  0.0300  0.6153 -0.9580
  193MOL0     C25977   1.651   8.120   2.665  0.0004  1.2191  0.1997
  193MOL0     C25978   1.571   8.042   2.581  0.1436  0.9414  0.4906
  193MOL0     O25979   1.608   7.910   2.556  0.2145 -0.0672 -0.0343
  193MOL0     C25980   1.494   7.816   2.543 -0.2269 -0.5318 -0.0889
  193MOL0     C25981   1.552   7.676   2.518  1.1504 -0.1726 -0.1768
  193MOL0     C25982   1.674   7.666   2.422 -1.1424  0.4913  0.0555
  193MOL0     C25983   1.686   7.521   2.368  0.0504  0.5947 -0.5574
  193MOL0     C25984   1.794   7.511   2.262  1.1803  0.3756 -1.0762
  193MOL0     C25985   1.881   7.527   2.180  0.0776 -1.1567  0.5411
  193MOL0     C25986   1.470   8.108   2.514  0.3354  0.4559 -0.4069
  193MOL0     C25987   1.443   8.238   2.532  1.1463 -0.2097  0.0036
  193MOL0     H25988   1.328   8.598   2.448  1.1355  1.6274 -0.7473
  193MOL0     H25989   1.202   8.817   2.408 -2.4508 -2.0724 -0.2184
  193MOL0     H25990   0.964   8.969   2.731  1.2087  1.0534  3.3966
  193MOL0     H25991   1.068   9.093   2.796 -0.6364  1.0520 -0.0975
  193MOL0     H25992   0.880   9.084   2.553 -0.8139  1.2585  0.1451
  193MOL0     H25993   0.877   9.197   2.680  0.6245  2.0772  1.0034
  193MOL0     H25994   1.096   9.291   2.587  1.0055  0.5838 -2.2694
  193MOL0     H25995   1.055   9.184   2.439 -4.5056 -3.9896 -0.1605
  193MOL0     H25996   0.844   9.329   2.410 -0.9021  2.0511  0.1930
  193MOL0     H25997   0.885   9.419   2.560  2.0613  1.6562 -0.5297
  193MOL0     H25998   1.100   9.482   2.434  0.4513  1.5243 -1.2400
  193MOL0     H25999   1.026   9.407   2.292 -3.8247 -1.6207 -0.0093
  193MOL0     H26000   0.809   9.549   2.368 -2.1911  3.3223  4.8610
  193MOL0     H26001   0.921   9.622   2.476  2.6965  1.4476  0.0273
  193MOL0     H26002   1.046   9.651   2.211  0.0181  2.4803 -0.8223
  193MOL0     H26003   0.876   9.688   2.191  1.9244 -1.0948 -2.0659
  193MOL0     H26004   0.878   9.862   2.334  2.5193  5.7047 -0.6059
  193MOL0     H26005   1.020   9.875   2.231 -1.8913 -0.7334 -2.3379
  193MOL0     H26006   1.219   9.684   2.387  2.8717  1.2353 -0.6776
  193MOL0     H26007   1.428   9.758   2.516  0.3119  0.0887  1.7486
  193MOL0     H26008   1.429   9.883   2.636  2.5989 -0.8448 -2.0392
  193MOL0     H26009   1.347   9.757   2.808  2.9545  1.0834  0.5442
  193MOL0     H26010   1.507   9.727   2.756 -0.7649 -0.0072  0.9700
  193MOL0     H26011   1.263   9.545   2.698 -0.8739  1.6549  1.1545
  193MOL0     H26012   1.403   9.493   2.788  0.3192  0.6383 -1.0021
  193MOL0     H26013   1.540   9.540   2.568  0.5951 -2.7941  0.7071
  193MOL0     H26014   1.391   9.531   2.476  2.1299 -2.1359 -1.6263
  193MOL0     H26015   1.470   9.108   2.551  0.9996  2.4123 -0.9269
  193MOL0     H26016   1.624   8.858   2.737  0.9038 -0.1642 -0.3801
  193MOL0     H26017   1.487   8.927   2.682  0.1531 -1.3647 -0.6994
  193MOL0     H26018   1.619   8.905   2.562  0.0277 -0.4923  0.5750
  193MOL0     H26019   1.901   8.910   3.113 -1.1463  0.3432 -1.8943
  193MOL0     H26020   2.063   8.842   3.232 -1.7430 -0.0717 -0.8718
  193MOL0     H26021   2.205   8.849   3.449  0.3658 -2.1497 -1.0227
  193MOL0     H26022   2.325   8.807   3.320 -0.7741  0.3824 -0.3708
  193MOL0     H26023   2.487   8.953   3.453 -2.1508  3.3759  1.4796
  193MOL0     H26024   2.376   8.942   3.588 -0.6331 -0.6005  1.2724
  193MOL0     H26025   2.515   8.709   3.437 -0.0416 -1.9551  0.5029
  193MOL0     H26026   2.366   8.691   3.541  0.4678  0.2758 -0.5500
  193MOL0     H26027   2.615   8.836   3.636  0.9944 -0.4927 -1.2473
  193MOL0     H26028   2.500   8.769   3.743 -0.2274  3.0549 -0.1872
  193MOL0     H26029   2.703   8.637   3.770  1.4743 -2.0117 -0.9077
  193MOL0     H26030   2.719   8.625   3.585 -2.0214 -0.2288 -1.8432
  193MOL0     H26031   2.532   8.456   3.751  4.2846 -3.4090  0.9514
  193MOL0     H26032   2.559   8.481   3.566  2.7474 -3.9220 -1.2045
  193MOL0     H26033   2.800   8.427   3.719  0.7191 -0.4914 -1.1807
  193MOL0     H26034   2.730   8.348   3.572 -0.8807 -0.2663 -0.2747
  193MOL0     H26035   2.633   8.284   3.846 -4.0262  1.5378 -1.9891
  193MOL0     H26036   2.761   8.204   3.744 -2.4878 -3.4898  0.7719
  193MOL0     H26037   2.263   9.228   3.209  0.3298 -0.4577  0.8892
  193MOL0     H26038   2.097   9.277   3.017  1.2148  0.9082  1.3497
  193MOL0     H26039   1.764   9.328   2.892  1.1130 -2.4094  0.5461
  193MOL0     H26040   1.631   9.468   2.766  2.1533 -0.2634 -0.0267
  193MOL0     H26041   1.199   8.870   2.831  1.7383 -0.7572  0.0797
  193MOL0     H26042   1.270   8.620   2.853  2.2915 -1.8758 -1.1692
  193MOL0     H26043   1.689   8.315   2.748 -2.4391  1.4487  0.4569
  193MOL0     H26044   1.728   8.061   2.713  0.4231 -0.4610 -2.3815
  193MOL0     H26045   1.425   7.804   2.627  0.3741 -1.2682  0.3089
  193MOL0     H26046   1.428   7.852   2.464 -3.7990 -2.6145  1.6913
  193MOL0     H26047   1.467   7.622   2.473  1.1630  0.4017 -0.9166
  193MOL0     H26048   1.573   7.639   2.618 -2.6104  0.5571  1.0596
  193MOL0     H26049   1.772   7.684   2.466 -0.4170 -1.1088 -0.8468
  193MOL0     H26050   1.648   7.742   2.348 -0.2503 -0.5356 -1.3564
  193MOL0     H26051   1.585   7.485   2.343  0.1203 -0.1626  0.1975
  193MOL0     H26052   1.717   7.455   2.450 -0.2705 -4.6170 -4.1254
  193MOL0     H26053   1.946   7.561   2.101 -1.3295  1.4426  0.3988
  193MOL0     H26054   1.418   8.050   2.438 -0.5565 -1.2296  1.3955
  193MOL0     H26055   1.367   8.291   2.475  0.7375 -0.3719  0.3931
  194MOL0     O26056   5.819   8.507   1.217 -0.0153  0.2487  0.1564
  194MOL0     C26057   5.924   8.553   1.267  0.1739 -0.1417 -0.1060
  194MOL0     O26058   6.036   8.476   1.298 -1.0984 -0.3879  0.2791
  194MOL0     C26059   6.038   8.335   1.285 -0.3080 -0.1276  0.6428
  194MOL0     C26060   6.148   8.276   1.211  0.5897  0.1575 -0.3900
  194MOL0     C26061   6.160   8.138   1.206 -0.7712  0.3501 -0.1139
  194MOL0     C26062   6.072   8.051   1.276 -0.6194 -0.0698 -0.7019
  194MOL0     O26063   6.094   7.915   1.264 -0.2611  0.1970 -0.4954
  194MOL0     C26064   5.975   7.837   1.291  0.9074 -0.0395  0.5451
  194MOL0     C26065   6.008   7.685   1.273 -0.5027  0.3498  0.1815
  194MOL0     C26066   6.092   7.672   1.148  1.3012 -0.5324 -0.8103
  194MOL0     C26067   6.124   7.521   1.137  0.0399  0.1657  0.0057
  194MOL0     C26068   6.182   7.469   1.003 -0.7825  0.5524 -0.1067
  194MOL0     C26069   6.247   7.332   1.020  0.1188  0.2004 -0.3914
  194MOL0     C26070   6.344   7.299   0.897  0.0919 -0.2177 -0.0532
  194MOL0     C26071   6.495   7.335   0.927  0.3742 -0.3150 -0.0501
  194MOL0     N26072   6.571   7.318   0.802  0.3769 -0.8678 -0.6432
  194MOL0     C26073   6.573   7.405   0.697  0.7533  0.2149 -0.1482
  194MOL0     C26074   6.660   7.341   0.613  0.1947  0.2722 -0.0319
  194MOL0     C26075   6.711   7.377   0.482  0.5371  0.5706  0.3970
  194MOL0     C26076   6.603   7.455   0.395  0.2133  0.4239 -0.2894
  194MOL0     C26077   6.671   7.514   0.273  0.6197  0.1629 -0.3710
  194MOL0     C26078   6.565   7.592   0.181  1.0121 -0.4775  0.1843
  194MOL0     O26079   6.490   7.684   0.265  0.5462 -0.3169  0.6656
  194MOL0     C26080   6.368   7.721   0.213  0.2344 -0.8645 -0.7589
  194MOL0     C26081   6.285   7.794   0.303  0.3453  0.6709 -0.1137
  194MOL0     C26082   6.165   7.844   0.259  0.3824  0.2502  0.2490
  194MOL0     C26083   6.085   7.904   0.373  0.4073  0.7556 -0.6694
  194MOL0     C26084   6.114   7.818   0.128 -0.1078 -0.7393 -0.3321
  194MOL0     C26085   5.987   7.863   0.088 -0.3362  1.3570 -1.3480
  194MOL0     O26086   5.931   7.792  -0.011 -0.2993  0.1067 -0.6476
  194MOL0     C26087   5.815   7.845  -0.053 -0.1782  0.9764  0.0195
  194MOL0     C26088   5.700   7.861   0.026  0.1263 -0.7539 -1.1383
  194MOL0     C26089   5.581   7.911  -0.029  0.1758  0.0939  0.5838
  194MOL0     C26090   5.579   7.932  -0.171 -0.2746 -0.1645  0.1685
  194MOL0     O26091   5.469   7.972  -0.238 -0.2391 -0.3716  0.7466
  194MOL0     C26092   5.368   8.043  -0.176 -0.4067 -0.3842 -1.6807
  194MOL0     C26093   5.275   8.082  -0.294 -0.6339 -0.2687  0.7444
  194MOL0     C26094   5.172   7.982  -0.332 -0.4124  0.0191 -0.5389
  194MOL0     C26095   5.066   7.972  -0.224  0.9123  0.1761  0.8791
  194MOL0     C26096   4.983   7.860  -0.258 -0.9291  0.3326  0.0642
  194MOL0     C26097   4.847   7.858  -0.205  0.9240 -0.3623 -0.7657
  194MOL0     C26098   4.825   7.877  -0.066 -0.2266  0.0564 -1.0700
  194MOL0     C26099   4.713   7.803  -0.014  0.5239 -0.5848 -0.5178
  194MOL0    Cl26100   4.575   7.858  -0.102  0.2280  0.1037  0.2210
  194MOL0     C26101   5.693   7.913  -0.251 -0.8717 -0.1944 -0.9838
  194MOL0     C26102   5.815   7.869  -0.189  0.7517  0.9479  0.5027
  194MOL0     O26103   5.947   7.970   0.140  0.3981 -0.0360  0.4092
  194MOL0     C26104   6.199   7.759   0.033  0.7636  0.4650  1.1775
  194MOL0     C26105   6.322   7.723   0.078 -0.9977  0.3209 -0.3269
  194MOL0     N26106   6.718   7.226   0.667  0.0992  0.3242 -0.3957
  194MOL0     N26107   6.659   7.212   0.784  0.0020  0.4312  0.1911
  194MOL0     C26108   5.963   8.114   1.344  0.3497 -0.3351 -0.6062
  194MOL0     C26109   5.947   8.252   1.347 -0.3537  0.6301 -0.1348
  194MOL0     C26110   5.938   8.703   1.283 -0.2015 -0.1522 -0.0793
  194MOL0     C26111   5.836   8.790   1.245 -0.4258 -0.0543 -0.4021
  194MOL0     C26112   5.862   8.925   1.262  0.2396 -0.3744  0.0905
  194MOL0     C26113   5.983   8.988   1.286 -0.0669  0.3842  0.3250
  194MOL0     O26114   5.981   9.131   1.276 -0.1429  0.3960  0.2523
  194MOL0     C26115   6.102   9.195   1.309  1.1930 -0.2418  0.7824
  194MOL0     C26116   6.068   9.342   1.324  0.4550  0.9896  0.3432
  194MOL0     C26117   6.191   9.427   1.369  0.2996  0.6262  0.6472
  194MOL0     C26118   6.188   9.413   1.518  0.2915  0.0567  0.3467
  194MOL0     C26119   6.283   9.512   1.561  0.7325 -0.5003  0.1005
  194MOL0     C26120   6.379   9.577   1.602 -0.2472  1.1621 -0.7296
  194MOL0     C26121   6.089   8.899   1.317  0.4340 -0.6600 -0.0354
  194MOL0     C26122   6.066   8.759   1.319  0.4239 -0.5606  0.0015
  194MOL0     H26123   6.217   8.346   1.165  0.5398  0.9494  0.7005
  194MOL0     H26124   6.237   8.085   1.150 -2.7933 -4.3407  1.1005
  194MOL0     H26125   5.932   7.861   1.389  1.5813  1.8739  0.4131
  194MOL0     H26126   5.901   7.859   1.213  1.4469  0.3178  0.1306
  194MOL0     H26127   6.065   7.653   1.360  0.0465  2.1641  0.5303
  194MOL0     H26128   5.927   7.612   1.273  0.6525 -0.9893  1.5200
  194MOL0     H26129   6.024   7.699   1.066  0.2640  1.3573  0.6048
  194MOL0     H26130   6.180   7.736   1.146 -1.3006  3.3472 -2.9906
  194MOL0     H26131   6.190   7.492   1.219 -2.7919 -0.2345  2.3344
  194MOL0     H26132   6.030   7.468   1.155  1.1361 -2.0320 -0.3757
  194MOL0     H26133   6.111   7.468   0.920  0.9805  2.6803 -1.7510
  194MOL0     H26134   6.272   7.531   1.000  1.3922 -1.8931  4.3900
  194MOL0     H26135   6.301   7.316   1.114  0.3851  1.4275 -0.3133
  194MOL0     H26136   6.168   7.256   1.018  2.1968 -2.1634 -4.3828
  194MOL0     H26137   6.333   7.193   0.873 -1.1667 -0.1747  0.2337
  194MOL0     H26138   6.308   7.356   0.811  1.1423  0.7306  0.1154
  194MOL0     H26139   6.540   7.272   1.004  2.5389  2.5815  1.2716
  194MOL0     H26140   6.506   7.439   0.959  2.4688 -0.6370  0.4195
  194MOL0     H26141   6.522   7.501   0.687  0.1126 -0.0845  0.2303
  194MOL0     H26142   6.807   7.428   0.489  1.5197 -1.1727  0.2725
  194MOL0     H26143   6.738   7.280   0.438  0.4109  0.9165 -0.4598
  194MOL0     H26144   6.562   7.537   0.454 -2.2083 -0.3092 -0.8397
  194MOL0     H26145   6.538   7.373   0.363 -1.0390  1.0925  0.4800
  194MOL0     H26146   6.726   7.437   0.218  2.8145  0.2984  1.5109
  194MOL0     H26147   6.742   7.596   0.291  0.4174  0.3926 -0.6053
  194MOL0     H26148   6.493   7.516   0.149 -0.2038  0.4496  0.6391
  194MOL0     H26149   6.610   7.647   0.097  0.1450 -0.0024  0.0104
  194MOL0     H26150   6.311   7.803   0.408  1.2186 -0.2429 -0.2312
  194MOL0     H26151   6.059   8.010   0.366  0.9401  0.8417 -1.4561
  194MOL0     H26152   5.989   7.858   0.400  1.5598  0.0445  2.7318
  194MOL0     H26153   6.143   7.884   0.463 -1.0220 -1.1790 -0.1106
  194MOL0     H26154   5.702   7.824   0.128 -1.5850  1.1041 -0.3629
  194MOL0     H26155   5.502   7.917   0.046 -2.0856  1.5318 -1.7683
  194MOL0     H26156   5.321   7.985  -0.097  0.2669 -0.8053 -1.5769
  194MOL0     H26157   5.419   8.134  -0.143 -1.0247 -1.5131  3.0140
  194MOL0     H26158   5.218   8.174  -0.277  1.3379  2.4696 -4.7706
  194MOL0     H26159   5.345   8.099  -0.376 -0.7377  2.8007  1.1752
  194MOL0     H26160   5.219   7.883  -0.334  1.2536  0.7426  0.8017
  194MOL0     H26161   5.119   8.011  -0.423  0.9092  1.4574 -0.9022
  194MOL0     H26162   5.105   7.955  -0.123 -1.4720 -2.3269  1.5004
  194MOL0     H26163   4.995   8.055  -0.233  1.1272  0.2317 -0.3893
  194MOL0     H26164   5.038   7.777  -0.212  2.2220  3.4952  2.5943
  194MOL0     H26165   4.965   7.853  -0.366  1.4200 -1.5947 -0.2765
  194MOL0     H26166   4.789   7.932  -0.262  2.2179  0.2520 -1.3099
  194MOL0     H26167   4.798   7.767  -0.241 -0.6816 -0.4050  1.2898
  194MOL0     H26168   4.814   7.984  -0.043  0.5641  0.2859 -1.7244
  194MOL0     H26169   4.913   7.839  -0.014  1.5258 -0.2556 -4.0312
  194MOL0     H26170   4.710   7.828   0.092  2.5511  0.2784 -0.6343
  194MOL0     H26171   4.738   7.697  -0.006  1.0501 -0.5327 -1.3020
  194MOL0     H26172   5.673   7.936  -0.355 -1.5967  0.6953 -0.6624
  194MOL0     H26173   5.901   7.872  -0.256 -0.0905 -0.5468 -0.7215
  194MOL0     H26174   6.175   7.752  -0.073 -2.7036 -1.7383  1.9452
  194MOL0     H26175   6.397   7.689   0.007  1.4280  1.9536  1.3135
  194MOL0     H26176   5.871   8.073   1.383  0.1809 -0.2099 -0.8655
  194MOL0     H26177   5.865   8.289   1.408 -0.2852 -1.7079  1.5181
  194MOL0     H26178   5.734   8.758   1.228 -2.3010  2.9324  3.6040
  194MOL0     H26179   5.774   8.987   1.276 -1.6605 -2.8586 -0.1611
  194MOL0     H26180   6.142   9.161   1.405  1.4693 -1.2446  0.3289
  194MOL0     H26181   6.181   9.170   1.237  3.2094 -2.3270  3.5018
  194MOL0     H26182   5.983   9.353   1.392  0.0216  0.9804 -0.1880
  194MOL0     H26183   6.040   9.391   1.231  0.8213  0.9692  0.2210
  194MOL0     H26184   6.185   9.534   1.348  0.0789  0.4987  0.0305
  194MOL0     H26185   6.285   9.386   1.329 -1.3208 -0.7952 -2.0402
  194MOL0     H26186   6.218   9.312   1.546 -0.5884 -0.4199 -0.3827
  194MOL0     H26187   6.098   9.445   1.572 -0.8245  2.6587 -2.7403
  194MOL0     H26188   6.443   9.644   1.656  0.2580 -0.1994  0.4136
  194MOL0     H26189   6.185   8.937   1.349 -0.8257  2.2921  0.6169
  194MOL0     H26190   6.141   8.690   1.356  2.0406  1.9301  1.6789
  195MOL0     O26191   1.527   6.986   5.798  0.2303  0.4025 -0.7316
  195MOL0     C26192   1.645   6.979   5.749 -0.5896 -0.3198  0.6733
  195MOL0     O26193   1.696   7.061   5.653  0.2543  0.0467  0.0636
  195MOL0     C26194   1.614   7.158   5.607  1.3561  0.9978  1.0516
  195MOL0     C26195   1.628   7.288   5.643  0.7208 -1.0745  0.7444
  195MOL0     C26196   1.537   7.389   5.612 -1.1695  0.4129  0.6350
  195MOL0     C26197   1.428   7.356   5.535 -0.2540  0.0358  0.7146
  195MOL0     O26198   1.336   7.455   5.520 -0.3462  0.7430  0.1350
  195MOL0     C26199   1.245   7.450   5.410  0.0069 -0.1648 -0.6179
  195MOL0     C26200   1.145   7.571   5.418 -0.4613 -0.1859 -0.4001
  195MOL0     C26201   1.211   7.698   5.421  0.2486 -0.8127 -0.4429
  195MOL0     C26202   1.110   7.821   5.399  0.9754  0.3070  1.2773
  195MOL0     C26203   0.970   7.799   5.446 -0.8797 -0.2361 -0.5433
  195MOL0     C26204   0.886   7.923   5.400 -0.7114 -0.4966 -0.1210
  195MOL0     C26205   0.743   7.887   5.424 -0.5682  0.5585  0.3407
  195MOL0     C26206   0.661   8.007   5.376 -0.5159  0.3154  0.4230
  195MOL0     N26207   0.514   7.987   5.397  0.6284  0.2555  0.2351
  195MOL0     C26208   0.428   7.945   5.300 -0.2823 -0.7764  0.3492
  195MOL0     C26209   0.314   7.902   5.364 -0.9081 -0.4772 -0.5177
  195MOL0     C26210   0.190   7.841   5.314  0.1109 -0.1711  0.8298
  195MOL0     C26211   0.090   7.945   5.262  0.7203  0.3730 -0.8375
  195MOL0     C26212  -0.054   7.893   5.257 -0.3893  0.9433  0.2341
  195MOL0     C26213  -0.133   7.907   5.383 -0.4857 -0.3369 -0.7160
  195MOL0     O26214  -0.120   8.040   5.448 -0.1179  0.0937  0.6058
  195MOL0     C26215  -0.227   8.121   5.472  0.4939 -0.1385  0.0675
  195MOL0     C26216  -0.357   8.071   5.471  0.0235  0.0920 -0.5743
  195MOL0     C26217  -0.457   8.161   5.502  0.6392  0.2487  0.1107
  195MOL0     C26218  -0.597   8.094   5.496  0.0303  0.3443 -0.7060
  195MOL0     C26219  -0.431   8.296   5.535  0.1757 -1.1307  0.3487
  195MOL0     C26220  -0.539   8.402   5.566  0.3123  1.2400 -0.0905
  195MOL0     O26221  -0.513   8.516   5.628 -0.3255  0.8803 -0.0557
  195MOL0     C26222  -0.602   8.620   5.625 -0.4019  0.5655  1.1265
  195MOL0     C26223  -0.648   8.670   5.744  0.5161  0.6806  0.1366
  195MOL0     C26224  -0.747   8.767   5.743  0.3759  1.0454  1.0115
  195MOL0     C26225  -0.798   8.826   5.623 -0.1985  0.7606  0.3254
  195MOL0     O26226  -0.897   8.928   5.632 -1.0210  0.4187 -0.2362
  195MOL0     C26227  -1.012   8.899   5.719  0.3021  0.1394 -0.9400
  195MOL0     C26228  -1.100   8.780   5.671  0.2273 -0.2672  0.1164
  195MOL0     C26229  -1.157   8.814   5.540 -0.7041  0.1176 -0.0751
  195MOL0     C26230  -1.253   8.706   5.492 -0.0143 -0.3075 -1.6052
  195MOL0     C26231  -1.305   8.726   5.339  0.1521 -0.7559  0.0949
  195MOL0     C26232  -1.438   8.663   5.314 -0.2115 -1.1758  0.5453
  195MOL0     C26233  -1.472   8.675   5.162 -0.0388 -0.4072 -0.6517
  195MOL0     C26234  -1.606   8.608   5.140 -0.6288 -0.1166  0.5577
  195MOL0    Cl26235  -1.740   8.695   5.218  0.3021 -0.7633 -0.2967
  195MOL0     C26236  -0.740   8.792   5.503 -0.0466  0.3498  0.1676
  195MOL0     C26237  -0.643   8.687   5.505 -0.2866  0.4791 -0.2487
  195MOL0     O26238  -0.644   8.381   5.510 -0.1983 -0.2404  0.0594
  195MOL0     C26239  -0.299   8.344   5.537  0.3739  0.0255  0.6490
  195MOL0     C26240  -0.197   8.254   5.507 -0.6735 -1.4276 -0.0080
  195MOL0     N26241   0.336   7.927   5.500  0.3447 -0.3168 -0.1772
  195MOL0     N26242   0.453   7.986   5.512 -0.2880  0.6871  0.0124
  195MOL0     C26243   1.405   7.223   5.490 -0.4510 -0.0030  0.8018
  195MOL0     C26244   1.496   7.132   5.538  0.4138  0.6415  0.9518
  195MOL0     C26245   1.736   6.882   5.801 -0.2014  0.4055 -0.4432
  195MOL0     C26246   1.698   6.770   5.873 -0.0585 -0.7046 -0.4346
  195MOL0     C26247   1.787   6.679   5.934  0.0321 -0.5418 -0.8659
  195MOL0     C26248   1.923   6.704   5.911  0.5319 -0.0477  0.2302
  195MOL0     O26249   2.017   6.639   5.977 -0.2289 -0.1897 -0.1300
  195MOL0     C26250   2.003   6.498   5.982  0.3568 -0.0329  0.1952
  195MOL0     C26251   1.994   6.439   6.124 -0.3384 -0.5830  0.3157
  195MOL0     C26252   2.116   6.448   6.216 -0.7175 -0.0634  0.2531
  195MOL0     C26253   2.224   6.343   6.165  0.0235  0.1854  0.7656
  195MOL0     C26254   2.325   6.358   6.267 -0.2073 -0.1990  0.0312
  195MOL0     C26255   2.409   6.367   6.356 -0.1928  0.9331 -0.9964
  195MOL0     C26256   1.960   6.786   5.808 -0.1777  0.0120  1.5251
  195MOL0     C26257   1.867   6.880   5.749  0.3651  1.3949 -0.8552
  195MOL0     H26258   1.694   7.316   5.725  0.4172  0.9905  0.3273
  195MOL0     H26259   1.553   7.488   5.653 -0.1501 -0.1333  1.6116
  195MOL0     H26260   1.306   7.464   5.320  1.0621  2.2771  0.3666
  195MOL0     H26261   1.196   7.353   5.416 -3.8921  1.7019  1.1087
  195MOL0     H26262   1.074   7.558   5.336 -0.5316  0.0926 -0.3807
  195MOL0     H26263   1.095   7.563   5.514  0.3816  0.7528  0.1362
  195MOL0     H26264   1.263   7.701   5.517 -0.6388 -1.0924  0.0506
  195MOL0     H26265   1.278   7.713   5.336 -0.9837  0.4921 -1.2286
  195MOL0     H26266   1.155   7.911   5.441 -2.5990  2.1623  1.5441
  195MOL0     H26267   1.101   7.833   5.291 -1.6674 -1.2232  1.2243
  195MOL0     H26268   0.929   7.707   5.405 -1.8420 -0.5004  0.9558
  195MOL0     H26269   0.977   7.786   5.554  4.5198 -1.8225 -0.7710
  195MOL0     H26270   0.913   8.012   5.457  0.5652  0.2168 -1.7631
  195MOL0     H26271   0.898   7.941   5.293 -1.0156  1.5752  0.1556
  195MOL0     H26272   0.722   7.798   5.364 -1.4203  1.0302 -0.0768
  195MOL0     H26273   0.725   7.874   5.532 -0.4616 -0.5803  0.2331
  195MOL0     H26274   0.666   8.036   5.270 -1.2384  0.7994  0.5158
  195MOL0     H26275   0.691   8.094   5.435 -0.8462  0.1152  0.8898
  195MOL0     H26276   0.433   7.948   5.192 -0.9507  0.7716  0.3268
  195MOL0     H26277   0.206   7.761   5.240 -3.3542  1.7620 -2.3422
  195MOL0     H26278   0.143   7.787   5.396 -1.7166  1.3923  0.8633
  195MOL0     H26279   0.135   7.976   5.167  0.7081  0.1262 -0.9240
  195MOL0     H26280   0.088   8.042   5.312  1.3193 -0.0600  0.0666
  195MOL0     H26281  -0.073   7.793   5.217  0.6016  1.1385 -0.7718
  195MOL0     H26282  -0.119   7.949   5.188 -3.5956 -2.5058  0.1282
  195MOL0     H26283  -0.089   7.839   5.458 -1.0804  1.4098  1.3264
  195MOL0     H26284  -0.235   7.872   5.363 -3.2200  3.6537  3.9181
  195MOL0     H26285  -0.378   7.968   5.443  1.3681 -0.5070  0.4947
  195MOL0     H26286  -0.593   7.996   5.546 -0.7801  0.1236 -1.0566
  195MOL0     H26287  -0.669   8.153   5.553 -0.5688 -1.0719  0.0719
  195MOL0     H26288  -0.628   8.090   5.391  0.6530 -2.1686 -0.8707
  195MOL0     H26289  -0.607   8.617   5.829  4.2880  3.4037  0.2264
  195MOL0     H26290  -0.782   8.805   5.838 -2.7032  1.8622 -0.3141
  195MOL0     H26291  -0.977   8.871   5.819 -1.3704  0.5270 -0.2167
  195MOL0     H26292  -1.073   8.990   5.725 -0.9113 -0.6778 -0.5024
  195MOL0     H26293  -1.037   8.692   5.651 -1.1195 -0.9935 -1.1735
  195MOL0     H26294  -1.185   8.779   5.740 -0.8198  2.3442 -1.0074
  195MOL0     H26295  -1.080   8.829   5.464 -2.9380  0.7499 -2.3438
  195MOL0     H26296  -1.208   8.909   5.553  1.6124  1.1537  2.4970
  195MOL0     H26297  -1.215   8.604   5.489 -3.3170 -1.7346  0.0430
  195MOL0     H26298  -1.344   8.702   5.553 -0.5942  0.8103 -2.3484
  195MOL0     H26299  -1.232   8.666   5.284  2.5324 -2.1061  4.2777
  195MOL0     H26300  -1.299   8.832   5.312 -1.1966 -1.2485 -2.4383
  195MOL0     H26301  -1.426   8.558   5.342  0.1109 -1.6764 -1.3271
  195MOL0     H26302  -1.512   8.709   5.380  0.7686  1.1809  0.0910
  195MOL0     H26303  -1.388   8.645   5.098  0.4119  0.5906 -0.5467
  195MOL0     H26304  -1.487   8.780   5.133 -3.1916 -0.7892 -0.7355
  195MOL0     H26305  -1.592   8.506   5.175  1.9829  0.2776  0.9045
  195MOL0     H26306  -1.610   8.612   5.030  0.9165  1.8470  0.5112
  195MOL0     H26307  -0.772   8.829   5.406  2.4376 -3.9306 -2.6123
  195MOL0     H26308  -0.586   8.673   5.414 -2.0706  3.4640 -1.9940
  195MOL0     H26309  -0.285   8.439   5.587 -1.7559  0.8324 -0.1543
  195MOL0     H26310  -0.095   8.291   5.509 -1.9307  2.4014  1.0418
  195MOL0     H26311   1.319   7.191   5.432  2.2712 -2.8699 -2.1131
  195MOL0     H26312   1.468   7.030   5.513 -1.1839  0.9949  1.1977
  195MOL0     H26313   1.591   6.764   5.886 -0.0828  1.5877  0.9179
  195MOL0     H26314   1.761   6.601   6.006 -1.1335  0.0796 -0.5756
  195MOL0     H26315   1.914   6.464   5.928 -1.0959 -0.7164  2.8103
  195MOL0     H26316   2.090   6.448   5.940 -0.1293  0.2724 -1.2087
  195MOL0     H26317   1.966   6.333   6.116 -0.2430 -0.9656  3.6585
  195MOL0     H26318   1.913   6.494   6.172 -1.4310  0.1640 -2.2133
  195MOL0     H26319   2.087   6.425   6.319  3.6369 -0.4883  1.5484
  195MOL0     H26320   2.143   6.554   6.220 -0.2087 -0.1460 -0.8106
  195MOL0     H26321   2.267   6.366   6.067 -2.1878 -0.0159 -0.3102
  195MOL0     H26322   2.183   6.242   6.160  1.8815 -0.6676  1.5558
  195MOL0     H26323   2.486   6.393   6.426 -1.4913  1.8382  0.1546
  195MOL0     H26324   2.060   6.800   5.769 -1.1007 -1.6810 -1.8786
  195MOL0     H26325   1.905   6.934   5.663 -0.6761  0.4729 -1.9350
  196MOL0     O26326   0.796   1.102   1.644  0.6661 -0.7406 -0.5720
  196MOL0     C26327   0.746   1.114   1.531  0.2778  0.0821 -1.1933
  196MOL0     O26328   0.613   1.083   1.491  0.0979  0.1648 -0.5470
  196MOL0     C26329   0.534   1.058   1.596  0.7510  0.3891 -0.6174
  196MOL0     C26330   0.516   0.921   1.629  0.8954 -0.4338  0.1835
  196MOL0     C26331   0.431   0.890   1.745 -0.2530 -0.3141 -0.7306
  196MOL0     C26332   0.379   0.998   1.828  0.1350  0.9060  0.8621
  196MOL0     O26333   0.307   0.967   1.936  0.0124 -1.0513 -0.2599
  196MOL0     C26334   0.386   0.909   2.043 -0.3386  0.0051  0.1951
  196MOL0     C26335   0.285   0.846   2.143 -0.6145 -0.6167  0.1233
  196MOL0     C26336   0.353   0.762   2.249  0.1543  0.2893  0.2537
  196MOL0     C26337   0.321   0.609   2.241  0.8520 -0.4603 -0.1470
  196MOL0     C26338   0.442   0.534   2.302 -0.5930 -0.4561  0.2862
  196MOL0     C26339   0.445   0.556   2.450 -1.5523  0.3365  0.0256
  196MOL0     C26340   0.552   0.463   2.513 -0.6686 -0.5283 -0.2262
  196MOL0     C26341   0.587   0.508   2.657 -0.3477 -0.2642 -0.5463
  196MOL0     N26342   0.476   0.508   2.753 -0.0233 -0.1811  0.7510
  196MOL0     C26343   0.391   0.411   2.795 -0.0532  0.6054  1.0646
  196MOL0     C26344   0.307   0.473   2.865  0.7183  0.0099  0.3237
  196MOL0     C26345   0.177   0.408   2.909 -0.0364  1.1208  0.4544
  196MOL0     C26346   0.189   0.352   3.056  1.1067 -0.5131 -0.1408
  196MOL0     C26347   0.175   0.464   3.155 -0.0430  0.6336  0.4146
  196MOL0     C26348   0.041   0.545   3.150  0.5124  0.3310 -0.6300
  196MOL0     O26349  -0.056   0.444   3.172 -0.9934  0.0404 -0.4756
  196MOL0     C26350  -0.121   0.463   3.298  1.0624 -0.0369  0.0205
  196MOL0     C26351  -0.071   0.463   3.425  0.0478 -0.6073  0.3461
  196MOL0     C26352  -0.136   0.461   3.550  0.6591  0.2476  0.5444
  196MOL0     C26353  -0.067   0.492   3.675 -0.7836  0.2207 -0.0106
  196MOL0     C26354  -0.283   0.465   3.544 -1.0327  0.9769 -0.8779
  196MOL0     C26355  -0.363   0.470   3.659  0.2389 -0.5623  0.1821
  196MOL0     O26356  -0.489   0.531   3.655  0.5451  0.5319  0.1072
  196MOL0     C26357  -0.583   0.496   3.751  0.0862 -0.2636 -0.1414
  196MOL0     C26358  -0.574   0.554   3.873 -0.0678 -0.3444  0.7505
  196MOL0     C26359  -0.641   0.504   3.981 -0.7098  0.7889  0.2711
  196MOL0     C26360  -0.736   0.398   3.968  0.8415  0.0614  0.5642
  196MOL0     O26361  -0.819   0.352   4.068  0.0241  0.0784  0.4414
  196MOL0     C26362  -0.863   0.451   4.163  0.4150 -0.8303  0.1883
  196MOL0     C26363  -0.945   0.370   4.266  0.0457 -0.2288  0.1496
  196MOL0     C26364  -1.083   0.333   4.212  0.6129  0.3977  0.3388
  196MOL0     C26365  -1.196   0.422   4.258 -0.1637  0.3011  0.5961
  196MOL0     C26366  -1.336   0.354   4.242 -0.3950 -0.2474 -0.7051
  196MOL0     C26367  -1.438   0.465   4.263  0.5205  0.0290  0.2814
  196MOL0     C26368  -1.587   0.420   4.275  0.2330 -0.7795 -0.2255
  196MOL0     C26369  -1.664   0.403   4.148  0.7493  0.5159  1.3227
  196MOL0    Cl26370  -1.835   0.361   4.184 -0.1272 -0.5875 -0.4641
  196MOL0     C26371  -0.750   0.341   3.836 -0.7448 -0.1316 -0.9514
  196MOL0     C26372  -0.675   0.390   3.727 -0.6409 -0.4683 -0.4781
  196MOL0     O26373  -0.330   0.391   3.744  0.0975 -0.1208 -0.2518
  196MOL0     C26374  -0.336   0.465   3.411  0.2261 -0.1793 -0.8623
  196MOL0     C26375  -0.265   0.448   3.294 -0.7946 -0.6252 -0.0241
  196MOL0     N26376   0.337   0.607   2.883  0.9719  0.6106 -0.3623
  196MOL0     N26377   0.447   0.619   2.824 -0.2607  1.1981  0.0878
  196MOL0     C26378   0.409   1.124   1.784 -0.2925 -0.1394 -0.7569
  196MOL0     C26379   0.482   1.155   1.670  0.8520 -0.2581  0.1331
  196MOL0     C26380   0.836   1.139   1.427 -0.2557  0.2490 -0.3310
  196MOL0     C26381   0.806   1.108   1.298 -0.2718 -0.2509  1.1033
  196MOL0     C26382   0.893   1.127   1.186  0.3870 -0.7065  0.5462
  196MOL0     C26383   1.019   1.179   1.203 -0.0765 -0.1691  0.2487
  196MOL0     O26384   1.087   1.199   1.083 -0.5045 -0.2219 -0.4378
  196MOL0     C26385   1.203   1.278   1.095 -0.3139  0.8720 -0.2647
  196MOL0     C26386   1.259   1.272   0.959  0.2455 -0.3046  0.8800
  196MOL0     C26387   1.387   1.354   0.956  0.1255  0.6235 -1.1042
  196MOL0     C26388   1.436   1.362   0.821 -1.1227 -0.1974  0.9892
  196MOL0     C26389   1.345   1.442   0.743 -0.1197 -0.5165 -0.9669
  196MOL0     C26390   1.284   1.517   0.671  0.1016 -0.7889 -0.6632
  196MOL0     C26391   1.057   1.206   1.340 -0.5516  0.1609  0.3019
  196MOL0     C26392   0.972   1.185   1.448  0.9319 -0.7221  0.2156
  196MOL0     H26393   0.543   0.845   1.557  4.7390  0.6647  0.2196
  196MOL0     H26394   0.398   0.789   1.770 -2.3745 -0.0916 -2.3192
  196MOL0     H26395   0.457   0.841   1.994  1.1873  1.1442  0.7386
  196MOL0     H26396   0.448   0.987   2.088 -1.7177  1.8915 -1.0729
  196MOL0     H26397   0.229   0.926   2.192  1.0238  0.1537  0.8495
  196MOL0     H26398   0.216   0.776   2.096 -1.1903 -0.7319  1.1208
  196MOL0     H26399   0.461   0.773   2.234  0.7873 -1.9880  2.4110
  196MOL0     H26400   0.322   0.800   2.347  2.6608  1.9454  0.5117
  196MOL0     H26401   0.228   0.592   2.296 -0.1998  2.6454 -0.7931
  196MOL0     H26402   0.311   0.577   2.137  1.5551  0.6333 -0.5688
  196MOL0     H26403   0.418   0.428   2.288  2.4786 -0.8681 -3.5385
  196MOL0     H26404   0.535   0.570   2.256 -0.4847  2.0939  2.2816
  196MOL0     H26405   0.470   0.659   2.479  2.0851 -0.5302  0.4112
  196MOL0     H26406   0.345   0.525   2.480 -1.1153 -1.3750 -0.1777
  196MOL0     H26407   0.529   0.357   2.503  1.5062 -0.8893 -2.7064
  196MOL0     H26408   0.642   0.464   2.450 -0.6881 -2.1264 -0.3068
  196MOL0     H26409   0.635   0.607   2.656  1.6768 -1.1759  0.5200
  196MOL0     H26410   0.664   0.440   2.693  0.6311  1.0507 -0.0506
  196MOL0     H26411   0.377   0.310   2.757 -1.1776  1.0502  0.2340
  196MOL0     H26412   0.092   0.475   2.898 -0.2803  1.0004  1.4758
  196MOL0     H26413   0.155   0.327   2.840 -1.4482  2.2731 -0.5012
  196MOL0     H26414   0.279   0.298   3.088  1.9435  1.7702  1.7283
  196MOL0     H26415   0.107   0.282   3.072  1.6126 -0.5607  2.9059
  196MOL0     H26416   0.258   0.533   3.137 -1.3071  1.8873 -0.8906
  196MOL0     H26417   0.181   0.427   3.258 -0.1528  2.0556  0.9625
  196MOL0     H26418   0.025   0.606   3.061 -2.0197  1.6275  0.6005
  196MOL0     H26419   0.037   0.615   3.234 -1.7195  1.3415 -1.5092
  196MOL0     H26420   0.037   0.456   3.417  0.1528 -0.3435  1.4241
  196MOL0     H26421   0.000   0.415   3.715  3.0837  2.5731 -1.4225
  196MOL0     H26422  -0.006   0.578   3.645  0.5332 -1.6778 -3.4026
  196MOL0     H26423  -0.129   0.518   3.761  1.8267  2.8881  1.2376
  196MOL0     H26424  -0.507   0.636   3.896  0.1791 -0.8303  1.7992
  196MOL0     H26425  -0.614   0.549   4.076 -1.9147 -0.9628  1.4941
  196MOL0     H26426  -0.778   0.493   4.218 -0.9897  1.1741  0.9246
  196MOL0     H26427  -0.924   0.525   4.112 -0.9906 -2.4227 -0.5321
  196MOL0     H26428  -0.882   0.283   4.286  2.5714  1.6908  1.0553
  196MOL0     H26429  -0.950   0.415   4.366  0.7713 -1.0036  0.5484
  196MOL0     H26430  -1.114   0.230   4.232 -1.5035  0.5074 -1.8427
  196MOL0     H26431  -1.074   0.328   4.103 -2.8194 -0.4671 -0.0333
  196MOL0     H26432  -1.181   0.451   4.362 -1.4454  0.1568  0.8377
  196MOL0     H26433  -1.203   0.518   4.205 -1.8673  0.3247  0.7976
  196MOL0     H26434  -1.341   0.272   4.314 -2.4267  0.3912 -0.0476
  196MOL0     H26435  -1.337   0.310   4.142 -0.6081 -0.2182 -0.7152
  196MOL0     H26436  -1.416   0.520   4.355 -2.6490  0.4565  0.8940
  196MOL0     H26437  -1.429   0.534   4.179  1.1987  0.2859  0.5542
  196MOL0     H26438  -1.645   0.489   4.337  1.8558 -0.7801  1.3590
  196MOL0     H26439  -1.591   0.321   4.320  1.4098 -0.5502  0.4172
  196MOL0     H26440  -1.612   0.332   4.084  1.5048 -0.3571  2.8406
  196MOL0     H26441  -1.671   0.501   4.100 -2.5043 -1.5191 -3.0923
  196MOL0     H26442  -0.827   0.270   3.810 -2.5436  1.4021 -0.0200
  196MOL0     H26443  -0.682   0.333   3.635 -0.6844 -0.4554 -0.4826
  196MOL0     H26444  -0.442   0.455   3.390 -0.5691  3.6214  0.4951
  196MOL0     H26445  -0.306   0.414   3.199  0.5334 -1.9134 -0.1652
  196MOL0     H26446   0.373   1.209   1.840 -1.9697 -0.9387 -0.5561
  196MOL0     H26447   0.484   1.260   1.644 -0.6073 -0.2509  0.0219
  196MOL0     H26448   0.712   1.057   1.278 -1.4716  1.0628  3.0480
  196MOL0     H26449   0.857   1.098   1.088 -2.2932 -1.0596  1.5585
  196MOL0     H26450   1.180   1.379   1.130 -1.2028  1.0202 -1.2031
  196MOL0     H26451   1.270   1.246   1.175 -3.3124  2.6674  3.2911
  196MOL0     H26452   1.186   1.319   0.893  1.3238  0.8030  0.4278
  196MOL0     H26453   1.291   1.178   0.913  0.6543 -0.0419  0.6165
  196MOL0     H26454   1.457   1.290   1.011 -0.7967  1.7492  1.5139
  196MOL0     H26455   1.379   1.448   1.011 -1.6545 -1.5099  2.6605
  196MOL0     H26456   1.472   1.275   0.765 -0.5522  0.1205  0.8444
  196MOL0     H26457   1.530   1.418   0.829  0.1951 -2.4985  2.6397
  196MOL0     H26458   1.225   1.588   0.616  1.4124  3.0071  2.3784
  196MOL0     H26459   1.159   1.230   1.370  0.1996  0.3185 -2.1584
  196MOL0     H26460   1.011   1.207   1.546  0.1781  3.9213 -0.2646
  197MOL0     O26461   2.567   2.816   6.244  0.3172  0.6177 -0.2404
  197MOL0     C26462   2.603   2.934   6.232  0.2240 -1.0657  0.0890
  197MOL0     O26463   2.704   2.994   6.293 -0.6022  0.0308  0.4321
  197MOL0     C26464   2.765   2.920   6.395  0.1570  0.2583  0.5125
  197MOL0     C26465   2.828   2.788   6.376  0.0222 -0.8217  0.2610
  197MOL0     C26466   2.892   2.724   6.480 -0.0286 -0.4556 -0.3048
  197MOL0     C26467   2.889   2.784   6.613  0.4345  0.5271  0.5434
  197MOL0     O26468   2.953   2.741   6.726  0.0627  1.1579 -0.4880
  197MOL0     C26469   2.918   2.613   6.775  0.1336 -0.1465  0.4379
  197MOL0     C26470   2.789   2.631   6.863  1.2855 -0.6799  0.2729
  197MOL0     C26471   2.809   2.720   6.986  1.1106 -0.7149 -0.1577
  197MOL0     C26472   2.914   2.678   7.088  0.1734 -0.4771  1.5599
  197MOL0     C26473   2.883   2.715   7.239 -0.1061  1.4950 -0.7333
  197MOL0     C26474   2.991   2.684   7.323 -0.3682 -0.0901 -1.4001
  197MOL0     C26475   3.100   2.795   7.309  0.4342 -0.5777 -1.0550
  197MOL0     C26476   3.222   2.755   7.395 -0.1313 -0.1325 -0.8186
  197MOL0     N26477   3.204   2.805   7.535 -0.0403 -0.5756  0.5851
  197MOL0     C26478   3.144   2.737   7.635  1.0019  0.3728  0.2695
  197MOL0     C26479   3.131   2.820   7.743 -0.8734 -0.3821  0.4158
  197MOL0     C26480   3.075   2.795   7.875 -0.1039  0.3480  0.2276
  197MOL0     C26481   3.171   2.758   7.981  0.0919 -0.1631  0.2978
  197MOL0     C26482   3.265   2.872   8.011 -1.1570 -0.0552  0.4110
  197MOL0     C26483   3.196   3.004   8.063  0.9480 -0.1207  0.8514
  197MOL0     O26484   3.302   3.089   8.113  0.7231 -0.1698 -0.5354
  197MOL0     C26485   3.385   3.154   8.026  0.7290 -0.6675  0.7149
  197MOL0     C26486   3.358   3.163   7.890  0.9836  0.0633  0.6331
  197MOL0     C26487   3.446   3.228   7.793 -0.0686 -0.6552  0.3138
  197MOL0     C26488   3.404   3.209   7.643 -0.4754 -0.1717 -0.1924
  197MOL0     C26489   3.561   3.302   7.842  0.9677  0.5772  0.0299
  197MOL0     C26490   3.654   3.398   7.769 -0.1347  0.0329 -0.4573
  197MOL0     O26491   3.758   3.459   7.843  0.0607  0.7777 -0.0248
  197MOL0     C26492   3.813   3.569   7.779  0.3020 -0.2802 -0.8835
  197MOL0     C26493   3.738   3.679   7.750  0.1303 -1.6117 -0.5172
  197MOL0     C26494   3.793   3.803   7.712  0.0746 -0.5815  0.5910
  197MOL0     C26495   3.922   3.801   7.680  0.0237 -0.0612  0.6947
  197MOL0     O26496   3.967   3.915   7.615 -0.0060  0.5716  0.0837
  197MOL0     C26497   4.063   3.891   7.512 -0.0198  0.8191 -0.6934
  197MOL0     C26498   4.014   3.978   7.388  0.8476 -0.4487  0.1617
  197MOL0     C26499   4.109   3.979   7.268 -0.9343  0.2084 -1.0522
  197MOL0     C26500   4.079   4.089   7.155  1.0802  0.3251 -0.5982
  197MOL0     C26501   3.961   4.044   7.067 -0.7003 -0.3971 -0.3964
  197MOL0     C26502   3.942   4.143   6.941 -0.1442 -0.1716  0.9039
  197MOL0     C26503   3.801   4.113   6.876  0.5418  0.6646 -0.4246
  197MOL0     C26504   3.801   4.112   6.721  0.6863  0.4993 -0.5147
  197MOL0    Cl26505   3.843   4.273   6.674 -0.0868  0.0958 -0.0058
  197MOL0     C26506   4.009   3.699   7.725 -0.7282  0.1752  0.0254
  197MOL0     C26507   3.952   3.582   7.780  0.1882 -0.5332  0.8670
  197MOL0     O26508   3.638   3.416   7.655 -0.0843  0.5654  0.6981
  197MOL0     C26509   3.583   3.279   7.977 -0.2787  0.5247 -0.6233
  197MOL0     C26510   3.505   3.208   8.060 -0.8897  0.5384 -0.5392
  197MOL0     N26511   3.193   2.943   7.703  0.0115 -0.8125  0.0354
  197MOL0     N26512   3.230   2.931   7.580  0.0754  0.0661 -0.0706
  197MOL0     C26513   2.811   2.899   6.629 -0.5752 -0.2519 -0.0239
  197MOL0     C26514   2.749   2.961   6.524  0.3533  0.0829 -0.5922
  197MOL0     C26515   2.516   3.023   6.149 -0.9413 -1.2640 -0.0838
  197MOL0     C26516   2.380   3.008   6.138 -0.6104 -0.1908 -0.7256
  197MOL0     C26517   2.303   3.080   6.055 -0.1849 -0.4215  0.1479
  197MOL0     C26518   2.362   3.186   5.979  0.6098 -0.3412 -1.3583
  197MOL0     O26519   2.306   3.264   5.881  0.3931  0.2005 -0.3576
  197MOL0     C26520   2.178   3.218   5.831 -0.1508 -0.3470  0.4938
  197MOL0     C26521   2.201   3.095   5.733 -0.4849 -0.2005 -0.4559
  197MOL0     C26522   2.081   3.049   5.640  0.1304 -0.4305  0.4959
  197MOL0     C26523   1.989   2.942   5.689 -0.2403 -0.0547 -0.6412
  197MOL0     C26524   2.039   2.865   5.806 -0.8774  0.2367  0.5378
  197MOL0     C26525   2.072   2.807   5.910 -1.4788 -0.3673  0.5048
  197MOL0     C26526   2.495   3.212   5.997 -0.5981 -0.2117  0.1509
  197MOL0     C26527   2.575   3.133   6.087 -0.9202 -0.0952  0.2907
  197MOL0     H26528   2.837   2.747   6.275  1.1547  0.8883 -0.3906
  197MOL0     H26529   2.945   2.630   6.471 -2.3150 -2.0498  1.7554
  197MOL0     H26530   2.909   2.539   6.696  1.3898  1.1788 -1.0282
  197MOL0     H26531   3.001   2.584   6.840  0.7629  0.0308 -0.2723
  197MOL0     H26532   2.712   2.679   6.801  4.0753  0.0094 -2.9476
  197MOL0     H26533   2.751   2.529   6.874 -4.2884  1.1033  0.8514
  197MOL0     H26534   2.835   2.821   6.954 -1.9800  0.5736  0.9819
  197MOL0     H26535   2.717   2.726   7.045  1.6430  5.5602  0.7033
  197MOL0     H26536   2.926   2.571   7.070 -0.9677 -0.3545 -0.2192
  197MOL0     H26537   3.006   2.726   7.052 -0.8545 -0.0185 -0.5830
  197MOL0     H26538   2.850   2.817   7.259 -3.6826  0.3481 -0.0843
  197MOL0     H26539   2.796   2.656   7.270  0.6330  1.2107  0.8743
  197MOL0     H26540   2.952   2.690   7.425 -2.8700  1.0069 -2.3242
  197MOL0     H26541   3.031   2.583   7.309 -0.5990 -0.2832 -0.7374
  197MOL0     H26542   3.143   2.786   7.209  3.5010 -2.4465  0.2916
  197MOL0     H26543   3.062   2.896   7.325 -2.0484 -1.1620 -2.7390
  197MOL0     H26544   3.319   2.797   7.365  1.3729 -0.9992  2.4835
  197MOL0     H26545   3.236   2.647   7.402 -2.8815 -0.4492  3.0067
  197MOL0     H26546   3.108   2.635   7.632 -0.5086  0.8546  0.9802
  197MOL0     H26547   3.013   2.879   7.907 -0.7284 -0.9298  2.5892
  197MOL0     H26548   3.015   2.704   7.868  2.3273 -1.3707  0.3911
  197MOL0     H26549   3.229   2.672   7.949 -1.4269 -0.6934 -1.1809
  197MOL0     H26550   3.113   2.740   8.072 -2.0865  1.7748 -0.5981
  197MOL0     H26551   3.327   2.887   7.922 -0.9576 -3.6459 -0.2146
  197MOL0     H26552   3.334   2.853   8.094 -3.2993  5.4670  4.0436
  197MOL0     H26553   3.138   2.985   8.154 -2.9854  1.7117 -1.0314
  197MOL0     H26554   3.132   3.046   7.985  1.2620  4.8435  2.8635
  197MOL0     H26555   3.261   3.127   7.859  0.4634  3.2060 -1.7861
  197MOL0     H26556   3.482   3.144   7.601 -0.2878 -0.1968  0.1821
  197MOL0     H26557   3.307   3.159   7.638  0.0564 -1.1181 -1.6016
  197MOL0     H26558   3.400   3.307   7.596 -2.1782 -0.0738  0.1018
  197MOL0     H26559   3.630   3.685   7.759  0.3194  1.5079  1.0664
  197MOL0     H26560   3.720   3.882   7.693  2.1788  0.8669 -2.2391
  197MOL0     H26561   4.166   3.924   7.529 -0.4552  2.9252 -1.8102
  197MOL0     H26562   4.084   3.788   7.482  4.1239  1.6917 -1.4755
  197MOL0     H26563   3.915   3.941   7.363  0.4777  0.2891  0.4892
  197MOL0     H26564   4.001   4.082   7.419  1.9549  1.3180 -4.4417
  197MOL0     H26565   4.120   3.880   7.223  1.8727 -0.9175  1.7690
  197MOL0     H26566   4.209   4.010   7.298 -1.9848  2.7778  0.0972
  197MOL0     H26567   4.041   4.180   7.202 -1.2855 -0.7937 -0.1759
  197MOL0     H26568   4.170   4.123   7.105 -1.2485  4.2477 -2.6570
  197MOL0     H26569   3.869   4.052   7.125 -0.0885  1.6327  0.3940
  197MOL0     H26570   3.970   3.938   7.043  0.8932 -0.2773 -0.4098
  197MOL0     H26571   3.935   4.248   6.971 -0.6341 -0.2097  0.9264
  197MOL0     H26572   4.029   4.134   6.875 -0.8896  1.8895 -0.4460
  197MOL0     H26573   3.730   4.184   6.919 -0.2628 -0.7754  0.7076
  197MOL0     H26574   3.780   4.011   6.908  3.7417  0.2430  0.7800
  197MOL0     H26575   3.697   4.091   6.691  0.6913 -0.2216 -0.0581
  197MOL0     H26576   3.866   4.032   6.685 -1.4696 -2.2228  1.2449
  197MOL0     H26577   4.116   3.704   7.709 -1.1034 -0.8949 -4.0036
  197MOL0     H26578   4.014   3.498   7.810  2.9302  0.8340 -0.6216
  197MOL0     H26579   3.683   3.311   8.007 -0.0166  0.1964 -1.1304
  197MOL0     H26580   3.545   3.197   8.161 -1.2948  2.4500 -0.1247
  197MOL0     H26581   2.791   2.940   6.728 -0.5224  0.2874 -0.2353
  197MOL0     H26582   2.699   3.054   6.548  3.5027  1.6615  0.3761
  197MOL0     H26583   2.338   2.926   6.196  2.6630 -0.7171  1.1472
  197MOL0     H26584   2.203   3.044   6.031 -0.1065 -0.7680  0.3409
  197MOL0     H26585   2.114   3.191   5.916  0.0644  0.0518  0.7886
  197MOL0     H26586   2.128   3.302   5.781 -0.3336 -0.3904  0.6046
  197MOL0     H26587   2.234   3.008   5.790 -2.3674 -1.5392 -1.2805
  197MOL0     H26588   2.286   3.130   5.674  0.3475  2.5504  2.1553
  197MOL0     H26589   2.134   3.020   5.548 -1.0033  1.2188 -0.7279
  197MOL0     H26590   2.014   3.131   5.616  1.1520  0.8989  1.9812
  197MOL0     H26591   1.975   2.866   5.611 -3.6846 -2.2169  1.7952
  197MOL0     H26592   1.894   2.990   5.713 -2.6492 -3.2001 -2.9176
  197MOL0     H26593   2.118   2.766   5.998  2.9823  2.0960 -0.3737
  197MOL0     H26594   2.532   3.292   5.933  4.0727 -0.6356  1.9652
  197MOL0     H26595   2.683   3.145   6.085 -0.9007 -0.1450  0.9199
  198MOL0     O26596   3.513   4.577   6.982 -0.3469  0.2853  0.0153
  198MOL0     C26597   3.605   4.535   6.903 -0.1511  0.7916 -0.6998
  198MOL0     O26598   3.594   4.504   6.772 -0.2350 -0.4341  0.2233
  198MOL0     C26599   3.499   4.531   6.679 -0.2193 -0.4520  0.4948
  198MOL0     C26600   3.379   4.598   6.710  0.8500 -0.4300 -0.6027
  198MOL0     C26601   3.295   4.635   6.604  0.6639 -0.4146  0.1075
  198MOL0     C26602   3.325   4.608   6.471  0.3441  0.1803  1.2107
  198MOL0     O26603   3.249   4.638   6.356 -0.4646  0.2723 -0.4306
  198MOL0     C26604   3.140   4.730   6.352 -0.2974  0.0626 -1.0091
  198MOL0     C26605   3.167   4.879   6.393 -0.5012  0.4626 -0.6258
  198MOL0     C26606   3.200   4.957   6.262 -0.5656  0.0063  0.2046
  198MOL0     C26607   3.217   5.107   6.287  0.1739 -0.6251  0.1556
  198MOL0     C26608   3.103   5.194   6.363 -0.3376 -0.5213  0.3712
  198MOL0     C26609   3.062   5.322   6.278  0.0446  1.3106  0.7631
  198MOL0     C26610   2.972   5.409   6.363 -1.0346 -0.6102  0.9473
  198MOL0     C26611   2.872   5.485   6.286  0.0240  0.0870 -0.3558
  198MOL0     N26612   2.756   5.401   6.261  0.4371 -0.2541 -0.3980
  198MOL0     C26613   2.660   5.355   6.349 -0.5889  1.0992 -0.6346
  198MOL0     C26614   2.575   5.279   6.273  0.1762 -1.3344  0.1153
  198MOL0     C26615   2.452   5.223   6.323  0.1606  0.2442  0.3337
  198MOL0     C26616   2.349   5.193   6.208 -0.0067 -0.5630 -0.4986
  198MOL0     C26617   2.223   5.124   6.266  0.2144  0.0978  0.6567
  198MOL0     C26618   2.098   5.137   6.180  0.0327  0.4627 -0.7037
  198MOL0     O26619   1.982   5.089   6.253  0.8221 -0.4553 -0.9780
  198MOL0     C26620   1.954   4.960   6.218 -0.3537 -0.9029 -1.9937
  198MOL0     C26621   2.022   4.850   6.277 -0.3471  0.1561  0.6787
  198MOL0     C26622   1.983   4.717   6.244  0.0701  0.6489  0.4885
  198MOL0     C26623   2.030   4.598   6.325  0.0198 -0.0045 -1.0527
  198MOL0     C26624   1.862   4.709   6.164  0.1594  0.1167  0.3401
  198MOL0     C26625   1.789   4.585   6.132  0.7426  0.3762  1.4551
  198MOL0     O26626   1.861   4.465   6.133  0.0152  0.1940 -0.0268
  198MOL0     C26627   1.803   4.358   6.078  1.1840  0.0099 -0.0809
  198MOL0     C26628   1.790   4.337   5.941 -1.1090 -0.1111 -1.0250
  198MOL0     C26629   1.730   4.221   5.894 -0.5805 -0.3090 -0.2574
  198MOL0     C26630   1.665   4.130   5.988  0.6161  0.4013  0.6091
  198MOL0     O26631   1.608   4.013   5.933 -0.5077 -0.1751  0.2153
  198MOL0     C26632   1.493   3.976   6.014  0.1926  0.1495  0.6727
  198MOL0     C26633   1.378   3.932   5.920  0.3485  1.2324  0.0332
  198MOL0     C26634   1.396   3.788   5.855  0.3664  0.4805  0.6448
  198MOL0     C26635   1.383   3.680   5.964  0.2295 -0.7032 -0.0301
  198MOL0     C26636   1.238   3.651   5.993  0.8709  0.2673  0.6525
  198MOL0     C26637   1.174   3.553   5.891  0.3307  0.8031 -0.3854
  198MOL0     C26638   1.031   3.508   5.934 -0.0324 -0.7629  0.1921
  198MOL0     C26639   1.034   3.400   6.045  0.1368  0.6512  0.7165
  198MOL0    Cl26640   1.115   3.266   5.968  0.0441 -0.0369 -0.0787
  198MOL0     C26641   1.671   4.159   6.124 -0.2853 -0.3144  0.5499
  198MOL0     C26642   1.746   4.268   6.172  0.7607 -0.6772  0.5284
  198MOL0     O26643   1.674   4.590   6.108  0.1982  0.6880  0.7636
  198MOL0     C26644   1.804   4.826   6.113 -0.1752  0.6111  0.8125
  198MOL0     C26645   1.851   4.947   6.125  0.3133  0.8610 -1.0209
  198MOL0     N26646   2.628   5.282   6.146  0.3352 -0.3867  0.8696
  198MOL0     N26647   2.732   5.346   6.142 -0.9417  0.5688 -0.2386
  198MOL0     C26648   3.455   4.553   6.444  0.6114  0.6323 -0.2740
  198MOL0     C26649   3.540   4.514   6.545 -1.3504  1.1047 -0.5006
  198MOL0     C26650   3.733   4.522   6.969  1.0759  0.8538 -0.0559
  198MOL0     C26651   3.849   4.511   6.892 -0.1017  0.5836 -0.0323
  198MOL0     C26652   3.976   4.512   6.946  0.6920 -0.4249 -0.5286
  198MOL0     C26653   3.992   4.497   7.084 -0.1385  0.5773 -0.4122
  198MOL0     O26654   4.123   4.472   7.127 -0.3933  0.3195 -0.5513
  198MOL0     C26655   4.154   4.509   7.265 -0.1825  0.1267 -0.4198
  198MOL0     C26656   4.189   4.386   7.341 -1.1269  0.1594  0.3363
  198MOL0     C26657   4.244   4.427   7.488 -0.5578 -0.9608 -0.6152
  198MOL0     C26658   4.155   4.348   7.595  0.0630  1.0164 -0.0507
  198MOL0     C26659   4.014   4.385   7.588 -0.0635  0.7232 -0.0499
  198MOL0     C26660   3.903   4.417   7.594  0.8986 -0.0958 -0.3208
  198MOL0     C26661   3.878   4.487   7.162 -0.0825  1.2142  0.0310
  198MOL0     C26662   3.746   4.506   7.111 -0.0353 -0.4230  0.2531
  198MOL0     H26663   3.356   4.605   6.816 -0.9262 -0.3119 -0.9717
  198MOL0     H26664   3.195   4.671   6.626  0.6096 -0.7286  0.3823
  198MOL0     H26665   3.107   4.733   6.248  1.4536  1.5262 -1.5847
  198MOL0     H26666   3.058   4.701   6.417  0.4870  0.2281  0.0732
  198MOL0     H26667   3.087   4.928   6.450  0.0537  1.1838 -0.4529
  198MOL0     H26668   3.250   4.879   6.464 -0.9462  1.5833 -0.0763
  198MOL0     H26669   3.297   4.922   6.226 -2.1991 -3.1852 -1.4719
  198MOL0     H26670   3.130   4.941   6.180  0.8442  0.9654 -1.2370
  198MOL0     H26671   3.307   5.125   6.347 -0.4475 -1.6306  1.4364
  198MOL0     H26672   3.248   5.146   6.189  1.4794 -3.4767 -0.6797
  198MOL0     H26673   3.018   5.130   6.386 -1.2521  1.1921  2.0746
  198MOL0     H26674   3.148   5.222   6.459  1.1501  0.7016 -0.6195
  198MOL0     H26675   3.148   5.377   6.239  1.1561 -0.9045 -0.0574
  198MOL0     H26676   3.016   5.297   6.182  2.6551  5.7150 -1.9947
  198MOL0     H26677   2.915   5.349   6.436 -0.9538 -1.8463  0.0324
  198MOL0     H26678   3.036   5.480   6.416 -1.6164  2.8114 -2.5464
  198MOL0     H26679   2.916   5.523   6.193  0.5228 -0.1358 -0.2121
  198MOL0     H26680   2.839   5.570   6.348 -1.8488 -0.8882  0.0714
  198MOL0     H26681   2.635   5.391   6.449 -1.3624  1.1537 -0.8405
  198MOL0     H26682   2.471   5.143   6.396  2.4459  0.1522 -0.2822
  198MOL0     H26683   2.393   5.291   6.385 -0.7569  0.9683 -1.2735
  198MOL0     H26684   2.394   5.134   6.128 -2.9497  0.9146 -3.5026
  198MOL0     H26685   2.321   5.291   6.168  0.5246 -1.0330 -2.0915
  198MOL0     H26686   2.202   5.174   6.361  1.5977  0.9728  0.5393
  198MOL0     H26687   2.256   5.023   6.292 -0.4640 -0.1589  0.5325
  198MOL0     H26688   2.110   5.087   6.083  1.0276 -0.0701 -0.3285
  198MOL0     H26689   2.075   5.243   6.175 -2.7619  0.1992  2.8717
  198MOL0     H26690   2.096   4.871   6.354  0.8955  0.5568 -0.5699
  198MOL0     H26691   2.113   4.627   6.390 -3.1662  1.0986  2.9191
  198MOL0     H26692   1.958   4.559   6.397  1.2401 -0.6723 -0.1605
  198MOL0     H26693   2.060   4.516   6.259  0.1848  0.2429 -1.2901
  198MOL0     H26694   1.842   4.417   5.889  1.7750 -1.5658 -0.5656
  198MOL0     H26695   1.726   4.195   5.789 -4.5757  3.8097 -1.4695
  198MOL0     H26696   1.521   3.898   6.085  2.3452  0.3793  0.1494
  198MOL0     H26697   1.460   4.062   6.073  4.7880  2.2904  0.6202
  198MOL0     H26698   1.286   3.933   5.978  1.5780 -0.1392  2.1395
  198MOL0     H26699   1.367   4.010   5.845 -1.6404  2.7616  1.7921
  198MOL0     H26700   1.496   3.774   5.812  1.7064 -2.1795  4.1099
  198MOL0     H26701   1.316   3.773   5.781  0.3834  1.6669  0.3756
  198MOL0     H26702   1.438   3.593   5.925 -2.4835 -1.9400 -1.3338
  198MOL0     H26703   1.431   3.703   6.060 -2.2297  2.0425  0.6808
  198MOL0     H26704   1.171   3.736   5.981 -1.6134 -1.6898 -0.2973
  198MOL0     H26705   1.228   3.619   6.097  0.8062  1.0525  0.8967
  198MOL0     H26706   1.163   3.602   5.794 -1.1411 -0.9164 -1.1434
  198MOL0     H26707   1.235   3.463   5.877 -2.3403 -1.1335 -0.3665
  198MOL0     H26708   0.988   3.468   5.841 -2.1193  1.4784  0.0967
  198MOL0     H26709   0.966   3.585   5.974 -0.1338 -1.2796  1.0328
  198MOL0     H26710   0.938   3.366   6.085  0.5869 -0.9284  0.5117
  198MOL0     H26711   1.101   3.430   6.126  1.4948 -0.5301  0.0721
  198MOL0     H26712   1.637   4.093   6.204  1.4634 -2.3293 -0.2785
  198MOL0     H26713   1.758   4.281   6.280  1.9114  1.7494  0.1744
  198MOL0     H26714   1.714   4.808   6.055 -1.9924 -1.9405  4.0953
  198MOL0     H26715   1.802   5.024   6.067  0.6471 -0.5531 -3.3011
  198MOL0     H26716   3.497   4.540   6.345  0.6753  2.1410 -0.4651
  198MOL0     H26717   3.629   4.455   6.529 -1.6523  0.1263  1.1776
  198MOL0     H26718   3.848   4.518   6.783  3.3995  1.6984 -0.1104
  198MOL0     H26719   4.061   4.521   6.879  0.6227  2.2499 -0.3724
  198MOL0     H26720   4.238   4.578   7.261  0.2751  0.3108  4.9009
  198MOL0     H26721   4.075   4.564   7.317  0.6982  1.1665 -0.1540
  198MOL0     H26722   4.277   4.337   7.298 -1.1651 -1.8500  2.3868
  198MOL0     H26723   4.112   4.309   7.336 -1.4057  0.5129 -2.5286
  198MOL0     H26724   4.243   4.531   7.520  3.9365 -1.4676  2.0051
  198MOL0     H26725   4.347   4.389   7.489  0.5157  1.7486 -1.1532
  198MOL0     H26726   4.189   4.379   7.694  1.7607 -2.5336  0.6533
  198MOL0     H26727   4.165   4.239   7.589  0.7432  0.7778  3.4040
  198MOL0     H26728   3.797   4.430   7.596  0.6284 -2.1311  0.9150
  198MOL0     H26729   3.889   4.465   7.268  2.4266  0.1853 -0.3706
  198MOL0     H26730   3.660   4.513   7.176  1.4544  2.3399  2.1169
  199MOL0     O26731   8.461   7.311  11.009 -0.0076 -0.2021 -0.1872
  199MOL0     C26732   8.464   7.202  10.965 -0.0025 -1.1543  0.2570
  199MOL0     O26733   8.358   7.117  10.941 -0.3645 -0.4613  0.8927
  199MOL0     C26734   8.232   7.145  10.967  0.2509 -0.3716  0.0521
  199MOL0     C26735   8.180   7.272  10.926 -0.3126 -0.1360 -0.1216
  199MOL0     C26736   8.046   7.294  10.946  0.2136 -0.7338 -0.0930
  199MOL0     C26737   7.964   7.206  11.022 -0.1699 -0.2830  0.4717
  199MOL0     O26738   7.837   7.245  11.057  0.6287  0.3350 -0.3795
  199MOL0     C26739   7.737   7.157  11.111  0.0735  1.1257  0.2903
  199MOL0     C26740   7.597   7.225  11.113 -0.0298 -1.0251  0.0010
  199MOL0     C26741   7.488   7.124  11.127 -0.4670 -0.7887  1.1636
  199MOL0     C26742   7.353   7.193  11.150  0.4219  0.3792 -0.3561
  199MOL0     C26743   7.290   7.263  11.030 -0.3444 -0.0242  0.7253
  199MOL0     C26744   7.160   7.315  11.087 -0.0390  0.3400  0.2322
  199MOL0     C26745   7.068   7.387  10.985  1.0627 -1.4598  0.1041
  199MOL0     C26746   6.950   7.459  11.059  0.6410  1.0816 -0.4780
  199MOL0     N26747   6.868   7.361  11.122  1.1330 -0.2125 -0.7097
  199MOL0     C26748   6.875   7.330  11.252 -0.3444 -0.4901 -0.2719
  199MOL0     C26749   6.826   7.211  11.271 -1.0384  0.6051  0.2702
  199MOL0     C26750   6.834   7.136  11.404 -0.0543  1.2192  0.3949
  199MOL0     C26751   6.726   7.176  11.494 -0.1689 -0.8793 -0.0197
  199MOL0     C26752   6.589   7.168  11.432  0.5201  0.5575 -0.7484
  199MOL0     C26753   6.484   7.246  11.509  0.4027  0.2623 -0.9097
  199MOL0     O26754   6.426   7.158  11.608  0.0368 -0.1613  0.2573
  199MOL0     C26755   6.367   7.223  11.714  0.7308 -0.4155  0.6766
  199MOL0     C26756   6.380   7.155  11.836 -0.0061 -0.7313  1.5670
  199MOL0     C26757   6.337   7.212  11.960 -1.0284 -0.1428  0.0964
  199MOL0     C26758   6.371   7.133  12.078 -0.3020  0.7816  0.6656
  199MOL0     C26759   6.271   7.337  11.959  0.1826 -0.5835 -0.5470
  199MOL0     C26760   6.214   7.413  12.077 -0.0519  0.4636 -0.4780
  199MOL0     O26761   6.220   7.548  12.065 -0.2808 -0.0853  0.6187
  199MOL0     C26762   6.143   7.627  12.148 -1.0992 -0.5473  0.4041
  199MOL0     C26763   6.009   7.611  12.156 -0.0216 -0.4390  0.3617
  199MOL0     C26764   5.932   7.708  12.238  0.3765 -0.0770 -0.3035
  199MOL0     C26765   5.997   7.798  12.322 -0.3139  0.5237  0.0267
  199MOL0     O26766   5.923   7.890  12.393 -0.6434 -0.2631  0.0926
  199MOL0     C26767   5.805   7.935  12.340  0.4810 -0.7103  1.0604
  199MOL0     C26768   5.761   8.065  12.418 -0.2885  0.9879  0.4561
  199MOL0     C26769   5.857   8.188  12.403 -0.4709 -0.1140 -0.2927
  199MOL0     C26770   5.810   8.330  12.461 -1.4388 -0.3009 -0.1462
  199MOL0     C26771   5.796   8.434  12.357 -0.0554 -0.0970  0.7221
  199MOL0     C26772   5.672   8.414  12.277 -0.1300  0.0468  0.8339
  199MOL0     C26773   5.550   8.465  12.362  0.6277  0.1623 -0.7991
  199MOL0     C26774   5.444   8.525  12.267 -0.2584  0.5672  0.1326
  199MOL0    Cl26775   5.310   8.606  12.361 -0.3432 -0.2715  0.2344
  199MOL0     C26776   6.130   7.804  12.310  0.0840 -0.5845  0.0907
  199MOL0     C26777   6.203   7.724  12.219 -0.1314 -0.4238 -0.3045
  199MOL0     O26778   6.153   7.353  12.168  0.3163  0.0713  0.8619
  199MOL0     C26779   6.266   7.403  11.833 -0.2022  0.6488 -0.4265
  199MOL0     C26780   6.299   7.345  11.712 -0.3763 -0.0182 -0.4205
  199MOL0     N26781   6.792   7.167  11.146  0.7266  0.2469 -0.4904
  199MOL0     N26782   6.804   7.263  11.058 -0.0769  0.1216  0.6226
  199MOL0     C26783   8.010   7.081  11.073  0.2805 -1.1895 -0.2352
  199MOL0     C26784   8.148   7.056  11.048  0.3054  1.1095  0.5289
  199MOL0     C26785   8.602   7.155  10.949  0.1091  0.0425 -0.7028
  199MOL0     C26786   8.628   7.071  10.835  0.3460 -0.1245  0.4550
  199MOL0     C26787   8.758   7.027  10.814 -0.3215 -0.0737 -0.3944
  199MOL0     C26788   8.861   7.061  10.893  0.0583  0.4690 -1.0424
  199MOL0     O26789   8.983   7.028  10.860  0.0423 -0.2026 -0.4764
  199MOL0     C26790   9.036   7.115  10.758 -0.5881 -0.0885  0.3386
  199MOL0     C26791   9.178   7.082  10.731  0.0304  0.3810 -0.8843
  199MOL0     C26792   9.243   7.170  10.617  0.4011  0.6925  0.1545
  199MOL0     C26793   9.405   7.175  10.631  1.1649 -0.0514  0.0573
  199MOL0     C26794   9.461   7.248  10.736 -0.8360 -0.0022  0.6965
  199MOL0     C26795   9.513   7.317  10.813  0.6152 -0.8159 -1.3279
  199MOL0     C26796   8.836   7.136  11.011 -0.6906 -0.2095  1.2874
  199MOL0     C26797   8.705   7.193  11.033 -0.5577  0.3286 -0.8953
  199MOL0     H26798   8.242   7.347  10.878 -0.8364  0.4835  0.1588
  199MOL0     H26799   8.002   7.390  10.919 -1.6801 -0.1706  4.2685
  199MOL0     H26800   7.723   7.071  11.045 -3.8533  0.7950  1.3223
  199MOL0     H26801   7.766   7.115  11.208  1.7527 -1.4609 -1.2121
  199MOL0     H26802   7.597   7.298  11.195 -0.4078 -1.4828  0.4201
  199MOL0     H26803   7.566   7.281  11.024 -1.5806  1.7858  2.1334
  199MOL0     H26804   7.489   7.061  11.038  0.4024  0.2059  0.4426
  199MOL0     H26805   7.521   7.054  11.205 -1.6197  0.2871  2.6703
  199MOL0     H26806   7.283   7.120  11.193 -0.2361  0.4720 -1.2243
  199MOL0     H26807   7.367   7.269  11.226  2.2882 -0.6140  0.3688
  199MOL0     H26808   7.361   7.341  11.001 -0.2794 -1.4587 -3.7549
  199MOL0     H26809   7.273   7.190  10.951  0.0786  1.9781 -1.3145
  199MOL0     H26810   7.110   7.233  11.138  1.3502 -1.0075 -0.4785
  199MOL0     H26811   7.176   7.395  11.160  1.0134 -0.1624  0.5713
  199MOL0     H26812   7.124   7.465  10.933  0.2249  1.2968  2.9999
  199MOL0     H26813   7.027   7.304  10.927  1.2523 -3.4714  2.6522
  199MOL0     H26814   6.899   7.531  10.994  1.0244  2.6035  0.8350
  199MOL0     H26815   7.002   7.518  11.135  1.9034 -1.8226  1.0749
  199MOL0     H26816   6.924   7.394  11.324 -1.5719  0.3160 -0.1247
  199MOL0     H26817   6.815   7.028  11.398  3.8933  0.4590 -1.9951
  199MOL0     H26818   6.934   7.143  11.448  0.4404 -1.7517  0.0141
  199MOL0     H26819   6.750   7.279  11.521  1.8864 -0.9063 -1.4866
  199MOL0     H26820   6.734   7.117  11.586 -2.3427 -0.9891  0.1502
  199MOL0     H26821   6.555   7.065  11.418 -1.6437  1.0803  0.1731
  199MOL0     H26822   6.603   7.211  11.332 -3.1180 -1.1824 -2.2010
  199MOL0     H26823   6.411   7.299  11.446  0.2920  2.0694  0.6386
  199MOL0     H26824   6.531   7.331  11.561 -0.3179  0.3757 -0.4182
  199MOL0     H26825   6.422   7.055  11.831 -0.2739 -0.8020  0.4323
  199MOL0     H26826   6.345   7.029  12.058  0.7911  0.7615 -0.7919
  199MOL0     H26827   6.480   7.138  12.087 -0.1184 -2.1679  0.9430
  199MOL0     H26828   6.341   7.183  12.171 -1.4090  1.4551 -0.0337
  199MOL0     H26829   5.962   7.546  12.083 -3.7176  1.8282  0.4277
  199MOL0     H26830   5.823   7.708  12.230  0.2600 -2.9119  0.2120
  199MOL0     H26831   5.820   7.959  12.235 -1.1512 -2.2675  0.4219
  199MOL0     H26832   5.725   7.861  12.354 -1.2507  0.1339 -2.9641
  199MOL0     H26833   5.662   8.095  12.383 -1.4935  2.5051  4.5982
  199MOL0     H26834   5.745   8.030  12.520 -4.8560 -4.7086 -1.6936
  199MOL0     H26835   5.896   8.193  12.301  0.9050  1.1472  0.2680
  199MOL0     H26836   5.945   8.167  12.465  2.1103  2.4251 -2.8016
  199MOL0     H26837   5.720   8.306  12.519 -0.9624  4.5641  3.2735
  199MOL0     H26838   5.883   8.363  12.535 -3.7832  0.1518  2.0920
  199MOL0     H26839   5.882   8.437  12.290 -0.8014  0.8082 -0.2401
  199MOL0     H26840   5.804   8.534  12.400  2.1255  0.8660 -1.6541
  199MOL0     H26841   5.676   8.471  12.184 -0.9284 -0.0649  0.7229
  199MOL0     H26842   5.663   8.307  12.256 -3.3913  0.4647 -0.4871
  199MOL0     H26843   5.568   8.547  12.432 -2.2399 -2.2154  3.1558
  199MOL0     H26844   5.507   8.388  12.427  0.2409  1.3590  0.4050
  199MOL0     H26845   5.411   8.447  12.198  1.6787  0.6345 -0.9295
  199MOL0     H26846   5.484   8.598  12.196 -4.9707  0.9689 -2.5801
  199MOL0     H26847   6.190   7.877  12.362 -3.0850  1.2518  1.4128
  199MOL0     H26848   6.312   7.732  12.217 -0.1686  1.5262  1.3873
  199MOL0     H26849   6.212   7.496  11.826  1.8297  1.7894 -2.2775
  199MOL0     H26850   6.274   7.394  11.619 -4.0208  1.1321  0.9820
  199MOL0     H26851   7.948   7.007  11.123 -0.3665  0.1792  1.0792
  199MOL0     H26852   8.181   6.957  11.077 -3.0206 -0.5211 -0.7069
  199MOL0     H26853   8.543   7.050  10.770  1.5791 -2.8076 -0.4495
  199MOL0     H26854   8.784   6.969  10.726 -1.1164 -0.5145 -0.3489
  199MOL0     H26855   8.995   7.098  10.658 -0.6121 -1.7051  0.5984
  199MOL0     H26856   9.026   7.218  10.794 -1.9530 -1.0097  2.8815
  199MOL0     H26857   9.179   6.979  10.695 -0.6566 -0.1792  0.6000
  199MOL0     H26858   9.238   7.093  10.822  0.6343  1.7065 -1.4182
  199MOL0     H26859   9.196   7.268  10.625  1.4998  1.2222  0.1501
  199MOL0     H26860   9.218   7.114  10.527 -0.6959  1.3138  0.0571
  199MOL0     H26861   9.449   7.223  10.544 -1.3370 -0.9315 -1.8178
  199MOL0     H26862   9.445   7.073  10.642 -1.4767 -0.9006  6.7613
  199MOL0     H26863   9.565   7.371  10.890  1.0325  0.2562 -2.3226
  199MOL0     H26864   8.914   7.171  11.079 -1.7879  0.8856  2.0364
  199MOL0     H26865   8.688   7.271  11.105  1.0236 -0.6796  0.6535
  200MOL0     O26866   6.648   1.947   2.342  0.4440 -0.4670  0.3365
  200MOL0     C26867   6.599   2.060   2.361 -0.4893  0.1907 -0.3342
  200MOL0     O26868   6.610   2.132   2.476  0.8726  0.2537 -0.2459
  200MOL0     C26869   6.688   2.082   2.583 -0.2893  0.3229  0.2913
  200MOL0     C26870   6.645   2.093   2.712  0.6487 -0.0517 -0.5464
  200MOL0     C26871   6.729   2.068   2.834 -0.7175 -1.4971  0.5681
  200MOL0     C26872   6.849   2.019   2.803 -0.7533  0.4486 -0.0247
  200MOL0     O26873   6.937   1.969   2.894 -0.1164 -0.2087  0.1908
  200MOL0     C26874   7.027   2.058   2.965 -0.3091  0.4903  0.2211
  200MOL0     C26875   7.050   2.014   3.099 -0.4167 -0.1204  0.1490
  200MOL0     C26876   7.168   1.909   3.106  0.0476 -0.4149 -0.0278
  200MOL0     C26877   7.214   1.874   3.247  0.2033 -0.5448  0.3512
  200MOL0     C26878   7.337   1.791   3.224  0.0422  0.3487 -0.3028
  200MOL0     C26879   7.371   1.709   3.356 -0.3503 -0.0797  0.2634
  200MOL0     C26880   7.467   1.588   3.341  0.5610  0.1319  0.4843
  200MOL0     C26881   7.606   1.646   3.310  0.4956  0.6931 -0.2154
  200MOL0     N26882   7.713   1.555   3.345  0.1442 -0.3517 -0.7973
  200MOL0     C26883   7.738   1.425   3.297  0.2630 -0.2095  1.1546
  200MOL0     C26884   7.868   1.394   3.333  0.9201  0.4220  0.0578
  200MOL0     C26885   7.929   1.266   3.286  0.5012 -0.6255  0.4948
  200MOL0     C26886   8.072   1.284   3.243  0.5046 -0.0774  0.2723
  200MOL0     C26887   8.089   1.338   3.099  0.1674  0.7238 -0.4954
  200MOL0     C26888   8.227   1.319   3.040  0.6771  0.2516 -0.5314
  200MOL0     O26889   8.328   1.386   3.119  0.4379  0.4984  0.4820
  200MOL0     C26890   8.456   1.353   3.085  0.4813 -0.4582 -1.3119
  200MOL0     C26891   8.562   1.417   3.159 -0.3656  1.5204  0.4950
  200MOL0     C26892   8.695   1.407   3.133 -0.9035 -0.3103  0.0261
  200MOL0     C26893   8.791   1.478   3.223  0.0951 -0.1890 -0.2985
  200MOL0     C26894   8.731   1.342   3.010 -0.1797  1.4902 -0.6282
  200MOL0     C26895   8.872   1.354   2.952 -0.2490  0.8811  0.6418
  200MOL0     O26896   8.862   1.350   2.822  0.0261  0.3944  0.0631
  200MOL0     C26897   8.972   1.395   2.757 -0.3920  0.3510 -0.1209
  200MOL0     C26898   8.987   1.532   2.735 -0.5337  1.0256  0.3982
  200MOL0     C26899   9.105   1.567   2.663  0.4445  0.2438  0.1185
  200MOL0     C26900   9.193   1.474   2.610 -0.9443  0.1741  1.2583
  200MOL0     O26901   9.300   1.489   2.520  0.0206 -0.4334  0.0679
  200MOL0     C26902   9.339   1.619   2.480 -0.2048 -0.2089 -1.0544
  200MOL0     C26903   9.402   1.704   2.597  0.2178  0.4877 -0.2398
  200MOL0     C26904   9.560   1.687   2.607  1.6391 -1.1274  0.1972
  200MOL0     C26905   9.586   1.563   2.702 -0.4073 -0.2581 -0.6050
  200MOL0     C26906   9.727   1.505   2.692 -0.4862  0.4599 -0.3621
  200MOL0     C26907   9.754   1.438   2.552  0.8913 -0.1647 -0.2830
  200MOL0     C26908   9.876   1.349   2.542  1.1657 -0.7651  0.9494
  200MOL0     C26909   9.874   1.212   2.621  0.2183 -0.0430  0.0073
  200MOL0    Cl26910  10.014   1.126   2.580  0.1118  0.5519  0.4936
  200MOL0     C26911   9.170   1.337   2.633 -0.1406 -0.1117  1.1382
  200MOL0     C26912   9.059   1.301   2.703  0.9892  0.7558 -0.3437
  200MOL0     O26913   8.978   1.371   3.018  0.2333  0.2321 -0.0537
  200MOL0     C26914   8.626   1.269   2.937 -0.1672 -0.1544  0.3353
  200MOL0     C26915   8.494   1.274   2.969 -0.1735 -0.6184 -0.0115
  200MOL0     N26916   7.914   1.495   3.406 -0.8869  0.3980 -0.2868
  200MOL0     N26917   7.825   1.590   3.421 -0.3185  0.0668 -0.1369
  200MOL0     C26918   6.892   2.008   2.672 -0.0965  0.6622 -0.7164
  200MOL0     C26919   6.818   2.047   2.559 -0.2851  1.1770  0.0275
  200MOL0     C26920   6.510   2.112   2.251 -0.4044  0.8077  0.3268
  200MOL0     C26921   6.530   2.065   2.123 -0.3046 -0.3270  1.0186
  200MOL0     C26922   6.449   2.123   2.022 -0.7650 -0.2762 -1.0011
  200MOL0     C26923   6.366   2.226   2.054  0.8123 -0.5911  0.0276
  200MOL0     O26924   6.306   2.285   1.946  0.3393  0.2765  0.2528
  200MOL0     C26925   6.335   2.425   1.933  0.2848  0.6160  0.2370
  200MOL0     C26926   6.450   2.456   1.840  0.4044 -0.1905  0.0516
  200MOL0     C26927   6.416   2.417   1.692 -0.5805 -0.4406  0.0301
  200MOL0     C26928   6.545   2.466   1.618  0.7819 -0.1311  0.1282
  200MOL0     C26929   6.538   2.413   1.478 -0.1748 -0.4446 -1.0032
  200MOL0     C26930   6.514   2.390   1.366  0.4437 -0.3910  0.3383
  200MOL0     C26931   6.327   2.259   2.191  0.2320 -0.8358 -0.3624
  200MOL0     C26932   6.415   2.201   2.286  0.6284 -0.0602  0.6359
  200MOL0     H26933   6.540   2.109   2.736  0.9361  2.7334 -0.8339
  200MOL0     H26934   6.702   2.073   2.939 -0.4862 -2.5496  0.6880
  200MOL0     H26935   7.117   2.073   2.904 -0.8278  0.2496 -0.6274
  200MOL0     H26936   6.974   2.153   2.966 -0.2758  0.5346 -0.9787
  200MOL0     H26937   7.074   2.097   3.165 -1.6142 -0.2707  0.8104
  200MOL0     H26938   6.956   1.973   3.138 -2.0109  0.6565 -2.5873
  200MOL0     H26939   7.127   1.818   3.061 -4.1450  0.3914  1.7202
  200MOL0     H26940   7.249   1.960   3.051 -0.5213  0.2579 -0.2516
  200MOL0     H26941   7.229   1.967   3.304  0.2405  0.3270 -1.0362
  200MOL0     H26942   7.140   1.819   3.305  0.6195 -0.0229  1.4067
  200MOL0     H26943   7.307   1.719   3.147 -0.8900  0.7804 -0.3464
  200MOL0     H26944   7.427   1.848   3.197  0.5738  0.9917  2.4427
  200MOL0     H26945   7.408   1.780   3.430  4.7325 -2.2744  0.2769
  200MOL0     H26946   7.278   1.672   3.400  0.0816  1.7731  2.9882
  200MOL0     H26947   7.471   1.538   3.439 -0.1444 -3.4804 -1.1620
  200MOL0     H26948   7.434   1.507   3.276 -2.6911  0.6457  1.3138
  200MOL0     H26949   7.611   1.731   3.378  4.2634 -0.7728  1.6223
  200MOL0     H26950   7.623   1.689   3.211 -0.8305  1.4431 -0.1419
  200MOL0     H26951   7.663   1.373   3.239 -1.6990  0.3900  3.0264
  200MOL0     H26952   7.913   1.194   3.366  1.7647  0.5727  1.8875
  200MOL0     H26953   7.862   1.240   3.203 -1.6766  0.6592  1.7665
  200MOL0     H26954   8.111   1.182   3.241 -0.0662 -0.3448  1.6286
  200MOL0     H26955   8.133   1.335   3.319  2.6761 -0.7975 -0.9006
  200MOL0     H26956   8.065   1.444   3.103  0.7512  0.9408 -2.0974
  200MOL0     H26957   8.018   1.281   3.038  0.2446  2.4706 -2.2870
  200MOL0     H26958   8.223   1.355   2.937 -1.4235  1.7876  0.0276
  200MOL0     H26959   8.232   1.209   3.044 -0.9735  0.1372 -0.8141
  200MOL0     H26960   8.522   1.486   3.233 -1.6922  0.9383  0.3483
  200MOL0     H26961   8.863   1.536   3.166  0.1403  0.1879  0.1386
  200MOL0     H26962   8.736   1.538   3.297  2.1606  1.9339 -0.3607
  200MOL0     H26963   8.857   1.405   3.271 -0.0066  0.1442  0.3617
  200MOL0     H26964   8.921   1.609   2.774 -5.6293 -1.8746 -1.5067
  200MOL0     H26965   9.115   1.674   2.653  2.2387  0.2569  1.5551
  200MOL0     H26966   9.417   1.603   2.405  1.0464 -2.0638  0.5299
  200MOL0     H26967   9.261   1.683   2.438  0.5294  2.0832  0.9163
  200MOL0     H26968   9.371   1.804   2.563 -1.9868  1.3485  3.6834
  200MOL0     H26969   9.349   1.701   2.692  0.0423  0.8075 -0.3238
  200MOL0     H26970   9.603   1.780   2.645  1.5695 -0.6947 -0.7360
  200MOL0     H26971   9.604   1.680   2.507  3.6040  0.2584  0.9237
  200MOL0     H26972   9.564   1.601   2.802  2.0518  2.2589 -0.9079
  200MOL0     H26973   9.508   1.490   2.677  0.5752 -1.0229 -1.5403
  200MOL0     H26974   9.729   1.426   2.768 -1.5697 -1.3305 -2.1015
  200MOL0     H26975   9.796   1.586   2.716 -0.2595 -0.1154  1.0607
  200MOL0     H26976   9.667   1.376   2.525  0.0241  0.7078  0.4370
  200MOL0     H26977   9.758   1.511   2.471 -1.5530  0.2083 -0.1477
  200MOL0     H26978   9.960   1.416   2.563 -0.5759  2.1768 -0.8505
  200MOL0     H26979   9.901   1.324   2.439  0.5469 -1.9063  1.0630
  200MOL0     H26980   9.785   1.152   2.595 -0.6026  1.1519 -0.0212
  200MOL0     H26981   9.872   1.224   2.730 -0.8982  1.3805 -0.1312
  200MOL0     H26982   9.246   1.272   2.590  0.5918  0.0318  2.1813
  200MOL0     H26983   9.036   1.196   2.714 -1.9957  1.4343  0.7365
  200MOL0     H26984   8.626   1.212   2.845 -0.3335  0.0921  0.1824
  200MOL0     H26985   8.410   1.221   2.925 -2.1915 -0.1954  3.0041
  200MOL0     H26986   6.993   1.973   2.658 -0.4119 -0.2085 -0.8835
  200MOL0     H26987   6.859   2.058   2.459 -2.0977  0.4202 -0.8461
  200MOL0     H26988   6.612   2.000   2.094  0.4157  0.6737  0.7583
  200MOL0     H26989   6.463   2.105   1.915  1.7747  0.5561 -0.8974
  200MOL0     H26990   6.241   2.472   1.904 -1.5597 -2.7113  0.4240
  200MOL0     H26991   6.348   2.478   2.029 -0.6504  1.0418  0.1434
  200MOL0     H26992   6.544   2.402   1.858 -2.0480 -5.0430  0.1248
  200MOL0     H26993   6.463   2.564   1.844 -2.6887  0.2660  3.3248
  200MOL0     H26994   6.329   2.473   1.657  0.4776 -0.1739 -2.3590
  200MOL0     H26995   6.414   2.309   1.679  2.8626 -0.3917 -2.2023
  200MOL0     H26996   6.644   2.435   1.653  0.9722 -0.4419 -0.6768
  200MOL0     H26997   6.542   2.574   1.600 -2.4311 -0.5981 -3.4264
  200MOL0     H26998   6.483   2.383   1.264  0.3359  0.5320  0.3003
  200MOL0     H26999   6.253   2.335   2.214 -1.7021 -2.6420 -0.3747
  200MOL0     H27000   6.398   2.238   2.386 -1.4568 -0.3408  0.4291
  201MOL0     O27001   7.374   3.473  11.492 -0.3936 -0.1759 -0.5720
  201MOL0     C27002   7.314   3.463  11.388 -0.1947 -0.6499 -0.3796
  201MOL0     O27003   7.338   3.373  11.300 -0.5597 -0.6101 -0.3946
  201MOL0     C27004   7.437   3.274  11.312 -0.7830 -0.1568 -0.4487
  201MOL0     C27005   7.431   3.158  11.386 -1.0313  0.0346 -0.3489
  201MOL0     C27006   7.542   3.064  11.390  0.3608 -0.5566  0.8740
  201MOL0     C27007   7.661   3.091  11.316 -0.4029  0.1762 -0.0384
  201MOL0     O27008   7.767   3.012  11.322 -0.6784  0.1425 -0.2355
  201MOL0     C27009   7.850   2.990  11.203  1.1161  0.5524  0.2078
  201MOL0     C27010   7.963   2.897  11.233 -0.0428  0.5874  0.8128
  201MOL0     C27011   8.060   2.962  11.334 -0.5193 -0.0096 -0.2723
  201MOL0     C27012   8.047   2.906  11.481 -0.3951  0.4146  0.5323
  201MOL0     C27013   8.114   2.985  11.594 -0.7919 -0.2584 -0.4646
  201MOL0     C27014   8.100   3.134  11.595  1.1220 -0.2958  0.3833
  201MOL0     C27015   8.175   3.193  11.720 -0.0063  0.4059  0.0295
  201MOL0     C27016   8.234   3.328  11.683  0.7419 -1.0274  1.0459
  201MOL0     N27017   8.276   3.395  11.811 -0.6012 -0.7726  1.6298
  201MOL0     C27018   8.273   3.531  11.834 -0.7475 -0.0730 -0.5366
  201MOL0     C27019   8.325   3.547  11.956  1.2765  0.4779  0.6756
  201MOL0     C27020   8.351   3.681  12.022 -0.2989 -0.4128 -0.2459
  201MOL0     C27021   8.497   3.694  12.050 -0.2708 -0.3178 -0.5955
  201MOL0     C27022   8.547   3.799  12.133  0.7813  0.1142  0.2547
  201MOL0     C27023   8.697   3.797  12.144  0.5251 -0.5245  0.1780
  201MOL0     O27024   8.741   3.677  12.207  0.4161 -0.0804  0.0744
  201MOL0     C27025   8.881   3.652  12.189 -0.5821 -0.8024 -0.7524
  201MOL0     C27026   8.978   3.745  12.136  0.8867  0.4727  0.1075
  201MOL0     C27027   9.113   3.715  12.135  0.8543 -0.9319 -0.1917
  201MOL0     C27028   9.190   3.838  12.097  0.1035  1.0904 -0.3678
  201MOL0     C27029   9.162   3.604  12.214 -0.2608 -0.3442  0.0109
  201MOL0     C27030   9.303   3.564  12.226 -0.0892  0.0995  0.3908
  201MOL0     O27031   9.332   3.454  12.289 -0.0397  0.1389 -0.0982
  201MOL0     C27032   9.436   3.436  12.382 -0.5389 -0.6786  0.0218
  201MOL0     C27033   9.421   3.333  12.475 -0.3169 -0.5429  0.0955
  201MOL0     C27034   9.530   3.294  12.554  0.7920 -0.2581  0.5704
  201MOL0     C27035   9.648   3.370  12.554 -0.2584 -0.6804  0.8577
  201MOL0     O27036   9.744   3.315  12.634  0.5370  0.3883  0.2455
  201MOL0     C27037   9.871   3.368  12.618 -0.3229 -0.3609 -0.1853
  201MOL0     C27038   9.978   3.290  12.680 -0.0778 -0.1480  0.8829
  201MOL0     C27039   9.959   3.284  12.832  0.0960 -0.5819  0.5554
  201MOL0     C27040  10.051   3.183  12.891  0.0215  0.1660  0.5279
  201MOL0     C27041  10.038   3.196  13.040 -0.0824 -0.2934 -0.6107
  201MOL0     C27042  10.127   3.113  13.133  0.1514 -0.0877  0.4831
  201MOL0     C27043  10.139   2.965  13.101 -1.2601  1.0455 -0.3032
  201MOL0     C27044  10.103   2.867  13.222 -0.9231  0.3606 -0.2656
  201MOL0    Cl27045  10.220   2.888  13.365 -0.2168 -0.3137  0.2935
  201MOL0     C27046   9.654   3.482  12.458  0.8331 -1.0488 -0.8406
  201MOL0     C27047   9.558   3.504  12.365  0.1895  0.0145  0.2200
  201MOL0     O27048   9.384   3.639  12.171  0.3846  0.9441  0.2314
  201MOL0     C27049   9.065   3.518  12.275  1.1926  1.3051 -0.0410
  201MOL0     C27050   8.930   3.546  12.271 -0.0673  0.7316 -0.6453
  201MOL0     N27051   8.326   3.420  12.018 -0.3957 -0.6336  0.6605
  201MOL0     N27052   8.322   3.331  11.923 -0.6612 -0.2602  1.1860
  201MOL0     C27053   7.672   3.213  11.246 -0.7124 -0.7032 -0.0487
  201MOL0     C27054   7.558   3.304  11.249  0.0955 -0.7719 -0.2371
  201MOL0     C27055   7.217   3.574  11.362  0.9360  0.2995 -0.5162
  201MOL0     C27056   7.232   3.691  11.432 -0.1484 -0.2626  0.0951
  201MOL0     C27057   7.169   3.810  11.407  0.5584  0.2404 -0.0094
  201MOL0     C27058   7.082   3.822  11.293 -1.8733 -0.1760  0.6546
  201MOL0     O27059   7.016   3.931  11.260 -0.0834  0.4988  0.8368
  201MOL0     C27060   6.923   3.980  11.362 -0.3962  0.9519 -0.4448
  201MOL0     C27061   6.857   4.104  11.306 -0.8924 -0.3024  0.5217
  201MOL0     C27062   6.818   4.083  11.158 -0.1438  0.1521 -0.3304
  201MOL0     C27063   6.727   4.185  11.115  0.5225  0.5241  1.1497
  201MOL0     C27064   6.713   4.184  10.963 -1.2007  0.7489 -0.6684
  201MOL0     C27065   6.718   4.175  10.842  0.9400 -0.5239 -0.5512
  201MOL0     C27066   7.062   3.704  11.221 -0.0054  0.4784  0.1976
  201MOL0     C27067   7.134   3.590  11.248 -0.1561  0.3739 -0.8461
  201MOL0     H27068   7.340   3.130  11.439 -1.9936  0.6879 -1.6193
  201MOL0     H27069   7.551   2.969  11.442  2.0630 -1.0530 -0.2311
  201MOL0     H27070   7.780   2.948  11.130 -0.3833  0.2944  1.7311
  201MOL0     H27071   7.880   3.085  11.157  0.4536  0.6618 -0.0051
  201MOL0     H27072   7.916   2.801  11.259  0.9437 -0.5816 -1.4409
  201MOL0     H27073   8.023   2.867  11.147 -0.0365 -0.8258  1.2794
  201MOL0     H27074   8.165   2.943  11.312  0.7654  1.9938  3.3331
  201MOL0     H27075   8.028   3.066  11.334  0.5352  0.3247 -0.8482
  201MOL0     H27076   7.940   2.917  11.495 -0.9127 -0.2729 -2.1912
  201MOL0     H27077   8.073   2.801  11.500  0.6587  0.4733 -0.4452
  201MOL0     H27078   8.087   2.941  11.691  1.1776 -1.4032 -0.3720
  201MOL0     H27079   8.221   2.961  11.585 -1.2028 -2.2469 -0.6022
  201MOL0     H27080   8.139   3.180  11.504  2.9520  0.7378  1.6325
  201MOL0     H27081   7.993   3.157  11.598  1.4233  1.1515  0.7885
  201MOL0     H27082   8.118   3.204  11.813  2.2512  2.1415  1.3093
  201MOL0     H27083   8.259   3.133  11.757 -1.5984 -1.8973  0.1354
  201MOL0     H27084   8.159   3.383  11.626  0.3745 -2.7160 -0.2089
  201MOL0     H27085   8.316   3.322  11.610 -1.2817 -1.7893 -1.3273
  201MOL0     H27086   8.259   3.609  11.760  2.5280 -0.7930 -2.0695
  201MOL0     H27087   8.307   3.764  11.966  1.1718  0.0960 -0.6962
  201MOL0     H27088   8.304   3.692  12.120  2.0722  1.8179  0.7492
  201MOL0     H27089   8.552   3.717  11.958  1.2094  1.9097  0.7463
  201MOL0     H27090   8.527   3.598  12.093  2.9329  0.3559 -1.0486
  201MOL0     H27091   8.499   3.812  12.230  0.8615  1.8148  0.0952
  201MOL0     H27092   8.523   3.894  12.084 -0.4468 -0.1616  0.2955
  201MOL0     H27093   8.720   3.881  12.211  0.3070 -0.7446  0.5312
  201MOL0     H27094   8.749   3.806  12.048 -2.1287 -1.8461 -1.4931
  201MOL0     H27095   8.943   3.837  12.090  0.1039  0.6952  1.1241
  201MOL0     H27096   9.131   3.905  12.034  0.5498 -0.0914 -2.1121
  201MOL0     H27097   9.235   3.874  12.190 -0.8551 -1.0538  1.0000
  201MOL0     H27098   9.263   3.808  12.021 -0.8457  1.9012 -1.6323
  201MOL0     H27099   9.321   3.290  12.482 -0.4731 -0.6225 -1.9938
  201MOL0     H27100   9.520   3.217  12.629  1.6860 -0.4726  0.4804
  201MOL0     H27101   9.884   3.371  12.509 -0.9669 -1.6803 -0.3085
  201MOL0     H27102   9.885   3.467  12.662  2.7560 -1.4268  1.5549
  201MOL0     H27103   9.984   3.190  12.636  1.8325  0.2309  0.2095
  201MOL0     H27104  10.072   3.336  12.650 -1.1568  1.5604 -0.0690
  201MOL0     H27105   9.854   3.271  12.859 -0.8705  1.8140 -1.5768
  201MOL0     H27106   9.988   3.380  12.875  1.5353 -1.3143  1.2754
  201MOL0     H27107  10.022   3.086  12.848  0.5620  0.1292  0.2372
  201MOL0     H27108  10.155   3.193  12.859  0.4810 -2.8067  0.7784
  201MOL0     H27109   9.942   3.160  13.077  1.4050 -4.0583 -0.0048
  201MOL0     H27110  10.053   3.300  13.072  0.8140 -1.0304  1.5408
  201MOL0     H27111  10.231   3.150  13.133 -0.7109  2.6781  2.1312
  201MOL0     H27112  10.099   3.133  13.237 -2.4598  2.2208 -0.5578
  201MOL0     H27113  10.247   2.951  13.091 -1.2572  0.2645  0.7258
  201MOL0     H27114  10.080   2.945  13.011 -2.3106  0.3617  0.5090
  201MOL0     H27115  10.088   2.761  13.201 -1.4908 -0.0383  1.8464
  201MOL0     H27116  10.009   2.896  13.271  0.9207  2.9160  2.0683
  201MOL0     H27117   9.731   3.558  12.464  0.8186 -1.0968  0.3158
  201MOL0     H27118   9.572   3.593  12.305  1.4546  1.2157  2.1794
  201MOL0     H27119   9.110   3.446  12.343  1.2882  3.0666  1.8336
  201MOL0     H27120   8.858   3.486  12.325 -1.5084  0.7837 -2.4289
  201MOL0     H27121   7.757   3.259  11.197 -1.4955 -0.0759 -0.8643
  201MOL0     H27122   7.564   3.404  11.208 -3.9305  0.7956  2.4018
  201MOL0     H27123   7.312   3.702  11.505 -1.2616 -0.1765  1.3533
  201MOL0     H27124   7.178   3.889  11.480 -1.6386 -0.4198  1.0343
  201MOL0     H27125   6.861   3.893  11.381  4.7430 -3.4399 -1.3651
  201MOL0     H27126   6.975   4.003  11.455  0.9418  0.8888 -1.1513
  201MOL0     H27127   6.929   4.186  11.315 -0.4759 -0.6967  0.7712
  201MOL0     H27128   6.764   4.126  11.361  0.4947  0.2374  2.7767
  201MOL0     H27129   6.775   3.983  11.158  2.4224 -1.0398  0.7698
  201MOL0     H27130   6.903   4.088  11.090 -0.7088  0.0650 -1.0563
  201MOL0     H27131   6.774   4.278  11.149  0.1133  0.3428  2.2445
  201MOL0     H27132   6.632   4.161  11.163  0.2202  1.7153  1.1738
  201MOL0     H27133   6.715   4.161  10.736  0.1811  1.0250 -0.7571
  201MOL0     H27134   6.983   3.705  11.147  0.5311 -0.3392 -0.4122
  201MOL0     H27135   7.130   3.513  11.172  0.0315  2.3883 -3.0184
  202MOL0     O27136   4.748   8.158  10.384 -1.2305 -0.8365 -0.3066
  202MOL0     C27137   4.661   8.167  10.470  0.2571 -0.0684 -0.1720
  202MOL0     O27138   4.639   8.273  10.553  0.7161  0.2023  0.1371
  202MOL0     C27139   4.728   8.377  10.572 -0.3257  0.1542  0.0941
  202MOL0     C27140   4.860   8.381  10.522 -0.9832  0.0833  0.2567
  202MOL0     C27141   4.937   8.492  10.522  1.1809 -0.0990  1.3235
  202MOL0     C27142   4.884   8.608  10.573  0.5349 -0.2548  0.5579
  202MOL0     O27143   4.961   8.722  10.548  0.7590  0.1963  0.5037
  202MOL0     C27144   4.925   8.853  10.603  0.5752  0.4582 -0.3539
  202MOL0     C27145   5.036   8.960  10.613 -0.0791  0.2200 -0.0467
  202MOL0     C27146   4.985   9.094  10.653  0.0285 -0.3497  0.7312
  202MOL0     C27147   4.917   9.181  10.537  0.8508  0.1258  0.5060
  202MOL0     C27148   4.828   9.283  10.585 -0.4244 -0.1078 -0.5769
  202MOL0     C27149   4.787   9.381  10.466 -1.1311 -0.3736  0.3241
  202MOL0     C27150   4.660   9.315  10.400  0.2995  0.5595 -0.2750
  202MOL0     C27151   4.536   9.342  10.487  0.5706 -0.4580 -0.2384
  202MOL0     N27152   4.404   9.277  10.440 -0.3900  0.8798  0.1657
  202MOL0     C27153   4.335   9.171  10.494  0.0045  0.5346  0.8383
  202MOL0     C27154   4.252   9.129  10.399 -0.7239 -0.0983 -0.3660
  202MOL0     C27155   4.158   9.011  10.421  0.3676  0.5298  0.5401
  202MOL0     C27156   4.021   9.034  10.348 -0.9372 -0.2079 -0.4372
  202MOL0     C27157   3.925   8.917  10.348  0.3080 -0.7292  0.1306
  202MOL0     C27158   3.799   8.943  10.261 -0.1750 -0.6993  0.3955
  202MOL0     O27159   3.719   9.040  10.331 -0.7474 -0.4194  0.6795
  202MOL0     C27160   3.598   9.074  10.265 -0.1585 -0.1312 -0.3702
  202MOL0     C27161   3.527   9.195  10.302 -1.1151 -0.2334 -0.3086
  202MOL0     C27162   3.434   9.253  10.214  0.3301  0.5729  0.2936
  202MOL0     C27163   3.393   9.397  10.235  0.4464  0.1974 -0.4297
  202MOL0     C27164   3.380   9.178  10.111 -0.4398  0.8234  0.0997
  202MOL0     C27165   3.269   9.220  10.022 -0.1450  1.2641  0.0690
  202MOL0     O27166   3.161   9.289  10.086 -0.2221  0.5314  0.3243
  202MOL0     C27167   3.037   9.293  10.038  0.3707 -0.1962 -0.2735
  202MOL0     C27168   2.971   9.409  10.054  0.5122 -0.8500 -0.4707
  202MOL0     C27169   2.837   9.425  10.005 -0.4735  0.4591 -0.5286
  202MOL0     C27170   2.780   9.323   9.926  0.7456  0.2364  0.2532
  202MOL0     O27171   2.663   9.349   9.859  0.9185  0.0675  0.5520
  202MOL0     C27172   2.602   9.238   9.785  0.4680 -0.1296 -0.1493
  202MOL0     C27173   2.461   9.261   9.743  0.5647  0.3215  0.5548
  202MOL0     C27174   2.363   9.222   9.856 -0.0409 -0.3181 -0.8472
  202MOL0     C27175   2.219   9.293   9.842  0.5041  0.6561  0.2320
  202MOL0     C27176   2.135   9.251   9.968  0.1165  0.1103 -0.3191
  202MOL0     C27177   1.982   9.277   9.964 -1.1509  0.0220  0.2187
  202MOL0     C27178   1.955   9.432   9.962 -0.1518  1.5032  0.2873
  202MOL0     C27179   1.810   9.445   9.915 -0.4147 -0.5874  0.1272
  202MOL0    Cl27180   1.791   9.630   9.921  0.4289  0.5114 -0.1748
  202MOL0     C27181   2.846   9.206   9.916  0.1178  0.1707 -0.6023
  202MOL0     C27182   2.972   9.197   9.972 -0.2243 -0.0962 -0.3793
  202MOL0     O27183   3.282   9.192   9.906 -0.5929  0.5442 -0.6853
  202MOL0     C27184   3.430   9.054  10.082 -1.0777  0.5485 -0.8785
  202MOL0     C27185   3.535   9.004  10.158 -0.0944 -0.0703 -0.0712
  202MOL0     N27186   4.257   9.210  10.285 -0.2701 -0.4623  0.3840
  202MOL0     N27187   4.355   9.295  10.317 -0.2164 -0.3810 -0.5405
  202MOL0     C27188   4.756   8.604  10.641  0.4063  0.4024 -0.2651
  202MOL0     C27189   4.683   8.490  10.642  1.0185  0.5709  0.4486
  202MOL0     C27190   4.573   8.053  10.487  0.6992  0.2171  0.1973
  202MOL0     C27191   4.549   7.958  10.384 -0.6789  0.6142  0.5783
  202MOL0     C27192   4.459   7.849  10.395  0.7071 -0.9914 -0.8534
  202MOL0     C27193   4.393   7.830  10.519 -1.1784  0.1388 -1.0030
  202MOL0     O27194   4.322   7.712  10.533  0.9218 -0.1992  0.3931
  202MOL0     C27195   4.256   7.672  10.659  0.0099  0.4157  0.0802
  202MOL0     C27196   4.209   7.530  10.653 -0.5253 -0.3019  0.6001
  202MOL0     C27197   4.071   7.516  10.593  0.2877 -0.0805  0.5772
  202MOL0     C27198   3.957   7.585  10.674  0.2855 -1.1093 -0.1021
  202MOL0     C27199   3.822   7.541  10.642 -0.2454 -0.9502  0.8886
  202MOL0     C27200   3.709   7.501  10.626 -0.2327 -0.1027  0.6735
  202MOL0     C27201   4.401   7.934  10.617 -0.9105  0.4758  0.3294
  202MOL0     C27202   4.491   8.041  10.599  0.1705 -0.0828 -0.2961
  202MOL0     H27203   4.906   8.301  10.465 -5.1174 -0.6489 -2.4356
  202MOL0     H27204   5.024   8.496  10.458  2.0419  2.1768  2.5189
  202MOL0     H27205   4.857   8.878  10.521 -0.5612  1.1393  0.7620
  202MOL0     H27206   4.862   8.841  10.692 -1.0673  2.2625 -1.2003
  202MOL0     H27207   5.102   8.924  10.693  1.9472 -1.7010 -2.3946
  202MOL0     H27208   5.097   8.956  10.523 -1.3371 -0.6514 -0.8975
  202MOL0     H27209   4.916   9.081  10.737  0.2773  3.2927  1.6369
  202MOL0     H27210   5.064   9.161  10.689 -3.0151  2.3190  3.1323
  202MOL0     H27211   5.003   9.220  10.481  1.0792 -0.3114  0.5478
  202MOL0     H27212   4.865   9.117  10.465  0.5269 -0.7656  1.5182
  202MOL0     H27213   4.733   9.238  10.614 -0.3004  0.1113  0.1835
  202MOL0     H27214   4.872   9.322  10.677 -1.7639 -1.3719  0.6386
  202MOL0     H27215   4.760   9.482  10.498 -3.8137 -0.9603  0.2248
  202MOL0     H27216   4.868   9.386  10.393 -0.3480  3.3212  1.2526
  202MOL0     H27217   4.648   9.362  10.302 -1.1536 -1.5653 -1.1823
  202MOL0     H27218   4.687   9.210  10.392 -0.9924  0.1375  0.6252
  202MOL0     H27219   4.507   9.447  10.486 -0.3347 -0.6716 -2.1651
  202MOL0     H27220   4.552   9.316  10.592  1.3363  2.1972  0.3780
  202MOL0     H27221   4.364   9.127  10.590 -1.2105  1.0449  1.4558
  202MOL0     H27222   4.201   8.914  10.398  0.5856  0.3392  1.6909
  202MOL0     H27223   4.133   9.004  10.527  2.5824 -0.4792  1.0627
  202MOL0     H27224   4.038   9.055  10.242  2.5245  0.5215  0.1344
  202MOL0     H27225   3.972   9.119  10.397  0.9539  0.6177  0.1384
  202MOL0     H27226   3.892   8.894  10.449 -0.7585 -0.3702 -0.1245
  202MOL0     H27227   3.975   8.825  10.317 -0.7658 -1.7037  1.1868
  202MOL0     H27228   3.731   8.858  10.263 -0.4090 -0.5071  0.7468
  202MOL0     H27229   3.824   8.978  10.160 -0.8716 -0.1996  0.3891
  202MOL0     H27230   3.551   9.250  10.392 -0.6229  0.7502 -1.0269
  202MOL0     H27231   3.323   9.391  10.319  0.3799  0.6056 -0.4514
  202MOL0     H27232   3.475   9.464  10.264 -0.5082  1.9532 -1.5771
  202MOL0     H27233   3.346   9.445  10.148 -0.3348  2.7994  1.2878
  202MOL0     H27234   2.999   9.499  10.107 -1.5035 -1.7771  2.3901
  202MOL0     H27235   2.772   9.509  10.025  1.4904  1.3558  3.0782
  202MOL0     H27236   2.671   9.223   9.702 -0.0666 -0.0952 -0.6086
  202MOL0     H27237   2.595   9.143   9.841  1.3593  0.2308  0.5935
  202MOL0     H27238   2.454   9.367   9.716 -0.9595 -0.0106 -0.4945
  202MOL0     H27239   2.432   9.203   9.655  2.3622 -0.5005  0.4666
  202MOL0     H27240   2.408   9.251   9.952 -1.8963 -0.2148  0.0282
  202MOL0     H27241   2.350   9.113   9.854  2.3018 -0.7416  1.1741
  202MOL0     H27242   2.233   9.401   9.832 -1.8273  0.7548 -4.4610
  202MOL0     H27243   2.169   9.252   9.755 -0.0691  1.2110  0.2993
  202MOL0     H27244   2.173   9.296  10.060  1.2916 -1.0794 -0.1899
  202MOL0     H27245   2.163   9.147   9.984  0.7237  0.2347 -0.5292
  202MOL0     H27246   1.937   9.231   9.875 -3.5959  0.9954  0.8553
  202MOL0     H27247   1.925   9.233  10.046  0.5314 -0.0786  1.3817
  202MOL0     H27248   2.013   9.484   9.885 -1.6108  2.2882 -0.3282
  202MOL0     H27249   1.965   9.471  10.063 -2.7234  1.1844  0.7415
  202MOL0     H27250   1.730   9.393   9.968 -0.4959 -0.4984  0.0935
  202MOL0     H27251   1.804   9.412   9.811 -1.5812 -2.2117  0.6648
  202MOL0     H27252   2.806   9.118   9.867 -1.4743 -1.0742  2.6507
  202MOL0     H27253   3.023   9.101   9.965 -0.6286 -0.2330 -1.7342
  202MOL0     H27254   3.391   8.994  10.001  1.9613 -1.1127 -1.2452
  202MOL0     H27255   3.576   8.909  10.127 -2.2560 -0.7726 -0.9782
  202MOL0     H27256   4.706   8.691  10.683 -3.5068 -0.8754 -1.7865
  202MOL0     H27257   4.584   8.502  10.685  1.4260  1.9091  1.0576
  202MOL0     H27258   4.613   7.951  10.296 -1.2284 -1.4430  0.2872
  202MOL0     H27259   4.450   7.781  10.311  1.6980  1.2995 -2.9725
  202MOL0     H27260   4.316   7.673  10.751  1.8727 -0.7729 -1.0473
  202MOL0     H27261   4.175   7.743  10.680  0.4501  0.5438  1.4422
  202MOL0     H27262   4.202   7.491  10.755  0.4454  1.0605  1.2223
  202MOL0     H27263   4.285   7.477  10.595  0.3001  3.0273 -1.5983
  202MOL0     H27264   4.063   7.407  10.594  2.8652 -0.3352 -0.3301
  202MOL0     H27265   4.065   7.549  10.489 -2.0545 -3.8969 -0.6741
  202MOL0     H27266   3.970   7.693  10.658  3.1486 -1.5926 -1.6365
  202MOL0     H27267   3.970   7.561  10.780  2.4525 -0.3098 -0.1376
  202MOL0     H27268   3.615   7.453  10.610 -0.6056 -0.2795  3.0212
  202MOL0     H27269   4.333   7.931  10.702  0.9929  0.9659  1.9538
  202MOL0     H27270   4.496   8.119  10.675  1.4958  1.1469 -1.6009
  203MOL0     O27271   3.252   1.452   0.773 -0.0586 -0.2483 -0.5280
  203MOL0     C27272   3.227   1.451   0.892 -0.6964 -0.0814 -0.3594
  203MOL0     O27273   3.106   1.480   0.955 -0.8140 -0.5904  0.2358
  203MOL0     C27274   2.998   1.504   0.883  0.4109 -0.6149 -0.3174
  203MOL0     C27275   2.892   1.564   0.956 -0.4162 -0.9709 -0.2137
  203MOL0     C27276   2.771   1.590   0.900  0.0823 -0.2419 -0.1896
  203MOL0     C27277   2.749   1.548   0.769 -0.5354  1.0401  0.0746
  203MOL0     O27278   2.626   1.560   0.712  0.0357 -0.5111 -0.1851
  203MOL0     C27279   2.592   1.689   0.666  0.6835 -0.2571  0.3168
  203MOL0     C27280   2.482   1.691   0.557 -0.7104  0.1684  0.8089
  203MOL0     C27281   2.348   1.637   0.594  0.4004 -0.2920 -0.7219
  203MOL0     C27282   2.236   1.680   0.496  0.3894 -0.1869 -0.0137
  203MOL0     C27283   2.099   1.661   0.576 -0.7305  0.7624  1.3282
  203MOL0     C27284   2.068   1.771   0.679  2.2412 -0.8664 -0.2201
  203MOL0     C27285   1.949   1.751   0.774 -0.1444 -0.5133  1.0128
  203MOL0     C27286   1.926   1.874   0.865 -1.1420  0.3937  0.1364
  203MOL0     N27287   1.847   1.835   0.982  0.8050  0.5356  0.3051
  203MOL0     C27288   1.730   1.766   0.965  0.4766  0.7467  0.5868
  203MOL0     C27289   1.692   1.715   1.085 -0.1184  0.0632  0.1323
  203MOL0     C27290   1.561   1.649   1.102  0.8228  0.4209 -0.4895
  203MOL0     C27291   1.484   1.678   1.227 -0.2018  0.2644  0.1180
  203MOL0     C27292   1.379   1.576   1.254 -0.5826 -0.7291  0.4438
  203MOL0     C27293   1.336   1.570   1.396  0.3247 -0.5231  0.5870
  203MOL0     O27294   1.217   1.487   1.392 -0.2187 -1.1987  0.8372
  203MOL0     C27295   1.129   1.501   1.495  1.0440  0.5657  0.6136
  203MOL0     C27296   1.148   1.472   1.624  0.5721 -0.6498  0.2290
  203MOL0     C27297   1.040   1.464   1.714 -0.7286  0.2002 -0.7092
  203MOL0     C27298   1.077   1.438   1.859  0.7264 -0.1511  0.3541
  203MOL0     C27299   0.911   1.493   1.675 -0.3097 -0.4857  0.7204
  203MOL0     C27300   0.789   1.482   1.758  0.0978  0.1731  0.0215
  203MOL0     O27301   0.790   1.445   1.888  0.0343  0.5197 -0.1856
  203MOL0     C27302   0.679   1.461   1.966 -0.0406 -0.7127  0.0115
  203MOL0     C27303   0.592   1.357   1.974 -0.0636 -0.2297  0.3587
  203MOL0     C27304   0.468   1.374   2.040 -0.2732  0.9634 -0.7668
  203MOL0     C27305   0.431   1.496   2.093 -0.0883 -0.1635 -0.4798
  203MOL0     O27306   0.305   1.519   2.138 -0.1609 -0.2696  0.5735
  203MOL0     C27307   0.306   1.476   2.276  0.1080  0.1641 -0.9314
  203MOL0     C27308   0.164   1.436   2.314  0.6201  0.4522 -0.4051
  203MOL0     C27309   0.134   1.297   2.245 -0.5067  0.4051 -0.5411
  203MOL0     C27310   0.002   1.238   2.301  0.3435 -0.2571  0.3659
  203MOL0     C27311  -0.113   1.318   2.232  0.1315  0.0607 -0.3291
  203MOL0     C27312  -0.247   1.279   2.306  1.2549 -0.1229  0.3441
  203MOL0     C27313  -0.370   1.308   2.219  0.6806 -0.4472  0.7618
  203MOL0     C27314  -0.490   1.251   2.309  0.6426  0.1096  1.4293
  203MOL0    Cl27315  -0.640   1.315   2.239  0.1108 -0.0946 -0.2409
  203MOL0     C27316   0.531   1.598   2.094 -0.7562  0.8096  0.3540
  203MOL0     C27317   0.653   1.575   2.040  0.9664  0.2550  0.1383
  203MOL0     O27318   0.680   1.518   1.701 -0.4160  0.4191 -0.4057
  203MOL0     C27319   0.889   1.539   1.545 -0.2235 -0.8316  1.0892
  203MOL0     C27320   1.000   1.546   1.456  1.4752 -0.2174 -0.0651
  203MOL0     N27321   1.796   1.743   1.180  0.7005  0.0986 -0.4667
  203MOL0     N27322   1.888   1.817   1.114 -0.2313 -0.3077 -0.1130
  203MOL0     C27323   2.858   1.512   0.692  1.0788  0.4470 -0.8133
  203MOL0     C27324   2.981   1.472   0.749  0.3986 -0.6588  0.3826
  203MOL0     C27325   3.330   1.420   0.990  0.5106  0.4928  0.3849
  203MOL0     C27326   3.319   1.473   1.115 -0.8438 -0.1352 -0.0955
  203MOL0     C27327   3.411   1.425   1.213  0.3901  0.7112 -0.8246
  203MOL0     C27328   3.506   1.329   1.183 -0.0871 -0.2360 -0.1692
  203MOL0     O27329   3.600   1.295   1.281  0.5742  0.1925 -0.0034
  203MOL0     C27330   3.680   1.401   1.340 -0.0711  0.0193  0.7704
  203MOL0     C27331   3.779   1.443   1.231  0.1754 -0.0719 -0.6507
  203MOL0     C27332   3.864   1.332   1.177 -1.0563  1.0423  0.1585
  203MOL0     C27333   3.974   1.373   1.071 -0.0226 -0.0399 -0.2376
  203MOL0     C27334   3.922   1.429   0.947 -0.2721  0.4419 -0.6952
  203MOL0     C27335   3.892   1.504   0.855  0.2191  0.1465  0.3511
  203MOL0     C27336   3.522   1.281   1.060 -0.0089  0.0823 -0.4365
  203MOL0     C27337   3.432   1.323   0.962  0.1779  0.5847  1.2885
  203MOL0     H27338   2.914   1.602   1.055  0.1778  3.7738 -1.9338
  203MOL0     H27339   2.684   1.621   0.958 -1.5551  0.4722 -2.8392
  203MOL0     H27340   2.557   1.746   0.753 -2.2353  0.5765 -1.2693
  203MOL0     H27341   2.680   1.748   0.641  0.5382  0.1192  0.6893
  203MOL0     H27342   2.483   1.796   0.526  1.1082 -0.4446 -1.6172
  203MOL0     H27343   2.520   1.646   0.464 -0.7055  0.7843  0.5064
  203MOL0     H27344   2.359   1.528   0.598  1.7475 -0.2890 -2.7300
  203MOL0     H27345   2.320   1.669   0.694  0.9984  0.7310 -0.8673
  203MOL0     H27346   2.249   1.782   0.460  1.7095 -0.5224 -0.5430
  203MOL0     H27347   2.238   1.615   0.408  0.6494  0.4939 -0.5150
  203MOL0     H27348   2.014   1.638   0.510  0.1978 -1.9916  0.9298
  203MOL0     H27349   2.110   1.574   0.641 -0.6050 -0.3334 -0.0897
  203MOL0     H27350   2.156   1.786   0.743  2.5827 -0.7090 -0.7161
  203MOL0     H27351   2.048   1.863   0.623 -2.3852 -1.1758  0.5473
  203MOL0     H27352   1.856   1.730   0.721 -0.2028  1.6814  0.1645
  203MOL0     H27353   1.982   1.666   0.835  3.6942 -1.1308 -1.6237
  203MOL0     H27354   1.872   1.954   0.814  0.1592  1.1103 -0.1429
  203MOL0     H27355   2.023   1.906   0.904 -0.5561 -1.8500  0.6697
  203MOL0     H27356   1.683   1.753   0.868  0.9113  0.5237  0.4000
  203MOL0     H27357   1.507   1.656   1.007 -0.7331 -4.3799 -0.2083
  203MOL0     H27358   1.577   1.541   1.106 -2.9019 -0.2557 -0.2170
  203MOL0     H27359   1.434   1.776   1.226 -0.1657  0.2820  0.0215
  203MOL0     H27360   1.563   1.685   1.302 -2.0744 -1.2279  2.3774
  203MOL0     H27361   1.414   1.474   1.235 -2.0587 -1.1982  0.1542
  203MOL0     H27362   1.297   1.594   1.184  1.3727 -1.4763 -2.2284
  203MOL0     H27363   1.313   1.670   1.435  0.2834  0.0957 -0.9375
  203MOL0     H27364   1.408   1.531   1.468 -0.1441  0.0864  1.4120
  203MOL0     H27365   1.250   1.456   1.655  1.4670  2.6499 -0.6654
  203MOL0     H27366   1.028   1.345   1.889 -2.6492  1.1924 -0.5076
  203MOL0     H27367   1.185   1.430   1.870  0.5108 -1.9572  1.6297
  203MOL0     H27368   1.039   1.516   1.925 -1.9584 -2.2121  1.4515
  203MOL0     H27369   0.613   1.259   1.934  2.0297 -0.1164  1.0825
  203MOL0     H27370   0.393   1.295   2.038  0.5476  0.1790 -1.1420
  203MOL0     H27371   0.373   1.394   2.302 -1.5046 -0.2122  2.5408
  203MOL0     H27372   0.331   1.547   2.355 -5.0706  0.3571  0.8892
  203MOL0     H27373   0.164   1.418   2.422  0.2861 -3.2256 -0.8913
  203MOL0     H27374   0.092   1.514   2.292 -2.3150 -2.0392 -0.2644
  203MOL0     H27375   0.208   1.223   2.277 -0.8230  0.1013 -0.5152
  203MOL0     H27376   0.140   1.293   2.136  0.0742  2.0336 -0.5941
  203MOL0     H27377  -0.012   1.132   2.280 -0.3656 -0.5313  2.0932
  203MOL0     H27378  -0.022   1.250   2.407 -0.6206  0.7264  0.0557
  203MOL0     H27379  -0.101   1.299   2.125 -0.5372  0.1456 -0.4260
  203MOL0     H27380  -0.094   1.426   2.234 -0.4658  0.2870 -2.8896
  203MOL0     H27381  -0.231   1.171   2.315  0.8936 -0.3649 -1.4793
  203MOL0     H27382  -0.247   1.326   2.404 -0.7891  1.6493 -0.4219
  203MOL0     H27383  -0.367   1.246   2.129 -0.3023 -2.2325  1.9124
  203MOL0     H27384  -0.376   1.412   2.184  0.0264 -0.3882  1.0461
  203MOL0     H27385  -0.473   1.297   2.407  2.8317  2.2285  0.1692
  203MOL0     H27386  -0.495   1.142   2.320 -2.0126 -0.1256 -0.9450
  203MOL0     H27387   0.517   1.694   2.142 -2.8986  1.9189 -2.2342
  203MOL0     H27388   0.728   1.654   2.034 -0.3763  1.4967 -1.2625
  203MOL0     H27389   0.794   1.581   1.511 -2.9496 -5.3114  2.2685
  203MOL0     H27390   0.979   1.586   1.357  4.1472 -1.4626 -1.2324
  203MOL0     H27391   2.837   1.510   0.585  4.3186  0.4021 -1.5409
  203MOL0     H27392   3.048   1.411   0.690  1.4309  1.7494 -1.0973
  203MOL0     H27393   3.252   1.543   1.164 -0.3420  0.5028 -0.3076
  203MOL0     H27394   3.393   1.460   1.314  0.8173  2.5474 -1.3351
  203MOL0     H27395   3.623   1.489   1.371 -0.6831  0.0300 -0.3242
  203MOL0     H27396   3.721   1.350   1.428 -0.4961 -0.9505  0.4227
  203MOL0     H27397   3.850   1.517   1.267 -2.4898  2.9275 -1.1007
  203MOL0     H27398   3.725   1.486   1.146  1.4700  2.2736 -0.3557
  203MOL0     H27399   3.798   1.251   1.146  1.3455 -0.4647 -1.2847
  203MOL0     H27400   3.927   1.311   1.264  3.6670  2.2838 -2.6346
  203MOL0     H27401   4.021   1.281   1.034 -1.2215 -1.7167  2.1179
  203MOL0     H27402   4.058   1.431   1.110  0.6321 -1.2612  0.2430
  203MOL0     H27403   3.833   1.558   0.785 -1.7432 -3.3037 -0.8731
  203MOL0     H27404   3.605   1.213   1.039 -1.2936 -2.1126  1.1372
  203MOL0     H27405   3.447   1.286   0.861  2.1600  1.9709  1.0314
  204MOL0     O27406  11.224   8.518  11.336 -0.7838  0.0558  0.8772
  204MOL0     C27407  11.164   8.539  11.230 -0.1167  0.1522 -0.0615
  204MOL0     O27408  11.200   8.493  11.107  0.2872  0.0292 -0.7060
  204MOL0     C27409  11.288   8.390  11.103  1.1717  0.6196 -0.4748
  204MOL0     C27410  11.262   8.262  11.151  0.3627 -0.5212  0.6029
  204MOL0     C27411  11.364   8.168  11.156 -0.8422 -0.0124  0.4644
  204MOL0     C27412  11.492   8.193  11.104  0.2704 -0.8486  0.6489
  204MOL0     O27413  11.597   8.110  11.097  0.3289  0.0186 -0.5163
  204MOL0     C27414  11.570   7.977  11.047  0.2418 -0.4732  0.0526
  204MOL0     C27415  11.704   7.891  11.057  0.2951 -0.9406 -0.5268
  204MOL0     C27416  11.779   7.917  11.195 -0.1042 -0.5570  0.1600
  204MOL0     C27417  11.877   7.802  11.225 -0.4248 -0.2982 -0.2580
  204MOL0     C27418  11.899   7.803  11.371 -0.3865  0.0849 -0.9336
  204MOL0     C27419  12.005   7.694  11.408  0.0822  0.5085  0.1120
  204MOL0     C27420  12.085   7.726  11.535 -1.2699  0.2734  0.4927
  204MOL0     C27421  12.123   7.586  11.587  0.4001 -0.4614  0.2827
  204MOL0     N27422  12.245   7.606  11.659 -0.3256  0.4953 -0.2566
  204MOL0     C27423  12.361   7.530  11.649  0.9778 -0.7400 -0.0667
  204MOL0     C27424  12.428   7.562  11.767 -0.9121 -0.7455 -0.3682
  204MOL0     C27425  12.553   7.519  11.813  0.3498  0.3433 -0.2875
  204MOL0     C27426  12.674   7.610  11.766 -0.6809 -0.6101  0.4492
  204MOL0     C27427  12.768   7.550  11.667  0.2387 -0.2541 -0.7140
  204MOL0     C27428  12.693   7.496  11.539  0.3962 -0.4691 -0.4250
  204MOL0     O27429  12.787   7.462  11.439 -0.6010 -0.0464  0.3565
  204MOL0     C27430  12.828   7.334  11.448  0.4805  0.0605 -0.3853
  204MOL0     C27431  12.964   7.322  11.478 -0.2145  0.2500  0.1648
  204MOL0     C27432  13.026   7.195  11.470  0.2269 -1.4272  0.2442
  204MOL0     C27433  13.174   7.197  11.477 -0.3113 -0.0238 -0.1957
  204MOL0     C27434  12.946   7.081  11.439  0.2606 -0.9870  0.7572
  204MOL0     C27435  12.999   6.956  11.398 -0.0152  0.4751 -0.6497
  204MOL0     O27436  12.907   6.859  11.341  0.3612 -0.4058 -0.2868
  204MOL0     C27437  12.969   6.757  11.272  0.2188  0.6994  0.4738
  204MOL0     C27438  12.970   6.629  11.329  0.5554  0.3694  0.0802
  204MOL0     C27439  13.029   6.519  11.260  0.9447  0.3157 -0.4357
  204MOL0     C27440  13.080   6.538  11.127  0.1565 -0.2052 -0.0034
  204MOL0     O27441  13.129   6.449  11.045  0.0422  0.8074  0.4773
  204MOL0     C27442  13.271   6.450  11.026 -0.5668  0.1523 -1.3524
  204MOL0     C27443  13.308   6.443  10.890 -0.3215 -0.5229  0.2986
  204MOL0     C27444  13.241   6.321  10.812 -0.8172  0.3498 -1.0034
  204MOL0     C27445  13.315   6.272  10.687 -0.7401  0.6157  0.5070
  204MOL0     C27446  13.325   6.114  10.670 -0.4373 -0.2807 -0.5222
  204MOL0     C27447  13.399   6.038  10.773  0.8543 -0.7482 -0.5671
  204MOL0     C27448  13.484   5.907  10.737  1.1258 -0.2884  0.1757
  204MOL0     C27449  13.634   5.941  10.692  0.4328  0.1873 -0.5860
  204MOL0    Cl27450  13.724   5.971  10.842  0.0953  0.0621 -0.0083
  204MOL0     C27451  13.072   6.672  11.070 -0.1855  0.0082 -0.3063
  204MOL0     C27452  13.029   6.774  11.149 -0.1923  0.0500 -0.9039
  204MOL0     O27453  13.123   6.938  11.402 -0.5818 -0.2969 -0.2150
  204MOL0     C27454  12.806   7.101  11.424 -0.3029  0.2920 -1.0985
  204MOL0     C27455  12.744   7.226  11.430  0.5066 -0.6574  0.9569
  204MOL0     N27456  12.362   7.670  11.825 -0.1047 -0.2055  0.1855
  204MOL0     N27457  12.255   7.692  11.770 -0.0070 -0.4023  0.1712
  204MOL0     C27458  11.521   8.326  11.068  0.1458  1.0418  0.2057
  204MOL0     C27459  11.421   8.420  11.073 -0.9900 -0.5043  0.1087
  204MOL0     C27460  11.039   8.615  11.247  1.0590 -0.2469 -0.0783
  204MOL0     C27461  11.024   8.706  11.348 -0.5187 -0.1549  0.4439
  204MOL0     C27462  10.905   8.774  11.380 -0.9285 -0.2083  0.0344
  204MOL0     C27463  10.801   8.751  11.298 -0.2651  0.1374  0.3096
  204MOL0     O27464  10.674   8.812  11.316 -0.7842 -0.6507 -0.0729
  204MOL0     C27465  10.670   8.939  11.382  0.0987  0.1001 -0.3587
  204MOL0     C27466  10.748   9.050  11.318  1.0473  0.0725  0.0919
  204MOL0     C27467  10.723   9.182  11.391  0.1923  0.7619 -0.4261
  204MOL0     C27468  10.737   9.290  11.291 -0.0451 -0.1746  0.6272
  204MOL0     C27469  10.744   9.412  11.360  0.3096 -0.1047 -0.5782
  204MOL0     C27470  10.752   9.523  11.408 -0.3146 -0.3362  0.1464
  204MOL0     C27471  10.798   8.652  11.202 -0.5617  0.5835  0.4907
  204MOL0     C27472  10.924   8.592  11.165 -0.9439  0.6336 -0.0237
  204MOL0     H27473  11.166   8.227  11.187  0.8922 -0.8422  1.7346
  204MOL0     H27474  11.337   8.082  11.218 -0.1661  1.6175  3.1703
  204MOL0     H27475  11.495   7.926  11.108  2.5077 -2.8453  1.0480
  204MOL0     H27476  11.533   7.993  10.945 -1.4089  1.1819  0.8705
  204MOL0     H27477  11.679   7.785  11.045 -1.7723 -0.4771 -0.7472
  204MOL0     H27478  11.771   7.927  10.979  2.2002 -2.1665  0.4581
  204MOL0     H27479  11.829   8.014  11.197  3.6776 -2.2092  4.6847
  204MOL0     H27480  11.701   7.927  11.272 -1.3695 -0.7030 -1.0536
  204MOL0     H27481  11.849   7.701  11.194  0.9941 -0.8223  0.1163
  204MOL0     H27482  11.964   7.822  11.163 -0.6095  2.0193  0.1647
  204MOL0     H27483  11.931   7.904  11.396 -1.0722  1.0671 -3.7006
  204MOL0     H27484  11.814   7.765  11.428  2.1413 -1.8404  1.8410
  204MOL0     H27485  11.951   7.604  11.439  0.9869  0.9365  3.4222
  204MOL0     H27486  12.072   7.680  11.323  1.9486 -0.7727  1.6864
  204MOL0     H27487  12.174   7.780  11.501 -1.0609  1.4335  2.6974
  204MOL0     H27488  12.034   7.782  11.614  2.6399 -1.0839  4.4478
  204MOL0     H27489  12.130   7.505  11.514 -0.3072  0.3339 -0.6900
  204MOL0     H27490  12.043   7.547  11.650 -0.3134 -0.8489 -0.8323
  204MOL0     H27491  12.387   7.461  11.569  0.0850 -1.1449 -0.0143
  204MOL0     H27492  12.554   7.522  11.922 -3.5836  1.8814 -0.1500
  204MOL0     H27493  12.570   7.418  11.774  0.5326  0.5777 -0.8297
  204MOL0     H27494  12.731   7.638  11.855  0.8156 -1.7104 -0.1207
  204MOL0     H27495  12.644   7.699  11.709 -2.0686 -2.1819 -1.3827
  204MOL0     H27496  12.816   7.460  11.707 -0.5677 -1.0402 -1.4395
  204MOL0     H27497  12.834   7.630  11.633 -0.7857  0.2914 -1.5085
  204MOL0     H27498  12.643   7.586  11.504  1.2984  0.4971  0.6840
  204MOL0     H27499  12.623   7.413  11.552  0.9784 -1.5027 -3.2119
  204MOL0     H27500  13.026   7.411  11.482 -0.6280  0.6228 -1.2265
  204MOL0     H27501  13.205   7.154  11.381 -0.0099 -2.1234  0.7833
  204MOL0     H27502  13.221   7.294  11.490  0.9189 -0.7041  0.5921
  204MOL0     H27503  13.193   7.132  11.563 -3.7486 -0.0958  0.6787
  204MOL0     H27504  12.921   6.626  11.426  1.5583  0.9028  0.6216
  204MOL0     H27505  13.036   6.418  11.301  1.7205  1.7892  3.4781
  204MOL0     H27506  13.312   6.538  11.076  1.7603 -1.7535  0.3568
  204MOL0     H27507  13.320   6.371  11.085 -2.1025  1.6626  2.2357
  204MOL0     H27508  13.267   6.529  10.836 -3.5287 -2.5742 -0.8433
  204MOL0     H27509  13.417   6.441  10.878 -0.3806  0.4304 -0.5144
  204MOL0     H27510  13.137   6.344  10.785 -2.7483 -1.7866  3.4707
  204MOL0     H27511  13.238   6.245  10.891  1.0569  2.4834  1.2891
  204MOL0     H27512  13.274   6.321  10.598  4.2668  2.7778 -0.9409
  204MOL0     H27513  13.415   6.317  10.685  0.0300 -1.0364 -0.7863
  204MOL0     H27514  13.377   6.096  10.575 -0.7931  0.4407 -0.8679
  204MOL0     H27515  13.225   6.073  10.652 -0.0883 -1.9775  1.1137
  204MOL0     H27516  13.473   6.097  10.828  1.8102 -1.3019 -1.2289
  204MOL0     H27517  13.318   6.012  10.842 -1.1499 -0.2961 -2.6452
  204MOL0     H27518  13.434   5.849  10.659  1.7384 -3.9878  2.3097
  204MOL0     H27519  13.499   5.841  10.823 -2.4126 -0.2975  0.9799
  204MOL0     H27520  13.643   6.018  10.615  0.5240  0.5502 -0.2173
  204MOL0     H27521  13.683   5.856  10.645  1.4181  1.2587 -1.5632
  204MOL0     H27522  13.102   6.699  10.969  3.0482  2.6169  1.1915
  204MOL0     H27523  13.042   6.876  11.115  2.1458 -0.3339 -1.3166
  204MOL0     H27524  12.747   7.011  11.410  1.7895 -1.1675 -0.9425
  204MOL0     H27525  12.642   7.225  11.393  1.2435  4.2231 -2.0645
  204MOL0     H27526  11.620   8.349  11.031  0.2569 -1.0011 -0.9192
  204MOL0     H27527  11.458   8.522  11.061  2.0035 -1.5881 -0.8555
  204MOL0     H27528  11.108   8.725  11.414 -2.0273 -1.1133  2.7734
  204MOL0     H27529  10.903   8.841  11.465 -0.5365  1.9663 -1.5973
  204MOL0     H27530  10.564   8.962  11.371  0.1553  1.1657  1.1948
  204MOL0     H27531  10.703   8.925  11.485 -0.6008 -0.9422 -0.2605
  204MOL0     H27532  10.729   9.055  11.210 -1.6609 -1.4256  0.4038
  204MOL0     H27533  10.857   9.038  11.320  1.0454  0.1273  0.9307
  204MOL0     H27534  10.804   9.193  11.464  0.5765 -2.5284 -0.1868
  204MOL0     H27535  10.628   9.187  11.445  0.4099  0.6477 -0.0285
  204MOL0     H27536  10.652   9.294  11.223  0.3496  0.8287  0.1766
  204MOL0     H27537  10.822   9.273  11.224  0.0536 -2.4310  1.2381
  204MOL0     H27538  10.755   9.614  11.464  3.2866 -1.8539  2.8760
  204MOL0     H27539  10.710   8.608  11.155 -0.8735  4.2074 -2.9126
  204MOL0     H27540  10.936   8.515  11.089  2.6536 -0.2398  1.2212
  205MOL0     O27541  11.225  10.662   3.042  0.0758  0.8239  0.3880
  205MOL0     C27542  11.169  10.629   2.937  0.0602  0.7086  0.3009
  205MOL0     O27543  11.212  10.674   2.811 -0.0356 -0.0786 -0.3685
  205MOL0     C27544  11.327  10.756   2.815  1.0027 -0.0607 -0.1794
  205MOL0     C27545  11.444  10.701   2.750 -0.0601 -0.9074 -0.3170
  205MOL0     C27546  11.558  10.777   2.761 -0.0694 -1.4026  0.1782
  205MOL0     C27547  11.562  10.903   2.826 -0.7400 -0.5601 -0.0710
  205MOL0     O27548  11.667  10.994   2.825 -0.5874 -1.2322 -1.2758
  205MOL0     C27549  11.805  10.952   2.788 -0.6627 -0.3400 -1.0079
  205MOL0     C27550  11.913  11.064   2.846  0.7784 -0.4688  0.5325
  205MOL0     C27551  11.922  11.071   2.996  0.2390 -0.4752 -0.1960
  205MOL0     C27552  11.987  10.940   3.047 -0.2067 -0.2919  0.6518
  205MOL0     C27553  11.960  10.874   3.187  0.0153  0.0298  1.2649
  205MOL0     C27554  12.023  10.730   3.209  0.0224  0.2820 -0.3136
  205MOL0     C27555  12.012  10.702   3.360 -0.8004  1.0562  0.8332
  205MOL0     C27556  12.039  10.550   3.377 -0.7846  0.0523  1.2870
  205MOL0     N27557  12.176  10.524   3.343  0.2644 -0.7326 -0.3823
  205MOL0     C27558  12.274  10.527   3.435  0.5631  0.1413  0.0232
  205MOL0     C27559  12.383  10.469   3.375 -0.0096  0.1792  0.6874
  205MOL0     C27560  12.508  10.441   3.437 -1.3820 -0.8663 -0.9762
  205MOL0     C27561  12.552  10.297   3.449 -1.1118  0.0329  0.6161
  205MOL0     C27562  12.698  10.303   3.499 -0.5792 -1.0259 -0.3237
  205MOL0     C27563  12.771  10.165   3.496  0.8305 -0.6483  0.4819
  205MOL0     O27564  12.730  10.100   3.613 -0.2562 -0.0483  0.0498
  205MOL0     C27565  12.758   9.965   3.603 -0.3786 -0.3693  0.3814
  205MOL0     C27566  12.655   9.874   3.571  0.0342 -0.4667  0.0008
  205MOL0     C27567  12.676   9.739   3.559  0.6488 -0.9866  0.0857
  205MOL0     C27568  12.560   9.663   3.492 -0.1654 -0.5261 -0.6442
  205MOL0     C27569  12.805   9.684   3.594 -0.2635  0.0812  0.3092
  205MOL0     C27570  12.853   9.544   3.598 -0.2226  0.9770  0.4078
  205MOL0     O27571  12.774   9.444   3.663 -0.0189  0.2246  0.0248
  205MOL0     C27572  12.807   9.314   3.648  0.0111  1.6165 -0.7219
  205MOL0     C27573  12.725   9.230   3.580 -0.5706  0.7798 -0.2105
  205MOL0     C27574  12.759   9.095   3.571 -0.4480 -0.2365 -0.4284
  205MOL0     C27575  12.872   9.036   3.636  0.9204  0.3257 -0.1004
  205MOL0     O27576  12.891   8.900   3.620 -0.5276  0.4529  0.3244
  205MOL0     C27577  13.021   8.865   3.650 -0.0587 -0.1942  1.0550
  205MOL0     C27578  13.051   8.752   3.575  0.2236  0.8271  0.5497
  205MOL0     C27579  13.185   8.707   3.626 -0.4116 -0.1093  0.0812
  205MOL0     C27580  13.245   8.579   3.556 -0.5906 -1.3955  0.3684
  205MOL0     C27581  13.378   8.541   3.615 -0.5065  0.4322 -0.6311
  205MOL0     C27582  13.479   8.495   3.509  1.1945 -0.4437 -0.4452
  205MOL0     C27583  13.616   8.481   3.584  0.1343 -0.1279 -0.4641
  205MOL0     C27584  13.708   8.399   3.498 -0.4004  0.2989 -0.4101
  205MOL0    Cl27585  13.872   8.392   3.552 -0.3330 -0.1655 -1.0890
  205MOL0     C27586  12.942   9.124   3.714  0.4860  0.9369 -0.3465
  205MOL0     C27587  12.916   9.262   3.727 -0.0018  0.0328 -0.1452
  205MOL0     O27588  12.966   9.530   3.558 -0.3842  0.0057 -0.1705
  205MOL0     C27589  12.901   9.778   3.642  0.0141  1.3874 -0.9322
  205MOL0     C27590  12.880   9.918   3.637  0.5696 -0.1516  0.8439
  205MOL0     N27591  12.343  10.412   3.257  0.7334 -0.7895  0.8477
  205MOL0     N27592  12.220  10.445   3.235  0.1782 -0.6137 -0.1773
  205MOL0     C27593  11.443  10.951   2.884  0.5488 -0.2018  0.6124
  205MOL0     C27594  11.325  10.882   2.883 -1.3613  0.1162  0.7498
  205MOL0     C27595  11.052  10.541   2.955  0.2271  0.3668 -0.1756
  205MOL0     C27596  10.982  10.539   3.074 -0.2028 -0.6421 -0.4605
  205MOL0     C27597  10.879  10.449   3.088  0.0585 -0.1935 -0.2740
  205MOL0     C27598  10.830  10.373   2.976  0.4940  0.3280 -0.2639
  205MOL0     O27599  10.722  10.283   2.974 -0.1538 -0.3230 -0.1192
  205MOL0     C27600  10.622  10.272   3.076  0.0380 -0.0121 -0.6518
  205MOL0     C27601  10.543  10.404   3.079 -0.8532  1.4426  0.5028
  205MOL0     C27602  10.460  10.430   2.950 -0.6393 -0.6991  0.2360
  205MOL0     C27603  10.420  10.576   2.942  0.5977  0.1433 -0.0176
  205MOL0     C27604  10.338  10.620   3.053  0.3424 -0.5668  0.6425
  205MOL0     C27605  10.287  10.635   3.162 -0.2144 -0.3288 -0.6573
  205MOL0     C27606  10.889  10.386   2.856  0.9215  0.6949 -0.3290
  205MOL0     C27607  10.995  10.467   2.846 -0.4876 -0.5232  1.2985
  205MOL0     H27608  11.431  10.610   2.692 -0.6745 -0.1181 -1.4436
  205MOL0     H27609  11.646  10.745   2.705 -0.8304 -0.6592 -1.5105
  205MOL0     H27610  11.828  10.857   2.837 -2.3350  1.4273  3.8399
  205MOL0     H27611  11.821  10.945   2.680 -2.1841  2.0910 -1.4735
  205MOL0     H27612  12.010  11.033   2.807  0.0673 -1.9294 -0.1419
  205MOL0     H27613  11.888  11.160   2.799  0.2653 -1.5533 -1.4976
  205MOL0     H27614  11.982  11.159   3.024 -3.2244  1.4234  2.0551
  205MOL0     H27615  11.821  11.087   3.035  0.9711 -1.4615  2.3247
  205MOL0     H27616  11.961  10.864   2.972 -1.5825  0.9190 -0.1513
  205MOL0     H27617  12.093  10.965   3.037 -0.8638  1.9317 -1.7763
  205MOL0     H27618  12.012  10.950   3.246  1.2609 -0.4242  0.7668
  205MOL0     H27619  11.858  10.859   3.223 -0.8513 -0.3901 -1.1658
  205MOL0     H27620  11.972  10.649   3.157  3.7023 -0.4233 -3.2544
  205MOL0     H27621  12.125  10.717   3.171 -0.2764 -2.1976 -0.4590
  205MOL0     H27622  12.095  10.756   3.406  1.7674 -1.6191 -0.2971
  205MOL0     H27623  11.914  10.737   3.391 -1.8076 -1.4224  0.7186
  205MOL0     H27624  11.983  10.483   3.311 -3.4813 -1.1454  4.4835
  205MOL0     H27625  12.014  10.509   3.476 -2.7231  0.8478  1.1605
  205MOL0     H27626  12.264  10.574   3.533 -0.2805  1.3141 -0.5955
  205MOL0     H27627  12.587  10.498   3.387 -1.1077 -1.3307 -1.0858
  205MOL0     H27628  12.497  10.480   3.538  1.7496  0.4814 -1.0196
  205MOL0     H27629  12.562  10.251   3.350  0.8183  0.6755  0.4718
  205MOL0     H27630  12.492  10.241   3.522 -0.5595  0.4312  1.3791
  205MOL0     H27631  12.679  10.346   3.598 -3.6837 -1.4874 -0.6177
  205MOL0     H27632  12.761  10.369   3.439  2.4272 -2.4902  1.0236
  205MOL0     H27633  12.873  10.204   3.488  0.2045  0.7880 -0.9048
  205MOL0     H27634  12.735  10.110   3.409 -1.8571  1.3833  0.1544
  205MOL0     H27635  12.562   9.925   3.548  0.9928  0.6464 -1.5328
  205MOL0     H27636  12.586   9.561   3.461 -0.2616 -0.5553 -0.6289
  205MOL0     H27637  12.482   9.645   3.567 -1.7854  0.4997 -2.0223
  205MOL0     H27638  12.524   9.723   3.409  1.0190 -3.9624 -3.9444
  205MOL0     H27639  12.641   9.268   3.522 -0.1628  3.5518  0.8712
  205MOL0     H27640  12.692   9.034   3.511 -2.5698  2.6159 -1.1827
  205MOL0     H27641  13.091   8.942   3.616  0.3726 -0.5708  1.0772
  205MOL0     H27642  13.037   8.848   3.757 -2.8071 -2.4749  1.2039
  205MOL0     H27643  12.971   8.677   3.564  1.9958 -1.2278  0.9929
  205MOL0     H27644  13.063   8.789   3.472  0.4883  2.5793  1.1734
  205MOL0     H27645  13.177   8.683   3.732 -0.0448 -0.1968  0.0910
  205MOL0     H27646  13.256   8.788   3.609 -0.5511  0.4965  2.1558
  205MOL0     H27647  13.184   8.489   3.571 -1.5900 -1.0939 -1.5300
  205MOL0     H27648  13.256   8.592   3.448  0.2146  1.4596  0.7205
  205MOL0     H27649  13.360   8.449   3.671 -1.0761  0.9234  0.0082
  205MOL0     H27650  13.414   8.616   3.686  1.2888  0.0013 -1.0478
  205MOL0     H27651  13.447   8.407   3.454 -0.1242 -1.8049  2.2787
  205MOL0     H27652  13.477   8.570   3.430  0.2196  1.8194  1.5878
  205MOL0     H27653  13.594   8.432   3.679 -1.9671  1.9366  0.1943
  205MOL0     H27654  13.655   8.577   3.618 -0.3442  0.5971 -1.8762
  205MOL0     H27655  13.712   8.435   3.395 -0.0775  1.1879 -0.1021
  205MOL0     H27656  13.670   8.297   3.512 -2.2740  1.0111 -0.0624
  205MOL0     H27657  13.028   9.090   3.771 -0.9678 -0.4284  1.1344
  205MOL0     H27658  12.971   9.333   3.788 -1.9020 -1.3567  3.4942
  205MOL0     H27659  12.994   9.743   3.685 -0.0042  2.9453  0.4872
  205MOL0     H27660  12.959   9.989   3.660 -0.9912  0.6874  4.2786
  205MOL0     H27661  11.441  11.055   2.914  2.3259 -0.9516  3.7483
  205MOL0     H27662  11.240  10.944   2.908  0.0262  2.2437  0.3995
  205MOL0     H27663  11.012  10.603   3.156 -0.7903  1.0402 -1.5070
  205MOL0     H27664  10.848  10.430   3.190  1.1599  0.0780  0.1350
  205MOL0     H27665  10.557  10.190   3.045  2.4945 -2.5245  0.4592
  205MOL0     H27666  10.678  10.243   3.166  0.4450 -1.2070 -1.2606
  205MOL0     H27667  10.622  10.479   3.093  0.6332  0.0966 -0.3514
  205MOL0     H27668  10.473  10.395   3.163 -3.8118 -2.5147 -2.0157
  205MOL0     H27669  10.366  10.376   2.967 -1.4595  0.4829 -0.4648
  205MOL0     H27670  10.516  10.392   2.865  0.7919  1.5876  0.0778
  205MOL0     H27671  10.371  10.577   2.844  2.1409  0.3597 -0.8178
  205MOL0     H27672  10.516  10.628   2.942  1.8251 -1.8834  2.5394
  205MOL0     H27673  10.244  10.637   3.260 -1.1934 -3.1025 -0.9469
  205MOL0     H27674  10.843  10.331   2.774 -0.1871  2.7406 -1.1735
  205MOL0     H27675  11.045  10.466   2.750  0.4812 -0.1779  1.7880
  206MOL0     O27676   7.708   5.946  10.744  0.1673 -0.0514 -1.3021
  206MOL0     C27677   7.773   5.947  10.638 -0.7010 -0.1462 -0.0686
  206MOL0     O27678   7.893   6.010  10.617 -1.2561  0.0744  0.0805
  206MOL0     C27679   7.945   6.097  10.706  0.2699  0.2708  0.7003
  206MOL0     C27680   7.967   6.230  10.678 -0.4300  0.6639  1.2788
  206MOL0     C27681   8.042   6.305  10.765 -0.3178  0.2993 -0.8060
  206MOL0     C27682   8.078   6.271  10.894  0.2196 -0.0516 -0.2532
  206MOL0     O27683   8.160   6.345  10.975  0.2181 -0.5175 -0.0185
  206MOL0     C27684   8.158   6.482  10.935 -0.6554 -0.0507 -0.8255
  206MOL0     C27685   8.227   6.550  11.055  0.0753 -0.0600  0.3922
  206MOL0     C27686   8.308   6.684  11.022 -0.2638  0.7915  0.2228
  206MOL0     C27687   8.457   6.665  11.029 -0.0836  0.5503 -0.0731
  206MOL0     C27688   8.532   6.791  11.031 -0.3482 -0.3608  0.5409
  206MOL0     C27689   8.678   6.759  11.068 -0.3213 -0.2931 -0.0605
  206MOL0     C27690   8.749   6.679  10.954  0.3646  0.4505 -0.3341
  206MOL0     C27691   8.905   6.664  10.971 -0.2740 -0.1608  0.1620
  206MOL0     N27692   8.941   6.636  11.111 -0.2140 -0.8649 -0.1140
  206MOL0     C27693   8.994   6.724  11.206 -0.6494  0.2339  0.6486
  206MOL0     C27694   8.991   6.647  11.320  0.7123  0.0077 -0.4296
  206MOL0     C27695   9.025   6.694  11.457  0.8794 -0.4289 -0.1615
  206MOL0     C27696   8.908   6.768  11.528  0.0271  0.0258  0.3735
  206MOL0     C27697   8.959   6.852  11.644 -0.2525  0.2668 -0.3256
  206MOL0     C27698   9.014   6.763  11.753  0.0434  0.1800 -0.3984
  206MOL0     O27699   9.086   6.832  11.856 -0.0346 -0.3439  0.3923
  206MOL0     C27700   9.008   6.874  11.959  1.0179 -0.3458  0.3764
  206MOL0     C27701   8.970   6.778  12.056 -0.5641  0.4522  0.3086
  206MOL0     C27702   8.905   6.820  12.175  0.3237  0.5837 -0.0009
  206MOL0     C27703   8.866   6.698  12.269  0.4011 -0.5515  0.3235
  206MOL0     C27704   8.850   6.955  12.175  0.3138 -0.2635 -0.2461
  206MOL0     C27705   8.777   7.014  12.296  0.5392 -0.1088 -0.3909
  206MOL0     O27706   8.725   7.143  12.284 -0.6415 -0.6548  0.4466
  206MOL0     C27707   8.685   7.214  12.394  0.0083 -0.1504  0.9813
  206MOL0     C27708   8.613   7.163  12.500  0.5596 -0.1660 -0.2248
  206MOL0     C27709   8.586   7.253  12.615 -0.4668  0.3803 -0.2634
  206MOL0     C27710   8.622   7.387  12.620  0.6275  0.3067 -0.5119
  206MOL0     O27711   8.597   7.467  12.725 -0.0447 -0.4519  0.8206
  206MOL0     C27712   8.513   7.433  12.839 -0.4673  0.1137  0.5339
  206MOL0     C27713   8.590   7.340  12.940  0.8889 -0.9920  0.7159
  206MOL0     C27714   8.483   7.311  13.048 -0.8242  0.2762 -1.0454
  206MOL0     C27715   8.546   7.296  13.183 -0.2657 -0.3026 -0.3788
  206MOL0     C27716   8.437   7.275  13.289 -0.7593  0.7573 -0.5193
  206MOL0     C27717   8.493   7.299  13.433 -0.0367 -0.4730 -0.1621
  206MOL0     C27718   8.370   7.335  13.527 -0.2171 -0.6970  0.1786
  206MOL0     C27719   8.381   7.276  13.664 -0.0207  1.2543 -0.5412
  206MOL0    Cl27720   8.500   7.371  13.764  0.1352  0.0762 -0.1768
  206MOL0     C27721   8.700   7.429  12.513 -0.1138 -0.1698 -0.1984
  206MOL0     C27722   8.731   7.349  12.400  0.3883 -0.2196  0.0853
  206MOL0     O27723   8.774   6.944  12.397 -0.6760 -0.0728 -0.8041
  206MOL0     C27724   8.891   7.049  12.083 -0.8453 -0.4727 -0.4805
  206MOL0     C27725   8.968   7.005  11.982  0.2491  0.0776  0.2273
  206MOL0     N27726   8.956   6.518  11.290 -0.3020 -0.2663  0.1585
  206MOL0     N27727   8.923   6.511  11.164 -0.5916  0.3366 -0.1019
  206MOL0     C27728   8.050   6.132  10.928  0.5401  0.2189  0.9766
  206MOL0     C27729   7.992   6.046  10.829  0.4790  0.0806 -0.2619
  206MOL0     C27730   7.719   5.891  10.505  0.4579  0.4580 -0.2177
  206MOL0     C27731   7.600   5.809  10.505 -0.0336 -0.9715  1.0665
  206MOL0     C27732   7.564   5.746  10.381  0.5726  0.6833 -0.8755
  206MOL0     C27733   7.623   5.778  10.258 -0.7038 -1.0491  0.2853
  206MOL0     O27734   7.596   5.711  10.146 -0.0438  0.1561  1.0168
  206MOL0     C27735   7.545   5.787  10.040 -0.5322  0.7887 -0.3497
  206MOL0     C27736   7.469   5.686   9.944  0.4600  0.6622 -0.0572
  206MOL0     C27737   7.347   5.611   9.996  0.2001  0.3766  0.2447
  206MOL0     C27738   7.238   5.712  10.057  0.0681 -0.2101 -0.1040
  206MOL0     C27739   7.098   5.669  10.033 -0.5780  0.9898  0.0198
  206MOL0     C27740   6.989   5.617  10.010  0.1506 -0.0364 -0.0957
  206MOL0     C27741   7.711   5.880  10.258  0.2818  0.4327 -0.3514
  206MOL0     C27742   7.761   5.933  10.381  0.4325 -0.0125 -0.4607
  206MOL0     H27743   7.947   6.264  10.577 -2.1641  1.1290  1.7420
  206MOL0     H27744   8.072   6.405  10.733 -2.2871  0.2595 -2.9777
  206MOL0     H27745   8.222   6.502  10.849  0.6184 -1.8775 -0.3642
  206MOL0     H27746   8.056   6.521  10.928 -1.2696 -1.7663 -1.9318
  206MOL0     H27747   8.147   6.568  11.128  2.0139  1.2924  2.3258
  206MOL0     H27748   8.300   6.481  11.097  1.1443 -2.4300 -4.5846
  206MOL0     H27749   8.284   6.722  10.922 -2.7214 -0.4779  0.2733
  206MOL0     H27750   8.272   6.761  11.091 -3.6815  0.7963 -1.3644
  206MOL0     H27751   8.489   6.612  11.119 -0.6009 -1.5396 -1.0647
  206MOL0     H27752   8.485   6.610  10.939  1.3316  1.7259 -0.3793
  206MOL0     H27753   8.519   6.833  10.931 -2.1283 -0.3271  0.7669
  206MOL0     H27754   8.498   6.868  11.101 -0.9069  0.9722 -1.1397
  206MOL0     H27755   8.736   6.849  11.090 -1.8660  0.6137  0.4950
  206MOL0     H27756   8.682   6.695  11.157  2.8139  0.6002  0.5465
  206MOL0     H27757   8.703   6.581  10.971 -3.1516  2.1885  1.4888
  206MOL0     H27758   8.735   6.714  10.851  0.5464 -0.7226 -0.7681
  206MOL0     H27759   8.956   6.752  10.932 -0.4587 -0.2608 -0.3044
  206MOL0     H27760   8.941   6.584  10.905  0.1361  2.4474 -2.9843
  206MOL0     H27761   9.022   6.829  11.206  1.1695 -0.2240  0.7651
  206MOL0     H27762   9.062   6.602  11.505  1.1043 -0.1865  0.1337
  206MOL0     H27763   9.114   6.758  11.460  0.6064  0.2852 -3.5928
  206MOL0     H27764   8.853   6.692  11.585  0.3985 -2.0658 -1.8929
  206MOL0     H27765   8.840   6.821  11.460  0.2897 -1.1276 -0.8369
  206MOL0     H27766   8.870   6.902  11.682 -1.5225 -2.3870  0.3847
  206MOL0     H27767   9.037   6.922  11.610  0.5506 -0.3699  0.1545
  206MOL0     H27768   9.084   6.688  11.714 -2.2552 -2.3393  0.0134
  206MOL0     H27769   8.930   6.703  11.789 -0.2557 -1.0094 -2.9007
  206MOL0     H27770   9.013   6.680  12.039  2.3751  1.4365  1.4821
  206MOL0     H27771   8.869   6.720  12.376  0.4612 -0.7754  0.3676
  206MOL0     H27772   8.761   6.684  12.241  0.4426  1.9287 -1.3873
  206MOL0     H27773   8.935   6.615  12.252  1.1253 -0.1167  1.1093
  206MOL0     H27774   8.589   7.057  12.497  3.0873 -0.8263  0.3768
  206MOL0     H27775   8.542   7.209  12.704 -0.3236 -0.0361 -0.3991
  206MOL0     H27776   8.478   7.527  12.884 -1.2460  0.6513 -1.1305
  206MOL0     H27777   8.425   7.384  12.798  1.0932  0.6231 -4.0139
  206MOL0     H27778   8.625   7.245  12.897 -0.1967 -1.1633  0.1691
  206MOL0     H27779   8.678   7.395  12.975  0.9838 -1.3588  1.0602
  206MOL0     H27780   8.442   7.211  13.030  2.8275 -1.0131 -3.2218
  206MOL0     H27781   8.401   7.383  13.037 -2.8147 -1.9438 -1.5665
  206MOL0     H27782   8.616   7.213  13.189 -0.0315 -0.0706  0.2584
  206MOL0     H27783   8.609   7.382  13.207  1.0087 -1.5374  0.8955
  206MOL0     H27784   8.389   7.177  13.297 -0.9986  1.0153  2.1518
  206MOL0     H27785   8.354   7.344  13.270  0.2917  1.6580 -2.0988
  206MOL0     H27786   8.551   7.211  13.461 -1.1291 -1.4735 -0.9531
  206MOL0     H27787   8.561   7.385  13.426 -1.1752  0.4578 -0.1459
  206MOL0     H27788   8.281   7.295  13.477 -1.2555  0.1203  1.3096
  206MOL0     H27789   8.365   7.444  13.536  1.1229 -0.7424  2.3478
  206MOL0     H27790   8.409   7.171  13.663 -1.3434  0.8663 -2.2528
  206MOL0     H27791   8.279   7.291  13.700 -0.6465  1.8981 -2.4511
  206MOL0     H27792   8.749   7.525  12.517  0.2182 -0.2670 -1.5417
  206MOL0     H27793   8.801   7.386  12.326  0.2381  0.8130  0.4389
  206MOL0     H27794   8.866   7.154  12.092  0.3500 -0.3084  1.4561
  206MOL0     H27795   9.014   7.090  11.932 -1.3649  1.2101  0.5624
  206MOL0     H27796   8.079   6.092  11.025 -0.4503  1.3432  1.7676
  206MOL0     H27797   7.973   5.942  10.856 -2.3719  1.3056  3.0792
  206MOL0     H27798   7.549   5.792  10.600 -1.7946 -0.5377  0.2296
  206MOL0     H27799   7.497   5.660  10.393 -0.2201  1.6249  2.9847
  206MOL0     H27800   7.493   5.880  10.064  0.2533  0.5872  2.3787
  206MOL0     H27801   7.635   5.825   9.990  0.8262  1.4458  2.4092
  206MOL0     H27802   7.546   5.616   9.910  1.7031  2.3193 -0.8182
  206MOL0     H27803   7.429   5.725   9.850 -1.6862  1.9377  1.2893
  206MOL0     H27804   7.382   5.536  10.068 -0.9825  0.4608  0.9209
  206MOL0     H27805   7.307   5.558   9.910 -1.0409 -0.4544  1.3001
  206MOL0     H27806   7.244   5.812  10.012  2.5874 -1.2170 -2.1982
  206MOL0     H27807   7.249   5.724  10.166 -0.3254  2.7884 -0.3100
  206MOL0     H27808   6.909   5.546   9.997  1.3026 -1.4243  0.0719
  206MOL0     H27809   7.754   5.918  10.167 -0.0137 -2.9971 -2.0842
  206MOL0     H27810   7.819   6.024  10.371 -1.6913  1.3781 -0.7592
  207MOL0     O27811   8.125   4.242   8.108  0.1998  0.3625 -0.6922
  207MOL0     C27812   8.218   4.208   8.188  0.5711  0.1131  0.4562
  207MOL0     O27813   8.282   4.091   8.191 -0.2115  0.8770  0.9694
  207MOL0     C27814   8.242   3.978   8.118  0.0800 -0.1289  0.9332
  207MOL0     C27815   8.134   3.950   8.030 -0.2625  0.5645 -0.0401
  207MOL0     C27816   8.124   3.823   7.970  0.1302  0.9408  0.2905
  207MOL0     C27817   8.213   3.723   7.993 -0.9849 -0.2908  0.0069
  207MOL0     O27818   8.189   3.594   7.962 -0.0914 -0.1745 -0.6441
  207MOL0     C27819   8.080   3.542   8.029  0.5759 -1.2427 -0.3486
  207MOL0     C27820   8.033   3.419   7.958  0.3224  0.6301 -0.0239
  207MOL0     C27821   8.100   3.276   7.991 -0.3086 -0.3240 -0.5292
  207MOL0     C27822   8.105   3.192   7.858 -0.3357  0.5326  0.3220
  207MOL0     C27823   8.116   3.037   7.880 -0.7642 -0.5397  0.0131
  207MOL0     C27824   8.250   2.994   7.934 -0.6229  0.4606  0.4468
  207MOL0     C27825   8.279   2.847   7.910 -0.2203  0.5665 -1.0312
  207MOL0     C27826   8.425   2.796   7.935  1.0013 -0.5612 -1.3409
  207MOL0     N27827   8.468   2.825   8.075 -0.3700  0.4511 -0.5237
  207MOL0     C27828   8.511   2.727   8.157  0.0924  0.6665 -0.7362
  207MOL0     C27829   8.570   2.777   8.260 -0.5581 -0.9216  0.0315
  207MOL0     C27830   8.630   2.705   8.376 -0.7788 -0.6631 -0.6617
  207MOL0     C27831   8.530   2.647   8.467  0.2419  0.3133  0.5145
  207MOL0     C27832   8.423   2.753   8.502 -1.1007  0.0615 -0.0897
  207MOL0     C27833   8.334   2.691   8.614 -0.5481 -1.1040  0.1905
  207MOL0     O27834   8.201   2.744   8.611  0.5179 -0.7575 -0.2232
  207MOL0     C27835   8.115   2.701   8.706  0.4733  0.0679 -0.0420
  207MOL0     C27836   8.168   2.655   8.832 -0.2536 -0.4810  0.1372
  207MOL0     C27837   8.081   2.625   8.937 -0.1828  1.0163 -0.3309
  207MOL0     C27838   8.147   2.573   9.061 -0.4646 -0.9117  0.0895
  207MOL0     C27839   7.944   2.635   8.926  0.7865 -0.3865  0.2797
  207MOL0     C27840   7.838   2.616   9.029 -0.1719  0.7688 -0.1544
  207MOL0     O27841   7.717   2.663   9.002 -0.8757 -0.1245  0.9826
  207MOL0     C27842   7.605   2.628   9.074  0.5403  0.9648 -0.0102
  207MOL0     C27843   7.597   2.634   9.219 -0.2560  0.1946 -0.9531
  207MOL0     C27844   7.476   2.611   9.277 -0.2017  0.4269  0.5340
  207MOL0     C27845   7.366   2.564   9.205  0.3363 -0.6063 -0.6637
  207MOL0     O27846   7.251   2.536   9.281  0.5538  0.7661 -0.3325
  207MOL0     C27847   7.122   2.541   9.217 -0.2417  0.8245 -0.5224
  207MOL0     C27848   7.068   2.394   9.179  0.2159  0.2317  0.4855
  207MOL0     C27849   7.045   2.301   9.306 -0.7896 -0.3507 -0.3184
  207MOL0     C27850   7.109   2.168   9.257 -0.8670  0.7065  0.3279
  207MOL0     C27851   7.059   2.055   9.346 -0.3712 -0.5880 -0.2833
  207MOL0     C27852   7.076   1.920   9.262  0.1020 -0.0327 -0.1678
  207MOL0     C27853   7.223   1.881   9.234  1.0162 -1.1364 -0.5934
  207MOL0     C27854   7.295   1.842   9.355  0.1538  0.2741  0.2898
  207MOL0    Cl27855   7.220   1.693   9.419  0.2593 -0.4767 -0.3407
  207MOL0     C27856   7.383   2.540   9.064  0.4346 -0.5433  0.6921
  207MOL0     C27857   7.503   2.580   8.998  0.5405 -0.6044  0.0323
  207MOL0     O27858   7.866   2.537   9.127  0.0057 -0.5806  0.4628
  207MOL0     C27859   7.895   2.672   8.794 -0.4936 -1.3417 -0.2043
  207MOL0     C27860   7.980   2.705   8.680 -0.2857  0.2226  0.6832
  207MOL0     N27861   8.574   2.914   8.242 -0.1282  0.0665 -0.0138
  207MOL0     N27862   8.499   2.941   8.137  0.1154 -0.2386 -0.2663
  207MOL0     C27863   8.315   3.749   8.091 -0.1175  0.7582  0.0373
  207MOL0     C27864   8.319   3.870   8.159 -0.4386  0.0824  0.3154
  207MOL0     C27865   8.267   4.316   8.273  0.0545  0.3566 -0.7073
  207MOL0     C27866   8.388   4.311   8.339  0.3247  1.3045 -0.5741
  207MOL0     C27867   8.437   4.415   8.422  0.8466 -0.0185 -0.3428
  207MOL0     C27868   8.355   4.519   8.454 -0.0488 -0.3269 -0.5930
  207MOL0     O27869   8.407   4.607   8.544  0.1043 -0.0397 -0.6783
  207MOL0     C27870   8.354   4.744   8.557  0.2895  0.7466 -0.2285
  207MOL0     C27871   8.329   4.763   8.708  0.0784 -0.5800  0.6248
  207MOL0     C27872   8.332   4.907   8.763 -1.0329 -0.1047  0.3285
  207MOL0     C27873   8.452   4.992   8.718 -0.1205  0.0632 -0.9071
  207MOL0     C27874   8.577   4.920   8.759 -0.4035 -0.3847  0.2360
  207MOL0     C27875   8.671   4.868   8.813 -0.4754 -0.3486  0.5121
  207MOL0     C27876   8.225   4.513   8.407 -0.8058  0.2805  0.7879
  207MOL0     C27877   8.181   4.411   8.320 -0.5013  0.7667 -0.0147
  207MOL0     H27878   8.072   4.031   7.992 -0.4509  0.1100 -0.7199
  207MOL0     H27879   8.039   3.797   7.909  0.8609 -2.1885  0.4430
  207MOL0     H27880   8.099   3.529   8.136  1.4939 -1.9324 -0.5862
  207MOL0     H27881   7.991   3.603   8.015  0.1317 -2.4059 -3.2054
  207MOL0     H27882   7.924   3.416   7.965  0.1783  0.4635 -1.8645
  207MOL0     H27883   8.057   3.438   7.853 -0.9596  2.0940 -0.0794
  207MOL0     H27884   8.198   3.276   8.039 -1.7857 -0.3603  2.7895
  207MOL0     H27885   8.026   3.226   8.054 -3.0442 -2.3396 -4.9108
  207MOL0     H27886   8.010   3.206   7.806 -0.4973 -3.2252 -0.6919
  207MOL0     H27887   8.184   3.231   7.793  0.2742  0.9812  1.3070
  207MOL0     H27888   8.033   3.005   7.943 -3.0253 -1.2655 -3.1044
  207MOL0     H27889   8.092   2.995   7.782 -2.4800  1.5785 -0.5514
  207MOL0     H27890   8.325   3.054   7.881 -0.4492  0.8044  1.0809
  207MOL0     H27891   8.266   3.021   8.039  2.8515  0.7536 -0.0208
  207MOL0     H27892   8.216   2.792   7.980  1.0666  0.3488 -0.0083
  207MOL0     H27893   8.252   2.819   7.807 -0.3236 -1.3122 -0.5252
  207MOL0     H27894   8.486   2.868   7.880  1.3169  2.2507  2.3218
  207MOL0     H27895   8.446   2.698   7.893 -0.9649 -1.4843 -0.3092
  207MOL0     H27896   8.502   2.621   8.135  2.7270  0.1627  0.1608
  207MOL0     H27897   8.692   2.620   8.346 -0.5081 -0.7916  0.2280
  207MOL0     H27898   8.695   2.776   8.428 -0.7113 -1.2583  0.0827
  207MOL0     H27899   8.585   2.607   8.553  2.6961 -0.5176 -1.3168
  207MOL0     H27900   8.477   2.563   8.421 -2.2287  2.1494 -0.2182
  207MOL0     H27901   8.359   2.791   8.422  1.5628  0.9614 -1.9606
  207MOL0     H27902   8.474   2.840   8.545  1.9712 -1.7311  0.1800
  207MOL0     H27903   8.381   2.722   8.708 -2.2089  4.1689 -0.4057
  207MOL0     H27904   8.336   2.582   8.603  5.2344 -1.5990  2.7036
  207MOL0     H27905   8.272   2.635   8.856 -1.1756 -5.3164  1.1149
  207MOL0     H27906   8.107   2.473   9.081  1.3276 -1.6713  0.0802
  207MOL0     H27907   8.256   2.558   9.059  0.1236  1.0863  4.6654
  207MOL0     H27908   8.132   2.641   9.145  1.5688  0.0326 -0.2575
  207MOL0     H27909   7.679   2.653   9.287 -0.4447 -0.2966 -0.5759
  207MOL0     H27910   7.471   2.617   9.385 -1.4411  2.3094  0.4208
  207MOL0     H27911   7.045   2.584   9.282 -2.7939 -1.0949 -2.0720
  207MOL0     H27912   7.123   2.599   9.124 -0.0979  0.1933 -0.9228
  207MOL0     H27913   6.984   2.409   9.111 -0.4583  0.1748  1.2931
  207MOL0     H27914   7.154   2.362   9.118  0.3236 -0.9627  1.2296
  207MOL0     H27915   6.939   2.289   9.327 -0.9050  0.1797 -0.5786
  207MOL0     H27916   7.090   2.350   9.393 -0.6680  1.3621 -1.2886
  207MOL0     H27917   7.065   2.144   9.160  0.5440 -1.5507  0.1670
  207MOL0     H27918   7.218   2.173   9.267 -0.9202 -0.3485  1.7002
  207MOL0     H27919   6.951   2.051   9.366 -0.3402 -1.5189 -0.2836
  207MOL0     H27920   7.117   2.064   9.438 -4.4003  3.5515  2.2689
  207MOL0     H27921   7.014   1.840   9.302 -0.5869 -0.5130 -2.0540
  207MOL0     H27922   7.036   1.931   9.160  0.9767  2.6530 -0.3204
  207MOL0     H27923   7.279   1.967   9.196 -0.3939  1.4686  2.7344
  207MOL0     H27924   7.224   1.807   9.154 -2.2388 -1.0860 -0.8293
  207MOL0     H27925   7.282   1.916   9.434 -1.7797  1.2286 -0.8612
  207MOL0     H27926   7.402   1.829   9.333  0.4562 -0.1441  1.8805
  207MOL0     H27927   7.301   2.511   9.000  1.3549 -0.7061 -0.4403
  207MOL0     H27928   7.512   2.574   8.890 -0.4469  0.1138 -0.1094
  207MOL0     H27929   7.792   2.683   8.762 -0.6052  1.1722  0.8097
  207MOL0     H27930   7.935   2.716   8.581  0.6599  0.3566  0.2565
  207MOL0     H27931   8.372   3.664   8.127 -2.2733 -0.9973 -0.4850
  207MOL0     H27932   8.394   3.879   8.237  0.5756 -3.3472 -0.0562
  207MOL0     H27933   8.450   4.224   8.321 -3.0935 -1.9737  2.0043
  207MOL0     H27934   8.534   4.420   8.471  0.0481 -2.2942  1.6655
  207MOL0     H27935   8.442   4.800   8.526  1.6372 -0.5305  1.1419
  207MOL0     H27936   8.266   4.764   8.496  1.8432 -0.8000 -3.1686
  207MOL0     H27937   8.385   4.693   8.771 -0.4601 -1.9543 -0.3797
  207MOL0     H27938   8.226   4.733   8.724 -0.0529 -0.9793 -0.8291
  207MOL0     H27939   8.326   4.918   8.872 -0.1272 -3.1566  0.7686
  207MOL0     H27940   8.243   4.961   8.730 -1.5017 -0.0984  1.5593
  207MOL0     H27941   8.447   5.098   8.744  3.1583 -0.5765  3.4037
  207MOL0     H27942   8.456   4.992   8.609  2.0339 -0.7347 -0.8608
  207MOL0     H27943   8.758   4.819   8.850 -0.4238 -1.1492 -0.6081
  207MOL0     H27944   8.148   4.583   8.439 -0.0609  0.8782  1.3059
  207MOL0     H27945   8.075   4.409   8.295 -0.2742 -3.2854 -1.2338
  208MOL0     O27946   4.338   5.925   2.046 -0.4411  0.2916 -0.1974
  208MOL0     C27947   4.433   5.865   1.986  0.1236  0.2756 -0.0132
  208MOL0     O27948   4.476   5.888   1.864  0.2886  0.0928  0.3996
  208MOL0     C27949   4.408   5.973   1.786  0.5246  0.9328  0.9696
  208MOL0     C27950   4.392   6.104   1.813  0.9491  1.4827  0.0819
  208MOL0     C27951   4.320   6.206   1.742 -0.2088  0.7486 -0.8183
  208MOL0     C27952   4.247   6.162   1.636  0.5116  0.5574 -0.3160
  208MOL0     O27953   4.147   6.232   1.569  0.1096 -0.4608 -0.1587
  208MOL0     C27954   4.064   6.321   1.647  0.8968 -0.1620 -0.0936
  208MOL0     C27955   3.927   6.325   1.586 -0.2237  0.0927 -0.6755
  208MOL0     C27956   3.858   6.190   1.611 -0.6354 -0.0830 -0.0522
  208MOL0     C27957   3.737   6.168   1.517  0.5205 -0.4998 -0.1164
  208MOL0     C27958   3.613   6.267   1.540  0.6296 -0.4043 -1.2342
  208MOL0     C27959   3.483   6.236   1.468  0.9980 -0.5832  1.1523
  208MOL0     C27960   3.450   6.331   1.356  1.1721 -1.0343  0.9594
  208MOL0     C27961   3.538   6.311   1.231  0.1739  0.5443 -0.1875
  208MOL0     N27962   3.508   6.394   1.117 -0.5082  1.3965 -0.1379
  208MOL0     C27963   3.485   6.529   1.112  0.2494 -0.2649  0.6039
  208MOL0     C27964   3.472   6.564   0.986  0.4023  0.5811 -0.1447
  208MOL0     C27965   3.456   6.699   0.945 -0.9421 -1.1101  0.1002
  208MOL0     C27966   3.596   6.775   0.943 -0.5813  0.5966  1.0969
  208MOL0     C27967   3.682   6.716   0.829 -0.4029  0.4395  0.4380
  208MOL0     C27968   3.826   6.753   0.853  0.1720  0.4893  1.3616
  208MOL0     O27969   3.859   6.888   0.810  0.0998  0.3270  0.5534
  208MOL0     C27970   3.989   6.913   0.776 -0.1957  0.0896  0.5186
  208MOL0     C27971   4.078   6.817   0.738  1.5452 -0.1386 -1.0206
  208MOL0     C27972   4.206   6.840   0.694 -1.3767  0.3744  0.3291
  208MOL0     C27973   4.293   6.725   0.660  0.0109  0.3642 -0.5160
  208MOL0     C27974   4.253   6.978   0.692  0.1812  1.1272 -0.2886
  208MOL0     C27975   4.398   7.010   0.660 -0.0039  0.7902 -0.8195
  208MOL0     O27976   4.405   7.127   0.613 -0.5269 -0.0985 -0.6600
  208MOL0     C27977   4.530   7.165   0.569 -0.1901  0.3984  0.5325
  208MOL0     C27978   4.584   7.124   0.447 -0.3074 -0.2813  0.2856
  208MOL0     C27979   4.722   7.158   0.410 -0.0068  0.3901 -0.6437
  208MOL0     C27980   4.796   7.236   0.498 -0.5081 -1.0423  0.2059
  208MOL0     O27981   4.932   7.251   0.489 -0.3691 -0.1204  0.2078
  208MOL0     C27982   4.996   7.230   0.359  0.7621 -0.0245 -0.6408
  208MOL0     C27983   5.153   7.252   0.353  0.5856 -0.6150  0.5077
  208MOL0     C27984   5.205   7.181   0.231 -0.2629 -0.6663  0.0400
  208MOL0     C27985   5.353   7.196   0.250  0.4586  0.5407  0.7460
  208MOL0     C27986   5.436   7.128   0.140  0.0669 -0.1349 -0.7834
  208MOL0     C27987   5.592   7.120   0.168  0.0707 -0.3677  0.0030
  208MOL0     C27988   5.686   7.079   0.050  0.5196  0.1026 -1.1687
  208MOL0     C27989   5.823   7.025   0.101  0.1469  0.5543  1.2661
  208MOL0    Cl27990   5.909   7.152   0.193  0.4039  0.0803  0.1058
  208MOL0     C27991   4.738   7.295   0.616 -0.1339  0.2613  1.0774
  208MOL0     C27992   4.599   7.258   0.650 -0.1260 -0.8251  0.6059
  208MOL0     O27993   4.494   6.933   0.671  0.1707  0.1987  0.8304
  208MOL0     C27994   4.155   7.077   0.725 -0.6357 -0.5222  0.6153
  208MOL0     C27995   4.030   7.044   0.773  0.0527 -0.1615 -0.6260
  208MOL0     N27996   3.495   6.455   0.918 -0.5068 -0.3047  0.1319
  208MOL0     N27997   3.518   6.352   0.991  0.4736 -0.5354 -0.2886
  208MOL0     C27998   4.265   6.034   1.600 -0.8846  0.2693  0.4593
  208MOL0     C27999   4.348   5.942   1.663  0.0325 -0.2241  0.5267
  208MOL0     C28000   4.488   5.736   2.031 -0.2488 -0.2117 -0.4983
  208MOL0     C28001   4.548   5.640   1.946  0.0238 -0.0818 -0.7700
  208MOL0     C28002   4.610   5.526   1.988 -0.1294  0.1681  0.3251
  208MOL0     C28003   4.616   5.501   2.120  0.7827  0.7124 -0.4443
  208MOL0     O28004   4.660   5.396   2.182  0.4985  0.2254  0.2335
  208MOL0     C28005   4.550   5.314   2.226 -0.0988 -0.1140 -0.2739
  208MOL0     C28006   4.557   5.173   2.164  0.4914 -0.7436 -0.6290
  208MOL0     C28007   4.675   5.094   2.219 -0.7442  0.2274 -0.6440
  208MOL0     C28008   4.669   4.958   2.149 -0.1527 -0.1886 -0.4715
  208MOL0     C28009   4.547   4.893   2.185 -0.1622 -0.3092 -0.8305
  208MOL0     C28010   4.447   4.823   2.178 -0.0972 -0.3273  0.0964
  208MOL0     C28011   4.560   5.591   2.209  0.8853  0.0852  0.1657
  208MOL0     C28012   4.497   5.707   2.168 -0.2313 -0.3757  0.4361
  208MOL0     H28013   4.434   6.122   1.912  1.6997  0.5776 -0.0534
  208MOL0     H28014   4.304   6.297   1.800 -0.0642 -1.2352  2.6500
  208MOL0     H28015   4.044   6.282   1.748 -2.6800  0.2858 -0.4835
  208MOL0     H28016   4.109   6.420   1.651  0.0294  0.2053  1.8234
  208MOL0     H28017   3.878   6.409   1.636 -2.8052 -1.9534  0.4421
  208MOL0     H28018   3.945   6.342   1.479  2.5156 -1.4068 -0.5553
  208MOL0     H28019   3.934   6.113   1.593  2.5318  2.3111  2.0126
  208MOL0     H28020   3.819   6.175   1.712  0.5981 -2.1051  0.1838
  208MOL0     H28021   3.775   6.183   1.415  1.1377  2.1640  0.4166
  208MOL0     H28022   3.704   6.064   1.519 -2.8803  0.4008 -1.6979
  208MOL0     H28023   3.601   6.268   1.648  1.8284 -0.6068 -1.0856
  208MOL0     H28024   3.650   6.363   1.502  0.9934  0.0743  0.2481
  208MOL0     H28025   3.494   6.136   1.426  3.6856  0.0642  0.1507
  208MOL0     H28026   3.408   6.245   1.547  0.8877 -1.1432  1.1132
  208MOL0     H28027   3.349   6.308   1.321  0.8556  0.3531  0.8934
  208MOL0     H28028   3.456   6.435   1.389  0.8234 -1.5471  2.7188
  208MOL0     H28029   3.540   6.207   1.199  0.8576  0.3347  0.5010
  208MOL0     H28030   3.641   6.335   1.261 -0.0252 -0.5485  1.5485
  208MOL0     H28031   3.496   6.593   1.199  1.2274  0.0890  0.2443
  208MOL0     H28032   3.426   6.690   0.840  1.1773  2.2172 -0.9813
  208MOL0     H28033   3.376   6.755   0.993  0.8627  1.9214 -0.1285
  208MOL0     H28034   3.637   6.756   1.042  0.6612 -2.0571  0.1626
  208MOL0     H28035   3.586   6.883   0.929 -2.1756  0.1871 -1.6698
  208MOL0     H28036   3.626   6.756   0.743 -1.4758 -2.3187 -0.2371
  208MOL0     H28037   3.688   6.607   0.821  1.2927  0.0406  4.7505
  208MOL0     H28038   3.880   6.685   0.785  1.2433  3.0266 -0.4804
  208MOL0     H28039   3.857   6.731   0.956 -5.3690 -0.2191  3.1734
  208MOL0     H28040   4.058   6.712   0.754  1.8290 -0.2012 -1.0558
  208MOL0     H28041   4.240   6.630   0.669  1.0066 -0.0124  2.4569
  208MOL0     H28042   4.322   6.730   0.555 -1.4198 -3.2162 -1.2233
  208MOL0     H28043   4.372   6.715   0.734  2.8168  2.0898 -3.0473
  208MOL0     H28044   4.518   7.066   0.384 -1.9742  0.4843  1.2277
  208MOL0     H28045   4.765   7.118   0.319 -1.3673 -0.0431 -1.1261
  208MOL0     H28046   4.977   7.128   0.324  3.1244 -0.1071 -1.8848
  208MOL0     H28047   4.955   7.299   0.285  0.3675  0.4777  0.0401
  208MOL0     H28048   5.168   7.360   0.343 -2.1129 -0.1624  0.5982
  208MOL0     H28049   5.206   7.223   0.444  1.3892 -1.4658 -0.2096
  208MOL0     H28050   5.180   7.236   0.140 -0.9952 -0.7644  0.1779
  208MOL0     H28051   5.175   7.076   0.224  3.0693 -1.7609  0.2119
  208MOL0     H28052   5.386   7.300   0.246  0.0324  0.8119  3.0514
  208MOL0     H28053   5.383   7.163   0.350 -0.1947 -0.1629  0.7174
  208MOL0     H28054   5.421   7.189   0.050  3.7579  0.0244 -1.4373
  208MOL0     H28055   5.406   7.024   0.127  2.3520 -0.8228 -0.9223
  208MOL0     H28056   5.630   7.218   0.199  0.5305 -1.4086  3.0661
  208MOL0     H28057   5.587   7.049   0.252 -1.8788  2.7255  2.7522
  208MOL0     H28058   5.714   7.179   0.017  1.1157 -0.2130 -1.6388
  208MOL0     H28059   5.641   7.019  -0.030  3.3053 -0.5849 -2.3195
  208MOL0     H28060   5.881   6.989   0.016 -2.1118  2.2000 -1.1524
  208MOL0     H28061   5.801   6.942   0.169  0.7865  1.0095  2.0333
  208MOL0     H28062   4.806   7.353   0.678 -1.8625  4.3524 -0.4750
  208MOL0     H28063   4.550   7.288   0.742 -1.6427  0.4564 -0.5746
  208MOL0     H28064   4.187   7.181   0.726 -0.0098 -0.6454  3.8885
  208MOL0     H28065   3.954   7.116   0.802  1.0269 -0.0076  1.7344
  208MOL0     H28066   4.216   6.001   1.508 -1.1757 -0.3899  0.8400
  208MOL0     H28067   4.370   5.842   1.625  3.2244  0.3934  0.5304
  208MOL0     H28068   4.550   5.659   1.839  2.4386 -1.5256 -1.0673
  208MOL0     H28069   4.649   5.454   1.916 -1.2590  0.7662 -0.9203
  208MOL0     H28070   4.552   5.326   2.334  1.6946  0.5096 -0.3379
  208MOL0     H28071   4.457   5.356   2.186  0.3637  3.1643  1.7511
  208MOL0     H28072   4.592   5.194   2.063  5.2420 -3.9736  0.0230
  208MOL0     H28073   4.456   5.133   2.174 -0.5498  1.9628  0.5034
  208MOL0     H28074   4.655   5.084   2.326 -0.2687 -2.6797 -0.7561
  208MOL0     H28075   4.767   5.149   2.198 -1.5657  2.2527  0.7549
  208MOL0     H28076   4.760   4.907   2.183  1.3984  2.5985 -0.0242
  208MOL0     H28077   4.662   4.960   2.040 -3.0627 -1.3456 -0.3877
  208MOL0     H28078   4.349   4.779   2.173  1.2608 -3.6734  0.7966
  208MOL0     H28079   4.553   5.577   2.316 -0.6242  2.8029  0.5117
  208MOL0     H28080   4.455   5.770   2.246 -3.2065 -2.6635  0.8685
  209MOL0     O28081   2.492   9.405   3.954  0.0970 -0.4519 -0.6264
  209MOL0     C28082   2.482   9.320   3.875 -0.2159 -0.0549 -0.0106
  209MOL0     O28083   2.513   9.189   3.896 -0.2018 -0.0658 -0.3598
  209MOL0     C28084   2.583   9.132   3.997  0.0389  0.2357  0.3097
  209MOL0     C28085   2.569   8.993   4.012 -0.2567 -0.4697  0.6039
  209MOL0     C28086   2.626   8.938   4.124 -1.0219  1.6051  0.2320
  209MOL0     C28087   2.717   9.009   4.202  1.0942 -1.5487 -0.4169
  209MOL0     O28088   2.779   8.933   4.303 -0.1209 -0.9441  0.2056
  209MOL0     C28089   2.897   8.984   4.359  0.0450  0.3130 -0.2775
  209MOL0     C28090   2.960   8.877   4.450  0.6414  0.4894  0.5413
  209MOL0     C28091   2.987   8.738   4.391  0.5341  0.0979 -0.0301
  209MOL0     C28092   3.084   8.656   4.469 -0.1937  0.1728 -0.5858
  209MOL0     C28093   3.023   8.533   4.541 -0.2535 -0.2905 -0.3966
  209MOL0     C28094   3.142   8.470   4.625 -0.4369  0.0472  0.2405
  209MOL0     C28095   3.109   8.333   4.663 -1.2460 -0.7335  0.0339
  209MOL0     C28096   2.989   8.316   4.750 -0.2186 -0.5402  0.5784
  209MOL0     N28097   2.959   8.173   4.790 -0.7157  0.3230  0.3628
  209MOL0     C28098   2.891   8.081   4.724 -0.5411  0.3917  0.6642
  209MOL0     C28099   2.922   7.969   4.803  0.3117  0.8286  0.8489
  209MOL0     C28100   2.842   7.843   4.782 -0.1004  0.8067 -0.6131
  209MOL0     C28101   2.861   7.776   4.647 -0.4833  1.5130 -0.5971
  209MOL0     C28102   2.779   7.641   4.655 -0.1151 -0.6864 -0.7351
  209MOL0     C28103   2.773   7.562   4.524  0.5335  0.2872 -0.2695
  209MOL0     O28104   2.724   7.645   4.419  0.1750  0.4576 -0.1789
  209MOL0     C28105   2.717   7.578   4.296 -0.5856  0.2454 -0.4561
  209MOL0     C28106   2.717   7.441   4.272 -0.7995  0.4189 -0.7689
  209MOL0     C28107   2.741   7.386   4.147 -0.4773 -0.1986 -0.1613
  209MOL0     C28108   2.787   7.237   4.146  0.4786 -0.1564  0.1873
  209MOL0     C28109   2.733   7.468   4.028  0.5637 -0.2499 -0.0296
  209MOL0     C28110   2.726   7.418   3.889 -0.2478 -0.9506  0.1665
  209MOL0     O28111   2.777   7.496   3.789 -0.5029 -0.0231 -0.0105
  209MOL0     C28112   2.770   7.473   3.650  0.5269 -0.7680 -0.4725
  209MOL0     C28113   2.859   7.542   3.571  0.4784 -0.0497  0.4294
  209MOL0     C28114   2.856   7.522   3.426 -0.2773 -0.0349 -1.0110
  209MOL0     C28115   2.746   7.458   3.369  0.1831  0.5059  0.0872
  209MOL0     O28116   2.735   7.476   3.230  0.3909 -0.4543 -0.1689
  209MOL0     C28117   2.618   7.536   3.187  0.0420 -0.1804  0.7650
  209MOL0     C28118   2.617   7.684   3.203  0.1676 -0.9083 -1.2739
  209MOL0     C28119   2.741   7.766   3.155 -0.2823  0.3123  0.9298
  209MOL0     C28120   2.716   7.904   3.195  0.0012 -0.1427  0.3801
  209MOL0     C28121   2.782   8.010   3.111  0.4427 -0.3574 -0.3752
  209MOL0     C28122   2.793   8.150   3.183 -0.9452 -0.0541 -0.5264
  209MOL0     C28123   2.669   8.240   3.177 -0.2556 -0.2365  0.1977
  209MOL0     C28124   2.689   8.374   3.246 -0.0759 -0.5163  0.5495
  209MOL0    Cl28125   2.533   8.464   3.244 -0.1575  0.1556  0.6185
  209MOL0     C28126   2.646   7.397   3.451  0.6415 -0.7622 -0.3851
  209MOL0     C28127   2.661   7.412   3.592  0.7615  0.2756 -0.1158
  209MOL0     O28128   2.673   7.310   3.871 -0.2307 -0.2470  0.2215
  209MOL0     C28129   2.706   7.604   4.050 -0.8346 -0.7689 -0.2358
  209MOL0     C28130   2.715   7.665   4.177 -0.0997  0.5535 -0.4845
  209MOL0     N28131   2.985   8.000   4.923 -0.4668  0.0910  0.4844
  209MOL0     N28132   3.006   8.125   4.911  0.0490 -0.7707  1.6462
  209MOL0     C28133   2.745   9.140   4.169 -1.0037 -0.3308 -0.0527
  209MOL0     C28134   2.675   9.203   4.068 -0.3512  0.2795  0.3784
  209MOL0     C28135   2.435   9.360   3.750  0.3995  0.8396  0.8195
  209MOL0     C28136   2.472   9.481   3.697 -0.1827  0.4157  0.7135
  209MOL0     C28137   2.445   9.523   3.560  0.4995  0.3576 -0.3371
  209MOL0     C28138   2.350   9.450   3.485  0.1296 -0.1959 -0.8174
  209MOL0     O28139   2.307   9.483   3.363  0.0371 -0.0226  0.6711
  209MOL0     C28140   2.270   9.617   3.350  0.1058 -0.9765  0.0577
  209MOL0     C28141   2.191   9.644   3.224  0.9600  0.6031  1.0112
  209MOL0     C28142   2.040   9.618   3.239  0.2498 -0.2287  0.5220
  209MOL0     C28143   1.971   9.564   3.116 -0.2099 -0.4364  0.0587
  209MOL0     C28144   1.945   9.667   3.015 -0.0826  0.9876  0.2294
  209MOL0     C28145   1.918   9.752   2.938  0.2605 -0.3924  0.5374
  209MOL0     C28146   2.304   9.332   3.536  0.8107 -0.2405 -0.3334
  209MOL0     C28147   2.352   9.279   3.660  0.2210  0.7216  0.6246
  209MOL0     H28148   2.488   8.952   3.952 -1.2729  0.1542  1.5130
  209MOL0     H28149   2.618   8.830   4.138  5.9808  0.4662 -0.5942
  209MOL0     H28150   2.967   9.031   4.289  0.9216 -0.4997  0.0249
  209MOL0     H28151   2.866   9.068   4.421 -0.0016  0.2844 -0.2622
  209MOL0     H28152   3.055   8.909   4.493  1.3822 -2.3257  1.1827
  209MOL0     H28153   2.892   8.881   4.536 -0.4447  0.5291 -0.2982
  209MOL0     H28154   2.889   8.689   4.382 -0.1164  1.2212  0.6064
  209MOL0     H28155   3.040   8.750   4.296  3.5287  0.5953  1.5701
  209MOL0     H28156   3.171   8.635   4.406 -1.3788  0.9848 -2.5796
  209MOL0     H28157   3.150   8.717   4.532  0.9549 -0.6776 -0.9376
  209MOL0     H28158   2.941   8.567   4.605 -1.3130  2.8700 -3.1046
  209MOL0     H28159   2.993   8.459   4.466 -0.2714  0.7333 -1.4298
  209MOL0     H28160   3.232   8.469   4.562 -2.0109 -0.3434 -2.1126
  209MOL0     H28161   3.162   8.536   4.709 -0.2855 -1.2649  1.2657
  209MOL0     H28162   3.070   8.282   4.574 -1.6443 -2.7507  1.3062
  209MOL0     H28163   3.198   8.285   4.705 -2.2665 -2.5619  0.2132
  209MOL0     H28164   2.902   8.363   4.703 -0.3851  0.7963  2.1331
  209MOL0     H28165   3.020   8.365   4.842  0.2316 -0.4738  0.3940
  209MOL0     H28166   2.834   8.088   4.632 -0.5857 -1.7944  0.4762
  209MOL0     H28167   2.881   7.780   4.862 -0.7544  3.1745  1.7177
  209MOL0     H28168   2.737   7.860   4.806 -0.5652 -2.2810 -0.0951
  209MOL0     H28169   2.967   7.753   4.634 -0.1417 -0.6164  3.8734
  209MOL0     H28170   2.832   7.836   4.561  0.0570  1.7667 -0.6035
  209MOL0     H28171   2.677   7.665   4.685  0.2181  1.3167 -1.0859
  209MOL0     H28172   2.827   7.567   4.720 -1.1714 -0.8036 -0.0589
  209MOL0     H28173   2.708   7.474   4.534  2.6933 -1.5850 -1.8595
  209MOL0     H28174   2.875   7.527   4.508 -0.2080 -2.0850 -0.2603
  209MOL0     H28175   2.717   7.368   4.352 -1.3412  2.3489  1.0644
  209MOL0     H28176   2.860   7.220   4.225  0.5201  2.8718  0.9094
  209MOL0     H28177   2.699   7.176   4.171  0.5022 -0.4383 -0.3962
  209MOL0     H28178   2.823   7.209   4.046  0.8114  1.4760 -0.1718
  209MOL0     H28179   2.952   7.582   3.611  1.7662 -3.0548  0.7882
  209MOL0     H28180   2.929   7.579   3.370  2.2961  0.0079  2.0833
  209MOL0     H28181   2.604   7.498   3.085 -2.9392 -0.3151  1.1393
  209MOL0     H28182   2.531   7.489   3.234  1.0745 -3.3078 -0.1953
  209MOL0     H28183   2.540   7.723   3.135  0.4252 -2.1205 -2.2958
  209MOL0     H28184   2.580   7.700   3.304  2.9030  0.2728 -0.3556
  209MOL0     H28185   2.760   7.760   3.048 -0.7813 -0.8467  0.9038
  209MOL0     H28186   2.839   7.735   3.192 -0.0236 -1.9160 -1.4085
  209MOL0     H28187   2.610   7.929   3.193  0.4787  2.0382 -1.0285
  209MOL0     H28188   2.737   7.926   3.301  0.8343  2.6660 -0.2712
  209MOL0     H28189   2.733   8.018   3.013  1.2830  1.0075 -0.7134
  209MOL0     H28190   2.883   7.985   3.080  0.5409  0.0572 -0.4043
  209MOL0     H28191   2.819   8.141   3.289 -1.8789  0.8676 -0.2035
  209MOL0     H28192   2.874   8.204   3.133  0.3732 -1.0527  0.4508
  209MOL0     H28193   2.590   8.199   3.241  1.4036  0.0266  2.5499
  209MOL0     H28194   2.634   8.255   3.074 -0.8972 -3.3791 -0.1457
  209MOL0     H28195   2.771   8.424   3.195  0.7201 -0.9139  1.4028
  209MOL0     H28196   2.723   8.354   3.348  0.8206  0.1638  0.3916
  209MOL0     H28197   2.568   7.336   3.407  1.3817 -1.6279 -0.5223
  209MOL0     H28198   2.595   7.352   3.653 -0.0969  1.8240  0.5269
  209MOL0     H28199   2.687   7.673   3.968  3.6862  3.3788  1.7320
  209MOL0     H28200   2.717   7.772   4.197  1.7178  0.1736  1.7346
  209MOL0     H28201   2.812   9.193   4.236 -0.8864 -2.2133  1.4080
  209MOL0     H28202   2.699   9.308   4.059  0.2330 -0.0302 -4.2803
  209MOL0     H28203   2.546   9.543   3.746 -1.1464  1.0201  1.4458
  209MOL0     H28204   2.490   9.606   3.508  0.8115 -1.0453 -2.4194
  209MOL0     H28205   2.204   9.647   3.432  0.5289 -0.0945  0.0904
  209MOL0     H28206   2.352   9.689   3.351  2.0622 -3.1039  0.9397
  209MOL0     H28207   2.228   9.587   3.139 -1.3578  0.1132  0.2713
  209MOL0     H28208   2.199   9.751   3.205 -0.6290  0.6118  0.1863
  209MOL0     H28209   1.984   9.705   3.275 -0.4384  1.1579 -3.3921
  209MOL0     H28210   2.022   9.540   3.313 -0.1138  0.8298  1.5708
  209MOL0     H28211   1.873   9.523   3.142  0.8754 -1.5869  2.6659
  209MOL0     H28212   2.033   9.486   3.070  0.0230  0.1762 -0.6931
  209MOL0     H28213   1.910   9.829   2.865 -3.2770 -1.8583 -0.8291
  209MOL0     H28214   2.225   9.272   3.491 -2.0616  1.2847  2.2475
  209MOL0     H28215   2.315   9.183   3.696 -0.9373  2.3776  4.3347
  210MOL0     O28216   3.979  10.497   1.018  0.1453  0.4938  0.6020
  210MOL0     C28217   3.867  10.546   1.010 -0.1777 -0.0320 -0.2206
  210MOL0     O28218   3.814  10.636   1.091  0.2299  0.7670  0.4565
  210MOL0     C28219   3.887  10.706   1.181  0.2425  0.1572 -0.2713
  210MOL0     C28220   3.828  10.747   1.304 -0.5780 -0.2505  1.1555
  210MOL0     C28221   3.874  10.839   1.388 -0.3731 -0.5085  0.4353
  210MOL0     C28222   3.998  10.900   1.367 -1.3069  0.1459  0.3376
  210MOL0     O28223   4.058  10.999   1.440 -0.6361  0.0026 -0.3092
  210MOL0     C28224   4.062  10.962   1.582 -0.5415  0.0596 -0.1462
  210MOL0     C28225   4.180  10.864   1.612  0.9121  0.3132  0.8272
  210MOL0     C28226   4.217  10.870   1.754 -0.3493 -0.4804 -0.4194
  210MOL0     C28227   4.342  10.774   1.784  0.3528 -1.0472 -0.1438
  210MOL0     C28228   4.373  10.795   1.935  0.3181 -0.2205 -1.0501
  210MOL0     C28229   4.455  10.676   1.991  0.6326 -0.5813 -0.3041
  210MOL0     C28230   4.512  10.710   2.119 -0.1349 -1.5233  0.4752
  210MOL0     C28231   4.565  10.589   2.196 -0.4137  0.5156  0.5101
  210MOL0     N28232   4.585  10.613   2.335  0.7274  0.0071  0.0543
  210MOL0     C28233   4.700  10.685   2.368  0.1277 -0.1222  0.5826
  210MOL0     C28234   4.665  10.721   2.500  0.1682  0.2847 -0.1148
  210MOL0     C28235   4.743  10.804   2.601  0.4490  0.3844  0.8679
  210MOL0     C28236   4.806  10.931   2.563 -0.1981 -0.7210 -0.4136
  210MOL0     C28237   4.948  10.920   2.501 -0.6946  0.3969 -0.2359
  210MOL0     C28238   5.068  10.894   2.585 -0.7633 -0.5937 -0.8503
  210MOL0     O28239   5.068  10.756   2.615 -0.3854 -1.0208 -0.5340
  210MOL0     C28240   5.186  10.730   2.667  0.2564  0.2996 -0.1420
  210MOL0     C28241   5.193  10.594   2.666  0.2029  0.3268 -0.9274
  210MOL0     C28242   5.305  10.529   2.706  0.1779 -0.0802 -0.5842
  210MOL0     C28243   5.302  10.379   2.697 -0.2206 -0.1752 -0.3151
  210MOL0     C28244   5.414  10.608   2.767 -0.2779 -0.4683  0.0027
  210MOL0     C28245   5.543  10.537   2.815  0.0152 -0.0906  0.8997
  210MOL0     O28246   5.579  10.404   2.787 -0.8013 -1.2268 -0.0568
  210MOL0     C28247   5.702  10.363   2.838  0.2447 -0.7785 -0.6042
  210MOL0     C28248   5.795  10.290   2.760  0.3165  0.0915 -0.4889
  210MOL0     C28249   5.913  10.238   2.817 -0.3906 -0.8501 -0.0767
  210MOL0     C28250   5.950  10.266   2.950 -0.9767 -0.8423 -0.1650
  210MOL0     O28251   6.065  10.207   2.997 -0.5948  0.5925 -0.1968
  210MOL0     C28252   6.142  10.262   3.113  0.3899 -0.7224 -1.3027
  210MOL0     C28253   6.276  10.190   3.144  0.1125  0.2923  0.5022
  210MOL0     C28254   6.360  10.200   3.008 -0.4264  0.9457  0.4254
  210MOL0     C28255   6.489  10.116   3.024  1.3311  0.0859 -0.2415
  210MOL0     C28256   6.590  10.214   3.078  0.5320  0.2280  0.8492
  210MOL0     C28257   6.718  10.159   3.124 -1.1172 -0.2275  0.2705
  210MOL0     C28258   6.828  10.125   3.017 -0.4456 -0.8661 -0.8065
  210MOL0     C28259   6.904  10.244   2.945  0.3508  0.0585  0.8263
  210MOL0    Cl28260   6.952  10.356   3.065 -0.5132 -0.0953 -0.0333
  210MOL0     C28261   5.859  10.350   3.016 -0.2875  0.6327  0.6785
  210MOL0     C28262   5.739  10.396   2.968 -0.1380 -0.0383 -0.2885
  210MOL0     O28263   5.612  10.617   2.873  0.2007 -0.5226 -0.5065
  210MOL0     C28264   5.400  10.746   2.775 -0.3765 -0.1720 -0.7513
  210MOL0     C28265   5.281  10.808   2.730  0.3563 -0.2796  0.1404
  210MOL0     N28266   4.537  10.680   2.528 -0.1062  0.7722 -0.3233
  210MOL0     N28267   4.496  10.606   2.432  0.8543 -0.1554 -0.1787
  210MOL0     C28268   4.068  10.873   1.243 -0.5634 -0.1432 -0.0903
  210MOL0     C28269   4.006  10.777   1.150 -0.6102 -0.0309 -0.8844
  210MOL0     C28270   3.795  10.497   0.892  0.5290  0.0253  0.0763
  210MOL0     C28271   3.828  10.384   0.817  0.4696  1.0366  0.2073
  210MOL0     C28272   3.761  10.351   0.695 -0.8161  0.5341 -0.2006
  210MOL0     C28273   3.661  10.437   0.647 -0.3066 -0.4180 -0.1649
  210MOL0     O28274   3.594  10.403   0.529  0.5781 -0.1298 -0.5269
  210MOL0     C28275   3.617  10.497   0.423  0.1114 -1.3086 -0.0553
  210MOL0     C28276   3.520  10.473   0.310 -0.5445 -0.9410 -0.5968
  210MOL0     C28277   3.378  10.518   0.338  0.2028  0.7412 -0.5547
  210MOL0     C28278   3.279  10.409   0.328 -0.3936 -0.8471  0.7609
  210MOL0     C28279   3.139  10.460   0.338 -0.0688  0.7168 -0.3494
  210MOL0     C28280   3.028  10.505   0.333  0.8357  0.6273  1.2089
  210MOL0     C28281   3.625  10.547   0.729 -0.3636 -0.0311  0.5384
  210MOL0     C28282   3.687  10.580   0.850  0.1226  0.2913  0.4344
  210MOL0     H28283   3.732  10.700   1.324  0.8554 -1.9472  5.1146
  210MOL0     H28284   3.824  10.860   1.481  1.7730  2.4404  1.0660
  210MOL0     H28285   4.084  11.056   1.634 -1.0204 -0.4581  1.0381
  210MOL0     H28286   3.971  10.931   1.633 -0.7879  4.4369  2.5831
  210MOL0     H28287   4.145  10.761   1.602  3.1869 -0.4932  0.6128
  210MOL0     H28288   4.267  10.878   1.548  1.8628 -0.0845  1.9914
  210MOL0     H28289   4.238  10.975   1.777 -0.8959 -0.8263  1.8715
  210MOL0     H28290   4.128  10.831   1.804 -1.0100  0.4196 -0.8560
  210MOL0     H28291   4.311  10.670   1.770 -1.1271 -0.5668 -0.5666
  210MOL0     H28292   4.424  10.806   1.719  0.0194 -0.0130 -0.0744
  210MOL0     H28293   4.429  10.888   1.945  1.0384 -0.7391 -0.0914
  210MOL0     H28294   4.283  10.812   1.995 -0.1014  4.0939 -2.5481
  210MOL0     H28295   4.404  10.579   1.999  1.8972 -1.1024  4.7413
  210MOL0     H28296   4.541  10.677   1.923  0.3177  1.1541 -0.7301
  210MOL0     H28297   4.596  10.779   2.122  0.3656 -2.0667 -0.5365
  210MOL0     H28298   4.434  10.760   2.176 -0.0939 -0.1786 -0.5972
  210MOL0     H28299   4.656  10.559   2.144 -0.9313  0.5768 -0.4563
  210MOL0     H28300   4.502  10.501   2.179  0.3989  0.2471 -1.3605
  210MOL0     H28301   4.788  10.709   2.310 -0.1436 -2.6156 -0.9951
  210MOL0     H28302   4.683  10.820   2.691  1.1171  3.2730  0.8935
  210MOL0     H28303   4.818  10.736   2.643 -1.3042 -1.2289  1.5521
  210MOL0     H28304   4.814  11.007   2.641 -0.0972 -0.9259 -0.2229
  210MOL0     H28305   4.740  10.970   2.485 -1.4582  0.0512  0.9986
  210MOL0     H28306   4.973  11.001   2.432  3.6177 -0.3420  0.1988
  210MOL0     H28307   4.953  10.834   2.434  2.2650  0.9571 -0.8528
  210MOL0     H28308   5.044  10.953   2.674 -0.1940 -1.9236  0.2151
  210MOL0     H28309   5.160  10.929   2.538 -0.8354  1.3975  0.3807
  210MOL0     H28310   5.117  10.528   2.626  1.8155 -2.1052 -0.2144
  210MOL0     H28311   5.314  10.341   2.799  1.9537 -0.8789 -0.7681
  210MOL0     H28312   5.208  10.346   2.653 -0.9860  2.2942 -0.6768
  210MOL0     H28313   5.370  10.333   2.625 -2.2392 -0.0245 -2.3887
  210MOL0     H28314   5.759  10.263   2.662  0.1608 -1.7969  0.0521
  210MOL0     H28315   5.976  10.173   2.757  1.0919  0.2008  0.2569
  210MOL0     H28316   6.160  10.369   3.098 -4.3589  0.8831  1.9841
  210MOL0     H28317   6.085  10.261   3.207  0.8850  2.3833 -0.8799
  210MOL0     H28318   6.344  10.245   3.211  0.4822  0.4722 -0.0128
  210MOL0     H28319   6.265  10.088   3.183  0.9668 -0.0387 -0.0935
  210MOL0     H28320   6.371  10.306   2.981  1.2654  0.3348 -1.5511
  210MOL0     H28321   6.310  10.158   2.920  0.4201 -0.7817  0.7217
  210MOL0     H28322   6.493  10.028   3.089  1.0467  0.4464  0.2697
  210MOL0     H28323   6.519  10.088   2.922 -2.6913  1.2109 -1.9055
  210MOL0     H28324   6.535  10.261   3.160  0.7871  1.2223  0.4703
  210MOL0     H28325   6.607  10.294   3.004 -3.8121  1.0270  0.4453
  210MOL0     H28326   6.756  10.232   3.197  0.7760 -2.5085  1.7255
  210MOL0     H28327   6.694  10.071   3.184 -0.3282 -1.6492 -1.4044
  210MOL0     H28328   6.788  10.056   2.941  1.5063 -1.9684 -0.9044
  210MOL0     H28329   6.913  10.077   3.066 -0.2787 -0.5953 -0.8276
  210MOL0     H28330   6.828  10.304   2.894  0.8815  1.3001  1.4502
  210MOL0     H28331   6.975  10.212   2.868  1.0657 -1.1856  1.9695
  210MOL0     H28332   5.881  10.366   3.121  2.7091 -2.4015  0.6868
  210MOL0     H28333   5.679  10.461   3.031  1.0953 -0.1729  1.0834
  210MOL0     H28334   5.471  10.812   2.824 -3.2138  0.6349  2.7701
  210MOL0     H28335   5.267  10.911   2.758 -0.8992 -1.0357  2.5169
  210MOL0     H28336   4.162  10.923   1.220 -0.0936 -1.8666 -2.2332
  210MOL0     H28337   4.056  10.760   1.055  1.6297 -2.8467  0.6282
  210MOL0     H28338   3.903  10.315   0.852 -2.6736 -1.9965  1.5061
  210MOL0     H28339   3.780  10.252   0.654 -1.6152 -0.3843  1.5155
  210MOL0     H28340   3.603  10.603   0.442 -4.1665 -1.0268 -3.2685
  210MOL0     H28341   3.722  10.493   0.393  1.3649 -1.6984  3.8600
  210MOL0     H28342   3.524  10.370   0.274 -3.1836 -0.7062 -1.8766
  210MOL0     H28343   3.556  10.548   0.237  0.6733 -1.5140 -0.6029
  210MOL0     H28344   3.359  10.587   0.255 -1.3023 -0.9912 -1.7196
  210MOL0     H28345   3.359  10.580   0.426  2.0839 -0.7542  1.0196
  210MOL0     H28346   3.305  10.346   0.414 -1.2379  0.1900  1.8146
  210MOL0     H28347   3.298  10.368   0.229  3.5427  1.1868  0.4751
  210MOL0     H28348   2.929  10.537   0.309  0.6803 -1.2219 -0.9866
  210MOL0     H28349   3.540  10.612   0.713  0.9354  1.4872 -0.4303
  210MOL0     H28350   3.650  10.667   0.904  2.6220  2.0476 -0.4618
  211MOL0     O28351   2.382   8.406  11.282  0.2515 -0.2372 -0.2773
  211MOL0     C28352   2.460   8.357  11.198 -0.6582 -0.1468 -0.3714
  211MOL0     O28353   2.418   8.307  11.077 -0.1066 -0.0600 -0.7151
  211MOL0     C28354   2.280   8.309  11.051 -0.2251 -0.5507 -0.3262
  211MOL0     C28355   2.242   8.386  10.941  0.9347  0.3694  0.2713
  211MOL0     C28356   2.107   8.395  10.907  0.6484  0.8231  0.3899
  211MOL0     C28357   2.011   8.327  10.978  0.3206 -0.3231  0.3929
  211MOL0     O28358   1.883   8.328  10.945  0.4933 -0.4522 -0.0963
  211MOL0     C28359   1.865   8.254  10.823 -0.5233  0.5426 -0.0173
  211MOL0     C28360   1.717   8.216  10.813 -0.2957  0.6842 -1.4771
  211MOL0     C28361   1.693   8.106  10.723 -0.6227  0.0970 -0.4658
  211MOL0     C28362   1.545   8.098  10.713  0.5386  0.2728  0.1799
  211MOL0     C28363   1.503   7.980  10.630  0.2567 -0.3892 -0.3259
  211MOL0     C28364   1.564   7.981  10.487  0.2783 -0.6731  0.1212
  211MOL0     C28365   1.514   7.855  10.416  0.2114  1.2101  0.1694
  211MOL0     C28366   1.572   7.857  10.269 -0.4819 -1.0496 -0.2086
  211MOL0     N28367   1.488   7.761  10.188  0.6277 -0.6667  0.0481
  211MOL0     C28368   1.354   7.790  10.154  1.1381 -0.0816 -0.2329
  211MOL0     C28369   1.322   7.676  10.087 -0.2390 -0.6387 -0.1063
  211MOL0     C28370   1.194   7.646  10.020  0.5697  0.8094 -1.1597
  211MOL0     C28371   1.119   7.518  10.078  0.4146 -0.4806 -0.4164
  211MOL0     C28372   1.079   7.538  10.224 -0.3062 -0.1167 -0.2857
  211MOL0     C28373   1.190   7.566  10.333  0.4195  0.2600 -0.4011
  211MOL0     O28374   1.139   7.553  10.468  0.4685 -0.8830  0.0334
  211MOL0     C28375   1.208   7.606  10.570  0.3325 -1.1105  0.5815
  211MOL0     C28376   1.160   7.712  10.642 -0.6718  0.0914 -0.1145
  211MOL0     C28377   1.222   7.737  10.765  0.5341  0.0626 -0.5814
  211MOL0     C28378   1.158   7.845  10.846 -0.5559  0.1087  0.1906
  211MOL0     C28379   1.333   7.666  10.812 -0.1522  0.0252 -0.0872
  211MOL0     C28380   1.418   7.694  10.931 -0.4132 -0.7793 -0.1624
  211MOL0     O28381   1.458   7.582  11.007  0.1224 -0.3085  0.1815
  211MOL0     C28382   1.541   7.613  11.114 -0.4568  1.3783 -0.6465
  211MOL0     C28383   1.492   7.612  11.247 -0.8174 -0.3365 -0.6061
  211MOL0     C28384   1.584   7.630  11.352  0.5700 -1.0913  0.4772
  211MOL0     C28385   1.714   7.655  11.327 -0.0542 -0.2576  0.3694
  211MOL0     O28386   1.804   7.709  11.419 -0.0968  0.4321  0.5394
  211MOL0     C28387   1.928   7.634  11.423 -0.0080  0.0946  0.1841
  211MOL0     C28388   2.015   7.681  11.548  0.0514  0.3718  0.1328
  211MOL0     C28389   2.166   7.655  11.536 -0.0201 -0.0626 -0.0109
  211MOL0     C28390   2.224   7.702  11.672  0.5625 -0.6811  0.2450
  211MOL0     C28391   2.376   7.723  11.655  0.8840 -0.1941 -0.4858
  211MOL0     C28392   2.439   7.762  11.792  0.3599 -0.4481 -0.2334
  211MOL0     C28393   2.587   7.774  11.785  0.0367  0.1278 -0.2155
  211MOL0     C28394   2.656   7.796  11.914 -0.4049  0.3686  0.1710
  211MOL0    Cl28395   2.801   7.901  11.913  0.2901  0.1147  0.6140
  211MOL0     C28396   1.763   7.659  11.198  0.0925  0.3538 -0.4959
  211MOL0     C28397   1.679   7.627  11.099  0.4599 -0.8602 -0.8581
  211MOL0     O28398   1.471   7.803  10.932  1.1139  0.1555 -0.1947
  211MOL0     C28399   1.374   7.556  10.736 -0.1852  0.7874 -0.2117
  211MOL0     C28400   1.312   7.535  10.616  0.2081 -0.6870  0.3604
  211MOL0     N28401   1.423   7.590  10.088  0.1528 -0.2899  0.3244
  211MOL0     N28402   1.526   7.646  10.133  0.5089  0.6222  0.0892
  211MOL0     C28403   2.047   8.244  11.088  0.4299 -0.5011  0.5116
  211MOL0     C28404   2.181   8.238  11.134 -0.6426 -0.1517 -0.0362
  211MOL0     C28405   2.598   8.342  11.240 -0.2889 -0.6372 -0.2912
  211MOL0     C28406   2.683   8.278  11.144  0.3874 -1.3361 -0.3497
  211MOL0     C28407   2.820   8.259  11.177 -0.5552 -0.1438 -0.0274
  211MOL0     C28408   2.863   8.293  11.312 -0.5766  0.4303  0.0793
  211MOL0     O28409   2.988   8.258  11.355 -0.2610  0.0145 -1.0823
  211MOL0     C28410   3.101   8.286  11.277  0.7398  0.1281  0.1376
  211MOL0     C28411   3.237   8.238  11.340  0.2875  0.3457 -0.2771
  211MOL0     C28412   3.343   8.332  11.299 -0.5233 -0.5290 -0.0746
  211MOL0     C28413   3.469   8.310  11.383 -1.7521  0.0005 -1.7089
  211MOL0     C28414   3.454   8.312  11.529  0.1774 -0.8519 -0.0930
  211MOL0     C28415   3.427   8.313  11.647  0.3985  0.1322 -0.7387
  211MOL0     C28416   2.771   8.331  11.406 -0.4197 -1.1364 -0.6859
  211MOL0     C28417   2.644   8.369  11.367  0.3368 -1.1582 -1.2299
  211MOL0     H28418   2.318   8.445  10.890  0.6190  0.2515 -0.3465
  211MOL0     H28419   2.079   8.445  10.815 -1.6996  0.7032  0.9789
  211MOL0     H28420   1.889   8.304  10.729 -0.4797 -0.2163 -0.4197
  211MOL0     H28421   1.921   8.160  10.831  2.3801  2.1965  0.3089
  211MOL0     H28422   1.676   8.199  10.913 -2.5944  0.1946 -2.4464
  211MOL0     H28423   1.653   8.300  10.783 -4.6870 -2.6868 -2.6491
  211MOL0     H28424   1.747   8.123  10.630  0.3163  0.9903  0.2230
  211MOL0     H28425   1.733   8.016  10.771 -0.0367 -0.9507 -2.7740
  211MOL0     H28426   1.514   8.072  10.815  3.2942 -1.3712  0.7024
  211MOL0     H28427   1.496   8.192  10.684  2.3930  1.3307  0.3179
  211MOL0     H28428   1.536   7.889  10.682 -0.1860  0.3515  1.3175
  211MOL0     H28429   1.394   7.987  10.631  0.3687  3.5529  1.1574
  211MOL0     H28430   1.543   8.065  10.420  1.3517 -0.3312  0.1965
  211MOL0     H28431   1.672   7.962  10.484 -0.1573 -3.6710  0.3802
  211MOL0     H28432   1.540   7.756  10.454 -2.8983  0.1117 -0.2945
  211MOL0     H28433   1.405   7.848  10.413  0.0718  2.8898  0.0034
  211MOL0     H28434   1.679   7.833  10.271  0.3502  2.1838 -0.3529
  211MOL0     H28435   1.578   7.956  10.223  1.4506 -1.1485 -0.2627
  211MOL0     H28436   1.292   7.877  10.173  0.3638 -0.8423  0.8023
  211MOL0     H28437   1.120   7.726  10.032 -1.1616 -0.4356 -2.9068
  211MOL0     H28438   1.200   7.623   9.914 -0.9338 -1.3843 -0.8459
  211MOL0     H28439   1.179   7.428  10.062  0.1762 -1.3260  2.7853
  211MOL0     H28440   1.025   7.498  10.026 -0.4261  0.8453  0.5277
  211MOL0     H28441   1.033   7.443  10.252  2.2270 -1.6965 -1.1952
  211MOL0     H28442   1.001   7.614  10.234 -0.1176 -0.2165  3.1555
  211MOL0     H28443   1.240   7.663  10.332  1.2185 -0.0304  2.3977
  211MOL0     H28444   1.271   7.494  10.322  0.7475  0.6523 -0.5881
  211MOL0     H28445   1.062   7.753  10.622 -1.8431 -1.4092  2.0906
  211MOL0     H28446   1.231   7.899  10.906  0.0823 -1.9386  1.3655
  211MOL0     H28447   1.107   7.918  10.782 -0.6061 -0.5732 -0.5647
  211MOL0     H28448   1.079   7.805  10.911 -3.3603  0.0287 -2.9824
  211MOL0     H28449   1.385   7.603  11.261 -0.7934 -2.1999 -1.3936
  211MOL0     H28450   1.547   7.631  11.454 -2.9244 -0.8389 -0.6446
  211MOL0     H28451   1.914   7.526  11.424  0.5157 -0.0742 -2.4392
  211MOL0     H28452   1.989   7.658  11.335  0.3604  1.5429  0.8067
  211MOL0     H28453   2.011   7.788  11.574 -1.9141 -0.4339  3.8896
  211MOL0     H28454   1.975   7.629  11.635  1.8880 -2.1771 -0.4477
  211MOL0     H28455   2.215   7.711  11.455  1.9618  3.3394  3.2262
  211MOL0     H28456   2.191   7.549  11.529 -1.8771 -0.9665  4.2986
  211MOL0     H28457   2.178   7.796  11.702 -1.7855 -1.3767 -0.9396
  211MOL0     H28458   2.212   7.624  11.749  1.5274 -0.1146  0.9964
  211MOL0     H28459   2.389   7.802  11.580  0.0557 -0.6505 -1.1259
  211MOL0     H28460   2.434   7.638  11.619  0.4204 -2.2234  3.0873
  211MOL0     H28461   2.393   7.857  11.821  0.6572  0.3555 -2.2414
  211MOL0     H28462   2.419   7.676  11.858 -0.9400  2.1140  2.9984
  211MOL0     H28463   2.610   7.861  11.722  0.4476  0.5713  0.5449
  211MOL0     H28464   2.637   7.690  11.736  3.3543  1.2359  0.9771
  211MOL0     H28465   2.685   7.698  11.953  1.6802  1.2498  0.9742
  211MOL0     H28466   2.584   7.827  11.990 -1.3474  1.5007 -1.1262
  211MOL0     H28467   1.865   7.688  11.175  0.5043 -1.2579 -0.7796
  211MOL0     H28468   1.722   7.632  10.999 -0.9640  0.3964 -1.4563
  211MOL0     H28469   1.442   7.485  10.782 -2.8602 -1.8093  0.0449
  211MOL0     H28470   1.354   7.444  10.574  0.4532 -1.7831  2.8586
  211MOL0     H28471   1.977   8.183  11.144 -1.1437 -1.1410 -1.9657
  211MOL0     H28472   2.210   8.199  11.232 -1.5761  0.3214  0.4378
  211MOL0     H28473   2.642   8.256  11.046 -1.0500  1.3586 -0.4510
  211MOL0     H28474   2.886   8.224  11.099  0.0307  2.1895 -0.6678
  211MOL0     H28475   3.094   8.254  11.172 -2.1864 -5.2182  1.5903
  211MOL0     H28476   3.088   8.394  11.279  3.8054  0.7405 -3.0236
  211MOL0     H28477   3.271   8.137  11.316  2.1577  0.7541  0.4851
  211MOL0     H28478   3.220   8.245  11.447 -4.2660  0.2248 -0.7937
  211MOL0     H28479   3.302   8.430  11.326 -1.5979 -0.6431 -1.2364
  211MOL0     H28480   3.372   8.321  11.195 -4.0931 -0.1154 -1.2299
  211MOL0     H28481   3.549   8.378  11.354  0.4466 -1.6784  0.0421
  211MOL0     H28482   3.510   8.211  11.360  0.4743  0.3115  0.4833
  211MOL0     H28483   3.409   8.305  11.752  0.2862 -1.2379 -0.8356
  211MOL0     H28484   2.800   8.355  11.507 -1.5671 -1.3034 -0.3062
  211MOL0     H28485   2.569   8.419  11.428  2.0228  0.4426 -0.3849
  212MOL0     O28486   1.664   8.924   5.295 -0.5262  0.5569  0.6597
  212MOL0     C28487   1.755   8.944   5.367 -0.3725 -0.5857  0.0761
  212MOL0     O28488   1.753   9.041   5.463  0.9716  0.2476 -0.0230
  212MOL0     C28489   1.657   9.141   5.451  0.2101  0.3931 -0.7311
  212MOL0     C28490   1.594   9.192   5.564 -0.1150 -0.5765  0.0786
  212MOL0     C28491   1.532   9.318   5.565  0.2250 -0.1213 -0.6979
  212MOL0     C28492   1.511   9.382   5.444  0.1627 -0.2939 -0.1500
  212MOL0     O28493   1.460   9.514   5.425 -0.2525  0.3061  0.1702
  212MOL0     C28494   1.402   9.586   5.539 -0.2481  0.0591  0.1098
  212MOL0     C28495   1.324   9.717   5.496 -0.5562 -0.2025  0.0854
  212MOL0     C28496   1.270   9.789   5.619  0.0337 -0.5157  0.5840
  212MOL0     C28497   1.162   9.897   5.576  0.1990 -1.1579 -1.2148
  212MOL0     C28498   1.129   9.983   5.694 -0.1941 -0.2280 -0.0588
  212MOL0     C28499   1.003  10.076   5.664  0.9481 -0.8938 -0.4229
  212MOL0     C28500   0.940  10.142   5.795  0.8759 -0.2663  0.6844
  212MOL0     C28501   0.786  10.181   5.766 -0.0356  0.0953  0.0371
  212MOL0     N28502   0.767  10.302   5.694 -0.5111 -0.3124 -0.4726
  212MOL0     C28503   0.773  10.316   5.558  0.0961  0.1696  0.8328
  212MOL0     C28504   0.773  10.460   5.530 -0.6244  0.3218 -0.0169
  212MOL0     C28505   0.777  10.528   5.398  0.2474 -0.4948 -1.0321
  212MOL0     C28506   0.636  10.524   5.327  0.1510  0.1868 -0.1347
  212MOL0     C28507   0.512  10.544   5.416  0.7146  0.5784 -0.5481
  212MOL0     C28508   0.502  10.686   5.487  0.7212 -0.6130  0.9475
  212MOL0     O28509   0.486  10.785   5.378  0.3880 -0.6892  0.2466
  212MOL0     C28510   0.551  10.907   5.381 -0.2605  0.1791 -0.0160
  212MOL0     C28511   0.609  10.959   5.492 -0.2413 -0.3744 -0.5788
  212MOL0     C28512   0.682  11.084   5.494  0.0339  0.1999 -0.5650
  212MOL0     C28513   0.738  11.130   5.630  0.1028  0.3907 -0.8644
  212MOL0     C28514   0.677  11.167   5.380  0.1886  0.0798  0.0943
  212MOL0     C28515   0.725  11.310   5.377  0.0125 -0.5188  0.2514
  212MOL0     O28516   0.667  11.391   5.273 -0.4473  0.6467 -0.2837
  212MOL0     C28517   0.697  11.523   5.275  0.2934  0.0875 -0.2712
  212MOL0     C28518   0.767  11.587   5.176  0.1684 -0.8454  0.4256
  212MOL0     C28519   0.773  11.723   5.168  0.2297  0.4863  0.4767
  212MOL0     C28520   0.720  11.812   5.264  0.6125  0.0725 -0.3407
  212MOL0     O28521   0.705  11.944   5.264 -0.0569 -0.0462  0.0812
  212MOL0     C28522   0.798  12.021   5.177  0.1348 -0.0540  0.6268
  212MOL0     C28523   0.950  12.013   5.224 -0.6998  1.0106  0.3961
  212MOL0     C28524   0.950  12.064   5.369  0.5881 -0.7204 -0.7393
  212MOL0     C28525   1.084  12.097   5.440  0.3016 -0.1271  0.5279
  212MOL0     C28526   1.071  12.173   5.577 -0.4132  0.6669  0.2999
  212MOL0     C28527   1.064  12.321   5.557  0.4237 -0.3502  0.6584
  212MOL0     C28528   1.083  12.398   5.689 -0.0698  0.4626  0.5321
  212MOL0     C28529   1.023  12.541   5.670 -0.4426 -0.4451 -0.2435
  212MOL0    Cl28530   0.850  12.514   5.673  0.4321  0.0634 -0.1147
  212MOL0     C28531   0.652  11.756   5.379  0.3566  0.1829  1.4442
  212MOL0     C28532   0.640  11.614   5.380 -0.9488  1.9763  0.2124
  212MOL0     O28533   0.814  11.351   5.452  0.7331 -0.7880 -0.0077
  212MOL0     C28534   0.628  11.106   5.262  0.5447  0.8313  0.6562
  212MOL0     C28535   0.561  10.984   5.266  1.2627  0.6581 -0.9296
  212MOL0     N28536   0.762  10.515   5.652  0.2249 -0.3819  0.7773
  212MOL0     N28537   0.736  10.430   5.743 -0.2637  0.5322  0.0197
  212MOL0     C28538   1.571   9.332   5.331 -0.9228  0.2153  0.4634
  212MOL0     C28539   1.644   9.216   5.335 -0.0781 -0.4408  0.2880
  212MOL0     C28540   1.882   8.867   5.352 -0.4918 -0.1961  0.2034
  212MOL0     C28541   1.886   8.759   5.258 -0.2297 -0.0939  0.2563
  212MOL0     C28542   1.999   8.673   5.254  0.1081 -1.0455 -0.2650
  212MOL0     C28543   2.108   8.700   5.330  0.1158  0.7420 -0.8768
  212MOL0     O28544   2.220   8.616   5.346 -0.1242  0.0167 -0.6190
  212MOL0     C28545   2.269   8.523   5.244  0.6796 -0.3317 -0.8072
  212MOL0     C28546   2.404   8.581   5.189 -1.0866 -0.1043 -0.5119
  212MOL0     C28547   2.398   8.724   5.127 -0.4432 -0.1563  0.1782
  212MOL0     C28548   2.304   8.748   5.007  0.2843 -0.6560 -0.5817
  212MOL0     C28549   2.305   8.647   4.904  1.3695 -0.3419  0.4563
  212MOL0     C28550   2.304   8.569   4.817  0.2018  0.2266  0.8899
  212MOL0     C28551   2.117   8.813   5.400 -0.3537 -0.5616 -0.4971
  212MOL0     C28552   2.004   8.900   5.409 -0.4887  0.1006  0.0912
  212MOL0     H28553   1.617   9.135   5.653 -0.0370 -0.2916  0.2441
  212MOL0     H28554   1.523   9.363   5.664  5.3817  2.9558 -1.2556
  212MOL0     H28555   1.318   9.530   5.583 -1.0248  0.7910 -0.3959
  212MOL0     H28556   1.486   9.611   5.604  1.7049 -0.7175 -2.0036
  212MOL0     H28557   1.394   9.784   5.446  0.2072 -1.8588 -1.1464
  212MOL0     H28558   1.242   9.707   5.425  0.9311 -4.5818 -1.3196
  212MOL0     H28559   1.241   9.718   5.697 -0.2246  1.4089  2.2985
  212MOL0     H28560   1.358   9.838   5.660 -1.0820  0.6959  1.6152
  212MOL0     H28561   1.209   9.948   5.491  3.1674 -1.6937 -0.0260
  212MOL0     H28562   1.066   9.851   5.552 -2.1016  2.8342 -0.6691
  212MOL0     H28563   1.122   9.928   5.788 -0.3297  0.3922  0.3007
  212MOL0     H28564   1.210  10.057   5.697 -1.9748  1.8100  0.4248
  212MOL0     H28565   1.038  10.160   5.603 -1.7903 -0.1212 -1.0786
  212MOL0     H28566   0.931  10.013   5.612  1.3559 -1.5558 -0.1927
  212MOL0     H28567   0.941  10.064   5.871  1.7747 -1.2025 -0.2678
  212MOL0     H28568   1.001  10.226   5.832 -1.5635  1.4479  1.0581
  212MOL0     H28569   0.730  10.194   5.859 -2.8363  0.1841 -1.5709
  212MOL0     H28570   0.738  10.095   5.718 -5.6262  2.2045  1.0882
  212MOL0     H28571   0.785  10.231   5.492  1.7819  2.0875 -1.5427
  212MOL0     H28572   0.803  10.632   5.420  0.1165 -0.3905 -1.3465
  212MOL0     H28573   0.857  10.487   5.336 -0.1824 -0.2039 -1.8031
  212MOL0     H28574   0.628  10.426   5.279 -0.5115  1.2991 -2.4720
  212MOL0     H28575   0.628  10.595   5.244 -1.8814 -2.9481 -2.8666
  212MOL0     H28576   0.515  10.453   5.477 -0.7276 -0.3421 -1.7706
  212MOL0     H28577   0.428  10.534   5.347  0.3421 -0.4712  0.0290
  212MOL0     H28578   0.584  10.696   5.558  1.7687 -2.1487  0.0219
  212MOL0     H28579   0.412  10.683   5.548 -1.7636  0.9067 -2.3080
  212MOL0     H28580   0.615  10.908   5.587  0.8617 -1.7032 -1.3220
  212MOL0     H28581   0.747  11.046   5.700  1.2826 -1.1207 -2.7382
  212MOL0     H28582   0.842  11.162   5.631  0.4529 -0.5075  2.1405
  212MOL0     H28583   0.668  11.204   5.671 -1.3445 -1.6444  0.5682
  212MOL0     H28584   0.805  11.525   5.096 -0.5860 -0.2080 -0.4569
  212MOL0     H28585   0.819  11.774   5.084 -0.0359 -0.2928 -0.1527
  212MOL0     H28586   0.797  11.992   5.072  0.6091 -1.6966  1.0492
  212MOL0     H28587   0.780  12.126   5.202  1.1183  0.2871 -0.0532
  212MOL0     H28588   1.001  11.916   5.223 -0.3741  1.1790  0.4680
  212MOL0     H28589   1.009  12.076   5.158  2.2556 -0.4970  1.4368
  212MOL0     H28590   0.902  11.988   5.431  3.4044 -0.3751  2.1159
  212MOL0     H28591   0.899  12.160   5.375  2.1807  0.2847 -2.2399
  212MOL0     H28592   1.148  12.011   5.463  0.6312  0.2507  1.0514
  212MOL0     H28593   1.132  12.156   5.362  1.2224  1.5169  2.2713
  212MOL0     H28594   1.163  12.139   5.625  0.1117 -1.0446 -1.7824
  212MOL0     H28595   0.989  12.133   5.638 -1.3830  0.4645 -1.0901
  212MOL0     H28596   1.136  12.355   5.483  0.1097 -1.9105 -0.4153
  212MOL0     H28597   0.962  12.338   5.519  0.4889 -1.2433  0.0614
  212MOL0     H28598   1.188  12.400   5.720 -0.1240 -3.6901  1.5320
  212MOL0     H28599   1.026  12.337   5.759  1.4553 -1.1879  0.3887
  212MOL0     H28600   1.055  12.593   5.579 -2.9763  0.1741 -0.8531
  212MOL0     H28601   1.055  12.609   5.749 -0.5375  0.8333 -1.2642
  212MOL0     H28602   0.616  11.809   5.466  0.5799  0.1094  1.5836
  212MOL0     H28603   0.607  11.550   5.461  3.1964 -1.3244 -0.3184
  212MOL0     H28604   0.644  11.161   5.169 -0.2450 -0.9226 -0.5695
  212MOL0     H28605   0.503  10.944   5.182 -0.3792  1.0139 -0.0106
  212MOL0     H28606   1.575   9.393   5.240  1.8612  0.5260  0.7161
  212MOL0     H28607   1.691   9.172   5.247 -1.7612 -4.2787  1.0668
  212MOL0     H28608   1.791   8.727   5.216 -0.2857  1.8561 -1.2571
  212MOL0     H28609   1.987   8.576   5.206  1.0880 -1.1751 -0.2667
  212MOL0     H28610   2.283   8.425   5.291  1.7819  0.3799  0.4288
  212MOL0     H28611   2.199   8.513   5.160  0.3690  0.1769 -0.6099
  212MOL0     H28612   2.450   8.505   5.126  0.6820 -0.6645  1.3315
  212MOL0     H28613   2.467   8.596   5.277 -0.9768  0.2642 -0.6529
  212MOL0     H28614   2.502   8.749   5.106  0.2332 -1.2169  2.0614
  212MOL0     H28615   2.361   8.794   5.202 -1.4590 -0.9319  0.4228
  212MOL0     H28616   2.342   8.842   4.967  0.1087  0.2322  1.2401
  212MOL0     H28617   2.199   8.765   5.031  0.1121 -1.4958 -0.7136
  212MOL0     H28618   2.332   8.503   4.737  3.0098  0.1236  1.8436
  212MOL0     H28619   2.208   8.850   5.447 -0.1443  1.6656 -2.4735
  212MOL0     H28620   2.009   8.990   5.470  0.3225  1.0076 -1.2590
  213MOL0     O28621   9.577   0.787   8.803  0.7357  0.4083 -0.5776
  213MOL0     C28622   9.484   0.858   8.770  0.7146  0.7898 -0.6297
  213MOL0     O28623   9.359   0.866   8.826  0.3813 -0.2257 -0.2708
  213MOL0     C28624   9.319   0.783   8.931  0.3690 -1.4833  0.3361
  213MOL0     C28625   9.402   0.699   9.012  0.3567 -0.5812 -0.1141
  213MOL0     C28626   9.337   0.638   9.112  0.4554  0.4338  0.3019
  213MOL0     C28627   9.203   0.647   9.154  1.2524  0.4108 -0.2254
  213MOL0     O28628   9.142   0.579   9.257 -0.2357  1.0791 -0.0878
  213MOL0     C28629   9.222   0.552   9.380 -0.2670  0.0774 -1.5382
  213MOL0     C28630   9.151   0.581   9.520 -0.4678  0.2238  0.0260
  213MOL0     C28631   9.259   0.609   9.625  0.9062  0.1300  0.1141
  213MOL0     C28632   9.208   0.628   9.769  0.0241 -0.5406  0.2585
  213MOL0     C28633   9.330   0.636   9.865 -0.9540  0.0735  0.1428
  213MOL0     C28634   9.320   0.537   9.985 -0.5816 -0.3657  0.1840
  213MOL0     C28635   9.339   0.390   9.944 -0.6457  0.2137 -0.7542
  213MOL0     C28636   9.383   0.303  10.062 -0.5347  0.5921 -0.1060
  213MOL0     N28637   9.380   0.163  10.032  0.1779 -0.6743  0.7307
  213MOL0     C28638   9.306   0.098   9.931  0.0436 -0.6693  0.0851
  213MOL0     C28639   9.281  -0.024   9.980  0.8327  0.1475  0.3379
  213MOL0     C28640   9.196  -0.117   9.905 -0.6167  0.2362 -0.3812
  213MOL0     C28641   9.048  -0.083   9.920  0.9133  0.5198 -0.3479
  213MOL0     C28642   8.957  -0.209   9.964  0.6281  0.0036 -0.2861
  213MOL0     C28643   8.938  -0.315   9.858  0.0377 -0.3513  0.0502
  213MOL0     O28644   8.820  -0.287   9.774  0.7459 -0.6085  0.2969
  213MOL0     C28645   8.792  -0.360   9.658 -0.5482 -0.1673 -0.5830
  213MOL0     C28646   8.858  -0.476   9.619  0.0643 -0.9995 -0.1645
  213MOL0     C28647   8.814  -0.550   9.506  0.1286 -0.6879 -0.4978
  213MOL0     C28648   8.892  -0.675   9.477 -0.2885  0.2716 -0.7695
  213MOL0     C28649   8.704  -0.498   9.428  1.5280  1.3198 -0.2810
  213MOL0     C28650   8.679  -0.540   9.291  0.9365 -0.0930 -0.0251
  213MOL0     O28651   8.552  -0.542   9.232 -0.5518 -0.3062  0.4056
  213MOL0     C28652   8.552  -0.573   9.098  0.7425 -0.0798  0.1526
  213MOL0     C28653   8.541  -0.489   8.992 -0.0839 -0.2342 -0.0250
  213MOL0     C28654   8.534  -0.539   8.860  0.1204 -0.8738 -0.2665
  213MOL0     C28655   8.526  -0.677   8.840 -0.7994 -0.3760 -0.0095
  213MOL0     O28656   8.513  -0.720   8.704 -0.5100 -0.1131 -0.7230
  213MOL0     C28657   8.515  -0.857   8.689 -0.1153  1.0451  0.5098
  213MOL0     C28658   8.457  -0.897   8.547  0.3252  0.0638 -0.2781
  213MOL0     C28659   8.343  -0.803   8.506 -0.1094  0.3926  0.3150
  213MOL0     C28660   8.234  -0.816   8.600 -0.2350  0.7024 -0.4112
  213MOL0     C28661   8.118  -0.743   8.550  0.3451  0.1488 -0.4568
  213MOL0     C28662   8.002  -0.735   8.650  0.0573  0.5348  0.6104
  213MOL0     C28663   7.907  -0.850   8.643  0.4211 -0.2084  1.4220
  213MOL0     C28664   7.853  -0.886   8.788  0.4917 -0.8098 -0.2025
  213MOL0    Cl28665   7.787  -1.049   8.789 -0.1362 -0.4960 -0.0069
  213MOL0     C28666   8.563  -0.763   8.951 -0.4636  0.6025  0.1863
  213MOL0     C28667   8.564  -0.717   9.079  0.0430 -0.8798 -1.0127
  213MOL0     O28668   8.785  -0.558   9.226 -0.4568  0.5128 -0.2830
  213MOL0     C28669   8.626  -0.387   9.481 -0.1891  0.7937 -0.2441
  213MOL0     C28670   8.673  -0.325   9.594  0.0249  0.1296  0.7306
  213MOL0     N28671   9.348  -0.041  10.095  0.5433  0.2324 -0.6076
  213MOL0     N28672   9.396   0.073  10.134  1.2121  0.2399  1.0387
  213MOL0     C28673   9.128   0.730   9.069 -0.2981  0.3403  0.0059
  213MOL0     C28674   9.181   0.800   8.961  0.1923  0.0150  0.2816
  213MOL0     C28675   9.527   0.948   8.656 -0.2688  0.6995  0.1191
  213MOL0     C28676   9.437   1.035   8.586  0.5683  0.2991  0.1321
  213MOL0     C28677   9.475   1.105   8.472 -0.4956 -0.2333 -0.1917
  213MOL0     C28678   9.608   1.079   8.422 -0.4159 -0.0574 -0.4558
  213MOL0     O28679   9.654   1.147   8.311  0.1607  0.6142  0.1246
  213MOL0     C28680   9.572   1.192   8.198  0.3575 -0.0309 -0.3074
  213MOL0     C28681   9.556   1.082   8.096  0.1626  0.8788  0.3751
  213MOL0     C28682   9.681   0.993   8.058  0.7129 -0.4805  0.1875
  213MOL0     C28683   9.673   0.944   7.918  0.1363  0.3383 -0.6211
  213MOL0     C28684   9.803   0.898   7.862  0.3377  0.5015 -0.1108
  213MOL0     C28685   9.916   0.866   7.836 -0.9789 -0.1971 -0.3454
  213MOL0     C28686   9.696   1.000   8.485  0.4907 -0.1234  0.2413
  213MOL0     C28687   9.655   0.940   8.602 -0.3425  0.2750 -0.3123
  213MOL0     H28688   9.508   0.678   9.006  0.2618 -0.9186 -0.7545
  213MOL0     H28689   9.394   0.565   9.168  2.5411  1.2358 -0.6669
  213MOL0     H28690   9.244   0.446   9.388  2.4935  0.6594 -0.1540
  213MOL0     H28691   9.322   0.597   9.374 -0.7094  1.8533  1.9154
  213MOL0     H28692   9.076   0.661   9.511  0.4217  1.0584 -0.1045
  213MOL0     H28693   9.094   0.491   9.544 -0.3410 -1.6693 -5.3589
  213MOL0     H28694   9.320   0.518   9.624  0.1826 -0.4105  2.1196
  213MOL0     H28695   9.314   0.699   9.596 -1.2635  0.9458 -1.8873
  213MOL0     H28696   9.154   0.723   9.773 -0.8373 -0.8952 -1.8311
  213MOL0     H28697   9.137   0.549   9.794 -1.4660  0.0475 -1.8654
  213MOL0     H28698   9.427   0.624   9.815 -0.4075  2.2733  0.5324
  213MOL0     H28699   9.319   0.731   9.919 -3.0043 -0.8341  1.4105
  213MOL0     H28700   9.401   0.550  10.056 -2.1448  2.6217  1.6011
  213MOL0     H28701   9.226   0.536  10.041 -1.1446 -0.4115 -0.7369
  213MOL0     H28702   9.243   0.360   9.902 -0.1807 -4.6479  1.0513
  213MOL0     H28703   9.413   0.371   9.866  1.0441 -1.1752  1.0823
  213MOL0     H28704   9.325   0.322  10.152 -0.9625  1.0408 -0.4716
  213MOL0     H28705   9.486   0.325  10.094  0.7080 -0.2405 -3.1024
  213MOL0     H28706   9.250   0.134   9.845  2.1309  1.1099 -0.6199
  213MOL0     H28707   9.229  -0.106   9.801  1.3624 -1.9179 -0.0745
  213MOL0     H28708   9.220  -0.214   9.948 -4.0247 -0.2248  0.7185
  213MOL0     H28709   9.008  -0.046   9.825 -0.8915 -0.2132  0.0871
  213MOL0     H28710   9.015  -0.006   9.991 -2.5579 -1.5306  0.4989
  213MOL0     H28711   8.858  -0.164   9.979  2.0942  2.3493  3.8080
  213MOL0     H28712   8.978  -0.241  10.066 -2.9778 -0.8500  0.3494
  213MOL0     H28713   8.930  -0.421   9.884  3.0731 -0.5201  0.6806
  213MOL0     H28714   9.029  -0.306   9.798 -0.2094 -0.2157 -0.3096
  213MOL0     H28715   8.948  -0.505   9.672  1.5899  1.5159 -1.1649
  213MOL0     H28716   8.840  -0.740   9.404  1.9187 -1.1713 -1.1483
  213MOL0     H28717   8.990  -0.654   9.434  0.3190  1.0016  0.9234
  213MOL0     H28718   8.893  -0.723   9.575 -0.4685 -3.0624 -2.2251
  213MOL0     H28719   8.527  -0.382   9.002  3.7273  0.3228  1.2965
  213MOL0     H28720   8.529  -0.472   8.774  3.8912  0.1978  0.1522
  213MOL0     H28721   8.617  -0.896   8.700  0.4638  1.5509 -2.2039
  213MOL0     H28722   8.449  -0.902   8.763 -0.4416  1.6543  0.5947
  213MOL0     H28723   8.536  -0.894   8.472 -0.2429  3.4986 -0.9149
  213MOL0     H28724   8.416  -0.998   8.554  0.2320  0.1449  0.4209
  213MOL0     H28725   8.309  -0.829   8.405  1.5315 -2.6842  0.4524
  213MOL0     H28726   8.391  -0.704   8.506  2.3991 -0.6612  3.0494
  213MOL0     H28727   8.209  -0.922   8.607  3.1003 -0.0724  2.4680
  213MOL0     H28728   8.269  -0.787   8.699 -2.4758 -0.2170  0.7322
  213MOL0     H28729   8.078  -0.779   8.455  0.5156 -1.9459  0.2088
  213MOL0     H28730   8.143  -0.637   8.535 -1.0080  1.2738  3.7713
  213MOL0     H28731   8.038  -0.742   8.753 -2.6337  0.4681  1.6235
  213MOL0     H28732   7.950  -0.639   8.642 -1.3080 -0.2889 -1.1688
  213MOL0     H28733   7.957  -0.936   8.596 -0.5096 -0.6258  1.1791
  213MOL0     H28734   7.828  -0.820   8.575  0.6528  1.6268  1.9167
  213MOL0     H28735   7.783  -0.812   8.826  2.6227  0.5795  1.2538
  213MOL0     H28736   7.934  -0.882   8.862 -0.3067  0.9533  0.6474
  213MOL0     H28737   8.578  -0.868   8.930 -2.9680 -0.0893  1.4699
  213MOL0     H28738   8.575  -0.775   9.170 -0.7078  0.4339 -0.0340
  213MOL0     H28739   8.537  -0.343   9.438 -1.0646 -0.7051  0.0004
  213MOL0     H28740   8.613  -0.247   9.641 -2.3837 -0.7433 -0.7027
  213MOL0     H28741   9.025   0.756   9.092 -0.6470 -0.8842 -0.1414
  213MOL0     H28742   9.116   0.865   8.904  0.9209  0.3539 -0.1771
  213MOL0     H28743   9.336   1.040   8.624  0.0449 -0.6313 -1.0817
  213MOL0     H28744   9.408   1.175   8.422  2.5562  2.0396 -1.3888
  213MOL0     H28745   9.474   1.227   8.229  0.4244  0.9609 -1.1563
  213MOL0     H28746   9.611   1.285   8.155 -0.5567  0.3266 -0.3681
  213MOL0     H28747   9.523   1.131   8.004 -3.7662 -1.4943  0.2478
  213MOL0     H28748   9.483   1.003   8.119 -1.1466  1.3530 -1.8874
  213MOL0     H28749   9.694   0.907   8.125  1.4154 -2.0401 -1.8260
  213MOL0     H28750   9.773   1.051   8.069  1.3889 -1.3540 -0.6625
  213MOL0     H28751   9.648   1.024   7.847 -0.1287  0.9018  0.0938
  213MOL0     H28752   9.605   0.858   7.917  1.2089 -0.6864  2.6548
  213MOL0     H28753  10.018   0.835   7.827 -1.3670 -1.2009 -1.6916
  213MOL0     H28754   9.796   0.981   8.449  1.8084 -0.3821  3.7127
  213MOL0     H28755   9.740   0.885   8.641  1.0610  1.6751 -1.2606
  214MOL0     O28756   2.319   4.822   6.509  0.0660  0.6155  0.1971
  214MOL0     C28757   2.244   4.771   6.594 -0.5608 -1.0453 -0.1935
  214MOL0     O28758   2.248   4.656   6.651  0.0861  0.4555 -1.0893
  214MOL0     C28759   2.364   4.580   6.628 -0.0319 -1.0156 -0.1003
  214MOL0     C28760   2.369   4.480   6.528  0.4383 -0.5804 -0.9693
  214MOL0     C28761   2.499   4.421   6.503  0.3910 -0.3709  0.2492
  214MOL0     C28762   2.609   4.448   6.580  0.1721 -0.2071  0.4990
  214MOL0     O28763   2.735   4.396   6.557 -0.1639 -0.5622  0.6702
  214MOL0     C28764   2.836   4.497   6.533  0.0850  0.0707 -0.1875
  214MOL0     C28765   2.968   4.417   6.539 -0.0070 -0.5762  0.1596
  214MOL0     C28766   3.017   4.383   6.679  0.4173  0.5947 -0.3320
  214MOL0     C28767   3.139   4.281   6.663  0.2249 -0.0022 -0.4624
  214MOL0     C28768   3.200   4.235   6.800 -0.8471  0.8524 -0.2768
  214MOL0     C28769   3.339   4.174   6.789 -0.8902  0.4656 -0.2269
  214MOL0     C28770   3.403   4.101   6.919 -0.2899  0.3598 -0.4846
  214MOL0     C28771   3.330   3.961   6.944 -0.2307 -1.5176 -0.1742
  214MOL0     N28772   3.409   3.858   6.874  0.1062  0.0598  0.7980
  214MOL0     C28773   3.523   3.798   6.917 -0.4810 -0.6773 -0.7885
  214MOL0     C28774   3.568   3.717   6.823  0.5427  0.9635 -0.2049
  214MOL0     C28775   3.694   3.638   6.812  0.8213 -0.1978 -0.4938
  214MOL0     C28776   3.820   3.695   6.896  0.3264  0.4648  1.2412
  214MOL0     C28777   3.927   3.583   6.890 -0.4275 -0.3928  0.3196
  214MOL0     C28778   4.069   3.608   6.942  0.6942  0.2636  0.0337
  214MOL0     O28779   4.107   3.725   6.869 -0.5044 -1.0155  0.1102
  214MOL0     C28780   4.217   3.797   6.904 -1.2528  0.3818  1.1992
  214MOL0     C28781   4.239   3.922   6.838  0.4295  0.7464 -0.0291
  214MOL0     C28782   4.340   4.015   6.873 -0.3855 -0.5673 -0.6256
  214MOL0     C28783   4.360   4.136   6.792 -0.7235 -0.1823  0.0277
  214MOL0     C28784   4.432   3.977   6.980  0.4692 -1.4261 -0.1402
  214MOL0     C28785   4.539   4.070   7.028 -0.4418 -0.1046 -0.2451
  214MOL0     O28786   4.544   4.077   7.159  0.5133  0.5705 -0.9536
  214MOL0     C28787   4.651   4.122   7.222 -0.6847 -0.0502 -0.0343
  214MOL0     C28788   4.779   4.081   7.196  0.1807  0.6406  0.4555
  214MOL0     C28789   4.894   4.137   7.262  0.5038 -0.4182 -0.6792
  214MOL0     C28790   4.872   4.242   7.351  0.3616 -1.0707  0.1475
  214MOL0     O28791   4.976   4.320   7.390  0.2572 -0.3419 -0.3338
  214MOL0     C28792   5.003   4.315   7.525 -0.6179 -0.1050  0.6104
  214MOL0     C28793   5.142   4.348   7.566  0.3043  0.7936 -0.9509
  214MOL0     C28794   5.141   4.395   7.715 -0.6657  0.2193 -0.9980
  214MOL0     C28795   5.273   4.430   7.773 -0.6707  0.7470  0.0535
  214MOL0     C28796   5.273   4.547   7.874 -0.3578  0.3234  0.0099
  214MOL0     C28797   5.209   4.500   8.003  0.7517 -0.8645 -0.0838
  214MOL0     C28798   5.249   4.595   8.122 -0.0246  0.6486  0.0155
  214MOL0     C28799   5.207   4.552   8.254 -0.2683 -0.0520 -0.3124
  214MOL0    Cl28800   5.260   4.659   8.385  0.2827  0.5521 -0.0676
  214MOL0     C28801   4.741   4.283   7.374 -0.2795 -0.1492  0.0675
  214MOL0     C28802   4.627   4.222   7.312  0.7691  0.0648  0.5100
  214MOL0     O28803   4.602   4.145   6.952  0.1672  0.2564 -0.8811
  214MOL0     C28804   4.420   3.851   7.038 -1.0015 -0.6166  0.4192
  214MOL0     C28805   4.317   3.765   7.006  0.2028 -0.0580 -0.5726
  214MOL0     N28806   3.483   3.724   6.720 -0.0470  0.1400  0.5661
  214MOL0     N28807   3.378   3.804   6.748 -0.8982  0.0990 -0.4357
  214MOL0     C28808   2.592   4.526   6.694 -0.8301 -0.9345  1.6008
  214MOL0     C28809   2.471   4.593   6.718 -0.5858 -0.2586  0.3785
  214MOL0     C28810   2.145   4.869   6.642  0.5861 -0.1644 -0.3075
  214MOL0     C28811   2.034   4.822   6.720  0.5068 -0.1355 -1.1875
  214MOL0     C28812   1.942   4.909   6.763  0.6233 -0.7218 -0.9721
  214MOL0     C28813   1.945   5.046   6.735 -0.1083 -0.0426 -0.4315
  214MOL0     O28814   1.855   5.144   6.779 -0.6456  0.2918  0.2875
  214MOL0     C28815   1.706   5.132   6.790 -0.8924  0.0310 -0.2847
  214MOL0     C28816   1.626   5.251   6.749  0.2199 -0.2000 -0.4772
  214MOL0     C28817   1.593   5.354   6.856  0.2684  0.4095  0.0773
  214MOL0     C28818   1.555   5.487   6.805  0.5344  0.3782 -0.3705
  214MOL0     C28819   1.508   5.571   6.916  0.0818 -1.0780 -0.6647
  214MOL0     C28820   1.473   5.664   6.989  0.5042 -0.4375  0.8887
  214MOL0     C28821   2.049   5.092   6.651 -0.2729  0.0012 -0.0713
  214MOL0     C28822   2.153   5.010   6.613  0.1365  0.0400 -1.0302
  214MOL0     H28823   2.274   4.452   6.485 -1.1128 -2.2522  2.9886
  214MOL0     H28824   2.506   4.364   6.411 -0.9525  0.9514 -0.7232
  214MOL0     H28825   2.828   4.550   6.437  0.4490  1.5358  0.5632
  214MOL0     H28826   2.835   4.583   6.601  2.2188  0.5585 -0.6841
  214MOL0     H28827   2.952   4.330   6.474 -2.2604 -0.2994  0.2518
  214MOL0     H28828   3.049   4.475   6.495 -2.5813  2.3657 -1.0787
  214MOL0     H28829   3.061   4.478   6.712 -0.9395  0.9839  0.4290
  214MOL0     H28830   2.932   4.349   6.739 -0.0087  2.3512  0.1231
  214MOL0     H28831   3.100   4.186   6.624  2.3181 -1.4721  0.7956
  214MOL0     H28832   3.213   4.321   6.594 -1.7905  1.3355 -1.9445
  214MOL0     H28833   3.203   4.313   6.877  0.6617  0.2388  0.3221
  214MOL0     H28834   3.129   4.161   6.839 -1.0191  1.2079  0.1071
  214MOL0     H28835   3.341   4.099   6.709  0.6206  0.9471 -0.6740
  214MOL0     H28836   3.411   4.255   6.772  2.5263 -1.9492  1.3888
  214MOL0     H28837   3.511   4.094   6.903  0.2754  0.2767  2.7040
  214MOL0     H28838   3.393   4.166   7.006  0.3928  0.5452 -0.5389
  214MOL0     H28839   3.227   3.955   6.910 -0.2357 -1.2529 -0.2087
  214MOL0     H28840   3.348   3.941   7.050  2.3218  4.7241  1.0349
  214MOL0     H28841   3.584   3.819   7.005 -0.4136 -0.3218 -0.9154
  214MOL0     H28842   3.670   3.539   6.852 -0.8237  0.5995  0.6066
  214MOL0     H28843   3.728   3.632   6.709  1.0858 -1.6313 -0.3479
  214MOL0     H28844   3.803   3.722   7.001 -0.3468 -1.2824  1.6040
  214MOL0     H28845   3.855   3.787   6.848 -2.0181  1.3894  1.1764
  214MOL0     H28846   3.942   3.557   6.785 -0.8837  0.5195  0.0113
  214MOL0     H28847   3.894   3.495   6.946 -1.2409 -1.9652 -2.4555
  214MOL0     H28848   4.140   3.527   6.920 -0.3046 -1.9196  4.0193
  214MOL0     H28849   4.068   3.632   7.048  0.8885  2.3235 -0.3865
  214MOL0     H28850   4.173   3.936   6.752 -1.4150 -3.2054  0.4961
  214MOL0     H28851   4.390   4.218   6.858  1.3864  0.9336 -2.1401
  214MOL0     H28852   4.451   4.127   6.732 -1.1133  3.3792 -1.3652
  214MOL0     H28853   4.275   4.162   6.727 -0.0745  1.3089 -0.2799
  214MOL0     H28854   4.804   4.003   7.125  1.3833  2.4579 -1.2411
  214MOL0     H28855   5.001   4.123   7.250  0.8262  1.1381  0.1670
  214MOL0     H28856   4.927   4.372   7.579 -1.1430  0.7192 -0.9459
  214MOL0     H28857   4.990   4.208   7.547 -0.5141 -0.0464  0.9597
  214MOL0     H28858   5.197   4.254   7.557 -1.2306 -0.1184 -1.0932
  214MOL0     H28859   5.192   4.424   7.505  0.8510 -0.2148 -1.7960
  214MOL0     H28860   5.097   4.320   7.782  1.2831  1.0228  1.3153
  214MOL0     H28861   5.078   4.484   7.716  0.4341  1.0335 -1.6348
  214MOL0     H28862   5.322   4.344   7.821  1.9030 -0.2990 -3.9969
  214MOL0     H28863   5.332   4.458   7.685 -0.4620 -1.8489 -0.7185
  214MOL0     H28864   5.238   4.646   7.840  0.4513  1.1120  1.3888
  214MOL0     H28865   5.377   4.555   7.906 -1.1889  1.7025  2.6529
  214MOL0     H28866   5.099   4.498   8.002  0.7569 -1.2388  0.0312
  214MOL0     H28867   5.251   4.401   8.020  1.4867 -0.1115  3.2695
  214MOL0     H28868   5.189   4.686   8.109 -1.6408 -0.0140  2.2985
  214MOL0     H28869   5.357   4.610   8.123  0.2662 -0.9814  3.0012
  214MOL0     H28870   5.252   4.455   8.275 -4.1761 -2.1655 -0.6784
  214MOL0     H28871   5.101   4.528   8.266 -0.0418 -1.7850 -1.3595
  214MOL0     H28872   4.722   4.374   7.431 -2.8591  1.6582 -3.3241
  214MOL0     H28873   4.525   4.249   7.340  0.2025 -1.8657  0.4035
  214MOL0     H28874   4.487   3.828   7.120  3.3200 -0.1966 -2.6723
  214MOL0     H28875   4.308   3.682   7.075 -1.2092  1.9707  1.8609
  214MOL0     H28876   2.668   4.529   6.772  0.4360  0.4379  0.3774
  214MOL0     H28877   2.465   4.664   6.799  2.8310  1.2124 -0.5090
  214MOL0     H28878   2.019   4.720   6.754  3.9212 -0.8927 -1.5094
  214MOL0     H28879   1.852   4.870   6.809  1.2255 -0.7773  0.1945
  214MOL0     H28880   1.663   5.060   6.721  0.3173 -1.0732  0.0818
  214MOL0     H28881   1.679   5.094   6.889 -1.7771  3.5710  0.9811
  214MOL0     H28882   1.526   5.215   6.722  0.7134 -2.3238  0.3378
  214MOL0     H28883   1.680   5.304   6.670 -1.0960 -0.1883 -1.4088
  214MOL0     H28884   1.685   5.362   6.915  0.5407 -0.8874 -0.1428
  214MOL0     H28885   1.518   5.326   6.930  0.1696 -0.0084 -0.1767
  214MOL0     H28886   1.474   5.477   6.733 -0.3193 -0.1519  0.6390
  214MOL0     H28887   1.643   5.538   6.765 -0.4471  0.8548 -2.0337
  214MOL0     H28888   1.443   5.742   7.056  0.1589 -2.4663  3.2708
  214MOL0     H28889   2.041   5.200   6.640  0.2879 -0.1688 -2.8980
  214MOL0     H28890   2.222   5.063   6.548 -0.0768  1.2224 -0.3255
  215MOL0     O28891   1.637   1.717   2.369 -0.0556 -0.1609  0.2541
  215MOL0     C28892   1.521   1.734   2.403 -0.0949 -0.2303 -0.5885
  215MOL0     O28893   1.462   1.676   2.508  0.3300  0.1328  0.0720
  215MOL0     C28894   1.530   1.597   2.597 -0.5538 -0.0557  0.1047
  215MOL0     C28895   1.640   1.636   2.669 -0.8888 -0.3642 -0.0329
  215MOL0     C28896   1.702   1.565   2.772 -0.6638 -0.0850  0.7568
  215MOL0     C28897   1.646   1.444   2.810 -0.5041 -0.2216 -0.3567
  215MOL0     O28898   1.717   1.379   2.908 -0.4771 -0.6162  0.5477
  215MOL0     C28899   1.650   1.280   2.990 -0.1055  1.0731 -0.1625
  215MOL0     C28900   1.539   1.330   3.066  0.0686 -0.6321 -0.3407
  215MOL0     C28901   1.569   1.429   3.188 -0.8761  1.3615 -0.0645
  215MOL0     C28902   1.638   1.560   3.165 -0.0347 -0.2210  0.3581
  215MOL0     C28903   1.754   1.580   3.258 -0.7050  0.4064  0.0207
  215MOL0     C28904   1.873   1.488   3.238 -0.8971 -1.0424 -0.3520
  215MOL0     C28905   1.999   1.536   3.326 -0.3061 -0.7027 -0.1204
  215MOL0     C28906   1.970   1.463   3.461 -0.8502 -0.9740 -0.3131
  215MOL0     N28907   2.062   1.506   3.565  0.4044 -0.0747 -0.1524
  215MOL0     C28908   2.197   1.495   3.560  0.5576  0.3163 -0.1259
  215MOL0     C28909   2.228   1.561   3.671  0.2905  0.1261 -0.5358
  215MOL0     C28910   2.369   1.591   3.707 -0.1758  0.2504 -0.3636
  215MOL0     C28911   2.420   1.563   3.864  1.6438  1.0954  0.3923
  215MOL0     C28912   2.565   1.527   3.866  0.2323  0.3210  0.2930
  215MOL0     C28913   2.646   1.656   3.847  0.1111 -0.1712  1.2050
  215MOL0     O28914   2.642   1.679   3.702  0.3414 -0.4755 -0.3624
  215MOL0     C28915   2.743   1.741   3.651 -0.4004 -0.0275  0.6274
  215MOL0     C28916   2.759   1.720   3.516 -0.5749 -0.6900  0.8276
  215MOL0     C28917   2.869   1.775   3.443  1.0613 -0.5518 -0.2204
  215MOL0     C28918   2.870   1.732   3.293 -0.4014 -0.2069 -0.1587
  215MOL0     C28919   2.974   1.846   3.510  0.1955 -0.4540  0.5244
  215MOL0     C28920   3.102   1.891   3.449 -0.8051  0.8182 -0.2368
  215MOL0     O28921   3.140   1.823   3.330  0.0208  0.2744  0.2698
  215MOL0     C28922   3.263   1.851   3.273 -0.8269  0.4954  0.2263
  215MOL0     C28923   3.261   1.933   3.156  0.0295 -0.6867 -0.3323
  215MOL0     C28924   3.378   1.973   3.091  0.3661 -0.2284  0.1997
  215MOL0     C28925   3.505   1.934   3.145 -0.7308 -0.9516  0.9598
  215MOL0     O28926   3.631   1.956   3.084 -0.0303  0.9976 -0.1426
  215MOL0     C28927   3.642   2.017   2.957  0.3137 -0.0145  0.3961
  215MOL0     C28928   3.785   2.065   2.950 -0.7354  0.2242  0.4431
  215MOL0     C28929   3.848   2.065   2.815 -0.9800  0.2512  1.5748
  215MOL0     C28930   4.002   2.071   2.810 -0.3739 -0.0746  0.3524
  215MOL0     C28931   4.060   2.035   2.673 -1.3426  0.2208  0.9692
  215MOL0     C28932   4.051   2.149   2.575  0.9363 -0.6128 -0.7871
  215MOL0     C28933   4.118   2.119   2.449  0.1865  0.1313 -0.0780
  215MOL0     C28934   4.035   2.172   2.327  0.2468  0.1488 -0.7246
  215MOL0    Cl28935   4.036   2.344   2.313 -0.2484  0.1032  0.5777
  215MOL0     C28936   3.506   1.851   3.256 -0.1116  0.3858  0.4676
  215MOL0     C28937   3.389   1.802   3.323 -0.2371 -0.1090  0.3028
  215MOL0     O28938   3.166   1.989   3.493 -0.1813  0.1267 -0.2142
  215MOL0     C28939   2.953   1.863   3.644  0.4519  0.5544 -0.0677
  215MOL0     C28940   2.843   1.811   3.714  0.0116 -0.3247  0.1192
  215MOL0     N28941   2.120   1.589   3.752  0.7476  0.8041  0.0478
  215MOL0     N28942   2.019   1.565   3.681  0.6218 -0.4206 -0.8242
  215MOL0     C28943   1.528   1.402   2.749 -0.8058 -0.3801  0.3668
  215MOL0     C28944   1.477   1.468   2.639  0.1302 -0.3355 -0.3764
  215MOL0     C28945   1.436   1.832   2.334  0.0926  1.0137  0.3989
  215MOL0     C28946   1.475   1.871   2.211  0.5833 -0.9151 -0.0512
  215MOL0     C28947   1.406   1.970   2.141  0.1958 -0.5840 -0.7480
  215MOL0     C28948   1.294   2.030   2.192 -0.7554  0.8036 -0.2575
  215MOL0     O28949   1.237   2.113   2.106 -0.2296 -0.2909  0.4369
  215MOL0     C28950   1.101   2.150   2.130 -0.6211 -0.2973 -0.0948
  215MOL0     C28951   1.004   2.059   2.072  0.5510  0.2555  0.5110
  215MOL0     C28952   1.039   2.018   1.928  0.2473 -0.3744 -0.2694
  215MOL0     C28953   0.933   1.914   1.886 -0.6317  0.3351  0.2359
  215MOL0     C28954   0.862   1.956   1.759  0.6441 -0.7879 -0.3389
  215MOL0     C28955   0.796   1.971   1.655 -0.2588 -0.3158  1.1532
  215MOL0     C28956   1.238   1.977   2.315 -0.5181  0.1807 -0.1385
  215MOL0     C28957   1.315   1.881   2.386 -0.1128 -0.3631  0.4886
  215MOL0     H28958   1.668   1.740   2.656 -1.2506 -0.3212 -0.5074
  215MOL0     H28959   1.791   1.603   2.822 -0.6424  1.5552 -0.4568
  215MOL0     H28960   1.614   1.196   2.930 -1.7890  0.6295  1.3816
  215MOL0     H28961   1.720   1.229   3.056 -2.6795 -0.0965  1.8602
  215MOL0     H28962   1.463   1.373   3.001 -0.3881  1.8460  1.6540
  215MOL0     H28963   1.506   1.244   3.124  1.2036 -0.0523  1.2626
  215MOL0     H28964   1.469   1.447   3.230 -1.6027 -2.3141  0.1187
  215MOL0     H28965   1.619   1.365   3.261 -3.2101 -0.9849 -0.3852
  215MOL0     H28966   1.675   1.572   3.063 -1.9265  0.7804 -0.2650
  215MOL0     H28967   1.559   1.634   3.176 -0.1615 -0.6588  3.0298
  215MOL0     H28968   1.789   1.682   3.245 -1.0950  1.3367  4.7732
  215MOL0     H28969   1.716   1.563   3.359 -2.7838  1.4064 -0.5290
  215MOL0     H28970   1.861   1.380   3.242  2.1935 -1.4703 -0.4887
  215MOL0     H28971   1.893   1.502   3.131 -0.2532 -0.8104 -0.2048
  215MOL0     H28972   2.093   1.512   3.276 -1.1531  1.0742 -2.7825
  215MOL0     H28973   1.994   1.645   3.333 -0.9781 -0.6373 -1.3465
  215MOL0     H28974   1.982   1.354   3.453  2.9268 -0.6088 -1.7377
  215MOL0     H28975   1.867   1.494   3.482 -1.3386 -2.1808 -0.7837
  215MOL0     H28976   2.261   1.446   3.487  1.1783 -0.4793  0.9156
  215MOL0     H28977   2.438   1.541   3.638  3.2623  0.4515  2.6606
  215MOL0     H28978   2.388   1.699   3.706 -4.5011  1.4428  4.3630
  215MOL0     H28979   2.354   1.484   3.902  0.6256  2.2663  1.1297
  215MOL0     H28980   2.407   1.659   3.913  2.0742  0.6329  1.4583
  215MOL0     H28981   2.593   1.464   3.781 -2.6415  3.6849 -3.5579
  215MOL0     H28982   2.584   1.477   3.961 -1.0735 -0.4804  0.1605
  215MOL0     H28983   2.742   1.643   3.898 -0.6146 -2.1199  2.1879
  215MOL0     H28984   2.611   1.743   3.905 -4.8263 -0.3442 -0.9859
  215MOL0     H28985   2.686   1.669   3.454 -1.6929  2.9976 -1.2243
  215MOL0     H28986   2.914   1.633   3.280  0.6204  0.5127 -2.6915
  215MOL0     H28987   2.770   1.727   3.249 -0.7592 -0.0993  0.6121
  215MOL0     H28988   2.931   1.799   3.233 -0.4024  1.9999  2.1430
  215MOL0     H28989   3.169   1.982   3.125  0.0150 -0.8028 -0.4741
  215MOL0     H28990   3.373   2.034   3.001  3.2414  0.7168  0.5727
  215MOL0     H28991   3.621   1.950   2.874  2.1221  0.2929 -0.3722
  215MOL0     H28992   3.575   2.101   2.937  0.5786 -0.3872 -2.3876
  215MOL0     H28993   3.791   2.165   2.994  0.8455 -0.3253  1.5479
  215MOL0     H28994   3.844   2.006   3.020 -1.0725 -0.0219  0.5210
  215MOL0     H28995   3.813   2.146   2.751 -0.1439 -1.8257 -1.7944
  215MOL0     H28996   3.818   1.972   2.766 -0.1232  0.0762  1.3540
  215MOL0     H28997   4.045   2.162   2.853  2.7326 -0.8587 -0.8810
  215MOL0     H28998   4.040   1.997   2.881  0.7399 -0.5899 -0.7579
  215MOL0     H28999   4.013   1.943   2.637 -0.2643 -0.2054  0.6080
  215MOL0     H29000   4.165   2.007   2.689 -2.0791 -1.2251  3.9822
  215MOL0     H29001   3.947   2.179   2.566  0.6454  0.2972  3.5163
  215MOL0     H29002   4.088   2.241   2.622 -3.6828  0.3363  1.5395
  215MOL0     H29003   4.111   2.011   2.429  1.0108  0.3631 -1.7291
  215MOL0     H29004   4.220   2.158   2.441  0.7723 -1.6781 -2.3542
  215MOL0     H29005   3.931   2.138   2.334 -0.2035  1.7902  1.7530
  215MOL0     H29006   4.066   2.114   2.240  0.7412 -2.9603  1.3716
  215MOL0     H29007   3.602   1.817   3.293  0.2849  0.3138 -0.5815
  215MOL0     H29008   3.395   1.730   3.403 -0.8807  0.7894  1.1958
  215MOL0     H29009   3.032   1.918   3.693 -0.0607  0.5015  0.8436
  215MOL0     H29010   2.819   1.834   3.817 -3.9000 -2.4037 -0.1349
  215MOL0     H29011   1.487   1.309   2.787  1.6826 -0.4687  3.1987
  215MOL0     H29012   1.378   1.439   2.605  0.4643 -0.4013 -1.3274
  215MOL0     H29013   1.561   1.836   2.155  0.9359  0.2340 -0.2429
  215MOL0     H29014   1.451   1.990   2.045  4.9694  0.5453  1.4143
  215MOL0     H29015   1.070   2.169   2.233 -0.2524  3.8758 -0.6032
  215MOL0     H29016   1.088   2.249   2.085 -0.4243  1.7095  3.7925
  215MOL0     H29017   0.907   2.109   2.066  1.0318  1.0692 -0.8895
  215MOL0     H29018   1.005   1.975   2.142 -0.2314  0.5631  0.9066
  215MOL0     H29019   1.142   1.982   1.936 -1.1589 -4.4876  3.7955
  215MOL0     H29020   1.042   2.113   1.873  0.5073  0.6690  1.4869
  215MOL0     H29021   0.854   1.922   1.962  1.2273  1.2160  2.1554
  215MOL0     H29022   0.963   1.809   1.888  0.9683  0.7513 -0.6765
  215MOL0     H29023   0.729   1.999   1.576  1.5982 -0.8288 -0.6876
  215MOL0     H29024   1.158   2.028   2.366 -0.8155  0.4795 -0.8884
  215MOL0     H29025   1.288   1.841   2.483 -1.4028  0.6405  0.5823
  216MOL0     O29026   3.160   4.489   7.677  0.8951 -0.6261 -0.0278
  216MOL0     C29027   3.127   4.468   7.791  0.7769 -0.1260 -0.1909
  216MOL0     O29028   3.024   4.386   7.827 -0.0625 -0.3913 -0.2970
  216MOL0     C29029   2.958   4.316   7.731 -0.3615 -1.4995 -0.3273
  216MOL0     C29030   2.836   4.368   7.697 -0.4248 -0.6736 -0.7007
  216MOL0     C29031   2.751   4.321   7.605  0.1308  0.5181  0.0027
  216MOL0     C29032   2.804   4.208   7.538  0.0129  0.4736 -0.8362
  216MOL0     O29033   2.740   4.157   7.428 -0.2577 -0.3458 -0.6794
  216MOL0     C29034   2.600   4.168   7.411  0.3433  0.2770 -0.8800
  216MOL0     C29035   2.563   4.117   7.264  0.4412  0.0651 -0.1813
  216MOL0     C29036   2.427   4.172   7.219  0.6843 -0.6921 -0.4960
  216MOL0     C29037   2.435   4.174   7.064  0.8220 -0.2212 -0.6105
  216MOL0     C29038   2.308   4.234   6.996  0.3654 -0.2099  0.0218
  216MOL0     C29039   2.328   4.265   6.846  0.2934 -0.3971  0.0285
  216MOL0     C29040   2.313   4.128   6.758 -0.2664 -0.7192 -0.4555
  216MOL0     C29041   2.175   4.082   6.727  0.6953 -0.5238 -0.8836
  216MOL0     N29042   2.125   4.159   6.609 -0.2197  0.5949 -0.1487
  216MOL0     C29043   2.161   4.128   6.478 -0.5950  0.7664 -0.1829
  216MOL0     C29044   2.098   4.215   6.393 -0.4491  0.6913  0.6577
  216MOL0     C29045   2.122   4.228   6.246  0.2676 -0.8795 -0.2765
  216MOL0     C29046   2.252   4.299   6.211  0.5201 -0.5253  0.8358
  216MOL0     C29047   2.260   4.298   6.053  0.0823  0.1756 -0.1459
  216MOL0     C29048   2.395   4.349   5.985  0.0380 -0.1364 -0.3824
  216MOL0     O29049   2.488   4.246   5.978 -0.1139  1.0924 -0.7026
  216MOL0     C29050   2.596   4.272   5.904 -1.7786  0.1555 -0.5609
  216MOL0     C29051   2.620   4.379   5.823 -0.3837 -0.6233  0.9819
  216MOL0     C29052   2.749   4.411   5.768 -0.1087 -0.1772  0.1306
  216MOL0     C29053   2.754   4.539   5.680 -0.8908  0.3918 -0.2011
  216MOL0     C29054   2.851   4.310   5.795  0.7540  0.8785  0.4407
  216MOL0     C29055   2.988   4.304   5.740 -0.6248  0.1889  0.4194
  216MOL0     O29056   3.085   4.232   5.799  1.0630 -0.4469 -0.1616
  216MOL0     C29057   3.200   4.221   5.728  1.4099 -0.3325  0.4062
  216MOL0     C29058   3.298   4.328   5.727 -1.2894 -0.4280 -0.0234
  216MOL0     C29059   3.429   4.305   5.671  0.5044  0.2597 -0.9611
  216MOL0     C29060   3.452   4.190   5.595  0.0924 -0.4795 -0.4365
  216MOL0     O29061   3.578   4.164   5.541 -0.5147  0.2412 -0.5419
  216MOL0     C29062   3.638   4.037   5.594  0.9410 -0.2746  0.7405
  216MOL0     C29063   3.784   4.061   5.642  0.6442  0.0566  0.8486
  216MOL0     C29064   3.799   4.049   5.787  0.3584 -0.4746  0.0454
  216MOL0     C29065   3.777   3.909   5.828  0.7846  0.6542  0.4585
  216MOL0     C29066   3.771   3.899   5.973 -0.0760 -0.3010 -0.1184
  216MOL0     C29067   3.804   3.750   6.018  0.5361 -0.2850 -0.4611
  216MOL0     C29068   3.697   3.658   5.975  1.5755  0.2183  0.1920
  216MOL0     C29069   3.742   3.521   6.015  0.2317  0.4786 -0.3438
  216MOL0    Cl29070   3.656   3.389   5.927  0.4378 -0.1169 -0.3640
  216MOL0     C29071   3.353   4.097   5.581 -0.3299 -0.2941  0.3264
  216MOL0     C29072   3.226   4.112   5.644 -0.1636  0.5482  0.3246
  216MOL0     O29073   2.995   4.359   5.634  0.7160  0.3269 -0.2185
  216MOL0     C29074   2.826   4.209   5.897 -0.7735  0.5565  0.0311
  216MOL0     C29075   2.693   4.181   5.943  0.3896 -0.7859  0.8490
  216MOL0     N29076   2.023   4.300   6.474  0.5132 -1.0549  0.0584
  216MOL0     N29077   2.053   4.274   6.604  0.2028  0.0247 -0.9062
  216MOL0     C29078   2.930   4.152   7.566  0.0007 -0.7977 -0.1197
  216MOL0     C29079   3.010   4.207   7.665 -0.6387  0.3903 -0.2687
  216MOL0     C29080   3.202   4.549   7.899  0.1712 -0.8576 -0.8841
  216MOL0     C29081   3.307   4.635   7.861  0.2644 -0.2546 -0.7660
  216MOL0     C29082   3.375   4.707   7.959 -0.4463  0.3299  0.6483
  216MOL0     C29083   3.335   4.696   8.095  0.4304 -0.4934 -0.0965
  216MOL0     O29084   3.407   4.767   8.183 -0.1834 -0.1944  0.8441
  216MOL0     C29085   3.362   4.773   8.314 -0.7223  0.4192 -0.9019
  216MOL0     C29086   3.219   4.835   8.348  0.0134  0.7076 -0.1206
  216MOL0     C29087   3.221   4.989   8.309  0.5269  1.0272 -0.5908
  216MOL0     C29088   3.144   5.032   8.180 -0.4002  0.6310  0.4243
  216MOL0     C29089   3.009   4.985   8.181  0.3377 -0.2939 -0.3722
  216MOL0     C29090   2.896   4.947   8.182 -0.8323  0.9709  0.0914
  216MOL0     C29091   3.239   4.592   8.126  0.1400 -0.3477  1.3174
  216MOL0     C29092   3.171   4.521   8.029 -1.0143 -0.0563  0.3778
  216MOL0     H29093   2.797   4.459   7.742 -3.7539 -2.4351  0.2821
  216MOL0     H29094   2.655   4.369   7.589 -1.6058 -2.4711  0.7089
  216MOL0     H29095   2.543   4.113   7.487  1.1637  1.3921  0.6043
  216MOL0     H29096   2.571   4.273   7.424  2.4030  0.8996 -1.0237
  216MOL0     H29097   2.649   4.122   7.196  0.8890 -1.9588  0.1653
  216MOL0     H29098   2.553   4.012   7.292  3.8599  0.3430  2.7381
  216MOL0     H29099   2.340   4.114   7.252 -0.6011  0.2668 -2.0498
  216MOL0     H29100   2.410   4.268   7.270 -3.0599  0.0901 -2.8816
  216MOL0     H29101   2.522   4.235   7.038 -0.3902  2.7524  1.6700
  216MOL0     H29102   2.446   4.070   7.031 -1.0458 -0.2473 -1.2860
  216MOL0     H29103   2.231   4.157   7.003  1.2384 -1.0983  0.0817
  216MOL0     H29104   2.294   4.327   7.052  4.2455  0.4321  0.2105
  216MOL0     H29105   2.243   4.332   6.828 -1.3569 -2.8150 -1.9666
  216MOL0     H29106   2.430   4.303   6.839  0.2428 -0.5849 -2.4722
  216MOL0     H29107   2.367   4.128   6.663  2.0393 -0.4352  0.7992
  216MOL0     H29108   2.369   4.048   6.807 -3.3960 -1.1787  2.7915
  216MOL0     H29109   2.112   4.110   6.812  1.6649  1.8425 -0.8827
  216MOL0     H29110   2.167   3.973   6.721  0.8592 -0.5799 -0.2103
  216MOL0     H29111   2.219   4.041   6.451 -2.0361 -0.6451  1.0591
  216MOL0     H29112   2.124   4.126   6.205 -0.7931  0.0915 -2.9805
  216MOL0     H29113   2.033   4.281   6.212  0.6827  0.5187  0.7404
  216MOL0     H29114   2.338   4.244   6.249  2.1216  0.1192 -1.6445
  216MOL0     H29115   2.261   4.400   6.253 -1.3874  0.5225 -1.0447
  216MOL0     H29116   2.170   4.354   6.024 -1.4407 -1.5754  1.0207
  216MOL0     H29117   2.242   4.196   6.020  0.7933  0.0298 -0.0929
  216MOL0     H29118   2.437   4.429   6.048 -3.9906 -0.1092  2.7526
  216MOL0     H29119   2.363   4.382   5.886 -3.5673  0.2044  0.7542
  216MOL0     H29120   2.535   4.444   5.806  0.4841  1.1916  3.1322
  216MOL0     H29121   2.851   4.587   5.696 -0.5190 -0.1975 -0.6616
  216MOL0     H29122   2.743   4.503   5.578 -2.5992  0.7255 -0.1711
  216MOL0     H29123   2.682   4.616   5.712 -2.9438 -0.5790 -2.1909
  216MOL0     H29124   3.264   4.413   5.787 -2.1767 -2.0038  1.8223
  216MOL0     H29125   3.507   4.378   5.690  1.4819 -1.0161  0.1377
  216MOL0     H29126   3.568   4.014   5.675 -3.3140  2.0527 -1.9043
  216MOL0     H29127   3.639   3.960   5.517 -1.3106  1.1435 -0.8164
  216MOL0     H29128   3.847   3.987   5.593  0.4654  0.5971 -0.2281
  216MOL0     H29129   3.827   4.156   5.606 -2.6587  0.8766 -1.3778
  216MOL0     H29130   3.726   4.110   5.840  0.2476 -0.1401 -0.4941
  216MOL0     H29131   3.900   4.076   5.819  0.0105 -1.2597  1.9367
  216MOL0     H29132   3.690   3.858   5.785  1.1516 -0.5425  1.0780
  216MOL0     H29133   3.865   3.854   5.794 -0.9197 -1.4108 -0.8928
  216MOL0     H29134   3.674   3.924   6.017 -0.0150  0.0127 -0.1588
  216MOL0     H29135   3.852   3.960   6.013  1.6127 -0.9744 -2.3192
  216MOL0     H29136   3.899   3.711   5.981  0.8865 -3.1317  2.9301
  216MOL0     H29137   3.809   3.755   6.127 -1.9359 -2.5116 -0.1404
  216MOL0     H29138   3.679   3.644   5.868 -2.2758  0.5024  0.6782
  216MOL0     H29139   3.598   3.675   6.016  0.1306  0.3915 -3.0521
  216MOL0     H29140   3.723   3.500   6.120 -0.9198  2.5262 -0.0734
  216MOL0     H29141   3.851   3.521   6.006  0.3447  1.2215  0.8539
  216MOL0     H29142   3.375   4.015   5.514  2.1129 -1.3801  2.3041
  216MOL0     H29143   3.153   4.033   5.637  0.1683  0.3743 -1.6410
  216MOL0     H29144   2.908   4.144   5.926  2.1040  2.8127 -2.4371
  216MOL0     H29145   2.660   4.097   6.004 -0.0976 -0.3501  1.1832
  216MOL0     H29146   2.964   4.075   7.498  0.9068 -1.1533  0.7058
  216MOL0     H29147   3.103   4.158   7.693 -1.7346 -1.3879  0.4765
  216MOL0     H29148   3.342   4.658   7.761  0.5139  0.4567 -0.5255
  216MOL0     H29149   3.462   4.768   7.937  1.4520 -2.1470  0.8647
  216MOL0     H29150   3.364   4.668   8.347 -1.3602  0.7374  0.1943
  216MOL0     H29151   3.427   4.829   8.382 -0.3468  0.8997 -1.6414
  216MOL0     H29152   3.182   4.817   8.449  2.8325 -2.2517  0.5524
  216MOL0     H29153   3.143   4.781   8.291  0.8917  0.8009 -1.4272
  216MOL0     H29154   3.325   5.009   8.284  0.7291  1.8208  0.7802
  216MOL0     H29155   3.202   5.046   8.400  2.9620 -0.4538  0.9582
  216MOL0     H29156   3.194   4.996   8.089 -1.1837  0.7332 -0.0586
  216MOL0     H29157   3.136   5.141   8.179  1.4518  0.8126  0.7659
  216MOL0     H29158   2.797   4.911   8.163  0.6056 -1.0495 -6.1961
  216MOL0     H29159   3.223   4.569   8.231 -1.2434  1.0568  1.4422
  216MOL0     H29160   3.082   4.462   8.052 -3.4607  2.8257 -1.0669
  217MOL0     O29161   3.353   7.986   3.979  0.4539 -0.1322 -0.4161
  217MOL0     C29162   3.462   7.972   4.028 -0.1704 -0.0129 -0.0017
  217MOL0     O29163   3.571   8.033   3.981  0.1914 -0.1630 -0.5824
  217MOL0     C29164   3.564   8.102   3.865  0.9630  0.0288  0.8544
  217MOL0     C29165   3.601   8.229   3.866  0.9338 -0.4742  0.2033
  217MOL0     C29166   3.589   8.320   3.758  0.5815  0.5126  0.3238
  217MOL0     C29167   3.533   8.283   3.638  0.4650 -0.7017 -0.1108
  217MOL0     O29168   3.534   8.377   3.533 -0.0088  1.2010  0.3433
  217MOL0     C29169   3.628   8.348   3.424  0.0801  0.7081  0.7227
  217MOL0     C29170   3.627   8.453   3.322  0.9196  0.7108 -0.2358
  217MOL0     C29171   3.711   8.578   3.365 -0.2400 -0.6504 -0.9180
  217MOL0     C29172   3.749   8.680   3.255 -0.6237 -0.0189 -1.0143
  217MOL0     C29173   3.640   8.731   3.157 -0.2860 -0.9781 -0.1297
  217MOL0     C29174   3.563   8.848   3.217 -0.0614  0.3268  0.0701
  217MOL0     C29175   3.431   8.888   3.146 -0.3118  0.0126 -0.1700
  217MOL0     C29176   3.436   8.877   3.000 -1.1230 -1.2197 -0.3172
  217MOL0     N29177   3.334   8.952   2.939  0.1702 -0.4861  0.0975
  217MOL0     C29178   3.209   8.962   2.990  0.3521 -0.3507 -0.6552
  217MOL0     C29179   3.141   9.032   2.893 -1.0931  0.1494 -0.7781
  217MOL0     C29180   3.008   9.082   2.894  1.5251  0.0776  0.3291
  217MOL0     C29181   2.981   9.166   3.019  0.1400  0.0901 -0.4411
  217MOL0     C29182   2.921   9.298   2.992 -0.4287 -0.9616 -0.3954
  217MOL0     C29183   3.011   9.407   2.937 -0.4678  0.0357  0.9817
  217MOL0     O29184   3.044   9.364   2.807  0.3298 -0.7856  0.8150
  217MOL0     C29185   3.114   9.456   2.727  0.4828 -0.7086  0.0657
  217MOL0     C29186   3.098   9.603   2.716 -0.3719  0.2529  0.3284
  217MOL0     C29187   3.188   9.685   2.656 -0.3993  0.6490  0.5296
  217MOL0     C29188   3.156   9.836   2.649 -0.6073  0.7538  0.2053
  217MOL0     C29189   3.302   9.631   2.601  0.5508 -0.1500 -0.3717
  217MOL0     C29190   3.417   9.708   2.544  0.1429 -0.4292  0.7907
  217MOL0     O29191   3.542   9.648   2.530  0.5795  0.4819 -0.5581
  217MOL0     C29192   3.633   9.722   2.453 -0.0572 -0.2197 -0.1423
  217MOL0     C29193   3.707   9.831   2.508  0.6610 -0.4396 -0.2715
  217MOL0     C29194   3.801   9.894   2.423  0.5191  0.8637  1.4541
  217MOL0     C29195   3.828   9.846   2.287  0.5292  0.1685 -0.3018
  217MOL0     O29196   3.913   9.926   2.213  0.2842  0.2757  0.0277
  217MOL0     C29197   3.888   9.926   2.071 -0.9406  1.0706 -0.1796
  217MOL0     C29198   3.918  10.064   2.023  1.3227  0.4009  0.3680
  217MOL0     C29199   3.930  10.075   1.866 -1.6394  0.4143 -0.2453
  217MOL0     C29200   4.075  10.039   1.817 -0.3676 -0.2045 -0.5009
  217MOL0     C29201   4.088  10.107   1.681  1.1977  0.3207  0.5677
  217MOL0     C29202   4.040  10.008   1.565  0.0825  0.1704 -1.6181
  217MOL0     C29203   4.116  10.047   1.434  0.4639 -0.2695  0.1141
  217MOL0     C29204   4.265  10.021   1.430 -0.0854  0.3085  1.0607
  217MOL0    Cl29205   4.288   9.843   1.421  0.2359  0.4797  0.4090
  217MOL0     C29206   3.749   9.744   2.238  0.3021 -0.2618  0.0137
  217MOL0     C29207   3.654   9.678   2.321  0.0964 -0.2805 -0.7734
  217MOL0     O29208   3.394   9.821   2.504  0.0558  0.0313 -0.6160
  217MOL0     C29209   3.314   9.493   2.608  0.8372  0.5064  0.0478
  217MOL0     C29210   3.229   9.408   2.666  0.1044  0.3236  0.1860
  217MOL0     N29211   3.224   9.050   2.787  1.1306  0.1541  0.2563
  217MOL0     N29212   3.341   9.014   2.815 -0.0587 -0.4304  0.0097
  217MOL0     C29213   3.500   8.149   3.627  0.2739  0.2754  1.0562
  217MOL0     C29214   3.511   8.056   3.737 -0.3365  0.5828 -0.0389
  217MOL0     C29215   3.467   7.903   4.153  0.1484 -0.0528 -0.1430
  217MOL0     C29216   3.347   7.921   4.232 -1.2661  0.1947  0.3651
  217MOL0     C29217   3.341   7.850   4.354  0.1121 -0.8633  0.2895
  217MOL0     C29218   3.447   7.775   4.400 -0.0360 -0.1785 -0.0598
  217MOL0     O29219   3.431   7.746   4.528  0.2531  0.0308  0.4681
  217MOL0     C29220   3.516   7.655   4.592  0.4411 -0.2520 -0.0093
  217MOL0     C29221   3.633   7.725   4.655  0.9618 -0.0932 -0.7817
  217MOL0     C29222   3.764   7.640   4.647  0.5968 -0.0450 -0.8523
  217MOL0     C29223   3.875   7.688   4.729 -0.2896  1.0448  0.1217
  217MOL0     C29224   3.869   7.819   4.788 -0.7615 -1.0233 -0.4933
  217MOL0     C29225   3.856   7.924   4.846  0.0234 -0.1234 -0.1921
  217MOL0     C29226   3.567   7.765   4.327  0.9464  0.4489 -0.6845
  217MOL0     C29227   3.577   7.825   4.201 -0.0807  0.5568 -0.0418
  217MOL0     H29228   3.631   8.270   3.962  3.9838  2.0422 -1.6378
  217MOL0     H29229   3.625   8.423   3.760  0.2126  0.6570  2.6615
  217MOL0     H29230   3.728   8.325   3.461  0.4491  1.7705  0.3984
  217MOL0     H29231   3.596   8.249   3.390  1.2169 -0.0799  1.8391
  217MOL0     H29232   3.665   8.393   3.240  0.5121 -3.1546  2.1623
  217MOL0     H29233   3.526   8.489   3.297 -0.1119 -2.9626 -2.0462
  217MOL0     H29234   3.653   8.622   3.446  0.2868  1.4873 -1.6360
  217MOL0     H29235   3.807   8.540   3.400 -0.9974 -5.9887 -3.5358
  217MOL0     H29236   3.800   8.765   3.301 -0.1695 -0.8040 -0.0213
  217MOL0     H29237   3.824   8.633   3.190  2.1692 -0.8384  2.5233
  217MOL0     H29238   3.690   8.766   3.067 -0.1934 -0.3463  0.1649
  217MOL0     H29239   3.580   8.643   3.130 -1.1082 -1.0430  1.7456
  217MOL0     H29240   3.533   8.810   3.315  1.3727 -0.5767  0.1747
  217MOL0     H29241   3.630   8.934   3.216  0.7108 -0.2669 -1.5619
  217MOL0     H29242   3.352   8.821   3.179  1.8038 -3.0046 -0.7944
  217MOL0     H29243   3.397   8.987   3.179  0.3252 -0.5022  2.2200
  217MOL0     H29244   3.425   8.773   2.969 -0.1072 -1.0276 -1.3788
  217MOL0     H29245   3.535   8.908   2.963 -0.9308 -0.3496  0.8627
  217MOL0     H29246   3.163   8.923   3.080  2.1936 -0.2341  0.3983
  217MOL0     H29247   2.989   9.143   2.805  2.9142  0.2839  0.1526
  217MOL0     H29248   2.938   8.997   2.897 -0.1239  1.3597 -0.4245
  217MOL0     H29249   3.073   9.171   3.078  0.4097 -2.8167 -0.4391
  217MOL0     H29250   2.915   9.111   3.086  0.8468 -0.9210 -0.5448
  217MOL0     H29251   2.868   9.338   3.079 -0.2393  0.0565 -0.7332
  217MOL0     H29252   2.847   9.281   2.913 -0.1127  1.1503 -1.2249
  217MOL0     H29253   3.090   9.420   3.011 -0.0691  1.5758  0.3192
  217MOL0     H29254   2.966   9.506   2.920 -1.2927 -0.8736 -3.2346
  217MOL0     H29255   3.005   9.649   2.747  0.5472  1.2050  1.8588
  217MOL0     H29256   3.121   9.869   2.551 -1.6377 -1.0895 -0.1021
  217MOL0     H29257   3.068   9.859   2.709 -0.7701  3.0856 -0.8123
  217MOL0     H29258   3.230   9.900   2.698 -0.1344 -0.2710  0.8761
  217MOL0     H29259   3.689   9.879   2.603  0.4782  1.3162 -1.1433
  217MOL0     H29260   3.865   9.971   2.464  3.3267 -1.0442  0.9381
  217MOL0     H29261   3.943   9.848   2.017 -2.0100  1.7115 -2.2968
  217MOL0     H29262   3.786   9.897   2.045 -1.2128  2.6439 -0.9351
  217MOL0     H29263   3.826  10.117   2.052 -2.1443 -3.4319 -2.4230
  217MOL0     H29264   4.006  10.107   2.071 -0.1234 -0.4045  4.1233
  217MOL0     H29265   3.897  10.178   1.848  1.5634  1.8066  1.1446
  217MOL0     H29266   3.857  10.009   1.818 -1.1209 -0.1841 -0.2180
  217MOL0     H29267   4.157  10.081   1.877 -0.1868 -1.8800  0.4726
  217MOL0     H29268   4.094   9.934   1.796  0.1389  0.0421 -1.3763
  217MOL0     H29269   4.192  10.140   1.666  1.0717  0.4282 -0.1138
  217MOL0     H29270   4.030  10.200   1.679 -0.1893 -0.5102  0.9246
  217MOL0     H29271   4.067   9.907   1.596 -0.7059  0.1073 -1.1079
  217MOL0     H29272   3.931  10.015   1.558 -0.3094 -0.7851  1.8648
  217MOL0     H29273   4.110  10.155   1.420  0.9010 -0.2928 -0.2504
  217MOL0     H29274   4.066   9.995   1.351  1.6756  1.2133 -1.6257
  217MOL0     H29275   4.310  10.059   1.522 -1.6760  1.4178  1.4334
  217MOL0     H29276   4.323  10.065   1.349 -2.9532 -2.0373 -2.6264
  217MOL0     H29277   3.757   9.698   2.140  0.6882 -1.0936  0.4199
  217MOL0     H29278   3.583   9.605   2.283 -1.3400  0.9293 -0.5376
  217MOL0     H29279   3.398   9.435   2.571  1.3363 -1.3779  3.6610
  217MOL0     H29280   3.252   9.302   2.672 -0.8188  0.1654  1.5960
  217MOL0     H29281   3.471   8.112   3.529 -0.8472  3.5218  0.0248
  217MOL0     H29282   3.487   7.952   3.716  1.4934  0.3549 -1.1656
  217MOL0     H29283   3.264   7.984   4.201 -1.0302 -1.3013 -4.0397
  217MOL0     H29284   3.249   7.849   4.410 -0.4643 -0.9680 -0.6428
  217MOL0     H29285   3.450   7.609   4.667 -1.2660 -0.0561 -1.3388
  217MOL0     H29286   3.543   7.592   4.507  0.5870  1.8188 -1.5844
  217MOL0     H29287   3.605   7.751   4.757  0.5454  2.8801 -1.5701
  217MOL0     H29288   3.659   7.819   4.606  2.1109  1.5395  2.6780
  217MOL0     H29289   3.787   7.633   4.540 -0.3531 -3.2115 -0.9693
  217MOL0     H29290   3.733   7.540   4.679 -2.1329  0.1181 -2.7002
  217MOL0     H29291   3.969   7.681   4.675  0.3535  1.8682  1.0983
  217MOL0     H29292   3.875   7.616   4.812  3.2982 -2.8704 -2.8585
  217MOL0     H29293   3.850   8.009   4.911  0.7197 -0.7125  0.6637
  217MOL0     H29294   3.658   7.716   4.358 -0.1225  0.7466  3.6685
  217MOL0     H29295   3.667   7.817   4.141  1.3556 -0.1278  2.0928
  218MOL0     O29296  11.135   4.006   8.532  0.9627  0.3762  0.6099
  218MOL0     C29297  11.190   3.989   8.639  0.5501 -0.3845  0.1814
  218MOL0     O29298  11.208   4.087   8.728 -0.0999 -0.0077  0.0017
  218MOL0     C29299  11.158   4.215   8.709 -0.9400  0.0742  0.4496
  218MOL0     C29300  11.182   4.285   8.593  1.1637  1.0550  0.2883
  218MOL0     C29301  11.131   4.420   8.584  0.8158 -0.1615  0.2399
  218MOL0     C29302  11.066   4.477   8.692  0.2640 -0.1167  0.2314
  218MOL0     O29303  11.010   4.603   8.678  0.9309 -0.4242  0.0750
  218MOL0     C29304  11.082   4.698   8.755  0.6892  0.5129  0.7808
  218MOL0     C29305  11.003   4.823   8.755 -0.4660 -0.4453 -0.9269
  218MOL0     C29306  11.071   4.943   8.825 -0.3107 -1.2205 -0.1285
  218MOL0     C29307  11.106   4.917   8.974  0.2019  0.3913  0.3545
  218MOL0     C29308  11.204   5.022   9.019  0.6688  0.8246  0.9090
  218MOL0     C29309  11.218   5.034   9.163 -0.0614 -0.2832  0.6452
  218MOL0     C29310  11.287   4.911   9.233  0.2383  0.2377  0.1854
  218MOL0     C29311  11.357   4.955   9.365 -0.1341  0.0258 -0.7289
  218MOL0     N29312  11.391   4.833   9.449  0.0659 -0.0861  0.3296
  218MOL0     C29313  11.285   4.764   9.507 -0.5873  0.4274 -0.7880
  218MOL0     C29314  11.347   4.650   9.548  0.1330 -0.1716 -0.8081
  218MOL0     C29315  11.280   4.529   9.602 -0.4048 -0.2788 -0.4425
  218MOL0     C29316  11.314   4.491   9.747  0.1407 -0.4358  0.2949
  218MOL0     C29317  11.278   4.605   9.842  0.0258  0.1241  0.9252
  218MOL0     C29318  11.378   4.647   9.952  0.0747 -0.7461  0.5928
  218MOL0     O29319  11.331   4.762  10.021  0.0723  0.4160 -0.4412
  218MOL0     C29320  11.350   4.773  10.154  0.0060  0.4623 -0.3811
  218MOL0     C29321  11.455   4.715  10.224 -0.3734 -0.7584  0.5168
  218MOL0     C29322  11.473   4.715  10.361 -0.3648 -0.5236 -0.1813
  218MOL0     C29323  11.587   4.645  10.430 -0.6645 -0.5141 -0.0601
  218MOL0     C29324  11.369   4.779  10.436 -0.1931 -0.1265  1.2063
  218MOL0     C29325  11.363   4.776  10.578 -0.2052  0.3757  0.1840
  218MOL0     O29326  11.299   4.669  10.623  0.1305  0.1811  0.5854
  218MOL0     C29327  11.286   4.629  10.753 -0.3115  0.0909 -0.5033
  218MOL0     C29328  11.185   4.527  10.764  0.0190  0.6366 -0.3857
  218MOL0     C29329  11.152   4.475  10.891 -0.0182 -0.5365 -0.4839
  218MOL0     C29330  11.216   4.516  11.005  0.2539  0.5211 -0.6768
  218MOL0     O29331  11.194   4.463  11.132 -0.0115 -0.1201  0.6933
  218MOL0     C29332  11.298   4.420  11.215 -0.3143  0.0957  0.2533
  218MOL0     C29333  11.242   4.320  11.319  0.4934  0.3387  0.1749
  218MOL0     C29334  11.108   4.362  11.383  0.1309 -0.9153  0.1761
  218MOL0     C29335  11.053   4.242  11.469 -0.5859  0.3522  0.2058
  218MOL0     C29336  11.110   4.238  11.614  0.3846  0.4362  0.2045
  218MOL0     C29337  11.044   4.144  11.726  0.3239  0.3919 -0.2434
  218MOL0     C29338  11.049   3.998  11.673 -0.0101 -0.8738  0.1399
  218MOL0     C29339  11.032   3.909  11.792  0.1795 -0.0662 -0.2467
  218MOL0    Cl29340  10.990   3.742  11.730  0.0812 -0.1540  0.1268
  218MOL0     C29341  11.320   4.611  10.989 -0.5485  0.2750 -0.0890
  218MOL0     C29342  11.342   4.680  10.868 -0.5367 -0.4499 -0.3193
  218MOL0     O29343  11.435   4.852  10.646  0.5217 -0.8047  0.3211
  218MOL0     C29344  11.274   4.848  10.364  0.0816  0.7580  0.1500
  218MOL0     C29345  11.262   4.846  10.227  0.7308 -0.5603 -0.3979
  218MOL0     N29346  11.479   4.657   9.521 -0.1157 -0.2014 -0.2069
  218MOL0     N29347  11.513   4.775   9.478 -0.4398  0.1603 -0.2158
  218MOL0     C29348  11.046   4.403   8.810 -1.3123  0.2811  0.4132
  218MOL0     C29349  11.094   4.275   8.820 -0.7294  0.3119 -0.4769
  218MOL0     C29350  11.237   3.847   8.679  1.4247 -0.0166  1.0861
  218MOL0     C29351  11.214   3.743   8.591  0.5998 -0.1821 -0.3669
  218MOL0     C29352  11.253   3.612   8.625  0.5102  0.8076 -0.4875
  218MOL0     C29353  11.307   3.577   8.749  0.0086 -0.1606  0.1976
  218MOL0     O29354  11.326   3.445   8.796  0.1675  1.2516 -0.3619
  218MOL0     C29355  11.252   3.330   8.743  0.3423 -0.5547 -0.7748
  218MOL0     C29356  11.105   3.321   8.795  0.4651 -0.3030 -0.3675
  218MOL0     C29357  11.012   3.400   8.698 -0.4445  0.5593 -0.5343
  218MOL0     C29358  10.864   3.367   8.724  0.0719  0.5411  0.0960
  218MOL0     C29359  10.766   3.453   8.675 -0.5934 -0.1779 -0.9643
  218MOL0     C29360  10.676   3.528   8.639  0.5749  0.1893  0.0812
  218MOL0     C29361  11.345   3.683   8.834  0.7974  0.4221 -1.4129
  218MOL0     C29362  11.299   3.813   8.793 -0.6924 -0.2069 -0.0332
  218MOL0     H29363  11.233   4.235   8.511 -0.9810 -1.0611  0.1363
  218MOL0     H29364  11.137   4.462   8.484  1.3718 -2.5891 -0.8265
  218MOL0     H29365  11.115   4.659   8.852 -1.8821  0.9507  1.9197
  218MOL0     H29366  11.176   4.717   8.703  1.0751  1.0423  1.6437
  218MOL0     H29367  10.979   4.853   8.653 -0.0502 -0.3125 -0.9912
  218MOL0     H29368  10.913   4.810   8.816  1.8009 -1.4759  2.5189
  218MOL0     H29369  11.166   4.958   8.774 -0.7397  0.9819 -0.4032
  218MOL0     H29370  11.016   5.038   8.819  0.5532 -0.6970  0.1006
  218MOL0     H29371  11.015   4.912   9.035  0.9509  1.6091  1.6388
  218MOL0     H29372  11.158   4.821   8.985 -0.6139 -0.6447 -3.3367
  218MOL0     H29373  11.301   5.003   8.973  0.3450  0.9967  0.1222
  218MOL0     H29374  11.155   5.114   8.987 -0.5310  0.9603  2.9449
  218MOL0     H29375  11.281   5.119   9.189  2.5802 -1.6970 -0.7417
  218MOL0     H29376  11.118   5.057   9.201  0.2880  1.5352  0.5209
  218MOL0     H29377  11.204   4.846   9.264 -1.1319  1.8270 -0.0268
  218MOL0     H29378  11.359   4.864   9.165  1.9376  1.0910  1.3278
  218MOL0     H29379  11.301   5.023   9.429 -0.4083 -0.5361 -0.3674
  218MOL0     H29380  11.451   4.999   9.331 -1.6573  4.0397 -0.2263
  218MOL0     H29381  11.180   4.791   9.514 -1.1711 -1.8063 -0.1005
  218MOL0     H29382  11.172   4.547   9.603 -0.0371  2.5049 -2.2651
  218MOL0     H29383  11.293   4.454   9.523  1.3527  0.6095 -1.0403
  218MOL0     H29384  11.422   4.474   9.743 -0.0037 -1.2983 -0.0766
  218MOL0     H29385  11.272   4.397   9.783 -1.0220  0.7472  2.1939
  218MOL0     H29386  11.181   4.586   9.889  0.6740 -1.2029  1.7824
  218MOL0     H29387  11.273   4.697   9.783  2.0502 -0.4843 -0.2957
  218MOL0     H29388  11.475   4.681   9.915 -0.7692  2.4752  1.0040
  218MOL0     H29389  11.395   4.562  10.019 -2.2417 -3.3329 -1.8591
  218MOL0     H29390  11.525   4.667  10.156 -1.5508 -0.6846 -0.7828
  218MOL0     H29391  11.677   4.685  10.382 -0.8664 -0.0042 -0.0284
  218MOL0     H29392  11.591   4.680  10.534 -1.2684  2.6698 -0.9827
  218MOL0     H29393  11.583   4.536  10.426  0.2997 -0.5192 -2.0315
  218MOL0     H29394  11.140   4.504  10.668  2.4953  1.2794 -1.7692
  218MOL0     H29395  11.078   4.396  10.897 -2.9905  1.8775 -2.3059
  218MOL0     H29396  11.374   4.364  11.160 -1.3131  0.3092 -1.4100
  218MOL0     H29397  11.343   4.499  11.275 -2.8892 -1.1427  4.2394
  218MOL0     H29398  11.217   4.225  11.271 -2.6892  1.9319 -1.6726
  218MOL0     H29399  11.324   4.308  11.390  2.6619  1.3789 -2.0078
  218MOL0     H29400  11.033   4.387  11.308 -0.6966 -1.6909  0.7242
  218MOL0     H29401  11.115   4.457  11.436 -1.9991 -1.2782  1.1921
  218MOL0     H29402  10.946   4.257  11.484 -1.2950 -2.2880 -1.3797
  218MOL0     H29403  11.066   4.144  11.421 -3.5564  0.2295 -0.5968
  218MOL0     H29404  11.093   4.334  11.663 -4.1711 -0.0402 -0.0142
  218MOL0     H29405  11.216   4.211  11.616  0.0153 -1.2217  2.1995
  218MOL0     H29406  11.110   4.142  11.813 -0.7826  1.1174  0.6416
  218MOL0     H29407  10.944   4.171  11.759  0.1707  1.4905 -1.4971
  218MOL0     H29408  11.138   3.970  11.616 -1.0214 -1.1440 -1.3759
  218MOL0     H29409  10.967   3.983  11.602  0.5687  0.5571 -0.8710
  218MOL0     H29410  10.952   3.942  11.858  0.9497 -0.8246  1.1219
  218MOL0     H29411  11.123   3.905  11.853  0.3161 -1.3088 -0.5061
  218MOL0     H29412  11.363   4.648  11.081  0.2435 -0.8532  0.0233
  218MOL0     H29413  11.404   4.769  10.864  0.3604 -1.0759 -0.7571
  218MOL0     H29414  11.219   4.916  10.429 -1.2560  1.8007 -1.9383
  218MOL0     H29415  11.179   4.895  10.177  1.6193  2.1313  0.6125
  218MOL0     H29416  11.008   4.453   8.899 -1.0910 -1.4669  1.5426
  218MOL0     H29417  11.098   4.205   8.903  0.3216  0.7614 -0.1396
  218MOL0     H29418  11.165   3.757   8.495 -1.6690  3.7659  1.1224
  218MOL0     H29419  11.235   3.525   8.563  0.2637 -0.4889  1.3265
  218MOL0     H29420  11.242   3.331   8.634 -1.0259 -0.7242 -0.6742
  218MOL0     H29421  11.315   3.243   8.763 -0.1784 -0.3948  1.9249
  218MOL0     H29422  11.090   3.371   8.891  0.3058  0.3319 -0.7204
  218MOL0     H29423  11.067   3.218   8.795 -1.8117  0.4633  0.6550
  218MOL0     H29424  11.033   3.373   8.594  0.2346 -1.9627  0.1947
  218MOL0     H29425  11.027   3.506   8.722  3.0506 -0.2552  1.6510
  218MOL0     H29426  10.846   3.372   8.832  0.8145  0.9163  0.2132
  218MOL0     H29427  10.851   3.259   8.711  5.7273 -0.9992  3.4654
  218MOL0     H29428  10.596   3.596   8.622 -1.1110 -2.1020 -1.7042
  218MOL0     H29429  11.395   3.674   8.930 -3.9839 -0.6232  1.2900
  218MOL0     H29430  11.311   3.890   8.869 -0.5853 -2.1142  2.0107
  219MOL0     O29431   6.651   1.962   0.839 -0.2258  0.6016 -0.3906
  219MOL0     C29432   6.586   2.044   0.903  0.0166  0.1860 -0.3231
  219MOL0     O29433   6.589   2.174   0.877 -0.1163 -0.3909  0.3783
  219MOL0     C29434   6.631   2.236   0.759 -0.4511  0.3560  0.5983
  219MOL0     C29435   6.686   2.164   0.645 -0.1248  0.7902  0.3981
  219MOL0     C29436   6.731   2.250   0.543  0.3333 -0.6196  0.1589
  219MOL0     C29437   6.744   2.381   0.554 -0.6464  0.5366 -0.0461
  219MOL0     O29438   6.799   2.462   0.459 -0.0021  0.6585  0.6050
  219MOL0     C29439   6.862   2.415   0.338 -0.6449 -0.0834 -0.0602
  219MOL0     C29440   6.911   2.525   0.235 -1.2557  0.1883 -0.2683
  219MOL0     C29441   7.018   2.612   0.289 -0.5807 -0.6049 -0.0477
  219MOL0     C29442   7.127   2.655   0.187 -0.3599  0.1807 -0.1614
  219MOL0     C29443   7.106   2.743   0.061 -0.6624  0.0758 -0.2214
  219MOL0     C29444   7.032   2.680  -0.058 -0.6389  1.0413 -0.2871
  219MOL0     C29445   7.092   2.545  -0.117 -0.0733  0.9181  0.0886
  219MOL0     C29446   7.020   2.471  -0.233 -0.7688 -0.2008  0.1664
  219MOL0     N29447   6.874   2.463  -0.211 -0.5385 -0.8794  0.9541
  219MOL0     C29448   6.808   2.362  -0.149  0.0408 -1.0813  0.3835
  219MOL0     C29449   6.675   2.379  -0.196 -1.1609 -0.4465  0.4068
  219MOL0     C29450   6.562   2.285  -0.177 -0.1914  0.6703  0.9456
  219MOL0     C29451   6.488   2.328  -0.050  1.1814  0.1516  0.0995
  219MOL0     C29452   6.410   2.464  -0.062  0.5508  0.5130 -0.8965
  219MOL0     C29453   6.355   2.511   0.070  0.4029 -0.5889  0.5344
  219MOL0     O29454   6.266   2.625   0.049  0.1681 -0.2730 -0.0529
  219MOL0     C29455   6.190   2.667   0.156  0.1204 -0.3340  0.1592
  219MOL0     C29456   6.077   2.737   0.132  0.5423 -0.8455  1.0872
  219MOL0     C29457   5.998   2.799   0.223 -0.1274 -0.0176 -0.1592
  219MOL0     C29458   5.872   2.867   0.186 -0.1031 -0.4650  0.1808
  219MOL0     C29459   6.027   2.767   0.357 -0.2985 -0.5696 -0.0900
  219MOL0     C29460   5.940   2.815   0.467 -0.7854 -0.3173  0.2847
  219MOL0     O29461   5.913   2.951   0.472  0.1679  0.7829 -0.1301
  219MOL0     C29462   5.860   3.012   0.584  0.0246 -0.5725 -0.3522
  219MOL0     C29463   5.945   3.033   0.693 -0.3133  0.3795  0.6671
  219MOL0     C29464   5.911   3.114   0.795  1.0322 -0.2233  0.6723
  219MOL0     C29465   5.783   3.181   0.805  0.3035 -0.3116 -0.0391
  219MOL0     O29466   5.749   3.252   0.917  0.0036 -0.1256 -0.2528
  219MOL0     C29467   5.612   3.263   0.963  0.6459  0.4847  0.6303
  219MOL0     C29468   5.594   3.232   1.109 -0.4919 -0.2095  0.2181
  219MOL0     C29469   5.660   3.337   1.196 -0.1050  1.1767  0.4067
  219MOL0     C29470   5.610   3.318   1.340 -0.1910 -1.2585 -1.2133
  219MOL0     C29471   5.675   3.416   1.441  0.5961 -0.9186  1.0614
  219MOL0     C29472   5.577   3.446   1.553  0.0560 -0.8563  0.3089
  219MOL0     C29473   5.627   3.544   1.654  0.4560 -0.1590 -0.6690
  219MOL0     C29474   5.566   3.528   1.795 -0.6378  0.0338 -0.3818
  219MOL0    Cl29475   5.397   3.591   1.795 -0.3741  0.1415  0.2051
  219MOL0     C29476   5.691   3.147   0.696 -0.0387 -0.2131  0.8643
  219MOL0     C29477   5.733   3.057   0.589 -0.3718 -0.1245 -0.4568
  219MOL0     O29478   5.916   2.744   0.562  0.5963  0.3721 -0.3253
  219MOL0     C29479   6.149   2.689   0.387  0.2433 -0.5933 -1.0541
  219MOL0     C29480   6.236   2.646   0.291 -1.0528 -0.5505 -0.2881
  219MOL0     N29481   6.681   2.498  -0.268  0.4760  0.2118  1.0052
  219MOL0     N29482   6.794   2.548  -0.281  0.1257 -0.0358  0.4527
  219MOL0     C29483   6.685   2.444   0.663  1.3475  0.6761  0.0097
  219MOL0     C29484   6.642   2.370   0.772  0.9825  0.0755  0.3959
  219MOL0     C29485   6.522   2.016   1.033  0.8948 -0.5518  0.0989
  219MOL0     C29486   6.486   1.880   1.061  0.1138 -0.4826 -0.1156
  219MOL0     C29487   6.407   1.851   1.180 -0.4850 -1.0047 -0.8234
  219MOL0     C29488   6.369   1.953   1.272  0.6396 -0.0231  0.2570
  219MOL0     O29489   6.288   1.920   1.382  0.4182 -0.2002  0.0540
  219MOL0     C29490   6.299   1.983   1.514 -0.2698 -0.5504  0.8833
  219MOL0     C29491   6.427   1.950   1.601  0.9986 -0.7892  0.0579
  219MOL0     C29492   6.555   2.016   1.539  0.4796  1.2147 -0.9483
  219MOL0     C29493   6.662   2.045   1.658  0.7380 -0.4273 -0.1592
  219MOL0     C29494   6.723   1.933   1.722 -0.0804  0.6801 -1.1868
  219MOL0     C29495   6.791   1.827   1.746  0.9665 -1.3382 -0.1861
  219MOL0     C29496   6.413   2.088   1.247  0.6128 -0.6225  0.7148
  219MOL0     C29497   6.482   2.115   1.127 -0.8578 -0.0972  0.9069
  219MOL0     H29498   6.683   2.057   0.632  1.1876  0.7249  0.5582
  219MOL0     H29499   6.765   2.200   0.452  2.0830  1.5212 -0.4526
  219MOL0     H29500   6.940   2.344   0.367  0.5012  0.7622 -0.9528
  219MOL0     H29501   6.788   2.355   0.284 -1.3000  0.7755 -0.1394
  219MOL0     H29502   6.954   2.468   0.152  5.2664  0.2674  2.4826
  219MOL0     H29503   6.838   2.604   0.215  0.1670  1.8363  0.8037
  219MOL0     H29504   6.975   2.704   0.330 -1.1214 -1.2429  0.8530
  219MOL0     H29505   7.073   2.559   0.367 -1.0879  0.5747  1.1529
  219MOL0     H29506   7.192   2.719   0.247 -0.2010  0.2172 -0.3731
  219MOL0     H29507   7.180   2.563   0.165 -2.4408 -1.3305  0.7758
  219MOL0     H29508   7.038   2.817   0.102 -0.3847 -1.3984  3.2359
  219MOL0     H29509   7.198   2.793   0.030  0.1948 -0.9282  0.5953
  219MOL0     H29510   6.929   2.655  -0.032 -0.8183 -0.5790 -2.2539
  219MOL0     H29511   7.024   2.760  -0.132 -2.7603  0.6093 -0.5914
  219MOL0     H29512   7.192   2.567  -0.157  0.1817 -3.2262 -2.1538
  219MOL0     H29513   7.088   2.478  -0.031  0.2755  1.4979  0.5635
  219MOL0     H29514   7.057   2.368  -0.240  1.1813  0.3326  1.7961
  219MOL0     H29515   7.053   2.523  -0.324  2.4876  0.2121  1.4340
  219MOL0     H29516   6.851   2.275  -0.100 -1.7223 -1.3068  1.6348
  219MOL0     H29517   6.502   2.293  -0.269 -2.8935 -0.0684  2.5185
  219MOL0     H29518   6.601   2.184  -0.161 -0.6309  0.0059 -1.6002
  219MOL0     H29519   6.567   2.344   0.024  3.5703 -3.2870 -1.3920
  219MOL0     H29520   6.415   2.253  -0.018 -0.9186  1.6578 -0.9895
  219MOL0     H29521   6.327   2.458  -0.132 -0.2716  0.0209  0.0961
  219MOL0     H29522   6.492   2.528  -0.098  1.7578 -0.0263  0.7691
  219MOL0     H29523   6.438   2.537   0.136  1.4744  1.1564 -1.3487
  219MOL0     H29524   6.300   2.432   0.121  2.3142 -1.4693  1.2892
  219MOL0     H29525   6.043   2.739   0.029  0.8705  1.3319  0.9698
  219MOL0     H29526   5.863   2.973   0.213 -2.2873 -0.8875  1.4295
  219MOL0     H29527   5.857   2.861   0.078  0.1631  1.8115 -0.0306
  219MOL0     H29528   5.782   2.831   0.237 -1.5889  2.9451  0.3066
  219MOL0     H29529   6.044   2.988   0.696 -1.1636 -1.8000 -0.9882
  219MOL0     H29530   5.983   3.129   0.875  1.2588  1.3607  0.2162
  219MOL0     H29531   5.592   3.370   0.955 -0.7916  0.1906  0.0505
  219MOL0     H29532   5.537   3.199   0.916 -0.8748  1.7712  1.2142
  219MOL0     H29533   5.486   3.233   1.124 -0.7115  2.0172 -1.1246
  219MOL0     H29534   5.638   3.133   1.127 -0.4478 -0.3666 -0.6633
  219MOL0     H29535   5.648   3.443   1.172 -2.9488  1.0705  1.0492
  219MOL0     H29536   5.768   3.335   1.179 -0.1460  0.7792  0.1745
  219MOL0     H29537   5.503   3.338   1.336 -1.0717 -5.2958 -2.3136
  219MOL0     H29538   5.611   3.218   1.385 -3.6645  0.4285  3.4330
  219MOL0     H29539   5.684   3.517   1.400  1.7924  0.2531  3.9112
  219MOL0     H29540   5.770   3.371   1.471 -1.0824 -2.1490  5.2389
  219MOL0     H29541   5.496   3.495   1.498  0.1859 -1.4132 -0.3949
  219MOL0     H29542   5.548   3.358   1.613 -1.7310 -0.4538  0.1092
  219MOL0     H29543   5.599   3.645   1.624 -3.1816 -0.9372 -0.3215
  219MOL0     H29544   5.736   3.538   1.653  0.5925  0.7266  2.0034
  219MOL0     H29545   5.610   3.585   1.878 -1.1476  0.8006 -0.6267
  219MOL0     H29546   5.562   3.423   1.827  2.0078  0.3848  1.3896
  219MOL0     H29547   5.588   3.180   0.688  0.2202  0.0356 -3.2850
  219MOL0     H29548   5.659   3.026   0.516  0.3580  0.9209 -1.6835
  219MOL0     H29549   6.163   2.670   0.493 -2.3241  0.5679 -0.4304
  219MOL0     H29550   6.323   2.591   0.326 -0.0847  0.3268 -1.2280
  219MOL0     H29551   6.664   2.551   0.658 -1.2271  0.2138 -0.1624
  219MOL0     H29552   6.632   2.429   0.863 -0.9536  3.6304 -1.8655
  219MOL0     H29553   6.507   1.800   0.991  1.9323 -0.5905  0.4972
  219MOL0     H29554   6.368   1.751   1.200  1.1587 -1.0227  3.2802
  219MOL0     H29555   6.296   2.092   1.505  1.9863 -0.5840 -1.6858
  219MOL0     H29556   6.221   1.951   1.584  0.9198  1.2140  3.1187
  219MOL0     H29557   6.447   1.843   1.612  0.9736 -0.7803  0.1976
  219MOL0     H29558   6.410   1.989   1.702  0.0516 -0.3579 -0.2536
  219MOL0     H29559   6.517   2.106   1.489  1.1637  2.5127  0.7579
  219MOL0     H29560   6.596   1.951   1.461 -0.7454  3.2409 -3.4275
  219MOL0     H29561   6.617   2.104   1.739  1.2056 -0.8829  0.4436
  219MOL0     H29562   6.732   2.100   1.596 -3.0532  1.2017 -3.4623
  219MOL0     H29563   6.846   1.735   1.749 -0.0772 -2.3021 -4.3435
  219MOL0     H29564   6.368   2.164   1.309 -1.6826  0.4184 -1.9924
  219MOL0     H29565   6.496   2.222   1.109  1.4249  0.0213  2.9169
  220MOL0     O29566   1.350   2.133   1.121 -0.2585 -0.3243  0.3896
  220MOL0     C29567   1.356   2.035   1.045 -0.1448  0.4377  0.2232
  220MOL0     O29568   1.442   2.019   0.947  0.0258 -0.0076  0.3910
  220MOL0     C29569   1.553   2.102   0.940 -0.8425 -1.2344  0.2776
  220MOL0     C29570   1.628   2.143   1.046 -1.8843 -0.1562  0.2171
  220MOL0     C29571   1.755   2.204   1.033 -0.2383 -0.1451 -0.4569
  220MOL0     C29572   1.809   2.220   0.908 -0.3248  0.2691 -0.0596
  220MOL0     O29573   1.934   2.263   0.886  0.0611  0.4209 -0.6389
  220MOL0     C29574   1.967   2.404   0.931  0.0048  0.3652  0.4957
  220MOL0     C29575   2.038   2.491   0.825  0.2225 -0.1906  0.5272
  220MOL0     C29576   2.172   2.427   0.783  0.1100  0.4563 -0.5208
  220MOL0     C29577   2.269   2.442   0.896  0.1506 -0.0450  0.9983
  220MOL0     C29578   2.403   2.373   0.870  0.0818 -0.6215  1.3166
  220MOL0     C29579   2.487   2.453   0.775  0.6629  0.6721  0.6114
  220MOL0     C29580   2.623   2.390   0.776  0.2593 -0.0200 -0.1200
  220MOL0     C29581   2.714   2.428   0.660  0.3834  0.6801  0.0862
  220MOL0     N29582   2.751   2.565   0.658  0.7496 -0.4304  1.2268
  220MOL0     C29583   2.834   2.608   0.751  0.9686 -1.5681 -0.6632
  220MOL0     C29584   2.850   2.743   0.726  0.3500 -0.5247  1.0888
  220MOL0     C29585   2.906   2.828   0.832  0.4930  0.0567 -1.3259
  220MOL0     C29586   3.057   2.811   0.839 -0.3328 -0.1898  0.1144
  220MOL0     C29587   3.121   2.895   0.944 -0.7119 -0.0337 -0.0164
  220MOL0     C29588   3.271   2.873   0.941  0.5030 -0.4808  0.0185
  220MOL0     O29589   3.296   2.733   0.966  0.3025  0.1685  1.2252
  220MOL0     C29590   3.421   2.697   0.930 -0.1039  0.3356  0.3856
  220MOL0     C29591   3.481   2.723   0.806 -1.6361 -0.1124  0.5759
  220MOL0     C29592   3.608   2.684   0.771 -0.5136  0.4856  0.7925
  220MOL0     C29593   3.663   2.709   0.631 -0.5496 -0.2746  0.1367
  220MOL0     C29594   3.690   2.622   0.872  0.2971  0.8622 -0.8800
  220MOL0     C29595   3.830   2.582   0.854 -0.0152 -0.2336  0.8134
  220MOL0     O29596   3.875   2.541   0.734 -0.1679  0.4152 -0.1242
  220MOL0     C29597   4.011   2.518   0.718  0.5826  0.1483 -0.2457
  220MOL0     C29598   4.060   2.382   0.730 -0.6118  0.3916  0.5259
  220MOL0     C29599   4.201   2.354   0.730  0.7588  0.1280  0.1650
  220MOL0     C29600   4.293   2.456   0.703 -0.5001  0.0038 -0.3868
  220MOL0     O29601   4.422   2.414   0.714  0.5343 -0.1093  0.0877
  220MOL0     C29602   4.529   2.498   0.705  0.0145  0.6821  1.3481
  220MOL0     C29603   4.648   2.411   0.665 -0.2497  0.1844  0.2707
  220MOL0     C29604   4.778   2.457   0.707 -0.6212  0.2942 -0.7579
  220MOL0     C29605   4.874   2.333   0.696 -0.3331  0.5827 -0.7445
  220MOL0     C29606   5.020   2.365   0.725  1.2613  1.3564  0.5107
  220MOL0     C29607   5.099   2.234   0.714  0.0597  0.2249 -0.4692
  220MOL0     C29608   5.256   2.255   0.728 -0.2442 -0.1263 -0.9749
  220MOL0     C29609   5.288   2.323   0.859 -0.0876  0.3825  0.3164
  220MOL0    Cl29610   5.296   2.508   0.828 -0.5391  0.3838  0.4149
  220MOL0     C29611   4.247   2.580   0.680 -0.3537  0.0252 -0.0842
  220MOL0     C29612   4.114   2.611   0.696  0.7622  0.6122  0.1376
  220MOL0     O29613   3.901   2.606   0.951 -0.8552  0.6334  1.4401
  220MOL0     C29614   3.630   2.584   0.993  0.7155 -0.5860  0.4609
  220MOL0     C29615   3.498   2.627   1.017  0.3051  0.8518 -0.3805
  220MOL0     N29616   2.780   2.762   0.604  0.0438 -0.1702 -0.2550
  220MOL0     N29617   2.731   2.657   0.559  1.3683  1.4537  1.6575
  220MOL0     C29618   1.736   2.176   0.798 -0.0219  0.8617  0.0062
  220MOL0     C29619   1.608   2.113   0.813  0.6452  0.2885  1.2622
  220MOL0     C29620   1.238   1.940   1.044 -1.6763  0.3643 -0.3594
  220MOL0     C29621   1.244   1.811   0.982 -0.1679 -0.3927 -0.3541
  220MOL0     C29622   1.139   1.727   0.994 -1.1534  0.6398 -0.4063
  220MOL0     C29623   1.026   1.748   1.077  0.1395  0.4459 -0.8294
  220MOL0     O29624   0.922   1.661   1.095 -0.4306 -0.3465 -0.3114
  220MOL0     C29625   0.919   1.537   1.018 -0.3540 -0.1895 -0.0971
  220MOL0     C29626   0.807   1.440   1.055  0.0178 -0.1235  0.2523
  220MOL0     C29627   0.677   1.514   1.008  0.3915 -0.2979  0.0682
  220MOL0     C29628   0.546   1.489   1.087  0.9335 -0.4983  0.2433
  220MOL0     C29629   0.558   1.517   1.233  0.0490 -0.4738 -0.2606
  220MOL0     C29630   0.582   1.540   1.347 -0.5691 -0.3353 -0.6000
  220MOL0     C29631   1.028   1.865   1.154  0.3795  0.2356 -0.0318
  220MOL0     C29632   1.133   1.963   1.135  0.8858 -0.0759 -0.6798
  220MOL0     H29633   1.583   2.126   1.143 -0.5993  2.5509  1.3964
  220MOL0     H29634   1.811   2.232   1.122 -2.2474  0.4663  0.6758
  220MOL0     H29635   1.873   2.453   0.958 -0.8029 -1.3825  1.0340
  220MOL0     H29636   2.018   2.401   1.027 -1.0553  0.6250  1.0878
  220MOL0     H29637   1.979   2.493   0.734  0.6725  0.7016  0.2432
  220MOL0     H29638   2.058   2.595   0.853 -4.0693 -0.1383  4.8292
  220MOL0     H29639   2.154   2.321   0.763 -0.4909  0.0493  1.9016
  220MOL0     H29640   2.201   2.475   0.689 -4.4972  4.8266 -0.1502
  220MOL0     H29641   2.286   2.546   0.924 -1.1169  1.7824 -3.8970
  220MOL0     H29642   2.222   2.394   0.982  2.1185  0.2042  2.2792
  220MOL0     H29643   2.466   2.367   0.959 -0.1615  0.5751  1.5944
  220MOL0     H29644   2.377   2.276   0.829 -1.7044  0.6976 -0.9328
  220MOL0     H29645   2.450   2.448   0.672 -2.2780 -1.2732  1.6234
  220MOL0     H29646   2.504   2.553   0.817 -0.8241  0.9699  0.5727
  220MOL0     H29647   2.680   2.409   0.867 -0.2557 -1.4204  0.5216
  220MOL0     H29648   2.615   2.281   0.785  0.8753  0.0468  1.4466
  220MOL0     H29649   2.659   2.400   0.570  1.1200  0.5098 -0.3154
  220MOL0     H29650   2.806   2.368   0.662 -0.3214 -0.5846 -2.2399
  220MOL0     H29651   2.863   2.553   0.840 -1.7029  0.7317  1.8545
  220MOL0     H29652   2.889   2.934   0.810 -1.4436 -0.0170 -0.4653
  220MOL0     H29653   2.848   2.813   0.924 -0.3806  1.7391 -1.5548
  220MOL0     H29654   3.100   2.832   0.740  0.0332 -4.1403 -0.7595
  220MOL0     H29655   3.074   2.709   0.874  2.2340  1.1074  3.0734
  220MOL0     H29656   3.078   2.870   1.042  2.2360  0.9683  1.6332
  220MOL0     H29657   3.098   3.000   0.927 -2.3451 -0.3717 -0.0740
  220MOL0     H29658   3.319   2.920   1.028 -1.9990 -0.5158  1.5224
  220MOL0     H29659   3.311   2.916   0.849  0.0077 -2.2132 -1.0573
  220MOL0     H29660   3.423   2.763   0.724  0.6888 -1.0136 -1.6686
  220MOL0     H29661   3.721   2.801   0.626  1.0342 -1.2868 -0.6919
  220MOL0     H29662   3.721   2.623   0.596  1.7479  0.9714  0.7023
  220MOL0     H29663   3.578   2.723   0.564  0.8355 -0.6727 -1.7813
  220MOL0     H29664   3.983   2.305   0.732 -0.6754  0.3337 -1.8045
  220MOL0     H29665   4.239   2.254   0.750 -1.2003 -0.9186 -1.0220
  220MOL0     H29666   4.514   2.562   0.617  1.0605  0.4106  0.9554
  220MOL0     H29667   4.543   2.548   0.801  1.5602 -0.2894  1.6595
  220MOL0     H29668   4.635   2.318   0.722  1.8931  0.1487  0.7910
  220MOL0     H29669   4.645   2.393   0.557 -1.4044 -0.4079  0.3833
  220MOL0     H29670   4.774   2.507   0.804  1.2039 -1.8672  0.5451
  220MOL0     H29671   4.825   2.530   0.641  2.1991  1.7122  2.4951
  220MOL0     H29672   4.836   2.262   0.771  3.0701 -0.3108  0.3232
  220MOL0     H29673   4.868   2.290   0.595 -0.1439  2.6510 -1.6771
  220MOL0     H29674   5.021   2.414   0.823  2.3111  2.6550 -0.1145
  220MOL0     H29675   5.057   2.443   0.658 -0.3426  1.4687 -0.2873
  220MOL0     H29676   5.066   2.160   0.787 -1.3818  0.7191 -0.5901
  220MOL0     H29677   5.079   2.192   0.615 -3.3331 -1.3280  0.7152
  220MOL0     H29678   5.302   2.309   0.645 -3.4753  0.6092 -2.4472
  220MOL0     H29679   5.300   2.156   0.723 -0.1673 -0.0483 -2.0716
  220MOL0     H29680   5.384   2.282   0.889  1.2474  1.6759 -1.9062
  220MOL0     H29681   5.210   2.299   0.932  0.6269 -2.7069  0.2023
  220MOL0     H29682   4.313   2.666   0.667  3.8846 -2.2521  3.3626
  220MOL0     H29683   4.088   2.717   0.691  3.0260  1.2759  1.4063
  220MOL0     H29684   3.681   2.520   1.064  1.1085 -2.3776 -1.3521
  220MOL0     H29685   3.453   2.622   1.115 -2.7358  4.0628 -1.3962
  220MOL0     H29686   1.781   2.190   0.700 -0.9777 -0.0497 -0.5844
  220MOL0     H29687   1.558   2.074   0.726  3.5285  0.5016 -0.6220
  220MOL0     H29688   1.324   1.771   0.921  1.3715  1.1866  0.5279
  220MOL0     H29689   1.146   1.635   0.936  0.9425  0.2595  0.3821
  220MOL0     H29690   0.930   1.562   0.912 -0.5778  2.5282  0.4451
  220MOL0     H29691   1.009   1.481   1.047  0.5904  0.9578 -0.6796
  220MOL0     H29692   0.825   1.416   1.160 -0.1038 -2.4205 -0.2058
  220MOL0     H29693   0.820   1.349   0.996  0.4575  0.0763  0.0337
  220MOL0     H29694   0.656   1.499   0.902  1.0428  1.7366 -0.3913
  220MOL0     H29695   0.690   1.622   1.025 -0.6481 -0.5305  2.8742
  220MOL0     H29696   0.505   1.391   1.065  1.4724 -0.8439  0.7320
  220MOL0     H29697   0.468   1.559   1.055  1.1839 -1.1845 -2.0431
  220MOL0     H29698   0.594   1.565   1.450  0.0257  1.4346 -1.0634
  220MOL0     H29699   0.957   1.896   1.229  0.4932  2.5017 -0.7905
  220MOL0     H29700   1.129   2.062   1.179  3.5690  1.0812 -2.7686
  221MOL0     O29701   9.063  10.255   3.257 -0.2036  0.3754  0.2222
  221MOL0     C29702   9.073  10.211   3.143 -0.4952 -0.4101 -0.1812
  221MOL0     O29703   9.185  10.173   3.081 -0.8389 -0.2974 -0.3233
  221MOL0     C29704   9.303  10.149   3.146 -0.5440  0.0327 -0.1109
  221MOL0     C29705   9.354  10.022   3.171  0.2511  0.6020  0.3330
  221MOL0     C29706   9.473  10.003   3.228  0.8307  0.8492 -0.4940
  221MOL0     C29707   9.557  10.117   3.249 -0.2411  0.8545  0.0682
  221MOL0     O29708   9.684  10.082   3.294 -0.3312 -0.1048  0.0366
  221MOL0     C29709   9.794  10.159   3.252 -0.6640  0.3073 -0.0680
  221MOL0     C29710   9.815  10.132   3.102  0.8021 -0.3593  0.0439
  221MOL0     C29711   9.961  10.135   3.039  0.0255 -0.6019  0.7862
  221MOL0     C29712  10.075  10.180   3.118 -0.9343  0.5741  0.0645
  221MOL0     C29713  10.140  10.059   3.179 -1.2453  0.2644 -0.0911
  221MOL0     C29714  10.236  10.089   3.298  0.1496 -0.0131  0.4193
  221MOL0     C29715  10.164  10.081   3.434 -0.6100  0.2317 -0.8627
  221MOL0     C29716  10.269  10.084   3.552  0.5925  0.7018 -0.2242
  221MOL0     N29717  10.386  10.165   3.551  0.0917 -0.3676 -0.4461
  221MOL0     C29718  10.382  10.287   3.595  0.0583 -0.8698  0.4333
  221MOL0     C29719  10.505  10.336   3.577 -0.4012  0.0557  0.0541
  221MOL0     C29720  10.548  10.479   3.595 -1.0322 -0.1049 -0.2307
  221MOL0     C29721  10.574  10.539   3.454  0.7072 -0.0514  0.7363
  221MOL0     C29722  10.597  10.694   3.463 -0.2116 -0.0519  0.6148
  221MOL0     C29723  10.722  10.741   3.543  0.2722  0.1922 -1.2345
  221MOL0     O29724  10.848  10.673   3.513  0.2258  0.5411  0.1187
  221MOL0     C29725  10.958  10.672   3.592 -0.6426 -0.1511 -0.1000
  221MOL0     C29726  10.960  10.743   3.716 -0.1227  0.0253  0.0569
  221MOL0     C29727  11.078  10.742   3.801  0.3809  0.9240 -0.8777
  221MOL0     C29728  11.072  10.815   3.927  0.5185 -1.0747  0.3842
  221MOL0     C29729  11.191  10.672   3.762  0.1306 -0.2578 -0.2887
  221MOL0     C29730  11.321  10.647   3.828 -0.5916  0.5713  0.1145
  221MOL0     O29731  11.426  10.586   3.768  0.5973 -0.4105 -0.2136
  221MOL0     C29732  11.525  10.527   3.841  0.2779  1.2623  0.6908
  221MOL0     C29733  11.529  10.392   3.865  0.5502 -0.2625 -0.3550
  221MOL0     C29734  11.617  10.335   3.957 -0.1092  0.3865 -1.1793
  221MOL0     C29735  11.715  10.413   4.016  0.0612 -0.1412 -0.1127
  221MOL0     O29736  11.806  10.360   4.095 -0.1394 -0.4267  0.0010
  221MOL0     C29737  11.841  10.453   4.200 -0.0764  1.1738 -0.0252
  221MOL0     C29738  11.907  10.366   4.304 -0.4931  0.3842  0.2370
  221MOL0     C29739  11.938  10.450   4.429  0.8601 -0.2882  0.9262
  221MOL0     C29740  11.998  10.377   4.545 -0.2346  0.7183 -0.4177
  221MOL0     C29741  12.057  10.480   4.658 -0.8538  0.6015  0.3984
  221MOL0     C29742  12.097  10.423   4.796 -0.2245 -0.8801  0.6484
  221MOL0     C29743  12.248  10.394   4.797 -0.5306 -1.0459  0.5552
  221MOL0     C29744  12.284  10.271   4.873  0.3321  0.0795 -0.3518
  221MOL0    Cl29745  12.285  10.313   5.047  0.2640  0.3934 -0.3565
  221MOL0     C29746  11.727  10.548   3.977 -0.1723 -1.0911  0.3124
  221MOL0     C29747  11.624  10.605   3.894  0.3515  0.6526  0.0415
  221MOL0     O29748  11.337  10.686   3.943  0.0153  0.0155 -0.1965
  221MOL0     C29749  11.178  10.590   3.642 -0.3475  0.4541 -0.2372
  221MOL0     C29750  11.068  10.585   3.562  0.3647 -0.6425 -0.2435
  221MOL0     N29751  10.581  10.219   3.541 -0.3244 -0.6419 -1.3103
  221MOL0     N29752  10.505  10.116   3.517  0.5329  0.1279 -0.2252
  221MOL0     C29753   9.520  10.241   3.214 -0.1629  0.2202  0.6449
  221MOL0     C29754   9.383  10.260   3.168 -0.5308 -0.0178 -0.2729
  221MOL0     C29755   8.949  10.212   3.050 -0.6575  0.4005 -0.1634
  221MOL0     C29756   8.817  10.206   3.097 -0.2309 -0.2814  0.0090
  221MOL0     C29757   8.711  10.204   3.012 -0.2839 -0.4347 -0.0200
  221MOL0     C29758   8.725  10.238   2.876 -0.8450 -0.7317 -0.2194
  221MOL0     O29759   8.629  10.270   2.790  0.0880 -0.3592 -0.4747
  221MOL0     C29760   8.519  10.343   2.840 -0.1126  0.1249  0.4358
  221MOL0     C29761   8.431  10.400   2.723  0.2899 -0.1406  0.1289
  221MOL0     C29762   8.352  10.283   2.653  1.2070  0.8711  1.4328
  221MOL0     C29763   8.353  10.319   2.504  0.0182 -0.5600  0.0716
  221MOL0     C29764   8.471  10.260   2.439 -0.5862 -0.8146  0.0983
  221MOL0     C29765   8.578  10.211   2.427  0.2289 -0.4678  1.2783
  221MOL0     C29766   8.854  10.243   2.835 -0.2975 -1.3114 -0.8207
  221MOL0     C29767   8.968  10.243   2.915 -0.2040  0.5568 -0.7475
  221MOL0     H29768   9.292   9.933   3.166 -0.0630  0.4859  3.7164
  221MOL0     H29769   9.500   9.898   3.228 -0.2598  0.5531  0.4983
  221MOL0     H29770   9.773  10.261   3.287  2.0119  0.2571  1.9532
  221MOL0     H29771   9.887  10.134   3.302  1.0559  1.1478 -2.6487
  221MOL0     H29772   9.794  10.027   3.079  0.7831  0.1730 -2.6560
  221MOL0     H29773   9.736  10.194   3.059 -0.7081  0.8046  4.0107
  221MOL0     H29774   9.976  10.031   3.008 -2.0518 -1.6894  3.0710
  221MOL0     H29775   9.941  10.198   2.952 -1.3239 -1.4119  0.4831
  221MOL0     H29776  10.148  10.231   3.055 -0.9312  0.4295 -0.0519
  221MOL0     H29777  10.048  10.249   3.199 -1.1518  0.7866 -0.1888
  221MOL0     H29778  10.068   9.984   3.211 -0.0669 -1.1725 -0.6867
  221MOL0     H29779  10.200  10.019   3.096 -1.1273 -0.9994  0.5899
  221MOL0     H29780  10.312  10.011   3.305 -1.1962 -1.2563  2.0821
  221MOL0     H29781  10.284  10.187   3.289 -0.2992  0.7279  4.3547
  221MOL0     H29782  10.112  10.177   3.432 -3.1055 -1.0450 -3.6873
  221MOL0     H29783  10.106   9.989   3.432 -1.1589  0.5792 -1.0656
  221MOL0     H29784  10.300   9.979   3.560  0.4624  0.6535 -0.3371
  221MOL0     H29785  10.215  10.107   3.645  0.7908  0.4636 -0.0479
  221MOL0     H29786  10.299  10.348   3.629  1.6829  0.2385  2.5847
  221MOL0     H29787  10.468  10.533   3.646 -2.4488 -0.2951 -2.1183
  221MOL0     H29788  10.646  10.472   3.643 -1.3706  0.3045  0.5363
  221MOL0     H29789  10.485  10.534   3.391 -0.0311 -0.4432  1.7769
  221MOL0     H29790  10.659  10.486   3.409  0.7812  1.7558 -1.4292
  221MOL0     H29791  10.500  10.740   3.483 -0.0807  1.1399 -1.2336
  221MOL0     H29792  10.624  10.719   3.360 -0.6194 -0.6059  0.3680
  221MOL0     H29793  10.697  10.720   3.647  1.8492  3.4251 -0.0575
  221MOL0     H29794  10.731  10.849   3.526  3.7966  0.1077 -0.6525
  221MOL0     H29795  10.874  10.805   3.740  1.4295  2.7279 -0.9451
  221MOL0     H29796  11.095  10.749   4.010  2.3611 -0.5508  0.3424
  221MOL0     H29797  11.127  10.910   3.933  2.9882 -2.0722 -3.2554
  221MOL0     H29798  10.966  10.843   3.937  0.1584 -2.6047  1.0276
  221MOL0     H29799  11.451  10.328   3.825 -1.2172  1.3465  0.4204
  221MOL0     H29800  11.612  10.232   3.989  2.2713 -0.1164 -2.2174
  221MOL0     H29801  11.917  10.529   4.176 -1.4093  2.0655 -1.6333
  221MOL0     H29802  11.753  10.506   4.239  0.7044  0.0944  3.6755
  221MOL0     H29803  11.847  10.276   4.320  1.4264 -1.0800 -0.4473
  221MOL0     H29804  12.003  10.340   4.257 -0.8336  1.3279 -1.0350
  221MOL0     H29805  11.847  10.504   4.457 -0.3708 -2.1949  0.7730
  221MOL0     H29806  12.001  10.532   4.393 -0.2211 -0.8713 -2.6887
  221MOL0     H29807  11.913  10.324   4.590 -0.0968 -0.4939 -1.5057
  221MOL0     H29808  12.073  10.307   4.505 -0.8354 -0.0607 -0.2127
  221MOL0     H29809  11.980  10.554   4.679 -1.5662 -0.2701  0.9678
  221MOL0     H29810  12.143  10.542   4.631  0.4156 -1.4212 -0.5009
  221MOL0     H29811  12.075  10.495   4.875  2.4558 -1.3138  1.9074
  221MOL0     H29812  12.045  10.328   4.805 -2.4037  0.0330 -1.1705
  221MOL0     H29813  12.309  10.463   4.855  0.5352 -3.2110  2.1474
  221MOL0     H29814  12.281  10.398   4.693 -0.8825 -1.7603  0.4052
  221MOL0     H29815  12.379  10.224   4.846  1.4248 -0.8396  4.1173
  221MOL0     H29816  12.211  10.190   4.863  2.1857 -1.7029 -0.1682
  221MOL0     H29817  11.805  10.612   4.017  0.1617  0.5933 -2.7222
  221MOL0     H29818  11.604  10.710   3.872  2.0723  0.9402 -0.3198
  221MOL0     H29819  11.267  10.537   3.610 -0.6475  0.3050 -0.8206
  221MOL0     H29820  11.076  10.534   3.467  0.8430 -1.5922  0.2916
  221MOL0     H29821   9.588  10.321   3.243  0.4251  1.0852 -2.6575
  221MOL0     H29822   9.346  10.361   3.151 -1.7340 -0.5762 -1.1447
  221MOL0     H29823   8.797  10.202   3.203 -1.1137 -0.7780 -0.1609
  221MOL0     H29824   8.610  10.199   3.051 -0.9353  0.3763 -1.5127
  221MOL0     H29825   8.459  10.278   2.904 -0.0492 -0.5212 -0.1454
  221MOL0     H29826   8.561  10.425   2.899  0.6860 -0.1712  0.2885
  221MOL0     H29827   8.503  10.452   2.660 -1.1300  0.9031 -0.6873
  221MOL0     H29828   8.356  10.467   2.768 -0.4697 -0.9935  0.1621
  221MOL0     H29829   8.253  10.275   2.700  1.3975  0.7541  1.8200
  221MOL0     H29830   8.396  10.185   2.674 -0.9455  0.4391  4.7723
  221MOL0     H29831   8.373  10.425   2.486 -0.7084 -0.6167 -1.1965
  221MOL0     H29832   8.254  10.306   2.458  1.5909  1.3258 -4.3228
  221MOL0     H29833   8.675  10.166   2.431  0.0500 -0.7699  2.5803
  221MOL0     H29834   8.870  10.251   2.728  1.3299 -2.4621 -0.7053
  221MOL0     H29835   9.067  10.257   2.872  0.4203  0.1781  0.5280
  222MOL0     O29836   3.793   7.170   0.553  0.1240 -0.1436  1.0181
  222MOL0     C29837   3.887   7.161   0.469 -0.2372  1.1389  0.4845
  222MOL0     O29838   3.986   7.256   0.440  0.9368  0.2823 -0.5757
  222MOL0     C29839   3.954   7.381   0.476 -0.3405  0.0027 -0.4547
  222MOL0     C29840   3.985   7.423   0.609  0.2925  0.1429  0.9713
  222MOL0     C29841   3.945   7.545   0.652  0.4107 -1.3045 -0.9350
  222MOL0     C29842   3.887   7.637   0.557 -0.4449  0.5862 -0.0252
  222MOL0     O29843   3.844   7.765   0.588 -0.5786  0.7353 -0.6103
  222MOL0     C29844   3.877   7.880   0.506 -0.0089  0.2214 -0.2181
  222MOL0     C29845   4.022   7.907   0.451  0.9102 -0.1466  0.1188
  222MOL0     C29846   4.135   7.966   0.544 -0.3897 -0.0368 -0.9304
  222MOL0     C29847   4.230   7.877   0.624  0.1700  0.9215 -0.9067
  222MOL0     C29848   4.304   7.769   0.538  0.4194 -0.5417 -0.1623
  222MOL0     C29849   4.372   7.659   0.630 -0.3391  0.2100  0.5620
  222MOL0     C29850   4.489   7.580   0.559  0.1882 -0.4341  0.0333
  222MOL0     C29851   4.465   7.510   0.427  0.6935  0.9293 -0.1981
  222MOL0     N29852   4.585   7.477   0.346 -0.4749 -0.6785  0.4531
  222MOL0     C29853   4.601   7.375   0.258  1.0545 -0.1796  0.8528
  222MOL0     C29854   4.702   7.420   0.178 -0.0860  0.1132  0.9891
  222MOL0     C29855   4.746   7.340   0.060 -1.1803  1.0725 -0.8487
  222MOL0     C29856   4.632   7.286  -0.031  0.0240 -0.2358  0.2201
  222MOL0     C29857   4.586   7.404  -0.127  0.3189 -0.0676  0.9057
  222MOL0     C29858   4.659   7.418  -0.265  0.9108 -0.0227  0.1145
  222MOL0     O29859   4.799   7.443  -0.250 -0.7304 -0.2887  0.9767
  222MOL0     C29860   4.864   7.425  -0.378 -0.3099  0.2104  0.0473
  222MOL0     C29861   4.943   7.526  -0.435  0.4715  0.3422 -0.2159
  222MOL0     C29862   5.011   7.514  -0.554  0.1237 -0.3449  0.2974
  222MOL0     C29863   5.103   7.633  -0.588 -0.0373  0.2268 -0.9211
  222MOL0     C29864   4.973   7.409  -0.632 -0.4831  0.7345 -0.1497
  222MOL0     C29865   5.027   7.394  -0.778  0.1938  0.0612 -0.5331
  222MOL0     O29866   4.953   7.328  -0.858 -1.0289 -0.1069  0.7528
  222MOL0     C29867   4.946   7.352  -0.998 -0.5404 -0.3180  0.7676
  222MOL0     C29868   4.936   7.251  -1.091  0.5855  0.0316  0.4510
  222MOL0     C29869   4.934   7.275  -1.233 -0.3812  0.1220 -0.3009
  222MOL0     C29870   4.932   7.397  -1.276 -0.6318 -0.6372  1.1203
  222MOL0     O29871   4.908   7.419  -1.417  0.8451  0.0071 -0.6682
  222MOL0     C29872   4.986   7.349  -1.522 -1.1732 -0.2414 -0.4496
  222MOL0     C29873   5.106   7.435  -1.561  1.0599  0.1896 -0.3982
  222MOL0     C29874   5.213   7.427  -1.452 -1.1648 -0.3699 -0.7498
  222MOL0     C29875   5.338   7.527  -1.458  1.2931 -0.1656 -0.6260
  222MOL0     C29876   5.290   7.672  -1.494  0.2206 -0.0945 -0.0766
  222MOL0     C29877   5.392   7.779  -1.491 -0.2028  0.0385  0.4611
  222MOL0     C29878   5.354   7.918  -1.555  0.0850  0.0558 -0.7183
  222MOL0     C29879   5.437   8.034  -1.502  0.7567 -0.5341  1.1579
  222MOL0    Cl29880   5.603   8.035  -1.563 -0.7919 -0.1580  0.3753
  222MOL0     C29881   4.938   7.508  -1.183 -0.3588 -0.0416  0.0652
  222MOL0     C29882   4.941   7.484  -1.047  0.0821  0.6323  0.3449
  222MOL0     O29883   5.135   7.445  -0.805  0.4944  1.4711  0.5228
  222MOL0     C29884   4.889   7.310  -0.580 -0.3224 -0.2929  0.1176
  222MOL0     C29885   4.846   7.303  -0.456  0.4210 -0.1620 -0.7908
  222MOL0     N29886   4.758   7.536   0.231 -0.3429  0.0921 -0.5820
  222MOL0     N29887   4.689   7.566   0.333  0.3121 -0.0796 -0.0927
  222MOL0     C29888   3.862   7.596   0.426  1.1109  0.2849 -0.3740
  222MOL0     C29889   3.897   7.464   0.385  0.1927  0.6607 -0.2211
  222MOL0     C29890   3.890   7.041   0.388 -0.1402 -0.5645  0.0231
  222MOL0     C29891   3.829   6.921   0.431  0.4975 -0.2508  0.7457
  222MOL0     C29892   3.831   6.809   0.345  0.7138 -0.6320 -0.6458
  222MOL0     C29893   3.908   6.804   0.229 -0.2040  0.6038  0.4038
  222MOL0     O29894   3.865   6.685   0.175  0.7759 -0.2895  0.2954
  222MOL0     C29895   3.902   6.684   0.029  0.1832  0.6493 -0.6655
  222MOL0     C29896   3.841   6.570  -0.061 -0.4105 -1.2128  0.3213
  222MOL0     C29897   3.813   6.451   0.024  0.3158  0.4372 -0.1425
  222MOL0     C29898   3.790   6.321  -0.055 -0.3432  0.5078 -0.0536
  222MOL0     C29899   3.916   6.293  -0.122 -0.4565  0.5470  0.5874
  222MOL0     C29900   4.027   6.273  -0.182 -0.5511 -0.2764  0.2211
  222MOL0     C29901   3.985   6.926   0.185  0.3578 -0.5578  0.6395
  222MOL0     C29902   3.968   7.046   0.268 -0.0997 -0.0941 -0.2079
  222MOL0     H29903   4.026   7.345   0.673 -0.4948 -0.1155  1.1723
  222MOL0     H29904   3.949   7.578   0.755 -4.0607  1.3339 -1.3722
  222MOL0     H29905   3.811   7.878   0.419 -1.7523  2.2100  0.9634
  222MOL0     H29906   3.850   7.975   0.553 -2.3636  0.0612 -1.1222
  222MOL0     H29907   4.052   7.821   0.391  1.5511 -1.6875  2.5073
  222MOL0     H29908   3.999   7.984   0.377  1.3634 -1.5125 -1.4965
  222MOL0     H29909   4.209   8.032   0.497  2.0769 -1.5377  0.6120
  222MOL0     H29910   4.094   8.034   0.619  0.8636 -0.1278 -0.1269
  222MOL0     H29911   4.309   7.922   0.685  1.6551 -0.0401 -2.0426
  222MOL0     H29912   4.170   7.834   0.704  2.5814  0.0384  0.5542
  222MOL0     H29913   4.234   7.718   0.471  1.5111  0.7993 -2.4304
  222MOL0     H29914   4.380   7.816   0.475 -1.0869 -1.1320 -2.5385
  222MOL0     H29915   4.423   7.712   0.711 -0.8160  2.4491 -0.5189
  222MOL0     H29916   4.293   7.590   0.662  0.0296 -0.8210 -0.6428
  222MOL0     H29917   4.571   7.652   0.552  1.7885 -2.0163  1.5057
  222MOL0     H29918   4.534   7.508   0.628  3.5245  2.3103  1.0011
  222MOL0     H29919   4.406   7.563   0.352  1.5506  0.0600 -1.5396
  222MOL0     H29920   4.404   7.421   0.448 -1.7675  1.8030 -2.8990
  222MOL0     H29921   4.522   7.302   0.239  0.4035 -1.0656  5.8035
  222MOL0     H29922   4.823   7.392   0.003 -0.6155  1.1831 -0.0011
  222MOL0     H29923   4.797   7.252   0.101 -2.3580 -0.0801 -1.7287
  222MOL0     H29924   4.546   7.250   0.028 -1.0551  2.7650  0.6745
  222MOL0     H29925   4.680   7.203  -0.083 -1.9838  0.4302 -2.9566
  222MOL0     H29926   4.608   7.501  -0.082  0.6706 -0.3888  1.4392
  222MOL0     H29927   4.476   7.407  -0.134  0.2081 -2.3098  0.9578
  222MOL0     H29928   4.608   7.508  -0.301 -1.2712 -0.6615  1.4148
  222MOL0     H29929   4.628   7.329  -0.322 -2.0231 -0.1961  1.7947
  222MOL0     H29930   4.925   7.624  -0.391 -1.5573  1.6510 -3.5722
  222MOL0     H29931   5.086   7.715  -0.517 -0.4829 -0.1191 -0.6188
  222MOL0     H29932   5.209   7.609  -0.585 -0.4818 -2.2421 -2.4186
  222MOL0     H29933   5.081   7.682  -0.683  0.8333  2.1584 -0.1797
  222MOL0     H29934   4.946   7.151  -1.051 -1.8827 -0.3176  0.3087
  222MOL0     H29935   4.924   7.188  -1.298  0.3490 -1.5923  1.7510
  222MOL0     H29936   5.014   7.245  -1.498  0.3245  0.7853  2.9201
  222MOL0     H29937   4.921   7.342  -1.609  2.2691 -0.5385 -3.1870
  222MOL0     H29938   5.145   7.390  -1.653 -1.8535  0.0906 -1.7037
  222MOL0     H29939   5.079   7.539  -1.579 -1.5276 -0.2987  0.2289
  222MOL0     H29940   5.226   7.321  -1.431 -0.4482  0.1910  1.9685
  222MOL0     H29941   5.168   7.471  -1.362  0.5248  0.0511 -0.0839
  222MOL0     H29942   5.380   7.521  -1.357 -0.5151  0.0871  0.1704
  222MOL0     H29943   5.406   7.492  -1.536 -0.3934  0.7003 -2.5722
  222MOL0     H29944   5.210   7.707  -1.427  1.7120 -0.0066  1.7585
  222MOL0     H29945   5.253   7.664  -1.596 -1.6520  2.2979  0.3146
  222MOL0     H29946   5.414   7.787  -1.384 -5.1061 -1.4511  1.8384
  222MOL0     H29947   5.478   7.740  -1.547 -0.6451 -1.2128  0.6245
  222MOL0     H29948   5.248   7.941  -1.542  0.5924  2.3889 -0.1513
  222MOL0     H29949   5.372   7.899  -1.661  0.1112  1.4160 -0.9794
  222MOL0     H29950   5.418   8.053  -1.396 -0.8049  2.2982  0.4858
  222MOL0     H29951   5.403   8.124  -1.556  0.0273 -2.6588 -2.2602
  222MOL0     H29952   4.927   7.610  -1.219  2.3624 -0.2534 -1.6324
  222MOL0     H29953   4.925   7.569  -0.982  0.3144  1.1859 -0.3005
  222MOL0     H29954   4.862   7.220  -0.635  3.2719 -1.0654 -0.6512
  222MOL0     H29955   4.800   7.220  -0.404  0.2304  1.3319  1.6038
  222MOL0     H29956   3.817   7.662   0.352 -1.3562 -1.3793 -0.4925
  222MOL0     H29957   3.884   7.437   0.281  1.7942  1.4826 -0.6651
  222MOL0     H29958   3.791   6.925   0.533 -0.0132  0.0862  0.5492
  222MOL0     H29959   3.767   6.728   0.377 -1.1504  0.2084 -2.0321
  222MOL0     H29960   3.890   6.783  -0.017 -0.0135  0.1114 -1.8209
  222MOL0     H29961   4.009   6.663   0.022  0.3869  1.3510  0.2688
  222MOL0     H29962   3.912   6.549  -0.141 -1.1990 -1.9945 -0.1802
  222MOL0     H29963   3.745   6.597  -0.105  0.3596 -0.1361 -0.7905
  222MOL0     H29964   3.727   6.468   0.088  2.3809 -0.7896  3.2295
  222MOL0     H29965   3.895   6.433   0.095  0.8522  0.9783 -0.6095
  222MOL0     H29966   3.716   6.325  -0.135 -0.5980  1.0860  0.2041
  222MOL0     H29967   3.769   6.234   0.008  0.3637 -0.9038 -1.7112
  222MOL0     H29968   4.121   6.255  -0.229 -1.5118 -2.2176 -1.1093
  222MOL0     H29969   4.022   6.931   0.083  1.2918  0.7307  1.0260
  222MOL0     H29970   4.000   7.138   0.221 -1.4645  0.2127 -0.5544
  223MOL0     O29971   4.616   1.008   0.835 -1.2147  0.8729  1.4762
  223MOL0     C29972   4.578   0.903   0.880 -0.3286 -0.6193  0.5840
  223MOL0     O29973   4.499   0.814   0.815 -0.2027  0.5338 -0.0217
  223MOL0     C29974   4.520   0.799   0.677 -0.1158 -0.4621 -0.9224
  223MOL0     C29975   4.573   0.680   0.634 -0.2368  0.1155 -0.4829
  223MOL0     C29976   4.599   0.661   0.502  0.4996  1.6592  0.8927
  223MOL0     C29977   4.570   0.756   0.409  0.6990 -0.0204  0.9390
  223MOL0     O29978   4.586   0.728   0.275  0.1026 -0.3373  0.1641
  223MOL0     C29979   4.480   0.746   0.184 -0.4553  0.8711 -0.6331
  223MOL0     C29980   4.492   0.677   0.047 -0.0266 -0.4122 -0.0389
  223MOL0     C29981   4.579   0.747  -0.058  1.0729 -0.4919 -0.1240
  223MOL0     C29982   4.582   0.674  -0.190 -0.8544  0.6547  0.0502
  223MOL0     C29983   4.482   0.714  -0.296 -0.0931  0.8622  0.0592
  223MOL0     C29984   4.493   0.854  -0.351 -0.4328  0.4222  0.6845
  223MOL0     C29985   4.423   0.875  -0.481  0.5121  0.1853 -0.2279
  223MOL0     C29986   4.466   0.780  -0.596 -0.3270  0.3743  1.2423
  223MOL0     N29987   4.371   0.796  -0.708  0.7232 -0.0969 -0.2065
  223MOL0     C29988   4.383   0.837  -0.845  0.0157 -0.9812 -0.9983
  223MOL0     C29989   4.267   0.873  -0.885  0.9445  0.9413 -0.0267
  223MOL0     C29990   4.236   0.946  -1.017 -0.3468  0.2549  0.1566
  223MOL0     C29991   4.325   0.925  -1.131 -0.4073  0.3684 -0.0671
  223MOL0     C29992   4.287   0.977  -1.268  0.2120 -0.7842  0.5878
  223MOL0     C29993   4.408   0.965  -1.357 -0.9950  0.5491  0.8040
  223MOL0     O29994   4.380   1.028  -1.482  0.3156  0.8507 -0.0851
  223MOL0     C29995   4.447   0.989  -1.596 -0.3300  0.1698  0.2130
  223MOL0     C29996   4.387   0.988  -1.723 -0.5182 -0.5514 -0.3930
  223MOL0     C29997   4.462   0.957  -1.842 -0.2152 -0.0379  0.3685
  223MOL0     C29998   4.404   0.975  -1.984 -0.8412  0.9531 -0.0348
  223MOL0     C29999   4.597   0.919  -1.834  0.0652 -0.3510  0.2175
  223MOL0     C30000   4.687   0.858  -1.930  0.9264 -0.9534  0.1097
  223MOL0     O30001   4.823   0.852  -1.901  0.5914  0.2509 -0.1963
  223MOL0     C30002   4.909   0.761  -1.964  0.3179 -0.9138  0.1210
  223MOL0     C30003   4.864   0.637  -2.003 -0.0410 -0.0425  0.9577
  223MOL0     C30004   4.948   0.544  -2.060 -0.0008  0.3619  0.9348
  223MOL0     C30005   5.094   0.575  -2.060  0.6247 -0.4498 -0.2554
  223MOL0     O30006   5.176   0.478  -2.117  0.6712 -1.0950 -0.1080
  223MOL0     C30007   5.317   0.517  -2.116 -0.8184  0.4536  0.6546
  223MOL0     C30008   5.377   0.427  -2.223 -0.4280  0.1587  0.6673
  223MOL0     C30009   5.398   0.292  -2.171 -0.3930  0.0045  0.0233
  223MOL0     C30010   5.511   0.287  -2.088 -0.7243 -0.0654 -1.0225
  223MOL0     C30011   5.579   0.152  -2.084 -0.1586 -0.0450 -0.2305
  223MOL0     C30012   5.493   0.023  -2.063  0.0315 -0.7890 -1.4655
  223MOL0     C30013   5.565  -0.112  -2.041 -0.3231 -0.2193  0.7201
  223MOL0     C30014   5.600  -0.189  -2.175 -0.3028  0.0214 -0.3336
  223MOL0    Cl30015   5.755  -0.139  -2.216 -0.0888  0.6087  0.2064
  223MOL0     C30016   5.138   0.697  -2.000 -0.4991  0.1798  0.1215
  223MOL0     C30017   5.043   0.789  -1.957  0.0045 -0.4131 -0.6653
  223MOL0     O30018   4.624   0.805  -2.023  0.3668  0.1878 -0.6488
  223MOL0     C30019   4.659   0.927  -1.708  0.7078  0.0782 -0.6372
  223MOL0     C30020   4.582   0.956  -1.594 -0.6025 -0.7836 -0.0179
  223MOL0     N30021   4.170   0.832  -0.797 -0.1099  0.3694  0.1906
  223MOL0     N30022   4.227   0.781  -0.689 -0.9934 -0.3156 -0.5033
  223MOL0     C30023   4.493   0.865   0.451 -0.4046 -0.4188 -0.5543
  223MOL0     C30024   4.471   0.890   0.586 -1.1741  0.1085  1.0171
  223MOL0     C30025   4.586   0.885   1.026  0.6261  1.6764 -0.1720
  223MOL0     C30026   4.521   0.778   1.095 -0.1595 -0.1853 -0.4932
  223MOL0     C30027   4.520   0.780   1.234 -0.6055  1.2494 -0.3692
  223MOL0     C30028   4.578   0.882   1.317  0.9078  0.2185  0.5452
  223MOL0     O30029   4.551   0.883   1.455 -0.3331 -0.2241  0.1553
  223MOL0     C30030   4.650   0.953   1.532  1.1962 -1.1169 -0.2887
  223MOL0     C30031   4.776   0.881   1.557  1.3859  0.3536 -0.1217
  223MOL0     C30032   4.871   0.969   1.644  0.2313 -0.2723  0.5562
  223MOL0     C30033   4.960   1.072   1.563  0.5545 -0.1553  0.0630
  223MOL0     C30034   5.073   1.122   1.641  0.6713 -0.0999  0.5040
  223MOL0     C30035   5.173   1.173   1.695  0.0614 -0.3943  0.8210
  223MOL0     C30036   4.648   0.985   1.245  0.6660 -1.0468  0.4050
  223MOL0     C30037   4.653   0.983   1.100  0.2018 -1.0643  0.4408
  223MOL0     H30038   4.578   0.598   0.706  0.9141  0.3862 -0.2245
  223MOL0     H30039   4.643   0.570   0.462  1.2866  2.8185 -0.9985
  223MOL0     H30040   4.393   0.711   0.240  0.0292  1.9352  0.8513
  223MOL0     H30041   4.468   0.854   0.186 -2.0123  0.7383  1.7371
  223MOL0     H30042   4.536   0.578   0.063  0.6226 -0.1968 -0.4636
  223MOL0     H30043   4.389   0.663   0.012 -0.6504 -2.4293  2.3990
  223MOL0     H30044   4.530   0.842  -0.078  0.0214 -1.4195 -2.3536
  223MOL0     H30045   4.680   0.751  -0.017  0.6665  2.2113  0.8293
  223MOL0     H30046   4.684   0.674  -0.231 -1.0621 -2.9934 -0.8200
  223MOL0     H30047   4.565   0.568  -0.168  1.4251  0.8054  3.4342
  223MOL0     H30048   4.503   0.648  -0.380  0.7303 -0.8479  1.5444
  223MOL0     H30049   4.382   0.681  -0.266 -0.2299 -1.0767 -2.2895
  223MOL0     H30050   4.448   0.926  -0.281 -1.2634  0.1778  0.4058
  223MOL0     H30051   4.598   0.884  -0.361 -0.3206  0.0901  0.8577
  223MOL0     H30052   4.323   0.850  -0.443  1.1234 -2.3321 -0.0961
  223MOL0     H30053   4.428   0.979  -0.515 -0.4001 -0.4656 -2.5988
  223MOL0     H30054   4.457   0.672  -0.580 -3.5706  0.0753 -1.5740
  223MOL0     H30055   4.564   0.810  -0.633 -1.4947  0.4894 -2.0126
  223MOL0     H30056   4.475   0.853  -0.901  2.6344  0.8986  3.2853
  223MOL0     H30057   4.136   0.929  -1.060 -1.8219  1.3680  2.8967
  223MOL0     H30058   4.235   1.052  -0.989  0.4258  0.2665  0.1515
  223MOL0     H30059   4.357   0.820  -1.135  0.1076  0.4232  1.8328
  223MOL0     H30060   4.423   0.968  -1.112 -0.1590 -1.0961  2.2851
  223MOL0     H30061   4.260   1.083  -1.273  3.0891  0.4773  5.2946
  223MOL0     H30062   4.208   0.915  -1.310 -2.2344  1.5453  1.4761
  223MOL0     H30063   4.447   0.865  -1.380  0.6700  1.1277  0.9867
  223MOL0     H30064   4.490   1.021  -1.313 -1.1301  0.9733  0.5235
  223MOL0     H30065   4.285   1.023  -1.735 -0.2825  0.9464  1.5364
  223MOL0     H30066   4.326   1.051  -1.976 -0.7005  1.3521 -1.9812
  223MOL0     H30067   4.483   0.999  -2.056 -0.9064 -0.6016 -0.6476
  223MOL0     H30068   4.360   0.880  -2.015  0.1535 -0.2014  1.9354
  223MOL0     H30069   4.762   0.599  -2.002  0.8702 -2.6818  2.5561
  223MOL0     H30070   4.914   0.450  -2.102 -0.7247 -0.1861  2.6698
  223MOL0     H30071   5.340   0.617  -2.152 -0.8622  1.0454  2.2012
  223MOL0     H30072   5.362   0.502  -2.017 -0.5360 -1.8709  0.2341
  223MOL0     H30073   5.329   0.435  -2.321  1.4314  0.6929 -0.2419
  223MOL0     H30074   5.476   0.462  -2.252 -0.7303 -0.1537 -0.7970
  223MOL0     H30075   5.397   0.215  -2.248 -0.5817 -2.0360  1.9663
  223MOL0     H30076   5.318   0.250  -2.110  2.6366 -4.4175  1.4095
  223MOL0     H30077   5.591   0.355  -2.116  1.2346 -1.9661 -0.3165
  223MOL0     H30078   5.487   0.316  -1.985 -0.2497  0.5346 -1.0785
  223MOL0     H30079   5.654   0.154  -2.004  0.5005  1.4790 -0.8553
  223MOL0     H30080   5.641   0.144  -2.173 -0.0966  0.1452 -0.2044
  223MOL0     H30081   5.438   0.043  -1.970  2.0531 -2.0360  0.0824
  223MOL0     H30082   5.416   0.008  -2.139 -0.1097 -0.2817 -1.4264
  223MOL0     H30083   5.489  -0.171  -1.989 -0.6910  0.6641  1.2060
  223MOL0     H30084   5.657  -0.107  -1.983  2.6749 -3.9916 -3.0716
  223MOL0     H30085   5.519  -0.177  -2.247 -2.9719  0.1081  2.5013
  223MOL0     H30086   5.596  -0.295  -2.148  1.0652 -0.8013 -2.9629
  223MOL0     H30087   5.242   0.717  -1.977 -0.6090 -0.6909  1.5155
  223MOL0     H30088   5.064   0.882  -1.904 -1.4857 -0.3119 -0.2175
  223MOL0     H30089   4.761   0.892  -1.690  1.4861  2.3228 -0.2613
  223MOL0     H30090   4.630   0.958  -1.497 -1.7702 -1.2454  0.5883
  223MOL0     H30091   4.457   0.945   0.387 -0.8130 -0.9902 -1.0531
  223MOL0     H30092   4.435   0.989   0.613  1.9952  2.0878 -1.2716
  223MOL0     H30093   4.467   0.701   1.041 -2.0322  0.3503  0.5465
  223MOL0     H30094   4.466   0.694   1.272  1.5387  0.3314  0.7982
  223MOL0     H30095   4.681   1.047   1.486  1.5559 -3.2117 -4.8534
  223MOL0     H30096   4.591   0.969   1.623 -3.5269  0.7165 -3.3333
  223MOL0     H30097   4.836   0.868   1.467  3.4089 -3.5122  1.5501
  223MOL0     H30098   4.757   0.784   1.604 -1.1702 -0.0402 -1.7698
  223MOL0     H30099   4.942   0.904   1.696  2.6384  2.3513  0.7940
  223MOL0     H30100   4.815   1.026   1.719 -1.5276  0.7308 -1.3846
  223MOL0     H30101   4.897   1.156   1.533  1.4825  1.3587  2.1377
  223MOL0     H30102   5.000   1.033   1.468 -5.0111  0.7325 -3.0626
  223MOL0     H30103   5.259   1.213   1.744  1.2527 -2.6602  0.6833
  223MOL0     H30104   4.686   1.081   1.280  2.3003 -1.2264 -0.7784
  223MOL0     H30105   4.686   1.074   1.050 -0.9296 -0.9718 -0.1668
  224MOL0     O30106   6.501   5.916   0.280  1.3239  0.0674 -0.2240
  224MOL0     C30107   6.430   5.943   0.383 -0.4538  0.3618  0.1738
  224MOL0     O30108   6.475   5.941   0.509  0.1803 -0.0223  0.4887
  224MOL0     C30109   6.604   5.891   0.514 -0.0684 -0.2517  0.8477
  224MOL0     C30110   6.642   5.761   0.480  0.7635  0.1932  0.9111
  224MOL0     C30111   6.778   5.714   0.480  0.4512 -0.3094 -0.4821
  224MOL0     C30112   6.878   5.793   0.537 -0.4964  0.1636 -0.3088
  224MOL0     O30113   7.008   5.758   0.551 -0.1759  0.0776 -0.2313
  224MOL0     C30114   7.098   5.845   0.476  0.2212 -0.0548 -0.6987
  224MOL0     C30115   7.245   5.786   0.459 -0.1957  0.3881  0.8176
  224MOL0     C30116   7.243   5.632   0.423  0.3208 -0.2778 -0.3842
  224MOL0     C30117   7.224   5.594   0.272 -0.3584  0.0219 -0.0128
  224MOL0     C30118   7.249   5.444   0.252 -0.7933 -0.6022  0.8105
  224MOL0     C30119   7.135   5.355   0.294 -1.0538  0.4404 -0.2771
  224MOL0     C30120   7.005   5.359   0.205 -0.0029  0.5608  0.3105
  224MOL0     C30121   6.895   5.268   0.251  0.0527  0.3675 -0.8620
  224MOL0     N30122   6.916   5.123   0.236 -0.2731  0.0047 -0.3404
  224MOL0     C30123   6.940   5.020   0.330 -0.3494  0.1123  0.0361
  224MOL0     C30124   6.956   4.904   0.244  0.0536 -0.2146 -0.7802
  224MOL0     C30125   6.989   4.769   0.301  0.6445  0.3007  0.0386
  224MOL0     C30126   6.881   4.660   0.316 -0.3612 -0.5850  0.8725
  224MOL0     C30127   6.817   4.619   0.184 -0.5141  0.2447 -0.1526
  224MOL0     C30128   6.728   4.491   0.212  0.5858 -0.1723 -0.6426
  224MOL0     O30129   6.758   4.373   0.124  0.0599  0.4242 -0.7941
  224MOL0     C30130   6.814   4.262   0.179  0.3566  0.6220 -0.0628
  224MOL0     C30131   6.745   4.145   0.152 -0.4283  0.4801 -0.1597
  224MOL0     C30132   6.790   4.020   0.187  1.4758 -0.5346  0.4098
  224MOL0     C30133   6.710   3.900   0.115  0.3201  0.1940  1.3127
  224MOL0     C30134   6.912   4.016   0.256  0.0964 -0.0296 -0.7937
  224MOL0     C30135   6.983   3.888   0.281  0.7463 -0.2299  0.2704
  224MOL0     O30136   7.084   3.892   0.376  0.1349  0.5433 -0.0965
  224MOL0     C30137   7.151   3.769   0.401  0.2623  0.0847 -0.5452
  224MOL0     C30138   7.184   3.671   0.307  0.6313  0.1151  0.8188
  224MOL0     C30139   7.278   3.569   0.339  0.3491 -0.0091 -0.2712
  224MOL0     C30140   7.323   3.557   0.473 -0.2731 -0.0406  1.0766
  224MOL0     O30141   7.402   3.450   0.512  0.0346  0.8765 -0.4395
  224MOL0     C30142   7.368   3.315   0.463 -0.6974 -0.2414 -0.6560
  224MOL0     C30143   7.477   3.247   0.390  0.0550 -0.6927 -0.0809
  224MOL0     C30144   7.523   3.323   0.259  0.1244  0.7497  0.8226
  224MOL0     C30145   7.654   3.288   0.204  0.1098 -0.1439  0.2583
  224MOL0     C30146   7.687   3.413   0.115 -0.7300 -0.0621 -0.5321
  224MOL0     C30147   7.811   3.382   0.030  0.1229  0.3663  0.5547
  224MOL0     C30148   7.831   3.473  -0.094  0.7654  0.3551 -0.2569
  224MOL0     C30149   7.872   3.613  -0.039  0.1256  1.1242 -0.5268
  224MOL0    Cl30150   7.922   3.702  -0.176 -0.0516 -0.7098 -0.0250
  224MOL0     C30151   7.297   3.656   0.565  0.4773 -0.8932  0.3424
  224MOL0     C30152   7.208   3.758   0.528  0.7645 -0.3210  0.6863
  224MOL0     O30153   6.931   3.788   0.239  0.2346 -0.0047  0.3793
  224MOL0     C30154   6.972   4.136   0.302 -0.2285  0.8431 -0.2135
  224MOL0     C30155   6.913   4.257   0.268  0.3335 -0.0244 -0.2854
  224MOL0     N30156   6.965   4.942   0.118 -0.2761  0.2476 -0.1506
  224MOL0     N30157   6.944   5.069   0.109  0.1056  0.5651 -0.1111
  224MOL0     C30158   6.845   5.925   0.569 -0.5061  0.1210 -0.0844
  224MOL0     C30159   6.712   5.972   0.559 -0.7174 -0.2831 -0.0132
  224MOL0     C30160   6.284   5.964   0.374 -0.1365  0.0224  0.0726
  224MOL0     C30161   6.225   5.967   0.247 -0.0462  0.4446 -0.7131
  224MOL0     C30162   6.085   5.956   0.241 -0.3471 -0.1214 -0.0003
  224MOL0     C30163   6.014   5.965   0.358  0.4549  0.3838  0.9602
  224MOL0     O30164   5.878   5.970   0.367 -0.4294  0.8323  0.0458
  224MOL0     C30165   5.795   5.928   0.256 -0.5852  0.1769  0.7206
  224MOL0     C30166   5.807   5.781   0.215 -0.8344 -0.5954  0.3434
  224MOL0     C30167   5.736   5.733   0.080  0.1503  0.6546 -0.1185
  224MOL0     C30168   5.586   5.770   0.079  0.3686  0.3762  0.3450
  224MOL0     C30169   5.543   5.767  -0.061 -0.3967 -0.6962 -0.5505
  224MOL0     C30170   5.481   5.786  -0.162 -0.3270 -0.1621 -0.1095
  224MOL0     C30171   6.063   5.982   0.481  0.5812  0.2590  0.4652
  224MOL0     C30172   6.200   5.976   0.493 -1.5791  0.5049 -0.6359
  224MOL0     H30173   6.556   5.695   0.468  0.2729  0.5945  2.0685
  224MOL0     H30174   6.815   5.613   0.463  1.3757 -0.0861  0.1387
  224MOL0     H30175   7.053   5.868   0.379 -2.2464  1.0678  0.6091
  224MOL0     H30176   7.126   5.942   0.518 -2.2681  1.3524 -2.0350
  224MOL0     H30177   7.272   5.840   0.368 -2.2574 -1.1957 -0.8396
  224MOL0     H30178   7.313   5.809   0.541  0.3303  0.3318  0.4056
  224MOL0     H30179   7.345   5.603   0.450  0.7640  0.5018 -1.1732
  224MOL0     H30180   7.172   5.587   0.493 -1.6092  0.6973 -1.6395
  224MOL0     H30181   7.128   5.617   0.225 -1.0543  0.8736  1.7377
  224MOL0     H30182   7.301   5.649   0.218  1.9623 -2.5544  0.4308
  224MOL0     H30183   7.266   5.418   0.148 -1.2847  2.2448 -0.0823
  224MOL0     H30184   7.344   5.429   0.306 -0.2987 -1.0148 -0.1539
  224MOL0     H30185   7.180   5.256   0.307 -1.3117  0.7325  4.5418
  224MOL0     H30186   7.103   5.379   0.396 -1.8797  1.0197 -0.6670
  224MOL0     H30187   6.963   5.460   0.199  0.8726  0.9785  0.9362
  224MOL0     H30188   7.033   5.325   0.105 -0.6758  3.2950 -0.8945
  224MOL0     H30189   6.810   5.288   0.186  0.8678 -0.4986 -2.2468
  224MOL0     H30190   6.864   5.305   0.349  0.0197  2.0955 -1.4884
  224MOL0     H30191   6.942   5.037   0.437  3.0426 -0.3144  0.1440
  224MOL0     H30192   7.070   4.732   0.237 -0.1389 -1.0217 -0.2193
  224MOL0     H30193   7.028   4.775   0.403 -0.4637 -1.9979  0.6606
  224MOL0     H30194   6.806   4.690   0.391 -0.1357 -2.1359  1.7607
  224MOL0     H30195   6.943   4.578   0.352  2.0559 -0.6005 -2.8108
  224MOL0     H30196   6.900   4.592   0.118 -1.3804  0.3971 -1.3459
  224MOL0     H30197   6.762   4.700   0.135  1.4909  0.4607 -2.1919
  224MOL0     H30198   6.619   4.506   0.212  0.3421 -1.7547 -0.5720
  224MOL0     H30199   6.738   4.459   0.317 -0.9364 -0.4356 -0.5423
  224MOL0     H30200   6.656   4.155   0.091  0.4016 -2.0591 -1.9553
  224MOL0     H30201   6.610   3.928   0.081  1.2964  3.0817  0.5671
  224MOL0     H30202   6.766   3.850   0.035 -1.4369  0.5478 -0.2024
  224MOL0     H30203   6.695   3.839   0.205 -2.3025 -2.1305 -0.5247
  224MOL0     H30204   7.165   3.687   0.201  2.0770 -1.4942  0.2694
  224MOL0     H30205   7.308   3.500   0.261  1.2236 -0.9191  0.8526
  224MOL0     H30206   7.345   3.236   0.535 -1.2803 -1.0925 -1.7576
  224MOL0     H30207   7.275   3.320   0.405 -2.2640  0.2055  1.7314
  224MOL0     H30208   7.563   3.237   0.457 -1.6842 -0.4071  2.3426
  224MOL0     H30209   7.438   3.150   0.358  1.9123 -0.9808 -1.6246
  224MOL0     H30210   7.518   3.429   0.286 -0.0022  1.7313 -2.6614
  224MOL0     H30211   7.448   3.305   0.181 -0.0970  0.0061  1.1927
  224MOL0     H30212   7.739   3.268   0.271  1.2336 -2.9371 -1.7866
  224MOL0     H30213   7.645   3.197   0.144 -0.5229  1.9669 -3.1437
  224MOL0     H30214   7.707   3.502   0.176  0.9064 -1.4121  1.0272
  224MOL0     H30215   7.598   3.443   0.059  0.0547  1.9844 -0.7532
  224MOL0     H30216   7.904   3.385   0.087  0.6021  0.0041 -0.1834
  224MOL0     H30217   7.797   3.276   0.007  2.4034 -0.0422  0.7672
  224MOL0     H30218   7.747   3.478  -0.164  0.7608 -2.1737 -0.5115
  224MOL0     H30219   7.920   3.433  -0.144  0.0359  0.6718 -1.8853
  224MOL0     H30220   7.948   3.594   0.037  0.0788  2.4724 -0.1206
  224MOL0     H30221   7.792   3.665   0.015  1.0836 -0.1984  2.3653
  224MOL0     H30222   7.325   3.650   0.670  3.6973  0.9709 -0.2689
  224MOL0     H30223   7.197   3.842   0.595  3.2384 -1.6721  2.9522
  224MOL0     H30224   7.066   4.118   0.353 -0.4109 -0.8399 -0.4103
  224MOL0     H30225   6.969   4.344   0.299 -2.4003  1.4656  0.8185
  224MOL0     H30226   6.926   5.996   0.582  0.1768 -1.0206  2.3024
  224MOL0     H30227   6.677   6.067   0.598  0.6894 -0.5976  2.1494
  224MOL0     H30228   6.282   5.954   0.156 -0.9541 -0.5389 -1.1695
  224MOL0     H30229   6.039   5.961   0.143 -2.3213  2.6692  0.9348
  224MOL0     H30230   5.688   5.933   0.278 -0.9757  0.8093 -1.1949
  224MOL0     H30231   5.811   5.991   0.169  1.0735 -0.8358  0.2501
  224MOL0     H30232   5.785   5.720   0.303  0.8854  0.5998  1.6682
  224MOL0     H30233   5.913   5.775   0.190 -0.4196  3.0774  0.6299
  224MOL0     H30234   5.749   5.626   0.061  3.5586  1.1362 -1.1194
  224MOL0     H30235   5.784   5.778  -0.007  1.4876  0.3144  0.4074
  224MOL0     H30236   5.566   5.872   0.113  0.4214  0.8926 -1.0882
  224MOL0     H30237   5.521   5.703   0.135  0.3112  1.0099  1.0587
  224MOL0     H30238   5.429   5.802  -0.254 -3.3767 -1.0888  1.3106
  224MOL0     H30239   5.991   6.005   0.559 -0.2842  1.1814 -0.5656
  224MOL0     H30240   6.250   5.982   0.589  2.2228 -0.2379 -2.3794
  225MOL0     O30241   2.034   9.080   3.777 -0.5425 -0.0764  0.1729
  225MOL0     C30242   1.933   9.011   3.798 -0.3392 -0.3635  0.3471
  225MOL0     O30243   1.805   9.036   3.737  0.4462  0.3731 -0.3345
  225MOL0     C30244   1.793   9.137   3.644  0.3746  0.3966 -1.0910
  225MOL0     C30245   1.870   9.138   3.522 -0.0724 -0.2862 -0.8250
  225MOL0     C30246   1.855   9.239   3.425 -0.3709  0.0864 -1.7686
  225MOL0     C30247   1.767   9.347   3.456 -0.1331 -0.2882  0.4078
  225MOL0     O30248   1.729   9.440   3.356 -0.3076  0.2223  0.0489
  225MOL0     C30249   1.597   9.420   3.311  1.1063  0.2451  0.3089
  225MOL0     C30250   1.597   9.338   3.180  1.0895  0.1671 -0.6892
  225MOL0     C30251   1.533   9.193   3.226 -0.1924 -0.3039 -0.3863
  225MOL0     C30252   1.580   9.076   3.143  0.0908 -0.0687 -0.8174
  225MOL0     C30253   1.528   8.944   3.205 -0.4388  0.2564 -0.2216
  225MOL0     C30254   1.530   8.835   3.096  0.7945  0.0443 -0.2223
  225MOL0     C30255   1.482   8.706   3.152 -0.6444 -0.5340  1.2524
  225MOL0     C30256   1.522   8.593   3.064  0.9652 -0.2889 -0.4561
  225MOL0     N30257   1.664   8.565   3.072 -0.4527 -0.0201 -0.2900
  225MOL0     C30258   1.759   8.597   2.971  0.0314 -0.9593  1.2187
  225MOL0     C30259   1.875   8.555   3.017 -0.8882 -0.0268  0.2613
  225MOL0     C30260   2.017   8.580   2.974  0.0046 -0.1006  0.2218
  225MOL0     C30261   2.054   8.469   2.881  0.0114  0.1963 -0.1666
  225MOL0     C30262   2.099   8.341   2.954 -0.7231  0.5870 -0.9785
  225MOL0     C30263   2.133   8.228   2.854  0.3874 -0.1800  0.5791
  225MOL0     O30264   2.012   8.195   2.791 -0.4701  0.1607  0.0028
  225MOL0     C30265   2.031   8.145   2.665 -0.0056  0.1816  0.6678
  225MOL0     C30266   2.008   8.018   2.637 -0.5609 -0.3558 -0.3102
  225MOL0     C30267   2.030   7.951   2.520  0.7651  0.0062 -0.3110
  225MOL0     C30268   1.995   7.803   2.526  1.2041  1.4695  0.5400
  225MOL0     C30269   2.062   8.036   2.410  0.1431 -0.5415  0.1074
  225MOL0     C30270   2.087   7.980   2.277  0.2456  0.6869  0.1881
  225MOL0     O30271   2.103   8.072   2.177 -0.1351  0.0479  0.3409
  225MOL0     C30272   2.105   8.033   2.047  0.4868  0.3229  0.4286
  225MOL0     C30273   2.044   8.122   1.962 -0.6498  0.3697 -0.0203
  225MOL0     C30274   2.023   8.100   1.828 -0.3037  0.0532 -0.6275
  225MOL0     C30275   2.070   7.982   1.764 -0.5801 -0.1883  1.0525
  225MOL0     O30276   2.085   7.945   1.628 -0.5166 -0.2962 -0.0063
  225MOL0     C30277   1.986   8.017   1.551 -0.0804 -0.7238  0.7720
  225MOL0     C30278   1.985   7.943   1.416 -0.1472 -0.0953  0.0576
  225MOL0     C30279   1.951   7.792   1.416 -0.2883  0.0394 -0.7167
  225MOL0     C30280   1.831   7.741   1.475  0.6809  0.4008  0.1181
  225MOL0     C30281   1.830   7.581   1.460 -0.1465  0.2882 -0.8501
  225MOL0     C30282   1.719   7.510   1.548 -0.7709  0.1086  0.1607
  225MOL0     C30283   1.574   7.529   1.498 -0.5800 -0.3006 -0.0408
  225MOL0     C30284   1.486   7.516   1.624  0.1733 -0.1880 -0.0092
  225MOL0    Cl30285   1.314   7.560   1.584  0.3948 -0.7028 -0.2386
  225MOL0     C30286   2.134   7.889   1.850  0.0186 -0.9560  0.0325
  225MOL0     C30287   2.142   7.906   1.994  0.2122  0.3804 -0.8468
  225MOL0     O30288   2.080   7.860   2.257  0.1923  0.4717  0.1017
  225MOL0     C30289   2.074   8.176   2.430 -0.0267 -0.0225 -0.8451
  225MOL0     C30290   2.056   8.226   2.556 -0.9603 -1.3399  0.0268
  225MOL0     N30291   1.859   8.498   3.135  0.7887  0.5281 -0.6281
  225MOL0     N30292   1.733   8.504   3.176 -0.9156 -0.4029 -0.1441
  225MOL0     C30293   1.695   9.344   3.570  0.0774  0.4126 -0.9386
  225MOL0     C30294   1.692   9.238   3.664 -0.2568  0.6329  0.0671
  225MOL0     C30295   1.942   8.912   3.901 -0.3101  0.0516  0.4316
  225MOL0     C30296   2.068   8.866   3.953 -0.1649 -0.6203 -1.5305
  225MOL0     C30297   2.068   8.762   4.045 -0.0076  0.5486  0.2056
  225MOL0     C30298   1.960   8.684   4.082  0.2202  0.6779 -0.3165
  225MOL0     O30299   1.986   8.577   4.169  0.5575  0.0100  0.1461
  225MOL0     C30300   1.874   8.513   4.241  1.3251  0.2018 -0.1255
  225MOL0     C30301   1.907   8.365   4.249  0.0440  0.7663  0.2452
  225MOL0     C30302   2.009   8.320   4.363  1.1472  0.3775  0.6985
  225MOL0     C30303   1.944   8.328   4.508 -0.5771 -0.2011  0.6065
  225MOL0     C30304   2.055   8.310   4.603  0.4874 -0.2569 -0.1880
  225MOL0     C30305   2.150   8.302   4.670 -0.4527 -0.0283  1.0571
  225MOL0     C30306   1.839   8.737   4.027  0.4927  0.9417 -1.1460
  225MOL0     C30307   1.829   8.844   3.937 -1.1083 -0.0158 -0.2125
  225MOL0     H30308   1.939   9.062   3.487  0.0796  0.3598 -1.9859
  225MOL0     H30309   1.906   9.218   3.332  3.1338 -2.9081  0.5634
  225MOL0     H30310   1.515   9.388   3.376 -1.6408 -1.9898 -3.7829
  225MOL0     H30311   1.577   9.523   3.279  0.3823 -0.3486 -1.2405
  225MOL0     H30312   1.532   9.378   3.101 -0.4443  4.8886  2.4988
  225MOL0     H30313   1.697   9.328   3.138  1.6861  0.0284  0.7043
  225MOL0     H30314   1.569   9.176   3.328  0.8840 -1.0547 -0.8637
  225MOL0     H30315   1.425   9.205   3.227 -0.2067 -0.1260 -1.6636
  225MOL0     H30316   1.538   9.088   3.043 -1.9587  1.7074  0.1793
  225MOL0     H30317   1.689   9.072   3.145  0.0587 -1.7770 -0.4874
  225MOL0     H30318   1.600   8.917   3.283  1.0605  1.9673 -0.9598
  225MOL0     H30319   1.428   8.937   3.247  0.5784 -1.1584  2.1513
  225MOL0     H30320   1.468   8.855   3.008 -3.7439 -1.9258  2.1957
  225MOL0     H30321   1.630   8.833   3.051 -0.0115 -0.1656 -2.1065
  225MOL0     H30322   1.506   8.682   3.256 -4.4826 -0.0409  2.4152
  225MOL0     H30323   1.373   8.707   3.163 -1.0822  1.1516 -2.1544
  225MOL0     H30324   1.510   8.635   2.964  1.5300  3.2042  0.7847
  225MOL0     H30325   1.466   8.500   3.079  0.5596 -0.3299 -2.0581
  225MOL0     H30326   1.744   8.662   2.886 -1.0622 -0.4617  1.7666
  225MOL0     H30327   2.031   8.679   2.929  0.2512  0.2646  1.0924
  225MOL0     H30328   2.090   8.577   3.056  0.2877 -1.0591 -0.0487
  225MOL0     H30329   2.145   8.507   2.835  0.7099  1.3494  2.0338
  225MOL0     H30330   1.987   8.448   2.797  1.6649 -2.5504 -0.9309
  225MOL0     H30331   2.019   8.304   3.019  0.0601  0.3745 -0.1095
  225MOL0     H30332   2.193   8.364   3.005  0.8356  0.7996 -3.7632
  225MOL0     H30333   2.176   8.141   2.905 -0.3319 -1.4405 -0.8657
  225MOL0     H30334   2.214   8.272   2.794 -0.3886  2.1758  1.1555
  225MOL0     H30335   1.963   7.961   2.718  2.6456 -1.5522  0.7957
  225MOL0     H30336   1.951   7.772   2.431 -0.3298  2.3235  0.9445
  225MOL0     H30337   2.086   7.744   2.539  1.4709  0.9547 -2.6953
  225MOL0     H30338   1.921   7.787   2.605  2.5570 -1.2825  1.3745
  225MOL0     H30339   2.016   8.223   1.989 -0.1322  0.6146 -0.3891
  225MOL0     H30340   1.962   8.164   1.765 -1.2173 -2.0185 -1.9344
  225MOL0     H30341   1.891   8.000   1.602 -1.0177  0.4290 -0.5080
  225MOL0     H30342   1.998   8.122   1.523  3.0693 -1.7971 -2.8787
  225MOL0     H30343   1.901   7.979   1.355 -0.5977 -2.4849 -0.8561
  225MOL0     H30344   2.077   7.957   1.360  0.1778  2.9880  1.1908
  225MOL0     H30345   2.030   7.732   1.463  0.7535 -0.1999 -2.6605
  225MOL0     H30346   1.959   7.759   1.312 -0.7230 -1.4732 -0.2873
  225MOL0     H30347   1.830   7.772   1.580  1.1048  2.7639 -0.5331
  225MOL0     H30348   1.742   7.788   1.432 -0.3277 -0.4751  1.1503
  225MOL0     H30349   1.913   7.528   1.507 -0.9105 -0.3358 -0.1892
  225MOL0     H30350   1.819   7.567   1.352 -0.5525 -0.7363 -0.6874
  225MOL0     H30351   1.739   7.404   1.568 -3.7893  0.0776  4.4660
  225MOL0     H30352   1.725   7.534   1.655 -4.5267 -2.1193  1.0519
  225MOL0     H30353   1.543   7.447   1.432  2.9949 -2.9259  1.2435
  225MOL0     H30354   1.565   7.632   1.461 -1.6935  0.3043  1.7605
  225MOL0     H30355   1.519   7.586   1.702 -0.7831 -0.1311  0.3569
  225MOL0     H30356   1.473   7.411   1.650  0.4475 -0.7397 -1.9213
  225MOL0     H30357   2.186   7.806   1.803  1.9520  0.6224 -0.7646
  225MOL0     H30358   2.185   7.837   2.067 -0.5727  1.7344  0.9856
  225MOL0     H30359   2.084   8.243   2.345 -1.4464  3.0137  1.1938
  225MOL0     H30360   2.064   8.334   2.567 -0.8897 -1.4069  0.6652
  225MOL0     H30361   1.641   9.433   3.603 -0.8382 -1.5466  3.7157
  225MOL0     H30362   1.636   9.259   3.754 -5.0191  0.5855 -2.5398
  225MOL0     H30363   2.166   8.901   3.923  1.6023 -3.0711  0.8583
  225MOL0     H30364   2.165   8.727   4.080  1.0241  0.8187 -2.1917
  225MOL0     H30365   1.855   8.554   4.340 -2.6741  0.9860 -1.0039
  225MOL0     H30366   1.782   8.525   4.181  2.0739 -0.3537 -1.4305
  225MOL0     H30367   1.948   8.338   4.151 -0.3088 -0.1069  0.3356
  225MOL0     H30368   1.812   8.314   4.264 -2.1485  3.0718 -3.9502
  225MOL0     H30369   2.098   8.383   4.350 -0.3168  1.9559 -2.8244
  225MOL0     H30370   2.037   8.217   4.340 -0.9777 -0.1879  0.4300
  225MOL0     H30371   1.874   8.243   4.512  1.3406 -2.1363 -2.5281
  225MOL0     H30372   1.882   8.414   4.535 -0.5068  0.1341 -0.2679
  225MOL0     H30373   2.237   8.292   4.732 -1.4561 -1.2709  2.3263
  225MOL0     H30374   1.739   8.700   4.047  0.3440  1.7809 -0.2588
  225MOL0     H30375   1.730   8.874   3.903 -2.4672 -1.5115  2.1050
  226MOL0     O30376   7.257  10.572   5.504 -0.4083  1.5916 -0.0160
  226MOL0     C30377   7.180  10.648   5.560  0.7769  0.7558 -0.7528
  226MOL0     O30378   7.079  10.611   5.652 -0.4747 -0.0854 -0.8502
  226MOL0     C30379   7.074  10.471   5.680  0.3536  0.4132  0.3387
  226MOL0     C30380   7.180  10.388   5.715  0.0602 -1.2380 -0.2083
  226MOL0     C30381   7.161  10.250   5.724  0.0215 -0.1604 -0.3766
  226MOL0     C30382   7.030  10.200   5.711 -0.0178  0.6129  0.1844
  226MOL0     O30383   6.997  10.072   5.726 -0.3809  0.1266 -0.5088
  226MOL0     C30384   7.091   9.964   5.709  0.0567 -0.0310 -0.8610
  226MOL0     C30385   7.032   9.837   5.767  0.3021  0.7743 -0.9648
  226MOL0     C30386   7.145   9.729   5.790  1.1539 -0.1503  0.2519
  226MOL0     C30387   7.091   9.589   5.795 -0.6193 -0.5322  0.1381
  226MOL0     C30388   7.200   9.486   5.788  0.5822 -0.1730 -0.2971
  226MOL0     C30389   7.265   9.460   5.652 -0.1732  0.2310  0.0277
  226MOL0     C30390   7.172   9.421   5.536 -0.4935 -1.2255  0.1263
  226MOL0     C30391   7.246   9.439   5.406 -0.1515 -1.1858 -0.4657
  226MOL0     N30392   7.353   9.348   5.371  0.1530  0.2448  0.4559
  226MOL0     C30393   7.487   9.375   5.373 -0.2718  0.6841 -0.3548
  226MOL0     C30394   7.544   9.278   5.299  0.6000  0.3093  0.5432
  226MOL0     C30395   7.694   9.256   5.286  0.0944  0.3856  0.2871
  226MOL0     C30396   7.763   9.376   5.211  0.6990 -0.9571 -0.0145
  226MOL0     C30397   7.688   9.412   5.081 -0.0008  0.6812  0.1501
  226MOL0     C30398   7.731   9.547   5.011  0.0717 -0.4715  0.0717
  226MOL0     O30399   7.858   9.534   4.960 -0.2549  0.6666 -0.7574
  226MOL0     C30400   7.908   9.617   4.871 -0.5257 -0.7214 -0.3080
  226MOL0     C30401   7.828   9.729   4.829 -0.9208 -0.4619 -0.5818
  226MOL0     C30402   7.883   9.819   4.732 -0.1771  0.4936 -0.7922
  226MOL0     C30403   7.782   9.930   4.697  0.1270 -1.1521 -0.4220
  226MOL0     C30404   8.020   9.802   4.683 -0.0441 -0.4293 -0.6085
  226MOL0     C30405   8.091   9.890   4.592  0.3491 -0.2893 -0.1372
  226MOL0     O30406   8.226   9.883   4.603 -0.4311 -0.3125 -0.8178
  226MOL0     C30407   8.286   9.995   4.566  0.1344  0.1044 -0.5543
  226MOL0     C30408   8.384   9.972   4.468 -0.5531 -0.6442  0.0584
  226MOL0     C30409   8.434  10.088   4.396  0.7481  0.2478  0.5104
  226MOL0     C30410   8.405  10.218   4.418  0.1027  0.1174  0.6841
  226MOL0     O30411   8.452  10.307   4.323 -0.7371  0.3544  0.7290
  226MOL0     C30412   8.401  10.436   4.334 -0.0375  0.1054  0.1447
  226MOL0     C30413   8.454  10.550   4.244 -0.4490 -0.3932 -0.4800
  226MOL0     C30414   8.412  10.537   4.094 -0.8002  0.1960  1.0125
  226MOL0     C30415   8.278  10.594   4.064 -0.3347  0.0591 -0.1595
  226MOL0     C30416   8.230  10.540   3.928  0.8589 -0.2488 -0.2475
  226MOL0     C30417   8.209  10.388   3.917 -0.8400  0.2023  0.5701
  226MOL0     C30418   8.127  10.313   4.031 -0.4237  0.3854  0.6273
  226MOL0     C30419   7.976  10.303   4.019  0.3976 -0.5377  0.3066
  226MOL0    Cl30420   7.917  10.242   3.864 -0.4213  0.2922 -0.1062
  226MOL0     C30421   8.319  10.235   4.531  0.4199  0.3530  0.5804
  226MOL0     C30422   8.259  10.127   4.596 -0.5381 -0.0104  0.4782
  226MOL0     O30423   8.028   9.951   4.503 -0.5192  1.0869  0.3058
  226MOL0     C30424   8.087   9.684   4.716  0.1906 -0.7669 -0.2723
  226MOL0     C30425   8.030   9.600   4.813 -0.0235 -0.7508  1.1389
  226MOL0     N30426   7.443   9.200   5.234 -0.8687 -0.7145  0.1320
  226MOL0     N30427   7.329   9.237   5.289 -0.2717  0.0440  0.3418
  226MOL0     C30428   6.925  10.287   5.679  0.3133 -0.5820 -0.6621
  226MOL0     C30429   6.942  10.423   5.659 -0.2433 -0.3555  0.3998
  226MOL0     C30430   7.205  10.793   5.548  0.9190  0.1842 -0.1369
  226MOL0     C30431   7.128  10.884   5.624  0.1494  0.2042  0.6901
  226MOL0     C30432   7.142  11.020   5.617 -0.6865  0.9614  0.5913
  226MOL0     C30433   7.243  11.082   5.548  1.0790  0.7101  1.0656
  226MOL0     O30434   7.270  11.210   5.578 -0.4969  0.9588 -0.6277
  226MOL0     C30435   7.384  11.270   5.511 -0.9929  0.1848  0.6049
  226MOL0     C30436   7.422  11.409   5.551 -0.1279  1.2873 -0.5259
  226MOL0     C30437   7.456  11.431   5.699 -0.0446 -0.1364  0.1891
  226MOL0     C30438   7.594  11.396   5.741 -0.5889  0.5099  0.0540
  226MOL0     C30439   7.592  11.374   5.890  0.7601 -0.0029  0.2647
  226MOL0     C30440   7.597  11.342   6.010 -0.2536  0.0906  0.5465
  226MOL0     C30441   7.323  10.994   5.467  0.4902  0.0520 -0.2442
  226MOL0     C30442   7.300  10.855   5.463  0.2004  0.0288  0.5226
  226MOL0     H30443   7.282  10.424   5.726 -0.1785  0.4635 -2.6626
  226MOL0     H30444   7.250  10.192   5.741 -0.5752 -0.6345  1.3514
  226MOL0     H30445   7.099   9.948   5.601 -1.4960  0.6673 -1.1047
  226MOL0     H30446   7.191   9.992   5.744  0.5134 -0.9748 -1.3598
  226MOL0     H30447   6.986   9.842   5.866  1.6184 -1.1555 -0.2142
  226MOL0     H30448   6.945   9.810   5.707 -0.0463 -0.4751  0.0620
  226MOL0     H30449   7.197   9.742   5.694 -0.8958 -1.0307 -1.0441
  226MOL0     H30450   7.216   9.750   5.871  3.2987  1.2291 -1.8406
  226MOL0     H30451   7.038   9.580   5.890  0.3307 -1.0438  0.6445
  226MOL0     H30452   7.007   9.566   5.730 -0.9653 -1.3314  0.8421
  226MOL0     H30453   7.275   9.500   5.866  1.4356 -2.0342 -0.7199
  226MOL0     H30454   7.151   9.397   5.828 -0.6473  1.0124  0.9340
  226MOL0     H30455   7.325   9.549   5.633  0.8281 -0.3116  0.5698
  226MOL0     H30456   7.335   9.376   5.660  1.9977  2.1320  2.4197
  226MOL0     H30457   7.144   9.315   5.539 -2.0765 -0.8173  0.2420
  226MOL0     H30458   7.077   9.475   5.539  0.0234 -0.2957  0.2582
  226MOL0     H30459   7.289   9.539   5.400  0.8246 -1.6189 -0.8668
  226MOL0     H30460   7.170   9.434   5.327  0.3014 -1.1171 -0.9075
  226MOL0     H30461   7.534   9.459   5.422 -0.2357  0.9565 -0.8496
  226MOL0     H30462   7.731   9.245   5.388 -1.4078 -1.6341  0.6554
  226MOL0     H30463   7.732   9.166   5.237  4.1055  3.1693 -2.3867
  226MOL0     H30464   7.866   9.348   5.187  0.6121 -2.9625  1.6989
  226MOL0     H30465   7.761   9.462   5.279  0.5649 -1.3507  0.4889
  226MOL0     H30466   7.581   9.431   5.099  0.0531 -1.0465  2.8667
  226MOL0     H30467   7.695   9.322   5.020  0.2333 -2.3126  4.2001
  226MOL0     H30468   7.716   9.631   5.080  0.7269  0.9738 -1.4645
  226MOL0     H30469   7.663   9.574   4.929 -0.6800  2.8469  1.6220
  226MOL0     H30470   7.729   9.757   4.864  0.7324  4.9479  0.7887
  226MOL0     H30471   7.703   9.954   4.769 -1.8322 -1.0443 -2.4861
  226MOL0     H30472   7.834  10.025   4.679  0.2134 -1.1971 -0.4149
  226MOL0     H30473   7.744   9.923   4.595 -0.4758 -0.4138 -0.2613
  226MOL0     H30474   8.422   9.871   4.452  3.7477  1.0777 -2.0189
  226MOL0     H30475   8.492  10.067   4.306 -0.5929 -0.4257 -0.2256
  226MOL0     H30476   8.293  10.433   4.320  0.1859  0.4041 -2.0226
  226MOL0     H30477   8.420  10.475   4.435 -3.9446  2.1191  0.3022
  226MOL0     H30478   8.410  10.644   4.279  1.0936  1.0643 -2.2360
  226MOL0     H30479   8.561  10.575   4.245 -0.6663  0.6068 -1.0990
  226MOL0     H30480   8.424  10.431   4.068  0.5892  0.1435  1.7788
  226MOL0     H30481   8.481  10.582   4.023 -0.1744  1.4544  2.3707
  226MOL0     H30482   8.205  10.564   4.139  0.5819 -1.7826  0.0393
  226MOL0     H30483   8.274  10.704   4.064 -1.9228  0.0195  0.2615
  226MOL0     H30484   8.280  10.572   3.836 -0.4836 -1.2977 -1.3778
  226MOL0     H30485   8.128  10.577   3.917  0.8839  0.3729  1.3176
  226MOL0     H30486   8.161  10.368   3.821 -0.3781  0.2540  0.3206
  226MOL0     H30487   8.308  10.340   3.917  0.4583  2.5691 -2.2350
  226MOL0     H30488   8.152  10.348   4.131 -0.3399 -2.7999  1.8397
  226MOL0     H30489   8.168  10.211   4.029  1.6223  1.1605 -0.6639
  226MOL0     H30490   7.922  10.397   4.025 -2.6813 -2.0636 -1.2560
  226MOL0     H30491   7.952  10.229   4.096 -0.5334  0.8141  1.3629
  226MOL0     H30492   8.286  10.329   4.574 -0.3882 -0.5258  1.9445
  226MOL0     H30493   8.186  10.155   4.671 -0.0930  1.1713  0.4910
  226MOL0     H30494   8.183   9.655   4.676  0.3744 -0.3990 -0.1031
  226MOL0     H30495   8.081   9.509   4.845  1.4796  0.2121  1.5796
  226MOL0     H30496   6.822  10.254   5.677 -1.4462  4.0128  0.2401
  226MOL0     H30497   6.855  10.481   5.632 -0.7039  0.3756  3.1450
  226MOL0     H30498   7.058  10.851   5.699  0.2856  1.1277  1.2435
  226MOL0     H30499   7.070  11.078   5.675 -1.1781 -0.3949  1.3957
  226MOL0     H30500   7.466  11.198   5.521 -2.0761 -0.9900  1.2902
  226MOL0     H30501   7.361  11.278   5.404  0.9006  0.3834  0.1723
  226MOL0     H30502   7.338  11.468   5.514 -0.5308 -0.2932 -2.2635
  226MOL0     H30503   7.515  11.436   5.501  2.4409 -1.6690  2.1606
  226MOL0     H30504   7.382  11.365   5.746 -1.6874 -0.0922 -2.1361
  226MOL0     H30505   7.439  11.537   5.719 -2.6478 -0.7360  1.6065
  226MOL0     H30506   7.661  11.479   5.718 -1.8018  1.9897  1.6092
  226MOL0     H30507   7.627  11.308   5.685  0.4311  1.0304 -0.1846
  226MOL0     H30508   7.594  11.336   6.117  1.1518 -1.3071  0.5565
  226MOL0     H30509   7.412  11.027   5.413  0.2969  0.8284 -0.1060
  226MOL0     H30510   7.364  10.792   5.402 -1.3862  0.9790 -2.3091
  227MOL0     O30511   9.084   5.571  11.163 -0.1037  0.4817 -0.5192
  227MOL0     C30512   9.043   5.639  11.067  0.0456  0.6439  0.5067
  227MOL0     O30513   9.102   5.651  10.935  0.2422 -0.6717 -0.5571
  227MOL0     C30514   9.212   5.574  10.910 -1.3779 -1.1186  0.5024
  227MOL0     C30515   9.252   5.572  10.776 -0.2179 -0.2740  0.4333
  227MOL0     C30516   9.363   5.507  10.722  1.2116  0.0363 -0.2887
  227MOL0     C30517   9.460   5.461  10.802 -0.5877  0.5666 -0.0639
  227MOL0     O30518   9.575   5.420  10.752  0.0984  0.8371 -0.1726
  227MOL0     C30519   9.610   5.284  10.802 -0.2641  0.0102  0.2894
  227MOL0     C30520   9.706   5.209  10.707  0.5746 -0.1999  0.8638
  227MOL0     C30521   9.645   5.158  10.573 -0.2150 -0.4223 -0.5565
  227MOL0     C30522   9.522   5.071  10.581 -0.0768 -0.2087  0.7450
  227MOL0     C30523   9.478   5.042  10.424  0.4229  0.3867 -0.6500
  227MOL0     C30524   9.431   4.902  10.423 -1.3138  0.0353  0.9754
  227MOL0     C30525   9.309   4.856  10.488 -0.1404  0.1959  0.1322
  227MOL0     C30526   9.252   4.719  10.422 -0.3113 -0.1841 -0.1700
  227MOL0     N30527   9.361   4.618  10.391 -1.0753  0.1628  0.2296
  227MOL0     C30528   9.386   4.521  10.480  0.6736  0.9296  0.8822
  227MOL0     C30529   9.441   4.420  10.404  0.7189  0.4745 -0.4156
  227MOL0     C30530   9.496   4.284  10.434  0.2516  0.9961 -0.1032
  227MOL0     C30531   9.623   4.264  10.361  0.2063  0.4872  0.6821
  227MOL0     C30532   9.714   4.139  10.380 -0.0131  0.3584 -0.5151
  227MOL0     C30533   9.858   4.160  10.361  0.4306 -0.3553 -0.1564
  227MOL0     O30534   9.921   4.036  10.351  1.1864 -0.2106  0.3233
  227MOL0     C30535  10.060   4.039  10.341 -0.7793  0.0815 -1.1897
  227MOL0     C30536  10.143   4.154  10.310  0.0540 -0.0684  0.9195
  227MOL0     C30537  10.278   4.153  10.301 -0.2713  0.1236 -0.9887
  227MOL0     C30538  10.335   4.289  10.284  0.3559  0.3350  0.1194
  227MOL0     C30539  10.348   4.032  10.298 -0.8574 -0.2215  0.2590
  227MOL0     C30540  10.500   4.019  10.289  0.9840 -0.3491  0.1154
  227MOL0     O30541  10.534   3.936  10.185 -0.0054 -0.1585  0.5068
  227MOL0     C30542  10.655   3.883  10.167  0.0755 -0.3697 -0.9300
  227MOL0     C30543  10.684   3.849  10.033  0.2709 -0.3612  0.6124
  227MOL0     C30544  10.802   3.775  10.013 -0.4462  0.7637 -0.2190
  227MOL0     C30545  10.894   3.743  10.124  0.7986 -0.1529  0.1511
  227MOL0     O30546  11.013   3.697  10.084  1.0521 -0.3960 -0.4661
  227MOL0     C30547  11.092   3.640  10.195  0.6149  0.6729  0.0747
  227MOL0     C30548  11.214   3.556  10.143 -0.0190 -0.6462 -0.2924
  227MOL0     C30549  11.175   3.442  10.037 -0.5195  0.3052 -0.2597
  227MOL0     C30550  11.075   3.327  10.085 -0.4321 -0.5401  0.0501
  227MOL0     C30551  11.129   3.242  10.207  0.1347 -0.1109  0.0417
  227MOL0     C30552  11.052   3.113  10.254 -0.7997  0.2966  0.2948
  227MOL0     C30553  11.043   3.016  10.141  0.1928 -0.3390  0.6434
  227MOL0     C30554  10.941   2.901  10.186 -0.0498 -0.0697  0.7934
  227MOL0    Cl30555  10.985   2.795  10.321 -0.3085 -0.3234 -0.0336
  227MOL0     C30556  10.852   3.769  10.248  0.8749  0.2884 -0.3608
  227MOL0     C30557  10.733   3.841  10.270  0.0444 -0.1816  0.1826
  227MOL0     O30558  10.572   4.083  10.364  0.2908  0.5300 -0.0474
  227MOL0     C30559  10.272   3.923  10.314  0.3806  0.5486  0.1161
  227MOL0     C30560  10.132   3.921  10.353 -0.2507 -0.6536 -0.2246
  227MOL0     N30561   9.457   4.467  10.277  1.0065  0.3301 -0.2875
  227MOL0     N30562   9.414   4.587  10.267  0.1110 -0.7806 -0.2785
  227MOL0     C30563   9.433   5.455  10.945 -0.4507 -0.9820 -0.4850
  227MOL0     C30564   9.303   5.500  10.996 -0.8741 -1.3349  0.2523
  227MOL0     C30565   8.900   5.675  11.066  0.5633 -0.1290 -0.2157
  227MOL0     C30566   8.820   5.674  11.182  0.0345  0.4416  0.0135
  227MOL0     C30567   8.680   5.730  11.179 -0.2664  0.4184 -0.2394
  227MOL0     C30568   8.622   5.764  11.061  0.7231  0.6198 -0.1052
  227MOL0     O30569   8.492   5.803  11.061 -0.6815 -0.2691 -0.3923
  227MOL0     C30570   8.458   5.917  11.139 -0.6664  0.5116 -0.2636
  227MOL0     C30571   8.508   6.044  11.070 -1.0559 -0.3800 -0.1217
  227MOL0     C30572   8.410   6.112  10.967  0.0153 -0.1739 -0.8782
  227MOL0     C30573   8.478   6.239  10.895  1.2243  0.1070 -0.5787
  227MOL0     C30574   8.574   6.310  10.979 -0.1621 -0.6150  0.4057
  227MOL0     C30575   8.643   6.372  11.062 -0.2733 -0.7424  0.7984
  227MOL0     C30576   8.690   5.737  10.941  0.4491 -0.5762 -1.0479
  227MOL0     C30577   8.827   5.694  10.944  0.3016  0.2866 -0.0625
  227MOL0     H30578   9.182   5.618  10.706 -0.9852 -0.0732  1.3053
  227MOL0     H30579   9.395   5.494  10.620 -0.1247  2.8509 -1.1531
  227MOL0     H30580   9.660   5.285  10.899 -0.0549 -4.5166  0.4063
  227MOL0     H30581   9.525   5.219  10.822 -0.8062  0.8821  0.8949
  227MOL0     H30582   9.795   5.271  10.693 -0.0039  0.8976  1.8335
  227MOL0     H30583   9.743   5.123  10.763  1.9263 -1.2017 -1.4297
  227MOL0     H30584   9.602   5.250  10.531  0.0633  0.1430  0.3566
  227MOL0     H30585   9.731   5.120  10.518 -0.4565  0.1476 -1.3480
  227MOL0     H30586   9.562   4.979  10.626  4.2359 -0.5510 -2.9667
  227MOL0     H30587   9.435   5.107  10.636 -0.5931 -0.5086  0.1345
  227MOL0     H30588   9.398   5.108  10.388 -0.9256 -0.7285  0.2092
  227MOL0     H30589   9.567   5.046  10.361 -0.5380 -2.2863 -2.3327
  227MOL0     H30590   9.424   4.889  10.314  2.4046  4.2103 -0.0982
  227MOL0     H30591   9.513   4.840  10.459 -1.2961 -1.1481 -0.9721
  227MOL0     H30592   9.324   4.847  10.596  4.3275  0.1697 -0.2964
  227MOL0     H30593   9.230   4.930  10.472 -0.5494 -0.7092 -2.5863
  227MOL0     H30594   9.202   4.751  10.330 -2.9069 -1.5617  0.6653
  227MOL0     H30595   9.174   4.679  10.487  0.0579  1.0914  1.0974
  227MOL0     H30596   9.372   4.529  10.587  1.5672 -2.7813  1.4359
  227MOL0     H30597   9.521   4.277  10.540  0.6377  0.4674 -0.2228
  227MOL0     H30598   9.429   4.203  10.404 -0.8933  1.6856  0.5264
  227MOL0     H30599   9.689   4.347  10.388  2.4087 -0.2302 -2.0020
  227MOL0     H30600   9.601   4.272  10.254 -2.6728 -3.3412  0.7845
  227MOL0     H30601   9.673   4.058  10.320  0.3165 -1.7668  1.9475
  227MOL0     H30602   9.696   4.107  10.483  0.7218  0.8543 -0.2178
  227MOL0     H30603   9.885   4.219  10.450  2.1157 -0.5760 -0.4848
  227MOL0     H30604   9.865   4.217  10.268  2.1253 -0.9662 -0.4395
  227MOL0     H30605  10.104   4.254  10.296  2.7497  1.0018  0.4569
  227MOL0     H30606  10.444   4.282  10.295  0.5979 -0.0635 -2.0470
  227MOL0     H30607  10.309   4.327  10.185 -2.4153 -0.4633  0.4488
  227MOL0     H30608  10.299   4.361  10.359  2.2702  0.4198  1.0296
  227MOL0     H30609  10.622   3.877   9.949  1.1806  2.7984  0.8679
  227MOL0     H30610  10.840   3.748   9.915  3.2270  2.0136  0.7024
  227MOL0     H30611  11.129   3.715  10.266 -2.7151  0.8569  1.8322
  227MOL0     H30612  11.016   3.579  10.244 -0.0527 -0.2227 -1.9308
  227MOL0     H30613  11.288   3.628  10.106  0.2651 -1.2573 -0.9486
  227MOL0     H30614  11.266   3.512  10.228  2.0046 -2.7170 -2.4232
  227MOL0     H30615  11.270   3.393  10.014 -0.5939 -0.1238  0.3211
  227MOL0     H30616  11.139   3.494   9.948 -3.7872 -1.0009  0.1515
  227MOL0     H30617  10.982   3.371  10.123  0.9604  2.5553  0.2140
  227MOL0     H30618  11.044   3.268   9.998  1.4075 -0.9290 -0.3922
  227MOL0     H30619  11.113   3.305  10.295 -0.4508  0.5662 -0.5419
  227MOL0     H30620  11.231   3.213  10.181  0.3567  1.5456 -1.0531
  227MOL0     H30621  11.103   3.059  10.334 -0.3813  1.4317  0.8101
  227MOL0     H30622  10.953   3.148  10.286 -0.3515 -0.2875  2.4880
  227MOL0     H30623  11.139   2.970  10.116 -0.7706 -1.9767 -0.1904
  227MOL0     H30624  11.012   3.063  10.047 -0.8793  0.3925  1.3272
  227MOL0     H30625  10.939   2.827  10.105  0.6715  0.3720  0.3603
  227MOL0     H30626  10.840   2.937  10.206 -0.3979 -1.5677  1.8802
  227MOL0     H30627  10.915   3.743  10.333  2.9143  1.9382 -1.2746
  227MOL0     H30628  10.710   3.858  10.375 -3.3235  2.1910 -0.7393
  227MOL0     H30629  10.321   3.829  10.339 -0.5218  0.1330  0.3478
  227MOL0     H30630  10.087   3.826  10.382 -1.2333 -0.6296 -1.5796
  227MOL0     H30631   9.500   5.400  11.010 -0.1632 -0.1892 -0.0939
  227MOL0     H30632   9.283   5.482  11.101 -0.8271 -0.6694  0.3774
  227MOL0     H30633   8.870   5.638  11.271 -1.3889 -0.6455  0.4114
  227MOL0     H30634   8.630   5.721  11.275  0.5061  0.1568  0.1486
  227MOL0     H30635   8.353   5.923  11.166 -0.2715 -0.3107  1.6442
  227MOL0     H30636   8.504   5.904  11.238 -1.4824 -0.2916  0.0271
  227MOL0     H30637   8.600   6.014  11.020 -0.3647  3.1147 -1.2083
  227MOL0     H30638   8.537   6.121  11.142 -0.3401 -0.6247 -0.1325
  227MOL0     H30639   8.327   6.153  11.027  0.8769 -1.0624  0.9868
  227MOL0     H30640   8.367   6.044  10.893 -3.5034 -1.7827  2.2762
  227MOL0     H30641   8.401   6.310  10.863  1.1667 -0.6775 -2.2702
  227MOL0     H30642   8.528   6.204  10.804 -2.5050  1.7756 -3.5351
  227MOL0     H30643   8.706   6.429  11.126 -4.1987 -1.0304  5.4730
  227MOL0     H30644   8.641   5.750  10.845 -2.3167  1.0074  0.4471
  227MOL0     H30645   8.879   5.691  10.849  2.0674  1.9197  0.7834
  228MOL0     O30646   9.652   4.281  11.227 -0.0938 -0.2261 -0.2172
  228MOL0     C30647   9.601   4.325  11.333  0.0083  0.2177 -0.4518
  228MOL0     O30648   9.479   4.364  11.349 -0.4450  0.3819 -1.3032
  228MOL0     C30649   9.407   4.382  11.236  0.3757 -0.3847  0.0118
  228MOL0     C30650   9.438   4.484  11.154 -0.4930 -0.5240  0.3185
  228MOL0     C30651   9.377   4.495  11.033 -0.1247 -0.2904  0.3904
  228MOL0     C30652   9.272   4.416  11.001  0.4687 -0.2513  0.7198
  228MOL0     O30653   9.215   4.437  10.876  0.6364 -0.4800 -0.2593
  228MOL0     C30654   9.088   4.510  10.865  0.3073  0.2203  0.6486
  228MOL0     C30655   9.070   4.557  10.720  0.1587 -0.2657  0.1796
  228MOL0     C30656   8.919   4.588  10.696  0.4635 -0.1945  0.5001
  228MOL0     C30657   8.865   4.672  10.812  0.0531  0.0863 -0.6500
  228MOL0     C30658   8.767   4.784  10.792  0.1232 -0.1802 -0.0195
  228MOL0     C30659   8.726   4.847  10.924  0.2705 -0.8303 -1.1248
  228MOL0     C30660   8.627   4.964  10.912 -0.3550  0.6332  0.0615
  228MOL0     C30661   8.568   4.999  11.045  0.7236  0.2206  0.0047
  228MOL0     N30662   8.656   5.070  11.147 -0.0770 -0.1534  0.7824
  228MOL0     C30663   8.706   5.197  11.133 -0.2622 -0.7994 -0.0286
  228MOL0     C30664   8.750   5.228  11.255  0.3292  0.0224 -0.3483
  228MOL0     C30665   8.759   5.374  11.292  1.0338 -1.5090  0.5390
  228MOL0     C30666   8.726   5.412  11.436  0.0748 -0.1095 -0.1336
  228MOL0     C30667   8.849   5.406  11.523 -0.2363  0.2520  0.2161
  228MOL0     C30668   8.816   5.452  11.659 -1.1785 -0.7717 -0.1705
  228MOL0     O30669   8.793   5.592  11.626 -0.1947 -0.3325  0.1897
  228MOL0     C30670   8.755   5.675  11.726 -0.1619  0.6348 -0.6396
  228MOL0     C30671   8.650   5.771  11.717 -0.2407  0.4099 -0.5960
  228MOL0     C30672   8.614   5.848  11.818  1.2964  0.0084  0.1778
  228MOL0     C30673   8.499   5.948  11.792  1.6406  0.6462  0.1558
  228MOL0     C30674   8.671   5.844  11.943 -0.3226  0.9295 -1.2196
  228MOL0     C30675   8.656   5.933  12.059  0.0568 -0.5394 -0.8511
  228MOL0     O30676   8.636   6.066  12.032  0.4011  0.2657 -0.0048
  228MOL0     C30677   8.628   6.151  12.147 -0.0119  0.8523  0.3496
  228MOL0     C30678   8.512   6.163  12.230 -0.4697  1.0306 -0.2672
  228MOL0     C30679   8.503   6.251  12.333  0.0206  0.2632 -0.7426
  228MOL0     C30680   8.599   6.353  12.349  0.7493  0.2603 -0.5158
  228MOL0     O30681   8.585   6.438  12.462  0.0486 -0.4219 -0.0350
  228MOL0     C30682   8.455   6.492  12.498  0.2840 -0.1390  0.1590
  228MOL0     C30683   8.439   6.637  12.558  0.1258 -0.1651  0.1683
  228MOL0     C30684   8.451   6.741  12.440  0.8453 -0.3257  0.0826
  228MOL0     C30685   8.367   6.715  12.319 -0.7994 -0.4606 -0.5473
  228MOL0     C30686   8.385   6.829  12.213  0.3804  0.7838 -0.1342
  228MOL0     C30687   8.343   6.788  12.062 -0.7001 -0.2968 -0.2981
  228MOL0     C30688   8.428   6.671  12.000  0.3703 -0.4945  0.4252
  228MOL0     C30689   8.574   6.725  11.978 -0.3429  0.5150 -0.0833
  228MOL0    Cl30690   8.588   6.817  11.827 -0.1590 -0.2034 -0.3499
  228MOL0     C30691   8.702   6.352  12.255 -0.0942 -0.2890  0.3475
  228MOL0     C30692   8.723   6.255  12.166  0.0671  0.6028 -0.5697
  228MOL0     O30693   8.678   5.881  12.167  0.8978 -0.5063 -0.4761
  228MOL0     C30694   8.774   5.741  11.959 -1.1783  0.5598 -0.3230
  228MOL0     C30695   8.811   5.664  11.855 -0.2953 -0.2497  0.8418
  228MOL0     N30696   8.731   5.116  11.338 -1.0626 -0.4061  0.1589
  228MOL0     N30697   8.678   5.022  11.270  0.2651  0.8606  0.2231
  228MOL0     C30698   9.236   4.319  11.082  0.3037  0.2385 -0.8786
  228MOL0     C30699   9.317   4.286  11.192 -0.7782  0.1831  0.9473
  228MOL0     C30700   9.700   4.330  11.446 -0.2685  0.3792 -0.9805
  228MOL0     C30701   9.848   4.318  11.434  0.5932 -0.1245  0.1926
  228MOL0     C30702   9.929   4.353  11.542  0.6144 -0.0408 -1.1583
  228MOL0     C30703   9.864   4.394  11.662  0.3662  0.5890 -0.3591
  228MOL0     O30704   9.926   4.436  11.782  0.3485  1.0637  0.0986
  228MOL0     C30705  10.072   4.477  11.778  0.3387 -0.8150 -0.1539
  228MOL0     C30706  10.158   4.352  11.760  0.9762  1.6168  1.1932
  228MOL0     C30707  10.262   4.348  11.879  0.2382 -1.3825 -0.4786
  228MOL0     C30708  10.338   4.218  11.902  0.0414 -0.4377 -0.0712
  228MOL0     C30709  10.240   4.106  11.917 -0.6001  0.0395 -0.1425
  228MOL0     C30710  10.162   4.015  11.931  0.4896  0.7499  0.6247
  228MOL0     C30711   9.721   4.385  11.677 -0.1486 -1.1097 -0.4220
  228MOL0     C30712   9.642   4.357  11.573  1.1281 -0.3765  0.5858
  228MOL0     H30713   9.520   4.554  11.158  0.1687 -1.3447  1.6867
  228MOL0     H30714   9.421   4.577  10.978  0.3053 -0.6839  0.1382
  228MOL0     H30715   9.009   4.440  10.897  1.0036 -3.1946 -3.9956
  228MOL0     H30716   9.091   4.602  10.923  0.2623  1.1162 -0.7232
  228MOL0     H30717   9.128   4.649  10.713  0.6798 -0.6729 -1.2340
  228MOL0     H30718   9.117   4.482  10.656  0.7818 -2.0119  2.5359
  228MOL0     H30719   8.900   4.635  10.599  0.9306  1.2625  1.0953
  228MOL0     H30720   8.857   4.498  10.697  0.4777 -0.3287 -2.4172
  228MOL0     H30721   8.827   4.608  10.891  1.3822 -1.8443 -1.5052
  228MOL0     H30722   8.941   4.738  10.854 -0.1208  1.6677 -2.6412
  228MOL0     H30723   8.817   4.849  10.720 -1.6716 -0.3940 -1.5196
  228MOL0     H30724   8.679   4.742  10.742 -0.9952  3.9645 -1.9254
  228MOL0     H30725   8.674   4.777  10.989 -1.5510 -0.6583 -2.3175
  228MOL0     H30726   8.815   4.889  10.972 -0.1071  0.4210 -1.4754
  228MOL0     H30727   8.690   5.048  10.880  0.2446  0.2775  0.3107
  228MOL0     H30728   8.546   4.947  10.840  0.3699  0.2436 -0.6782
  228MOL0     H30729   8.536   4.903  11.087  0.4952 -0.7305 -2.2151
  228MOL0     H30730   8.482   5.063  11.026  0.8414 -0.1446 -2.0022
  228MOL0     H30731   8.711   5.254  11.040 -1.0688  1.3589  1.1863
  228MOL0     H30732   8.857   5.413  11.264  0.4291 -0.2467  0.0635
  228MOL0     H30733   8.686   5.434  11.237  0.7121 -1.7517  0.6975
  228MOL0     H30734   8.643   5.352  11.473  0.8891 -1.0070  0.3034
  228MOL0     H30735   8.693   5.516  11.429 -0.7324 -0.4530 -1.9486
  228MOL0     H30736   8.931   5.469  11.488 -0.6115 -0.8832 -3.0187
  228MOL0     H30737   8.888   5.304  11.531  2.7251  1.0243 -2.5927
  228MOL0     H30738   8.908   5.445  11.718  0.9845 -0.8531 -3.3134
  228MOL0     H30739   8.737   5.398  11.712 -0.1979 -0.0165  2.2137
  228MOL0     H30740   8.598   5.773  11.622 -2.5140 -2.4985  0.4274
  228MOL0     H30741   8.417   5.939  11.864  0.4874 -1.2411 -1.2736
  228MOL0     H30742   8.545   6.046  11.775 -0.3596  1.2105 -2.8240
  228MOL0     H30743   8.452   5.923  11.696  2.9196  3.8489 -1.4241
  228MOL0     H30744   8.438   6.085  12.213  0.0601  0.1580  1.2506
  228MOL0     H30745   8.413   6.236  12.392  0.5796 -0.9845 -0.1785
  228MOL0     H30746   8.378   6.483  12.420 -0.2412  0.8212  0.5453
  228MOL0     H30747   8.422   6.422  12.575 -3.9918 -1.5082 -2.5340
  228MOL0     H30748   8.337   6.647  12.596  0.8407  2.8645  1.5758
  228MOL0     H30749   8.516   6.656  12.633  1.4948 -1.1586 -0.9369
  228MOL0     H30750   8.555   6.752  12.411  1.1870 -1.2220  0.9303
  228MOL0     H30751   8.432   6.843  12.475  0.6013 -0.3181 -0.0701
  228MOL0     H30752   8.410   6.622  12.279 -0.8879 -0.4433 -0.6815
  228MOL0     H30753   8.260   6.700  12.337 -0.6058 -3.0808 -1.2038
  228MOL0     H30754   8.494   6.842  12.213  0.4470  0.3683  1.0601
  228MOL0     H30755   8.343   6.927  12.239 -0.0703  0.1979  1.5172
  228MOL0     H30756   8.241   6.749  12.058 -1.9391  2.3734  1.9275
  228MOL0     H30757   8.365   6.875  11.999  0.3767  1.2128  2.0140
  228MOL0     H30758   8.378   6.648  11.905  0.8742 -2.8620  0.6635
  228MOL0     H30759   8.421   6.578  12.057  0.4632  0.2029  1.6185
  228MOL0     H30760   8.639   6.638  11.965  0.3398  0.4493  3.0057
  228MOL0     H30761   8.602   6.785  12.065 -1.2169 -2.5060  2.4544
  228MOL0     H30762   8.785   6.422  12.263  1.2925 -1.6011 -1.6890
  228MOL0     H30763   8.813   6.263  12.107  0.3483 -1.6225 -0.4983
  228MOL0     H30764   8.816   5.721  12.057  0.9399  1.8357 -0.9279
  228MOL0     H30765   8.887   5.589  11.875 -0.5978 -1.3928 -1.9367
  228MOL0     H30766   9.162   4.256  11.034  1.1283 -3.4350  2.1159
  228MOL0     H30767   9.308   4.188  11.238  0.0236 -0.6214 -0.5310
  228MOL0     H30768   9.888   4.286  11.339  2.5502 -0.7575  1.1712
  228MOL0     H30769  10.038   4.351  11.538  0.7760  0.9635  1.2328
  228MOL0     H30770  10.098   4.542  11.694 -1.6152 -0.0498 -0.2287
  228MOL0     H30771  10.096   4.533  11.868 -0.3659  1.4904 -1.3151
  228MOL0     H30772  10.218   4.348  11.669 -0.1454  1.2971  0.4441
  228MOL0     H30773  10.098   4.261  11.767  1.7924  1.1866  3.3698
  228MOL0     H30774  10.203   4.371  11.968 -2.7594  0.0297 -2.6704
  228MOL0     H30775  10.333   4.431  11.872 -2.4526  1.3003  1.2719
  228MOL0     H30776  10.384   4.243  11.998 -0.6831 -1.9438  0.7137
  228MOL0     H30777  10.413   4.195  11.826  1.3999  3.5756 -0.1534
  228MOL0     H30778  10.086   3.939  11.922  1.8252 -0.4694 -0.8736
  228MOL0     H30779   9.693   4.408  11.779  0.7088  1.7701 -0.7636
  228MOL0     H30780   9.537   4.369  11.594  0.1810 -5.0389 -0.3070
  229MOL0     O30781   1.531   6.357   7.188  0.4046  0.7960 -0.3281
  229MOL0     C30782   1.612   6.441   7.145 -0.2056  0.3573 -0.8117
  229MOL0     O30783   1.728   6.415   7.089 -0.2323 -0.4754 -0.0424
  229MOL0     C30784   1.752   6.280   7.064 -0.0292 -0.3012  0.6857
  229MOL0     C30785   1.851   6.214   7.123 -0.6138  0.1706 -0.0776
  229MOL0     C30786   1.897   6.086   7.081 -0.3579 -0.1497 -0.4883
  229MOL0     C30787   1.833   6.027   6.971  0.2233 -0.0627  0.6750
  229MOL0     O30788   1.863   5.895   6.924  0.1121 -0.3503  0.7046
  229MOL0     C30789   1.990   5.846   6.949 -0.3316 -0.1986  0.4559
  229MOL0     C30790   1.993   5.704   6.880 -0.1240  0.2479  0.6065
  229MOL0     C30791   1.980   5.714   6.724  0.8252 -1.2576  0.0228
  229MOL0     C30792   1.975   5.581   6.654  0.6967 -0.1142 -0.1430
  229MOL0     C30793   1.876   5.578   6.542 -0.2927 -0.2582 -0.0421
  229MOL0     C30794   1.879   5.440   6.467 -0.6168 -0.1904  0.7708
  229MOL0     C30795   1.764   5.401   6.371  0.5920 -0.1896 -0.5482
  229MOL0     C30796   1.719   5.498   6.260 -0.0133 -0.0747  0.6628
  229MOL0     N30797   1.837   5.543   6.175  0.0284 -0.7622 -0.4438
  229MOL0     C30798   1.922   5.463   6.117 -0.1834  0.0057  0.0090
  229MOL0     C30799   2.031   5.546   6.074 -0.6825  0.4800 -0.4676
  229MOL0     C30800   2.144   5.515   6.000 -1.3615  0.7117 -0.3288
  229MOL0     C30801   2.279   5.551   6.054 -0.7813  0.0330  0.6262
  229MOL0     C30802   2.304   5.699   6.021  0.1745  0.6593 -0.3811
  229MOL0     C30803   2.438   5.752   6.068  0.2110 -0.0076  0.1948
  229MOL0     O30804   2.553   5.716   5.986 -0.3108 -0.3246 -0.8455
  229MOL0     C30805   2.654   5.815   5.981 -0.0391  0.5175  0.8116
  229MOL0     C30806   2.699   5.854   5.858 -0.2236  0.5829  0.4698
  229MOL0     C30807   2.814   5.930   5.847  0.1209  0.3092 -0.3114
  229MOL0     C30808   2.865   5.943   5.703 -0.5103  0.1789  0.6545
  229MOL0     C30809   2.855   6.008   5.969 -0.2117  0.2009  1.4489
  229MOL0     C30810   2.954   6.107   5.955 -0.5698  0.4824  0.0617
  229MOL0     O30811   3.028   6.131   6.070  0.2154 -0.8751  0.6587
  229MOL0     C30812   3.142   6.209   6.069  0.7237  0.9477 -0.3906
  229MOL0     C30813   3.233   6.208   5.965  0.1898 -0.6433  0.8044
  229MOL0     C30814   3.348   6.289   5.977 -0.5598  0.4367  0.6835
  229MOL0     C30815   3.369   6.365   6.094 -0.2134 -0.0154 -0.5221
  229MOL0     O30816   3.482   6.435   6.124 -0.3166  0.0281  0.1940
  229MOL0     C30817   3.508   6.536   6.023  0.9188 -0.9635 -0.7716
  229MOL0     C30818   3.581   6.653   6.078  0.5055 -0.4490  0.6991
  229MOL0     C30819   3.530   6.699   6.217  0.5482 -0.3468  0.3026
  229MOL0     C30820   3.389   6.745   6.226 -0.1539 -0.3206 -0.7223
  229MOL0     C30821   3.352   6.853   6.120 -0.4966 -0.3557  0.7509
  229MOL0     C30822   3.387   6.999   6.147  0.6329 -0.3605  0.8120
  229MOL0     C30823   3.321   7.079   6.255  0.3211 -0.2445  0.5920
  229MOL0     C30824   3.194   7.153   6.199  0.1303  0.5050 -0.8153
  229MOL0    Cl30825   3.222   7.291   6.090 -0.1231  0.0209 -0.5628
  229MOL0     C30826   3.271   6.353   6.197 -0.6010  0.0720  0.0806
  229MOL0     C30827   3.161   6.281   6.180  0.0707 -0.2342 -0.7355
  229MOL0     O30828   2.960   6.173   5.849  0.3556 -1.4884 -0.0685
  229MOL0     C30829   2.787   5.986   6.087 -0.0380 -0.5574 -0.2455
  229MOL0     C30830   2.693   5.896   6.091  0.0718  0.7676  0.2825
  229MOL0     N30831   1.998   5.672   6.109  0.4497 -0.5980 -0.4237
  229MOL0     N30832   1.885   5.672   6.174 -0.3031 -0.7840 -0.4105
  229MOL0     C30833   1.720   6.088   6.915 -0.1448 -0.0240 -0.4244
  229MOL0     C30834   1.685   6.212   6.960 -0.0456 -0.1881  0.1653
  229MOL0     C30835   1.571   6.590   7.155  0.1342 -0.5938  0.3964
  229MOL0     C30836   1.661   6.699   7.135  0.7409 -0.3257 -0.1367
  229MOL0     C30837   1.612   6.829   7.136  1.0989  0.0727 -0.0167
  229MOL0     C30838   1.481   6.860   7.158  1.2146  0.4374 -1.0543
  229MOL0     O30839   1.447   6.998   7.147 -0.0561 -0.3600  0.4794
  229MOL0     C30840   1.308   7.035   7.167  0.3235 -0.2476 -0.8881
  229MOL0     C30841   1.293   7.185   7.189  0.9456 -0.5087 -0.5239
  229MOL0     C30842   1.323   7.268   7.066 -0.4055 -0.0319 -0.6156
  229MOL0     C30843   1.318   7.427   7.095 -0.3203  1.3750  0.0160
  229MOL0     C30844   1.177   7.472   7.117  0.2020  0.6805  0.2000
  229MOL0     C30845   1.060   7.516   7.140 -0.2045 -0.0876 -1.1214
  229MOL0     C30846   1.385   6.751   7.175  0.0194  0.1314  0.1405
  229MOL0     C30847   1.431   6.621   7.163 -0.0838 -0.2662  0.1113
  229MOL0     H30848   1.898   6.274   7.201  1.1544 -1.1308 -0.0802
  229MOL0     H30849   1.970   6.027   7.134 -0.4572 -0.0148 -0.1973
  229MOL0     H30850   2.077   5.901   6.914 -1.2826 -0.5714 -2.7714
  229MOL0     H30851   1.994   5.836   7.058  2.7976  3.0220  0.8152
  229MOL0     H30852   2.095   5.668   6.896  0.4418  1.0159 -1.0523
  229MOL0     H30853   1.922   5.634   6.924 -1.0421  0.9586  0.2998
  229MOL0     H30854   1.880   5.753   6.702  0.8792 -2.1336 -1.9657
  229MOL0     H30855   2.048   5.789   6.683  0.2176 -0.3638  0.6202
  229MOL0     H30856   2.078   5.561   6.623  0.8227  1.0521 -0.5325
  229MOL0     H30857   1.945   5.500   6.722  0.3139 -0.3644 -0.6031
  229MOL0     H30858   1.776   5.589   6.585  0.1619  0.3719  0.8685
  229MOL0     H30859   1.890   5.658   6.468  2.5709 -0.3526  0.2868
  229MOL0     H30860   1.972   5.440   6.408 -0.8547 -5.9127 -0.1649
  229MOL0     H30861   1.890   5.358   6.539  2.7145  0.2517  0.9386
  229MOL0     H30862   1.801   5.310   6.324  4.1205 -0.0105  1.5874
  229MOL0     H30863   1.674   5.381   6.429 -1.3266 -2.5061 -3.9613
  229MOL0     H30864   1.674   5.592   6.294  2.2257  1.1538  0.4172
  229MOL0     H30865   1.643   5.446   6.202  2.0680  0.4973 -2.8435
  229MOL0     H30866   1.911   5.356   6.097  0.8221 -0.2421  0.7168
  229MOL0     H30867   2.148   5.405   6.003 -2.7891  0.6264  3.2754
  229MOL0     H30868   2.135   5.546   5.895 -0.4137 -1.4106 -1.1069
  229MOL0     H30869   2.355   5.495   5.999 -0.2009  1.7935 -0.4593
  229MOL0     H30870   2.294   5.530   6.160 -2.4466 -1.9883  0.5404
  229MOL0     H30871   2.232   5.766   6.068 -0.9346 -0.7011 -0.0682
  229MOL0     H30872   2.286   5.716   5.914  0.6052 -0.3552 -0.6265
  229MOL0     H30873   2.453   5.705   6.166 -1.3891  1.2936  1.1226
  229MOL0     H30874   2.432   5.860   6.086 -1.8000 -0.0906  0.2137
  229MOL0     H30875   2.652   5.806   5.772 -1.3200 -1.1636  1.9697
  229MOL0     H30876   2.800   6.006   5.642  2.2093  1.8278 -0.7177
  229MOL0     H30877   2.965   5.987   5.699  1.5775 -4.0370 -0.2879
  229MOL0     H30878   2.885   5.849   5.650  2.3907  0.4371  1.0953
  229MOL0     H30879   3.227   6.131   5.889  1.3558  0.8615 -0.9091
  229MOL0     H30880   3.428   6.274   5.905 -2.2221 -0.2101 -1.1243
  229MOL0     H30881   3.578   6.508   5.944  2.8367  2.0617 -0.2996
  229MOL0     H30882   3.416   6.585   5.993  1.3826  1.9546  2.0093
  229MOL0     H30883   3.683   6.614   6.086  0.3194 -1.2144 -0.3722
  229MOL0     H30884   3.574   6.731   6.001 -0.8138 -1.6505 -0.4573
  229MOL0     H30885   3.590   6.786   6.247  0.4800  0.0380 -0.6269
  229MOL0     H30886   3.551   6.619   6.289  1.3126  0.1635  0.6669
  229MOL0     H30887   3.321   6.659   6.215 -1.8578  0.6262  1.5266
  229MOL0     H30888   3.373   6.785   6.327  0.5208 -2.0071  0.0897
  229MOL0     H30889   3.243   6.855   6.106 -0.4908 -1.5205  0.4093
  229MOL0     H30890   3.395   6.834   6.021 -1.5340 -1.9709  0.5719
  229MOL0     H30891   3.494   7.006   6.167  0.5693 -0.2549  1.1211
  229MOL0     H30892   3.359   7.054   6.056 -3.5566 -0.1515  1.9843
  229MOL0     H30893   3.391   7.157   6.286  0.4864 -1.2330  2.8696
  229MOL0     H30894   3.291   7.019   6.341  0.5719 -2.5714 -0.8578
  229MOL0     H30895   3.144   7.196   6.287  1.0336  0.0971 -0.0902
  229MOL0     H30896   3.113   7.092   6.158 -1.9353  0.9326  2.2593
  229MOL0     H30897   3.285   6.395   6.296 -0.3083 -0.6750  0.3636
  229MOL0     H30898   3.078   6.290   6.250  1.9939 -0.8980  1.7983
  229MOL0     H30899   2.809   6.058   6.165  1.0181 -0.2852 -0.7739
  229MOL0     H30900   2.667   5.880   6.195  2.6684  0.3787  0.9579
  229MOL0     H30901   1.686   6.014   6.843 -0.2454 -2.5598  2.0361
  229MOL0     H30902   1.612   6.263   6.897 -1.1111  1.5903  2.6764
  229MOL0     H30903   1.766   6.675   7.122  0.7059 -0.9597  0.7010
  229MOL0     H30904   1.683   6.909   7.116 -1.9322  3.0330  0.3036
  229MOL0     H30905   1.241   7.014   7.084  1.9541  0.3755 -2.4284
  229MOL0     H30906   1.269   6.975   7.250  0.1313 -3.3867 -3.0724
  229MOL0     H30907   1.349   7.213   7.278  0.8727 -1.8829 -0.0079
  229MOL0     H30908   1.191   7.213   7.218  1.8420  3.4302 -0.6601
  229MOL0     H30909   1.258   7.246   6.981 -0.2477  0.2160 -0.8047
  229MOL0     H30910   1.418   7.245   7.018 -1.7005 -2.7042 -2.1102
  229MOL0     H30911   1.370   7.481   7.014 -2.0343 -0.6062 -2.5863
  229MOL0     H30912   1.377   7.457   7.182  0.9892  2.1839 -1.0957
  229MOL0     H30913   0.965   7.564   7.156  0.4869  4.1274 -6.5748
  229MOL0     H30914   1.277   6.756   7.178  0.0789  2.8712  1.1515
  229MOL0     H30915   1.359   6.543   7.184 -2.6843  2.5585  2.6810
  230MOL0     O30916   9.975   0.588   0.985  0.2225 -0.3662  0.1147
  230MOL0     C30917  10.032   0.696   0.984  0.0418 -0.3459  0.0128
  230MOL0     O30918   9.969   0.817   0.994  0.4477  0.2193 -0.0635
  230MOL0     C30919   9.835   0.825   0.981  0.1979 -0.1345  0.4626
  230MOL0     C30920   9.774   0.901   1.083 -0.3720 -0.4912 -0.1589
  230MOL0     C30921   9.636   0.901   1.101 -0.6808  1.0320  1.6609
  230MOL0     C30922   9.550   0.830   1.022  0.3582  0.2536  0.8374
  230MOL0     O30923   9.421   0.825   1.050 -0.4091 -0.1812 -1.1286
  230MOL0     C30924   9.339   0.712   0.998 -0.1947 -0.5710 -1.1519
  230MOL0     C30925   9.196   0.744   1.037  0.1412 -0.3736  0.1257
  230MOL0     C30926   9.114   0.612   1.050  0.1977  0.1843  0.2157
  230MOL0     C30927   8.963   0.635   1.017  1.1012 -0.4751 -0.8173
  230MOL0     C30928   8.891   0.505   1.030  0.5206 -0.7824  0.7392
  230MOL0     C30929   8.739   0.518   0.995  0.0370  0.3250  0.6382
  230MOL0     C30930   8.648   0.564   1.100  0.6727  0.3534  0.3282
  230MOL0     C30931   8.684   0.513   1.240 -0.4285 -0.3550 -0.7063
  230MOL0     N30932   8.589   0.584   1.331 -0.3178 -0.2308 -0.2082
  230MOL0     C30933   8.617   0.683   1.424  0.0133 -0.8150 -0.5877
  230MOL0     C30934   8.500   0.730   1.482 -0.2631  0.1136  1.0804
  230MOL0     C30935   8.490   0.838   1.579 -1.3676  0.3730 -0.3861
  230MOL0     C30936   8.418   0.958   1.509  0.4112 -1.0912 -0.1613
  230MOL0     C30937   8.495   1.025   1.391 -0.3616 -0.6201 -0.3199
  230MOL0     C30938   8.647   1.044   1.403 -0.4408  0.0991 -0.1162
  230MOL0     O30939   8.700   1.137   1.304 -0.5188 -0.1389 -0.1152
  230MOL0     C30940   8.689   1.275   1.317 -0.4182  0.9694  0.1666
  230MOL0     C30941   8.598   1.323   1.413 -0.9248 -0.0694 -1.0290
  230MOL0     C30942   8.576   1.466   1.432  0.9287  0.2482 -0.1617
  230MOL0     C30943   8.481   1.512   1.533 -0.1835  0.8773 -0.3426
  230MOL0     C30944   8.654   1.560   1.359  0.9737  0.2086  0.0843
  230MOL0     C30945   8.651   1.701   1.365 -0.6927 -0.6477 -0.7462
  230MOL0     O30946   8.634   1.750   1.490  0.1628  0.3639  0.5284
  230MOL0     C30947   8.651   1.882   1.512  0.4359  0.8682 -0.5058
  230MOL0     C30948   8.617   1.918   1.645 -0.1067  0.2008  1.1979
  230MOL0     C30949   8.619   2.052   1.681 -0.5050  0.0919 -0.0358
  230MOL0     C30950   8.669   2.151   1.589 -0.0443 -0.1096 -0.2557
  230MOL0     O30951   8.656   2.282   1.633  1.0579 -0.0138 -0.7467
  230MOL0     C30952   8.685   2.385   1.532 -0.2763  0.5283  0.1519
  230MOL0     C30953   8.674   2.526   1.596  0.0321  0.9239  0.0256
  230MOL0     C30954   8.804   2.573   1.665  0.2184  0.3628 -0.9401
  230MOL0     C30955   8.824   2.723   1.651  0.7456 -0.0052 -0.9667
  230MOL0     C30956   8.955   2.773   1.696 -0.7217  0.1362  0.3868
  230MOL0     C30957   8.961   2.928   1.670  0.9038  0.3623 -0.2461
  230MOL0     C30958   9.089   3.004   1.693  0.0360  0.6257  1.4965
  230MOL0     C30959   9.123   3.093   1.577  0.2285  1.1138  0.3382
  230MOL0    Cl30960   8.991   3.206   1.528 -0.5152  0.4436 -0.5793
  230MOL0     C30961   8.715   2.112   1.463  0.6326  0.1809 -0.5928
  230MOL0     C30962   8.703   1.981   1.432 -0.0169 -1.0640 -0.1118
  230MOL0     O30963   8.668   1.759   1.263  0.0043  0.4461 -0.1824
  230MOL0     C30964   8.746   1.504   1.262  0.5327  0.1469  0.1463
  230MOL0     C30965   8.763   1.360   1.246  0.8713 -0.1846  0.4249
  230MOL0     N30966   8.398   0.654   1.419  0.8349 -0.4978 -0.4473
  230MOL0     N30967   8.454   0.575   1.339 -0.1786 -0.5377  0.2061
  230MOL0     C30968   9.604   0.774   0.912  0.1317 -0.2596  0.3824
  230MOL0     C30969   9.743   0.769   0.885  0.6633  0.3204 -0.6781
  230MOL0     C30970  10.185   0.695   0.985 -0.3450 -0.2280 -0.6194
  230MOL0     C30971  10.252   0.814   0.958  0.6710 -0.2176  0.2507
  230MOL0     C30972  10.396   0.818   0.953 -0.0063  0.0416 -0.4346
  230MOL0     C30973  10.477   0.709   0.974 -1.1539 -0.8836 -0.1140
  230MOL0     O30974  10.610   0.727   0.957 -0.8906 -0.2274 -0.7400
  230MOL0     C30975  10.693   0.618   1.007  1.3145  0.2819  0.1052
  230MOL0     C30976  10.840   0.659   1.021 -0.6267  0.3029  0.0536
  230MOL0     C30977  10.931   0.583   1.113  0.7351  0.4672  0.3008
  230MOL0     C30978  11.081   0.614   1.085  0.2703  0.0805  0.0808
  230MOL0     C30979  11.175   0.550   1.177  0.7567 -0.0612 -1.0842
  230MOL0     C30980  11.209   0.482   1.270 -0.8463  0.8052  0.5015
  230MOL0     C30981  10.405   0.595   1.005  0.4419  0.4897  0.0631
  230MOL0     C30982  10.263   0.582   1.009  0.1420 -0.1806  0.3445
  230MOL0     H30983   9.842   0.944   1.156 -1.8501  1.3558  0.2136
  230MOL0     H30984   9.592   0.958   1.182  0.1598  3.0298  0.7831
  230MOL0     H30985   9.333   0.700   0.889  2.9516 -0.2332 -1.4600
  230MOL0     H30986   9.370   0.626   1.057  0.3267  1.7786  2.3029
  230MOL0     H30987   9.204   0.788   1.137  1.2809  0.0026 -0.1185
  230MOL0     H30988   9.149   0.817   0.970  0.1189  0.2004  0.7590
  230MOL0     H30989   9.132   0.539   0.971 -2.4822 -1.4342  0.9734
  230MOL0     H30990   9.125   0.564   1.147 -2.6584 -0.5455  0.2718
  230MOL0     H30991   8.939   0.712   1.091  0.3521 -1.2556 -0.2440
  230MOL0     H30992   8.953   0.671   0.914  1.6040  0.7670 -0.4537
  230MOL0     H30993   8.936   0.437   0.957 -1.9114 -2.0334  0.2692
  230MOL0     H30994   8.895   0.450   1.125 -0.2782 -1.7672  0.2292
  230MOL0     H30995   8.708   0.572   0.904 -1.7934  0.4825  1.3113
  230MOL0     H30996   8.712   0.412   0.991  1.5344 -0.0437 -1.6247
  230MOL0     H30997   8.634   0.672   1.095 -1.7133  0.0865  0.0762
  230MOL0     H30998   8.549   0.521   1.085  0.3721  0.7712  1.1088
  230MOL0     H30999   8.785   0.538   1.276 -0.2507 -1.4334 -0.4342
  230MOL0     H31000   8.671   0.406   1.257 -1.2915  0.2658  3.8523
  230MOL0     H31001   8.717   0.721   1.443  1.1103 -4.1199  1.0567
  230MOL0     H31002   8.429   0.807   1.664 -0.9893  0.0241 -0.2408
  230MOL0     H31003   8.584   0.866   1.628 -3.4274  1.9137  3.0757
  230MOL0     H31004   8.406   1.043   1.576  2.5706 -2.9362  2.7940
  230MOL0     H31005   8.316   0.931   1.481 -0.2983  1.3601 -0.1995
  230MOL0     H31006   8.445   1.116   1.357  0.0227 -0.0595  0.6128
  230MOL0     H31007   8.481   0.950   1.312 -0.3355  0.8720 -1.7844
  230MOL0     H31008   8.705   0.952   1.389 -0.0567 -0.0358  2.0085
  230MOL0     H31009   8.672   1.069   1.506  1.5380 -0.2133 -0.4712
  230MOL0     H31010   8.531   1.265   1.475 -2.6847  1.2505 -1.6036
  230MOL0     H31011   8.412   1.433   1.563 -3.3877  3.4462 -0.3221
  230MOL0     H31012   8.525   1.556   1.624  0.3383 -1.3630  0.5441
  230MOL0     H31013   8.413   1.588   1.492  0.2014  2.6213  1.9975
  230MOL0     H31014   8.576   1.844   1.713 -1.5371 -0.2494 -0.1198
  230MOL0     H31015   8.569   2.075   1.775 -0.6818  0.5273 -0.2335
  230MOL0     H31016   8.782   2.369   1.484 -0.1402  0.7141  0.3606
  230MOL0     H31017   8.608   2.383   1.455  1.6973 -1.8085 -1.9425
  230MOL0     H31018   8.650   2.588   1.509  0.3440 -2.0567 -2.3748
  230MOL0     H31019   8.593   2.511   1.668  0.7950  1.1713  0.9442
  230MOL0     H31020   8.889   2.521   1.620 -1.0025  0.4457 -3.5322
  230MOL0     H31021   8.797   2.554   1.772 -2.4550 -0.6600 -1.1935
  230MOL0     H31022   8.820   2.743   1.543 -1.2678  1.0557 -0.7451
  230MOL0     H31023   8.739   2.769   1.702  1.0023 -2.4189  1.9122
  230MOL0     H31024   9.037   2.736   1.633  1.7039  1.0619  2.8025
  230MOL0     H31025   8.983   2.752   1.800  1.7575  0.0526 -0.2338
  230MOL0     H31026   8.922   2.940   1.568 -0.4964 -1.0148  0.0872
  230MOL0     H31027   8.884   2.967   1.737  1.6516  4.7387 -1.6400
  230MOL0     H31028   9.171   2.936   1.717  1.0810  2.2694  2.7876
  230MOL0     H31029   9.085   3.070   1.780  4.0429  2.6366  0.4420
  230MOL0     H31030   9.134   3.024   1.493  0.1524 -1.7956  2.5517
  230MOL0     H31031   9.212   3.150   1.605  1.7073 -0.4593 -0.9346
  230MOL0     H31032   8.732   2.181   1.381 -5.0105 -0.0801 -2.4390
  230MOL0     H31033   8.726   1.959   1.328 -0.7555  3.5249 -1.4551
  230MOL0     H31034   8.806   1.568   1.198 -1.0473  1.0970 -0.4254
  230MOL0     H31035   8.840   1.325   1.179 -0.1867  0.2447 -1.0672
  230MOL0     H31036   9.539   0.724   0.841 -0.8467  0.0903  1.0147
  230MOL0     H31037   9.783   0.714   0.801 -2.8673 -6.3271  1.3067
  230MOL0     H31038  10.190   0.902   0.944 -2.2385 -2.3790 -1.5235
  230MOL0     H31039  10.437   0.916   0.935 -2.0113  0.9321 -0.4299
  230MOL0     H31040  10.656   0.582   1.104 -0.9283 -3.3668 -1.9126
  230MOL0     H31041  10.674   0.524   0.955 -2.5897 -0.9445  3.2384
  230MOL0     H31042  10.832   0.764   1.049 -1.0144  0.8500 -1.9588
  230MOL0     H31043  10.885   0.652   0.921 -1.8295  0.0047 -0.4806
  230MOL0     H31044  10.918   0.478   1.085  4.2396  0.7105 -3.2281
  230MOL0     H31045  10.908   0.619   1.213 -1.8369  0.8860 -0.3829
  230MOL0     H31046  11.105   0.720   1.091 -2.4731  0.8288 -0.9400
  230MOL0     H31047  11.107   0.579   0.984  0.9038  4.2795 -1.4081
  230MOL0     H31048  11.241   0.406   1.338 -1.6137 -0.5477 -0.5962
  230MOL0     H31049  10.452   0.500   1.029  0.3239  0.5813  0.6890
  230MOL0     H31050  10.227   0.485   1.040 -1.7196 -0.1614 -1.5637
  231MOL0     O31051   3.218   3.938   4.719  0.7337 -0.2044  0.7330
  231MOL0     C31052   3.147   3.991   4.805 -0.2374  1.5859 -0.2858
  231MOL0     O31053   3.028   4.059   4.785 -0.0928  0.4730  0.4124
  231MOL0     C31054   2.957   4.029   4.671  0.1899  0.5368  1.0434
  231MOL0     C31055   2.869   3.920   4.674 -0.6648 -0.2331  0.1066
  231MOL0     C31056   2.808   3.887   4.554  0.2461  0.0399  0.7644
  231MOL0     C31057   2.830   3.944   4.431  0.4574  0.9282  0.7827
  231MOL0     O31058   2.780   3.886   4.318  0.3032 -0.0702  1.3092
  231MOL0     C31059   2.818   3.955   4.187 -1.2810 -0.3390 -0.1483
  231MOL0     C31060   2.747   3.922   4.065 -0.2264 -0.2913  0.0279
  231MOL0     C31061   2.707   3.773   4.056  1.0418 -0.9051  0.0047
  231MOL0     C31062   2.662   3.745   3.910  0.0562 -0.7269  0.6172
  231MOL0     C31063   2.612   3.600   3.896 -0.2279 -0.7565  0.4004
  231MOL0     C31064   2.703   3.483   3.943  0.2440 -0.6518 -0.2462
  231MOL0     C31065   2.837   3.468   3.874 -1.1968 -0.0630 -0.2594
  231MOL0     C31066   2.845   3.414   3.732 -0.8058 -0.5735  0.4705
  231MOL0     N31067   2.988   3.402   3.686  0.0843  0.3683 -0.4060
  231MOL0     C31068   3.077   3.496   3.639 -0.8738  0.8597 -0.3580
  231MOL0     C31069   3.187   3.413   3.619 -0.4807  0.0742 -0.7899
  231MOL0     C31070   3.322   3.468   3.574 -0.6261 -0.1956 -0.2586
  231MOL0     C31071   3.300   3.493   3.420 -1.6752 -0.1005  0.0244
  231MOL0     C31072   3.435   3.516   3.346 -0.1323  0.2059  0.1051
  231MOL0     C31073   3.518   3.388   3.323  0.0160  0.7111 -0.2077
  231MOL0     O31074   3.637   3.402   3.232 -0.0692 -0.1326  0.7252
  231MOL0     C31075   3.624   3.400   3.091  0.6103  0.7279 -0.1243
  231MOL0     C31076   3.738   3.387   3.009  0.6648 -0.6072 -0.7587
  231MOL0     C31077   3.738   3.368   2.874  0.7424 -0.6386  0.6887
  231MOL0     C31078   3.874   3.354   2.815  0.6604  0.1893 -0.6783
  231MOL0     C31079   3.616   3.375   2.801 -0.0588  0.9320 -0.2431
  231MOL0     C31080   3.605   3.368   2.654  0.0911  0.5839 -0.0823
  231MOL0     O31081   3.712   3.346   2.576 -0.1681 -0.9135 -0.2150
  231MOL0     C31082   3.698   3.371   2.441 -0.3245  0.4465  0.7249
  231MOL0     C31083   3.628   3.276   2.361  0.0389 -0.0561 -0.6492
  231MOL0     C31084   3.605   3.304   2.229  0.4373 -0.3033  0.3348
  231MOL0     C31085   3.682   3.399   2.157 -0.6386  0.0550 -0.2367
  231MOL0     O31086   3.661   3.421   2.022  0.1810 -0.2138 -0.2449
  231MOL0     C31087   3.553   3.349   1.956 -0.2616 -1.3427 -0.4375
  231MOL0     C31088   3.522   3.413   1.820 -0.2225  0.2165 -0.7086
  231MOL0     C31089   3.464   3.558   1.822 -0.3162  0.6507  0.0955
  231MOL0     C31090   3.371   3.579   1.938 -1.5646  0.3503 -0.2646
  231MOL0     C31091   3.297   3.716   1.934 -0.0738  0.2661 -0.7470
  231MOL0     C31092   3.243   3.746   1.797  0.1353 -0.2919  0.2411
  231MOL0     C31093   3.110   3.838   1.790  0.0154  0.1037 -0.4509
  231MOL0     C31094   3.058   3.863   1.655  0.1737 -0.3720  0.5163
  231MOL0    Cl31095   2.903   3.941   1.676 -0.4691 -0.2340 -0.6450
  231MOL0     C31096   3.771   3.478   2.235  0.0938 -0.1879  0.0857
  231MOL0     C31097   3.772   3.472   2.374  0.2383  0.2063  0.1629
  231MOL0     O31098   3.486   3.370   2.612 -0.8684  0.3226  0.2299
  231MOL0     C31099   3.500   3.393   2.879  0.8718 -0.4563  0.3070
  231MOL0     C31100   3.504   3.401   3.012 -0.1972  0.1608 -0.7121
  231MOL0     N31101   3.162   3.273   3.661  0.2436 -0.8235 -0.2969
  231MOL0     N31102   3.041   3.277   3.703  0.3746 -0.9130  0.2789
  231MOL0     C31103   2.915   4.057   4.433  0.4012 -0.6302  1.0191
  231MOL0     C31104   2.974   4.104   4.553 -0.3573 -0.3824  0.3114
  231MOL0     C31105   3.160   3.930   4.942 -1.2700  1.2155 -0.6286
  231MOL0     C31106   3.067   3.964   5.038 -0.1050  0.2422 -0.3340
  231MOL0     C31107   3.078   3.909   5.168 -0.6802 -0.0155 -0.4975
  231MOL0     C31108   3.186   3.817   5.190 -0.8211  0.7326  1.1640
  231MOL0     O31109   3.203   3.775   5.318  0.3487  0.5124  0.2185
  231MOL0     C31110   3.206   3.630   5.337 -0.6249  0.1948 -0.8098
  231MOL0     C31111   3.266   3.603   5.474 -0.2034  0.7598  0.2446
  231MOL0     C31112   3.392   3.682   5.510 -0.3231 -0.3739  0.5994
  231MOL0     C31113   3.484   3.604   5.602 -0.5705 -0.6538 -0.2596
  231MOL0     C31114   3.614   3.666   5.590 -0.8510 -0.5588 -0.0217
  231MOL0     C31115   3.722   3.712   5.569  0.8885  0.6692  0.1737
  231MOL0     C31116   3.279   3.784   5.092 -0.2846  0.5947  0.3318
  231MOL0     C31117   3.271   3.846   4.969  0.3464 -0.0753  0.6649
  231MOL0     H31118   2.844   3.875   4.769 -3.1301  0.5310 -0.1044
  231MOL0     H31119   2.730   3.811   4.548 -1.5809  1.8955 -0.2276
  231MOL0     H31120   2.817   4.064   4.196  2.9188 -0.2413  1.1748
  231MOL0     H31121   2.921   3.923   4.167 -2.1386 -1.7208 -2.8064
  231MOL0     H31122   2.654   3.979   4.055 -1.4389 -2.4705 -2.1585
  231MOL0     H31123   2.801   3.959   3.978 -0.2593  2.1972  0.9881
  231MOL0     H31124   2.792   3.715   4.093 -0.9848 -2.1247  3.2486
  231MOL0     H31125   2.617   3.752   4.116 -0.7527  2.0827 -1.3799
  231MOL0     H31126   2.583   3.817   3.890  2.6315  1.5277 -2.4490
  231MOL0     H31127   2.745   3.757   3.839  1.8012 -2.3873  2.2394
  231MOL0     H31128   2.537   3.587   3.976  1.1355 -2.5992  1.4581
  231MOL0     H31129   2.555   3.572   3.808  0.9658 -0.8267 -0.3638
  231MOL0     H31130   2.717   3.502   4.050  3.2239  0.7258 -0.8004
  231MOL0     H31131   2.635   3.397   3.939 -0.3121 -0.5258  3.4157
  231MOL0     H31132   2.883   3.567   3.875  2.4078 -1.5774  1.0219
  231MOL0     H31133   2.896   3.407   3.942 -0.4315 -0.0770 -0.9253
  231MOL0     H31134   2.784   3.482   3.672 -0.5414 -0.8364 -0.1014
  231MOL0     H31135   2.803   3.313   3.728 -0.8849 -0.6038  1.7241
  231MOL0     H31136   3.060   3.603   3.642  1.3572  1.3849 -2.8125
  231MOL0     H31137   3.369   3.551   3.628  1.1776 -0.1171 -1.8536
  231MOL0     H31138   3.388   3.382   3.583 -0.3213 -0.3322 -2.9898
  231MOL0     H31139   3.244   3.586   3.405  1.1807  1.3841 -2.5717
  231MOL0     H31140   3.254   3.400   3.387  0.3750 -1.1320 -0.0335
  231MOL0     H31141   3.498   3.581   3.408  1.5031 -2.1352  1.0436
  231MOL0     H31142   3.409   3.570   3.255  1.8518 -0.7287 -1.0620
  231MOL0     H31143   3.459   3.311   3.272  2.6156 -0.1108 -2.2215
  231MOL0     H31144   3.539   3.338   3.418 -0.6611 -0.1159 -0.4831
  231MOL0     H31145   3.825   3.382   3.073  1.0223  2.6642 -0.8226
  231MOL0     H31146   3.891   3.412   2.724 -0.9324  1.8675  0.0512
  231MOL0     H31147   3.946   3.375   2.895  3.3330 -1.3181 -2.5211
  231MOL0     H31148   3.895   3.248   2.793 -0.1788 -0.1152 -0.0720
  231MOL0     H31149   3.574   3.201   2.418  2.5958 -1.9024 -0.4451
  231MOL0     H31150   3.539   3.240   2.171  0.6005  1.6428 -2.1569
  231MOL0     H31151   3.582   3.243   1.949  1.6645 -1.2668  3.7631
  231MOL0     H31152   3.460   3.347   2.014 -1.3987 -3.7770 -2.1435
  231MOL0     H31153   3.612   3.404   1.758  0.2486  0.3803 -0.0615
  231MOL0     H31154   3.442   3.355   1.774 -3.7720  2.4159  2.1589
  231MOL0     H31155   3.420   3.584   1.725 -0.4710  1.1339  0.2947
  231MOL0     H31156   3.550   3.625   1.830  0.7069 -0.1774 -2.7762
  231MOL0     H31157   3.296   3.500   1.947  0.1394 -1.3821 -0.5917
  231MOL0     H31158   3.426   3.587   2.032  0.0489  0.4964 -1.1811
  231MOL0     H31159   3.365   3.801   1.947 -1.6521  2.1405 -3.6112
  231MOL0     H31160   3.215   3.719   2.006 -0.1272 -1.3197 -0.7046
  231MOL0     H31161   3.318   3.795   1.734 -1.4647  0.7460 -0.9390
  231MOL0     H31162   3.201   3.656   1.749  2.1753  0.1069 -2.5593
  231MOL0     H31163   3.120   3.932   1.845  1.4300 -1.8749  3.0045
  231MOL0     H31164   3.036   3.786   1.850 -0.2352  2.0509  1.0139
  231MOL0     H31165   3.034   3.763   1.619 -1.9850 -1.2158  3.8047
  231MOL0     H31166   3.132   3.921   1.600  1.6452 -0.2766  2.5018
  231MOL0     H31167   3.832   3.559   2.197 -0.6952  0.1057 -0.5963
  231MOL0     H31168   3.841   3.536   2.428  0.9733  1.5071 -2.1955
  231MOL0     H31169   3.398   3.386   2.841  0.3122 -2.8007  2.0247
  231MOL0     H31170   3.413   3.420   3.068  1.1500  2.0329  1.0042
  231MOL0     H31171   2.935   4.121   4.347 -0.4356  1.8065  2.5182
  231MOL0     H31172   3.034   4.194   4.545  0.4469 -1.0068 -0.9477
  231MOL0     H31173   2.981   4.029   5.028 -0.4230 -0.1158  0.0111
  231MOL0     H31174   3.032   3.932   5.264 -0.6479 -0.6105 -0.3363
  231MOL0     H31175   3.103   3.598   5.315 -0.2261 -1.1156 -0.9002
  231MOL0     H31176   3.266   3.567   5.271 -0.8250 -3.2071  1.8958
  231MOL0     H31177   3.304   3.501   5.458  0.8047  1.3097 -0.9876
  231MOL0     H31178   3.189   3.601   5.552  1.3237  1.3399  1.8430
  231MOL0     H31179   3.369   3.783   5.545  1.5819  1.4052 -2.7065
  231MOL0     H31180   3.443   3.713   5.418  1.3553  1.7773  2.1519
  231MOL0     H31181   3.492   3.498   5.575 -1.1761 -0.7365 -0.1430
  231MOL0     H31182   3.463   3.598   5.709  0.7436  1.1709  0.1469
  231MOL0     H31183   3.819   3.758   5.575  1.7504 -1.1877  1.2458
  231MOL0     H31184   3.365   3.719   5.106  0.3747  0.6738 -2.6156
  231MOL0     H31185   3.360   3.827   4.909  0.5660 -2.3126  1.5852
  232MOL0     O31186   9.618   7.463   4.473 -0.1848 -0.4618  0.3412
  232MOL0     C31187   9.719   7.447   4.413 -0.4462 -0.5186  0.5444
  232MOL0     O31188   9.838   7.404   4.461  0.7438  0.2710  0.7727
  232MOL0     C31189   9.833   7.318   4.562  0.0459  0.5692 -0.1870
  232MOL0     C31190   9.746   7.209   4.573  0.4004 -0.7855  0.1346
  232MOL0     C31191   9.749   7.125   4.680  1.0592  0.3778  0.3255
  232MOL0     C31192   9.841   7.148   4.775 -0.0994  0.2894 -0.1673
  232MOL0     O31193   9.860   7.081   4.898  0.4940 -0.7666  0.2822
  232MOL0     C31194   9.834   6.936   4.897  1.1678 -0.2748 -0.2265
  232MOL0     C31195   9.965   6.858   4.890  0.1859  0.1168  0.2742
  232MOL0     C31196  10.066   6.901   4.997 -0.2207  0.7538 -0.4072
  232MOL0     C31197  10.032   6.889   5.151 -0.1634  0.6291  0.2923
  232MOL0     C31198   9.956   7.009   5.207  0.1668  1.0686  0.6515
  232MOL0     C31199   9.866   6.975   5.319 -1.4145 -0.8613 -0.2862
  232MOL0     C31200   9.801   7.094   5.388  0.0170 -0.4991  0.0962
  232MOL0     C31201   9.715   7.044   5.498  0.1657  0.3247 -0.6745
  232MOL0     N31202   9.690   7.131   5.614 -0.3393 -0.0113 -0.1612
  232MOL0     C31203   9.783   7.167   5.711 -0.6030  0.0689  0.3284
  232MOL0     C31204   9.723   7.259   5.787 -0.4563  0.5508  0.2883
  232MOL0     C31205   9.794   7.332   5.894  0.6132  0.3946  0.0498
  232MOL0     C31206   9.810   7.253   6.033 -0.1338  0.6025  0.6622
  232MOL0     C31207   9.895   7.344   6.139 -0.2359  0.2856 -0.2147
  232MOL0     C31208   9.821   7.464   6.200 -0.7457  0.1640 -0.0479
  232MOL0     O31209   9.901   7.508   6.312 -0.0754  0.2993 -0.5844
  232MOL0     C31210   9.927   7.421   6.421 -0.0104  0.4110  0.6467
  232MOL0     C31211  10.058   7.409   6.463 -0.5725 -0.5163 -0.1243
  232MOL0     C31212  10.084   7.340   6.589 -0.0715 -0.1285  0.1289
  232MOL0     C31213  10.224   7.348   6.648 -0.4382 -0.3998 -0.3155
  232MOL0     C31214   9.975   7.267   6.654  0.8515 -0.1416 -0.5786
  232MOL0     C31215   9.979   7.174   6.775  0.8348 -0.4498  0.6398
  232MOL0     O31216   9.860   7.168   6.852 -0.1868  0.1035  0.9486
  232MOL0     C31217   9.856   7.115   6.980 -0.3354 -0.6228  0.3139
  232MOL0     C31218   9.733   7.136   7.044 -0.3521  0.1466 -0.5712
  232MOL0     C31219   9.727   7.098   7.184 -0.8738 -0.3081 -0.0753
  232MOL0     C31220   9.833   7.048   7.251  0.7690  1.2649 -0.3601
  232MOL0     O31221   9.828   7.002   7.382  0.1167  0.1316  0.5710
  232MOL0     C31222   9.768   7.098   7.478  0.4659  0.1159  0.0608
  232MOL0     C31223   9.826   7.084   7.617 -0.8777 -1.2016  1.0578
  232MOL0     C31224   9.971   7.146   7.606  1.9980  0.0352 -0.1624
  232MOL0     C31225  10.056   7.126   7.728 -0.0680 -0.2316  0.5663
  232MOL0     C31226  10.179   7.208   7.731  0.1512 -0.2092  0.1912
  232MOL0     C31227  10.290   7.174   7.630  0.2506 -0.0966  0.2544
  232MOL0     C31228  10.424   7.241   7.614 -0.1851 -0.8809 -0.4055
  232MOL0     C31229  10.433   7.391   7.659 -0.2672 -0.7695  0.1406
  232MOL0    Cl31230  10.410   7.425   7.832 -0.1509  0.2322  0.3216
  232MOL0     C31231   9.946   7.021   7.183 -0.7527 -0.0330 -0.2635
  232MOL0     C31232   9.965   7.053   7.051 -0.0148 -0.1922 -0.0532
  232MOL0     O31233  10.084   7.121   6.801  0.1747  0.0550  0.1279
  232MOL0     C31234   9.843   7.279   6.592  0.1680  0.8469 -0.0028
  232MOL0     C31235   9.814   7.359   6.487 -0.8764  0.5745 -0.3885
  232MOL0     N31236   9.596   7.260   5.746 -0.0064 -0.1176 -0.1407
  232MOL0     N31237   9.572   7.190   5.644 -0.1151 -0.3895 -0.2862
  232MOL0     C31238   9.933   7.257   4.765  0.5268  0.0507  0.4848
  232MOL0     C31239   9.934   7.337   4.658  0.1333 -0.1154  0.3013
  232MOL0     C31240   9.717   7.501   4.272  0.5646  0.8269  0.2577
  232MOL0     C31241   9.837   7.522   4.209 -0.1024 -0.1123  0.6811
  232MOL0     C31242   9.837   7.544   4.065 -0.8330  0.5278 -0.3540
  232MOL0     C31243   9.728   7.526   3.991 -0.5714 -0.2126  0.1848
  232MOL0     O31244   9.759   7.533   3.854 -0.7110 -0.0450 -1.2197
  232MOL0     C31245   9.650   7.539   3.759 -0.5619 -0.6258  0.1329
  232MOL0     C31246   9.580   7.409   3.748  0.8109  0.8154 -0.6710
  232MOL0     C31247   9.456   7.430   3.668 -0.9741  0.5031 -0.0151
  232MOL0     C31248   9.380   7.300   3.630  0.2516  0.3368 -0.0071
  232MOL0     C31249   9.406   7.183   3.722 -0.0984 -0.8461 -0.1066
  232MOL0     C31250   9.424   7.085   3.792  0.4686  0.9394  0.3754
  232MOL0     C31251   9.608   7.523   4.056  0.7245 -0.5603  0.1160
  232MOL0     C31252   9.599   7.514   4.193  0.1084  0.0298  0.0746
  232MOL0     H31253   9.686   7.172   4.491  1.8588 -2.8759 -0.0499
  232MOL0     H31254   9.684   7.038   4.676  0.5853  0.7555 -0.5999
  232MOL0     H31255   9.792   6.904   4.993 -3.1545 -1.6336 -2.2928
  232MOL0     H31256   9.760   6.902   4.824  0.7531 -1.2540  0.6307
  232MOL0     H31257   9.941   6.754   4.912 -1.2297  0.0712 -1.2818
  232MOL0     H31258  10.007   6.869   4.789 -0.6368  2.2655  0.1026
  232MOL0     H31259  10.148   6.831   4.977 -3.0520 -2.0090 -3.6394
  232MOL0     H31260  10.092   7.006   4.983 -1.2958  1.4358  2.1864
  232MOL0     H31261   9.987   6.795   5.182  0.1518 -0.7668 -3.0500
  232MOL0     H31262  10.125   6.891   5.209 -1.8688 -0.6561  3.3285
  232MOL0     H31263  10.034   7.084   5.225  0.4944  1.0965 -0.8087
  232MOL0     H31264   9.900   7.067   5.134 -2.6220 -0.0468  1.7664
  232MOL0     H31265   9.789   6.898   5.309  0.0078 -2.4122  0.1759
  232MOL0     H31266   9.940   6.937   5.390 -0.3867  1.8546  0.2080
  232MOL0     H31267   9.876   7.168   5.418  1.4561 -1.5044 -0.8669
  232MOL0     H31268   9.740   7.146   5.314  0.0555  0.9848  1.0614
  232MOL0     H31269   9.753   6.948   5.534 -2.1785  1.0692  4.9224
  232MOL0     H31270   9.620   7.037   5.444  0.1415 -0.7714 -0.5113
  232MOL0     H31271   9.880   7.124   5.733 -1.7537 -2.8681  0.0693
  232MOL0     H31272   9.894   7.371   5.875 -0.8416  4.4377 -0.1655
  232MOL0     H31273   9.735   7.422   5.911 -0.1428 -0.3568  1.5899
  232MOL0     H31274   9.876   7.167   6.018 -1.0015  0.3044 -1.9949
  232MOL0     H31275   9.718   7.207   6.070  0.5156 -1.6521 -0.3500
  232MOL0     H31276   9.989   7.387   6.103 -0.2222  0.5081  0.0873
  232MOL0     H31277   9.918   7.269   6.216  1.9866  0.8998 -0.2221
  232MOL0     H31278   9.716   7.440   6.219 -1.4192  1.7449 -1.4956
  232MOL0     H31279   9.820   7.548   6.129  0.3871  0.5337  0.3486
  232MOL0     H31280  10.141   7.458   6.414  0.1777 -2.2295 -0.6294
  232MOL0     H31281  10.229   7.453   6.679  0.9963 -1.3281  2.9964
  232MOL0     H31282  10.250   7.294   6.739  2.2535  0.3101 -0.5724
  232MOL0     H31283  10.308   7.325   6.581 -0.3710 -0.8850 -0.0685
  232MOL0     H31284   9.656   7.198   6.998 -0.5235  0.5023  0.1789
  232MOL0     H31285   9.635   7.121   7.237 -1.1158  1.4218 -1.1540
  232MOL0     H31286   9.773   7.203   7.445 -1.0356  0.9285  2.1880
  232MOL0     H31287   9.659   7.087   7.482  0.1776  1.9505 -1.0357
  232MOL0     H31288   9.784   7.145   7.697 -0.2674 -1.0716  1.2815
  232MOL0     H31289   9.823   6.982   7.659 -0.9491 -0.9316  1.7260
  232MOL0     H31290   9.936   7.246   7.580  1.5610  0.9487  3.4145
  232MOL0     H31291  10.021   7.110   7.516 -3.4415 -3.2002 -2.3707
  232MOL0     H31292  10.003   7.161   7.817 -2.5622  1.6308 -1.4925
  232MOL0     H31293  10.088   7.023   7.746  0.7031 -0.0202  0.4167
  232MOL0     H31294  10.228   7.199   7.828  0.6118  1.0107  0.0935
  232MOL0     H31295  10.153   7.314   7.723 -0.6345 -0.4868 -1.5646
  232MOL0     H31296  10.320   7.069   7.629  0.1407 -0.2903  4.0039
  232MOL0     H31297  10.248   7.185   7.530  1.9433 -5.0334 -1.2578
  232MOL0     H31298  10.452   7.240   7.508  3.4598  1.2444  0.3966
  232MOL0     H31299  10.503   7.195   7.673 -0.8746 -3.0458 -1.0643
  232MOL0     H31300  10.357   7.443   7.600 -1.1178 -2.6893 -0.5485
  232MOL0     H31301  10.535   7.417   7.630 -1.3018 -0.1705 -3.3771
  232MOL0     H31302  10.036   6.998   7.239  1.3394  0.9432 -2.9942
  232MOL0     H31303  10.067   7.039   7.015 -0.8272 -0.7611 -2.3525
  232MOL0     H31304   9.751   7.241   6.637 -1.2610  0.8667 -2.7015
  232MOL0     H31305   9.712   7.388   6.461 -0.9976  0.5121  0.0094
  232MOL0     H31306   9.994   7.266   4.854  1.6631 -0.5161 -0.2120
  232MOL0     H31307  10.002   7.422   4.655 -1.4087  1.1497  0.0347
  232MOL0     H31308   9.930   7.532   4.264 -2.0057  1.6667  3.8443
  232MOL0     H31309   9.926   7.587   4.021  0.1958 -1.8446 -0.7193
  232MOL0     H31310   9.577   7.615   3.788 -2.6468 -2.8307  0.9607
  232MOL0     H31311   9.686   7.560   3.658 -2.4084 -0.9276 -0.6294
  232MOL0     H31312   9.553   7.365   3.844 -0.1080  1.2622 -0.7082
  232MOL0     H31313   9.641   7.334   3.695 -0.5716 -0.2090 -0.8806
  232MOL0     H31314   9.472   7.489   3.578  1.2924 -0.7062 -0.4755
  232MOL0     H31315   9.388   7.502   3.715 -1.2253  1.2149 -1.4223
  232MOL0     H31316   9.424   7.252   3.542  1.2363 -0.6390  0.9986
  232MOL0     H31317   9.272   7.309   3.618  0.0772 -1.1171  0.3387
  232MOL0     H31318   9.411   6.995   3.849  0.2229 -0.9056 -2.3880
  232MOL0     H31319   9.520   7.520   3.993  2.2318  1.4698 -2.2694
  232MOL0     H31320   9.509   7.496   4.252 -1.2771  1.5034 -1.4584
  233MOL0     O31321   2.575   2.794   5.234 -0.4324  0.6533 -0.2680
  233MOL0     C31322   2.462   2.834   5.216  0.3788  0.1957 -0.0124
  233MOL0     O31323   2.380   2.898   5.310 -0.5616 -0.3464  0.2325
  233MOL0     C31324   2.411   2.864   5.439 -0.5419  0.1517 -0.5162
  233MOL0     C31325   2.485   2.945   5.523  0.9954 -0.4859 -0.0618
  233MOL0     C31326   2.498   2.903   5.649 -0.0618 -0.6848  0.2809
  233MOL0     C31327   2.436   2.783   5.700 -0.3515  0.4823  0.9434
  233MOL0     O31328   2.464   2.730   5.821  0.2034 -0.0759 -0.1869
  233MOL0     C31329   2.530   2.808   5.924 -0.6109  0.3619 -0.2927
  233MOL0     C31330   2.683   2.786   5.907  0.5425  0.2602 -0.2374
  233MOL0     C31331   2.724   2.662   5.824  0.1029  0.3767  1.4403
  233MOL0     C31332   2.864   2.612   5.863  0.1470 -0.6452 -0.2630
  233MOL0     C31333   2.899   2.484   5.794 -0.2112  0.6203 -0.3170
  233MOL0     C31334   3.039   2.414   5.842  0.7370 -0.1062  0.1703
  233MOL0     C31335   3.075   2.290   5.748  0.3923 -1.0008 -0.5682
  233MOL0     C31336   3.224   2.249   5.755  0.2439 -0.7179 -0.2295
  233MOL0     N31337   3.241   2.112   5.711  0.7266 -0.2666  0.2377
  233MOL0     C31338   3.321   2.062   5.602  0.5591 -0.2865  0.0492
  233MOL0     C31339   3.282   1.930   5.595  0.6201 -0.6443  0.1161
  233MOL0     C31340   3.341   1.813   5.511  0.2367 -0.6213  0.1012
  233MOL0     C31341   3.411   1.865   5.388  0.4358  0.6462 -0.0622
  233MOL0     C31342   3.318   1.901   5.266 -0.3070 -0.3710 -0.6927
  233MOL0     C31343   3.249   2.036   5.270 -0.4154 -0.1299 -0.0277
  233MOL0     O31344   3.348   2.138   5.249  0.1714  0.0951  0.1928
  233MOL0     C31345   3.350   2.189   5.121 -0.0821  0.4984 -0.5571
  233MOL0     C31346   3.240   2.222   5.050 -0.0034  0.4211 -0.1255
  233MOL0     C31347   3.250   2.265   4.912 -1.0005  0.0445 -0.8057
  233MOL0     C31348   3.120   2.294   4.842 -0.3657 -0.4310  0.3491
  233MOL0     C31349   3.376   2.284   4.852  0.3423 -0.1142 -0.8075
  233MOL0     C31350   3.394   2.356   4.724  0.1004  0.0479  0.4508
  233MOL0     O31351   3.310   2.443   4.687 -0.7928 -0.7571  0.5765
  233MOL0     C31352   3.313   2.498   4.561 -0.1081  0.7613  0.8915
  233MOL0     C31353   3.297   2.637   4.553 -0.3264  0.1782 -0.4705
  233MOL0     C31354   3.289   2.699   4.430 -0.4717  0.0257  0.4539
  233MOL0     C31355   3.299   2.627   4.316 -0.3040  0.0891 -0.2927
  233MOL0     O31356   3.285   2.700   4.198 -0.4829  0.1615  0.6068
  233MOL0     C31357   3.388   2.668   4.096  0.7536 -0.3128  0.2728
  233MOL0     C31358   3.530   2.690   4.143 -0.1066 -1.3384  0.3046
  233MOL0     C31359   3.563   2.842   4.166 -0.4879  0.6506 -0.3750
  233MOL0     C31360   3.620   2.919   4.052 -1.2076  0.0866 -0.0669
  233MOL0     C31361   3.681   3.058   4.085 -0.1218  0.0777  0.6005
  233MOL0     C31362   3.727   3.130   3.961 -0.4147 -0.3589  0.0752
  233MOL0     C31363   3.854   3.086   3.903 -0.1493 -0.6143  0.8365
  233MOL0     C31364   3.897   3.177   3.789 -0.2976  0.1586  0.4260
  233MOL0    Cl31365   4.036   3.111   3.695 -0.3258  0.0176  0.4255
  233MOL0     C31366   3.315   2.487   4.323  0.3246 -0.2893  0.0325
  233MOL0     C31367   3.324   2.419   4.445 -0.4051 -0.7133 -0.1217
  233MOL0     O31368   3.488   2.312   4.657  0.5776 -0.5426 -0.3799
  233MOL0     C31369   3.488   2.258   4.940  0.0454 -0.8949 -0.8922
  233MOL0     C31370   3.471   2.205   5.067 -0.1639  0.6646  0.5700
  233MOL0     N31371   3.195   1.900   5.692 -0.3493  0.2451  0.2338
  233MOL0     N31372   3.173   2.007   5.764  0.0382 -0.1646 -0.2564
  233MOL0     C31373   2.360   2.707   5.623  0.4239  0.2930  0.8167
  233MOL0     C31374   2.352   2.752   5.495 -0.5302 -0.6205 -0.3814
  233MOL0     C31375   2.410   2.817   5.079  0.6631  0.1614 -0.7223
  233MOL0     C31376   2.303   2.900   5.046 -0.1018  0.6375  0.7357
  233MOL0     C31377   2.238   2.884   4.923 -0.1976  0.1666  0.1094
  233MOL0     C31378   2.290   2.794   4.828  0.5151 -0.4905 -0.3118
  233MOL0     O31379   2.212   2.773   4.716  0.9091 -0.1392 -0.0788
  233MOL0     C31380   2.219   2.655   4.637  0.0722  0.2916 -0.2358
  233MOL0     C31381   2.219   2.688   4.494  0.1640 -0.0939  0.0958
  233MOL0     C31382   2.341   2.771   4.446 -0.3433 -0.2050  0.1282
  233MOL0     C31383   2.352   2.783   4.301  0.3127 -0.4574 -0.7030
  233MOL0     C31384   2.495   2.810   4.273 -0.5750 -1.1817  0.4913
  233MOL0     C31385   2.621   2.823   4.247  0.1249 -0.3940 -0.0654
  233MOL0     C31386   2.393   2.711   4.859 -0.8080  1.3338 -0.2776
  233MOL0     C31387   2.464   2.725   4.984 -0.6661  0.2895 -0.0362
  233MOL0     H31388   2.547   3.031   5.499  2.0977 -1.1338  0.4113
  233MOL0     H31389   2.575   2.951   5.708 -0.0022  0.6156 -0.8049
  233MOL0     H31390   2.509   2.914   5.904 -0.9633 -0.3013 -4.4179
  233MOL0     H31391   2.490   2.779   6.022 -3.5211 -0.8207 -1.6832
  233MOL0     H31392   2.741   2.869   5.865  0.4705  0.3432 -0.1740
  233MOL0     H31393   2.712   2.768   6.011 -1.6598 -1.4604  0.1487
  233MOL0     H31394   2.642   2.590   5.822 -2.7533  3.3699 -0.7938
  233MOL0     H31395   2.731   2.696   5.720 -2.1933  0.2069  1.1666
  233MOL0     H31396   2.929   2.696   5.837  0.3074 -1.0029 -1.0327
  233MOL0     H31397   2.880   2.600   5.971  1.9306 -0.3633 -0.4502
  233MOL0     H31398   2.812   2.419   5.808 -0.5962  1.3803  1.0019
  233MOL0     H31399   2.909   2.495   5.686  0.9813 -0.2103 -0.3053
  233MOL0     H31400   3.119   2.487   5.823 -1.2151  1.8602 -0.8424
  233MOL0     H31401   3.039   2.376   5.945  1.3271 -2.2296 -0.5694
  233MOL0     H31402   3.007   2.206   5.762 -0.8827  0.4761  3.3077
  233MOL0     H31403   3.066   2.328   5.645 -0.2152  1.1216  0.2217
  233MOL0     H31404   3.245   2.262   5.861 -1.5993  0.2173  0.0571
  233MOL0     H31405   3.298   2.309   5.701 -0.5992 -0.1894 -0.8398
  233MOL0     H31406   3.390   2.115   5.537  0.9190  0.9670  1.4111
  233MOL0     H31407   3.419   1.754   5.558  1.2981  0.1530 -0.6386
  233MOL0     H31408   3.260   1.743   5.489 -2.8699  2.6071  0.3830
  233MOL0     H31409   3.473   1.783   5.349 -0.8436 -0.0953 -0.6065
  233MOL0     H31410   3.474   1.943   5.431 -0.9490  0.2200  2.9247
  233MOL0     H31411   3.242   1.823   5.260 -1.6789  1.0059 -2.4117
  233MOL0     H31412   3.370   1.904   5.170 -1.1605 -0.3501 -1.1613
  233MOL0     H31413   3.194   2.041   5.364 -3.5697 -0.9503 -1.6700
  233MOL0     H31414   3.173   2.031   5.191  0.6385 -1.6058 -0.9978
  233MOL0     H31415   3.139   2.202   5.086  0.9151 -2.7106  1.0907
  233MOL0     H31416   3.140   2.289   4.734  1.7588 -0.2442  0.6797
  233MOL0     H31417   3.051   2.212   4.861  0.2014 -0.2676  3.7367
  233MOL0     H31418   3.061   2.385   4.859 -3.8680 -2.2562 -1.1393
  233MOL0     H31419   3.284   2.682   4.651 -0.7753 -1.4865  0.2697
  233MOL0     H31420   3.272   2.802   4.398 -1.7216 -0.2829  0.0771
  233MOL0     H31421   3.370   2.564   4.069 -0.3038  0.5543 -2.7585
  233MOL0     H31422   3.384   2.719   4.000 -2.9831 -3.2971 -1.3907
  233MOL0     H31423   3.549   2.623   4.227  3.3644  0.1493  0.8819
  233MOL0     H31424   3.603   2.664   4.066  0.1964 -2.5402  0.9695
  233MOL0     H31425   3.633   2.866   4.247 -0.3200 -0.4046 -0.1925
  233MOL0     H31426   3.478   2.895   4.209  1.0480  0.4798  3.2446
  233MOL0     H31427   3.705   2.861   4.015  0.0345  1.3307  0.7709
  233MOL0     H31428   3.551   2.937   3.968 -0.3489 -2.0338 -1.3170
  233MOL0     H31429   3.769   3.046   4.149  1.5972 -1.8391 -1.9190
  233MOL0     H31430   3.610   3.118   4.143 -1.8799 -0.2986 -1.0506
  233MOL0     H31431   3.643   3.121   3.892 -0.9484 -2.5435  0.9318
  233MOL0     H31432   3.740   3.236   3.986  1.7510 -0.5904  0.1744
  233MOL0     H31433   3.844   2.987   3.857  1.0870  0.0480 -0.9654
  233MOL0     H31434   3.940   3.074   3.969  0.7656 -2.8524 -0.6434
  233MOL0     H31435   3.928   3.277   3.821  0.4429 -0.0814  0.4659
  233MOL0     H31436   3.809   3.201   3.729  0.2262 -1.6874 -1.1755
  233MOL0     H31437   3.322   2.429   4.231 -0.9910  0.7487 -0.7678
  233MOL0     H31438   3.365   2.319   4.441  2.0528  0.2159 -3.7301
  233MOL0     H31439   3.586   2.285   4.904  0.6046 -0.9099  0.5526
  233MOL0     H31440   3.558   2.174   5.124 -1.2663 -1.8072  1.0321
  233MOL0     H31441   2.302   2.624   5.661  0.2134 -0.3890 -0.8756
  233MOL0     H31442   2.303   2.700   5.414 -0.8909 -0.0361 -0.5460
  233MOL0     H31443   2.252   2.967   5.114  0.5528  1.2319  0.6477
  233MOL0     H31444   2.148   2.941   4.902 -0.7662 -0.7636 -0.0633
  233MOL0     H31445   2.301   2.586   4.661  0.4017  1.1651  1.2807
  233MOL0     H31446   2.127   2.601   4.661 -0.9651  0.3918 -3.4938
  233MOL0     H31447   2.124   2.734   4.465  0.7546  0.5716 -0.8510
  233MOL0     H31448   2.218   2.588   4.449 -0.0107 -0.6362  1.2700
  233MOL0     H31449   2.436   2.738   4.492  0.2803  4.5444  2.8879
  233MOL0     H31450   2.331   2.875   4.476 -0.4085  0.7320 -2.8469
  233MOL0     H31451   2.299   2.873   4.268  0.1564 -1.1029 -2.3303
  233MOL0     H31452   2.311   2.691   4.257  0.2100  0.1670 -1.9661
  233MOL0     H31453   2.718   2.859   4.222 -0.2847 -0.9908 -2.7933
  233MOL0     H31454   2.426   2.633   4.792 -2.5579 -1.2530  1.6756
  233MOL0     H31455   2.553   2.666   5.001 -1.1304  0.1693  2.3170
  234MOL0     O31456   0.571  10.330   1.665  0.0199 -0.3703  0.2277
  234MOL0     C31457   0.524  10.340   1.554 -0.2351 -0.0835 -0.6014
  234MOL0     O31458   0.408  10.274   1.517 -0.0981 -0.7249  0.3614
  234MOL0     C31459   0.364  10.159   1.574  0.5269 -0.5335  0.6833
  234MOL0     C31460   0.439  10.061   1.636  0.0024 -0.7287 -0.1386
  234MOL0     C31461   0.386   9.954   1.692  0.5759 -0.3218 -0.6174
  234MOL0     C31462   0.250   9.926   1.694 -0.6372  0.5983  0.6246
  234MOL0     O31463   0.190   9.821   1.765 -0.2437 -0.1386  0.2888
  234MOL0     C31464   0.090   9.751   1.690  0.1100 -0.3093  0.3320
  234MOL0     C31465   0.133   9.689   1.561  0.6643  0.2450  0.6572
  234MOL0     C31466   0.253   9.591   1.576  0.7415 -1.2039 -0.1767
  234MOL0     C31467   0.251   9.494   1.695  0.4332  0.4076 -0.4514
  234MOL0     C31468   0.384   9.417   1.703  0.4153  0.9084 -0.9266
  234MOL0     C31469   0.374   9.314   1.815 -1.1526 -0.9476 -0.5764
  234MOL0     C31470   0.506   9.232   1.804  0.5549 -0.3943 -0.4643
  234MOL0     C31471   0.498   9.088   1.875 -0.2465  0.5383  0.4029
  234MOL0     N31472   0.613   9.004   1.812 -1.3849 -0.1771 -0.5091
  234MOL0     C31473   0.745   9.046   1.804  0.6890  0.2037  0.2879
  234MOL0     C31474   0.783   8.988   1.692 -0.9444  0.6688 -0.4304
  234MOL0     C31475   0.923   9.014   1.630 -0.2543 -0.1030 -0.0342
  234MOL0     C31476   1.037   8.935   1.692 -0.7943 -0.1397  0.2058
  234MOL0     C31477   1.019   8.786   1.652 -0.2141  0.5405  0.0081
  234MOL0     C31478   1.162   8.715   1.649  0.1589  1.3187 -0.2486
  234MOL0     O31479   1.160   8.572   1.626  0.2087 -0.5317 -0.1543
  234MOL0     C31480   1.155   8.544   1.492  0.4918  0.2523 -0.6526
  234MOL0     C31481   1.272   8.551   1.416 -0.4723 -0.2873  0.9051
  234MOL0     C31482   1.272   8.512   1.284 -0.5291  0.0411 -0.3150
  234MOL0     C31483   1.405   8.501   1.226 -0.4241 -0.2204 -0.0456
  234MOL0     C31484   1.142   8.476   1.216 -0.6800 -1.3789 -0.5806
  234MOL0     C31485   1.133   8.451   1.074  1.1426 -0.4658  0.4462
  234MOL0     O31486   1.014   8.486   1.015 -0.2663  0.4417 -0.1737
  234MOL0     C31487   1.001   8.483   0.881 -0.4723  1.2186  0.5973
  234MOL0     C31488   0.925   8.376   0.826  0.2535  0.2316  0.4618
  234MOL0     C31489   0.917   8.350   0.688 -0.0313  0.4887  1.0873
  234MOL0     C31490   0.969   8.445   0.603 -0.5294 -0.1726  0.4898
  234MOL0     O31491   0.958   8.438   0.466 -0.0239 -0.0452 -0.2112
  234MOL0     C31492   0.925   8.328   0.388  0.0035 -0.1136 -0.0551
  234MOL0     C31493   0.950   8.381   0.245 -0.5155 -0.1716 -0.7703
  234MOL0     C31494   0.887   8.285   0.140 -0.0004  0.7115 -0.3846
  234MOL0     C31495   0.949   8.143   0.150  0.9084 -0.0619 -0.2265
  234MOL0     C31496   0.901   8.023   0.065  0.2492 -0.3354 -0.3195
  234MOL0     C31497   0.971   7.990  -0.061 -0.1577 -0.3263  0.2505
  234MOL0     C31498   0.916   7.867  -0.138  0.2861 -0.2412  0.8767
  234MOL0     C31499   0.996   7.857  -0.268 -1.5233  0.9182  1.0206
  234MOL0    Cl31500   1.171   7.805  -0.217 -0.4444 -0.4134  0.1412
  234MOL0     C31501   1.034   8.555   0.654 -0.1165  0.8083 -0.5879
  234MOL0     C31502   1.052   8.578   0.795  0.4851 -0.1026  0.1705
  234MOL0     O31503   1.227   8.407   1.010 -0.5143 -0.4080 -0.1589
  234MOL0     C31504   1.022   8.475   1.301  1.0710 -0.7147  0.2454
  234MOL0     C31505   1.032   8.514   1.434 -0.4794 -1.2479 -0.0663
  234MOL0     N31506   0.686   8.904   1.638 -0.2226  0.1923 -0.5068
  234MOL0     N31507   0.582   8.920   1.717  0.5087  0.7708 -0.0369
  234MOL0     C31508   0.172  10.020   1.623 -0.4307  0.6520 -0.4744
  234MOL0     C31509   0.224  10.131   1.564 -0.5815 -0.7204 -0.6522
  234MOL0     C31510   0.584  10.433   1.461  0.0542 -0.5286 -0.3439
  234MOL0     C31511   0.516  10.502   1.351 -0.5794  0.3272  0.5385
  234MOL0     C31512   0.596  10.591   1.267 -1.3626 -0.4971  0.6013
  234MOL0     C31513   0.732  10.625   1.301  0.8824 -0.2345 -0.5904
  234MOL0     O31514   0.819  10.719   1.244  0.8395 -0.8322  0.1926
  234MOL0     C31515   0.779  10.779   1.114  0.2323  0.2390  0.6263
  234MOL0     C31516   0.864  10.904   1.085 -0.4123  0.7863 -0.4645
  234MOL0     C31517   0.820  11.011   1.191  0.4078 -0.3122 -0.4952
  234MOL0     C31518   0.863  11.149   1.134  0.1039  0.1021  0.4757
  234MOL0     C31519   0.779  11.255   1.192  0.3699  0.0411  0.0207
  234MOL0     C31520   0.703  11.320   1.266  0.3640  0.1220 -0.0627
  234MOL0     C31521   0.788  10.550   1.402  0.4470 -0.0982 -0.6832
  234MOL0     C31522   0.721  10.461   1.485  0.1249  0.7741  0.0335
  234MOL0     H31523   0.548  10.064   1.632  0.3318 -1.1947  4.3129
  234MOL0     H31524   0.455   9.891   1.749 -0.1226  0.7758  1.5554
  234MOL0     H31525   0.045   9.665   1.740  0.4880 -0.0377  1.1461
  234MOL0     H31526   0.012   9.826   1.677  3.7697  3.9144  0.5056
  234MOL0     H31527   0.057   9.633   1.506  4.4724 -1.0359 -4.0752
  234MOL0     H31528   0.173   9.760   1.488  2.9377 -2.1039 -0.5614
  234MOL0     H31529   0.259   9.530   1.486 -1.4887 -0.9215 -0.5967
  234MOL0     H31530   0.340   9.657   1.577  0.6755 -1.1006 -0.6827
  234MOL0     H31531   0.240   9.548   1.789  0.7586  2.9456 -1.7762
  234MOL0     H31532   0.175   9.417   1.679  2.7432 -2.5677  1.5727
  234MOL0     H31533   0.391   9.354   1.614  0.1665 -0.1263 -0.2379
  234MOL0     H31534   0.477   9.473   1.716  1.6516 -1.6129  3.1221
  234MOL0     H31535   0.368   9.356   1.916 -1.4338 -1.4911 -0.3653
  234MOL0     H31536   0.282   9.256   1.818 -1.2252 -0.8123  0.0249
  234MOL0     H31537   0.542   9.230   1.700  1.4467  0.9574 -0.2189
  234MOL0     H31538   0.584   9.289   1.856  2.0505 -2.0242 -0.8057
  234MOL0     H31539   0.402   9.040   1.853 -0.9582  1.1507  2.0344
  234MOL0     H31540   0.500   9.110   1.982  2.7779 -0.6018  0.6919
  234MOL0     H31541   0.798   9.109   1.875  0.9403 -0.0415  0.3247
  234MOL0     H31542   0.900   8.990   1.526 -5.5734  1.6648  0.4289
  234MOL0     H31543   0.948   9.120   1.642 -1.6071  0.0007  2.4618
  234MOL0     H31544   1.032   8.943   1.801 -2.1666 -1.4584  0.2744
  234MOL0     H31545   1.127   8.988   1.661 -0.1855 -1.0222  0.4395
  234MOL0     H31546   0.981   8.780   1.550 -1.4383  0.2389  0.4694
  234MOL0     H31547   0.953   8.739   1.726  4.3636 -2.9716  2.4431
  234MOL0     H31548   1.220   8.731   1.740  0.2736  2.8136 -0.5625
  234MOL0     H31549   1.216   8.771   1.571 -1.2417  0.6445 -1.7713
  234MOL0     H31550   1.365   8.571   1.468  0.1636  3.8349 -1.3619
  234MOL0     H31551   1.478   8.515   1.305 -0.7266 -1.9773  0.5935
  234MOL0     H31552   1.417   8.395   1.201  1.1426 -0.1907  0.5267
  234MOL0     H31553   1.417   8.556   1.132 -0.8070 -2.4631 -1.4907
  234MOL0     H31554   0.852   8.316   0.880 -1.4778 -0.5993 -2.5820
  234MOL0     H31555   0.850   8.275   0.645  0.8466  1.2731 -1.9216
  234MOL0     H31556   0.994   8.248   0.417  2.7235  3.0316  3.2624
  234MOL0     H31557   0.819   8.308   0.409 -0.9876  3.3006 -1.0746
  234MOL0     H31558   0.914   8.484   0.232 -2.8935 -0.6106  1.4346
  234MOL0     H31559   1.058   8.379   0.232 -0.4581  0.6613 -0.4920
  234MOL0     H31560   0.911   8.326   0.041  0.1402  4.3179  0.9933
  234MOL0     H31561   0.779   8.289   0.157  0.0895 -1.4336  1.0077
  234MOL0     H31562   1.057   8.155   0.135  1.4113 -0.1198  2.6306
  234MOL0     H31563   0.938   8.117   0.256 -0.5648 -1.1092 -0.5969
  234MOL0     H31564   0.794   8.039   0.044  0.6500  1.4245 -1.2065
  234MOL0     H31565   0.910   7.937   0.132 -2.3851  0.0764  0.7121
  234MOL0     H31566   0.968   8.082  -0.119 -1.8772 -0.4615  0.0652
  234MOL0     H31567   1.067   7.956  -0.021  0.5467 -1.2565 -2.0708
  234MOL0     H31568   0.817   7.897  -0.173  1.4462  0.3788 -2.0967
  234MOL0     H31569   0.922   7.773  -0.081 -0.1280  1.0634  3.2021
  234MOL0     H31570   0.998   7.939  -0.340 -1.0288 -0.0718 -0.1370
  234MOL0     H31571   0.946   7.779  -0.327  0.8267  0.5763 -0.6590
  234MOL0     H31572   1.085   8.625   0.589  3.9944 -0.7176  0.6628
  234MOL0     H31573   1.099   8.670   0.827 -1.3594  1.2002 -0.7111
  234MOL0     H31574   0.928   8.438   1.261  1.1745 -1.7023  0.8938
  234MOL0     H31575   0.950   8.524   1.505 -0.3951 -0.4702 -0.0636
  234MOL0     H31576   0.064  10.020   1.634 -0.3166  1.2103  0.8198
  234MOL0     H31577   0.162  10.208   1.519  0.2731 -1.9311 -4.2268
  234MOL0     H31578   0.411  10.492   1.324 -0.6545  1.2011  0.4752
  234MOL0     H31579   0.550  10.631   1.176 -0.2523  0.3744  0.4055
  234MOL0     H31580   0.812  10.712   1.034 -1.3911  2.8778 -2.4791
  234MOL0     H31581   0.676  10.813   1.108  0.5428  1.2294  0.7348
  234MOL0     H31582   0.828  10.934   0.986 -2.7791  3.2890  1.0155
  234MOL0     H31583   0.970  10.878   1.090 -0.3227 -0.4453 -4.7017
  234MOL0     H31584   0.860  11.006   1.293 -0.2935  0.6410 -0.1707
  234MOL0     H31585   0.712  11.002   1.206  0.5952 -5.1940 -0.3527
  234MOL0     H31586   0.851  11.132   1.026 -1.7766 -0.1559  0.6947
  234MOL0     H31587   0.966  11.159   1.167  0.5263  1.8046 -1.2000
  234MOL0     H31588   0.632  11.369   1.330  0.3931  1.8435 -1.2768
  234MOL0     H31589   0.896  10.556   1.407  0.3286  2.3412  2.4517
  234MOL0     H31590   0.767  10.403   1.565 -2.1909 -1.5649 -0.1823
  235MOL0     O31591   4.766   0.987   7.343  0.2969  0.6199 -0.6022
  235MOL0     C31592   4.647   0.992   7.325  0.5216  1.2721 -0.9707
  235MOL0     O31593   4.551   1.058   7.386 -0.1726 -0.7917 -0.2254
  235MOL0     C31594   4.577   1.154   7.473 -0.4097  0.0653 -0.4311
  235MOL0     C31595   4.679   1.257   7.471 -0.0269  0.0940 -0.7243
  235MOL0     C31596   4.694   1.349   7.565  0.0384  0.4167  0.3803
  235MOL0     C31597   4.597   1.365   7.657  0.7813 -0.1354 -0.1691
  235MOL0     O31598   4.592   1.465   7.750 -0.7783 -0.9586  0.4364
  235MOL0     C31599   4.590   1.598   7.691  0.1290 -0.3506  0.2270
  235MOL0     C31600   4.453   1.655   7.703 -0.7603  0.1186 -0.7986
  235MOL0     C31601   4.346   1.568   7.618  0.4973  0.3510 -0.2545
  235MOL0     C31602   4.208   1.644   7.610 -0.1204  0.7237  0.2750
  235MOL0     C31603   4.122   1.618   7.729  0.2108 -0.3404  0.2154
  235MOL0     C31604   4.002   1.706   7.720  0.5094 -1.1660  0.1819
  235MOL0     C31605   3.914   1.698   7.840 -0.2659 -0.5479 -0.4219
  235MOL0     C31606   3.764   1.684   7.811 -0.3783  0.0282 -0.6829
  235MOL0     N31607   3.663   1.693   7.915  0.5402 -1.3561 -0.4740
  235MOL0     C31608   3.656   1.787   8.016 -0.3176  0.3400 -0.0961
  235MOL0     C31609   3.529   1.787   8.054 -0.0089 -0.6274 -0.5414
  235MOL0     C31610   3.473   1.868   8.166 -0.0377 -1.4002  0.4449
  235MOL0     C31611   3.537   1.864   8.305  0.5712 -0.3793 -0.5577
  235MOL0     C31612   3.477   1.754   8.395 -0.1825  0.3950 -0.9629
  235MOL0     C31613   3.529   1.623   8.333 -0.2984 -0.0345 -0.2348
  235MOL0     O31614   3.539   1.518   8.437 -0.0262  0.0644  0.6549
  235MOL0     C31615   3.541   1.389   8.406 -0.9966 -0.7782  0.9385
  235MOL0     C31616   3.524   1.308   8.509  0.1800  0.1054  0.1375
  235MOL0     C31617   3.497   1.171   8.485  1.0940 -0.3921 -0.0731
  235MOL0     C31618   3.464   1.097   8.611 -0.3633 -0.6181 -0.4156
  235MOL0     C31619   3.503   1.122   8.349 -0.2406  0.4008 -0.1950
  235MOL0     C31620   3.486   0.977   8.302 -0.7087  1.2711  0.1945
  235MOL0     O31621   3.489   0.943   8.163 -0.0211  0.5973 -0.4168
  235MOL0     C31622   3.482   0.814   8.118  0.4582  0.7134  0.2044
  235MOL0     C31623   3.405   0.706   8.177  0.5240  0.3021  0.7008
  235MOL0     C31624   3.419   0.575   8.137 -0.0646  0.3185 -0.1351
  235MOL0     C31625   3.517   0.538   8.048  0.0676  0.0748  0.2627
  235MOL0     O31626   3.548   0.407   8.011  0.3104  0.0937 -0.2336
  235MOL0     C31627   3.550   0.309   8.117 -0.7740  0.2595  0.6933
  235MOL0     C31628   3.598   0.184   8.056  0.4411 -0.6889  0.2425
  235MOL0     C31629   3.483   0.116   7.974 -0.3142  0.4449 -0.5578
  235MOL0     C31630   3.529  -0.027   7.939  0.0964 -0.3187  0.4198
  235MOL0     C31631   3.412  -0.120   7.886 -0.8324 -0.4824 -0.4937
  235MOL0     C31632   3.460  -0.243   7.804  0.3276  0.7709 -0.2511
  235MOL0     C31633   3.463  -0.367   7.894 -0.5645  0.7231 -0.4457
  235MOL0     C31634   3.492  -0.510   7.832 -0.2514  0.2097  0.5159
  235MOL0    Cl31635   3.657  -0.485   7.747 -0.1090  0.0629  0.7837
  235MOL0     C31636   3.601   0.639   7.993  0.0549 -0.5035  0.2226
  235MOL0     C31637   3.579   0.772   8.030 -0.0422 -0.5640  0.4878
  235MOL0     O31638   3.476   0.896   8.392 -0.3531  0.2704  0.6786
  235MOL0     C31639   3.536   1.209   8.240  0.3150 -1.2602 -0.8223
  235MOL0     C31640   3.538   1.348   8.270 -0.0814 -0.5380 -0.2744
  235MOL0     N31641   3.460   1.683   7.984  0.4504 -0.0240  0.5896
  235MOL0     N31642   3.538   1.632   7.901 -0.1136  0.5483  0.0480
  235MOL0     C31643   4.503   1.259   7.675  0.6803 -0.2509  0.2076
  235MOL0     C31644   4.499   1.154   7.587  0.3133  0.3245 -0.5307
  235MOL0     C31645   4.608   0.896   7.208 -0.4620 -0.4995 -0.4443
  235MOL0     C31646   4.703   0.818   7.141  0.0469  0.4457 -0.4268
  235MOL0     C31647   4.666   0.738   7.035  0.2916  0.1760 -0.1160
  235MOL0     C31648   4.530   0.729   7.003 -0.5190 -0.6186 -0.6425
  235MOL0     O31649   4.492   0.674   6.889 -0.6954  0.3278 -0.6612
  235MOL0     C31650   4.362   0.683   6.821 -0.6068 -0.2654 -0.3435
  235MOL0     C31651   4.269   0.560   6.873  0.6321 -0.1769 -0.3097
  235MOL0     C31652   4.146   0.533   6.784 -0.8659 -0.0484 -0.0709
  235MOL0     C31653   4.123   0.384   6.778 -0.1557  0.1839  0.1389
  235MOL0     C31654   4.019   0.335   6.693  0.1232  0.0729 -0.8372
  235MOL0     C31655   3.936   0.287   6.618  0.7890  0.1328  0.2969
  235MOL0     C31656   4.436   0.784   7.086 -1.1114 -0.1107 -0.4721
  235MOL0     C31657   4.472   0.870   7.182  0.6178 -0.6037 -0.9751
  235MOL0     H31658   4.751   1.247   7.390  2.7133  0.6699  1.5133
  235MOL0     H31659   4.783   1.410   7.573 -0.5571  1.0680  2.4786
  235MOL0     H31660   4.639   1.675   7.751 -0.5553 -0.5200  1.0191
  235MOL0     H31661   4.617   1.609   7.586 -0.4531  1.3998  0.2247
  235MOL0     H31662   4.427   1.686   7.805 -2.0188  4.4283 -2.2172
  235MOL0     H31663   4.461   1.747   7.645  0.8664 -0.3861 -1.4244
  235MOL0     H31664   4.380   1.541   7.518 -1.5181 -0.4428 -0.7902
  235MOL0     H31665   4.332   1.472   7.669  0.2754  0.5087 -0.0170
  235MOL0     H31666   4.224   1.750   7.587  0.2515  0.5830 -0.1306
  235MOL0     H31667   4.156   1.602   7.524 -1.1588  0.9791  0.7618
  235MOL0     H31668   4.083   1.516   7.735  0.8436 -0.5855  0.1418
  235MOL0     H31669   4.184   1.644   7.815 -1.0166 -1.1025  1.3827
  235MOL0     H31670   4.034   1.809   7.705  0.6351 -1.3634 -1.0545
  235MOL0     H31671   3.953   1.681   7.625 -1.7879  1.2301  0.6311
  235MOL0     H31672   3.944   1.615   7.904 -2.5026 -0.1079  1.3092
  235MOL0     H31673   3.916   1.790   7.899 -6.1078  0.4653 -1.1130
  235MOL0     H31674   3.757   1.590   7.756  0.5608 -0.5023  0.0756
  235MOL0     H31675   3.732   1.754   7.733 -2.2610 -1.8432 -1.6653
  235MOL0     H31676   3.735   1.846   8.061 -2.0085  1.2812  1.7962
  235MOL0     H31677   3.473   1.975   8.140  1.2838 -0.5947  3.3746
  235MOL0     H31678   3.369   1.838   8.182  0.0256 -1.9538 -0.1127
  235MOL0     H31679   3.495   1.950   8.359 -5.1834 -3.4109  0.6442
  235MOL0     H31680   3.646   1.869   8.296  0.6883 -0.5511  0.6026
  235MOL0     H31681   3.369   1.763   8.382 -0.9755 -1.5128  2.8864
  235MOL0     H31682   3.516   1.771   8.496 -0.0860  1.3922 -1.1592
  235MOL0     H31683   3.631   1.638   8.295 -0.5220  1.9478 -0.1149
  235MOL0     H31684   3.452   1.590   8.263  0.0136  0.8628 -1.0202
  235MOL0     H31685   3.514   1.361   8.604  2.4982  1.4312 -0.2662
  235MOL0     H31686   3.365   1.052   8.606  0.1816 -2.0154  0.6659
  235MOL0     H31687   3.533   1.014   8.631 -0.0890  0.2762  2.9135
  235MOL0     H31688   3.463   1.163   8.698  2.0304  0.8007 -1.3524
  235MOL0     H31689   3.324   0.729   8.246  0.2798  0.9493  0.2044
  235MOL0     H31690   3.348   0.504   8.178  1.7925 -3.4645 -2.8371
  235MOL0     H31691   3.626   0.340   8.189 -1.5260  1.0958  1.1575
  235MOL0     H31692   3.455   0.299   8.171 -1.1789  0.8645  0.1154
  235MOL0     H31693   3.677   0.205   7.984 -1.1116 -1.0215 -1.6384
  235MOL0     H31694   3.622   0.103   8.126 -2.9487 -0.2564  2.1341
  235MOL0     H31695   3.470   0.162   7.875 -3.7664  0.9085 -0.0175
  235MOL0     H31696   3.385   0.133   8.019  0.2833 -0.7432  1.2741
  235MOL0     H31697   3.590  -0.014   7.849  1.3640  0.1554  1.3372
  235MOL0     H31698   3.581  -0.071   8.024  1.9719 -0.3595 -0.6942
  235MOL0     H31699   3.340  -0.067   7.823  0.7741  1.2975 -0.9643
  235MOL0     H31700   3.348  -0.143   7.971  0.1840 -3.0676 -0.3359
  235MOL0     H31701   3.391  -0.267   7.723 -0.4029  2.9006 -0.3141
  235MOL0     H31702   3.556  -0.229   7.752  0.7566 -2.5336 -0.5989
  235MOL0     H31703   3.370  -0.380   7.949 -0.4302 -3.8500 -0.9517
  235MOL0     H31704   3.535  -0.367   7.977 -0.8980  0.5031 -0.1538
  235MOL0     H31705   3.419  -0.538   7.756  0.6262  1.6176 -0.9221
  235MOL0     H31706   3.498  -0.582   7.914 -2.3255  1.3818  1.7795
  235MOL0     H31707   3.691   0.616   7.936  1.3892  1.5842  1.3962
  235MOL0     H31708   3.641   0.848   7.984 -0.3964 -0.1846  0.6354
  235MOL0     H31709   3.540   1.177   8.137 -1.1326 -0.7259 -1.0759
  235MOL0     H31710   3.554   1.421   8.191 -1.8307 -0.8305 -0.9433
  235MOL0     H31711   4.425   1.265   7.751  0.0852  2.1344 -0.5197
  235MOL0     H31712   4.431   1.070   7.593  0.8932 -0.1060 -0.0630
  235MOL0     H31713   4.807   0.828   7.169  0.2283 -3.1547  0.6490
  235MOL0     H31714   4.745   0.696   6.973  1.4043  1.3970  0.4215
  235MOL0     H31715   4.319   0.779   6.848 -0.2982 -0.2101 -0.0429
  235MOL0     H31716   4.384   0.668   6.715  0.8146 -1.6472  0.0860
  235MOL0     H31717   4.238   0.587   6.974  1.6919  0.6917 -0.1988
  235MOL0     H31718   4.325   0.466   6.877  1.7317  0.5163  1.7780
  235MOL0     H31719   4.159   0.566   6.680 -0.8792  0.4666  0.0880
  235MOL0     H31720   4.058   0.579   6.830 -0.4471  1.3844 -0.6469
  235MOL0     H31721   4.097   0.341   6.875  0.6565  1.5860  1.0151
  235MOL0     H31722   4.213   0.336   6.740  0.5474  0.6180  1.2079
  235MOL0     H31723   3.866   0.237   6.555 -1.7586  1.2015  2.0872
  235MOL0     H31724   4.330   0.764   7.079 -1.2851  0.1198  1.0464
  235MOL0     H31725   4.389   0.916   7.234  2.6261 -0.0379  2.0114
  236MOL0     O31726   6.286   6.834  11.499  0.1495  0.6211 -0.3991
  236MOL0     C31727   6.349   6.765  11.579  0.2070  0.0528  0.1663
  236MOL0     O31728   6.429   6.662  11.550  0.0582  0.7694 -0.0339
  236MOL0     C31729   6.490   6.675  11.422 -0.0657  0.9317 -0.3128
  236MOL0     C31730   6.436   6.601  11.316 -0.6230 -0.7535  0.6666
  236MOL0     C31731   6.482   6.591  11.185  0.5699 -0.0193 -0.5855
  236MOL0     C31732   6.593   6.665  11.170  0.1427 -0.2341  0.4349
  236MOL0     O31733   6.638   6.661  11.041 -0.1286  0.4818 -0.2017
  236MOL0     C31734   6.594   6.758  10.946  1.1256  0.2803  0.1286
  236MOL0     C31735   6.667   6.743  10.814 -0.8611  0.0234 -0.6318
  236MOL0     C31736   6.654   6.608  10.744  0.7921  0.7518  0.1984
  236MOL0     C31737   6.755   6.588  10.617  1.1814  0.2688 -0.0484
  236MOL0     C31738   6.903   6.602  10.658  0.2411  0.8073 -0.2893
  236MOL0     C31739   6.988   6.568  10.529 -0.7831 -0.0949  0.5196
  236MOL0     C31740   7.131   6.551  10.557 -0.0768  0.2255 -0.4818
  236MOL0     C31741   7.220   6.553  10.434  0.5346 -0.2245  1.4037
  236MOL0     N31742   7.358   6.517  10.470 -0.0756  0.2484 -0.6913
  236MOL0     C31743   7.413   6.386  10.479  0.1888  0.3393  0.1890
  236MOL0     C31744   7.529   6.411  10.540 -0.5366  0.5621 -0.7282
  236MOL0     C31745   7.624   6.302  10.588 -1.1434 -0.2466 -0.8577
  236MOL0     C31746   7.610   6.286  10.737 -0.0685 -0.0091 -0.4654
  236MOL0     C31747   7.462   6.242  10.761 -0.1928  0.7253 -0.4820
  236MOL0     C31748   7.441   6.227  10.908 -0.0375  0.5399 -1.0506
  236MOL0     O31749   7.304   6.183  10.927 -0.3006  0.6450  0.3443
  236MOL0     C31750   7.262   6.052  10.893 -0.4503  0.2463 -0.7695
  236MOL0     C31751   7.347   5.944  10.869 -0.8840  0.0233 -0.8190
  236MOL0     C31752   7.301   5.815  10.850 -1.0635  1.0374  0.7417
  236MOL0     C31753   7.397   5.702  10.862 -0.1286 -0.5469  0.8267
  236MOL0     C31754   7.161   5.790  10.840  0.3755  0.4627 -0.0759
  236MOL0     C31755   7.087   5.662  10.822 -0.1881  0.9077  0.0518
  236MOL0     O31756   6.952   5.669  10.800 -0.2167 -0.1837 -0.4351
  236MOL0     C31757   6.877   5.559  10.786  0.3798 -0.6280 -0.4774
  236MOL0     C31758   6.840   5.483  10.900  1.2169 -0.5949 -0.3481
  236MOL0     C31759   6.751   5.380  10.910 -0.7969  0.1260 -0.7369
  236MOL0     C31760   6.688   5.343  10.793  0.4833 -0.2163  0.3914
  236MOL0     O31761   6.613   5.229  10.797  0.3913  0.4719  0.2055
  236MOL0     C31762   6.519   5.208  10.897 -0.7898 -0.1155  0.1461
  236MOL0     C31763   6.421   5.092  10.877 -0.1358  0.2561  0.6590
  236MOL0     C31764   6.336   5.134  10.751  1.0035  0.2723  0.1667
  236MOL0     C31765   6.225   5.030  10.718  0.5045  0.0281  0.6980
  236MOL0     C31766   6.105   5.037  10.810 -0.2514 -0.2233  0.3574
  236MOL0     C31767   6.004   4.937  10.769  1.1018 -0.9085  0.0058
  236MOL0     C31768   6.036   4.793  10.801  0.2142 -0.7846  0.3151
  236MOL0     C31769   5.900   4.728  10.837 -0.0286  0.0370  0.2893
  236MOL0    Cl31770   5.836   4.642  10.688 -0.1213 -0.5702 -0.0364
  236MOL0     C31771   6.730   5.408  10.671  0.9970  0.1324 -0.8550
  236MOL0     C31772   6.819   5.516  10.676  0.1505  0.6102  0.8794
  236MOL0     O31773   7.154   5.558  10.810  0.6074  0.2364 -0.3368
  236MOL0     C31774   7.086   5.915  10.838  0.7538 -0.7225 -0.3019
  236MOL0     C31775   7.138   6.043  10.873  0.8733  1.2885 -0.0758
  236MOL0     N31776   7.543   6.546  10.568  1.0766  0.3206  0.1122
  236MOL0     N31777   7.438   6.613  10.532  0.9142  0.9247 -0.4952
  236MOL0     C31778   6.669   6.732  11.268  1.3238  0.5372 -0.6386
  236MOL0     C31779   6.607   6.738  11.396 -0.3506 -0.2829  0.5882
  236MOL0     C31780   6.315   6.772  11.726 -0.5988  0.5687  0.7415
  236MOL0     C31781   6.206   6.840  11.767 -0.3737  0.4192  0.1051
  236MOL0     C31782   6.159   6.828  11.897  0.8759  0.3482  0.0965
  236MOL0     C31783   6.230   6.753  11.992 -0.3650  0.1925 -0.1495
  236MOL0     O31784   6.171   6.760  12.113  0.9416  0.8079 -0.2018
  236MOL0     C31785   6.257   6.716  12.221  0.6701  0.9152  0.4614
  236MOL0     C31786   6.191   6.743  12.352 -0.1122  0.2929  0.6023
  236MOL0     C31787   6.229   6.873  12.431 -0.4179  0.8358 -0.2384
  236MOL0     C31788   6.124   6.923  12.534  0.3507  0.0923 -0.8372
  236MOL0     C31789   6.134   6.835  12.651 -0.5715  0.7773 -0.8221
  236MOL0     C31790   6.140   6.749  12.743 -0.6773 -0.5674 -0.1004
  236MOL0     C31791   6.341   6.684  11.948 -0.1985 -0.5368 -0.4163
  236MOL0     C31792   6.379   6.687  11.813 -0.0302 -1.1516 -0.9673
  236MOL0     H31793   6.340   6.554  11.335 -1.2691  0.1056 -0.3210
  236MOL0     H31794   6.443   6.532  11.102 -0.7776  0.1158 -0.0768
  236MOL0     H31795   6.486   6.752  10.928  0.7479  3.3204  0.8142
  236MOL0     H31796   6.616   6.853  10.995  3.1719 -0.9564  1.7051
  236MOL0     H31797   6.654   6.829  10.747  1.1936  1.5944  0.8428
  236MOL0     H31798   6.770   6.753  10.851 -1.0029  2.8434 -0.7747
  236MOL0     H31799   6.667   6.529  10.819 -0.5648  2.2803  2.1664
  236MOL0     H31800   6.547   6.612  10.720  0.9049 -0.6672 -0.6140
  236MOL0     H31801   6.743   6.484  10.585  2.0341  0.6221 -1.6045
  236MOL0     H31802   6.730   6.646  10.528 -4.0329 -0.2478  0.7564
  236MOL0     H31803   6.936   6.697  10.700 -0.4413 -0.6241  3.9810
  236MOL0     H31804   6.929   6.524  10.730  2.3717  1.8375  0.1388
  236MOL0     H31805   6.957   6.481  10.471  2.3506 -1.5551  0.8571
  236MOL0     H31806   6.965   6.659  10.473 -0.6207  1.5624  2.9723
  236MOL0     H31807   7.170   6.629  10.623  0.4003 -0.2132 -0.2394
  236MOL0     H31808   7.153   6.461  10.616  0.7975  1.9431  1.9733
  236MOL0     H31809   7.219   6.653  10.391  3.5172  0.0542  1.7439
  236MOL0     H31810   7.190   6.476  10.362 -0.0291  0.8946  0.4161
  236MOL0     H31811   7.373   6.288  10.453 -0.4190  0.4046  0.8469
  236MOL0     H31812   7.604   6.210  10.532 -0.1967 -2.8436  2.7636
  236MOL0     H31813   7.727   6.334  10.571 -1.3157 -0.6081 -2.9504
  236MOL0     H31814   7.633   6.378  10.792 -0.0444  1.1805 -2.3988
  236MOL0     H31815   7.685   6.211  10.764  3.6879  3.2239 -1.1126
  236MOL0     H31816   7.427   6.149  10.716 -1.7681  0.1051  1.8917
  236MOL0     H31817   7.402   6.330  10.734 -0.5465  1.0738  1.3620
  236MOL0     H31818   7.449   6.327  10.952 -0.0952  0.2414 -0.3454
  236MOL0     H31819   7.519   6.158  10.943 -0.8491 -0.1705 -0.6086
  236MOL0     H31820   7.455   5.941  10.869 -0.7404  2.1580  1.5007
  236MOL0     H31821   7.349   5.624  10.922 -0.8353 -0.7628 -0.0067
  236MOL0     H31822   7.425   5.672  10.761 -0.6226  1.4877  0.0453
  236MOL0     H31823   7.493   5.721  10.912 -0.8679  1.4779  1.5414
  236MOL0     H31824   6.896   5.519  10.986  1.1563  2.9535 -1.6288
  236MOL0     H31825   6.744   5.321  11.001 -2.1219 -0.3023 -1.0898
  236MOL0     H31826   6.568   5.179  10.991 -0.2990 -0.3154 -0.1629
  236MOL0     H31827   6.470   5.305  10.907 -1.6148 -0.4349 -0.6737
  236MOL0     H31828   6.464   4.992  10.873 -0.4010  0.1802 -1.7038
  236MOL0     H31829   6.355   5.112  10.962 -1.2569  3.3836 -0.7913
  236MOL0     H31830   6.400   5.142  10.662  0.6571 -0.0764 -0.1232
  236MOL0     H31831   6.287   5.230  10.768  1.6583  0.4144  1.2594
  236MOL0     H31832   6.193   5.035  10.613  0.1652 -1.1452  0.7390
  236MOL0     H31833   6.277   4.934  10.722 -1.0646 -1.3248 -4.0722
  236MOL0     H31834   6.052   5.132  10.795  0.3451  0.4765  2.3825
  236MOL0     H31835   6.141   5.048  10.913 -0.8709  1.5206  0.4200
  236MOL0     H31836   5.912   4.972  10.815  1.0302 -0.9224 -0.1281
  236MOL0     H31837   5.998   4.950  10.661 -1.0579  1.0008  0.2907
  236MOL0     H31838   6.111   4.777  10.879 -0.9373 -5.0185  0.8263
  236MOL0     H31839   6.088   4.748  10.715 -0.2075  0.6400 -0.7247
  236MOL0     H31840   5.828   4.803  10.871 -3.5755 -1.1143 -3.6918
  236MOL0     H31841   5.915   4.661  10.922  1.5618  1.8837  1.5206
  236MOL0     H31842   6.684   5.361  10.585 -0.2840  1.0781 -0.7160
  236MOL0     H31843   6.846   5.566  10.584 -1.9080 -2.1454 -1.3728
  236MOL0     H31844   6.978   5.915  10.829  0.5258  0.2398  1.7395
  236MOL0     H31845   7.075   6.128  10.900  0.5035  0.4464  1.9065
  236MOL0     H31846   6.769   6.776  11.262  0.8616  2.2842  2.2935
  236MOL0     H31847   6.654   6.789  11.479  1.2571 -1.7891  0.6446
  236MOL0     H31848   6.139   6.904  11.710 -2.4173 -1.3789  0.3742
  236MOL0     H31849   6.066   6.879  11.920 -2.0860 -4.1858 -0.3756
  236MOL0     H31850   6.267   6.607  12.218 -0.5690  0.7449  1.5439
  236MOL0     H31851   6.349   6.774  12.207 -1.2772  3.9905 -0.6209
  236MOL0     H31852   6.218   6.658  12.415  2.4449  1.0211  0.6003
  236MOL0     H31853   6.082   6.738  12.351 -0.0994 -0.8175  1.8748
  236MOL0     H31854   6.249   6.955  12.362  0.5195  1.0524  0.2601
  236MOL0     H31855   6.329   6.844  12.467 -0.0290 -0.1395 -1.9993
  236MOL0     H31856   6.025   6.907  12.491 -0.0925 -1.2858  0.5892
  236MOL0     H31857   6.137   7.025  12.572  3.6025 -1.5568  3.2898
  236MOL0     H31858   6.147   6.672  12.817 -0.0180  0.9488  1.5091
  236MOL0     H31859   6.394   6.616  12.014 -0.2086 -1.1997 -1.0763
  236MOL0     H31860   6.455   6.622  11.771  0.7665 -0.5125 -0.5257
  237MOL0     O31861   9.415   4.716   0.338 -0.4362 -0.6321 -0.3321
  237MOL0     C31862   9.403   4.714   0.219  0.0363  1.1813 -0.5003
  237MOL0     O31863   9.498   4.747   0.131 -0.2829  0.2143  0.0767
  237MOL0     C31864   9.614   4.798   0.179 -0.0767 -0.1648  0.2990
  237MOL0     C31865   9.605   4.925   0.236  0.1829  0.2270  0.1953
  237MOL0     C31866   9.722   4.974   0.299 -0.0266 -0.7008 -0.5983
  237MOL0     C31867   9.849   4.918   0.271 -0.5978  0.2332 -0.0138
  237MOL0     O31868   9.967   4.975   0.307 -0.1049 -0.3685  0.2216
  237MOL0     C31869  10.020   5.103   0.260  0.5944 -0.0639  0.6629
  237MOL0     C31870   9.966   5.223   0.326  0.2435  0.2553  0.6711
  237MOL0     C31871  10.020   5.255   0.467  0.2198  1.1875 -0.4594
  237MOL0     C31872  10.066   5.397   0.472  0.9542  0.0693 -0.4646
  237MOL0     C31873  10.037   5.459   0.615  0.0801  0.5574 -0.8259
  237MOL0     C31874   9.885   5.474   0.638 -0.8420 -0.1046 -0.0505
  237MOL0     C31875   9.836   5.422   0.774  1.2099  0.4136 -0.7391
  237MOL0     C31876   9.832   5.540   0.868 -1.3401  0.1926  0.1020
  237MOL0     N31877   9.959   5.550   0.935  0.8170 -0.1281 -0.6129
  237MOL0     C31878   9.981   5.540   1.066  0.5505  0.6172 -0.3620
  237MOL0     C31879  10.098   5.596   1.090 -0.8515  0.2566  1.2681
  237MOL0     C31880  10.169   5.594   1.220  0.4845  0.0500  0.2246
  237MOL0     C31881  10.301   5.535   1.198  0.2688  0.1111  0.7127
  237MOL0     C31882  10.398   5.538   1.313  0.7723 -0.0878 -0.1546
  237MOL0     C31883  10.349   5.476   1.449  0.7518 -0.4853  0.0510
  237MOL0     O31884  10.449   5.408   1.523  0.4212 -0.0438  0.2721
  237MOL0     C31885  10.401   5.280   1.558 -0.3083  0.8179 -0.1934
  237MOL0     C31886  10.346   5.188   1.474 -0.0945  1.6712  0.0443
  237MOL0     C31887  10.318   5.055   1.517 -0.3612 -0.5097  0.3892
  237MOL0     C31888  10.244   4.957   1.424  0.0165 -1.1612 -0.0257
  237MOL0     C31889  10.369   5.017   1.640 -0.7901 -0.0831  0.6391
  237MOL0     C31890  10.380   4.877   1.681 -0.1998  0.3384  0.9302
  237MOL0     O31891  10.412   4.859   1.811 -0.4934  0.2786 -0.1350
  237MOL0     C31892  10.472   4.743   1.853 -0.0779 -0.8847  0.3326
  237MOL0     C31893  10.418   4.679   1.966 -0.6125  0.7130  0.4942
  237MOL0     C31894  10.470   4.554   2.006  0.3820 -1.0826 -0.1969
  237MOL0     C31895  10.592   4.503   1.954  0.6912 -0.0386  0.9282
  237MOL0     O31896  10.659   4.393   2.005  0.3875  1.1359 -0.6760
  237MOL0     C31897  10.600   4.331   2.125  0.2989 -0.2906  0.4091
  237MOL0     C31898  10.702   4.256   2.213  0.3420 -0.1489  0.1051
  237MOL0     C31899  10.818   4.355   2.239 -0.6941  0.6912 -0.5090
  237MOL0     C31900  10.895   4.305   2.355  0.6783 -0.9660 -0.9294
  237MOL0     C31901  10.996   4.410   2.422  0.3819  0.3600 -0.2704
  237MOL0     C31902  10.917   4.503   2.520  0.1132 -0.2649 -1.1897
  237MOL0     C31903  10.990   4.616   2.585 -0.3603 -0.3827 -0.6089
  237MOL0     C31904  10.895   4.713   2.651 -0.2672 -0.6191 -0.6480
  237MOL0    Cl31905  10.764   4.781   2.540  0.7704 -0.0389 -0.1635
  237MOL0     C31906  10.645   4.567   1.839  0.1734 -1.1678  0.2104
  237MOL0     C31907  10.584   4.687   1.788 -0.5470 -0.1151  0.3874
  237MOL0     O31908  10.360   4.784   1.602  0.4778  0.2870  0.5777
  237MOL0     C31909  10.435   5.113   1.718  0.5655  0.0344 -0.1293
  237MOL0     C31910  10.465   5.238   1.671  0.4002 -0.2363  0.4670
  237MOL0     N31911  10.137   5.655   0.976 -0.8180 -0.0801 -0.3921
  237MOL0     N31912  10.054   5.627   0.880 -0.0535  0.5166 -0.8166
  237MOL0     C31913   9.851   4.798   0.190 -0.4283  0.0645 -0.1941
  237MOL0     C31914   9.734   4.737   0.159 -0.0987  0.2993 -0.2235
  237MOL0     C31915   9.279   4.638   0.169  0.6212  0.1094 -0.3094
  237MOL0     C31916   9.157   4.637   0.235  0.5025  0.3480  0.5098
  237MOL0     C31917   9.045   4.574   0.186  0.3953 -0.0069 -0.5728
  237MOL0     C31918   9.044   4.510   0.059  0.0980  0.8230 -0.4500
  237MOL0     O31919   8.917   4.473   0.004 -0.6354 -0.1806 -0.5391
  237MOL0     C31920   8.889   4.458  -0.139 -0.6181 -0.2085  0.1972
  237MOL0     C31921   8.747   4.509  -0.171 -0.1139 -0.1058 -0.2308
  237MOL0     C31922   8.723   4.658  -0.145  1.1449 -1.1779  0.0035
  237MOL0     C31923   8.595   4.685  -0.055  0.3070  0.4208  0.0465
  237MOL0     C31924   8.472   4.641  -0.127  0.5273  0.8339  0.2208
  237MOL0     C31925   8.361   4.640  -0.195 -0.8389 -1.0781  0.8441
  237MOL0     C31926   9.164   4.521  -0.013 -0.5256  0.2038 -0.3040
  237MOL0     C31927   9.273   4.583   0.044 -1.2357  1.9722 -0.0604
  237MOL0     H31928   9.509   4.973   0.253  2.2147  3.9991  2.3631
  237MOL0     H31929   9.712   5.062   0.362  1.9903  1.1696 -2.7140
  237MOL0     H31930  10.130   5.104   0.254  0.5645 -1.8410 -1.5492
  237MOL0     H31931   9.989   5.111   0.155  3.7242  0.3546 -0.3442
  237MOL0     H31932   9.986   5.304   0.255 -2.0811 -0.3447 -0.7924
  237MOL0     H31933   9.857   5.210   0.332  0.2503 -1.1229 -1.2032
  237MOL0     H31934   9.934   5.226   0.529 -0.8392 -0.6660 -2.6346
  237MOL0     H31935  10.105   5.193   0.497 -1.7305 -0.7185  1.5460
  237MOL0     H31936  10.175   5.402   0.463  1.3904  0.1419  3.2508
  237MOL0     H31937  10.015   5.458   0.397 -1.0820 -0.2745  0.5851
  237MOL0     H31938  10.077   5.400   0.699 -1.0642  0.9565  0.0259
  237MOL0     H31939  10.082   5.558   0.619  0.1915  0.4875  2.3050
  237MOL0     H31940   9.850   5.575   0.617 -2.4554 -1.2433 -3.6751
  237MOL0     H31941   9.833   5.424   0.555 -1.9732  1.8705 -0.6018
  237MOL0     H31942   9.731   5.391   0.774  1.0584  0.6867  1.9192
  237MOL0     H31943   9.895   5.338   0.811  0.3957  1.0139  2.1789
  237MOL0     H31944   9.745   5.537   0.935 -0.7975 -0.7693  0.7790
  237MOL0     H31945   9.813   5.637   0.820  1.1944  0.9477  0.5129
  237MOL0     H31946   9.908   5.479   1.119 -1.8919  2.7218 -1.0863
  237MOL0     H31947  10.161   5.696   1.259  0.2126  1.3538 -2.9019
  237MOL0     H31948  10.115   5.527   1.288  0.6818  0.2558  0.5894
  237MOL0     H31949  10.347   5.601   1.124  1.8911  2.3278  3.4767
  237MOL0     H31950  10.288   5.432   1.165 -1.2277  0.5976 -0.3285
  237MOL0     H31951  10.426   5.638   1.347  0.7165 -0.1285  0.0096
  237MOL0     H31952  10.482   5.478   1.278 -0.6394 -3.9826  2.4628
  237MOL0     H31953  10.258   5.415   1.438  1.2597 -1.6453  1.8938
  237MOL0     H31954  10.307   5.552   1.515 -0.0025 -0.2751 -0.6399
  237MOL0     H31955  10.321   5.212   1.371  1.3970  2.0686 -0.2403
  237MOL0     H31956  10.325   4.899   1.378 -1.3202 -3.0240 -0.1637
  237MOL0     H31957  10.176   4.893   1.482  1.3609 -2.1102  0.5386
  237MOL0     H31958  10.194   5.013   1.344 -0.6873 -1.5298  0.1482
  237MOL0     H31959  10.325   4.723   2.002 -0.4745  5.4892 -3.9106
  237MOL0     H31960  10.416   4.502   2.085 -3.4085  0.3141 -1.6577
  237MOL0     H31961  10.566   4.417   2.184 -0.6175 -0.4445  0.1176
  237MOL0     H31962  10.523   4.265   2.083  1.8876 -0.0391 -3.2352
  237MOL0     H31963  10.640   4.221   2.296 -0.2190 -1.3700 -0.8030
  237MOL0     H31964  10.747   4.170   2.163  0.6762  1.4188 -2.4721
  237MOL0     H31965  10.791   4.460   2.252  0.6616  1.0358 -0.4311
  237MOL0     H31966  10.890   4.361   2.157 -0.9572  0.3929 -0.7695
  237MOL0     H31967  10.815   4.275   2.424 -0.7164  2.2796 -0.9742
  237MOL0     H31968  10.954   4.222   2.315 -0.2917 -1.1187 -2.0996
  237MOL0     H31969  11.033   4.469   2.337  2.5219  3.3245  2.5001
  237MOL0     H31970  11.077   4.354   2.469  0.0716 -1.3687 -1.6543
  237MOL0     H31971  10.834   4.554   2.471  1.7727  2.9624 -0.9030
  237MOL0     H31972  10.885   4.437   2.601  3.0722 -1.6297 -0.9816
  237MOL0     H31973  11.048   4.664   2.506 -0.3490 -1.6117 -1.3657
  237MOL0     H31974  11.049   4.580   2.670 -2.9574 -3.9386 -0.0753
  237MOL0     H31975  10.948   4.801   2.691 -2.3818  1.1395 -1.5234
  237MOL0     H31976  10.845   4.671   2.739 -2.0578 -0.8622 -1.7308
  237MOL0     H31977  10.730   4.521   1.789  0.9912 -1.0324  1.4317
  237MOL0     H31978  10.633   4.728   1.701  1.4432 -0.0072  1.4917
  237MOL0     H31979  10.489   5.095   1.811  1.2514  0.0802 -0.5193
  237MOL0     H31980  10.517   5.316   1.726 -0.3558  0.5954  0.0039
  237MOL0     H31981   9.952   4.759   0.179 -0.2970 -0.1311  1.4566
  237MOL0     H31982   9.727   4.644   0.104 -1.3052  0.1295  0.2014
  237MOL0     H31983   9.140   4.692   0.328  2.1887  0.3842  0.8303
  237MOL0     H31984   8.949   4.596   0.231  1.7010 -1.4545  3.3073
  237MOL0     H31985   8.964   4.511  -0.198 -2.2246  2.9706  0.8128
  237MOL0     H31986   8.890   4.349  -0.153 -0.0391 -0.0863 -0.8213
  237MOL0     H31987   8.680   4.448  -0.109  0.3140 -0.3479  0.0010
  237MOL0     H31988   8.730   4.482  -0.275 -2.0931 -0.1271  0.0510
  237MOL0     H31989   8.717   4.716  -0.238  1.7320 -2.1653 -0.6787
  237MOL0     H31990   8.809   4.703  -0.095 -1.0189  2.5244  0.7811
  237MOL0     H31991   8.600   4.793  -0.036 -0.1590  0.2461  1.2883
  237MOL0     H31992   8.593   4.640   0.045 -2.4775  2.3109  0.9710
  237MOL0     H31993   8.282   4.626  -0.266 -0.0662  0.1156 -0.2997
  237MOL0     H31994   9.178   4.480  -0.113 -0.9011 -2.9081  0.8284
  237MOL0     H31995   9.366   4.577  -0.011 -0.3662 -0.5502  1.5123
  238MOL0     O31996   8.891   9.284   9.588  0.2278 -0.1709 -0.2393
  238MOL0     C31997   8.982   9.352   9.639  0.0554  0.2526 -0.3478
  238MOL0     O31998   8.985   9.480   9.644 -0.0725 -0.2524  0.1024
  238MOL0     C31999   8.893   9.551   9.564 -0.6847 -0.2568 -1.0374
  238MOL0     C32000   8.766   9.574   9.621  0.5546  0.3889  0.5064
  238MOL0     C32001   8.674   9.665   9.557 -0.1454  0.4915  0.1207
  238MOL0     C32002   8.723   9.744   9.446  0.7912  0.2740 -0.5103
  238MOL0     O32003   8.653   9.841   9.386  0.2105  0.3274  0.3311
  238MOL0     C32004   8.513   9.855   9.406  0.1498 -0.9265  0.0648
  238MOL0     C32005   8.471   9.934   9.282 -0.8582  0.0913 -0.8383
  238MOL0     C32006   8.332   9.983   9.283  0.6714  1.2411  0.3044
  238MOL0     C32007   8.231   9.872   9.248  0.1860 -0.4449  0.0710
  238MOL0     C32008   8.170   9.805   9.365  0.2061  0.3497  0.7722
  238MOL0     C32009   8.075   9.685   9.322 -0.2023 -0.0810 -0.1045
  238MOL0     C32010   8.153   9.551   9.310  0.8060  1.2376  0.5431
  238MOL0     C32011   8.057   9.435   9.316  0.1998  0.7305 -0.4121
  238MOL0     N32012   8.122   9.303   9.288  0.4478  0.9810  0.6716
  238MOL0     C32013   8.202   9.238   9.378  0.4053  0.3023  0.6023
  238MOL0     C32014   8.240   9.124   9.303  0.2458 -0.5046  0.0123
  238MOL0     C32015   8.330   9.028   9.367 -0.2853  0.5870  0.2208
  238MOL0     C32016   8.404   8.931   9.278  0.7476 -0.0725  0.7050
  238MOL0     C32017   8.487   8.837   9.374  0.3976 -0.2640 -0.2502
  238MOL0     C32018   8.569   8.741   9.291  0.7081 -0.4033  0.0543
  238MOL0     O32019   8.523   8.612   9.319 -0.3965 -0.5303  0.7775
  238MOL0     C32020   8.555   8.521   9.221 -0.3849  0.2662  0.1072
  238MOL0     C32021   8.645   8.517   9.121  0.8052  0.2300  0.3310
  238MOL0     C32022   8.665   8.412   9.027 -0.4194 -1.6450 -0.1275
  238MOL0     C32023   8.751   8.439   8.910  0.8120 -1.4135  0.0996
  238MOL0     C32024   8.604   8.292   9.052 -0.5120  0.5658 -0.6202
  238MOL0     C32025   8.643   8.162   8.981 -0.7997  0.2067  0.0869
  238MOL0     O32026   8.558   8.054   9.010  0.6099  0.7241  0.6092
  238MOL0     C32027   8.596   7.928   8.983  1.1231  0.9086 -1.1952
  238MOL0     C32028   8.731   7.868   8.967  0.1962 -0.1801  0.7825
  238MOL0     C32029   8.755   7.727   8.965 -0.2006 -0.2308 -0.8656
  238MOL0     C32030   8.654   7.644   8.989  0.5610 -0.6509  0.1839
  238MOL0     O32031   8.687   7.512   8.997  0.1224 -0.4859  0.1424
  238MOL0     C32032   8.593   7.419   8.950  0.8976 -0.5875  0.7868
  238MOL0     C32033   8.656   7.272   8.955  0.6659 -0.0730  0.2239
  238MOL0     C32034   8.679   7.207   9.087  0.2205  0.4425  0.2380
  238MOL0     C32035   8.781   7.092   9.078 -1.2492 -0.9298  0.7649
  238MOL0     C32036   8.802   7.026   9.214 -0.1348 -0.0810  0.5868
  238MOL0     C32037   8.870   7.123   9.314  0.0590 -0.8224 -0.8553
  238MOL0     C32038   8.912   7.048   9.442 -0.7460  0.5815  0.2263
  238MOL0     C32039   8.939   7.138   9.564  0.2877 -0.1685  0.8701
  238MOL0    Cl32040   9.105   7.213   9.556  0.3680 -0.3058 -0.2454
  238MOL0     C32041   8.523   7.701   9.002  0.1943  0.2274  0.3123
  238MOL0     C32042   8.498   7.832   9.000 -0.2069 -0.7598  1.0186
  238MOL0     O32043   8.747   8.160   8.921 -0.4442  0.1569  0.5255
  238MOL0     C32044   8.513   8.285   9.157 -0.4364 -0.3356 -0.6320
  238MOL0     C32045   8.493   8.394   9.242  0.4261  0.3355  0.1830
  238MOL0     N32046   8.173   9.128   9.187  0.5740 -0.8307  0.7841
  238MOL0     N32047   8.099   9.228   9.175 -0.2045 -0.0533 -1.0011
  238MOL0     C32048   8.847   9.713   9.394 -0.5979  0.4823  0.1125
  238MOL0     C32049   8.932   9.614   9.446  0.0195 -0.0823 -0.2451
  238MOL0     C32050   9.098   9.279   9.698 -1.2676  0.5957 -0.1303
  238MOL0     C32051   9.117   9.139   9.675 -0.2010  0.8309 -0.6103
  238MOL0     C32052   9.239   9.078   9.722 -0.2645 -0.1662 -0.3558
  238MOL0     C32053   9.337   9.146   9.785 -0.7309  0.5334 -0.1183
  238MOL0     O32054   9.451   9.076   9.823 -0.1824 -0.2133  0.0512
  238MOL0     C32055   9.564   9.161   9.861 -0.2875  0.7211  0.5955
  238MOL0     C32056   9.690   9.073   9.869  0.1716  0.0868 -0.4755
  238MOL0     C32057   9.699   8.938   9.788 -0.8541  0.0907  0.3009
  238MOL0     C32058   9.667   8.817   9.885  0.9419 -0.2746 -0.3118
  238MOL0     C32059   9.666   8.687   9.817  0.5543 -1.6027  1.7517
  238MOL0     C32060   9.647   8.597   9.747  1.2907  0.5152 -0.0869
  238MOL0     C32061   9.314   9.283   9.807 -0.7686  0.1061  0.3830
  238MOL0     C32062   9.201   9.347   9.764  0.7106 -0.2591  0.0529
  238MOL0     H32063   8.737   9.515   9.707  0.7637 -1.6806 -0.7746
  238MOL0     H32064   8.579   9.691   9.604  0.2481  2.0351  0.1281
  238MOL0     H32065   8.450   9.765   9.403  1.0493 -1.5722 -2.2134
  238MOL0     H32066   8.501   9.911   9.499  4.1669 -1.5643  1.1657
  238MOL0     H32067   8.539  10.016   9.255 -0.6817 -0.1945 -1.2831
  238MOL0     H32068   8.482   9.867   9.196 -1.7654  2.6543 -3.0858
  238MOL0     H32069   8.313  10.023   9.383 -0.9176  0.5925  0.3091
  238MOL0     H32070   8.308  10.059   9.208 -3.0210 -1.2660 -1.3900
  238MOL0     H32071   8.149   9.923   9.195 -3.6906 -3.6643  2.3550
  238MOL0     H32072   8.269   9.802   9.173  2.0094  0.3725  0.1940
  238MOL0     H32073   8.249   9.779   9.437  1.5338  1.6526 -0.1649
  238MOL0     H32074   8.112   9.875   9.425 -2.0892 -0.8234  0.0227
  238MOL0     H32075   7.995   9.693   9.397  1.1250  1.0056  1.2656
  238MOL0     H32076   8.032   9.703   9.223 -2.2462  1.4106  0.9717
  238MOL0     H32077   8.211   9.540   9.219 -3.9215  0.3510 -2.7085
  238MOL0     H32078   8.232   9.542   9.385  2.4327 -0.4289 -1.2771
  238MOL0     H32079   7.979   9.457   9.241 -0.7214  1.5117  0.7307
  238MOL0     H32080   8.014   9.437   9.416  0.3941  2.6283 -0.3198
  238MOL0     H32081   8.239   9.280   9.471 -1.3583  2.0505  0.5585
  238MOL0     H32082   8.400   9.086   9.428  0.3002  3.1879 -2.6412
  238MOL0     H32083   8.261   8.966   9.425 -0.3321 -1.3159 -1.7231
  238MOL0     H32084   8.480   8.990   9.225 -0.9524  2.5554  1.0238
  238MOL0     H32085   8.343   8.876   9.205  0.5059 -0.1694  0.9770
  238MOL0     H32086   8.425   8.776   9.441  1.5813 -0.0183  1.1109
  238MOL0     H32087   8.552   8.895   9.440 -0.4202  1.6050 -1.0393
  238MOL0     H32088   8.677   8.753   9.301  0.7963 -1.7302  0.9857
  238MOL0     H32089   8.540   8.771   9.190 -1.2733  2.0841  1.2558
  238MOL0     H32090   8.705   8.608   9.118 -2.3125  2.5935  2.5274
  238MOL0     H32091   8.853   8.414   8.940  0.9819 -0.2035  0.5867
  238MOL0     H32092   8.723   8.380   8.822  1.8884 -0.1501 -1.1359
  238MOL0     H32093   8.759   8.544   8.879 -0.4260 -0.6938  2.0619
  238MOL0     H32094   8.825   7.919   8.949  0.8713 -1.5932  0.1813
  238MOL0     H32095   8.861   7.705   8.962  0.4924  2.6320 -0.9594
  238MOL0     H32096   8.506   7.423   9.017 -0.7264 -0.8731 -1.1869
  238MOL0     H32097   8.549   7.447   8.853 -0.4879 -0.5185  1.4019
  238MOL0     H32098   8.585   7.211   8.900 -3.3481  1.1933  3.4732
  238MOL0     H32099   8.754   7.273   8.907 -0.1257 -0.3873 -1.4494
  238MOL0     H32100   8.583   7.175   9.129  0.3195 -0.1818  0.0031
  238MOL0     H32101   8.722   7.284   9.151 -2.8481  1.5730  1.1203
  238MOL0     H32102   8.754   7.016   9.004 -1.1972 -0.4909  0.2947
  238MOL0     H32103   8.883   7.120   9.052 -1.0118 -1.5746  0.9823
  238MOL0     H32104   8.863   6.936   9.201  0.9111  0.5175  1.2779
  238MOL0     H32105   8.707   6.987   9.252 -1.7869  2.3845 -0.7630
  238MOL0     H32106   8.957   7.163   9.261  1.4383 -2.2122  0.2441
  238MOL0     H32107   8.799   7.201   9.341 -0.1656 -0.5151 -2.2613
  238MOL0     H32108   9.003   6.990   9.426 -1.3299 -0.6747  1.2480
  238MOL0     H32109   8.840   6.969   9.469 -2.5450  2.1796  0.2931
  238MOL0     H32110   8.926   7.067   9.646 -3.6501  1.4479  1.8619
  238MOL0     H32111   8.860   7.212   9.556 -2.5380 -3.0561  0.1003
  238MOL0     H32112   8.441   7.630   9.011 -0.5086  1.1536  1.5662
  238MOL0     H32113   8.398   7.874   8.993 -0.4599 -1.5679 -0.8698
  238MOL0     H32114   8.464   8.198   9.200 -0.4766  1.9023  4.5667
  238MOL0     H32115   8.421   8.389   9.323 -1.2420  2.6724 -1.0249
  238MOL0     H32116   8.880   9.768   9.306  2.7137 -1.1610  0.1942
  238MOL0     H32117   9.024   9.589   9.395 -0.1458 -0.1409 -0.5211
  238MOL0     H32118   9.032   9.092   9.626 -3.2938  2.8253  2.4270
  238MOL0     H32119   9.260   8.976   9.690  2.2423 -0.2833  1.3435
  238MOL0     H32120   9.574   9.238   9.784  1.7168  1.2067  1.2757
  238MOL0     H32121   9.560   9.222   9.951  4.7259  4.0753 -1.0578
  238MOL0     H32122   9.697   9.062   9.978 -1.4725  1.1029 -0.2315
  238MOL0     H32123   9.769   9.135   9.825  0.3539 -2.1627 -3.7361
  238MOL0     H32124   9.805   8.921   9.767 -0.1072  2.7181  1.5660
  238MOL0     H32125   9.644   8.935   9.694 -0.7394 -2.4291  0.2373
  238MOL0     H32126   9.571   8.831   9.937 -1.8369 -2.0727 -4.4415
  238MOL0     H32127   9.748   8.812   9.958 -0.9151  1.8361  2.1015
  238MOL0     H32128   9.610   8.518   9.684 -1.1554 -0.3224  2.2153
  238MOL0     H32129   9.389   9.339   9.861 -0.7266  0.8832 -0.4657
  238MOL0     H32130   9.178   9.445   9.805  1.7113 -0.2096  0.5268
  239MOL0     O32131   6.876   9.309   7.099  0.6838  0.8276  0.1926
  239MOL0     C32132   6.846   9.324   6.979  0.0514 -0.2092  0.3009
  239MOL0     O32133   6.875   9.430   6.903 -0.0093  0.3972  0.4370
  239MOL0     C32134   6.932   9.548   6.947  0.0562 -0.6402  0.8032
  239MOL0     C32135   7.043   9.585   6.877  0.4469 -0.1809 -0.6262
  239MOL0     C32136   7.116   9.702   6.908 -0.5943  0.4733  0.3363
  239MOL0     C32137   7.082   9.780   7.013  0.3540  0.1201  0.0057
  239MOL0     O32138   7.139   9.900   7.056  0.1316 -0.3801  0.9209
  239MOL0     C32139   7.280   9.905   7.028  0.0307  0.3114 -0.1896
  239MOL0     C32140   7.349   9.942   7.155  0.0016 -0.3711 -0.6105
  239MOL0     C32141   7.498   9.969   7.134 -0.7041  0.4477 -0.5905
  239MOL0     C32142   7.576   9.955   7.267 -0.1348  0.0699  0.0668
  239MOL0     C32143   7.726   9.971   7.238  0.0879 -0.6015  0.1927
  239MOL0     C32144   7.773  10.118   7.197 -0.3256 -0.7825  0.0554
  239MOL0     C32145   7.786  10.226   7.305 -0.2413 -0.1543 -0.4504
  239MOL0     C32146   7.810  10.366   7.253 -0.3271 -0.4131 -0.2046
  239MOL0     N32147   7.937  10.369   7.181 -0.4771 -0.4806  0.5940
  239MOL0     C32148   8.056  10.443   7.212  0.0458  0.3075  0.2992
  239MOL0     C32149   8.107  10.473   7.097  0.5911 -0.6071 -0.1680
  239MOL0     C32150   8.249  10.530   7.084  1.0188 -0.2062 -0.8651
  239MOL0     C32151   8.344  10.488   7.201  0.3766  0.3923  0.7434
  239MOL0     C32152   8.484  10.468   7.141  0.5071 -0.4504  0.2320
  239MOL0     C32153   8.532  10.600   7.076  0.0897 -0.1779  0.4331
  239MOL0     O32154   8.508  10.601   6.933  0.0525  0.4760 -0.1842
  239MOL0     C32155   8.614  10.550   6.871 -0.1883 -0.0100 -0.5793
  239MOL0     C32156   8.627  10.411   6.860 -0.9704  0.6101 -0.3523
  239MOL0     C32157   8.744  10.350   6.807 -0.3836  0.1412 -0.1919
  239MOL0     C32158   8.733  10.200   6.808  0.0399 -0.9133  0.2068
  239MOL0     C32159   8.845  10.435   6.759  0.3823 -0.7150  0.1338
  239MOL0     C32160   8.963  10.385   6.687  0.0527 -1.3274 -0.5179
  239MOL0     O32161   9.029  10.481   6.613 -1.2176  0.7834  0.8848
  239MOL0     C32162   9.160  10.462   6.561 -0.0965 -0.4129  0.9351
  239MOL0     C32163   9.246  10.362   6.605 -0.0473 -0.6840 -0.6662
  239MOL0     C32164   9.377  10.356   6.569  0.6513 -0.0337  0.4186
  239MOL0     C32165   9.440  10.456   6.490  0.1792  0.1369 -0.6289
  239MOL0     O32166   9.575  10.440   6.460  0.3589 -0.2634 -0.2143
  239MOL0     C32167   9.654  10.557   6.473  1.6571  0.1184 -0.6389
  239MOL0     C32168   9.795  10.512   6.496  0.3583 -1.0102 -0.5723
  239MOL0     C32169   9.904  10.621   6.469 -0.3021 -0.2579 -0.3552
  239MOL0     C32170   9.941  10.710   6.584  0.2671  0.0871  0.3171
  239MOL0     C32171  10.094  10.706   6.618 -0.7750  0.6390 -0.1061
  239MOL0     C32172  10.180  10.755   6.503  0.2471  0.0268 -1.0057
  239MOL0     C32173  10.334  10.779   6.527  1.3170 -0.1348  0.4750
  239MOL0     C32174  10.392  10.681   6.633  0.1148 -0.7216  0.0977
  239MOL0    Cl32175  10.569  10.709   6.660  0.5349  0.0523 -0.6779
  239MOL0     C32176   9.359  10.562   6.444  0.9607 -0.5625 -0.4910
  239MOL0     C32177   9.220  10.559   6.482 -0.6636 -0.5331  0.1647
  239MOL0     O32178   8.989  10.272   6.700  0.5536  0.5679 -0.1330
  239MOL0     C32179   8.823  10.571   6.761  0.5814 -0.4833  0.2205
  239MOL0     C32180   8.713  10.633   6.833  0.3097  0.3322  0.3634
  239MOL0     N32181   8.038  10.417   6.995  0.7366  0.5841 -0.1178
  239MOL0     N32182   7.928  10.360   7.045 -0.3781 -1.2477  0.2675
  239MOL0     C32183   6.976   9.738   7.085  0.2701  0.2655 -0.3771
  239MOL0     C32184   6.893   9.623   7.059  0.3539 -1.1194 -1.1637
  239MOL0     C32185   6.767   9.216   6.919 -0.5880  0.0261  0.6079
  239MOL0     C32186   6.705   9.122   7.003  0.5464  0.4393 -0.3035
  239MOL0     C32187   6.634   9.008   6.953  0.0450  0.0456  0.0342
  239MOL0     C32188   6.622   8.983   6.821  1.0582  0.5799  0.3455
  239MOL0     O32189   6.555   8.880   6.760  0.6406 -0.2547 -0.2813
  239MOL0     C32190   6.557   8.749   6.823 -0.4296  0.6888 -0.3390
  239MOL0     C32191   6.552   8.635   6.725 -0.2999 -1.3986  0.6518
  239MOL0     C32192   6.579   8.497   6.794 -0.2751 -0.5057  0.0047
  239MOL0     C32193   6.720   8.442   6.747  0.4825 -0.4295  0.8266
  239MOL0     C32194   6.732   8.400   6.603 -0.2184  0.2836 -0.4470
  239MOL0     C32195   6.739   8.357   6.489  0.1099 -0.0752 -0.4000
  239MOL0     C32196   6.677   9.077   6.732  0.3217 -0.0307 -0.3044
  239MOL0     C32197   6.746   9.187   6.778  0.2826 -0.3654 -0.6864
  239MOL0     H32198   7.087   9.523   6.799  1.3728 -0.9363  0.4566
  239MOL0     H32199   7.195   9.720   6.836 -2.2617  0.8183 -1.5102
  239MOL0     H32200   7.328   9.818   6.983  0.0469 -0.0362  0.4906
  239MOL0     H32201   7.290   9.979   6.948  1.7742  2.8859  2.2002
  239MOL0     H32202   7.289  10.012   7.215  0.6887 -1.1839  1.0883
  239MOL0     H32203   7.357   9.851   7.215  2.0249  0.0945 -0.0740
  239MOL0     H32204   7.539   9.910   7.052 -0.8109  0.0553 -0.3654
  239MOL0     H32205   7.508  10.072   7.101  0.6820  0.3190 -0.6257
  239MOL0     H32206   7.537  10.033   7.333  0.2401 -0.6563  1.1713
  239MOL0     H32207   7.557   9.857   7.310 -0.0714  0.3934  0.8417
  239MOL0     H32208   7.786   9.962   7.330  2.4174  1.3977 -1.0043
  239MOL0     H32209   7.752   9.899   7.161  0.1398  0.5944 -0.9466
  239MOL0     H32210   7.874  10.107   7.157 -0.0406  1.6531 -0.0451
  239MOL0     H32211   7.712  10.171   7.124  1.4160  0.4099 -0.5985
  239MOL0     H32212   7.689  10.230   7.354  0.3767  0.2615  0.7904
  239MOL0     H32213   7.865  10.191   7.373 -0.2879 -1.3342 -0.9823
  239MOL0     H32214   7.810  10.435   7.337  1.6322 -3.0668  2.1602
  239MOL0     H32215   7.734  10.410   7.188 -1.7945  0.8597  2.2377
  239MOL0     H32216   8.092  10.466   7.311  2.4762  1.3297 -0.7321
  239MOL0     H32217   8.294  10.497   6.990 -0.6479 -1.4294 -1.2666
  239MOL0     H32218   8.252  10.639   7.075 -3.0111  0.1368  0.3413
  239MOL0     H32219   8.299  10.404   7.255  0.7943  0.2368  0.8567
  239MOL0     H32220   8.352  10.572   7.271  0.3751  0.6483  0.4386
  239MOL0     H32221   8.475  10.386   7.070  0.3983  0.5904 -0.9971
  239MOL0     H32222   8.551  10.443   7.224  2.9959 -0.7141 -1.7253
  239MOL0     H32223   8.637  10.617   7.101  0.5372  2.5046 -2.6449
  239MOL0     H32224   8.482  10.681   7.130 -1.3990 -1.3853  0.9589
  239MOL0     H32225   8.550  10.342   6.895 -0.9058  1.1592  0.9510
  239MOL0     H32226   8.786  10.151   6.891 -0.1092 -0.1200  0.7783
  239MOL0     H32227   8.627  10.171   6.810  0.1279 -1.3076  2.6664
  239MOL0     H32228   8.782  10.168   6.715 -0.4563 -0.9718 -0.0420
  239MOL0     H32229   9.228  10.275   6.667  1.5522 -0.4017  0.2430
  239MOL0     H32230   9.437  10.268   6.588  2.1029  0.9656  0.6031
  239MOL0     H32231   9.648  10.625   6.387  0.2583  0.2450 -0.4740
  239MOL0     H32232   9.639  10.609   6.568  1.8544  0.7917 -0.9689
  239MOL0     H32233   9.806  10.473   6.598 -1.8747  1.8743  0.9274
  239MOL0     H32234   9.809  10.418   6.444 -0.1576 -1.1568 -0.4540
  239MOL0     H32235   9.870  10.681   6.385 -3.4001 -0.6622  0.4813
  239MOL0     H32236   9.993  10.567   6.436  0.7962 -0.6865  2.8869
  239MOL0     H32237   9.929  10.814   6.553  0.7136 -0.2690 -1.1465
  239MOL0     H32238   9.882  10.685   6.673 -2.5966  2.2791 -0.8316
  239MOL0     H32239  10.114  10.601   6.637 -0.4907  0.7234  0.0743
  239MOL0     H32240  10.110  10.764   6.710 -2.4891 -0.7708  1.1489
  239MOL0     H32241  10.185  10.676   6.427 -2.4923  0.0921 -1.3470
  239MOL0     H32242  10.130  10.847   6.469 -2.4321  0.1513  2.7021
  239MOL0     H32243  10.370  10.881   6.545  4.1265 -1.0499  0.5018
  239MOL0     H32244  10.390  10.757   6.436  2.1996  2.2687  0.3656
  239MOL0     H32245  10.377  10.579   6.598 -1.8260  0.0255 -1.5324
  239MOL0     H32246  10.325  10.689   6.719 -0.4226 -1.2439 -0.2611
  239MOL0     H32247   9.395  10.641   6.379 -1.5053 -1.2805 -2.9249
  239MOL0     H32248   9.171  10.653   6.458 -0.4506  0.2490  2.4791
  239MOL0     H32249   8.886  10.645   6.713 -0.9494  1.9002  1.6999
  239MOL0     H32250   8.699  10.738   6.854  1.9898  0.4389  1.0405
  239MOL0     H32251   6.947   9.799   7.170  1.4539 -1.6373  1.4897
  239MOL0     H32252   6.811   9.590   7.122 -0.2665 -1.5579 -2.1806
  239MOL0     H32253   6.705   9.147   7.108 -0.2785  0.9547 -0.4197
  239MOL0     H32254   6.590   8.943   7.028 -1.1148 -1.4581 -1.8701
  239MOL0     H32255   6.650   8.747   6.881 -0.9688  2.7947  0.7382
  239MOL0     H32256   6.477   8.737   6.897  1.3026 -2.6426  1.1965
  239MOL0     H32257   6.639   8.660   6.663 -0.0943  3.8398  2.5155
  239MOL0     H32258   6.453   8.633   6.678 -3.2091 -0.3425  5.9004
  239MOL0     H32259   6.499   8.428   6.767 -1.7003 -0.0580  2.7122
  239MOL0     H32260   6.591   8.522   6.900 -0.1994  0.8451 -0.2974
  239MOL0     H32261   6.751   8.364   6.817 -3.3572  0.6236  4.1697
  239MOL0     H32262   6.801   8.515   6.759  1.1618 -0.8832 -0.7942
  239MOL0     H32263   6.737   8.295   6.401 -3.9717 -2.4357  1.1264
  239MOL0     H32264   6.665   9.073   6.624 -1.6420 -0.2204 -0.1159
  239MOL0     H32265   6.790   9.252   6.704  4.4062 -1.7324  0.2962
  240MOL0     O32266   6.322   6.156   2.897  0.6224 -0.3544  0.1752
  240MOL0     C32267   6.250   6.087   2.972 -0.6409 -0.5797 -0.1966
  240MOL0     O32268   6.129   6.115   3.019 -0.3150 -0.6099 -0.4266
  240MOL0     C32269   6.067   6.237   2.995 -0.0019 -0.2160  0.3080
  240MOL0     C32270   6.091   6.336   2.900 -0.0599 -0.0038 -0.3945
  240MOL0     C32271   6.010   6.457   2.910 -0.3677  0.1666  0.6838
  240MOL0     C32272   5.907   6.468   3.003  0.2554  0.2345 -0.4025
  240MOL0     O32273   5.844   6.592   2.990  1.0662  0.2631  0.5295
  240MOL0     C32274   5.908   6.685   3.070  0.4297  0.5443 -0.5984
  240MOL0     C32275   5.806   6.735   3.167  0.2290  0.3414 -0.3831
  240MOL0     C32276   5.664   6.760   3.087 -0.4905 -0.4531 -0.0308
  240MOL0     C32277   5.591   6.853   3.185 -0.9196  0.7768 -0.2295
  240MOL0     C32278   5.447   6.874   3.131  0.1480  0.4381 -0.2512
  240MOL0     C32279   5.350   6.900   3.246  0.7238 -0.1322  0.1200
  240MOL0     C32280   5.207   6.856   3.224 -0.5422 -0.1006  0.0726
  240MOL0     C32281   5.174   6.709   3.237 -0.1542 -0.0692  0.1042
  240MOL0     N32282   5.040   6.697   3.180  0.5756 -0.7049  0.3602
  240MOL0     C32283   5.014   6.618   3.072  0.0740  0.2542 -0.2065
  240MOL0     C32284   4.880   6.631   3.057 -0.0920  0.2102  0.0178
  240MOL0     C32285   4.791   6.531   2.981 -0.3353 -0.2145 -0.0004
  240MOL0     C32286   4.777   6.581   2.833  0.4659 -0.2972  0.7364
  240MOL0     C32287   4.835   6.493   2.730  0.1442  1.0610  0.4464
  240MOL0     C32288   4.977   6.512   2.707  0.4483 -0.2979 -0.8300
  240MOL0     O32289   4.999   6.639   2.643 -0.3990  0.0868  0.5159
  240MOL0     C32290   5.041   6.624   2.513 -0.2640 -0.3293  0.4843
  240MOL0     C32291   5.171   6.683   2.477 -0.1277  0.8624 -0.3892
  240MOL0     C32292   5.222   6.665   2.345 -0.2113 -0.5034  0.2223
  240MOL0     C32293   5.361   6.734   2.310 -0.2584 -0.7407  0.4039
  240MOL0     C32294   5.150   6.600   2.251  0.8887 -0.2728  0.4268
  240MOL0     C32295   5.186   6.559   2.111  0.4500 -1.3458 -0.0568
  240MOL0     O32296   5.086   6.533   2.020 -0.2046 -0.0024 -0.1718
  240MOL0     C32297   5.124   6.475   1.903  0.4973  0.1678  0.3282
  240MOL0     C32298   5.067   6.534   1.798 -0.3015 -0.6942  0.3109
  240MOL0     C32299   5.103   6.494   1.664 -0.5368  0.5741  0.4599
  240MOL0     C32300   5.180   6.383   1.634 -0.3751 -0.3410  0.6603
  240MOL0     O32301   5.192   6.339   1.506  0.3320 -0.0443  0.3890
  240MOL0     C32302   5.274   6.432   1.420  1.1349  0.2225 -0.0277
  240MOL0     C32303   5.239   6.455   1.278  0.5948 -0.2543  0.4684
  240MOL0     C32304   5.090   6.492   1.264 -0.3027  0.6171  0.1010
  240MOL0     C32305   5.065   6.492   1.115  0.0306 -0.3470  0.3248
  240MOL0     C32306   4.909   6.493   1.077 -0.5259 -0.1725  0.0704
  240MOL0     C32307   4.843   6.358   1.081 -0.1704 -0.1818  0.7125
  240MOL0     C32308   4.709   6.354   1.017  0.4718  0.1073  0.5364
  240MOL0     C32309   4.610   6.465   1.053  0.2702  0.4620  0.0964
  240MOL0    Cl32310   4.622   6.609   0.944 -0.1113  0.3731  0.3401
  240MOL0     C32311   5.240   6.318   1.753 -0.0845  1.2512  0.6555
  240MOL0     C32312   5.211   6.361   1.885  0.3508  1.0251  0.9893
  240MOL0     O32313   5.308   6.554   2.080  0.0745 -0.5948  0.4150
  240MOL0     C32314   5.023   6.562   2.286 -0.4597  0.3905  0.7855
  240MOL0     C32315   4.965   6.577   2.412  0.7187  0.5338  0.8749
  240MOL0     N32316   4.826   6.703   3.160  0.0979  0.5798  0.5371
  240MOL0     N32317   4.927   6.755   3.222  0.3681 -0.3769 -0.2721
  240MOL0     C32318   5.877   6.354   3.092 -0.5981 -0.7258 -0.0252
  240MOL0     C32319   5.957   6.244   3.080  1.5402 -0.0369 -1.4972
  240MOL0     C32320   6.302   5.951   3.002 -1.0099 -0.6662  0.3646
  240MOL0     C32321   6.426   5.898   2.953 -0.3810 -0.0359 -0.0233
  240MOL0     C32322   6.462   5.761   2.986  0.6563  0.3014 -0.5751
  240MOL0     C32323   6.384   5.681   3.066 -0.5611 -0.3531 -0.2392
  240MOL0     O32324   6.412   5.560   3.117 -0.3312  0.3127 -1.5536
  240MOL0     C32325   6.492   5.467   3.046 -1.1400 -0.1255 -0.2584
  240MOL0     C32326   6.408   5.343   3.012 -0.0950 -0.3032  0.5780
  240MOL0     C32327   6.298   5.374   2.896 -1.1515 -0.4530 -0.3618
  240MOL0     C32328   6.241   5.255   2.821 -0.1132  0.2975  0.1108
  240MOL0     C32329   6.338   5.201   2.728 -1.1431  0.5217 -0.4585
  240MOL0     C32330   6.411   5.154   2.636  0.8799 -0.6570  0.0896
  240MOL0     C32331   6.267   5.738   3.107  0.4263 -0.4602  0.0586
  240MOL0     C32332   6.220   5.869   3.079 -0.7728  0.2994 -0.1472
  240MOL0     H32333   6.170   6.328   2.826  0.9063 -0.2452  0.6415
  240MOL0     H32334   6.026   6.534   2.835 -1.2421 -0.2139  0.0762
  240MOL0     H32335   5.977   6.638   3.141 -0.1017  1.3873  0.4944
  240MOL0     H32336   5.963   6.770   3.029  3.1900 -0.6287  0.4712
  240MOL0     H32337   5.777   6.653   3.233 -0.5432  0.9094 -0.0090
  240MOL0     H32338   5.840   6.827   3.215 -2.7674  1.2090  0.2969
  240MOL0     H32339   5.670   6.807   2.989  0.8558  2.4903  1.3214
  240MOL0     H32340   5.614   6.663   3.082  3.7553 -3.0294  2.0692
  240MOL0     H32341   5.603   6.817   3.288  4.3020  0.1107 -0.8196
  240MOL0     H32342   5.648   6.945   3.178  0.4075 -0.1234 -2.0848
  240MOL0     H32343   5.436   6.959   3.064  1.3213 -0.3263 -1.4604
  240MOL0     H32344   5.399   6.786   3.087 -4.0913  1.3049  2.0467
  240MOL0     H32345   5.372   6.849   3.340  0.5502 -1.6052 -0.6136
  240MOL0     H32346   5.359   7.006   3.274  2.1700 -0.1043 -0.3410
  240MOL0     H32347   5.159   6.927   3.291  1.4548  0.8212  0.6122
  240MOL0     H32348   5.181   6.883   3.121  0.0651 -1.1579 -0.3672
  240MOL0     H32349   5.166   6.689   3.345 -2.1922  1.9525  0.4199
  240MOL0     H32350   5.250   6.648   3.188  1.2036  3.0597 -1.9722
  240MOL0     H32351   5.092   6.552   3.036  0.7285  0.5076  0.7042
  240MOL0     H32352   4.827   6.428   2.989  1.4919  0.5592  3.2834
  240MOL0     H32353   4.690   6.536   3.022 -0.1522 -0.7727  0.5258
  240MOL0     H32354   4.818   6.682   2.827  0.3175 -0.3000 -1.6208
  240MOL0     H32355   4.671   6.583   2.808  0.5783 -2.6538 -0.2093
  240MOL0     H32356   4.794   6.506   2.630 -0.6298 -2.5673  0.1411
  240MOL0     H32357   4.807   6.391   2.757 -5.4733  1.9422 -0.9371
  240MOL0     H32358   5.007   6.426   2.646 -1.1129 -1.1655 -0.4333
  240MOL0     H32359   5.032   6.502   2.801  0.3010 -1.6630 -0.8707
  240MOL0     H32360   5.231   6.711   2.563  2.0841  1.1671 -1.9700
  240MOL0     H32361   5.377   6.828   2.362 -0.7870  0.0102 -0.7404
  240MOL0     H32362   5.442   6.666   2.336  2.2920  2.5253  1.6439
  240MOL0     H32363   5.379   6.747   2.203  2.5066  1.4919  1.0345
  240MOL0     H32364   4.998   6.614   1.822  0.1814  0.6924 -2.4578
  240MOL0     H32365   5.055   6.543   1.580  0.0793  0.9246  0.3064
  240MOL0     H32366   5.282   6.531   1.467 -0.3861 -0.4573  1.7433
  240MOL0     H32367   5.375   6.390   1.426  0.8116 -0.7123 -0.9373
  240MOL0     H32368   5.301   6.536   1.239 -0.9058  1.4767  1.4967
  240MOL0     H32369   5.254   6.358   1.230 -1.4209 -0.6908  0.6182
  240MOL0     H32370   5.064   6.581   1.323  0.9283 -0.3830  2.3042
  240MOL0     H32371   5.028   6.415   1.312 -1.7885 -0.2206 -2.9432
  240MOL0     H32372   5.113   6.581   1.073  0.0450 -1.0160 -1.1086
  240MOL0     H32373   5.118   6.408   1.071  0.1369 -2.0403  3.3986
  240MOL0     H32374   4.902   6.534   0.975 -0.4937 -1.2826 -0.3945
  240MOL0     H32375   4.847   6.558   1.139 -0.7858 -2.7297  2.7378
  240MOL0     H32376   4.904   6.278   1.037 -0.7540 -1.0785  1.4910
  240MOL0     H32377   4.846   6.331   1.187 -1.1680  0.2511  0.8623
  240MOL0     H32378   4.659   6.262   1.050 -0.1153  0.8194  1.6784
  240MOL0     H32379   4.716   6.342   0.908 -1.3176 -2.2328  0.5888
  240MOL0     H32380   4.616   6.485   1.160  4.8519 -0.2982  0.2230
  240MOL0     H32381   4.514   6.419   1.028  0.5159  0.7858 -1.5354
  240MOL0     H32382   5.301   6.232   1.727 -0.7217  0.8839  0.3386
  240MOL0     H32383   5.253   6.313   1.973  0.0232  0.0871  0.6522
  240MOL0     H32384   4.953   6.513   2.219 -0.4110  1.6275 -0.1922
  240MOL0     H32385   4.864   6.540   2.426  0.8550  0.3086  1.2811
  240MOL0     H32386   5.795   6.361   3.164  1.3456 -0.0837  2.2774
  240MOL0     H32387   5.923   6.157   3.136  1.5486 -0.3241 -1.9319
  240MOL0     H32388   6.494   5.965   2.903  2.2412 -2.5134 -0.0267
  240MOL0     H32389   6.564   5.727   2.969  1.1731  1.3338  0.3668
  240MOL0     H32390   6.538   5.514   2.959  0.0369  0.9567  0.8969
  240MOL0     H32391   6.574   5.430   3.108 -0.0547 -1.8219 -2.5406
  240MOL0     H32392   6.355   5.296   3.095 -2.5585  0.6150 -0.3802
  240MOL0     H32393   6.472   5.265   2.969 -1.1502  0.4932 -2.7387
  240MOL0     H32394   6.341   5.450   2.830 -0.2919  0.5427  1.2667
  240MOL0     H32395   6.211   5.423   2.941 -3.1700 -2.0244 -2.3541
  240MOL0     H32396   6.158   5.287   2.756  1.9569  0.9068 -2.4016
  240MOL0     H32397   6.198   5.177   2.884 -4.1811 -3.4869 -6.1436
  240MOL0     H32398   6.467   5.113   2.554 -0.5905 -1.2051 -0.6802
  240MOL0     H32399   6.204   5.691   3.183  1.9111 -0.7050  1.1952
  240MOL0     H32400   6.126   5.896   3.125 -1.6928 -1.3160 -0.9890
  241MOL0     O32401   6.237   1.968   3.722  0.2264  1.4357 -0.0529
  241MOL0     C32402   6.138   1.953   3.641 -0.3201 -0.7607  0.1853
  241MOL0     O32403   6.091   2.052   3.556  0.3543 -0.9306 -0.5375
  241MOL0     C32404   6.177   2.157   3.524  0.7160 -0.3373 -0.1025
  241MOL0     C32405   6.303   2.131   3.467 -1.2348 -0.5542 -0.6932
  241MOL0     C32406   6.372   2.232   3.407  0.6705 -0.2112 -0.3001
  241MOL0     C32407   6.329   2.366   3.391  0.1769  0.7003  0.4308
  241MOL0     O32408   6.411   2.464   3.337  0.4000  0.2626  0.4571
  241MOL0     C32409   6.385   2.595   3.379  0.1264 -0.3013  0.3965
  241MOL0     C32410   6.504   2.684   3.340 -0.3421  0.3530 -0.0050
  241MOL0     C32411   6.582   2.665   3.201 -0.0619 -0.2212  0.4939
  241MOL0     C32412   6.510   2.747   3.082  0.2891 -0.0922 -0.4790
  241MOL0     C32413   6.364   2.709   3.033  0.1260  0.2681 -1.1963
  241MOL0     C32414   6.340   2.795   2.912 -0.6287  0.0360 -0.5738
  241MOL0     C32415   6.184   2.800   2.874 -0.6935 -1.1456 -0.0002
  241MOL0     C32416   6.173   2.880   2.745  0.0525  0.3481 -0.4148
  241MOL0     N32417   6.030   2.898   2.711 -0.5923 -0.6958  0.3772
  241MOL0     C32418   5.943   2.814   2.648 -0.8621 -0.0075 -0.3359
  241MOL0     C32419   5.833   2.896   2.622 -0.5846  0.2952  0.3157
  241MOL0     C32420   5.702   2.855   2.562 -1.0704  0.2836 -0.4273
  241MOL0     C32421   5.665   2.962   2.458  0.1117  1.1097  0.1637
  241MOL0     C32422   5.577   2.892   2.351  0.4267  0.2118 -0.1183
  241MOL0     C32423   5.452   2.820   2.415 -0.0865  0.0221  0.2647
  241MOL0     O32424   5.329   2.852   2.347  1.1200  0.0366  0.0046
  241MOL0     C32425   5.237   2.743   2.339 -0.2271  0.1043 -0.1328
  241MOL0     C32426   5.136   2.725   2.434 -0.1473  0.3233 -0.2739
  241MOL0     C32427   5.037   2.624   2.427 -0.1935  0.4086  0.2991
  241MOL0     C32428   4.922   2.621   2.529 -0.1312  0.4059 -0.1162
  241MOL0     C32429   5.042   2.536   2.317 -0.4748  0.5104  0.6692
  241MOL0     C32430   4.938   2.431   2.294 -0.4985  0.6281 -0.3703
  241MOL0     O32431   4.820   2.437   2.358  0.1838  0.3049 -0.1702
  241MOL0     C32432   4.728   2.334   2.335 -0.7084  0.0070 -0.9466
  241MOL0     C32433   4.603   2.382   2.300  1.1175 -0.5772  0.3578
  241MOL0     C32434   4.506   2.291   2.245  0.2741 -0.3655 -0.6294
  241MOL0     C32435   4.536   2.153   2.235  0.0361  0.2115 -1.0410
  241MOL0     O32436   4.426   2.077   2.189  0.5404 -0.5789  0.0827
  241MOL0     C32437   4.447   1.935   2.182 -1.1027  0.8477 -0.6237
  241MOL0     C32438   4.318   1.880   2.124 -0.1017 -0.3628  0.9227
  241MOL0     C32439   4.297   1.724   2.096 -0.4207 -0.4630  0.1020
  241MOL0     C32440   4.215   1.709   1.971 -0.2958 -0.4414 -0.7238
  241MOL0     C32441   4.181   1.564   1.945  0.0175 -1.5643 -0.1324
  241MOL0     C32442   4.040   1.560   1.878 -0.7230 -1.0279  0.5461
  241MOL0     C32443   4.038   1.584   1.730  0.2376 -0.0377  0.1165
  241MOL0     C32444   3.929   1.513   1.645 -0.3162  0.5329 -0.0875
  241MOL0    Cl32445   3.797   1.624   1.657  0.3138 -0.4123  0.0297
  241MOL0     C32446   4.653   2.099   2.293 -0.5592 -0.6252  0.1833
  241MOL0     C32447   4.752   2.190   2.338  0.2295 -0.3457 -0.1625
  241MOL0     O32448   4.971   2.344   2.220  0.5483 -0.4667 -0.5142
  241MOL0     C32449   5.147   2.549   2.221 -1.0035 -0.3253 -0.6389
  241MOL0     C32450   5.235   2.653   2.227 -0.6115 -0.4783  0.4573
  241MOL0     N32451   5.858   3.018   2.670 -0.6447 -0.5251 -0.3640
  241MOL0     N32452   5.972   3.020   2.735 -0.2410  0.2199 -0.3704
  241MOL0     C32453   6.199   2.389   3.446 -0.3587 -0.4472 -0.6211
  241MOL0     C32454   6.126   2.292   3.513  0.1221 -0.0921 -0.0355
  241MOL0     C32455   6.090   1.813   3.621  0.6341 -0.0369 -0.0946
  241MOL0     C32456   6.112   1.708   3.715  0.8860 -1.1326 -0.0037
  241MOL0     C32457   6.073   1.579   3.689  0.9727 -0.3650  0.5777
  241MOL0     C32458   6.011   1.547   3.568  0.6644  0.1319  0.6257
  241MOL0     O32459   5.968   1.418   3.540  0.7352  0.2028 -0.5767
  241MOL0     C32460   5.985   1.310   3.636 -0.0652  0.0388 -0.3747
  241MOL0     C32461   5.915   1.188   3.585  0.1911 -0.9348 -0.1806
  241MOL0     C32462   5.845   1.118   3.707  0.0916  0.2453 -0.2460
  241MOL0     C32463   5.960   1.066   3.797 -0.3682  0.0829  0.1970
  241MOL0     C32464   5.946   1.091   3.938 -0.8615 -0.1142  0.0960
  241MOL0     C32465   5.949   1.113   4.062 -0.2950  0.7750  0.5627
  241MOL0     C32466   5.984   1.651   3.473  0.3305 -0.0006 -0.3462
  241MOL0     C32467   6.022   1.778   3.506  0.0382  0.7884 -0.5163
  241MOL0     H32468   6.329   2.027   3.450 -2.2111 -1.1698  1.3156
  241MOL0     H32469   6.468   2.203   3.364  1.2825  1.7316 -0.3259
  241MOL0     H32470   6.295   2.623   3.324  1.1515  0.9849 -0.6807
  241MOL0     H32471   6.369   2.607   3.487  0.8345  2.6098  0.2437
  241MOL0     H32472   6.489   2.792   3.354  1.2755  0.5936  0.0806
  241MOL0     H32473   6.569   2.650   3.422  1.5704 -1.9171 -2.3195
  241MOL0     H32474   6.690   2.678   3.208  0.4560 -2.7872 -1.2879
  241MOL0     H32475   6.570   2.559   3.174 -1.6086  0.3888 -1.4595
  241MOL0     H32476   6.514   2.854   3.103  1.4580 -0.2669  0.3257
  241MOL0     H32477   6.567   2.729   2.990  1.9454  0.6124  0.3728
  241MOL0     H32478   6.357   2.604   3.003  1.4854  0.1349 -1.1020
  241MOL0     H32479   6.282   2.727   3.104  1.4700  0.1224  0.4599
  241MOL0     H32480   6.380   2.896   2.926  3.3783 -1.2642 -1.3727
  241MOL0     H32481   6.397   2.755   2.828  3.1195 -1.6853  2.4898
  241MOL0     H32482   6.144   2.698   2.872 -3.3347 -0.2287  1.7908
  241MOL0     H32483   6.114   2.857   2.935  0.9935  1.0227  0.0290
  241MOL0     H32484   6.222   2.813   2.673  3.3283 -0.1501  2.0248
  241MOL0     H32485   6.229   2.974   2.748  1.9806 -0.7620  1.3346
  241MOL0     H32486   5.969   2.711   2.627  0.8709  0.0154  1.3421
  241MOL0     H32487   5.718   2.757   2.516 -0.2115  0.9450 -1.6002
  241MOL0     H32488   5.627   2.853   2.642  1.2646 -2.5734  1.9701
  241MOL0     H32489   5.759   3.002   2.419 -0.6532  0.4252 -2.5827
  241MOL0     H32490   5.622   3.051   2.504  1.9521  2.9005 -1.3935
  241MOL0     H32491   5.636   2.820   2.294  1.2138  2.5642 -2.4655
  241MOL0     H32492   5.546   2.963   2.274  0.5368 -1.0297 -1.3374
  241MOL0     H32493   5.443   2.852   2.519 -0.1926 -3.0544  1.3019
  241MOL0     H32494   5.473   2.712   2.420  0.9377  0.1967  0.0621
  241MOL0     H32495   5.131   2.796   2.516  5.9824  1.6543 -0.4934
  241MOL0     H32496   4.953   2.691   2.607 -4.3155  1.1300  1.1272
  241MOL0     H32497   4.828   2.663   2.494  1.0415  1.7262 -1.9104
  241MOL0     H32498   4.905   2.523   2.575  0.9552  0.0143 -0.5013
  241MOL0     H32499   4.576   2.486   2.318  2.6056 -0.0394 -0.4075
  241MOL0     H32500   4.404   2.314   2.214 -0.7568 -0.9478  2.0829
  241MOL0     H32501   4.540   1.900   2.135 -0.9235 -0.9190  0.9348
  241MOL0     H32502   4.436   1.880   2.275  1.7283 -0.2036 -0.8210
  241MOL0     H32503   4.232   1.925   2.174 -0.6894  0.0462 -0.3869
  241MOL0     H32504   4.310   1.925   2.024  1.2442 -3.0051 -0.4973
  241MOL0     H32505   4.239   1.701   2.186  1.1495  1.0847  1.6141
  241MOL0     H32506   4.394   1.674   2.086 -1.2364 -2.6122  1.9312
  241MOL0     H32507   4.119   1.759   1.986  1.0331  1.3861  2.7756
  241MOL0     H32508   4.252   1.754   1.878  3.5153  0.4284  1.0249
  241MOL0     H32509   4.171   1.503   2.036  3.0529 -3.3699 -0.8937
  241MOL0     H32510   4.254   1.522   1.876  0.9757 -1.4366  0.7789
  241MOL0     H32511   4.020   1.454   1.896  2.8852 -1.6340  1.8399
  241MOL0     H32512   3.966   1.625   1.926 -0.1355 -1.4376  2.0656
  241MOL0     H32513   4.131   1.533   1.701  0.6896  0.4618  0.6819
  241MOL0     H32514   4.050   1.690   1.707  0.1318  0.1607  0.9566
  241MOL0     H32515   3.897   1.412   1.674 -0.1556  0.4065 -0.3473
  241MOL0     H32516   3.961   1.501   1.541  2.3037  2.4057  0.3856
  241MOL0     H32517   4.661   1.991   2.294 -1.0451 -0.6642  0.9300
  241MOL0     H32518   4.850   2.162   2.376  0.5962  0.8360 -0.1915
  241MOL0     H32519   5.134   2.505   2.122 -0.7757 -0.8964 -0.4175
  241MOL0     H32520   5.312   2.665   2.152  1.5394 -2.5698  2.1821
  241MOL0     H32521   6.156   2.484   3.415 -0.0301 -1.0789 -3.1707
  241MOL0     H32522   6.026   2.308   3.553 -0.7981 -0.9963 -1.8059
  241MOL0     H32523   6.173   1.733   3.801 -0.4966  4.0568 -0.1940
  241MOL0     H32524   6.105   1.506   3.763  2.1350  0.0014  0.4595
  241MOL0     H32525   6.092   1.289   3.636 -0.3307 -1.5891  0.6356
  241MOL0     H32526   5.958   1.337   3.739 -1.2264  1.2540 -0.9682
  241MOL0     H32527   5.982   1.114   3.540  0.8388 -1.6898  1.8824
  241MOL0     H32528   5.844   1.223   3.510 -1.3794  0.7695  1.9663
  241MOL0     H32529   5.781   1.034   3.679  1.1548 -0.2298 -1.3803
  241MOL0     H32530   5.784   1.201   3.744  0.5701  0.7660 -0.5905
  241MOL0     H32531   6.058   1.104   3.768 -0.0924 -0.4403  0.4268
  241MOL0     H32532   5.963   0.960   3.767 -1.2751 -0.4228  1.7718
  241MOL0     H32533   5.953   1.133   4.167 -2.0538  2.1719  0.4058
  241MOL0     H32534   5.925   1.640   3.384 -0.6500 -4.4704  0.6285
  241MOL0     H32535   6.009   1.857   3.432  1.7484  1.6504  0.0398
  242MOL0     O32536   3.970   0.065  11.026  0.4354  0.8438 -0.0639
  242MOL0     C32537   3.960   0.073  10.902 -0.0247 -0.4939 -0.9131
  242MOL0     O32538   3.846   0.103  10.836 -0.3798 -0.2463  0.0510
  242MOL0     C32539   3.743   0.149  10.916  0.2524  0.6160 -0.9612
  242MOL0     C32540   3.755   0.239  11.029 -0.2605 -0.1722  0.2425
  242MOL0     C32541   3.644   0.291  11.089 -0.3405  0.5965  1.7664
  242MOL0     C32542   3.519   0.260  11.052 -0.3025  0.9303  0.0567
  242MOL0     O32543   3.410   0.313  11.116  0.4295  0.0609  0.1507
  242MOL0     C32544   3.308   0.230  11.176 -1.2089  0.2075  0.0753
  242MOL0     C32545   3.193   0.312  11.227  0.6122 -0.1418  0.2199
  242MOL0     C32546   3.198   0.351  11.376 -0.7511  0.7894 -0.1000
  242MOL0     C32547   3.096   0.459  11.418 -0.3414  0.3149  0.2060
  242MOL0     C32548   3.129   0.519  11.553 -0.2036  0.9019  0.2288
  242MOL0     C32549   3.013   0.606  11.600 -0.0154  0.0466  0.6576
  242MOL0     C32550   3.017   0.653  11.748 -1.2401 -0.8588  0.0888
  242MOL0     C32551   2.957   0.562  11.848  0.0321 -0.1974  0.1110
  242MOL0     N32552   2.927   0.619  11.980  0.3447  0.0467  0.7379
  242MOL0     C32553   2.816   0.705  12.001 -0.3247  0.7191 -0.3324
  242MOL0     C32554   2.848   0.795  12.101  0.0643  0.1322 -0.8516
  242MOL0     C32555   2.769   0.924  12.133 -0.9798  0.1069  0.0924
  242MOL0     C32556   2.772   0.971  12.280  0.0363 -0.5053  0.3004
  242MOL0     C32557   2.722   1.116  12.286  0.0151 -0.3827  0.1375
  242MOL0     C32558   2.769   1.195  12.408 -0.4370  0.3244 -0.2507
  242MOL0     O32559   2.726   1.117  12.529  0.4711  0.6145 -0.3974
  242MOL0     C32560   2.793   1.148  12.642  0.4268 -0.0803  0.2452
  242MOL0     C32561   2.793   1.276  12.706  0.4064 -0.7098  0.2275
  242MOL0     C32562   2.884   1.299  12.812  0.3761 -0.5387  0.2558
  242MOL0     C32563   2.872   1.432  12.883  0.9576  0.4248 -0.3264
  242MOL0     C32564   2.983   1.203  12.836  0.8449  0.7134 -0.6666
  242MOL0     C32565   3.092   1.218  12.932  0.1579 -0.3904 -0.7233
  242MOL0     O32566   3.132   1.098  12.987 -0.4582  0.0869 -0.1623
  242MOL0     C32567   3.226   1.109  13.090 -0.5537 -0.3077 -0.4188
  242MOL0     C32568   3.358   1.158  13.066  0.3602 -0.0753  0.0536
  242MOL0     C32569   3.451   1.151  13.167  0.4421 -0.1475  0.5718
  242MOL0     C32570   3.418   1.131  13.295 -0.0649 -0.9945 -1.0672
  242MOL0     O32571   3.508   1.114  13.400 -0.7331  0.2210  0.6900
  242MOL0     C32572   3.648   1.137  13.368  0.7839 -0.0123  1.2374
  242MOL0     C32573   3.734   1.092  13.484  0.0811  0.2425  0.2179
  242MOL0     C32574   3.890   1.117  13.470 -0.1590 -0.4084 -0.1785
  242MOL0     C32575   3.945   1.017  13.358  0.0890  0.0486 -0.9027
  242MOL0     C32576   4.077   0.938  13.390 -0.6092  0.0793 -0.0376
  242MOL0     C32577   4.068   0.794  13.463  0.0567 -0.4597 -0.2788
  242MOL0     C32578   4.154   0.791  13.588 -0.7861 -0.4983 -0.2527
  242MOL0     C32579   4.135   0.654  13.648 -0.4906  0.0121  1.0377
  242MOL0    Cl32580   4.303   0.616  13.719  0.3275  0.2839  0.2438
  242MOL0     C32581   3.293   1.098  13.317 -0.3135 -0.7459 -1.0345
  242MOL0     C32582   3.194   1.077  13.219  0.6200  0.1954 -0.6167
  242MOL0     O32583   3.143   1.328  12.957  0.2550 -0.3894 -0.3063
  242MOL0     C32584   2.984   1.076  12.758 -0.2237  0.2386 -0.4248
  242MOL0     C32585   2.883   1.051  12.665  0.1139 -0.0357  0.8145
  242MOL0     N32586   2.979   0.760  12.136 -0.3517  0.6510  0.1004
  242MOL0     N32587   3.023   0.661  12.066 -0.6197  0.5084  0.1800
  242MOL0     C32588   3.501   0.175  10.936 -0.5756 -0.6179  0.1299
  242MOL0     C32589   3.612   0.127  10.872 -1.1478 -0.4565  0.7242
  242MOL0     C32590   4.082   0.049  10.829 -0.3978 -0.2326  0.8861
  242MOL0     C32591   4.201   0.085  10.881 -0.1895 -0.5060  0.4774
  242MOL0     C32592   4.328   0.055  10.814  0.7965 -0.3494  0.3276
  242MOL0     C32593   4.319  -0.025  10.689  0.5420  0.3766  0.0441
  242MOL0     O32594   4.427  -0.046  10.617 -0.5869 -1.0828  0.0657
  242MOL0     C32595   4.460   0.058  10.516  0.6836  0.0054  0.0810
  242MOL0     C32596   4.545  -0.011  10.415  0.0357 -0.6685  0.3646
  242MOL0     C32597   4.541   0.062  10.273  0.5432 -0.3381  0.5772
  242MOL0     C32598   4.612   0.202  10.266 -0.2633  0.7048  0.1509
  242MOL0     C32599   4.757   0.182  10.276  0.6289  0.1850  0.8600
  242MOL0     C32600   4.878   0.168  10.284  0.3346  0.0903  0.2445
  242MOL0     C32601   4.198  -0.049  10.633  0.0007 -0.1878 -0.2301
  242MOL0     C32602   4.077   0.001  10.695 -0.1728  0.3795  0.6359
  242MOL0     H32603   3.853   0.266  11.066  0.6384 -1.7347 -0.8776
  242MOL0     H32604   3.651   0.362  11.171  1.2800  1.4270  0.9527
  242MOL0     H32605   3.271   0.156  11.105 -2.2074 -2.5945  3.2236
  242MOL0     H32606   3.347   0.168  11.258 -2.3747  1.3882  1.5820
  242MOL0     H32607   3.189   0.406  11.170 -0.2879  0.6111  1.4779
  242MOL0     H32608   3.095   0.267  11.207 -1.0345  2.3549  2.1140
  242MOL0     H32609   3.174   0.263  11.436  0.0513 -0.6751 -1.8269
  242MOL0     H32610   3.300   0.379  11.402 -0.2164  1.6684 -2.7864
  242MOL0     H32611   3.107   0.533  11.339 -1.7920  0.5934  0.2382
  242MOL0     H32612   3.005   0.400  11.402  1.5156 -2.0478 -2.9159
  242MOL0     H32613   3.145   0.442  11.629 -2.4219  1.6593  1.5367
  242MOL0     H32614   3.219   0.581  11.550  0.1541  0.4078  0.6189
  242MOL0     H32615   3.016   0.692  11.533 -2.1735 -1.6985 -1.8995
  242MOL0     H32616   2.926   0.540  11.592 -0.0632  0.1658  0.1951
  242MOL0     H32617   3.123   0.659  11.774 -0.3256 -4.8545 -1.9787
  242MOL0     H32618   2.975   0.754  11.747  0.5541 -0.0150 -2.6680
  242MOL0     H32619   3.016   0.473  11.870  1.0594  0.1079 -1.3021
  242MOL0     H32620   2.870   0.524  11.794  0.7066 -0.5305 -0.7467
  242MOL0     H32621   2.727   0.704  11.939 -1.1233 -3.0001  0.6818
  242MOL0     H32622   2.818   0.992  12.062 -2.1767  1.4932  0.5357
  242MOL0     H32623   2.662   0.905  12.119 -1.4343  0.1796  2.9590
  242MOL0     H32624   2.868   0.956  12.331 -0.1082 -0.4207  0.6000
  242MOL0     H32625   2.696   0.912  12.333  1.2058 -0.3224  2.2847
  242MOL0     H32626   2.614   1.115  12.269  0.0513  1.6629 -0.5289
  242MOL0     H32627   2.769   1.166  12.202  0.0108 -1.8648 -0.7822
  242MOL0     H32628   2.731   1.297  12.399  1.7623  1.0222 -3.0807
  242MOL0     H32629   2.878   1.198  12.407 -0.1793  1.1785  5.0304
  242MOL0     H32630   2.727   1.355  12.671  0.1004  1.5056  4.9899
  242MOL0     H32631   2.945   1.500  12.838  0.7772  1.5830  1.0587
  242MOL0     H32632   2.773   1.473  12.862  0.2298 -2.4392 -3.2269
  242MOL0     H32633   2.898   1.420  12.989 -1.3889  1.6696  0.4455
  242MOL0     H32634   3.387   1.176  12.963 -1.6113 -3.3200 -1.2343
  242MOL0     H32635   3.554   1.172  13.139  0.2468 -0.5842 -0.5280
  242MOL0     H32636   3.677   1.056  13.301 -0.8499 -1.5513  2.3121
  242MOL0     H32637   3.669   1.236  13.325 -1.0706  0.5845  1.6450
  242MOL0     H32638   3.701   1.142  13.576  0.5394  0.6995  0.1412
  242MOL0     H32639   3.723   0.984  13.497 -1.8533  0.2810 -0.7363
  242MOL0     H32640   3.946   1.097  13.562 -0.8870  1.3814  0.7052
  242MOL0     H32641   3.898   1.224  13.450  0.2921 -0.3150  0.4561
  242MOL0     H32642   3.870   0.939  13.340  1.5188 -1.8837  0.9965
  242MOL0     H32643   3.956   1.082  13.271  1.6217  0.6769 -0.2664
  242MOL0     H32644   4.154   1.001  13.435 -0.1609 -0.9196  0.6530
  242MOL0     H32645   4.106   0.904  13.291 -3.5285 -2.4277 -0.2165
  242MOL0     H32646   3.969   0.765  13.499  0.9296 -2.2839  0.8369
  242MOL0     H32647   4.107   0.716  13.397 -0.6806 -0.6434 -0.5093
  242MOL0     H32648   4.112   0.865  13.656 -0.5015  0.0215 -0.6348
  242MOL0     H32649   4.257   0.815  13.561 -1.4483  4.9557  1.0123
  242MOL0     H32650   4.111   0.580  13.571 -1.1092  0.7564  0.4932
  242MOL0     H32651   4.051   0.666  13.716 -1.6253  1.5022 -0.5415
  242MOL0     H32652   3.257   1.057  13.411 -1.3991  0.8470 -0.7095
  242MOL0     H32653   3.098   1.031  13.245 -0.0379 -0.3648 -3.6508
  242MOL0     H32654   3.056   1.000  12.786 -1.2936 -0.6024  0.1424
  242MOL0     H32655   2.876   0.954  12.619  0.9136  0.2816  0.0014
  242MOL0     H32656   3.407   0.152  10.887 -0.9394 -1.3840  1.1592
  242MOL0     H32657   3.575   0.060  10.795 -0.2071 -1.9210  1.5051
  242MOL0     H32658   4.204   0.138  10.976 -2.8826  2.3912 -0.8748
  242MOL0     H32659   4.426   0.071  10.857  1.3728  0.2792 -1.1693
  242MOL0     H32660   4.374   0.099  10.463  0.3473  0.5215  1.0157
  242MOL0     H32661   4.515   0.141  10.562 -0.3350  1.5124 -1.3145
  242MOL0     H32662   4.501  -0.111  10.403 -0.5485 -0.0824 -4.6581
  242MOL0     H32663   4.652  -0.024  10.434  0.2188 -0.3954 -0.4226
  242MOL0     H32664   4.439   0.096  10.254  1.3474  0.8856 -1.9549
  242MOL0     H32665   4.569   0.000  10.186 -3.3443  1.4629 -2.2428
  242MOL0     H32666   4.602   0.255  10.361 -0.8503  2.2787 -0.7556
  242MOL0     H32667   4.581   0.257  10.177  1.2650 -0.2392 -0.9992
  242MOL0     H32668   4.983   0.180  10.300  0.3110  1.7022 -0.5863
  242MOL0     H32669   4.189  -0.117  10.549 -0.9543  0.1311 -0.3970
  242MOL0     H32670   3.991  -0.034  10.640 -1.7826  0.2978  3.0290
  243MOL0     O32671   9.071   9.661  11.029 -0.8239  0.4482  0.6631
  243MOL0     C32672   9.179   9.707  11.062 -0.4820 -0.4124 -0.1635
  243MOL0     O32673   9.194   9.826  11.134 -0.7186 -0.1632 -0.1552
  243MOL0     C32674   9.092   9.914  11.171  0.8086  0.3638 -0.8024
  243MOL0     C32675   9.106   9.989  11.287  1.1176 -0.0258  0.1463
  243MOL0     C32676   9.006  10.081  11.330 -0.0078 -0.7594  0.0610
  243MOL0     C32677   8.889  10.101  11.257 -0.5566  0.8723 -0.3277
  243MOL0     O32678   8.803  10.196  11.294  0.2325 -0.1710 -0.0839
  243MOL0     C32679   8.862  10.314  11.339 -0.6442  0.4143 -0.2473
  243MOL0     C32680   8.776  10.434  11.303  0.3946  0.1011  0.1115
  243MOL0     C32681   8.663  10.465  11.405  0.1185  0.4676 -0.3101
  243MOL0     C32682   8.556  10.362  11.424 -0.2184 -0.1856  0.6105
  243MOL0     C32683   8.495  10.378  11.556 -0.1440  0.2893  0.2059
  243MOL0     C32684   8.385  10.266  11.568 -0.1049 -0.0227 -0.2878
  243MOL0     C32685   8.319  10.283  11.703  0.1603  0.2646 -0.5526
  243MOL0     C32686   8.194  10.196  11.718  0.0994 -0.7719  0.3468
  243MOL0     N32687   8.077  10.262  11.655 -0.1671  0.0923 -0.5624
  243MOL0     C32688   8.003  10.358  11.719 -0.2787  0.5892  0.3842
  243MOL0     C32689   7.907  10.385  11.631  0.0605  0.1633  0.6613
  243MOL0     C32690   7.792  10.481  11.655  0.0452 -0.3058 -1.0826
  243MOL0     C32691   7.801  10.594  11.552  0.5341 -0.1784 -0.4341
  243MOL0     C32692   7.691  10.697  11.572  0.0462  0.6168  0.3900
  243MOL0     C32693   7.709  10.810  11.476  0.1520 -0.1572  0.5642
  243MOL0     O32694   7.578  10.823  11.408 -0.0275  0.2507  0.1975
  243MOL0     C32695   7.559  10.873  11.280 -0.9681  0.1870  0.4904
  243MOL0     C32696   7.651  10.959  11.218  0.2033  0.4662 -0.0775
  243MOL0     C32697   7.625  11.011  11.088 -0.0436 -0.0002  0.7713
  243MOL0     C32698   7.716  11.125  11.041  0.5551  0.4325  0.2636
  243MOL0     C32699   7.520  10.963  11.009  0.6169 -0.1157 -0.3125
  243MOL0     C32700   7.469  11.008  10.870 -1.0645 -0.3824  0.6209
  243MOL0     O32701   7.526  11.128  10.818 -0.8343 -1.0808 -0.3093
  243MOL0     C32702   7.489  11.166  10.695 -1.1050 -0.2274 -0.5421
  243MOL0     C32703   7.582  11.143  10.600 -0.7030 -0.6425  0.0024
  243MOL0     C32704   7.556  11.179  10.467 -0.3822 -1.3242  0.1007
  243MOL0     C32705   7.428  11.225  10.430 -0.1298  0.7324 -1.0101
  243MOL0     O32706   7.407  11.252  10.302 -0.0710  0.0866  0.6747
  243MOL0     C32707   7.433  11.135  10.219 -1.0577 -1.2080 -0.6094
  243MOL0     C32708   7.353  11.140  10.096 -0.5343  0.2902  0.7640
  243MOL0     C32709   7.357  11.280  10.035  0.0196 -0.3210  0.2455
  243MOL0     C32710   7.386  11.279   9.882  0.0000 -0.0262 -0.6992
  243MOL0     C32711   7.363  11.420   9.821 -0.3124 -0.0266 -0.6005
  243MOL0     C32712   7.413  11.431   9.683  1.3849 -0.1699 -0.2374
  243MOL0     C32713   7.373  11.556   9.615  0.7982 -0.1040 -0.4960
  243MOL0     C32714   7.412  11.547   9.466 -0.4622 -0.9254 -0.1297
  243MOL0    Cl32715   7.589  11.580   9.454 -0.4072  0.0458 -0.2866
  243MOL0     C32716   7.331  11.251  10.533 -0.8267  0.4943 -0.4398
  243MOL0     C32717   7.364  11.212  10.665 -0.3500  0.7074 -0.5756
  243MOL0     O32718   7.371  10.950  10.818 -0.2430  0.5528  0.0242
  243MOL0     C32719   7.431  10.871  11.067  0.2160  0.0272  0.9797
  243MOL0     C32720   7.440  10.838  11.207  0.1197 -1.0134  0.4436
  243MOL0     N32721   7.920  10.313  11.510 -0.7026  0.4064 -0.6459
  243MOL0     N32722   8.024  10.237  11.528  0.5091 -1.1077 -0.7468
  243MOL0     C32723   8.862  10.014  11.145 -0.6242 -0.9612 -0.5555
  243MOL0     C32724   8.961   9.920  11.104 -0.2821  0.7204 -0.2652
  243MOL0     C32725   9.295   9.621  11.032  0.1276 -0.0345  0.3559
  243MOL0     C32726   9.415   9.643  11.098 -0.1036 -0.1968 -0.5538
  243MOL0     C32727   9.524   9.574  11.061 -0.1999 -0.2392  0.2036
  243MOL0     C32728   9.516   9.470  10.966  0.0389  0.7457 -0.0583
  243MOL0     O32729   9.633   9.408  10.930  0.1418  0.2086  0.6678
  243MOL0     C32730   9.627   9.329  10.812 -0.7833 -0.3219 -0.3690
  243MOL0     C32731   9.605   9.176  10.844 -0.7416  0.5171 -0.1616
  243MOL0     C32732   9.704   9.082  10.763  0.3890 -0.5276  0.5036
  243MOL0     C32733   9.683   8.928  10.780 -0.4789 -0.3448 -0.7594
  243MOL0     C32734   9.788   8.869  10.689  0.3386 -0.1245  0.0110
  243MOL0     C32735   9.880   8.828  10.616 -0.8384 -0.5419  0.6576
  243MOL0     C32736   9.396   9.432  10.908 -1.1303  0.2972  1.0356
  243MOL0     C32737   9.290   9.513  10.937 -0.1213  0.2827 -0.4846
  243MOL0     H32738   9.191   9.989  11.355 -1.0959  1.6225  3.1538
  243MOL0     H32739   9.024  10.121  11.430 -0.6198 -2.0244  0.7071
  243MOL0     H32740   8.875  10.312  11.448 -1.1513 -2.6183 -0.1546
  243MOL0     H32741   8.959  10.319  11.288 -0.2118 -1.0899  0.3795
  243MOL0     H32742   8.845  10.518  11.293 -1.0829  2.0163  4.0391
  243MOL0     H32743   8.720  10.418  11.210 -2.3922  1.8582  1.3510
  243MOL0     H32744   8.717  10.459  11.500 -1.9402 -1.3561  0.8381
  243MOL0     H32745   8.618  10.559  11.372  2.6726  1.2514 -1.8123
  243MOL0     H32746   8.487  10.354  11.339 -1.9990  0.5639  1.9073
  243MOL0     H32747   8.606  10.265  11.437  0.1137  0.0887  1.4357
  243MOL0     H32748   8.580  10.381  11.625  0.6553  2.4514 -0.8064
  243MOL0     H32749   8.451  10.478  11.562  0.8271  0.7993 -0.8164
  243MOL0     H32750   8.311  10.283  11.490 -1.5925  0.1815  1.1143
  243MOL0     H32751   8.433  10.168  11.559 -2.7309 -1.4799  0.5925
  243MOL0     H32752   8.401  10.253  11.769  2.4200  2.3143 -2.2641
  243MOL0     H32753   8.303  10.385  11.738 -0.0967 -0.4807  1.6422
  243MOL0     H32754   8.183  10.169  11.824  2.3642 -0.4551  0.7100
  243MOL0     H32755   8.211  10.100  11.670 -0.8875  0.5462 -2.9839
  243MOL0     H32756   8.023  10.407  11.814 -1.2242  0.1753  0.8007
  243MOL0     H32757   7.702  10.421  11.642  0.3724 -0.9623 -0.3734
  243MOL0     H32758   7.787  10.527  11.755 -1.6653  1.9541 -2.1200
  243MOL0     H32759   7.790  10.547  11.454 -0.6562  0.3967 -0.5935
  243MOL0     H32760   7.895  10.647  11.564  0.7129 -0.6019  0.0556
  243MOL0     H32761   7.708  10.740  11.671  1.5239 -2.0746  1.3958
  243MOL0     H32762   7.595  10.643  11.566  1.0797 -1.2146 -0.5373
  243MOL0     H32763   7.786  10.790  11.401 -1.5802  3.1758 -2.4289
  243MOL0     H32764   7.724  10.911  11.514 -1.7168  1.0449 -1.6309
  243MOL0     H32765   7.731  10.985  11.287  1.4870 -2.3869 -0.3453
  243MOL0     H32766   7.754  11.090  10.945 -0.7500 -0.2774 -0.0134
  243MOL0     H32767   7.664  11.218  11.017  2.7168  1.9911  1.2989
  243MOL0     H32768   7.800  11.144  11.109 -0.1968  3.1106  0.5427
  243MOL0     H32769   7.677  11.095  10.620 -1.2620 -1.1771  1.5232
  243MOL0     H32770   7.630  11.176  10.387 -0.0703 -1.7080  0.3979
  243MOL0     H32771   7.537  11.151  10.191 -1.0706  2.5153  0.9457
  243MOL0     H32772   7.428  11.040  10.273 -0.8829 -0.6171  0.4762
  243MOL0     H32773   7.387  11.064  10.026 -0.7362 -0.1844  1.1698
  243MOL0     H32774   7.247  11.116  10.112 -0.1564  0.2674  3.7321
  243MOL0     H32775   7.437  11.337  10.084  0.9547 -0.5163 -0.9927
  243MOL0     H32776   7.261  11.328  10.057 -0.8500 -2.4934  1.3960
  243MOL0     H32777   7.487  11.240   9.861 -0.8924 -1.9818 -1.6057
  243MOL0     H32778   7.322  11.208   9.830  1.3846 -2.0646  0.2432
  243MOL0     H32779   7.419  11.495   9.878 -1.7912  0.4195  0.3188
  243MOL0     H32780   7.256  11.442   9.832 -0.3666 -0.1283 -0.9079
  243MOL0     H32781   7.522  11.425   9.676  1.5422  2.7286 -2.0357
  243MOL0     H32782   7.371  11.341   9.637 -1.1218 -0.2377  1.9492
  243MOL0     H32783   7.419  11.636   9.675 -2.6018  0.5751  1.4663
  243MOL0     H32784   7.266  11.559   9.634  0.6942 -0.9301 -0.9305
  243MOL0     H32785   7.365  11.617   9.396  0.9961 -1.7875 -2.0422
  243MOL0     H32786   7.411  11.444   9.428 -0.0122 -1.1251  0.3814
  243MOL0     H32787   7.234  11.294  10.512  1.2462  4.8908 -2.4557
  243MOL0     H32788   7.288  11.210  10.742  2.1747 -0.3121  2.1022
  243MOL0     H32789   7.356  10.810  11.017 -1.1881  2.6716 -0.3623
  243MOL0     H32790   7.368  10.784  11.268 -0.3074 -1.6609 -0.6006
  243MOL0     H32791   8.776  10.033  11.082 -0.3823  2.7575  0.0544
  243MOL0     H32792   8.930   9.862  11.018 -1.2896  1.5302 -0.4672
  243MOL0     H32793   9.432   9.718  11.174  0.3881 -0.0851 -0.7663
  243MOL0     H32794   9.623   9.605  11.096  1.1684 -1.8163 -1.9784
  243MOL0     H32795   9.565   9.369  10.732 -0.2925 -3.4606 -2.5007
  243MOL0     H32796   9.724   9.340  10.762 -1.0358  0.7750 -0.6401
  243MOL0     H32797   9.499   9.162  10.822 -0.1935 -1.9673 -1.5450
  243MOL0     H32798   9.642   9.153  10.944  2.8794 -1.9176 -1.8513
  243MOL0     H32799   9.808   9.107  10.788  1.4187 -0.0469 -3.5133
  243MOL0     H32800   9.688   9.108  10.658 -1.8271 -4.0930 -0.2068
  243MOL0     H32801   9.582   8.894  10.755 -1.7862  1.3098  1.8124
  243MOL0     H32802   9.701   8.906  10.886  0.8560 -1.0239 -1.0986
  243MOL0     H32803   9.964   8.788  10.565 -1.5340  0.7386 -1.6445
  243MOL0     H32804   9.391   9.360  10.828  1.8484  0.6679  0.4045
  243MOL0     H32805   9.202   9.486  10.880  0.6466 -1.6619 -0.8122
  244MOL0     O32806   2.590   5.804   5.287 -0.0992 -0.0498  0.4965
  244MOL0     C32807   2.560   5.920   5.300 -0.0794 -0.5780  0.0008
  244MOL0     O32808   2.438   5.962   5.338 -0.5639 -0.2843 -0.0345
  244MOL0     C32809   2.352   5.891   5.414  0.2868 -0.2235 -0.7610
  244MOL0     C32810   2.217   5.924   5.410 -0.5086  1.0087  0.4283
  244MOL0     C32811   2.127   5.845   5.476  0.2105  0.5594  0.2134
  244MOL0     C32812   2.171   5.734   5.559  0.3993 -0.6378  0.4936
  244MOL0     O32813   2.097   5.650   5.636  0.0822  0.6725  0.5833
  244MOL0     C32814   1.957   5.637   5.620  0.3076 -1.4279  0.7655
  244MOL0     C32815   1.909   5.581   5.486  0.9251 -0.2837  0.7005
  244MOL0     C32816   1.964   5.445   5.449  0.5051  0.2335  0.1954
  244MOL0     C32817   1.891   5.397   5.325  0.0518 -0.3641 -0.7568
  244MOL0     C32818   1.919   5.254   5.297  0.0862 -0.9388 -0.0841
  244MOL0     C32819   1.873   5.139   5.397 -0.5336  0.3328 -0.9937
  244MOL0     C32820   1.734   5.150   5.456  0.1748  0.3663 -0.3519
  244MOL0     C32821   1.622   5.144   5.344 -0.1280  0.1796  0.2786
  244MOL0     N32822   1.490   5.151   5.403  0.0796 -0.9726  0.4406
  244MOL0     C32823   1.445   5.068   5.502  1.0162 -0.0667  0.0491
  244MOL0     C32824   1.319   5.115   5.534  0.2653 -0.3059 -0.4240
  244MOL0     C32825   1.245   5.065   5.662 -0.2245  0.1203  0.0151
  244MOL0     C32826   1.086   5.043   5.645 -1.0456  0.0238 -0.3299
  244MOL0     C32827   1.039   4.899   5.605  0.1308 -0.3767  0.0210
  244MOL0     C32828   1.078   4.866   5.457 -0.2896  0.7223 -0.4210
  244MOL0     O32829   0.993   4.752   5.424 -1.1427  0.4755  0.4231
  244MOL0     C32830   0.974   4.713   5.295  0.0770 -0.3671  0.0397
  244MOL0     C32831   1.081   4.691   5.211 -0.2977 -0.0799  1.3096
  244MOL0     C32832   1.079   4.615   5.095  0.6958  0.3419  0.3825
  244MOL0     C32833   1.206   4.596   5.018  0.3324  0.0292  0.4927
  244MOL0     C32834   0.947   4.571   5.043  0.2745  0.3313  0.0632
  244MOL0     C32835   0.918   4.494   4.907 -0.4509  0.2014  0.2882
  244MOL0     O32836   0.800   4.506   4.845 -0.4497 -0.7525  0.1166
  244MOL0     C32837   0.769   4.441   4.726  1.2692  0.2102 -0.0223
  244MOL0     C32838   0.672   4.503   4.644  0.3679  0.0910  0.2855
  244MOL0     C32839   0.640   4.429   4.530  0.3964 -0.3910  0.6613
  244MOL0     C32840   0.678   4.297   4.506  0.0020  0.1398  0.3594
  244MOL0     O32841   0.627   4.234   4.391 -0.4076 -0.7472  0.2226
  244MOL0     C32842   0.703   4.131   4.334  0.5691  0.5579 -0.8004
  244MOL0     C32843   0.690   4.120   4.185 -0.0951 -0.3417  0.2526
  244MOL0     C32844   0.778   4.009   4.130  0.0216  0.3412 -1.4729
  244MOL0     C32845   0.751   3.993   3.982 -1.1608  0.1761 -0.3231
  244MOL0     C32846   0.821   3.877   3.909 -0.7730 -0.4903 -0.0725
  244MOL0     C32847   0.759   3.860   3.776 -0.6111  0.4789 -0.2562
  244MOL0     C32848   0.827   3.732   3.709 -0.3069 -0.7135  0.0168
  244MOL0     C32849   0.777   3.703   3.560  0.6421 -0.1793 -0.0625
  244MOL0    Cl32850   0.623   3.629   3.557 -0.2554  0.0658 -0.3001
  244MOL0     C32851   0.765   4.237   4.606  0.1471 -0.1101 -0.5391
  244MOL0     C32852   0.812   4.311   4.710  0.7717 -0.0203 -0.0339
  244MOL0     O32853   1.014   4.434   4.855  0.4823  0.7307 -1.0050
  244MOL0     C32854   0.835   4.608   5.121 -0.1479 -0.3821 -0.6686
  244MOL0     C32855   0.851   4.671   5.243  0.0710  0.0819 -0.0298
  244MOL0     N32856   1.296   5.231   5.462  0.8659 -0.2909 -0.4091
  244MOL0     N32857   1.397   5.252   5.389  0.0992  0.4195 -0.9046
  244MOL0     C32858   2.309   5.711   5.567 -0.4606  0.6096 -1.2257
  244MOL0     C32859   2.388   5.788   5.491  0.4534 -0.5205 -0.2488
  244MOL0     C32860   2.660   6.029   5.262 -0.3900 -0.6798 -0.0743
  244MOL0     C32861   2.781   5.997   5.209  0.4267  0.3184 -0.4616
  244MOL0     C32862   2.870   6.104   5.191  1.0319  0.3638  0.0583
  244MOL0     C32863   2.842   6.236   5.220 -1.1191  0.2300 -0.8215
  244MOL0     O32864   2.947   6.332   5.206  0.0047 -0.3191  0.0314
  244MOL0     C32865   2.910   6.464   5.163  0.2020  0.2860  0.3717
  244MOL0     C32866   3.022   6.541   5.097  0.1720 -0.2808  0.6202
  244MOL0     C32867   2.989   6.689   5.042 -0.6046 -0.7736  0.7863
  244MOL0     C32868   2.996   6.795   5.149  0.0241 -0.4593 -0.0563
  244MOL0     C32869   2.948   6.918   5.088  0.1264  0.5609 -0.7563
  244MOL0     C32870   2.908   7.019   5.024  0.3164  0.3141 -0.8654
  244MOL0     C32871   2.717   6.271   5.262 -0.5064  0.4517 -0.5102
  244MOL0     C32872   2.619   6.166   5.273 -0.3339 -0.7193 -0.2090
  244MOL0     H32873   2.192   6.008   5.346  1.5628  1.5531  0.2887
  244MOL0     H32874   2.026   5.885   5.478  0.1550  0.5123  3.1449
  244MOL0     H32875   1.924   5.566   5.696 -1.3236 -0.4295  1.0272
  244MOL0     H32876   1.905   5.730   5.643 -1.5834 -1.9039 -1.2566
  244MOL0     H32877   1.802   5.560   5.488  1.3773 -2.9596  0.6094
  244MOL0     H32878   1.931   5.650   5.405  0.8760 -1.2155 -0.1227
  244MOL0     H32879   2.070   5.463   5.430  0.6241  2.7312  2.5035
  244MOL0     H32880   1.940   5.379   5.533  0.3329  1.9673  1.5925
  244MOL0     H32881   1.783   5.402   5.341 -0.0247 -2.1345 -0.4248
  244MOL0     H32882   1.914   5.453   5.234  1.7438  0.0095 -0.1279
  244MOL0     H32883   1.868   5.222   5.206  0.3806 -0.4851 -0.4153
  244MOL0     H32884   2.025   5.247   5.269 -0.9166 -1.3427 -4.5250
  244MOL0     H32885   1.883   5.044   5.343 -1.7412  0.2359 -1.0647
  244MOL0     H32886   1.940   5.135   5.483  1.2788  0.5049 -2.3297
  244MOL0     H32887   1.725   5.060   5.519 -3.7904  0.9497  0.1311
  244MOL0     H32888   1.728   5.235   5.524 -0.9862  0.2146 -0.2427
  244MOL0     H32889   1.623   5.044   5.300  0.8337  0.3873 -0.2032
  244MOL0     H32890   1.637   5.220   5.267  3.4372  0.1282  0.7456
  244MOL0     H32891   1.477   4.978   5.554 -2.2744  0.0970  2.6701
  244MOL0     H32892   1.286   4.967   5.690 -0.7695 -0.6863 -1.8554
  244MOL0     H32893   1.260   5.135   5.744 -0.5626 -1.5129  1.5405
  244MOL0     H32894   1.052   5.110   5.565  0.5609  1.6532  0.2653
  244MOL0     H32895   1.037   5.084   5.734 -0.2226 -0.4030  0.3279
  244MOL0     H32896   0.930   4.895   5.618  0.0987  0.7994  0.1501
  244MOL0     H32897   1.090   4.819   5.659 -0.2696 -1.3535 -0.9980
  244MOL0     H32898   1.184   4.838   5.456 -0.3961 -0.3489  3.4399
  244MOL0     H32899   1.069   4.954   5.392 -0.3928 -0.7607 -2.5297
  244MOL0     H32900   1.180   4.711   5.249 -0.0395  0.3442  0.4466
  244MOL0     H32901   1.278   4.675   5.040 -0.8248  1.3054 -0.1141
  244MOL0     H32902   1.248   4.497   5.035  0.1648 -0.4048 -1.3254
  244MOL0     H32903   1.188   4.605   4.910  3.6429  1.3268 -0.0554
  244MOL0     H32904   0.622   4.597   4.667 -0.5204  0.0749 -1.4331
  244MOL0     H32905   0.569   4.452   4.451 -0.4139  0.1704  1.5383
  244MOL0     H32906   0.810   4.141   4.351  0.9433 -3.1752 -0.0329
  244MOL0     H32907   0.676   4.031   4.368 -0.7524  1.3276  0.5534
  244MOL0     H32908   0.587   4.093   4.160  0.4670 -0.8746 -1.6157
  244MOL0     H32909   0.709   4.218   4.141 -2.9770  0.5324  0.7622
  244MOL0     H32910   0.755   3.915   4.181  0.1372 -0.8185 -3.4507
  244MOL0     H32911   0.885   4.022   4.148  0.5155 -3.1381 -1.1574
  244MOL0     H32912   0.643   3.973   3.975 -1.2806 -0.5421  2.5025
  244MOL0     H32913   0.764   4.091   3.936 -2.4121  1.0958  1.1659
  244MOL0     H32914   0.825   3.792   3.978  3.4821 -0.9987 -0.6574
  244MOL0     H32915   0.926   3.907   3.903 -0.2952 -1.6046  1.8534
  244MOL0     H32916   0.653   3.837   3.791 -0.1967 -1.4369 -0.0258
  244MOL0     H32917   0.771   3.947   3.711  0.9562  1.2296  0.9707
  244MOL0     H32918   0.805   3.641   3.766  0.5747 -1.1090 -0.2653
  244MOL0     H32919   0.936   3.740   3.702  0.0735 -4.5742 -0.9701
  244MOL0     H32920   0.851   3.629   3.529  1.8504  0.5057  1.0883
  244MOL0     H32921   0.776   3.794   3.501 -1.1039 -0.2602 -0.2072
  244MOL0     H32922   0.808   4.138   4.595 -2.0978 -0.9658 -2.3987
  244MOL0     H32923   0.868   4.254   4.783 -2.4671 -2.4468  0.8139
  244MOL0     H32924   0.731   4.599   5.092  0.2112 -0.8602 -1.8646
  244MOL0     H32925   0.760   4.698   5.295  0.1011 -0.9429  0.5769
  244MOL0     H32926   2.355   5.639   5.633 -0.9724  1.3657  0.0020
  244MOL0     H32927   2.494   5.774   5.508  0.4528  0.3554  0.6046
  244MOL0     H32928   2.806   5.899   5.168  4.7911  1.1633 -0.2349
  244MOL0     H32929   2.966   6.080   5.145  1.0564 -0.2065  0.4078
  244MOL0     H32930   2.830   6.446   5.091 -0.4773 -0.9159  1.3950
  244MOL0     H32931   2.868   6.522   5.245 -3.9672 -2.6733  0.6253
  244MOL0     H32932   3.072   6.478   5.024 -0.2114 -0.6932  0.7098
  244MOL0     H32933   3.103   6.540   5.171 -0.1468 -0.5986  0.9685
  244MOL0     H32934   2.892   6.682   4.991  1.5182 -0.0740 -3.8058
  244MOL0     H32935   3.063   6.720   4.968 -3.4654  3.2871 -0.7108
  244MOL0     H32936   3.097   6.798   5.189  0.5344  1.0582 -1.3493
  244MOL0     H32937   2.933   6.776   5.236  0.7275 -0.3398  0.4804
  244MOL0     H32938   2.894   7.114   4.976 -1.1663  2.1820  2.7914
  244MOL0     H32939   2.681   6.372   5.280 -0.9142  0.1076  0.7108
  244MOL0     H32940   2.518   6.189   5.305 -0.2987 -0.6453 -0.1499
  245MOL0     O32941   4.849   9.708   5.121 -0.4846 -0.9159  0.6332
  245MOL0     C32942   4.918   9.771   5.041 -0.2092 -1.3431  0.0565
  245MOL0     O32943   4.948   9.737   4.910 -0.9383  0.7464  0.5077
  245MOL0     C32944   4.894   9.616   4.866  0.7682  0.0895 -0.0850
  245MOL0     C32945   4.955   9.491   4.910 -0.0355 -1.1144 -0.0920
  245MOL0     C32946   4.923   9.367   4.845 -0.5755 -0.7250 -0.6808
  245MOL0     C32947   4.811   9.369   4.768  0.0761 -0.4163  0.2182
  245MOL0     O32948   4.756   9.249   4.720 -0.4704  0.4661  0.5546
  245MOL0     C32949   4.638   9.203   4.795 -0.3382 -0.4177 -0.5356
  245MOL0     C32950   4.603   9.058   4.776  0.1568 -1.0429  0.2118
  245MOL0     C32951   4.704   8.978   4.845 -0.0219  0.1888 -0.0427
  245MOL0     C32952   4.653   8.836   4.897  0.6885 -0.9988  0.8960
  245MOL0     C32953   4.549   8.847   5.011  0.2473  0.4754  0.9657
  245MOL0     C32954   4.626   8.801   5.139  0.5250  1.1642  0.1334
  245MOL0     C32955   4.539   8.802   5.262 -0.5299  0.4198  0.3058
  245MOL0     C32956   4.596   8.722   5.381  0.4121 -0.4464  0.6123
  245MOL0     N32957   4.551   8.581   5.365 -0.2278 -0.1730 -0.4584
  245MOL0     C32958   4.436   8.538   5.427  0.8364  0.1225  0.4068
  245MOL0     C32959   4.455   8.402   5.435  0.3929  0.3856 -0.1693
  245MOL0     C32960   4.359   8.306   5.508  0.8274 -0.5626 -0.1483
  245MOL0     C32961   4.402   8.316   5.662  0.3138 -0.4912  1.0232
  245MOL0     C32962   4.550   8.288   5.682  0.6712 -0.1254 -0.0962
  245MOL0     C32963   4.567   8.225   5.822  0.0909 -0.1846 -0.8246
  245MOL0     O32964   4.546   8.319   5.924 -0.1521 -0.2617 -0.9549
  245MOL0     C32965   4.551   8.263   6.051 -0.9791 -1.0621 -0.1338
  245MOL0     C32966   4.533   8.360   6.153 -0.4975  0.4532 -0.9153
  245MOL0     C32967   4.540   8.327   6.289 -0.1991  0.2238 -0.0729
  245MOL0     C32968   4.506   8.432   6.389  0.4343  0.1252  0.2031
  245MOL0     C32969   4.590   8.198   6.325  0.3443 -0.6592 -0.1855
  245MOL0     C32970   4.601   8.157   6.473  0.1117  0.1551  1.1116
  245MOL0     O32971   4.708   8.082   6.501  0.5429  0.4397  1.0999
  245MOL0     C32972   4.709   8.036   6.632 -0.1432  0.0968  0.0091
  245MOL0     C32973   4.738   8.133   6.730  1.0358  0.3572  0.6558
  245MOL0     C32974   4.751   8.089   6.864 -0.8882  0.3281 -0.0137
  245MOL0     C32975   4.725   7.957   6.899 -0.6742 -0.2592 -0.2049
  245MOL0     O32976   4.746   7.920   7.032 -0.5504  0.1050  0.0718
  245MOL0     C32977   4.680   7.809   7.078  0.0850 -0.1227  0.3641
  245MOL0     C32978   4.666   7.803   7.224  0.2811 -0.1455  0.6443
  245MOL0     C32979   4.581   7.922   7.285 -0.4955  0.5228  0.2182
  245MOL0     C32980   4.657   8.050   7.316 -0.3379  0.0038  0.6213
  245MOL0     C32981   4.580   8.141   7.403  0.9099 -0.4926 -0.3284
  245MOL0     C32982   4.489   8.221   7.318  0.2332 -1.4753 -0.8900
  245MOL0     C32983   4.425   8.333   7.401 -0.4263 -0.3629 -0.4576
  245MOL0     C32984   4.328   8.410   7.303  0.0479  0.0588 -0.4270
  245MOL0    Cl32985   4.240   8.547   7.408 -0.1634 -0.0215 -0.3549
  245MOL0     C32986   4.679   7.868   6.806  0.3813  0.2036 -0.4599
  245MOL0     C32987   4.658   7.907   6.674 -0.2797  0.0324  1.0416
  245MOL0     O32988   4.511   8.180   6.545  0.0304 -0.0956 -0.3818
  245MOL0     C32989   4.603   8.105   6.224 -0.5460  0.0325  0.7721
  245MOL0     C32990   4.586   8.131   6.091 -0.3744  0.2375  0.6827
  245MOL0     N32991   4.574   8.368   5.368 -0.0058  0.2728 -0.3494
  245MOL0     N32992   4.626   8.475   5.338  0.1064 -0.4971  0.7389
  245MOL0     C32993   4.731   9.487   4.741  0.3749 -0.9784  0.8275
  245MOL0     C32994   4.781   9.611   4.778  0.2289 -0.3795 -0.5093
  245MOL0     C32995   4.979   9.899   5.097  0.6857  0.0594  0.0690
  245MOL0     C32996   4.946   9.950   5.227  0.9548 -0.8226 -0.3905
  245MOL0     C32997   4.983  10.076   5.265 -0.6222 -0.0028  0.0179
  245MOL0     C32998   5.054  10.161   5.186  0.3426  0.7928  1.1268
  245MOL0     O32999   5.088  10.293   5.208 -0.5811 -1.1407  0.6198
  245MOL0     C33000   5.012  10.370   5.309 -0.1159 -0.1088 -0.6696
  245MOL0     C33001   5.106  10.373   5.443 -0.1298 -0.1614  0.2640
  245MOL0     C33002   5.067  10.492   5.540 -1.1590 -0.0578  0.3182
  245MOL0     C33003   5.152  10.495   5.668  0.7978  1.0263  0.1446
  245MOL0     C33004   5.201  10.367   5.722 -0.7907 -0.3262  0.3114
  245MOL0     C33005   5.251  10.272   5.773  0.5611  0.7966 -0.2069
  245MOL0     C33006   5.106  10.107   5.072  0.4075 -0.8115  0.1438
  245MOL0     C33007   5.075   9.980   5.024 -0.0403 -0.9794  0.6210
  245MOL0     H33008   5.029   9.500   4.990 -2.7467 -1.3731  2.6235
  245MOL0     H33009   4.955   9.268   4.876 -0.8906 -0.9626 -1.1141
  245MOL0     H33010   4.653   9.227   4.901  1.5453 -2.7433 -0.2108
  245MOL0     H33011   4.554   9.264   4.760 -0.2246 -0.8750 -1.6502
  245MOL0     H33012   4.505   9.031   4.815 -0.0681  0.5968  0.8735
  245MOL0     H33013   4.603   9.035   4.669 -0.5749  1.9529 -0.5222
  245MOL0     H33014   4.795   8.962   4.786 -2.3219 -0.9834 -3.5882
  245MOL0     H33015   4.732   9.035   4.933 -2.6063  0.7401  0.5003
  245MOL0     H33016   4.611   8.789   4.808 -0.6717  1.6867  0.0008
  245MOL0     H33017   4.740   8.780   4.932  0.6317  1.3340  5.6975
  245MOL0     H33018   4.510   8.949   5.012  0.2384  0.6461 -2.6769
  245MOL0     H33019   4.466   8.777   5.001 -1.2657  2.4409 -1.5785
  245MOL0     H33020   4.643   8.696   5.114 -2.2361  1.4422 -3.9286
  245MOL0     H33021   4.709   8.869   5.161 -2.4058  4.0063  3.8114
  245MOL0     H33022   4.527   8.907   5.291  0.4197  0.9806 -1.1948
  245MOL0     H33023   4.441   8.771   5.225  0.4801  1.8106 -4.1860
  245MOL0     H33024   4.540   8.764   5.464 -2.0532 -0.5939 -0.8812
  245MOL0     H33025   4.705   8.737   5.384  0.3311 -0.0022  2.8363
  245MOL0     H33026   4.363   8.608   5.466 -0.6246 -0.1345 -1.6809
  245MOL0     H33027   4.259   8.351   5.501  2.9320  4.6368 -1.7669
  245MOL0     H33028   4.369   8.206   5.466 -0.1359 -0.2593 -1.1671
  245MOL0     H33029   4.346   8.235   5.708 -2.6718  0.8025 -0.0725
  245MOL0     H33030   4.377   8.413   5.705 -1.0041 -0.1458 -0.4243
  245MOL0     H33031   4.623   8.368   5.663 -0.3982  1.0766  0.6857
  245MOL0     H33032   4.575   8.209   5.611 -0.5508 -1.2508  0.6838
  245MOL0     H33033   4.670   8.191   5.840 -0.8519 -3.7329 -1.4155
  245MOL0     H33034   4.499   8.140   5.825 -1.0263  0.5898  3.9520
  245MOL0     H33035   4.506   8.458   6.114 -3.0840 -0.9201 -2.9454
  245MOL0     H33036   4.562   8.429   6.483 -1.5327 -2.4566  1.4360
  245MOL0     H33037   4.518   8.532   6.347  3.3394 -1.1235 -2.2521
  245MOL0     H33038   4.402   8.414   6.417  0.7356 -2.8230 -0.2927
  245MOL0     H33039   4.780   8.228   6.700  1.1156 -0.2657 -1.3360
  245MOL0     H33040   4.797   8.143   6.946  1.4098 -3.9604  1.8909
  245MOL0     H33041   4.584   7.803   7.026 -0.2964 -0.6204  1.1035
  245MOL0     H33042   4.742   7.722   7.053  1.8448  1.5100 -1.2582
  245MOL0     H33043   4.610   7.710   7.236 -0.9935  0.5096 -0.0429
  245MOL0     H33044   4.766   7.805   7.267 -0.3468  0.4759  2.1475
  245MOL0     H33045   4.545   7.886   7.382  1.9451 -1.3433  0.5416
  245MOL0     H33046   4.490   7.933   7.225 -0.6654 -2.0499 -0.1188
  245MOL0     H33047   4.748   8.019   7.370  1.5523  2.1117 -1.1703
  245MOL0     H33048   4.699   8.107   7.233 -0.1215 -0.6453  0.2783
  245MOL0     H33049   4.656   8.203   7.452  3.5570 -4.1975  0.6439
  245MOL0     H33050   4.528   8.090   7.484  3.5199 -0.3097  1.5830
  245MOL0     H33051   4.534   8.274   7.234 -0.4666  0.5325 -0.0629
  245MOL0     H33052   4.406   8.161   7.280 -0.6953  0.6662 -2.4488
  245MOL0     H33053   4.500   8.395   7.451 -1.5454  0.9243 -0.3202
  245MOL0     H33054   4.361   8.287   7.476  0.9232  0.4571  1.2655
  245MOL0     H33055   4.247   8.345   7.271  1.0431 -1.4078 -0.0425
  245MOL0     H33056   4.367   8.459   7.213 -4.0303  1.0111 -1.9036
  245MOL0     H33057   4.659   7.766   6.835  1.0418  0.3927  0.6929
  245MOL0     H33058   4.611   7.848   6.596  1.3443 -2.8636  2.0876
  245MOL0     H33059   4.623   8.005   6.261 -1.2026  0.4038  2.2352
  245MOL0     H33060   4.597   8.046   6.024  1.7692  0.9983 -0.0247
  245MOL0     H33061   4.638   9.489   4.686  1.0461  2.5340 -0.4316
  245MOL0     H33062   4.741   9.709   4.752  1.7353  0.2054 -0.7774
  245MOL0     H33063   4.888   9.891   5.297 -0.2283  2.1640  1.3264
  245MOL0     H33064   4.964  10.114   5.366  3.2728  3.9483 -0.4268
  245MOL0     H33065   5.002  10.470   5.264  0.8974  0.6988  0.8169
  245MOL0     H33066   4.911  10.335   5.333  0.1541  0.5070  1.6189
  245MOL0     H33067   5.214  10.384   5.429 -0.5053  3.0429 -1.0709
  245MOL0     H33068   5.093  10.275   5.489  0.0239 -0.5075 -0.4140
  245MOL0     H33069   4.963  10.482   5.571 -1.1066  0.8670  0.8186
  245MOL0     H33070   5.079  10.590   5.492  1.8203  0.0370  1.0601
  245MOL0     H33071   5.087  10.553   5.734 -1.8849  0.6738 -1.9919
  245MOL0     H33072   5.240  10.559   5.658  0.7330  1.7212  3.1475
  245MOL0     H33073   5.311  10.197   5.820 -0.9861 -0.2553  0.1651
  245MOL0     H33074   5.180  10.168   5.021  1.2846 -3.1031 -1.4713
  245MOL0     H33075   5.132   9.954   4.935  2.1023 -2.3575  2.3032
  246MOL0     O33076   1.192   0.582   9.496 -0.5362  0.8972  0.2450
  246MOL0     C33077   1.270   0.639   9.423 -0.6548  0.1199 -0.2893
  246MOL0     O33078   1.248   0.674   9.293  0.3091  0.1232 -0.4187
  246MOL0     C33079   1.130   0.646   9.220 -0.3813  0.8991  0.0046
  246MOL0     C33080   1.016   0.568   9.248  0.3110  0.0782  0.1819
  246MOL0     C33081   0.916   0.534   9.147 -1.0331  0.1398 -0.3118
  246MOL0     C33082   0.922   0.583   9.016  0.9062 -0.6553 -0.8614
  246MOL0     O33083   0.835   0.553   8.907 -0.3900 -0.1178  0.2239
  246MOL0     C33084   0.704   0.490   8.922 -0.1996 -0.5495  0.1628
  246MOL0     C33085   0.674   0.442   8.785  0.0351  0.4923 -0.1263
  246MOL0     C33086   0.550   0.350   8.792  0.5556  0.1281  0.0704
  246MOL0     C33087   0.523   0.302   8.640  0.5616  0.2949  0.0764
  246MOL0     C33088   0.424   0.187   8.627  0.5182  0.0583 -0.1853
  246MOL0     C33089   0.373   0.155   8.481  0.1464  0.1344  0.2905
  246MOL0     C33090   0.325   0.008   8.483 -0.0125  0.6772 -0.4947
  246MOL0     C33091   0.178   0.002   8.506 -1.1710  0.0884 -0.4335
  246MOL0     N33092   0.138  -0.131   8.535 -0.6424 -0.6179  0.3079
  246MOL0     C33093   0.124  -0.188   8.655 -0.1515 -0.6190 -0.4625
  246MOL0     C33094   0.051  -0.301   8.621  0.4813  0.0302 -0.7933
  246MOL0     C33095   0.041  -0.402   8.736  0.1009  0.5045  0.0622
  246MOL0     C33096  -0.071  -0.381   8.835  0.1557 -0.0111  0.1637
  246MOL0     C33097  -0.023  -0.316   8.960  0.1419  0.0961  0.0719
  246MOL0     C33098  -0.146  -0.327   9.069 -0.6271 -0.7233 -0.8670
  246MOL0     O33099  -0.262  -0.244   9.031  0.2283  0.0202 -0.5893
  246MOL0     C33100  -0.378  -0.268   9.100  0.7072  0.4394  0.1142
  246MOL0     C33101  -0.494  -0.214   9.053  0.7853 -0.5643 -0.0057
  246MOL0     C33102  -0.621  -0.230   9.102  0.3922  0.7411 -0.3483
  246MOL0     C33103  -0.743  -0.163   9.040  0.8398  0.0183  0.0657
  246MOL0     C33104  -0.631  -0.314   9.215  0.3702 -0.0505 -0.3804
  246MOL0     C33105  -0.761  -0.337   9.286 -0.9398  0.3440  0.1078
  246MOL0     O33106  -0.754  -0.413   9.395 -0.9671 -0.5848 -0.8766
  246MOL0     C33107  -0.857  -0.388   9.487 -0.4673  0.0225 -0.2871
  246MOL0     C33108  -0.947  -0.500   9.514 -0.4593  0.0154 -0.1266
  246MOL0     C33109  -1.045  -0.468   9.609 -0.1158  0.3332  0.3311
  246MOL0     C33110  -1.065  -0.344   9.646 -0.0700 -0.9090 -0.2105
  246MOL0     O33111  -1.180  -0.339   9.726 -0.5339 -0.8076 -0.1785
  246MOL0     C33112  -1.233  -0.218   9.773  0.6002 -0.4650 -1.5869
  246MOL0     C33113  -1.382  -0.234   9.829  0.3194 -0.4556  0.1500
  246MOL0     C33114  -1.401  -0.351   9.921  0.2080 -0.6884 -0.2049
  246MOL0     C33115  -1.557  -0.370   9.963  0.6504 -0.0377 -0.2253
  246MOL0     C33116  -1.587  -0.449  10.096  0.7868  0.2334  0.9869
  246MOL0     C33117  -1.516  -0.588  10.107  0.4755  0.5981 -0.5102
  246MOL0     C33118  -1.519  -0.632  10.248 -0.3159  0.1586 -0.2807
  246MOL0     C33119  -1.653  -0.689  10.289 -0.3386  0.5761  0.9702
  246MOL0    Cl33120  -1.662  -0.693  10.465 -0.2908  0.1636  0.6761
  246MOL0     C33121  -0.980  -0.230   9.621 -0.3962 -0.1750 -0.2640
  246MOL0     C33122  -0.874  -0.258   9.531 -0.3179  0.0615 -0.2641
  246MOL0     O33123  -0.867  -0.294   9.243 -0.3789  0.9158 -0.2430
  246MOL0     C33124  -0.510  -0.366   9.271 -0.2718  1.1784  0.6467
  246MOL0     C33125  -0.391  -0.345   9.216  0.6057 -0.3237  0.6114
  246MOL0     N33126   0.049  -0.319   8.479 -1.1115  0.4775 -0.6514
  246MOL0     N33127   0.105  -0.214   8.432 -0.0439 -0.2110 -0.1488
  246MOL0     C33128   1.020   0.678   8.989  0.3249 -0.3784 -0.2223
  246MOL0     C33129   1.120   0.702   9.089 -0.7751 -0.2805  0.2633
  246MOL0     C33130   1.395   0.675   9.486 -0.9988  0.1620  0.1816
  246MOL0     C33131   1.500   0.715   9.403 -0.0134  0.0716 -0.1528
  246MOL0     C33132   1.631   0.727   9.455  0.5196  0.1201  0.2696
  246MOL0     C33133   1.665   0.684   9.582 -0.7643  0.3700 -0.1787
  246MOL0     O33134   1.800   0.683   9.620 -0.2037  0.1537  0.3248
  246MOL0     C33135   1.836   0.640   9.748  0.0310 -0.1877 -0.5417
  246MOL0     C33136   1.986   0.633   9.768  0.1295  0.0858  0.2294
  246MOL0     C33137   2.062   0.762   9.732 -0.1322  1.3606  0.5296
  246MOL0     C33138   2.037   0.879   9.831 -0.1571  0.1721 -0.8161
  246MOL0     C33139   2.130   0.985   9.809 -0.9806 -0.0796 -0.4292
  246MOL0     C33140   2.212   1.066   9.771 -0.8879  0.7824  0.0366
  246MOL0     C33141   1.556   0.658   9.666  0.3770  0.5235 -0.0970
  246MOL0     C33142   1.422   0.648   9.619 -0.7410  0.4308  0.7258
  246MOL0     H33143   1.010   0.511   9.340  2.4015 -1.9208 -0.8208
  246MOL0     H33144   0.843   0.456   9.163 -1.2068 -0.4702 -3.4094
  246MOL0     H33145   0.710   0.407   8.994  0.8888  0.6276  1.4696
  246MOL0     H33146   0.625   0.557   8.958  1.5610  1.3926  0.6005
  246MOL0     H33147   0.654   0.530   8.724  0.5685 -0.9303 -2.4453
  246MOL0     H33148   0.763   0.384   8.761  0.2720  0.5396  0.6064
  246MOL0     H33149   0.571   0.260   8.852 -1.9126 -2.2277 -2.2972
  246MOL0     H33150   0.460   0.397   8.833 -1.4536 -2.3302 -1.1680
  246MOL0     H33151   0.494   0.395   8.591  0.0539  1.2601  2.0918
  246MOL0     H33152   0.618   0.264   8.602  0.3586 -0.9942  0.7611
  246MOL0     H33153   0.485   0.104   8.663  2.3095 -0.1498 -3.3803
  246MOL0     H33154   0.336   0.213   8.686  0.4477  0.7243 -0.5697
  246MOL0     H33155   0.298   0.227   8.447  0.8128 -0.9129 -3.9316
  246MOL0     H33156   0.456   0.156   8.410 -0.6699 -2.3180 -0.8080
  246MOL0     H33157   0.361  -0.044   8.393  3.2274 -1.0905  1.6191
  246MOL0     H33158   0.378  -0.047   8.561 -1.7694 -1.3743 -0.6442
  246MOL0     H33159   0.136   0.058   8.423 -4.3074  1.5778  1.9351
  246MOL0     H33160   0.149   0.070   8.587 -0.6527 -0.5803  0.3303
  246MOL0     H33161   0.148  -0.145   8.751 -0.8614  0.4946 -0.7603
  246MOL0     H33162   0.011  -0.497   8.690 -0.8737  1.1270 -0.6367
  246MOL0     H33163   0.136  -0.415   8.788  0.9870 -0.7198 -1.7652
  246MOL0     H33164  -0.112  -0.475   8.874  2.5777 -0.3993  1.9888
  246MOL0     H33165  -0.156  -0.334   8.786  0.7498  0.5986 -0.2843
  246MOL0     H33166  -0.009  -0.209   8.943  1.7878 -0.3018 -1.3322
  246MOL0     H33167   0.066  -0.371   8.993 -0.7786 -0.5764  1.5554
  246MOL0     H33168  -0.104  -0.291   9.163 -2.5442 -0.7876  0.0677
  246MOL0     H33169  -0.180  -0.430   9.085  0.9784 -1.5580 -2.5158
  246MOL0     H33170  -0.474  -0.169   8.956  1.7732 -3.1696 -1.0875
  246MOL0     H33171  -0.829  -0.223   9.008  1.4239 -1.0307  0.3861
  246MOL0     H33172  -0.782  -0.079   9.098 -0.3878 -0.0846 -0.5869
  246MOL0     H33173  -0.714  -0.120   8.943 -0.6589 -2.3369 -1.5299
  246MOL0     H33174  -0.928  -0.601   9.477 -1.4291 -0.8313  1.5612
  246MOL0     H33175  -1.124  -0.537   9.636  0.4562 -0.9671 -1.1761
  246MOL0     H33176  -1.172  -0.167   9.849  0.5820 -1.7010 -0.7136
  246MOL0     H33177  -1.231  -0.143   9.693 -0.0509  0.6976 -0.5481
  246MOL0     H33178  -1.411  -0.132   9.856  1.6066  0.7002 -2.4571
  246MOL0     H33179  -1.439  -0.260   9.739  0.0210  0.9237 -0.0860
  246MOL0     H33180  -1.345  -0.332  10.013 -1.9670  2.6875  0.6211
  246MOL0     H33181  -1.378  -0.439   9.860 -0.6561 -2.5223  1.9818
  246MOL0     H33182  -1.576  -0.268   9.998  3.3997  0.1424  1.0167
  246MOL0     H33183  -1.627  -0.401   9.885 -3.9545 -3.2753  4.4670
  246MOL0     H33184  -1.696  -0.453  10.105  0.1722  0.7515 -3.7023
  246MOL0     H33185  -1.550  -0.384  10.176  1.3656 -0.2727  1.1328
  246MOL0     H33186  -1.562  -0.664  10.043  2.3180  1.2006 -2.6809
  246MOL0     H33187  -1.413  -0.593  10.072  0.9200  0.1547  0.7852
  246MOL0     H33188  -1.480  -0.560  10.320  0.8752 -0.3113 -0.4267
  246MOL0     H33189  -1.463  -0.725  10.261  2.7060  1.7259 -1.0904
  246MOL0     H33190  -1.647  -0.790  10.247 -0.6230  1.4925 -1.4132
  246MOL0     H33191  -1.738  -0.639  10.241  0.8078  1.7199  0.0596
  246MOL0     H33192  -0.993  -0.139   9.678  0.4296 -0.2575  0.0663
  246MOL0     H33193  -0.809  -0.176   9.502 -0.5198 -0.2925 -1.8398
  246MOL0     H33194  -0.510  -0.436   9.354  0.6007  0.2908 -0.0862
  246MOL0     H33195  -0.305  -0.390   9.265  0.7269 -2.0986 -1.0939
  246MOL0     H33196   1.017   0.728   8.892  0.4597  0.6024  0.2621
  246MOL0     H33197   1.199   0.772   9.063 -0.1915 -1.5095 -1.4666
  246MOL0     H33198   1.477   0.735   9.299  0.4270  1.5379 -0.0032
  246MOL0     H33199   1.707   0.757   9.384  1.3741  0.0442  1.1326
  246MOL0     H33200   1.809   0.720   9.817  2.4605  0.2538 -0.0021
  246MOL0     H33201   1.798   0.540   9.772  2.1241 -1.1838 -1.0858
  246MOL0     H33202   2.032   0.550   9.714 -2.0589 -1.0319 -0.0084
  246MOL0     H33203   2.008   0.603   9.871 -0.2174 -3.1911 -0.5440
  246MOL0     H33204   2.045   0.781   9.625  1.8295  3.2646  0.5041
  246MOL0     H33205   2.167   0.734   9.733  0.5287  3.5120 -0.8377
  246MOL0     H33206   2.033   0.836   9.931  2.0215 -0.0433 -0.7593
  246MOL0     H33207   1.938   0.925   9.826 -0.6542 -0.9443 -2.1591
  246MOL0     H33208   2.279   1.142   9.737 -2.6140  2.8314  0.9715
  246MOL0     H33209   1.568   0.612   9.764  1.4235 -0.4746 -0.6632
  246MOL0     H33210   1.336   0.619   9.678 -0.8310 -1.8161 -0.3968
  247MOL0     O33211  10.559   7.872   3.483 -0.0982  0.5417 -0.2742
  247MOL0     C33212  10.631   7.967   3.486  0.1757 -0.1506  0.0158
  247MOL0     O33213  10.601   8.081   3.415  0.2926  0.5502  0.2072
  247MOL0     C33214  10.471   8.107   3.397 -0.2152 -0.1453  0.0888
  247MOL0     C33215  10.369   8.088   3.495 -0.4795 -0.7472 -0.6066
  247MOL0     C33216  10.244   8.138   3.465 -0.5439  0.7943 -0.4988
  247MOL0     C33217  10.213   8.195   3.336 -0.4239  0.1501  0.3251
  247MOL0     O33218  10.088   8.256   3.326 -0.0154 -0.0998  0.0546
  247MOL0     C33219  10.027   8.260   3.196 -0.5009 -0.0873  0.5891
  247MOL0     C33220  10.005   8.124   3.131 -1.0521 -0.6441  0.8577
  247MOL0     C33221   9.908   8.037   3.204  0.8044 -0.1210 -0.3548
  247MOL0     C33222   9.863   7.903   3.139 -0.1556 -0.2622  0.4131
  247MOL0     C33223   9.728   7.850   3.194 -0.5848 -0.7739 -0.1915
  247MOL0     C33224   9.714   7.697   3.194 -0.0203  0.5755  0.3528
  247MOL0     C33225   9.577   7.647   3.259 -0.0857  0.7258 -0.0372
  247MOL0     C33226   9.558   7.504   3.306 -0.6599 -0.1199 -0.3388
  247MOL0     N33227   9.420   7.459   3.303 -0.5579 -0.0229 -0.5201
  247MOL0     C33228   9.393   7.323   3.271 -0.2476 -1.2555 -0.0765
  247MOL0     C33229   9.269   7.316   3.311 -0.4185  0.6008 -0.8431
  247MOL0     C33230   9.200   7.181   3.282  0.2547 -0.0913  0.0393
  247MOL0     C33231   9.184   7.163   3.122  0.2713  0.8210 -0.6674
  247MOL0     C33232   9.215   7.027   3.075 -0.3707  0.4412 -0.5672
  247MOL0     C33233   9.095   6.954   3.001 -0.5059 -0.3616  0.1516
  247MOL0     O33234   8.984   6.903   3.079 -0.2747  0.3696 -0.5256
  247MOL0     C33235   8.857   6.918   3.033  0.1700 -0.4035 -0.6967
  247MOL0     C33236   8.764   6.907   3.138  0.5725  0.4110 -0.1096
  247MOL0     C33237   8.620   6.929   3.119  0.3002  0.2188  1.0873
  247MOL0     C33238   8.529   6.934   3.242 -0.4435  0.2115 -0.1552
  247MOL0     C33239   8.574   6.954   2.988  0.7850 -0.7855 -0.3762
  247MOL0     C33240   8.430   6.956   2.950  0.3306 -0.6764  0.2896
  247MOL0     O33241   8.405   6.930   2.819  0.5824  0.3107  0.3028
  247MOL0     C33242   8.269   6.929   2.778 -0.0215 -0.4486  0.1584
  247MOL0     C33243   8.199   7.049   2.759 -0.8727 -0.1421 -0.0196
  247MOL0     C33244   8.079   7.048   2.693  0.2758 -0.6669  0.5644
  247MOL0     C33245   8.022   6.930   2.665 -0.8383  0.6443  0.0335
  247MOL0     O33246   7.901   6.938   2.597 -0.0899  0.5922  0.2007
  247MOL0     C33247   7.888   6.852   2.492 -0.0640  0.7737 -0.5377
  247MOL0     C33248   7.814   6.915   2.372 -0.6212 -0.0342 -0.4068
  247MOL0     C33249   7.860   7.055   2.328 -0.1506  0.4609 -0.1864
  247MOL0     C33250   7.820   7.093   2.180  0.4662 -0.2916 -0.7545
  247MOL0     C33251   7.808   7.257   2.177 -0.4931  0.0968  1.2137
  247MOL0     C33252   7.794   7.313   2.035 -1.0248  0.1536 -0.4396
  247MOL0     C33253   7.685   7.254   1.936  0.4183  0.9547  0.2768
  247MOL0     C33254   7.552   7.246   1.995  0.1769  0.7893 -0.2931
  247MOL0    Cl33255   7.451   7.121   1.909  0.4729  0.0976  0.1129
  247MOL0     C33256   8.083   6.814   2.709 -0.6101 -0.8193  0.0603
  247MOL0     C33257   8.207   6.808   2.759  0.7332  0.7454  0.0459
  247MOL0     O33258   8.345   7.006   3.030  0.2952  0.1753  0.5416
  247MOL0     C33259   8.670   6.963   2.884  0.3834  0.4861  0.2672
  247MOL0     C33260   8.805   6.946   2.901 -0.4309  1.4087  0.1905
  247MOL0     N33261   9.210   7.441   3.339  0.4110  0.0646  0.5004
  247MOL0     N33262   9.306   7.520   3.342 -0.2365  0.4013 -0.5496
  247MOL0     C33263  10.311   8.200   3.242 -0.1583  0.4765 -0.1825
  247MOL0     C33264  10.442   8.166   3.269 -0.9322 -0.6351  0.0574
  247MOL0     C33265  10.756   7.953   3.550 -0.1723 -0.9016  0.6455
  247MOL0     C33266  10.807   7.835   3.589 -0.4194  0.2162  0.5810
  247MOL0     C33267  10.925   7.831   3.670  0.4085  0.1350 -0.3055
  247MOL0     C33268  10.999   7.942   3.701  0.0509  0.3308 -1.3542
  247MOL0     O33269  11.116   7.936   3.768 -0.5755 -0.7212 -0.3291
  247MOL0     C33270  11.100   7.940   3.913 -1.1144 -0.4264 -0.0161
  247MOL0     C33271  11.226   7.889   3.980 -0.0556 -0.1115 -1.1348
  247MOL0     C33272  11.241   7.734   3.943 -0.6221 -0.4048 -0.4340
  247MOL0     C33273  11.362   7.677   4.024  0.4242  0.3320 -0.4837
  247MOL0     C33274  11.358   7.533   4.015  0.4363  0.6058  0.2483
  247MOL0     C33275  11.337   7.411   4.009 -0.2554 -0.6469 -0.5295
  247MOL0     C33276  10.960   8.058   3.637 -0.5564  0.7476  0.4065
  247MOL0     C33277  10.839   8.067   3.573 -0.0480 -0.2805 -0.2635
  247MOL0     H33278  10.410   8.045   3.586  1.9146  0.4333 -1.0537
  247MOL0     H33279  10.166   8.142   3.540  1.6239  0.9280  1.8658
  247MOL0     H33280   9.931   8.309   3.218  0.8255  2.9937 -0.0075
  247MOL0     H33281  10.081   8.320   3.122 -0.8637 -1.4603 -0.8586
  247MOL0     H33282   9.967   8.142   3.030 -0.3246 -0.4559  0.6126
  247MOL0     H33283  10.108   8.085   3.130 -0.7691 -0.0002  2.1478
  247MOL0     H33284   9.959   8.023   3.300  3.0692  2.0919 -1.0966
  247MOL0     H33285   9.823   8.104   3.220  1.9823  1.4212 -0.2191
  247MOL0     H33286   9.859   7.913   3.030  0.5855  0.5334  0.4504
  247MOL0     H33287   9.947   7.838   3.166 -1.5239 -2.1999  0.1696
  247MOL0     H33288   9.720   7.889   3.296  3.0476 -1.5437  0.5345
  247MOL0     H33289   9.647   7.886   3.130 -0.5898 -1.5855 -0.6580
  247MOL0     H33290   9.720   7.668   3.089 -0.6221 -1.7977  0.9228
  247MOL0     H33291   9.808   7.675   3.245  0.2499  0.6605 -0.1041
  247MOL0     H33292   9.563   7.699   3.354 -1.0000  0.1967  0.1299
  247MOL0     H33293   9.499   7.668   3.186 -0.7073 -2.6859 -0.5383
  247MOL0     H33294   9.602   7.484   3.404 -2.0279 -2.4127 -0.1176
  247MOL0     H33295   9.615   7.435   3.242 -0.0330 -0.3641  0.4704
  247MOL0     H33296   9.460   7.260   3.214  3.1875  3.0089 -1.3642
  247MOL0     H33297   9.258   7.095   3.316  1.8439  1.1732  0.6185
  247MOL0     H33298   9.102   7.194   3.329  1.5546  5.5519  1.9577
  247MOL0     H33299   9.252   7.236   3.077  1.1396  1.2296  1.1743
  247MOL0     H33300   9.082   7.192   3.099  0.4542  2.1295  0.0709
  247MOL0     H33301   9.263   6.964   3.151  2.3133  1.8014 -1.0035
  247MOL0     H33302   9.297   7.027   3.003  0.0586 -0.5470 -0.0999
  247MOL0     H33303   9.147   6.874   2.947  1.2690 -0.4383  1.8364
  247MOL0     H33304   9.058   7.025   2.927 -0.4687 -1.9680 -1.4617
  247MOL0     H33305   8.799   6.877   3.236 -3.9794  0.3217  1.7454
  247MOL0     H33306   8.593   6.901   3.325 -1.1888  2.9447  1.6111
  247MOL0     H33307   8.509   7.039   3.264 -0.3758  0.1858  0.0281
  247MOL0     H33308   8.429   6.890   3.236 -0.8188  0.4231  2.8233
  247MOL0     H33309   8.241   7.139   2.804  0.4847 -0.0226 -1.4336
  247MOL0     H33310   8.035   7.144   2.670  2.2655  0.5829  1.6757
  247MOL0     H33311   7.982   6.824   2.444  0.6387 -0.1478  1.3172
  247MOL0     H33312   7.846   6.759   2.532  1.7182 -0.8691 -2.2685
  247MOL0     H33313   7.817   6.841   2.292  1.5859 -1.8686  1.2309
  247MOL0     H33314   7.708   6.917   2.399 -0.6984 -0.9833 -0.5916
  247MOL0     H33315   7.968   7.067   2.341 -0.2747  1.6336 -0.1446
  247MOL0     H33316   7.817   7.125   2.400  4.1394  2.3577  0.8769
  247MOL0     H33317   7.895   7.059   2.108  4.1054  0.9727  2.1118
  247MOL0     H33318   7.720   7.049   2.182 -0.0355  0.8284 -0.8448
  247MOL0     H33319   7.889   7.310   2.227 -1.5765  1.8746  1.1665
  247MOL0     H33320   7.721   7.294   2.232 -0.8872 -0.2045  0.7997
  247MOL0     H33321   7.770   7.419   2.048  0.5283  0.4434  0.3161
  247MOL0     H33322   7.893   7.307   1.987  1.6955 -2.7992  4.6509
  247MOL0     H33323   7.721   7.151   1.924 -1.4492  0.0999  1.6273
  247MOL0     H33324   7.679   7.300   1.837  1.1149  1.1639  0.3243
  247MOL0     H33325   7.507   7.343   1.975 -1.6677  0.4725  1.9904
  247MOL0     H33326   7.550   7.228   2.103 -4.6131 -0.2360 -0.3261
  247MOL0     H33327   8.030   6.720   2.702 -0.2515 -0.9992 -0.2980
  247MOL0     H33328   8.261   6.722   2.799  6.4385  1.5274 -4.5686
  247MOL0     H33329   8.645   6.978   2.779  0.6806 -0.5199  0.0388
  247MOL0     H33330   8.871   6.960   2.817 -0.8644  1.2759 -0.1753
  247MOL0     H33331  10.302   8.236   3.139  1.1554 -0.9093 -0.8172
  247MOL0     H33332  10.521   8.179   3.196  0.6842  0.3968  1.9223
  247MOL0     H33333  10.756   7.741   3.568 -3.1013  1.0184  2.8218
  247MOL0     H33334  10.962   7.736   3.706  1.2341  0.5144 -0.1161
  247MOL0     H33335  11.073   8.035   3.960  1.4607 -0.8949  2.7566
  247MOL0     H33336  11.016   7.873   3.931  0.6714 -2.7031  0.4101
  247MOL0     H33337  11.225   7.902   4.088  1.8380  3.5813 -1.4175
  247MOL0     H33338  11.307   7.949   3.938 -2.0805  3.4000 -0.4121
  247MOL0     H33339  11.253   7.719   3.835  1.4504  1.1421 -0.4929
  247MOL0     H33340  11.154   7.679   3.979  1.2407 -1.9193  2.0582
  247MOL0     H33341  11.346   7.698   4.131  2.5784  1.2341 -0.2826
  247MOL0     H33342  11.461   7.705   3.989  0.1673 -0.0286 -1.5239
  247MOL0     H33343  11.316   7.308   3.991 -1.8025 -0.6886  1.2478
  247MOL0     H33344  11.023   8.143   3.660  1.1043 -0.3692  0.1785
  247MOL0     H33345  10.809   8.164   3.535 -0.9083 -0.8722 -1.1592
  248MOL0     O33346   6.440   3.856   6.097  0.5713 -0.0324  0.2463
  248MOL0     C33347   6.422   3.970   6.055  0.1837  0.8619 -0.2206
  248MOL0     O33348   6.486   4.080   6.097 -0.5450 -0.2806 -0.3336
  248MOL0     C33349   6.565   4.076   6.213  0.3565 -0.1666  0.5664
  248MOL0     C33350   6.524   4.166   6.319 -0.3186  0.0285  0.3100
  248MOL0     C33351   6.616   4.179   6.431  0.2167  0.6013 -0.8436
  248MOL0     C33352   6.732   4.093   6.441  0.7620 -0.7255 -0.5379
  248MOL0     O33353   6.805   4.087   6.557  0.3875  0.1047 -0.9128
  248MOL0     C33354   6.940   4.035   6.567  0.2505 -0.7057 -0.0580
  248MOL0     C33355   7.003   4.088   6.696  0.3142  0.6754  0.3609
  248MOL0     C33356   7.153   4.110   6.685 -0.6514  0.4257 -0.0365
  248MOL0     C33357   7.184   4.250   6.641 -0.3924  1.0344 -0.3060
  248MOL0     C33358   7.328   4.282   6.591  0.8995 -0.6331 -0.2380
  248MOL0     C33359   7.386   4.392   6.675  0.3433  0.1200 -0.3944
  248MOL0     C33360   7.506   4.474   6.627  0.9857  0.1991 -0.3360
  248MOL0     C33361   7.617   4.389   6.552  0.5673  0.5381 -0.4766
  248MOL0     N33362   7.585   4.370   6.411 -0.7021 -0.7061 -0.1809
  248MOL0     C33363   7.563   4.476   6.330 -0.1918  0.7797  0.7833
  248MOL0     C33364   7.563   4.415   6.210 -0.4007  0.7630  0.1276
  248MOL0     C33365   7.538   4.471   6.077  0.0363  0.5980 -0.4421
  248MOL0     C33366   7.409   4.410   6.017 -0.3968  0.0655 -0.1553
  248MOL0     C33367   7.451   4.328   5.883  0.0167 -0.6766 -0.5063
  248MOL0     C33368   7.547   4.212   5.909  0.1334  0.1277  1.3985
  248MOL0     O33369   7.595   4.155   5.779  0.4086 -0.2146  0.8988
  248MOL0     C33370   7.478   4.110   5.715  0.0705  0.4523 -0.0510
  248MOL0     C33371   7.417   4.196   5.616 -0.0487  0.0369  0.0792
  248MOL0     C33372   7.301   4.161   5.557  0.0222 -0.5373  0.8283
  248MOL0     C33373   7.238   4.269   5.475  0.4801  0.8890  0.8450
  248MOL0     C33374   7.242   4.033   5.573  0.4265 -0.1196 -0.0828
  248MOL0     C33375   7.137   3.974   5.491 -0.5170 -0.4892  0.4193
  248MOL0     O33376   7.123   3.843   5.489 -0.3908 -0.0564  0.1070
  248MOL0     C33377   7.021   3.776   5.429  0.0218  0.2789 -0.2137
  248MOL0     C33378   7.041   3.645   5.391 -0.3149  0.6490  0.0349
  248MOL0     C33379   6.938   3.558   5.346  0.9164  0.6238  0.2765
  248MOL0     C33380   6.809   3.602   5.340  0.0982  0.0556 -0.6042
  248MOL0     O33381   6.704   3.526   5.291 -0.6069  0.1243 -0.0876
  248MOL0     C33382   6.704   3.480   5.152 -0.2290 -0.3781 -0.7366
  248MOL0     C33383   6.560   3.484   5.107  0.2656 -0.3563  0.4341
  248MOL0     C33384   6.529   3.432   4.965  0.4769  1.0129 -0.0788
  248MOL0     C33385   6.515   3.280   4.978 -0.2727  0.4562  0.3863
  248MOL0     C33386   6.478   3.231   4.837 -0.4355 -0.3509  0.9627
  248MOL0     C33387   6.458   3.086   4.789  0.6023 -0.0551 -0.2429
  248MOL0     C33388   6.401   3.081   4.650 -0.4722 -0.2663  0.6109
  248MOL0     C33389   6.484   3.133   4.530 -0.3119  0.3008  0.2339
  248MOL0    Cl33390   6.367   3.135   4.390  0.0259  0.3747 -0.3129
  248MOL0     C33391   6.789   3.729   5.371  0.3221 -0.3511 -0.0853
  248MOL0     C33392   6.889   3.816   5.425  0.6730 -0.1420 -0.5235
  248MOL0     O33393   7.068   4.048   5.432  0.2960 -0.0736  0.0165
  248MOL0     C33394   7.308   3.943   5.655 -0.3713 -0.0340 -0.5397
  248MOL0     C33395   7.427   3.977   5.728  0.3960 -0.8788  0.2819
  248MOL0     N33396   7.577   4.276   6.226  0.6171  0.8965  0.1354
  248MOL0     N33397   7.593   4.249   6.353 -0.9708 -1.0518  0.3659
  248MOL0     C33398   6.763   4.005   6.342  0.3051  0.2849  0.7009
  248MOL0     C33399   6.678   3.994   6.229 -0.5732 -0.1334  0.3359
  248MOL0     C33400   6.323   3.974   5.943 -0.1545 -0.1373 -1.2375
  248MOL0     C33401   6.312   3.869   5.847  0.3973 -0.1150 -0.4272
  248MOL0     C33402   6.230   3.872   5.739  0.6116  0.0780  1.7545
  248MOL0     C33403   6.142   3.982   5.723  0.6303 -0.4280  0.0635
  248MOL0     O33404   6.063   3.977   5.610  0.1942  0.0692 -1.0010
  248MOL0     C33405   6.001   4.096   5.563  0.5611 -0.3165  0.0526
  248MOL0     C33406   5.911   4.041   5.438 -0.6538 -0.8561  1.3174
  248MOL0     C33407   5.988   4.062   5.296 -0.1604  0.7828  0.4225
  248MOL0     C33408   5.916   3.977   5.187  0.2956  0.0716  1.0853
  248MOL0     C33409   5.981   4.003   5.053  0.9680 -0.5026  0.0165
  248MOL0     C33410   6.037   4.017   4.941 -0.2211 -1.5248  0.2148
  248MOL0     C33411   6.138   4.080   5.823 -0.1093  0.4527 -0.6998
  248MOL0     C33412   6.235   4.080   5.931  0.5733 -0.7711 -1.0577
  248MOL0     H33413   6.436   4.229   6.310 -0.7733 -0.7580 -0.8643
  248MOL0     H33414   6.590   4.247   6.511  0.1569 -0.2157 -0.1420
  248MOL0     H33415   6.941   3.927   6.554  0.2852 -0.7838  0.5532
  248MOL0     H33416   6.992   4.069   6.477 -1.3885  2.2532 -0.0389
  248MOL0     H33417   6.954   4.174   6.742 -0.7059 -0.0108  0.5869
  248MOL0     H33418   6.992   4.012   6.773  2.1749  0.2627  0.2737
  248MOL0     H33419   7.203   4.090   6.781  0.4170  1.4286 -0.3596
  248MOL0     H33420   7.178   4.027   6.618  1.9216 -4.1432  5.6944
  248MOL0     H33421   7.116   4.295   6.567 -1.8268  1.0208  0.9529
  248MOL0     H33422   7.174   4.304   6.736  1.0330 -3.3644  2.6503
  248MOL0     H33423   7.395   4.196   6.577  1.7614  0.2512 -1.8856
  248MOL0     H33424   7.301   4.334   6.498 -3.4127  0.7856  1.5912
  248MOL0     H33425   7.311   4.470   6.693  2.5183  2.3352 -0.2573
  248MOL0     H33426   7.415   4.350   6.772  3.4530  1.6527 -0.5119
  248MOL0     H33427   7.474   4.559   6.565 -1.4258  1.8230  2.7904
  248MOL0     H33428   7.544   4.517   6.720  1.2170  0.4706 -0.5546
  248MOL0     H33429   7.637   4.291   6.597 -3.2013  0.1665  0.7507
  248MOL0     H33430   7.713   4.441   6.556  1.6537 -1.2854 -1.5885
  248MOL0     H33431   7.560   4.583   6.344 -4.5127  0.6754  2.3370
  248MOL0     H33432   7.536   4.579   6.089 -0.0431  0.6500 -0.8886
  248MOL0     H33433   7.634   4.456   6.026  1.3684 -0.7075  2.2722
  248MOL0     H33434   7.336   4.484   5.983  1.8982  1.9763 -1.2491
  248MOL0     H33435   7.361   4.345   6.090 -0.6540  1.4252  0.9177
  248MOL0     H33436   7.502   4.389   5.808  0.6002 -1.1374 -0.4881
  248MOL0     H33437   7.351   4.304   5.846 -0.5486 -0.5628  0.8599
  248MOL0     H33438   7.503   4.136   5.974 -0.2300  0.6678  1.7897
  248MOL0     H33439   7.643   4.242   5.953 -1.2336  1.6621  3.4925
  248MOL0     H33440   7.450   4.299   5.611  3.1501 -0.9176 -0.5769
  248MOL0     H33441   7.232   4.240   5.370  1.7065  4.4403 -0.3191
  248MOL0     H33442   7.136   4.280   5.514 -0.1611 -0.3571 -0.3837
  248MOL0     H33443   7.286   4.366   5.491  2.5624 -0.1464  1.2122
  248MOL0     H33444   7.143   3.611   5.402  0.6555  3.7799  1.9753
  248MOL0     H33445   6.958   3.461   5.302 -0.2102  0.9732 -1.0701
  248MOL0     H33446   6.760   3.541   5.081  1.0206 -0.3530  0.2215
  248MOL0     H33447   6.742   3.378   5.157  0.3823 -0.1253  0.2021
  248MOL0     H33448   6.504   3.425   5.180 -0.2261 -1.4431 -0.7804
  248MOL0     H33449   6.530   3.588   5.117  0.5523 -0.2166 -0.1008
  248MOL0     H33450   6.606   3.463   4.894 -3.0092  1.3324 -4.1230
  248MOL0     H33451   6.431   3.476   4.942  0.1701  2.5067  3.4523
  248MOL0     H33452   6.615   3.241   5.001  0.5958  0.7943 -2.4236
  248MOL0     H33453   6.432   3.254   5.044 -2.9159  1.7641 -2.1826
  248MOL0     H33454   6.561   3.274   4.779 -3.0503  4.9974  0.5627
  248MOL0     H33455   6.395   3.286   4.791  1.0573 -0.9709 -2.8830
  248MOL0     H33456   6.549   3.026   4.789  0.5122 -0.5241 -4.3547
  248MOL0     H33457   6.386   3.039   4.857 -0.0341  1.8863  0.4970
  248MOL0     H33458   6.305   3.133   4.658 -0.8368 -0.9594  0.8268
  248MOL0     H33459   6.369   2.979   4.623  1.2487 -0.2833 -1.6693
  248MOL0     H33460   6.568   3.068   4.504 -1.1632  0.5455 -3.6674
  248MOL0     H33461   6.505   3.240   4.539 -3.0003  1.2668 -2.8209
  248MOL0     H33462   6.686   3.764   5.370  1.6648  4.2225 -1.0831
  248MOL0     H33463   6.853   3.912   5.461 -0.0983 -0.0797 -1.4223
  248MOL0     H33464   7.284   3.838   5.661 -1.7440  0.3422  2.9891
  248MOL0     H33465   7.481   3.909   5.792 -0.9157  0.4691  2.9676
  248MOL0     H33466   6.840   3.930   6.358 -1.8032 -1.7350  2.1895
  248MOL0     H33467   6.696   3.934   6.141 -1.6842 -0.6023  0.4169
  248MOL0     H33468   6.368   3.777   5.862 -1.3348 -0.6872  3.7650
  248MOL0     H33469   6.223   3.790   5.668 -0.2875 -2.2681  4.3935
  248MOL0     H33470   5.925   4.138   5.629  1.8670  0.7858  0.9111
  248MOL0     H33471   6.071   4.176   5.537  0.6485 -0.3845  0.0832
  248MOL0     H33472   5.818   4.098   5.434 -0.8263 -1.1829  0.4896
  248MOL0     H33473   5.884   3.941   5.473 -1.9129 -0.4009  1.7121
  248MOL0     H33474   6.091   4.032   5.318 -0.2191 -0.0908 -0.4520
  248MOL0     H33475   5.979   4.169   5.275 -2.3509  0.3046 -1.4982
  248MOL0     H33476   5.809   3.997   5.173  0.6967  1.4725 -0.3030
  248MOL0     H33477   5.909   3.870   5.210 -3.1925 -0.7410 -2.5330
  248MOL0     H33478   6.068   4.014   4.838  1.1867  0.8211  0.4906
  248MOL0     H33479   6.061   4.156   5.829 -0.6267 -0.1419  0.6671
  248MOL0     H33480   6.245   4.165   5.998 -0.3682 -0.9446 -0.6811
  249MOL0     O33481   0.532   9.332   0.155  0.6778 -0.3227  0.4173
  249MOL0     C33482   0.559   9.253   0.066  0.5602  0.2518 -0.0320
  249MOL0     O33483   0.557   9.116   0.077 -1.1427 -0.4383  0.0556
  249MOL0     C33484   0.544   9.064   0.201  0.8611  0.2528  0.1986
  249MOL0     C33485   0.443   8.969   0.218 -0.1301  0.0603 -1.5480
  249MOL0     C33486   0.427   8.917   0.345  0.2995  0.1103 -0.2440
  249MOL0     C33487   0.507   8.942   0.457 -0.6070 -0.3320 -0.2490
  249MOL0     O33488   0.485   8.867   0.565  0.0740 -1.3794 -0.4970
  249MOL0     C33489   0.581   8.851   0.665  0.3483 -0.0450  0.1429
  249MOL0     C33490   0.538   8.742   0.766 -0.4875 -0.5829 -0.0444
  249MOL0     C33491   0.556   8.613   0.704  0.2995 -0.2845 -0.0550
  249MOL0     C33492   0.469   8.497   0.760  0.1094  0.2829 -0.1068
  249MOL0     C33493   0.483   8.466   0.910 -1.1562 -0.0207  0.0820
  249MOL0     C33494   0.403   8.350   0.959  0.3928  0.3547  0.3624
  249MOL0     C33495   0.439   8.327   1.105 -0.7813  1.3029  1.1980
  249MOL0     C33496   0.354   8.208   1.159 -0.0427  1.1984  0.2050
  249MOL0     N33497   0.212   8.240   1.143  0.1397  0.1248  0.8237
  249MOL0     C33498   0.139   8.306   1.231  0.6580 -0.0329 -0.6235
  249MOL0     C33499   0.009   8.277   1.212 -0.4124 -0.5190 -0.4444
  249MOL0     C33500  -0.110   8.289   1.299  0.7729 -0.1726  0.5519
  249MOL0     C33501  -0.101   8.429   1.372  0.2682  1.1494 -0.2040
  249MOL0     C33502  -0.239   8.486   1.391 -0.1269 -0.5718  1.2503
  249MOL0     C33503  -0.297   8.550   1.261  0.3840  1.2636  0.0411
  249MOL0     O33504  -0.222   8.670   1.254  0.6641  0.2329 -0.1752
  249MOL0     C33505  -0.285   8.769   1.194  1.1297  0.3087  0.5749
  249MOL0     C33506  -0.261   8.898   1.238  0.1535  0.4468 -0.8607
  249MOL0     C33507  -0.314   9.005   1.182  0.0824 -0.1917  0.0847
  249MOL0     C33508  -0.268   9.137   1.243  0.7506 -0.6695  0.0357
  249MOL0     C33509  -0.415   8.989   1.082 -0.4465 -0.9128  0.2360
  249MOL0     C33510  -0.491   9.108   1.026  0.9098  0.4449 -0.4254
  249MOL0     O33511  -0.471   9.145   0.897  0.6857 -0.1493 -0.2645
  249MOL0     C33512  -0.540   9.244   0.833 -0.7072 -0.6243 -0.6869
  249MOL0     C33513  -0.525   9.381   0.876 -0.0447  0.4181  0.2983
  249MOL0     C33514  -0.616   9.479   0.832 -0.2325 -0.4151 -0.2517
  249MOL0     C33515  -0.727   9.435   0.746 -0.3818  0.9993 -0.9370
  249MOL0     O33516  -0.828   9.513   0.692  0.5941  0.1594  0.3070
  249MOL0     C33517  -0.833   9.647   0.754 -0.1183  0.0160 -0.2035
  249MOL0     C33518  -0.965   9.705   0.707  0.6690 -0.1195 -0.5667
  249MOL0     C33519  -0.974   9.858   0.706  0.1366  0.2697 -0.4942
  249MOL0     C33520  -1.110   9.905   0.645  0.2311 -0.0368 -0.3462
  249MOL0     C33521  -1.183  10.029   0.711 -0.0083 -0.4007  1.1207
  249MOL0     C33522  -1.240   9.988   0.848 -0.1470 -0.3621 -0.1142
  249MOL0     C33523  -1.317  10.103   0.912  1.1262 -0.5814 -0.9150
  249MOL0     C33524  -1.372  10.057   1.051 -0.1597  0.1761 -0.4810
  249MOL0    Cl33525  -1.244  10.081   1.166 -0.7454 -0.2322 -0.4859
  249MOL0     C33526  -0.721   9.302   0.703 -0.0471 -0.2044  0.3227
  249MOL0     C33527  -0.633   9.206   0.748 -0.0129  0.1334 -0.5121
  249MOL0     O33528  -0.564   9.172   1.106 -1.0281  0.3149 -0.3822
  249MOL0     C33529  -0.445   8.862   1.028  0.6798  0.3411 -0.6911
  249MOL0     C33530  -0.376   8.747   1.086  0.3942 -0.1361 -0.1359
  249MOL0     N33531   0.003   8.197   1.106 -0.4687 -0.5487 -1.1657
  249MOL0     N33532   0.120   8.173   1.070  0.4884  0.8821  0.1900
  249MOL0     C33533   0.601   9.042   0.439 -0.4255 -0.5090  0.5835
  249MOL0     C33534   0.623   9.101   0.312  0.7388  0.8754 -0.0523
  249MOL0     C33535   0.599   9.291  -0.078  0.4929 -0.8784 -0.8882
  249MOL0     C33536   0.605   9.427  -0.117  0.5894  0.2532  0.0231
  249MOL0     C33537   0.628   9.457  -0.256 -0.7566 -0.7512  0.2985
  249MOL0     C33538   0.651   9.357  -0.347 -0.6671 -0.2028  0.8710
  249MOL0     O33539   0.678   9.396  -0.483 -0.1055 -0.1702  1.2354
  249MOL0     C33540   0.711   9.292  -0.580  0.0143  0.3098 -0.5992
  249MOL0     C33541   0.769   9.364  -0.714  0.4651 -0.8108  0.1178
  249MOL0     C33542   0.819   9.257  -0.814 -0.2412  0.4513  0.2933
  249MOL0     C33543   0.835   9.329  -0.953 -0.7917 -0.2508  0.6976
  249MOL0     C33544   0.906   9.256  -1.051  0.5766 -0.4086 -0.1403
  249MOL0     C33545   0.960   9.191  -1.137  0.1878 -0.4417 -0.2769
  249MOL0     C33546   0.654   9.219  -0.311  0.3107 -0.0592 -0.0667
  249MOL0     C33547   0.622   9.199  -0.177 -0.2816  0.2712  0.8029
  249MOL0     H33548   0.370   8.951   0.140 -1.4681  0.0671 -0.3370
  249MOL0     H33549   0.339   8.857   0.368  0.6522  0.6826  3.0607
  249MOL0     H33550   0.677   8.817   0.626  1.0996  0.2558  1.6383
  249MOL0     H33551   0.606   8.949   0.707  1.8205  0.2250 -1.2762
  249MOL0     H33552   0.618   8.747   0.840 -0.6537  1.7933  0.0512
  249MOL0     H33553   0.439   8.749   0.811 -0.4421 -0.8734  0.1041
  249MOL0     H33554   0.532   8.619   0.598  2.2522 -5.1005 -1.0495
  249MOL0     H33555   0.662   8.588   0.700  1.1674  2.5804  2.1120
  249MOL0     H33556   0.365   8.530   0.753  0.6988  2.2404 -0.3809
  249MOL0     H33557   0.491   8.406   0.703 -1.2301  0.8821 -1.6699
  249MOL0     H33558   0.590   8.450   0.922 -0.9029  1.8720  0.7062
  249MOL0     H33559   0.445   8.552   0.965 -0.0829  0.1544  0.5743
  249MOL0     H33560   0.297   8.376   0.956 -0.1156 -1.7000 -0.3911
  249MOL0     H33561   0.409   8.261   0.896 -0.2506  1.2374 -1.0001
  249MOL0     H33562   0.544   8.298   1.106 -0.5044  2.0740 -0.9593
  249MOL0     H33563   0.429   8.415   1.169  4.3842  1.3213  2.3683
  249MOL0     H33564   0.390   8.183   1.260  0.2650  5.9575  1.5365
  249MOL0     H33565   0.358   8.121   1.094  3.6526 -0.6057  2.5039
  249MOL0     H33566   0.181   8.375   1.304 -0.6111  1.4655 -1.2384
  249MOL0     H33567  -0.196   8.282   1.232 -0.2695  1.7351  1.5680
  249MOL0     H33568  -0.111   8.199   1.361  4.3012 -0.1887  0.7567
  249MOL0     H33569  -0.031   8.502   1.330 -2.9116  2.5938 -3.5309
  249MOL0     H33570  -0.058   8.420   1.472 -0.9790  0.5922  0.3089
  249MOL0     H33571  -0.226   8.558   1.472 -0.8376  1.7846 -0.6093
  249MOL0     H33572  -0.309   8.407   1.417 -0.7375 -0.6863 -0.5879
  249MOL0     H33573  -0.406   8.561   1.256  0.3074  0.4365 -0.1070
  249MOL0     H33574  -0.267   8.485   1.179 -1.7590 -0.7727  0.7755
  249MOL0     H33575  -0.190   8.905   1.320  0.3250 -1.7063 -0.7678
  249MOL0     H33576  -0.270   9.128   1.352 -3.7543  0.8540  0.3251
  249MOL0     H33577  -0.170   9.173   1.212  0.7637 -0.8787 -0.1727
  249MOL0     H33578  -0.341   9.215   1.215  0.4210 -1.4442 -1.3703
  249MOL0     H33579  -0.444   9.392   0.948  0.3616  2.6231 -0.4168
  249MOL0     H33580  -0.598   9.580   0.869  1.9665 -1.7282  2.6408
  249MOL0     H33581  -0.827   9.643   0.863  4.5682  0.6853 -0.2264
  249MOL0     H33582  -0.754   9.713   0.716  0.5083  2.1740  4.2289
  249MOL0     H33583  -0.978   9.677   0.603 -1.9561  1.4504 -0.7662
  249MOL0     H33584  -1.056   9.657   0.743  2.3000 -1.9947  1.2599
  249MOL0     H33585  -0.894   9.903   0.647  1.1869  0.0577  0.7277
  249MOL0     H33586  -0.979   9.891   0.811  1.7650  0.2299 -0.3774
  249MOL0     H33587  -1.089   9.929   0.541  1.9514  0.0012 -0.0139
  249MOL0     H33588  -1.181   9.822   0.648  1.0946 -0.7766 -0.1753
  249MOL0     H33589  -1.259  10.062   0.639  1.4347  2.0900  0.6204
  249MOL0     H33590  -1.109  10.109   0.721  0.2864 -0.7499  1.8026
  249MOL0     H33591  -1.313   9.908   0.830 -0.3989 -0.0078 -0.6920
  249MOL0     H33592  -1.160   9.959   0.917 -0.5888 -2.5049 -0.4108
  249MOL0     H33593  -1.412  10.113   0.859  0.8398  0.3763 -0.2509
  249MOL0     H33594  -1.259  10.195   0.900  2.6011 -1.3772 -0.1236
  249MOL0     H33595  -1.404   9.953   1.047  1.1153 -0.4238  2.3487
  249MOL0     H33596  -1.454  10.118   1.091  1.5867  2.8055 -0.6817
  249MOL0     H33597  -0.803   9.294   0.632 -0.3074  0.6744  0.5003
  249MOL0     H33598  -0.661   9.102   0.734 -1.5554  0.9307 -4.6648
  249MOL0     H33599  -0.512   8.852   0.943  0.0257  1.4688 -0.3310
  249MOL0     H33600  -0.385   8.646   1.047  3.1387 -0.5244  0.0026
  249MOL0     H33601   0.680   9.064   0.511 -1.7067  0.6036  1.7091
  249MOL0     H33602   0.698   9.178   0.298  2.1041 -0.6930 -1.9240
  249MOL0     H33603   0.613   9.499  -0.036  1.7933  1.1307 -0.8317
  249MOL0     H33604   0.635   9.564  -0.273 -0.3400 -0.4389  2.2103
  249MOL0     H33605   0.786   9.220  -0.547 -1.4129 -0.4888  1.0925
  249MOL0     H33606   0.622   9.232  -0.605  0.2940  0.4039 -1.8790
  249MOL0     H33607   0.857   9.414  -0.674  0.4434  0.3034 -1.1464
  249MOL0     H33608   0.693   9.436  -0.745  2.0205  1.2883  0.9802
  249MOL0     H33609   0.747   9.175  -0.821 -0.5967  0.5762  2.0032
  249MOL0     H33610   0.912   9.211  -0.780  0.6579  1.6079 -0.5145
  249MOL0     H33611   0.898   9.418  -0.939  0.8123 -0.7227 -2.4982
  249MOL0     H33612   0.736   9.353  -0.991 -0.4808  0.1393  0.1086
  249MOL0     H33613   1.010   9.138  -1.216  0.5444  1.8954 -1.7299
  249MOL0     H33614   0.672   9.132  -0.374 -1.5945 -3.2173  3.3388
  249MOL0     H33615   0.616   9.092  -0.158 -2.0293 -0.0725 -1.1914
  250MOL0     O33616   6.874   1.778   8.550 -0.8278 -0.3385 -0.2384
  250MOL0     C33617   6.905   1.755   8.437  0.3226  0.6527 -0.6450
  250MOL0     O33618   6.858   1.827   8.323 -0.1534 -0.8070 -0.0498
  250MOL0     C33619   6.764   1.932   8.329  0.2035  0.7938  0.0281
  250MOL0     C33620   6.753   2.008   8.438 -0.3108  0.6765  0.4731
  250MOL0     C33621   6.647   2.102   8.453  0.3453 -0.3283  0.0948
  250MOL0     C33622   6.546   2.099   8.354  0.2297 -0.2808 -0.5603
  250MOL0     O33623   6.450   2.192   8.380 -0.3224 -0.1286  0.0968
  250MOL0     C33624   6.351   2.211   8.279 -0.5989 -0.6650  0.0667
  250MOL0     C33625   6.234   2.308   8.318  0.1900  0.2871 -0.4629
  250MOL0     C33626   6.257   2.457   8.355 -0.9921  0.2050  0.4544
  250MOL0     C33627   6.281   2.528   8.220 -0.0318 -0.0038  1.4977
  250MOL0     C33628   6.304   2.674   8.244  0.5445  0.1750  0.4562
  250MOL0     C33629   6.414   2.711   8.341  0.1667 -0.6448 -1.1010
  250MOL0     C33630   6.550   2.654   8.292 -0.6434  0.2782  0.0408
  250MOL0     C33631   6.660   2.715   8.383 -0.2276 -0.3141 -0.4414
  250MOL0     N33632   6.786   2.647   8.364 -1.0855 -0.2384  0.3819
  250MOL0     C33633   6.821   2.522   8.398  1.1419 -0.3239 -0.4699
  250MOL0     C33634   6.946   2.506   8.362  0.5346  0.2118 -0.2190
  250MOL0     C33635   7.023   2.377   8.338  0.6837 -0.1797 -1.0361
  250MOL0     C33636   6.945   2.253   8.277  0.0183 -0.6570  0.3186
  250MOL0     C33637   6.931   2.260   8.124  0.0277 -0.4053  0.2884
  250MOL0     C33638   6.809   2.336   8.078 -0.4535  0.0654 -0.0294
  250MOL0     O33639   6.827   2.352   7.935  0.3658  0.1244  0.5777
  250MOL0     C33640   6.903   2.455   7.888 -0.9832 -0.5642 -0.0439
  250MOL0     C33641   6.925   2.439   7.750  0.8015 -0.5655  0.8194
  250MOL0     C33642   7.007   2.528   7.678  0.4155  1.0862  0.6950
  250MOL0     C33643   7.034   2.493   7.529  0.4493  1.5480 -1.0368
  250MOL0     C33644   7.063   2.638   7.748 -0.3636  0.5538  1.3462
  250MOL0     C33645   7.162   2.740   7.690 -0.3912 -0.4901  0.3074
  250MOL0     O33646   7.217   2.701   7.569 -0.0050 -0.9937  0.3860
  250MOL0     C33647   7.267   2.787   7.471  0.4017  1.2100 -0.5280
  250MOL0     C33648   7.214   2.917   7.445 -0.4923  0.7335  0.2997
  250MOL0     C33649   7.276   2.996   7.353 -0.6364 -0.7563 -0.3439
  250MOL0     C33650   7.387   2.953   7.294  0.5920  0.9642  0.1472
  250MOL0     O33651   7.449   3.042   7.218  0.1014  0.1243 -0.0222
  250MOL0     C33652   7.428   3.021   7.075 -0.1450  0.3399 -0.1610
  250MOL0     C33653   7.559   3.028   6.988  1.1840  0.0446  0.5073
  250MOL0     C33654   7.673   2.933   7.012 -0.3497 -0.8073  0.1066
  250MOL0     C33655   7.644   2.793   6.955  0.1120  0.5543  0.1628
  250MOL0     C33656   7.741   2.681   7.004  0.5997  0.2169 -0.1654
  250MOL0     C33657   7.754   2.558   6.916 -0.0203  0.9530  0.7437
  250MOL0     C33658   7.880   2.473   6.978  0.0019 -0.0851 -0.6976
  250MOL0     C33659   7.914   2.353   6.893  0.7786  0.8096 -0.6908
  250MOL0    Cl33660   7.770   2.245   6.876 -0.2876  0.3070  0.1840
  250MOL0     C33661   7.436   2.823   7.311 -0.4618  0.2797 -0.2002
  250MOL0     C33662   7.373   2.737   7.399 -0.4080  1.2242 -0.1492
  250MOL0     O33663   7.163   2.857   7.742  0.5564 -0.0807  0.1758
  250MOL0     C33664   7.038   2.650   7.878  0.7201 -0.2569 -0.5801
  250MOL0     C33665   6.975   2.555   7.957  0.2754 -0.0393  0.0712
  250MOL0     N33666   6.988   2.626   8.311 -0.7088 -0.2512 -0.1375
  250MOL0     N33667   6.890   2.707   8.309 -0.8398 -0.2860  0.3367
  250MOL0     C33668   6.563   2.031   8.234 -0.1115 -0.9621 -0.7707
  250MOL0     C33669   6.674   1.943   8.224 -0.7775  0.2444 -0.1773
  250MOL0     C33670   6.991   1.635   8.413 -0.0735 -0.8745 -0.3256
  250MOL0     C33671   7.016   1.544   8.518 -0.2109 -0.0984 -0.0147
  250MOL0     C33672   7.076   1.420   8.491 -0.4290 -0.8418  0.0447
  250MOL0     C33673   7.139   1.407   8.371 -1.0524  1.1596  0.0775
  250MOL0     O33674   7.210   1.287   8.356 -1.2051 -0.2472  0.0744
  250MOL0     C33675   7.356   1.299   8.383  0.7508 -0.0109  0.0246
  250MOL0     C33676   7.385   1.283   8.534 -0.0313 -0.0134  0.1496
  250MOL0     C33677   7.316   1.160   8.584 -0.3560 -0.2065 -0.3091
  250MOL0     C33678   7.330   1.140   8.741 -0.4621  0.5888 -0.9517
  250MOL0     C33679   7.466   1.093   8.780  0.1471  0.2323 -0.0762
  250MOL0     C33680   7.568   1.049   8.821 -0.6078 -0.3397 -0.2005
  250MOL0     C33681   7.126   1.492   8.267 -0.1810 -0.8595 -0.3272
  250MOL0     C33682   7.047   1.606   8.288 -0.1100  0.2003 -0.5565
  250MOL0     H33683   6.811   2.005   8.530  3.4575  1.9843 -1.6428
  250MOL0     H33684   6.629   2.156   8.545 -0.5602 -1.0979  0.3844
  250MOL0     H33685   6.391   2.246   8.184 -0.3602 -0.3426  0.2826
  250MOL0     H33686   6.306   2.112   8.265  0.4017 -1.0868 -0.2907
  250MOL0     H33687   6.162   2.303   8.236 -1.9933  0.3268  1.3598
  250MOL0     H33688   6.182   2.251   8.395  0.5963  0.7590  0.1755
  250MOL0     H33689   6.170   2.507   8.399  1.0898  5.3595 -0.6023
  250MOL0     H33690   6.332   2.468   8.433 -2.9165 -0.0380  2.4122
  250MOL0     H33691   6.370   2.500   8.164 -0.3696  1.4185  0.2099
  250MOL0     H33692   6.191   2.524   8.158  1.9818  0.3724 -1.6398
  250MOL0     H33693   6.305   2.736   8.154  0.7040  5.3506  3.6210
  250MOL0     H33694   6.211   2.710   8.289  0.1468 -0.0614 -0.1539
  250MOL0     H33695   6.413   2.820   8.354  0.1704 -0.7801  0.1343
  250MOL0     H33696   6.391   2.668   8.439 -0.7685 -1.3969 -1.6412
  250MOL0     H33697   6.539   2.545   8.298  0.5304  0.0170 -1.7724
  250MOL0     H33698   6.580   2.696   8.196  0.1297 -1.0529 -0.3404
  250MOL0     H33699   6.626   2.691   8.485  0.6309  0.9375  0.1691
  250MOL0     H33700   6.679   2.819   8.354  4.0505 -0.2825  1.6671
  250MOL0     H33701   6.758   2.447   8.445 -0.3130  1.4711  0.5685
  250MOL0     H33702   7.106   2.395   8.270 -1.1717  1.4040 -2.9957
  250MOL0     H33703   7.056   2.354   8.440  0.5723  1.1003 -0.6930
  250MOL0     H33704   6.850   2.250   8.331  0.6370  0.7848  1.5573
  250MOL0     H33705   7.009   2.165   8.288  2.3824  0.7129 -1.5281
  250MOL0     H33706   6.917   2.159   8.084  2.4945 -1.3551  1.6557
  250MOL0     H33707   7.025   2.296   8.082 -0.1982  0.7338  0.7136
  250MOL0     H33708   6.787   2.427   8.135  0.4411 -1.2271  2.4979
  250MOL0     H33709   6.712   2.285   8.075 -1.8135  2.4994 -1.8393
  250MOL0     H33710   6.868   2.359   7.704  1.6844  0.5592 -2.4832
  250MOL0     H33711   7.000   2.567   7.456 -2.1593  0.4930 -0.9886
  250MOL0     H33712   7.140   2.467   7.520 -0.0834 -1.8516  0.7563
  250MOL0     H33713   6.987   2.399   7.500  3.7396 -0.5386 -0.1068
  250MOL0     H33714   7.116   2.943   7.484 -0.5470  0.3919  0.3908
  250MOL0     H33715   7.248   3.099   7.333  0.8250 -0.1089  0.7383
  250MOL0     H33716   7.386   2.921   7.061 -0.6837  0.7339 -1.5785
  250MOL0     H33717   7.347   3.087   7.043 -0.2446 -0.2664 -1.2154
  250MOL0     H33718   7.545   3.008   6.882  5.1855 -0.1501 -0.1052
  250MOL0     H33719   7.599   3.130   6.991  0.2497  0.4365  3.5608
  250MOL0     H33720   7.696   2.939   7.119 -3.2147 -0.2097  0.7721
  250MOL0     H33721   7.764   2.972   6.967 -0.2602 -0.0744  0.8966
  250MOL0     H33722   7.540   2.768   6.979 -1.0290  0.2484 -4.1716
  250MOL0     H33723   7.649   2.801   6.846 -1.6779  4.5361  0.2211
  250MOL0     H33724   7.731   2.657   7.110 -1.5994 -0.0390 -0.3672
  250MOL0     H33725   7.835   2.736   7.000 -1.5676  4.7538  2.4928
  250MOL0     H33726   7.667   2.492   6.915  2.9349 -3.3464  0.6123
  250MOL0     H33727   7.789   2.582   6.816  0.1895  2.4239  1.1537
  250MOL0     H33728   7.841   2.448   7.077  0.6358 -1.2571 -0.7283
  250MOL0     H33729   7.968   2.537   6.984 -1.3190  1.7317  0.8398
  250MOL0     H33730   7.987   2.290   6.945 -1.5539 -2.2045 -0.7674
  250MOL0     H33731   7.945   2.375   6.791  0.2101 -3.6793 -2.0648
  250MOL0     H33732   7.516   2.788   7.247  1.9482  3.1943  0.9485
  250MOL0     H33733   7.401   2.633   7.415 -0.9331  1.0434 -0.3950
  250MOL0     H33734   7.091   2.723   7.937 -1.4193  0.9767 -0.0768
  250MOL0     H33735   6.977   2.563   8.065 -3.5896 -2.0396  0.4724
  250MOL0     H33736   6.487   2.038   8.157 -2.2273 -0.4781  1.2419
  250MOL0     H33737   6.690   1.888   8.132  1.1063  2.3242 -1.1828
  250MOL0     H33738   6.976   1.553   8.618 -0.0583  2.0008 -0.0927
  250MOL0     H33739   7.077   1.346   8.570 -1.7283  2.0891  3.0616
  250MOL0     H33740   7.408   1.228   8.318  0.9550  0.8201 -0.7408
  250MOL0     H33741   7.389   1.399   8.353 -0.6654  0.6690  0.6385
  250MOL0     H33742   7.351   1.372   8.588  2.3031  0.5588  0.7836
  250MOL0     H33743   7.493   1.289   8.550  0.2722  3.0136 -2.2266
  250MOL0     H33744   7.366   1.074   8.537  3.2280  1.0424  0.8410
  250MOL0     H33745   7.208   1.167   8.568 -0.9078  1.3736  3.2839
  250MOL0     H33746   7.253   1.072   8.777  0.3170  0.7015  1.0263
  250MOL0     H33747   7.309   1.242   8.775  1.1019  0.7380 -0.3337
  250MOL0     H33748   7.662   1.004   8.848  0.8124  4.0950  3.4769
  250MOL0     H33749   7.173   1.480   8.171 -2.9981  0.6467 -2.0524
  250MOL0     H33750   7.027   1.672   8.204  0.6750 -0.7112 -1.4827
  251MOL0     O33751   2.529   8.346   2.872 -0.6902 -0.0329  0.1791
  251MOL0     C33752   2.483   8.365   2.758  0.4142 -0.1282 -0.3201
  251MOL0     O33753   2.441   8.489   2.703 -0.1688  1.1277 -0.1863
  251MOL0     C33754   2.480   8.604   2.777 -0.8750  0.8622 -0.4301
  251MOL0     C33755   2.557   8.710   2.707 -0.1002  0.3769  0.8072
  251MOL0     C33756   2.579   8.834   2.765 -0.1746  0.1643 -1.0951
  251MOL0     C33757   2.535   8.856   2.888  0.0891 -0.0160  0.8077
  251MOL0     O33758   2.559   8.959   2.971  0.0473  0.0849  0.1086
  251MOL0     C33759   2.559   9.094   2.923 -0.7448  0.7619  1.1641
  251MOL0     C33760   2.571   9.197   3.027 -0.4596  0.7261 -0.5528
  251MOL0     C33761   2.533   9.333   2.960 -0.3267 -0.9609  0.2498
  251MOL0     C33762   2.544   9.458   3.038 -0.2889  0.5069  0.3034
  251MOL0     C33763   2.473   9.582   2.977 -1.3962  0.0578 -1.0695
  251MOL0     C33764   2.469   9.702   3.073  0.6878 -0.7141 -0.1605
  251MOL0     C33765   2.587   9.805   3.048  0.3294  0.4262  0.0532
  251MOL0     C33766   2.602   9.879   2.917  0.7133 -0.3590  0.3275
  251MOL0     N33767   2.681  10.001   2.918 -0.6454  0.9122 -0.3951
  251MOL0     C33768   2.811  10.013   2.880 -0.3006 -0.1914 -0.6111
  251MOL0     C33769   2.849  10.138   2.919  0.4440 -0.2886 -0.7830
  251MOL0     C33770   2.977  10.201   2.907 -1.2505  0.3705 -0.2891
  251MOL0     C33771   2.995  10.236   2.765  0.0773 -0.1775  0.4734
  251MOL0     C33772   2.888  10.338   2.706  0.5366 -0.2315 -1.1788
  251MOL0     C33773   2.898  10.482   2.769 -0.0809  0.5098  0.2697
  251MOL0     O33774   3.000  10.545   2.691  0.7253 -0.0868  0.4201
  251MOL0     C33775   3.048  10.669   2.729  0.2984 -0.0735 -0.6531
  251MOL0     C33776   3.081  10.760   2.629 -0.3361 -0.6660  0.4555
  251MOL0     C33777   3.123  10.894   2.665  0.9566  0.2844 -0.0418
  251MOL0     C33778   3.169  10.976   2.551  1.3131  0.0841 -0.5424
  251MOL0     C33779   3.121  10.938   2.802  0.4713 -0.2699  0.8338
  251MOL0     C33780   3.171  11.077   2.843  0.5306 -0.5466 -0.6129
  251MOL0     O33781   3.100  11.131   2.947 -0.0460  0.7142  0.1931
  251MOL0     C33782   3.127  11.264   2.963 -0.8643  0.8178 -1.5170
  251MOL0     C33783   3.086  11.366   2.883  0.3561 -0.4147  0.1471
  251MOL0     C33784   3.130  11.496   2.898 -0.3958  0.2176  0.0442
  251MOL0     C33785   3.223  11.532   2.991 -0.8733  0.7107 -0.0443
  251MOL0     O33786   3.247  11.668   3.007 -0.1281  0.6720  0.3100
  251MOL0     C33787   3.324  11.703   3.126  0.1691  0.2029 -0.0272
  251MOL0     C33788   3.250  11.718   3.262 -0.5385 -0.3164  0.8132
  251MOL0     C33789   3.351  11.741   3.382 -0.2949  0.1488 -0.5820
  251MOL0     C33790   3.272  11.777   3.508  0.4483 -0.7958 -1.0131
  251MOL0     C33791   3.347  11.801   3.634 -0.1960 -0.2469 -0.7300
  251MOL0     C33792   3.249  11.817   3.747  0.0274  0.0049 -0.0242
  251MOL0     C33793   3.181  11.961   3.740  0.8498 -0.1367 -0.4825
  251MOL0     C33794   3.197  12.052   3.863 -0.1579  0.0965 -0.4705
  251MOL0    Cl33795   3.375  12.085   3.895 -0.0053  0.0392 -0.2200
  251MOL0     C33796   3.276  11.428   3.081  0.4071 -0.5626  0.1562
  251MOL0     C33797   3.220  11.301   3.064  0.6631  0.3102  0.3632
  251MOL0     O33798   3.282  11.116   2.798 -0.9012 -0.4830  0.0687
  251MOL0     C33799   3.076  10.846   2.902 -0.1634  0.4869 -0.9704
  251MOL0     C33800   3.051  10.713   2.871  1.0825 -0.1189  0.3827
  251MOL0     N33801   2.736  10.201   2.974  0.3552 -0.1491  0.8468
  251MOL0     N33802   2.643  10.119   2.970 -0.4209  0.7980 -0.2230
  251MOL0     C33803   2.470   8.756   2.957 -0.1340  0.5519  0.9759
  251MOL0     C33804   2.436   8.631   2.896 -0.2717  0.3451  0.3159
  251MOL0     C33805   2.475   8.240   2.675  0.7872  0.2243  0.5420
  251MOL0     C33806   2.419   8.247   2.541  1.5516  0.5554  0.1400
  251MOL0     C33807   2.426   8.131   2.466  0.2675 -0.0149  0.6791
  251MOL0     C33808   2.499   8.025   2.497 -0.9453  0.2546 -0.0175
  251MOL0     O33809   2.513   7.920   2.409 -0.1440  0.1274 -0.6962
  251MOL0     C33810   2.500   7.934   2.268 -0.8740  0.2529 -1.2388
  251MOL0     C33811   2.595   7.831   2.196  0.2190 -0.1267  0.2854
  251MOL0     C33812   2.744   7.862   2.202 -0.4828  0.1104  0.9125
  251MOL0     C33813   2.791   7.982   2.123 -0.6920 -0.3358  0.6718
  251MOL0     C33814   2.787   7.963   1.979  0.2112  0.3553  0.4615
  251MOL0     C33815   2.770   7.944   1.861  0.3386  0.2653 -0.6008
  251MOL0     C33816   2.549   8.016   2.629  0.0135 -0.2923 -0.1887
  251MOL0     C33817   2.551   8.128   2.713 -0.0666 -1.0351  0.8444
  251MOL0     H33818   2.586   8.688   2.605  1.0826 -2.2949  1.6064
  251MOL0     H33819   2.655   8.900   2.726  0.9247 -0.5426 -0.2242
  251MOL0     H33820   2.614   9.123   2.833 -0.2849  0.0548  1.2157
  251MOL0     H33821   2.464   9.109   2.871 -1.0282 -0.0941  1.4285
  251MOL0     H33822   2.500   9.170   3.106  1.2500 -4.5499 -0.4581
  251MOL0     H33823   2.673   9.206   3.065 -1.4620 -1.1370  3.0597
  251MOL0     H33824   2.596   9.352   2.873  0.0531  0.7248  0.8519
  251MOL0     H33825   2.435   9.331   2.913  0.2269  1.2665 -1.1464
  251MOL0     H33826   2.495   9.430   3.131 -4.3785 -1.1273 -2.1004
  251MOL0     H33827   2.652   9.471   3.055  0.1113  0.0462 -1.6114
  251MOL0     H33828   2.538   9.611   2.894 -1.2449  0.2710 -0.8785
  251MOL0     H33829   2.372   9.557   2.943 -1.3619  1.6923 -2.4798
  251MOL0     H33830   2.371   9.747   3.057  0.1952 -2.1927 -1.5608
  251MOL0     H33831   2.483   9.675   3.178  1.5176  1.6627  0.3991
  251MOL0     H33832   2.600   9.879   3.128  4.6704 -3.4427  3.5415
  251MOL0     H33833   2.680   9.749   3.063  0.9235  1.6158  0.9635
  251MOL0     H33834   2.497   9.904   2.898  1.2591  1.5161 -0.3752
  251MOL0     H33835   2.652   9.814   2.845 -0.3207  1.0385 -1.7402
  251MOL0     H33836   2.878   9.938   2.839  3.7684  2.2334  1.0502
  251MOL0     H33837   2.992  10.290   2.969 -1.0973  0.5062 -0.5187
  251MOL0     H33838   3.044  10.125   2.949  0.7848  1.5688 -1.1946
  251MOL0     H33839   3.013  10.142   2.712  3.1872  0.4524  0.2047
  251MOL0     H33840   3.092  10.286   2.759 -2.6126  6.0611  1.8059
  251MOL0     H33841   2.789  10.293   2.719  0.7572 -0.9498 -1.9050
  251MOL0     H33842   2.893  10.344   2.597 -1.4170 -0.1848 -1.2948
  251MOL0     H33843   2.923  10.473   2.875 -1.1980 -2.2295  0.3929
  251MOL0     H33844   2.801  10.534   2.768 -0.7543 -0.5862  2.2583
  251MOL0     H33845   3.068  10.741   2.523 -1.8883  2.9455 -0.1820
  251MOL0     H33846   3.273  11.003   2.571  1.8102 -0.2038 -2.4763
  251MOL0     H33847   3.177  10.931   2.451  2.0995  4.5738 -2.7735
  251MOL0     H33848   3.116  11.072   2.551  3.1919  1.3370  3.7086
  251MOL0     H33849   3.014  11.353   2.803  0.6585 -0.7229 -0.0768
  251MOL0     H33850   3.106  11.577   2.830  0.2766 -1.1706 -1.9438
  251MOL0     H33851   3.413  11.641   3.144 -0.3533  0.2633  3.5232
  251MOL0     H33852   3.350  11.807   3.102 -4.6926  1.7092  0.1377
  251MOL0     H33853   3.182  11.804   3.262 -0.3104 -0.0080 -2.6201
  251MOL0     H33854   3.190  11.628   3.280  0.0166 -1.2938 -1.8176
  251MOL0     H33855   3.414  11.828   3.363  1.1626 -1.3091 -2.9347
  251MOL0     H33856   3.414  11.652   3.393  0.4990  0.7848  0.0656
  251MOL0     H33857   3.198  11.853   3.480 -0.5208 -1.9341 -1.6021
  251MOL0     H33858   3.212  11.689   3.531 -1.7041  1.1586  1.5555
  251MOL0     H33859   3.413  11.888   3.637  3.4045 -2.7745 -1.1245
  251MOL0     H33860   3.395  11.704   3.648 -4.1193 -2.4205 -0.8798
  251MOL0     H33861   3.172  11.740   3.740 -0.1188  0.1173  0.3162
  251MOL0     H33862   3.302  11.809   3.842  0.2387  2.2228  0.1129
  251MOL0     H33863   3.078  11.953   3.702  0.7953 -1.0309 -0.1751
  251MOL0     H33864   3.232  12.019   3.662 -0.6811  1.2668 -0.5103
  251MOL0     H33865   3.152  12.006   3.951 -0.5179 -0.2351 -0.8260
  251MOL0     H33866   3.146  12.144   3.831 -2.0601  0.3263  2.8297
  251MOL0     H33867   3.334  11.433   3.173 -1.2072  2.8701  1.1329
  251MOL0     H33868   3.258  11.215   3.119  0.7991  0.9401  1.2859
  251MOL0     H33869   3.077  10.870   3.008  3.6834 -3.0176  0.0341
  251MOL0     H33870   3.017  10.637   2.940  0.0016 -1.4404 -1.5292
  251MOL0     H33871   2.435   8.785   3.056 -0.8819  0.7805  0.6550
  251MOL0     H33872   2.388   8.551   2.953  0.8124 -1.9126 -1.7292
  251MOL0     H33873   2.382   8.343   2.505  3.5198  0.6948 -1.7385
  251MOL0     H33874   2.373   8.127   2.371 -1.8263  1.1707  1.7174
  251MOL0     H33875   2.396   7.915   2.238 -0.6032 -1.1918 -1.3313
  251MOL0     H33876   2.526   8.034   2.232  2.3552  0.1772  0.5348
  251MOL0     H33877   2.569   7.844   2.090 -0.3191 -0.6775  0.3459
  251MOL0     H33878   2.585   7.727   2.226  0.2804 -0.1557  0.2047
  251MOL0     H33879   2.800   7.775   2.167  2.5271  0.6567  3.8493
  251MOL0     H33880   2.773   7.863   2.308  1.2138 -0.9145  0.4955
  251MOL0     H33881   2.895   7.999   2.154 -0.2958 -0.7706 -0.3863
  251MOL0     H33882   2.738   8.072   2.153 -1.9559 -1.3939  1.7530
  251MOL0     H33883   2.736   7.931   1.760 -2.5294  1.1410  0.1731
  251MOL0     H33884   2.589   7.920   2.659 -2.0100 -0.4043  2.6495
  251MOL0     H33885   2.594   8.122   2.812 -1.6817  2.1726  1.8905
  252MOL0     O33886  10.329   8.076   1.154 -0.2238  0.0476  0.4754
  252MOL0     C33887  10.279   8.083   1.266  0.6263  0.4341  0.8068
  252MOL0     O33888  10.330   8.026   1.372  0.4808  0.3724 -0.0234
  252MOL0     C33889  10.434   7.937   1.355 -0.4776 -0.4528  0.9072
  252MOL0     C33890  10.560   7.993   1.332  0.4967 -0.1455 -0.0746
  252MOL0     C33891  10.672   7.915   1.336  0.2838  0.7087 -0.3829
  252MOL0     C33892  10.662   7.772   1.351 -1.0039 -1.3200  0.8165
  252MOL0     O33893  10.767   7.687   1.357 -0.4905  0.0485  0.1651
  252MOL0     C33894  10.887   7.725   1.296 -1.2342 -0.5662 -0.6106
  252MOL0     C33895  10.957   7.593   1.271  0.2061  0.3194  0.4575
  252MOL0     C33896  10.871   7.496   1.187  0.8373  0.1770  0.4830
  252MOL0     C33897  10.932   7.476   1.044  0.6105 -0.3073 -0.7361
  252MOL0     C33898  10.823   7.418   0.949  0.3077  0.2682 -0.1965
  252MOL0     C33899  10.731   7.522   0.874  0.6348  0.0042  0.7203
  252MOL0     C33900  10.665   7.442   0.760 -0.3943  0.5796 -0.3402
  252MOL0     C33901  10.580   7.521   0.669  0.7077  0.4741  0.1795
  252MOL0     N33902  10.553   7.466   0.542  0.2132 -0.3840 -0.0791
  252MOL0     C33903  10.518   7.533   0.428  0.3420 -0.4479 -0.6801
  252MOL0     C33904  10.486   7.441   0.337 -0.1416 -0.6746  1.9509
  252MOL0     C33905  10.444   7.468   0.194 -0.8249  0.0500  0.1826
  252MOL0     C33906  10.543   7.555   0.113 -0.2415 -0.8619 -0.9984
  252MOL0     C33907  10.532   7.536  -0.037 -0.2749  0.3850  0.5693
  252MOL0     C33908  10.640   7.623  -0.104  0.7295  0.4573 -0.8125
  252MOL0     O33909  10.698   7.544  -0.208 -0.9547 -0.0315  0.1869
  252MOL0     C33910  10.835   7.551  -0.230 -0.9701 -0.2167 -0.1757
  252MOL0     C33911  10.914   7.661  -0.197 -0.3006  0.2286  0.1772
  252MOL0     C33912  11.051   7.657  -0.213 -0.0477  1.6431 -0.7285
  252MOL0     C33913  11.134   7.766  -0.164 -0.1405 -0.1232  0.2437
  252MOL0     C33914  11.108   7.546  -0.278 -0.2911  0.4672 -0.4559
  252MOL0     C33915  11.252   7.535  -0.299 -0.5532 -0.6845  0.4481
  252MOL0     O33916  11.349   7.555  -0.208 -0.8806  0.5029 -0.0121
  252MOL0     C33917  11.472   7.497  -0.210 -0.7317  0.5611 -0.3184
  252MOL0     C33918  11.487   7.371  -0.142  0.8908 -0.2818  0.1936
  252MOL0     C33919  11.620   7.307  -0.153  1.6412  1.1982  0.3070
  252MOL0     C33920  11.720   7.363  -0.228 -0.5638 -0.2923  0.3163
  252MOL0     O33921  11.851   7.322  -0.224 -0.9606 -0.3452  0.2824
  252MOL0     C33922  11.878   7.193  -0.157 -0.1693 -0.7095  0.7430
  252MOL0     C33923  12.027   7.157  -0.189  0.0077 -0.1813 -0.5874
  252MOL0     C33924  12.073   7.029  -0.129 -0.4428 -0.1048  0.0336
  252MOL0     C33925  12.000   6.900  -0.184 -0.0857 -0.1473  0.0614
  252MOL0     C33926  12.055   6.779  -0.107  0.4470 -0.2862  0.1304
  252MOL0     C33927  11.938   6.681  -0.087  0.8082 -0.2339  0.4436
  252MOL0     C33928  11.854   6.644  -0.206 -0.7597 -0.6838  0.5896
  252MOL0     C33929  11.740   6.553  -0.157 -0.6091 -0.0073  1.0083
  252MOL0    Cl33930  11.633   6.643  -0.053  0.4179  0.3045  0.1657
  252MOL0     C33931  11.699   7.487  -0.294  0.7325  0.2605 -0.2577
  252MOL0     C33932  11.573   7.559  -0.289 -1.3045  0.3422 -0.3326
  252MOL0     O33933  11.277   7.492  -0.415  0.0540 -0.0477 -0.3794
  252MOL0     C33934  11.030   7.433  -0.308 -0.3170  0.7941  0.2069
  252MOL0     C33935  10.898   7.434  -0.280 -0.1498  0.9253 -0.2339
  252MOL0     N33936  10.519   7.320   0.388  0.3429  1.3058 -0.3940
  252MOL0     N33937  10.545   7.331   0.513 -0.5299 -0.0740  0.8615
  252MOL0     C33938  10.537   7.715   1.365 -0.0554 -0.5443 -0.5272
  252MOL0     C33939  10.425   7.799   1.379 -0.1143  0.5585 -0.1647
  252MOL0     C33940  10.146   8.148   1.278  0.2666  0.4131 -0.7617
  252MOL0     C33941  10.040   8.112   1.193  0.2187  0.0915  0.6115
  252MOL0     C33942   9.910   8.158   1.211 -0.4835 -0.7056  0.3997
  252MOL0     C33943   9.889   8.247   1.312  0.3854 -0.4941  1.0837
  252MOL0     O33944   9.771   8.318   1.340 -0.0458  0.0290 -1.0404
  252MOL0     C33945   9.658   8.284   1.268  0.3449  1.1733  0.4774
  252MOL0     C33946   9.635   8.365   1.141 -0.2336  1.0821 -0.4665
  252MOL0     C33947   9.647   8.515   1.168  0.2435 -1.3713 -0.2653
  252MOL0     C33948   9.614   8.588   1.046 -0.6260 -0.5819  1.0069
  252MOL0     C33949   9.717   8.578   0.938 -0.1899 -0.0226  0.0396
  252MOL0     C33950   9.802   8.562   0.846 -1.0796 -0.5057 -0.2021
  252MOL0     C33951   9.987   8.284   1.390 -0.2868 -1.2374 -0.9808
  252MOL0     C33952  10.115   8.234   1.388 -0.1044 -0.8678 -0.0704
  252MOL0     H33953  10.565   8.102   1.329  4.2895 -0.1767 -2.2393
  252MOL0     H33954  10.772   7.956   1.330  0.2859  0.6557 -0.7456
  252MOL0     H33955  10.868   7.766   1.196  0.9150  0.5230 -0.6420
  252MOL0     H33956  10.961   7.790   1.345 -0.7066 -0.0515 -2.0327
  252MOL0     H33957  11.058   7.597   1.230  1.7779 -1.0163  3.7977
  252MOL0     H33958  10.968   7.542   1.367 -1.4804 -1.0238 -0.0139
  252MOL0     H33959  10.869   7.394   1.226 -0.9586 -0.3032 -0.7188
  252MOL0     H33960  10.768   7.531   1.171  0.2222 -1.6801  0.1245
  252MOL0     H33961  10.966   7.575   1.013  3.3252 -0.5359  1.1759
  252MOL0     H33962  11.020   7.411   1.046 -1.4252 -3.2704  1.6714
  252MOL0     H33963  10.889   7.367   0.878 -0.8988  1.0433 -1.9279
  252MOL0     H33964  10.764   7.341   0.999 -1.5439  1.0779 -1.0584
  252MOL0     H33965  10.653   7.558   0.942  1.2391  2.5999  0.1271
  252MOL0     H33966  10.789   7.606   0.837  3.9832 -2.1080  0.7067
  252MOL0     H33967  10.742   7.385   0.707 -1.9341  2.0347 -4.5946
  252MOL0     H33968  10.605   7.369   0.816 -1.9237  1.3733 -0.8833
  252MOL0     H33969  10.633   7.614   0.644 -0.6391  1.4670  0.8615
  252MOL0     H33970  10.494   7.532   0.736  1.0020 -1.8622  1.0207
  252MOL0     H33971  10.521   7.642   0.423 -1.5073 -0.3586 -0.5146
  252MOL0     H33972  10.414   7.379   0.138 -3.0819  1.6936 -1.4308
  252MOL0     H33973  10.348   7.519   0.202 -0.0795  2.1681 -2.4981
  252MOL0     H33974  10.647   7.542   0.145  0.0018 -0.2160 -1.4871
  252MOL0     H33975  10.531   7.662   0.135  0.4102 -0.2402 -3.3473
  252MOL0     H33976  10.427   7.563  -0.050 -0.4440 -1.2157 -2.2086
  252MOL0     H33977  10.552   7.434  -0.073 -0.9885  0.6945 -0.7443
  252MOL0     H33978  10.714   7.652  -0.028 -2.9994  1.4234  2.8482
  252MOL0     H33979  10.584   7.711  -0.134 -0.2236  1.8159  4.0003
  252MOL0     H33980  10.864   7.753  -0.169  2.6091  1.9540  0.2075
  252MOL0     H33981  11.072   7.853  -0.138  0.8296  0.5359  0.4220
  252MOL0     H33982  11.176   7.724  -0.073 -1.2457 -1.7192  0.0552
  252MOL0     H33983  11.210   7.797  -0.237  0.5158  0.2746  1.0840
  252MOL0     H33984  11.399   7.339  -0.088  0.2497  2.2089  0.7612
  252MOL0     H33985  11.638   7.210  -0.107  1.8203  0.9068 -0.3721
  252MOL0     H33986  11.878   7.202  -0.048  2.6865 -0.5317  0.7995
  252MOL0     H33987  11.810   7.115  -0.194 -1.2387 -0.4005  2.0028
  252MOL0     H33988  12.039   7.156  -0.298  0.5036 -0.8781 -0.5293
  252MOL0     H33989  12.092   7.237  -0.152 -0.2786  1.4743 -3.3350
  252MOL0     H33990  12.043   7.039  -0.025 -2.1319  1.6482 -0.5420
  252MOL0     H33991  12.182   7.033  -0.133 -0.3631  4.1898  1.4231
  252MOL0     H33992  11.894   6.905  -0.154  0.8110  0.3764  3.5846
  252MOL0     H33993  12.015   6.880  -0.290  2.1063 -0.6767  0.4399
  252MOL0     H33994  12.088   6.812  -0.008 -0.8318 -1.4041  0.9556
  252MOL0     H33995  12.140   6.731  -0.155  1.0612  0.1725  0.7347
  252MOL0     H33996  11.969   6.583  -0.047 -1.8053 -1.5743 -0.5494
  252MOL0     H33997  11.871   6.734  -0.019 -2.2218 -0.1972 -2.3171
  252MOL0     H33998  11.904   6.587  -0.285 -3.0890 -0.3093 -1.2459
  252MOL0     H33999  11.825   6.735  -0.259  3.7295  0.8339  0.3282
  252MOL0     H34000  11.790   6.461  -0.124 -1.4899 -0.3254  1.4969
  252MOL0     H34001  11.678   6.522  -0.241  1.2566  1.3926 -0.9792
  252MOL0     H34002  11.781   7.509  -0.360 -0.3978  0.8021 -1.5286
  252MOL0     H34003  11.546   7.652  -0.338  0.5731  0.8322 -0.5103
  252MOL0     H34004  11.080   7.344  -0.347  1.8437  1.9021  0.2728
  252MOL0     H34005  10.843   7.341  -0.294 -0.7987  1.4356 -1.2898
  252MOL0     H34006  10.509   7.610   1.365 -2.2773 -0.0201 -2.3761
  252MOL0     H34007  10.323   7.766   1.395  0.9987 -2.8357  0.7276
  252MOL0     H34008  10.053   8.044   1.109 -0.5124  1.0269 -0.2923
  252MOL0     H34009   9.841   8.131   1.131 -3.0903 -0.8849  2.5682
  252MOL0     H34010   9.657   8.176   1.246  1.0656  0.9495  1.4936
  252MOL0     H34011   9.566   8.305   1.323  0.2186  2.1528 -0.0966
  252MOL0     H34012   9.533   8.335   1.115  0.0619 -2.5182  1.7977
  252MOL0     H34013   9.711   8.346   1.065  0.2796  4.6607 -0.9977
  252MOL0     H34014   9.752   8.532   1.193 -0.1194  2.4589 -0.7900
  252MOL0     H34015   9.588   8.542   1.255  1.0681  1.0346 -0.3918
  252MOL0     H34016   9.597   8.691   1.079  0.8244  1.0410 -2.6871
  252MOL0     H34017   9.520   8.546   1.007  0.2371 -3.6067  1.9430
  252MOL0     H34018   9.873   8.541   0.769  0.7098 -3.0987  1.9719
  252MOL0     H34019   9.988   8.378   1.444 -1.0959 -2.0226  0.4632
  252MOL0     H34020  10.192   8.276   1.452 -0.8304  2.9920 -1.4423
  253MOL0     O34021   6.017   1.605   6.255  0.2394  0.9407  0.1147
  253MOL0     C34022   5.925   1.549   6.320 -0.7364 -0.0066 -0.9425
  253MOL0     O34023   5.874   1.419   6.295 -0.7965 -0.2224 -0.2657
  253MOL0     C34024   5.905   1.339   6.185  0.7858 -0.9026  0.1923
  253MOL0     C34025   5.984   1.366   6.071  0.0027 -0.2229  0.0169
  253MOL0     C34026   6.005   1.274   5.968 -0.4113 -0.5809  0.5510
  253MOL0     C34027   5.955   1.144   5.987  1.0091  0.7415  0.0209
  253MOL0     O34028   5.981   1.048   5.891 -0.6829  0.4666 -0.0350
  253MOL0     C34029   6.118   1.013   5.897 -1.1773  0.0739  0.3570
  253MOL0     C34030   6.159   0.919   5.786 -0.0664 -0.5906  0.2249
  253MOL0     C34031   6.141   0.983   5.643 -0.2666 -0.1833 -0.2166
  253MOL0     C34032   6.187   0.890   5.535  0.5277 -0.2314  0.5562
  253MOL0     C34033   6.123   0.943   5.402 -0.0795  0.5083 -0.5080
  253MOL0     C34034   6.122   0.838   5.300  0.4169  0.3924  0.1343
  253MOL0     C34035   6.062   0.879   5.161  0.9388 -0.9788 -0.3788
  253MOL0     C34036   6.026   0.769   5.073  0.6715  1.2418  0.7975
  253MOL0     N34037   6.145   0.726   4.995 -0.3211 -0.0293  0.8079
  253MOL0     C34038   6.225   0.792   4.905  0.6263 -1.3079 -0.4155
  253MOL0     C34039   6.335   0.718   4.873  0.2959 -0.5132  1.3286
  253MOL0     C34040   6.452   0.765   4.805  0.1917 -0.1726 -0.0360
  253MOL0     C34041   6.438   0.723   4.656  0.2814  0.6740  0.8289
  253MOL0     C34042   6.558   0.765   4.573  0.8309  0.0831 -0.2292
  253MOL0     C34043   6.690   0.732   4.636  0.1404  0.5659 -0.4907
  253MOL0     O34044   6.796   0.752   4.553 -0.2810 -0.1551 -0.4587
  253MOL0     C34045   6.835   0.876   4.507 -1.2351  0.5332  0.3417
  253MOL0     C34046   6.925   0.868   4.396  1.2069 -0.3444 -0.3316
  253MOL0     C34047   6.950   0.975   4.319 -0.1028  0.5915 -0.7740
  253MOL0     C34048   7.040   0.957   4.208 -0.4234 -0.6218  0.2419
  253MOL0     C34049   6.920   1.104   4.365 -0.5137 -0.9798  0.8995
  253MOL0     C34050   6.964   1.234   4.302 -1.2749  0.0628 -0.0986
  253MOL0     O34051   6.964   1.236   4.172  0.4490 -0.7421  0.3951
  253MOL0     C34052   6.968   1.353   4.092  0.2119  0.9383 -0.4080
  253MOL0     C34053   7.065   1.457   4.107 -0.2811 -0.8970 -0.3821
  253MOL0     C34054   7.048   1.565   4.017 -0.8434  0.4631 -0.7308
  253MOL0     C34055   6.954   1.569   3.918 -0.2785  0.7446  0.1056
  253MOL0     O34056   6.956   1.678   3.835 -0.8750  0.5185  0.0195
  253MOL0     C34057   6.862   1.690   3.725 -0.5429  0.1199 -0.5449
  253MOL0     C34058   6.859   1.815   3.641 -0.2948 -0.4542  0.4100
  253MOL0     C34059   6.741   1.807   3.547  0.0615 -1.1282  0.5469
  253MOL0     C34060   6.708   1.958   3.504  0.1211  0.5583  0.4667
  253MOL0     C34061   6.809   2.017   3.395 -0.0624 -0.5809  0.3703
  253MOL0     C34062   6.748   2.139   3.318 -0.6075  0.2472  0.1431
  253MOL0     C34063   6.786   2.263   3.393  0.0284  0.6544 -0.2474
  253MOL0     C34064   6.797   2.384   3.299  0.0758 -0.2494 -0.8513
  253MOL0    Cl34065   6.806   2.540   3.387 -0.2117 -0.2780  0.2723
  253MOL0     C34066   6.860   1.467   3.909 -0.3201  0.0573  0.3431
  253MOL0     C34067   6.878   1.358   3.988  0.0460 -0.2417 -0.5376
  253MOL0     O34068   6.998   1.330   4.376  0.1751  0.3366  0.6502
  253MOL0     C34069   6.842   1.111   4.489  1.1049 -0.6954  0.8694
  253MOL0     C34070   6.796   0.998   4.545  0.6570  0.6623 -0.3164
  253MOL0     N34071   6.319   0.593   4.933  0.0302  0.6193 -0.6788
  253MOL0     N34072   6.210   0.605   5.011 -0.3985  0.8962  0.2453
  253MOL0     C34073   5.867   1.123   6.096  0.8236 -0.2725  1.2168
  253MOL0     C34074   5.836   1.219   6.190  0.2567 -0.6841  0.1068
  253MOL0     C34075   5.889   1.616   6.448  1.2829 -0.8765  0.8182
  253MOL0     C34076   5.784   1.580   6.525 -0.0465  0.1515  0.4159
  253MOL0     C34077   5.734   1.656   6.632  0.2773 -0.1243  0.9079
  253MOL0     C34078   5.798   1.772   6.674  0.1013 -0.0096 -1.0038
  253MOL0     O34079   5.755   1.855   6.765  0.0856 -0.4144 -0.9079
  253MOL0     C34080   5.856   1.931   6.841  0.3490  0.1978  0.6599
  253MOL0     C34081   5.851   1.870   6.975  1.1221  0.8145 -0.2278
  253MOL0     C34082   5.725   1.891   7.054 -0.2007 -0.8571  0.5574
  253MOL0     C34083   5.753   1.870   7.205  0.3405 -0.4944  0.5360
  253MOL0     C34084   5.637   1.846   7.279  0.5687 -1.0725  0.5090
  253MOL0     C34085   5.548   1.826   7.354  0.7722 -0.6645  0.1839
  253MOL0     C34086   5.904   1.811   6.595  0.5873 -0.2948 -0.7000
  253MOL0     C34087   5.953   1.742   6.484  0.1180 -0.5484  0.3749
  253MOL0     H34088   6.025   1.462   6.045 -2.8330  1.1027  0.0229
  253MOL0     H34089   6.064   1.296   5.880 -2.4951 -1.4194 -1.1510
  253MOL0     H34090   6.178   1.103   5.885 -0.0811 -0.8505 -1.7794
  253MOL0     H34091   6.140   0.957   5.988 -0.2669 -0.5595 -0.2292
  253MOL0     H34092   6.259   0.880   5.809 -0.3462 -0.6558  1.3509
  253MOL0     H34093   6.092   0.833   5.776 -1.1722  0.5182 -4.8653
  253MOL0     H34094   6.034   1.003   5.637  0.2896  3.5882 -0.3906
  253MOL0     H34095   6.202   1.074   5.642  0.3806 -0.5380  1.9985
  253MOL0     H34096   6.296   0.885   5.528  0.3711 -2.7740 -2.4016
  253MOL0     H34097   6.163   0.785   5.556  2.9569 -0.5533  2.1261
  253MOL0     H34098   6.018   0.971   5.413 -0.8376 -1.5238 -2.0648
  253MOL0     H34099   6.173   1.039   5.388  0.1979  0.4394 -0.0217
  253MOL0     H34100   6.224   0.800   5.289  0.1602 -0.0562 -0.7499
  253MOL0     H34101   6.066   0.750   5.333 -1.5031  0.5948 -2.3132
  253MOL0     H34102   5.973   0.941   5.175  1.6012 -0.6997  3.4281
  253MOL0     H34103   6.129   0.947   5.108 -0.9754  0.2373 -1.3864
  253MOL0     H34104   5.950   0.805   5.002  1.8594  1.3502 -0.4689
  253MOL0     H34105   5.986   0.684   5.128  2.1639 -1.5142 -2.0148
  253MOL0     H34106   6.216   0.894   4.869  2.1818 -1.8625 -2.5783
  253MOL0     H34107   6.457   0.874   4.811  1.3044 -0.2411  0.5155
  253MOL0     H34108   6.545   0.726   4.847 -0.7989  1.6703  4.4174
  253MOL0     H34109   6.351   0.769   4.608  0.9479 -0.3736 -1.4952
  253MOL0     H34110   6.429   0.615   4.653  0.1048  0.7132 -1.8602
  253MOL0     H34111   6.554   0.874   4.566 -0.8270  0.1070  0.6417
  253MOL0     H34112   6.561   0.719   4.474  0.8511  1.4902 -0.9007
  253MOL0     H34113   6.682   0.628   4.670  2.9408  1.0582  2.1337
  253MOL0     H34114   6.699   0.790   4.728 -0.1790  1.9300 -1.2918
  253MOL0     H34115   6.936   0.764   4.368  0.1653 -1.1952  2.0598
  253MOL0     H34116   7.108   1.042   4.199 -1.0659 -0.0410  0.7907
  253MOL0     H34117   7.092   0.861   4.215 -3.4668 -2.2730  2.9979
  253MOL0     H34118   6.984   0.941   4.116 -2.5307  0.8983  1.1985
  253MOL0     H34119   7.154   1.447   4.168  1.7530  1.8682 -2.6478
  253MOL0     H34120   7.117   1.649   4.026 -0.5606  0.1259  0.5548
  253MOL0     H34121   6.893   1.606   3.662  1.3868 -0.2995  0.8716
  253MOL0     H34122   6.758   1.666   3.750 -1.1395 -0.1066 -2.9661
  253MOL0     H34123   6.840   1.893   3.715 -0.0355  0.3599 -0.3705
  253MOL0     H34124   6.958   1.833   3.599 -0.4463 -2.9648 -1.2459
  253MOL0     H34125   6.650   1.786   3.606  0.4342  0.1018  1.6110
  253MOL0     H34126   6.755   1.731   3.470  0.0605 -1.7153  1.1150
  253MOL0     H34127   6.606   1.956   3.465  0.5934 -1.7210 -0.8581
  253MOL0     H34128   6.714   2.028   3.588 -1.1593 -0.1393  1.1664
  253MOL0     H34129   6.833   1.938   3.324  1.2308  3.1422 -3.8232
  253MOL0     H34130   6.909   2.036   3.436 -0.9183  1.8569  1.5565
  253MOL0     H34131   6.800   2.143   3.222  2.7746  1.7426  1.8744
  253MOL0     H34132   6.640   2.137   3.301 -0.3074 -1.2569 -2.1272
  253MOL0     H34133   6.881   2.250   3.444 -0.9621  0.3983  1.6171
  253MOL0     H34134   6.702   2.279   3.461  0.4563 -3.2003  1.4447
  253MOL0     H34135   6.711   2.385   3.231 -1.0428  2.4645  0.4294
  253MOL0     H34136   6.881   2.366   3.232 -0.9625 -0.4203 -2.1495
  253MOL0     H34137   6.782   1.465   3.833  0.9935 -1.7388 -1.0257
  253MOL0     H34138   6.817   1.271   3.966 -0.8345  0.3127 -0.3349
  253MOL0     H34139   6.835   1.204   4.545 -4.1450 -2.4480  3.8925
  253MOL0     H34140   6.734   1.018   4.632  0.9748  0.4904 -0.0502
  253MOL0     H34141   5.807   1.034   6.110 -0.7909  0.7343  0.8824
  253MOL0     H34142   5.770   1.202   6.275  1.8569 -0.6489  1.4028
  253MOL0     H34143   5.728   1.491   6.495  1.7478 -0.4976 -1.1835
  253MOL0     H34144   5.653   1.625   6.698  2.5006  0.6900  4.3045
  253MOL0     H34145   5.961   1.932   6.812 -0.3196 -1.5450 -2.2658
  253MOL0     H34146   5.818   2.033   6.838 -0.7451 -0.2055 -0.3099
  253MOL0     H34147   5.938   1.913   7.026  1.5079 -3.2059  3.0685
  253MOL0     H34148   5.861   1.761   6.965  0.0553  0.6944 -0.0586
  253MOL0     H34149   5.642   1.827   7.024 -0.3934  0.0827 -1.0386
  253MOL0     H34150   5.684   1.992   7.040  2.3207 -0.0937 -2.1823
  253MOL0     H34151   5.811   1.958   7.233  0.0496  1.6337 -4.4741
  253MOL0     H34152   5.810   1.780   7.231 -2.8897 -2.5961  0.9034
  253MOL0     H34153   5.465   1.823   7.422  2.3367  4.6930  2.8696
  253MOL0     H34154   5.943   1.905   6.630 -0.3265 -0.6917  1.5855
  253MOL0     H34155   6.035   1.785   6.428 -1.0395  0.2262 -0.7914
  254MOL0     O34156   4.432   6.960   5.173  0.2513 -0.2497 -0.1913
  254MOL0     C34157   4.424   6.839   5.156 -0.5966  0.5074  0.1253
  254MOL0     O34158   4.534   6.754   5.152 -0.4226 -0.3220 -0.1369
  254MOL0     C34159   4.663   6.801   5.179  0.5481  1.1974  0.0690
  254MOL0     C34160   4.755   6.820   5.077  0.5738 -0.5314  0.5469
  254MOL0     C34161   4.878   6.882   5.102  0.4233  0.6958  0.1471
  254MOL0     C34162   4.922   6.915   5.223  0.1290 -0.1290  0.0401
  254MOL0     O34163   5.047   6.964   5.231 -0.3407  0.5022 -0.1578
  254MOL0     C34164   5.076   7.076   5.324  0.0352 -0.6244  0.1310
  254MOL0     C34165   5.179   7.158   5.249 -0.4035  0.8317 -0.1253
  254MOL0     C34166   5.201   7.295   5.306  0.5491  0.1348 -0.7555
  254MOL0     C34167   5.340   7.336   5.247  1.0972 -0.1407  0.1880
  254MOL0     C34168   5.375   7.485   5.274 -0.6173 -0.2547  0.8516
  254MOL0     C34169   5.448   7.569   5.163 -0.2197 -0.0844 -0.0271
  254MOL0     C34170   5.589   7.518   5.128  0.0888 -0.5848 -1.1297
  254MOL0     C34171   5.711   7.569   5.220 -0.9645 -0.8638  0.1995
  254MOL0     N34172   5.844   7.525   5.169  0.2538 -0.2824  0.5694
  254MOL0     C34173   5.909   7.404   5.207 -0.7325 -0.5531  0.5124
  254MOL0     C34174   5.995   7.370   5.110 -1.2856 -0.5932 -0.1333
  254MOL0     C34175   6.073   7.250   5.120  0.1029 -0.4640 -0.1080
  254MOL0     C34176   6.177   7.251   5.225  0.0811  0.4316  0.1251
  254MOL0     C34177   6.132   7.241   5.379  0.2242 -0.0981  0.0785
  254MOL0     C34178   6.254   7.190   5.445  0.0793 -1.2815  0.0584
  254MOL0     O34179   6.263   7.047   5.408 -0.8944 -0.7772 -0.4894
  254MOL0     C34180   6.367   6.990   5.468 -1.3361 -0.0199  0.5495
  254MOL0     C34181   6.374   6.858   5.426  0.5979 -0.9009  0.1649
  254MOL0     C34182   6.468   6.769   5.476  0.5606 -0.1416 -0.0231
  254MOL0     C34183   6.470   6.621   5.417 -0.4802 -1.1080 -0.1747
  254MOL0     C34184   6.569   6.814   5.564  0.1827 -0.0501 -0.1260
  254MOL0     C34185   6.669   6.729   5.627 -0.2840 -0.4289 -0.0201
  254MOL0     O34186   6.749   6.787   5.712 -0.1695 -0.3597  0.7018
  254MOL0     C34187   6.868   6.721   5.748  0.7789 -0.3680 -0.5557
  254MOL0     C34188   6.983   6.715   5.661 -0.6842  0.0074  0.4028
  254MOL0     C34189   7.115   6.683   5.713  0.3385  0.2685 -0.0489
  254MOL0     C34190   7.130   6.642   5.845 -0.8805 -0.5209  0.2126
  254MOL0     O34191   7.253   6.594   5.878 -0.2369  0.6057  0.4570
  254MOL0     C34192   7.314   6.685   5.968  0.2242 -0.3588 -0.9594
  254MOL0     C34193   7.446   6.621   6.024 -0.1364  0.5476  0.0253
  254MOL0     C34194   7.493   6.690   6.148 -0.2098 -0.1081 -0.4015
  254MOL0     C34195   7.407   6.660   6.260 -0.3276  0.5488  0.5279
  254MOL0     C34196   7.485   6.628   6.389 -0.0464  0.2704 -0.1993
  254MOL0     C34197   7.538   6.765   6.445  0.1877 -0.0358  0.0363
  254MOL0     C34198   7.622   6.737   6.570  1.2586  0.6408  0.7121
  254MOL0     C34199   7.693   6.857   6.614 -0.0398  0.5447 -1.0093
  254MOL0    Cl34200   7.861   6.885   6.523  0.9440  0.0524  0.0184
  254MOL0     C34201   7.021   6.645   5.932  0.4023 -0.5645 -0.5394
  254MOL0     C34202   6.897   6.682   5.888 -0.0739  0.4249  0.4873
  254MOL0     O34203   6.664   6.609   5.609 -0.1443  0.1539 -0.0034
  254MOL0     C34204   6.566   6.947   5.606 -0.2829 -0.2347 -0.2731
  254MOL0     C34205   6.469   7.032   5.550  1.1485 -0.3201  0.5767
  254MOL0     N34206   5.981   7.480   5.017 -0.0625  0.1947  0.1833
  254MOL0     N34207   5.892   7.571   5.050 -0.0467 -0.2457 -0.3889
  254MOL0     C34208   4.824   6.914   5.327  0.9286 -0.9836  0.2089
  254MOL0     C34209   4.694   6.855   5.306  0.0439 -0.1912 -0.2468
  254MOL0     C34210   4.294   6.777   5.180  0.8681  0.7859  0.0938
  254MOL0     C34211   4.186   6.854   5.228 -0.2885  0.7801  0.8213
  254MOL0     C34212   4.064   6.797   5.268 -0.6392  0.3552  0.6098
  254MOL0     C34213   4.046   6.658   5.269  0.3763 -0.0268 -1.0827
  254MOL0     O34214   3.927   6.595   5.311  0.0873 -0.1883 -0.1939
  254MOL0     C34215   3.792   6.652   5.293 -0.4833  0.4410  0.2190
  254MOL0     C34216   3.763   6.629   5.142  0.4620 -0.5874 -0.2817
  254MOL0     C34217   3.618   6.686   5.106  0.6427  0.6522 -0.0517
  254MOL0     C34218   3.603   6.831   5.124 -0.7277 -0.1174 -0.2375
  254MOL0     C34219   3.547   6.879   5.248 -0.9564  0.1156 -0.2865
  254MOL0     C34220   3.488   6.916   5.346  0.3950 -0.0599 -0.5180
  254MOL0     C34221   4.151   6.585   5.228  0.8332 -0.2954 -0.9896
  254MOL0     C34222   4.272   6.636   5.171  0.3018 -0.0754  0.3886
  254MOL0     H34223   4.738   6.770   4.982 -0.4839 -0.7078  0.8184
  254MOL0     H34224   4.951   6.899   5.023  0.9070  3.7067  1.1249
  254MOL0     H34225   4.990   7.141   5.334 -1.5123 -1.7195 -3.9809
  254MOL0     H34226   5.099   7.040   5.425 -1.8747 -2.9879 -0.1723
  254MOL0     H34227   5.263   7.089   5.235 -2.5721 -1.6829 -1.6731
  254MOL0     H34228   5.132   7.179   5.153 -0.3364  0.4337 -0.2441
  254MOL0     H34229   5.121   7.363   5.274  0.6678  2.5135  3.2767
  254MOL0     H34230   5.203   7.303   5.415 -0.7630 -1.3789 -0.5847
  254MOL0     H34231   5.415   7.264   5.281 -1.9504 -2.0183  3.5039
  254MOL0     H34232   5.343   7.336   5.138  0.8014  0.5971  0.1732
  254MOL0     H34233   5.278   7.531   5.294 -0.7263  1.9122 -3.4099
  254MOL0     H34234   5.445   7.489   5.358 -1.0845  2.3933  1.1975
  254MOL0     H34235   5.378   7.550   5.081  0.2962 -3.6463  0.2191
  254MOL0     H34236   5.443   7.675   5.189 -2.1750  0.2495 -1.5541
  254MOL0     H34237   5.591   7.409   5.122  2.0540 -0.6025 -0.9376
  254MOL0     H34238   5.621   7.558   5.032 -2.8664 -1.7622 -2.7157
  254MOL0     H34239   5.709   7.556   5.328 -3.2621  1.4749  0.5359
  254MOL0     H34240   5.711   7.678   5.207 -0.3437 -0.6888  1.5780
  254MOL0     H34241   5.877   7.336   5.285  1.3251 -2.6493 -0.3710
  254MOL0     H34242   6.006   7.164   5.120  0.8019 -1.0578 -1.8931
  254MOL0     H34243   6.133   7.244   5.028 -0.6731  1.2181 -0.7722
  254MOL0     H34244   6.233   7.344   5.210  0.6932  0.3698  1.8653
  254MOL0     H34245   6.256   7.181   5.198  1.1529  1.4477  0.5424
  254MOL0     H34246   6.053   7.169   5.403 -0.7362  0.1776 -2.0462
  254MOL0     H34247   6.114   7.344   5.410 -0.7430 -0.4370  0.7277
  254MOL0     H34248   6.245   7.200   5.554 -0.3658  0.6725 -0.1162
  254MOL0     H34249   6.344   7.245   5.416 -1.8829  1.2537 -1.7919
  254MOL0     H34250   6.302   6.828   5.351  2.3078 -1.9463 -1.1127
  254MOL0     H34251   6.385   6.611   5.350 -1.3575  3.8045 -0.1571
  254MOL0     H34252   6.567   6.603   5.369  0.0488 -2.5941  1.3695
  254MOL0     H34253   6.456   6.545   5.494 -2.0635  0.6533  1.3839
  254MOL0     H34254   6.963   6.740   5.558  2.2511 -0.8652 -0.4710
  254MOL0     H34255   7.205   6.674   5.655  0.6601 -1.6309  0.6675
  254MOL0     H34256   7.336   6.781   5.919 -1.5096  1.4720  1.5804
  254MOL0     H34257   7.254   6.695   6.059  1.9614 -0.0289  0.2092
  254MOL0     H34258   7.419   6.516   6.041 -0.6232  0.6149 -0.3024
  254MOL0     H34259   7.530   6.634   5.955  0.7368  2.1622  1.3312
  254MOL0     H34260   7.501   6.798   6.134  1.8595 -0.0573  0.7191
  254MOL0     H34261   7.590   6.650   6.181 -0.6096 -0.5342  0.2851
  254MOL0     H34262   7.351   6.754   6.267 -0.6341  0.4745 -0.7758
  254MOL0     H34263   7.330   6.585   6.241  0.1649  0.5041 -1.5063
  254MOL0     H34264   7.571   6.564   6.370 -0.8455 -0.3353 -2.0662
  254MOL0     H34265   7.413   6.578   6.454 -0.5876  0.3956 -0.6913
  254MOL0     H34266   7.620   6.803   6.384  1.8207 -0.5673  1.7839
  254MOL0     H34267   7.456   6.831   6.474 -0.2419 -1.6229  2.9144
  254MOL0     H34268   7.681   6.645   6.560 -0.9863 -0.6315 -2.9223
  254MOL0     H34269   7.547   6.717   6.646  2.2249  0.7196  1.7109
  254MOL0     H34270   7.708   6.845   6.722  2.4666 -1.2633 -1.4861
  254MOL0     H34271   7.635   6.950   6.608  3.5382  2.9805 -0.7070
  254MOL0     H34272   7.029   6.615   6.036  0.6302  1.0553 -0.0660
  254MOL0     H34273   6.821   6.679   5.965 -0.8527  0.9658 -0.2422
  254MOL0     H34274   6.639   6.982   5.679  1.8732  0.3226 -2.5580
  254MOL0     H34275   6.467   7.136   5.579 -4.0113 -0.0748  0.2858
  254MOL0     H34276   4.835   6.952   5.428  0.0046 -0.6948  0.2139
  254MOL0     H34277   4.612   6.860   5.378  0.6564  0.0467  0.4464
  254MOL0     H34278   4.198   6.962   5.228  0.4490  1.0107 -4.7820
  254MOL0     H34279   3.973   6.845   5.304 -4.2843 -2.2301 -4.0119
  254MOL0     H34280   3.719   6.598   5.354 -2.2524  2.8477  0.3916
  254MOL0     H34281   3.781   6.756   5.326 -0.1339  1.2833 -2.1377
  254MOL0     H34282   3.769   6.520   5.146 -1.7102 -0.7554  3.6107
  254MOL0     H34283   3.844   6.671   5.081  2.3539  0.6462  2.8424
  254MOL0     H34284   3.551   6.640   5.179 -0.4392  1.4688 -0.4971
  254MOL0     H34285   3.590   6.650   5.007  2.1556  2.3396 -1.1547
  254MOL0     H34286   3.544   6.869   5.040 -1.8382 -0.8552  0.1886
  254MOL0     H34287   3.704   6.868   5.101  0.4021 -1.6682  1.8611
  254MOL0     H34288   3.420   6.956   5.419 -0.8695  1.7713 -2.5985
  254MOL0     H34289   4.132   6.478   5.225 -1.8161  0.0942 -0.6467
  254MOL0     H34290   4.344   6.560   5.144 -0.8749 -1.2147  0.3801
  255MOL0     O34291   2.456   8.809   5.573  0.8849  0.0346 -0.6150
  255MOL0     C34292   2.476   8.903   5.642  0.0662  0.2146 -0.9483
  255MOL0     O34293   2.571   9.002   5.620 -0.0926 -0.0351 -0.4542
  255MOL0     C34294   2.616   9.015   5.496 -0.5612  0.4479  0.4592
  255MOL0     C34295   2.744   9.059   5.478 -0.5301  0.5026 -1.1889
  255MOL0     C34296   2.804   9.062   5.351 -1.1346 -0.0670 -1.2840
  255MOL0     C34297   2.739   9.014   5.243 -0.3364 -0.8762  0.6785
  255MOL0     O34298   2.803   9.016   5.115 -0.5810  0.2050 -0.0386
  255MOL0     C34299   2.761   9.135   5.049  0.0401  0.6588  0.0814
  255MOL0     C34300   2.795   9.129   4.900  0.3885  0.7079 -0.1335
  255MOL0     C34301   2.727   9.240   4.819 -0.0925 -0.6201 -1.1175
  255MOL0     C34302   2.744   9.231   4.666 -0.0779  0.1145 -0.0483
  255MOL0     C34303   2.668   9.347   4.594  0.7364  0.5557  0.7533
  255MOL0     C34304   2.660   9.321   4.445 -0.1889 -0.4998  0.8093
  255MOL0     C34305   2.611   9.437   4.357  1.0699 -0.6973 -0.5474
  255MOL0     C34306   2.467   9.472   4.394 -0.3538  0.7125  0.6408
  255MOL0     N34307   2.427   9.595   4.327  0.2178 -0.4705  0.7638
  255MOL0     C34308   2.308   9.598   4.256 -0.3633 -0.9662 -0.2417
  255MOL0     C34309   2.323   9.709   4.183  0.6189  0.2403  0.7913
  255MOL0     C34310   2.212   9.764   4.091 -0.6692  0.4843 -0.2678
  255MOL0     C34311   2.272   9.791   3.951 -0.0871 -0.1579  0.1645
  255MOL0     C34312   2.171   9.883   3.866 -0.1959 -0.0528  0.4520
  255MOL0     C34313   2.224   9.909   3.720 -0.0059  0.6505 -0.9808
  255MOL0     O34314   2.127  10.002   3.663  0.3746  0.1462 -0.0152
  255MOL0     C34315   2.127  10.021   3.523 -0.0726 -0.1185 -0.2519
  255MOL0     C34316   2.250  10.014   3.454  0.9537  0.2974  0.4347
  255MOL0     C34317   2.253  10.045   3.324  0.7414  0.1724  0.5051
  255MOL0     C34318   2.378  10.019   3.257 -0.3972  0.2788 -0.0372
  255MOL0     C34319   2.132  10.082   3.245 -0.8313 -1.0169 -0.6975
  255MOL0     C34320   2.143  10.128   3.098 -0.5970  0.8934  0.2624
  255MOL0     O34321   2.028  10.164   3.038 -0.0371 -0.3575 -0.7761
  255MOL0     C34322   2.001  10.207   2.911 -0.1922 -0.4344 -0.4768
  255MOL0     C34323   2.097  10.286   2.843 -1.2240  0.3282  0.1133
  255MOL0     C34324   2.065  10.337   2.725 -0.2585  1.0518  1.4509
  255MOL0     C34325   1.943  10.298   2.662  0.3402 -0.6622  1.0404
  255MOL0     O34326   1.929  10.340   2.539 -0.4234  0.0130 -0.6793
  255MOL0     C34327   1.808  10.294   2.471 -0.4267  0.2907 -0.3733
  255MOL0     C34328   1.816  10.344   2.332  0.4704 -0.0555 -0.0321
  255MOL0     C34329   1.684  10.297   2.256  0.2508 -0.9207 -0.0194
  255MOL0     C34330   1.628  10.412   2.186 -1.1194 -0.3847  0.8792
  255MOL0     C34331   1.516  10.383   2.082 -0.6988 -0.7797  0.9021
  255MOL0     C34332   1.450  10.511   2.021 -0.4651  1.0738  0.5311
  255MOL0     C34333   1.373  10.596   2.121 -1.0264  0.5540 -0.0724
  255MOL0     C34334   1.251  10.666   2.059  0.7543 -0.1031  0.1137
  255MOL0    Cl34335   1.176  10.792   2.159 -0.1595 -0.1958  0.3328
  255MOL0     C34336   1.851  10.221   2.729 -1.1046  0.6841 -0.1738
  255MOL0     C34337   1.877  10.175   2.855 -1.0119  0.5225 -1.7050
  255MOL0     O34338   2.253  10.129   3.036 -0.4534 -0.0656 -0.3099
  255MOL0     C34339   2.011  10.093   3.319  0.2531 -0.5142  0.0591
  255MOL0     C34340   2.009  10.065   3.458  0.4434  0.3083  0.5445
  255MOL0     N34341   2.441   9.764   4.226 -0.4156 -0.1962 -0.7825
  255MOL0     N34342   2.500   9.705   4.321  0.0436 -0.4668  0.9531
  255MOL0     C34343   2.600   8.978   5.252 -0.5873 -0.5980 -1.4503
  255MOL0     C34344   2.537   8.982   5.383  0.4412 -0.2441  0.9597
  255MOL0     C34345   2.393   8.923   5.769  0.3483  0.0902  0.8583
  255MOL0     C34346   2.420   9.031   5.855 -0.3909 -0.4880  0.4703
  255MOL0     C34347   2.353   9.043   5.978  0.0364 -0.0137 -0.4315
  255MOL0     C34348   2.253   8.943   6.008 -0.5614 -0.4996  0.7468
  255MOL0     O34349   2.217   8.945   6.136 -0.2289  0.3398  0.3433
  255MOL0     C34350   2.084   8.892   6.162  0.5546  0.5569 -0.0003
  255MOL0     C34351   1.979   9.011   6.147  0.5223  0.7882  0.3034
  255MOL0     C34352   2.032   9.135   6.215  0.3487  0.1409  0.2081
  255MOL0     C34353   1.929   9.255   6.238  0.4480 -0.0161 -1.1652
  255MOL0     C34354   1.875   9.281   6.106  0.5312 -0.1290 -0.5766
  255MOL0     C34355   1.842   9.319   5.991 -0.5586 -0.5273  0.7971
  255MOL0     C34356   2.239   8.834   5.920  1.0848  0.1558  0.2747
  255MOL0     C34357   2.299   8.825   5.802  0.1193 -0.4576  0.5287
  255MOL0     H34358   2.808   9.085   5.562  3.4507  1.3322 -4.1952
  255MOL0     H34359   2.905   9.100   5.340 -0.1600 -2.5500 -1.7293
  255MOL0     H34360   2.653   9.149   5.044  0.0438  0.2929 -2.4673
  255MOL0     H34361   2.817   9.213   5.101 -0.4126 -1.0628  3.4480
  255MOL0     H34362   2.903   9.121   4.881 -0.3905 -1.5731 -5.4872
  255MOL0     H34363   2.751   9.039   4.857 -1.1181  2.1823 -1.8299
  255MOL0     H34364   2.620   9.224   4.832  0.5487 -3.3247  2.5311
  255MOL0     H34365   2.752   9.342   4.849  1.3674 -1.0224 -0.8899
  255MOL0     H34366   2.851   9.234   4.643 -0.3334  2.8743 -1.2579
  255MOL0     H34367   2.711   9.132   4.636 -1.6594  1.5444 -3.6027
  255MOL0     H34368   2.565   9.357   4.627  0.7032 -2.3123  1.8311
  255MOL0     H34369   2.709   9.446   4.615 -1.0479  1.1949  1.4074
  255MOL0     H34370   2.761   9.304   4.406  0.1959 -1.2493  2.0786
  255MOL0     H34371   2.600   9.233   4.420 -0.2520 -0.2189 -0.0774
  255MOL0     H34372   2.672   9.528   4.366  1.2908 -0.9837  1.0989
  255MOL0     H34373   2.619   9.413   4.250  2.9131  0.0081 -0.6140
  255MOL0     H34374   2.436   9.460   4.498 -1.1352 -1.6605  0.1907
  255MOL0     H34375   2.414   9.388   4.348  1.2731  0.5802 -1.1378
  255MOL0     H34376   2.222   9.535   4.235 -3.1336  3.1729 -2.6440
  255MOL0     H34377   2.123   9.703   4.075 -0.7952  0.1446  1.4650
  255MOL0     H34378   2.166   9.858   4.125 -1.5025 -0.2145  0.5930
  255MOL0     H34379   2.305   9.698   3.903  5.2423  0.6725  1.4955
  255MOL0     H34380   2.354   9.857   3.979 -1.5547  1.4265  0.8912
  255MOL0     H34381   2.175   9.980   3.917  3.5194 -1.6195  3.5785
  255MOL0     H34382   2.072   9.841   3.847 -0.2649 -1.0256  2.7125
  255MOL0     H34383   2.240   9.820   3.659  0.4361  0.4072 -0.5153
  255MOL0     H34384   2.318   9.965   3.725  1.4328 -1.5745  5.2025
  255MOL0     H34385   2.336   9.968   3.502  2.5941 -0.6110 -2.9856
  255MOL0     H34386   2.365   9.947   3.176  0.6442 -0.6933  0.6201
  255MOL0     H34387   2.427  10.108   3.216  1.0790 -1.5784 -2.6275
  255MOL0     H34388   2.444   9.970   3.330  1.6614  2.0411 -0.6118
  255MOL0     H34389   2.193  10.312   2.886 -1.0683  1.6868 -0.9643
  255MOL0     H34390   2.127  10.410   2.675 -3.6633  3.1971  0.0289
  255MOL0     H34391   1.798  10.185   2.478 -1.2261  0.3241 -0.9620
  255MOL0     H34392   1.722  10.349   2.509 -0.2100  0.6012 -0.3335
  255MOL0     H34393   1.828  10.452   2.330  0.6451 -0.0733  0.0119
  255MOL0     H34394   1.906  10.319   2.275  0.4974  0.9381 -0.4502
  255MOL0     H34395   1.622  10.242   2.327  1.2867 -2.3804 -0.1959
  255MOL0     H34396   1.717  10.222   2.184  1.2303  1.6835 -2.5009
  255MOL0     H34397   1.592  10.479   2.265  0.8262  0.1571  1.3779
  255MOL0     H34398   1.712  10.452   2.129 -0.2048 -0.6101  2.0129
  255MOL0     H34399   1.432  10.334   2.131 -1.7153  0.0028 -0.0235
  255MOL0     H34400   1.557  10.323   2.000  0.6552 -0.7465  1.5118
  255MOL0     H34401   1.538  10.566   1.988  2.3158 -2.5662  1.2700
  255MOL0     H34402   1.390  10.500   1.929 -1.8700 -1.8444  1.6819
  255MOL0     H34403   1.449  10.668   2.153 -1.6760  0.7411  1.1137
  255MOL0     H34404   1.345  10.542   2.212 -1.4545  2.0130  0.6960
  255MOL0     H34405   1.181  10.596   2.013 -0.6193  1.5581 -0.4581
  255MOL0     H34406   1.288  10.721   1.972 -0.0652  0.3943  0.0680
  255MOL0     H34407   1.763  10.183   2.678  0.2288 -1.7554 -0.7946
  255MOL0     H34408   1.801  10.117   2.907  1.0327  0.3227  1.3162
  255MOL0     H34409   1.914  10.119   3.276 -1.4084  0.3858  3.9175
  255MOL0     H34410   1.920  10.088   3.514 -1.3092  1.1732 -2.3962
  255MOL0     H34411   2.531   8.950   5.173 -0.9673 -1.3953 -0.8483
  255MOL0     H34412   2.434   8.946   5.380  1.5898 -4.0056 -1.4844
  255MOL0     H34413   2.478   9.113   5.816 -2.4913  1.6751  1.6307
  255MOL0     H34414   2.377   9.123   6.048 -0.1795 -0.2128 -0.1260
  255MOL0     H34415   2.046   8.817   6.092 -0.4437  2.4118 -1.5348
  255MOL0     H34416   2.068   8.844   6.259  0.4626 -0.9430 -0.7362
  255MOL0     H34417   1.888   8.973   6.194  0.7581  0.8428  0.8053
  255MOL0     H34418   1.974   9.024   6.038 -0.5854 -3.3462 -0.3040
  255MOL0     H34419   2.109   9.186   6.155 -0.0136 -1.2550 -1.5292
  255MOL0     H34420   2.075   9.110   6.312  1.4076  3.3069  0.7037
  255MOL0     H34421   1.974   9.348   6.274 -0.4794  1.2188 -3.0835
  255MOL0     H34422   1.849   9.220   6.304 -1.4491  0.8040 -2.9265
  255MOL0     H34423   1.827   9.369   5.898  2.3644 -0.5384  0.2323
  255MOL0     H34424   2.176   8.746   5.931  3.0887 -1.3930 -0.0515
  255MOL0     H34425   2.252   8.754   5.735 -0.6464  2.0122 -1.7503
  256MOL0     O34426   3.679   3.697   2.605 -0.2421 -0.3390 -0.1129
  256MOL0     C34427   3.650   3.794   2.663  0.2797 -0.2048 -0.9429
  256MOL0     O34428   3.532   3.864   2.636 -0.3241 -0.1253  0.1224
  256MOL0     C34429   3.442   3.823   2.541  0.3985 -0.4174 -0.0971
  256MOL0     C34430   3.353   3.925   2.495 -0.0603  0.4321  0.4382
  256MOL0     C34431   3.259   3.892   2.393  0.1732  0.2966 -0.0080
  256MOL0     C34432   3.239   3.767   2.340  0.0356  0.1263 -0.3352
  256MOL0     O34433   3.153   3.742   2.240 -0.2911 -0.2274 -0.1920
  256MOL0     C34434   3.013   3.776   2.258 -0.1098  0.3268 -0.3372
  256MOL0     C34435   2.942   3.745   2.122  0.9143 -0.0211 -0.3690
  256MOL0     C34436   2.881   3.607   2.110 -0.7854  0.3600  0.1987
  256MOL0     C34437   2.993   3.505   2.095  0.5193  0.7662 -0.2844
  256MOL0     C34438   2.937   3.366   2.054 -0.0192 -0.2101  0.2342
  256MOL0     C34439   3.054   3.273   2.018  0.9142  0.1297 -0.3073
  256MOL0     C34440   3.111   3.288   1.881  0.2593  0.4530  0.2394
  256MOL0     C34441   3.027   3.229   1.770 -0.2517  0.3245  1.2455
  256MOL0     N34442   3.091   3.211   1.634 -0.1192  0.5525 -0.7089
  256MOL0     C34443   3.218   3.146   1.619  1.2838 -0.9202 -0.8867
  256MOL0     C34444   3.260   3.187   1.496 -0.4619 -0.5321 -0.7892
  256MOL0     C34445   3.397   3.141   1.458 -0.5144 -1.0715  0.9526
  256MOL0     C34446   3.417   2.991   1.468 -0.2082 -0.2679  0.4252
  256MOL0     C34447   3.394   2.914   1.336  0.4375  0.7181  0.6415
  256MOL0     C34448   3.243   2.885   1.326 -0.2208 -0.4650 -0.2401
  256MOL0     O34449   3.218   2.761   1.250  0.5817 -0.7254 -0.2493
  256MOL0     C34450   3.094   2.717   1.253  0.4362 -0.0417 -0.7917
  256MOL0     C34451   3.075   2.589   1.199 -0.6912  0.2978  0.1180
  256MOL0     C34452   2.946   2.533   1.187 -0.2544  0.7559 -0.5952
  256MOL0     C34453   2.939   2.393   1.127  0.2040  0.6450  0.4125
  256MOL0     C34454   2.838   2.611   1.214  1.0003  1.1838 -0.4447
  256MOL0     C34455   2.694   2.571   1.181  0.1202 -0.1559 -0.5524
  256MOL0     O34456   2.607   2.561   1.280 -0.2156 -0.0996 -0.2690
  256MOL0     C34457   2.463   2.574   1.262 -0.3174 -0.6171 -0.1222
  256MOL0     C34458   2.378   2.465   1.256 -0.2633  0.4537 -0.0466
  256MOL0     C34459   2.234   2.480   1.259  0.7142  0.5159  0.1131
  256MOL0     C34460   2.173   2.601   1.240 -0.9319  0.2761 -0.6649
  256MOL0     O34461   2.037   2.610   1.243  0.6327  0.1802 -0.2004
  256MOL0     C34462   1.980   2.727   1.295 -0.1273 -0.7542 -0.5639
  256MOL0     C34463   1.952   2.835   1.195  0.1644  0.1273 -0.3183
  256MOL0     C34464   1.881   2.774   1.075 -1.1188 -0.6410 -0.2433
  256MOL0     C34465   1.842   2.881   0.977 -0.7465  0.1901  0.3062
  256MOL0     C34466   1.763   2.818   0.855 -0.8423  1.3265 -0.1604
  256MOL0     C34467   1.643   2.913   0.815  0.0867 -0.2409  0.2392
  256MOL0     C34468   1.607   2.896   0.665 -0.6065  1.1881 -0.3172
  256MOL0     C34469   1.469   2.952   0.623 -0.3907  1.6067 -0.7639
  256MOL0    Cl34470   1.449   3.124   0.642  0.0145 -0.7612  0.1058
  256MOL0     C34471   2.263   2.709   1.236  0.7136 -0.8059  0.0437
  256MOL0     C34472   2.400   2.697   1.256  1.4948  0.3220  0.2458
  256MOL0     O34473   2.669   2.553   1.063 -0.8775 -0.2622  1.0195
  256MOL0     C34474   2.854   2.725   1.282 -0.4344  1.0545  0.8113
  256MOL0     C34475   2.977   2.786   1.297 -0.8579 -0.0151 -0.2479
  256MOL0     N34476   3.159   3.260   1.434 -0.2917 -0.6557 -0.0411
  256MOL0     N34477   3.064   3.271   1.524  0.1464  0.1070 -1.3698
  256MOL0     C34478   3.324   3.665   2.379 -0.3109 -0.3328 -0.1907
  256MOL0     C34479   3.423   3.700   2.478 -0.6669  0.3080  0.4046
  256MOL0     C34480   3.724   3.842   2.787  0.1063  0.2809 -0.2810
  256MOL0     C34481   3.836   3.765   2.838 -0.6432 -0.6343 -0.6098
  256MOL0     C34482   3.920   3.797   2.941  1.2907  0.1579 -0.1037
  256MOL0     C34483   3.902   3.932   2.990  0.1216  1.0295  0.7496
  256MOL0     O34484   3.995   4.000   3.066 -0.1300 -0.1367 -0.2307
  256MOL0     C34485   4.084   3.920   3.151  0.0693 -0.3901  0.4399
  256MOL0     C34486   4.179   4.004   3.244  0.5424  0.7495  0.4900
  256MOL0     C34487   4.135   4.102   3.358 -0.1787 -0.7969  0.1869
  256MOL0     C34488   4.021   4.042   3.434  0.5252 -0.4800  0.2261
  256MOL0     C34489   4.003   4.131   3.552  0.0334 -0.2298 -0.3983
  256MOL0     C34490   3.979   4.202   3.643  0.7051 -0.0702  0.5293
  256MOL0     C34491   3.797   4.012   2.941  0.4964  0.7685 -0.2294
  256MOL0     C34492   3.700   3.970   2.845 -1.2488  0.3260 -0.3945
  256MOL0     H34493   3.355   4.020   2.549 -0.6642  0.0563  1.1273
  256MOL0     H34494   3.200   3.974   2.353  1.0823 -0.2299 -2.6557
  256MOL0     H34495   2.965   3.729   2.345 -1.4048 -0.4785 -1.4443
  256MOL0     H34496   3.005   3.884   2.273  0.2299  0.1170  1.7274
  256MOL0     H34497   2.855   3.812   2.121 -0.0881 -1.2720  0.3560
  256MOL0     H34498   3.021   3.769   2.050 -1.4801  2.1466 -2.5099
  256MOL0     H34499   2.829   3.591   2.205 -1.7919  0.3300 -0.3359
  256MOL0     H34500   2.817   3.585   2.023  1.6231  0.0862 -1.6002
  256MOL0     H34501   3.064   3.547   2.023  0.6555  1.5064  0.2589
  256MOL0     H34502   3.050   3.483   2.186  2.2191  0.5946 -1.3558
  256MOL0     H34503   2.880   3.340   2.144 -1.4362 -1.3060 -0.9494
  256MOL0     H34504   2.872   3.373   1.967 -0.9161 -0.1131  0.8970
  256MOL0     H34505   3.140   3.298   2.080 -1.2788  0.9206  2.6029
  256MOL0     H34506   3.020   3.171   2.039 -0.5822  0.8156  0.7402
  256MOL0     H34507   3.134   3.393   1.857  4.6672 -0.4392 -0.1984
  256MOL0     H34508   3.206   3.235   1.878  0.8230  1.4141  0.6528
  256MOL0     H34509   2.929   3.274   1.753  0.7253  2.0717 -0.0532
  256MOL0     H34510   3.015   3.122   1.792  2.2466 -1.0585 -2.8796
  256MOL0     H34511   3.275   3.096   1.696  0.3350 -3.8113 -1.9198
  256MOL0     H34512   3.414   3.174   1.355 -4.3371  4.9663  1.7496
  256MOL0     H34513   3.471   3.191   1.521  0.3957 -1.8246  0.5054
  256MOL0     H34514   3.361   2.940   1.547  0.3909 -1.2619  0.2205
  256MOL0     H34515   3.525   2.987   1.487 -0.3836  0.0178  1.5700
  256MOL0     H34516   3.444   2.818   1.353 -2.0961 -0.6293  1.0707
  256MOL0     H34517   3.425   2.962   1.243 -0.1302 -3.0587 -1.7353
  256MOL0     H34518   3.199   2.971   1.273  4.1415  0.3306 -3.1348
  256MOL0     H34519   3.194   2.867   1.422 -3.5030 -1.7892 -1.9819
  256MOL0     H34520   3.151   2.517   1.170 -0.2156  1.9019 -3.1719
  256MOL0     H34521   2.839   2.370   1.090 -0.1273 -0.1263  1.7192
  256MOL0     H34522   3.010   2.384   1.045  0.1646  0.6152  0.3819
  256MOL0     H34523   2.965   2.324   1.207 -0.4813  1.2763  1.2005
  256MOL0     H34524   2.416   2.364   1.267  0.5049  0.7853  0.4255
  256MOL0     H34525   2.167   2.396   1.258 -1.6863  2.3220 -0.9137
  256MOL0     H34526   1.883   2.688   1.329 -2.3393  3.2469 -1.6731
  256MOL0     H34527   2.037   2.760   1.382 -1.1450  0.1049 -0.1966
  256MOL0     H34528   1.876   2.905   1.230 -3.1332 -3.1128 -0.2652
  256MOL0     H34529   2.043   2.886   1.165 -0.7111  2.6404  1.0655
  256MOL0     H34530   1.804   2.707   1.115  1.2413 -0.6404  5.1469
  256MOL0     H34531   1.953   2.705   1.031  2.4763  2.4481  0.2916
  256MOL0     H34532   1.787   2.962   1.025  2.6119  2.4278  0.6601
  256MOL0     H34533   1.933   2.923   0.933 -1.8311 -0.9321 -3.4315
  256MOL0     H34534   1.720   2.723   0.887 -0.2672 -0.1314 -3.2535
  256MOL0     H34535   1.828   2.799   0.769  0.9361 -0.0603  1.3878
  256MOL0     H34536   1.554   2.898   0.877 -0.5653 -0.2702 -0.6801
  256MOL0     H34537   1.667   3.018   0.834 -3.0720  1.2423 -2.8067
  256MOL0     H34538   1.623   2.791   0.641 -2.3226  0.6385  0.8232
  256MOL0     H34539   1.683   2.953   0.610 -2.7769  3.1048 -1.5038
  256MOL0     H34540   1.377   2.904   0.656 -0.6708  0.9052 -2.4651
  256MOL0     H34541   1.469   2.929   0.516  1.5179 -2.1942 -0.1093
  256MOL0     H34542   2.218   2.807   1.251  0.7597 -0.8938  0.7900
  256MOL0     H34543   2.457   2.789   1.251 -3.2725  3.7507  1.4457
  256MOL0     H34544   2.763   2.776   1.313 -1.8886 -1.4552  0.9784
  256MOL0     H34545   2.984   2.887   1.338  1.7455 -1.0613  2.2124
  256MOL0     H34546   3.320   3.562   2.345  0.7537 -0.3092 -0.4245
  256MOL0     H34547   3.484   3.614   2.501 -2.6237 -1.4212 -0.5268
  256MOL0     H34548   3.844   3.670   2.786 -0.9563 -0.4247 -1.0481
  256MOL0     H34549   3.996   3.736   2.990  2.5007  1.2336 -0.5839
  256MOL0     H34550   4.031   3.850   3.216  0.0813 -1.4559 -0.6443
  256MOL0     H34551   4.149   3.873   3.075  0.4781  0.3376  0.3346
  256MOL0     H34552   4.233   4.059   3.166  1.6090  1.0675  1.4360
  256MOL0     H34553   4.252   3.932   3.281 -0.6578 -0.7334  0.0849
  256MOL0     H34554   4.089   4.190   3.312 -3.0518 -3.4038 -2.4193
  256MOL0     H34555   4.218   4.123   3.426 -0.2983 -0.3120  0.1871
  256MOL0     H34556   4.027   3.938   3.468  1.0738 -1.4106 -2.5088
  256MOL0     H34557   3.936   4.049   3.366  0.4151 -0.8135  0.3270
  256MOL0     H34558   3.928   4.267   3.711  0.9561 -0.4624  1.0987
  256MOL0     H34559   3.788   4.116   2.971  1.0593  1.3300 -1.8968
  256MOL0     H34560   3.627   4.042   2.809 -2.7111  0.1511  1.9889
  257MOL0     O34561   9.645   4.369   4.903  1.0030 -0.0684  0.3776
  257MOL0     C34562   9.630   4.267   4.968 -0.2524  0.7045 -0.2701
  257MOL0     O34563   9.725   4.184   5.015 -0.0724 -0.9174  0.2925
  257MOL0     C34564   9.864   4.211   5.020 -0.0160  0.3213 -0.1867
  257MOL0     C34565   9.940   4.099   5.021 -0.4251  0.8297  1.0297
  257MOL0     C34566  10.081   4.092   4.991  0.8168  0.4929 -0.2832
  257MOL0     C34567  10.134   4.224   4.955  0.4047 -0.4346  0.2876
  257MOL0     O34568  10.260   4.248   4.918 -0.5078 -1.1929 -0.9839
  257MOL0     C34569  10.341   4.150   4.868  0.4906  0.6291 -0.6152
  257MOL0     C34570  10.434   4.218   4.774 -1.3791 -0.9470  0.5620
  257MOL0     C34571  10.563   4.142   4.732 -0.2916  0.6453 -0.1213
  257MOL0     C34572  10.531   4.053   4.606  0.3324  0.4152  0.2134
  257MOL0     C34573  10.656   3.976   4.572  0.5257 -0.0296  0.3238
  257MOL0     C34574  10.627   3.878   4.459 -0.6535 -0.6819 -0.6455
  257MOL0     C34575  10.755   3.810   4.441  1.1926  0.6095  0.7019
  257MOL0     C34576  10.748   3.690   4.338 -0.5967 -0.6266 -0.0224
  257MOL0     N34577  10.887   3.635   4.316 -0.4538 -0.2034  0.1417
  257MOL0     C34578  10.964   3.647   4.206  0.2620 -0.7706  0.5820
  257MOL0     C34579  11.075   3.580   4.223 -0.0524  0.0221 -0.5008
  257MOL0     C34580  11.193   3.596   4.134 -0.3020  0.6612 -0.2795
  257MOL0     C34581  11.314   3.653   4.223  0.5904 -0.6715  0.2197
  257MOL0     C34582  11.310   3.796   4.276 -0.1241  0.2455 -0.4015
  257MOL0     C34583  11.269   3.901   4.171 -0.9887 -0.8551 -0.2240
  257MOL0     O34584  11.347   3.896   4.055  0.2142  0.2296  0.6334
  257MOL0     C34585  11.334   3.991   3.973 -0.9793 -0.4931  0.5357
  257MOL0     C34586  11.442   4.000   3.884  0.9111  0.4799 -0.1526
  257MOL0     C34587  11.440   4.099   3.787 -0.4927  0.0026 -0.1905
  257MOL0     C34588  11.558   4.095   3.698 -0.7144  0.1103  0.2329
  257MOL0     C34589  11.343   4.199   3.774  0.0518 -0.1852 -0.8583
  257MOL0     C34590  11.351   4.321   3.688  0.3785 -0.5617  0.1051
  257MOL0     O34591  11.471   4.367   3.653 -0.1833 -0.1020  0.1705
  257MOL0     C34592  11.488   4.494   3.620 -0.0703 -0.3866  0.0422
  257MOL0     C34593  11.429   4.554   3.509  0.6485  0.4675 -0.4636
  257MOL0     C34594  11.452   4.694   3.480  0.5068 -0.3983 -0.6008
  257MOL0     C34595  11.520   4.776   3.575 -0.2619 -0.0035  0.1820
  257MOL0     O34596  11.554   4.915   3.569  0.6262  0.8414  0.1912
  257MOL0     C34597  11.532   4.987   3.446  0.8256  0.2515 -0.6133
  257MOL0     C34598  11.580   5.135   3.457 -0.3385 -0.2105  0.6359
  257MOL0     C34599  11.558   5.224   3.329 -0.3086 -0.2743 -0.0264
  257MOL0     C34600  11.639   5.359   3.328 -0.3236 -0.4255  0.1857
  257MOL0     C34601  11.629   5.425   3.190 -0.1859 -0.6137  1.1241
  257MOL0     C34602  11.686   5.571   3.174 -0.0464 -0.5202 -0.1257
  257MOL0     C34603  11.720   5.607   3.018  0.2370  0.2259  0.4164
  257MOL0     C34604  11.599   5.624   2.925 -0.7256 -0.3627  0.9195
  257MOL0    Cl34605  11.481   5.726   3.003 -0.5059 -0.5061 -0.0545
  257MOL0     C34606  11.583   4.705   3.677 -0.0711  0.6164 -0.2377
  257MOL0     C34607  11.573   4.570   3.698  0.3165  0.1638 -0.0872
  257MOL0     O34608  11.243   4.367   3.646  0.2133  0.2668  0.1782
  257MOL0     C34609  11.238   4.187   3.866 -0.3343 -0.2299  0.5192
  257MOL0     C34610  11.235   4.095   3.968 -0.2736  0.0200  0.4283
  257MOL0     N34611  11.075   3.526   4.355  0.3071  0.2107  0.1637
  257MOL0     N34612  10.962   3.563   4.406  0.5801 -0.4520  0.2925
  257MOL0     C34613  10.059   4.342   4.967 -0.0751  1.0953 -1.0385
  257MOL0     C34614   9.928   4.330   4.995  0.8946  0.0777 -0.4036
  257MOL0     C34615   9.491   4.225   5.008 -0.3123 -0.7648  0.7950
  257MOL0     C34616   9.390   4.260   4.927 -0.5656 -0.0373  0.3529
  257MOL0     C34617   9.263   4.237   4.964  0.2654 -0.0061  0.4045
  257MOL0     C34618   9.230   4.168   5.079  0.6401  0.5962 -0.8586
  257MOL0     O34619   9.091   4.151   5.104 -0.5541  0.2355  0.4890
  257MOL0     C34620   9.039   4.078   5.214 -0.1076 -0.4605  0.1506
  257MOL0     C34621   9.031   4.161   5.348  0.2581 -0.0349 -0.1814
  257MOL0     C34622   8.940   4.282   5.347  0.0422  0.2447 -1.0092
  257MOL0     C34623   8.941   4.340   5.488 -0.3753  0.2759  0.0712
  257MOL0     C34624   9.058   4.428   5.507 -0.5835  0.4700  0.0855
  257MOL0     C34625   9.174   4.471   5.526 -0.4217 -0.5683  0.4078
  257MOL0     C34626   9.338   4.126   5.163  0.3499 -1.1392  0.0138
  257MOL0     C34627   9.468   4.158   5.124  0.1037  0.3115 -0.5410
  257MOL0     H34628   9.892   4.007   5.050  1.6496 -0.1047  1.6613
  257MOL0     H34629  10.134   3.999   5.005 -1.3041 -1.0437 -1.7306
  257MOL0     H34630  10.401   4.106   4.948  2.4101  1.0972 -1.7381
  257MOL0     H34631  10.283   4.082   4.804  1.9121  0.9968 -2.3565
  257MOL0     H34632  10.377   4.237   4.683  0.8954  2.1132 -0.3779
  257MOL0     H34633  10.461   4.313   4.821 -2.1419  0.5149 -1.7875
  257MOL0     H34634  10.639   4.212   4.696  0.6424 -0.3511 -0.1322
  257MOL0     H34635  10.602   4.086   4.818 -0.6325  4.6416  2.9628
  257MOL0     H34636  10.450   3.985   4.637  2.0637 -0.1368  4.1354
  257MOL0     H34637  10.509   4.117   4.520  2.1730 -0.1780 -0.7479
  257MOL0     H34638  10.740   4.044   4.555  0.1431  0.5185  0.5727
  257MOL0     H34639  10.687   3.915   4.657  0.7487  0.2239  0.4240
  257MOL0     H34640  10.553   3.801   4.482  0.5277 -1.7420 -0.2385
  257MOL0     H34641  10.598   3.934   4.370 -0.9267 -0.5655 -0.4859
  257MOL0     H34642  10.833   3.876   4.401 -1.1398  3.1475  0.0213
  257MOL0     H34643  10.782   3.773   4.540 -0.6179 -0.8020  0.7192
  257MOL0     H34644  10.711   3.722   4.240  0.1943  1.2655  0.2477
  257MOL0     H34645  10.677   3.613   4.369 -2.2501 -1.3991 -4.8397
  257MOL0     H34646  10.947   3.712   4.120 -1.4078 -0.4524  1.1071
  257MOL0     H34647  11.215   3.498   4.091  1.7992  0.8156  0.2830
  257MOL0     H34648  11.157   3.659   4.052 -2.8432  0.1771  0.3890
  257MOL0     H34649  11.407   3.643   4.167  1.9613  4.5199  1.0611
  257MOL0     H34650  11.317   3.593   4.314 -2.0269  0.6811  1.3094
  257MOL0     H34651  11.409   3.813   4.319  0.3993 -4.0616  0.5814
  257MOL0     H34652  11.241   3.789   4.361 -0.9225  1.9838 -0.8532
  257MOL0     H34653  11.279   4.004   4.208  1.3631 -0.6595 -1.2238
  257MOL0     H34654  11.161   3.887   4.157 -1.1185  2.1101 -3.6064
  257MOL0     H34655  11.528   3.935   3.892 -1.7816 -3.2034  2.4915
  257MOL0     H34656  11.631   4.176   3.704 -0.0918 -0.3007 -1.4637
  257MOL0     H34657  11.614   4.004   3.717  1.3069  1.1934 -0.2789
  257MOL0     H34658  11.520   4.078   3.597 -0.2829 -0.2776  0.1357
  257MOL0     H34659  11.355   4.500   3.450 -0.0048  1.5122 -0.6171
  257MOL0     H34660  11.397   4.745   3.402  1.6023 -0.3330 -1.3579
  257MOL0     H34661  11.587   4.942   3.362  1.5537  3.4239 -1.9814
  257MOL0     H34662  11.428   4.979   3.412  0.4253 -0.8654  0.7838
  257MOL0     H34663  11.533   5.189   3.540 -0.9656  2.5761 -1.3939
  257MOL0     H34664  11.688   5.132   3.472  0.4282  0.8016 -3.5281
  257MOL0     H34665  11.454   5.259   3.323 -0.5931 -1.2957 -1.7414
  257MOL0     H34666  11.585   5.171   3.237 -0.6811  0.0273 -0.3151
  257MOL0     H34667  11.597   5.426   3.404  1.1858 -0.8680  1.4710
  257MOL0     H34668  11.743   5.345   3.360  0.6424  4.1549 -0.1552
  257MOL0     H34669  11.525   5.418   3.159 -0.4200 -0.5573  1.8754
  257MOL0     H34670  11.673   5.348   3.125 -0.6610 -0.2578  0.3735
  257MOL0     H34671  11.606   5.635   3.212  0.2718 -0.9316  1.2959
  257MOL0     H34672  11.772   5.583   3.241  0.1442 -1.2050 -0.2393
  257MOL0     H34673  11.784   5.527   2.981 -0.7129 -1.1774  1.6731
  257MOL0     H34674  11.767   5.706   3.020 -2.8549  1.8387  3.3491
  257MOL0     H34675  11.556   5.524   2.914 -3.0636  0.7175 -0.4799
  257MOL0     H34676  11.637   5.669   2.833  1.6526  1.3621  2.6112
  257MOL0     H34677  11.650   4.758   3.743 -0.0421  0.5249 -0.1928
  257MOL0     H34678  11.629   4.529   3.781 -0.9890 -2.4135 -0.3722
  257MOL0     H34679  11.151   4.252   3.861 -0.4292 -0.3502 -4.0945
  257MOL0     H34680  11.166   4.096   4.052  2.3043 -2.4905  2.8113
  257MOL0     H34681  10.110   4.437   4.953 -0.1161  1.6199  1.8392
  257MOL0     H34682   9.867   4.419   4.981  1.1969  0.0142 -2.2727
  257MOL0     H34683   9.402   4.321   4.839 -0.6572 -0.8486 -0.2400
  257MOL0     H34684   9.182   4.278   4.905  0.3871 -0.5692 -0.1690
  257MOL0     H34685   8.934   4.056   5.193 -0.1189 -1.6812  1.3380
  257MOL0     H34686   9.104   3.991   5.231  0.6647  0.2147  0.7455
  257MOL0     H34687   9.131   4.191   5.379  1.0257 -2.4151 -0.1284
  257MOL0     H34688   9.004   4.089   5.426  1.4914 -1.5729 -1.1082
  257MOL0     H34689   8.843   4.249   5.311  0.2905  1.2646 -2.6878
  257MOL0     H34690   8.975   4.361   5.280 -1.2208 -0.3663 -2.4295
  257MOL0     H34691   8.942   4.268   5.571  3.9200 -0.9829 -0.8510
  257MOL0     H34692   8.854   4.405   5.496 -2.1759 -1.9239 -0.5463
  257MOL0     H34693   9.271   4.514   5.544 -1.7801  2.7147  0.5691
  257MOL0     H34694   9.310   4.077   5.256 -2.7169  0.6540  0.1816
  257MOL0     H34695   9.549   4.131   5.191  1.4679 -0.4325 -2.4202
  258MOL0     O34696   1.657   7.262  10.923 -0.0879 -0.1832 -0.4670
  258MOL0     C34697   1.584   7.238  11.017  0.3178  0.5818  0.0533
  258MOL0     O34698   1.624   7.218  11.143  0.4737 -0.3393 -1.0037
  258MOL0     C34699   1.752   7.198  11.162  0.5024 -0.1425  0.1484
  258MOL0     C34700   1.844   7.300  11.186  0.0522  0.2632  0.2191
  258MOL0     C34701   1.977   7.281  11.220 -0.1569 -0.1813 -0.3302
  258MOL0     C34702   2.013   7.148  11.237  0.2876  0.0756  0.5211
  258MOL0     O34703   2.137   7.122  11.274 -0.4307  0.3414  0.2081
  258MOL0     C34704   2.169   7.164  11.406  1.2593 -0.7465  0.6059
  258MOL0     C34705   2.323   7.147  11.420  0.1688 -0.4503  0.5325
  258MOL0     C34706   2.368   7.187  11.555 -0.7246 -0.4271 -0.9136
  258MOL0     C34707   2.513   7.189  11.593  0.3573 -0.2453 -0.5649
  258MOL0     C34708   2.520   7.230  11.747 -0.3637  0.3219  0.1278
  258MOL0     C34709   2.499   7.097  11.834 -0.0485 -0.1208  0.7581
  258MOL0     C34710   2.518   7.124  11.983  0.6939 -0.4935  0.0928
  258MOL0     C34711   2.649   7.157  12.043  0.1570  0.6454 -0.3706
  258MOL0     N34712   2.764   7.079  11.991 -0.4542  0.5472  0.2289
  258MOL0     C34713   2.849   7.126  11.901 -0.1984  0.1011  0.1856
  258MOL0     C34714   2.905   7.021  11.834  0.5756 -0.0464  0.4451
  258MOL0     C34715   3.000   7.037  11.719 -0.6121 -0.6761 -0.9155
  258MOL0     C34716   2.922   7.047  11.594  0.6338  0.4154  0.8924
  258MOL0     C34717   3.020   7.066  11.471  1.0117  0.4751  0.4119
  258MOL0     C34718   2.932   7.073  11.335  0.6869 -0.2139 -0.0661
  258MOL0     O34719   2.850   6.949  11.328  0.2097 -0.2759 -0.3859
  258MOL0     C34720   2.900   6.857  11.241 -0.3026 -0.3251 -0.8703
  258MOL0     C34721   2.904   6.883  11.104  0.9394 -0.3168 -0.3036
  258MOL0     C34722   2.954   6.795  11.007  0.3434 -0.0007 -0.0546
  258MOL0     C34723   2.925   6.805  10.857  0.0042 -1.1845 -0.7025
  258MOL0     C34724   3.020   6.678  11.056 -0.7220  0.4142  0.6072
  258MOL0     C34725   3.064   6.555  10.974  0.8783  0.9246  0.2327
  258MOL0     O34726   3.075   6.442  11.045 -0.0050  0.7737 -0.3905
  258MOL0     C34727   3.138   6.331  10.999  0.2620 -0.3773  0.5371
  258MOL0     C34728   3.104   6.283  10.872  0.9130  1.2070 -0.2226
  258MOL0     C34729   3.158   6.161  10.838 -0.0467  0.3218  0.4277
  258MOL0     C34730   3.267   6.106  10.903 -0.3913  0.1005  0.0090
  258MOL0     O34731   3.335   5.998  10.855  0.4048 -0.0216  0.3639
  258MOL0     C34732   3.459   5.955  10.923  0.3655 -0.6653 -0.0445
  258MOL0     C34733   3.514   5.831  10.860 -1.1194  1.0720 -0.2577
  258MOL0     C34734   3.675   5.803  10.873 -0.1621  0.5744 -0.9794
  258MOL0     C34735   3.723   5.690  10.786  0.0915 -0.2694 -0.2600
  258MOL0     C34736   3.875   5.646  10.801  0.4141  0.2919 -0.0994
  258MOL0     C34737   3.918   5.550  10.697 -0.1015 -0.1195 -0.2758
  258MOL0     C34738   4.077   5.533  10.708  0.4891 -0.4632  0.0270
  258MOL0     C34739   4.122   5.436  10.820  0.4630  0.1611 -0.3613
  258MOL0    Cl34740   4.080   5.270  10.786  0.5563 -0.5941 -0.1698
  258MOL0     C34741   3.309   6.170  11.023  0.0688 -1.2719  0.4347
  258MOL0     C34742   3.244   6.288  11.074 -0.1994  0.4750  0.1216
  258MOL0     O34743   3.110   6.572  10.859 -0.0616 -0.3519  0.3933
  258MOL0     C34744   3.031   6.650  11.196 -0.0468 -1.0275  0.4631
  258MOL0     C34745   2.968   6.745  11.285  0.2244  1.4580  0.3951
  258MOL0     N34746   2.867   6.906  11.901 -0.0786  0.8534 -0.0569
  258MOL0     N34747   2.775   6.943  11.988  0.6129 -0.1307  0.2759
  258MOL0     C34748   1.926   7.045  11.225 -0.1583 -0.1495  0.3464
  258MOL0     C34749   1.792   7.067  11.178 -1.3687 -0.8092 -0.5952
  258MOL0     C34750   1.440   7.251  10.995  0.7871  0.7164 -0.1517
  258MOL0     C34751   1.356   7.309  11.092 -0.5222 -0.7357  0.6659
  258MOL0     C34752   1.224   7.330  11.061 -0.0834 -0.1703 -0.3758
  258MOL0     C34753   1.171   7.283  10.942  0.3419  0.1518  0.0304
  258MOL0     O34754   1.037   7.295  10.938 -0.1863 -0.9954 -0.2524
  258MOL0     C34755   0.979   7.270  10.816  1.4720 -0.5146  0.3340
  258MOL0     C34756   0.847   7.343  10.844  0.6136 -0.0426  0.2815
  258MOL0     C34757   0.764   7.356  10.720  0.3508  0.4370  0.2816
  258MOL0     C34758   0.691   7.225  10.678 -0.1000 -1.1972 -1.5496
  258MOL0     C34759   0.718   7.179  10.545 -0.8405  0.2992  0.3301
  258MOL0     C34760   0.768   7.128  10.454 -0.2775  0.0013  0.1877
  258MOL0     C34761   1.263   7.243  10.837  1.2419  0.5060  0.5523
  258MOL0     C34762   1.388   7.218  10.866  0.5039 -0.3612 -0.1250
  258MOL0     H34763   1.797   7.398  11.183 -1.3062 -0.3898 -0.7130
  258MOL0     H34764   2.036   7.370  11.236  2.1370 -1.7705  0.6109
  258MOL0     H34765   2.134   7.266  11.420  1.0883 -0.2509 -2.6202
  258MOL0     H34766   2.128   7.090  11.476  0.2944 -1.3601 -0.5678
  258MOL0     H34767   2.360   7.046  11.397  3.4638  0.2860  1.9306
  258MOL0     H34768   2.358   7.214  11.342  0.4238  0.3661  1.3276
  258MOL0     H34769   2.333   7.290  11.563  2.9421  1.2000 -3.2066
  258MOL0     H34770   2.312   7.125  11.626 -1.6417  1.1543 -0.2238
  258MOL0     H34771   2.561   7.091  11.590  0.1976 -0.4039  1.0776
  258MOL0     H34772   2.556   7.261  11.523 -0.9367  0.3584 -0.7797
  258MOL0     H34773   2.622   7.268  11.757  0.4133 -2.1545  3.4763
  258MOL0     H34774   2.443   7.304  11.773  0.4088  1.0838  0.2706
  258MOL0     H34775   2.399   7.054  11.823  0.8440 -1.9037 -0.8979
  258MOL0     H34776   2.566   7.018  11.799  0.6263  0.2715  1.1341
  258MOL0     H34777   2.461   7.201  12.036  2.1371 -1.5947  3.5296
  258MOL0     H34778   2.491   7.032  12.036  4.1305 -2.6695 -1.5166
  258MOL0     H34779   2.634   7.130  12.148 -3.4830 -0.2399 -1.0116
  258MOL0     H34780   2.659   7.266  12.036 -1.1865  0.9090  1.2565
  258MOL0     H34781   2.838   7.218  11.846 -1.7315 -1.1938 -1.7911
  258MOL0     H34782   3.055   7.130  11.737 -0.6585 -0.8709  0.2827
  258MOL0     H34783   3.054   6.945  11.740  1.7102  0.5478 -1.1692
  258MOL0     H34784   2.853   7.131  11.604 -1.0055 -1.1511  4.7379
  258MOL0     H34785   2.859   6.959  11.578 -1.4738  1.9755  0.2386
  258MOL0     H34786   3.094   6.986  11.466  0.9768  0.4883 -0.9125
  258MOL0     H34787   3.074   7.161  11.474 -1.9150  2.2230  1.3619
  258MOL0     H34788   3.005   7.088  11.256  0.1105  2.6826 -0.1398
  258MOL0     H34789   2.868   7.161  11.329 -2.1455 -2.2478 -3.4923
  258MOL0     H34790   2.844   6.969  11.077 -1.4066 -2.2810 -1.8007
  258MOL0     H34791   2.902   6.907  10.826  1.7862 -0.8821 -1.1034
  258MOL0     H34792   3.010   6.785  10.791  3.4524  6.6696  0.2891
  258MOL0     H34793   2.844   6.732  10.845  0.9849 -2.4632  0.1533
  258MOL0     H34794   3.021   6.332  10.822  0.6955  0.0965 -0.9963
  258MOL0     H34795   3.112   6.113  10.752  0.8114  0.9363 -0.4028
  258MOL0     H34796   3.543   6.024  10.935  0.2365 -0.1361 -1.9134
  258MOL0     H34797   3.427   5.931  11.025 -4.7016  0.3201 -1.1577
  258MOL0     H34798   3.455   5.746  10.895  3.7652 -2.5021  0.3306
  258MOL0     H34799   3.507   5.844  10.751 -0.7630 -0.5616 -0.4954
  258MOL0     H34800   3.716   5.776  10.970  1.3967  2.0797 -1.1640
  258MOL0     H34801   3.711   5.901  10.839 -2.7605  1.5671 -1.0717
  258MOL0     H34802   3.665   5.602  10.815  2.3931 -0.9240  2.8169
  258MOL0     H34803   3.699   5.722  10.684 -0.3774  1.4788  0.3613
  258MOL0     H34804   3.886   5.605  10.902  1.0199 -2.1437 -1.0765
  258MOL0     H34805   3.932   5.739  10.803 -0.2598  0.7098  1.1403
  258MOL0     H34806   3.869   5.453  10.711 -1.2667  0.3039 -1.2634
  258MOL0     H34807   3.893   5.593  10.600 -1.0384  1.9419  0.8126
  258MOL0     H34808   4.124   5.629  10.734  1.2287 -0.0832 -2.4985
  258MOL0     H34809   4.117   5.501  10.611  2.7508  1.0387  0.3880
  258MOL0     H34810   4.084   5.459  10.920 -2.3443 -0.9647 -1.0823
  258MOL0     H34811   4.230   5.456  10.823  0.0403  2.7368  0.1856
  258MOL0     H34812   3.403   6.151  11.073 -0.1022 -3.3885  0.0328
  258MOL0     H34813   3.270   6.329  11.171  1.4517  0.6433 -0.3621
  258MOL0     H34814   3.073   6.557  11.234  3.4503  0.8664  1.6802
  258MOL0     H34815   2.952   6.716  11.388 -3.9112 -2.5431 -1.0710
  258MOL0     H34816   1.962   6.943  11.242  2.4417  0.1540 -2.4418
  258MOL0     H34817   1.720   6.985  11.171 -0.5427 -1.6767  0.6171
  258MOL0     H34818   1.396   7.362  11.177 -0.4498 -0.3688  0.4079
  258MOL0     H34819   1.157   7.377  11.133 -0.3364  2.0665 -1.9447
  258MOL0     H34820   1.035   7.316  10.734 -0.3677 -1.5099 -1.5827
  258MOL0     H34821   0.958   7.164  10.801  0.5814 -1.0197  4.2147
  258MOL0     H34822   0.874   7.449  10.852  0.6661 -0.0517  0.2207
  258MOL0     H34823   0.786   7.291  10.919 -0.9459  1.1158 -0.1163
  258MOL0     H34824   0.826   7.384  10.634 -0.5155 -4.2681 -2.1711
  258MOL0     H34825   0.696   7.439  10.741 -1.1829 -0.5138 -0.7995
  258MOL0     H34826   0.581   7.231  10.683 -0.2041  0.1611 -3.7884
  258MOL0     H34827   0.714   7.154  10.757  1.5252  1.4366  0.4957
  258MOL0     H34828   0.816   7.077  10.373  1.2213 -1.7581  2.0661
  258MOL0     H34829   1.220   7.200  10.747  3.4841 -1.9812  0.5555
  258MOL0     H34830   1.441   7.153  10.798  0.5494 -1.6946  1.1196
  259MOL0     O34831   4.017   2.765   4.799 -0.2742 -0.0561  0.3719
  259MOL0     C34832   4.103   2.837   4.852  0.2572  0.6438  0.1352
  259MOL0     O34833   4.069   2.939   4.942  0.7808  0.3862 -0.6509
  259MOL0     C34834   3.941   2.950   4.987  0.4604 -0.3996  0.0694
  259MOL0     C34835   3.851   3.036   4.929  0.7315 -0.0940 -0.4875
  259MOL0     C34836   3.723   3.046   4.988 -0.5420 -0.7314 -0.1845
  259MOL0     C34837   3.686   2.993   5.110 -0.5052 -0.0519  1.7764
  259MOL0     O34838   3.566   3.001   5.184 -0.4895  0.3473  0.1652
  259MOL0     C34839   3.440   3.037   5.121 -0.4178 -0.3754  0.1570
  259MOL0     C34840   3.372   2.916   5.081  0.2583 -0.4827 -0.5227
  259MOL0     C34841   3.442   2.809   4.990 -0.4003 -1.2779 -1.1548
  259MOL0     C34842   3.379   2.676   4.967  0.1923  0.1006 -0.4419
  259MOL0     C34843   3.352   2.596   5.101  0.8819  1.0075  0.2489
  259MOL0     C34844   3.474   2.599   5.195  0.0338  0.8043 -0.0539
  259MOL0     C34845   3.465   2.492   5.311 -0.2135  0.0977  0.1589
  259MOL0     C34846   3.606   2.477   5.376  0.5877  0.3087  0.4091
  259MOL0     N34847   3.664   2.599   5.425 -0.1538 -0.1716 -0.6744
  259MOL0     C34848   3.611   2.707   5.483  0.8709  0.4163  0.1189
  259MOL0     C34849   3.703   2.789   5.525 -0.2585  0.6516  0.5055
  259MOL0     C34850   3.703   2.910   5.609 -0.1712 -0.0392 -0.3658
  259MOL0     C34851   3.702   2.851   5.747 -0.5190  1.1339  0.9025
  259MOL0     C34852   3.715   2.971   5.853 -0.4322  0.1384  0.3551
  259MOL0     C34853   3.601   3.071   5.846  0.5437 -0.5800  0.3952
  259MOL0     O34854   3.476   3.002   5.849 -0.3311 -0.5990  0.3877
  259MOL0     C34855   3.365   3.075   5.817 -0.8170 -0.4794  0.7227
  259MOL0     C34856   3.346   3.217   5.832 -0.9991  1.5672 -1.3789
  259MOL0     C34857   3.233   3.279   5.790  0.0680  0.1438 -0.1410
  259MOL0     C34858   3.210   3.419   5.837  0.9449  0.3429 -0.8426
  259MOL0     C34859   3.135   3.207   5.721 -0.0254  0.3675  0.3914
  259MOL0     C34860   3.002   3.261   5.676  0.6857  0.0376 -1.0771
  259MOL0     O34861   2.905   3.168   5.625 -0.2971  0.1834 -0.8406
  259MOL0     C34862   2.799   3.221   5.553  0.5630  0.5844  0.7647
  259MOL0     C34863   2.682   3.249   5.620 -0.4714  0.6169 -0.1662
  259MOL0     C34864   2.569   3.303   5.562  0.6208 -0.2679 -0.5922
  259MOL0     C34865   2.579   3.329   5.428  0.2874 -0.6220  1.6754
  259MOL0     O34866   2.462   3.361   5.354  0.3749  0.9759  0.0579
  259MOL0     C34867   2.457   3.363   5.206  0.2362  0.0030  0.9577
  259MOL0     C34868   2.310   3.390   5.173  0.2189 -0.0504 -0.1147
  259MOL0     C34869   2.220   3.267   5.174 -0.5064 -0.4131  0.0802
  259MOL0     C34870   2.078   3.313   5.179  0.4328 -0.5493  0.0783
  259MOL0     C34871   1.979   3.215   5.240 -0.1608 -0.2658  0.1378
  259MOL0     C34872   1.857   3.265   5.315 -0.5272 -1.1857  0.0864
  259MOL0     C34873   1.792   3.376   5.228 -0.0704  0.1904 -0.1842
  259MOL0     C34874   1.645   3.410   5.260 -0.1291  0.3038 -0.4818
  259MOL0    Cl34875   1.546   3.256   5.225 -0.1149 -0.3985  0.4794
  259MOL0     C34876   2.701   3.299   5.352  1.1587  0.9258  0.2221
  259MOL0     C34877   2.812   3.244   5.420 -0.1482 -0.0350 -0.7926
  259MOL0     O34878   2.983   3.383   5.667 -0.0349  0.1020  0.2084
  259MOL0     C34879   3.151   3.070   5.710  0.0655  0.5142 -0.4903
  259MOL0     C34880   3.266   3.006   5.760  0.0086  0.3002  0.2419
  259MOL0     N34881   3.818   2.728   5.479  0.3630 -0.3744 -0.0248
  259MOL0     N34882   3.799   2.614   5.428  0.6450  0.7524 -0.7386
  259MOL0     C34883   3.781   2.901   5.165 -0.2998  0.6045  0.8124
  259MOL0     C34884   3.907   2.878   5.101 -0.1656 -0.6391 -1.1040
  259MOL0     C34885   4.247   2.825   4.800 -0.4947 -0.5687 -1.0493
  259MOL0     C34886   4.272   2.767   4.672 -0.8750 -0.5639 -0.1081
  259MOL0     C34887   4.405   2.756   4.634 -1.0132  0.3275  0.2954
  259MOL0     C34888   4.514   2.803   4.704  0.6181 -0.4172  0.9268
  259MOL0     O34889   4.639   2.789   4.671  0.1315 -0.0044 -0.2954
  259MOL0     C34890   4.678   2.769   4.533 -0.7538 -0.3738 -0.4462
  259MOL0     C34891   4.827   2.805   4.508 -0.0527 -0.0841 -0.1876
  259MOL0     C34892   4.914   2.755   4.617 -0.3104 -0.0856 -0.8018
  259MOL0     C34893   5.051   2.818   4.601  0.7249 -0.5155 -1.4059
  259MOL0     C34894   5.138   2.746   4.503  0.4564 -0.4691  0.5941
  259MOL0     C34895   5.218   2.695   4.432 -0.0158  0.6549  0.4859
  259MOL0     C34896   4.490   2.871   4.829  0.2330 -1.1038  0.6666
  259MOL0     C34897   4.360   2.879   4.882  0.8453  0.4931 -0.9027
  259MOL0     H34898   3.878   3.083   4.836  3.1281 -3.5916 -1.7535
  259MOL0     H34899   3.650   3.112   4.941  0.5567  1.4121  0.9442
  259MOL0     H34900   3.375   3.083   5.196 -0.3102  0.5119 -0.2797
  259MOL0     H34901   3.461   3.108   5.040 -4.5351  1.2841  0.3124
  259MOL0     H34902   3.349   2.864   5.174  0.2843  3.0564  1.6292
  259MOL0     H34903   3.278   2.954   5.040  0.8725  0.2089 -1.3373
  259MOL0     H34904   3.452   2.853   4.891  1.1730 -0.2238 -0.5706
  259MOL0     H34905   3.542   2.807   5.034 -0.4214  4.3668 -0.0309
  259MOL0     H34906   3.291   2.688   4.904 -1.4869 -0.4255  1.6618
  259MOL0     H34907   3.448   2.612   4.911  1.3816  0.2659  0.8000
  259MOL0     H34908   3.257   2.623   5.148  0.1571 -0.0458 -0.5489
  259MOL0     H34909   3.340   2.492   5.068  1.3890  0.9550  0.2232
  259MOL0     H34910   3.562   2.575   5.133  1.5223 -0.6400  2.4347
  259MOL0     H34911   3.499   2.694   5.242  2.4441  0.8828 -1.3286
  259MOL0     H34912   3.390   2.511   5.389 -1.9091 -0.6354 -1.2041
  259MOL0     H34913   3.424   2.397   5.274 -1.0201  0.5115 -0.0471
  259MOL0     H34914   3.670   2.427   5.303 -1.3704  0.9072 -1.8515
  259MOL0     H34915   3.606   2.407   5.460  0.7954 -0.7020 -0.3973
  259MOL0     H34916   3.509   2.716   5.518  0.4885 -0.7037 -0.6403
  259MOL0     H34917   3.786   2.976   5.580 -3.3684  3.7797 -1.6777
  259MOL0     H34918   3.608   2.962   5.598 -1.7904 -2.4153  1.3253
  259MOL0     H34919   3.785   2.782   5.764 -1.8451 -0.5886  0.6474
  259MOL0     H34920   3.604   2.808   5.767  0.7901 -1.5043  2.1720
  259MOL0     H34921   3.816   3.012   5.845 -0.0729 -0.7215  0.3107
  259MOL0     H34922   3.723   2.925   5.952  2.1064  0.0736  0.1897
  259MOL0     H34923   3.615   3.140   5.762 -1.1731  0.7467  1.1349
  259MOL0     H34924   3.617   3.132   5.936  0.7443  2.5285 -1.5684
  259MOL0     H34925   3.426   3.256   5.895 -0.4675 -0.6272 -0.6181
  259MOL0     H34926   3.104   3.425   5.863  1.0673 -0.9595  0.0298
  259MOL0     H34927   3.276   3.453   5.917 -1.5728  3.6103  0.0545
  259MOL0     H34928   3.222   3.497   5.761 -3.0628 -0.2879 -2.3884
  259MOL0     H34929   2.682   3.219   5.724  0.0350 -1.8272 -0.8019
  259MOL0     H34930   2.470   3.309   5.606  0.8515  0.2937 -0.1467
  259MOL0     H34931   2.516   3.443   5.162  0.6100 -1.3981 -1.2529
  259MOL0     H34932   2.487   3.267   5.164  0.6555  2.4061 -5.2587
  259MOL0     H34933   2.279   3.466   5.245 -0.0107 -0.9981  0.8140
  259MOL0     H34934   2.290   3.440   5.078 -1.7898  2.3282  1.4453
  259MOL0     H34935   2.245   3.198   5.255 -1.0482 -1.3299 -0.5230
  259MOL0     H34936   2.228   3.207   5.083  0.9080 -1.3181  0.7584
  259MOL0     H34937   2.080   3.408   5.234  0.7674  1.1187 -2.6308
  259MOL0     H34938   2.039   3.340   5.080 -1.6549  1.3118  1.3319
  259MOL0     H34939   2.036   3.147   5.304  2.6944  2.0100  0.2378
  259MOL0     H34940   1.940   3.159   5.155  0.0973  2.3926 -1.8732
  259MOL0     H34941   1.781   3.189   5.334 -1.2389 -0.7542 -0.9164
  259MOL0     H34942   1.882   3.318   5.407 -3.2048  1.4724 -0.5746
  259MOL0     H34943   1.808   3.355   5.122 -0.5069 -0.8940 -0.0427
  259MOL0     H34944   1.844   3.467   5.259  0.5661 -0.4113  0.5783
  259MOL0     H34945   1.612   3.482   5.186  0.9199 -1.5542 -2.8916
  259MOL0     H34946   1.636   3.446   5.363 -2.9394  1.0650 -0.9191
  259MOL0     H34947   2.700   3.289   5.244 -2.4486 -2.8205  0.2999
  259MOL0     H34948   2.914   3.236   5.383  0.9992  2.7324  1.4035
  259MOL0     H34949   3.085   3.002   5.656 -2.1479  1.2018  1.1879
  259MOL0     H34950   3.270   2.899   5.738 -0.4648  0.4905 -0.8516
  259MOL0     H34951   3.752   2.852   5.257  0.7609  3.7264  2.9725
  259MOL0     H34952   3.976   2.807   5.145 -1.4102 -0.1671  1.8970
  259MOL0     H34953   4.192   2.747   4.603 -0.9584  3.7421 -1.5883
  259MOL0     H34954   4.432   2.706   4.542 -0.0982  1.2804  0.0346
  259MOL0     H34955   4.660   2.666   4.502 -0.5517 -0.1290 -1.4199
  259MOL0     H34956   4.623   2.821   4.453 -0.1908 -2.3162 -2.1925
  259MOL0     H34957   4.832   2.913   4.496 -0.3465  0.1542  1.6112
  259MOL0     H34958   4.859   2.762   4.412  0.2763  1.7425 -0.9389
  259MOL0     H34959   4.937   2.648   4.607  1.6301  0.2988 -0.8347
  259MOL0     H34960   4.867   2.775   4.714  1.6798 -0.0224  0.1953
  259MOL0     H34961   5.104   2.808   4.696 -2.7473 -0.9497  0.6247
  259MOL0     H34962   5.057   2.925   4.580  1.0544 -0.1702  0.3378
  259MOL0     H34963   5.289   2.651   4.365 -0.6342  1.7048 -0.9131
  259MOL0     H34964   4.572   2.911   4.888 -0.0429  2.0007 -0.8185
  259MOL0     H34965   4.341   2.921   4.980 -0.9770  1.1797 -1.5008
  260MOL0     O34966  10.147   3.423   9.703 -0.0952 -0.0696 -0.5392
  260MOL0     C34967  10.099   3.338   9.774  1.0178  0.2568  0.5511
  260MOL0     O34968   9.973   3.353   9.836  0.4310 -0.0473 -0.1348
  260MOL0     C34969   9.903   3.470   9.802 -0.0794  0.2588  0.0904
  260MOL0     C34970   9.819   3.476   9.691 -0.6144 -0.1967  0.4425
  260MOL0     C34971   9.736   3.583   9.683 -0.2772  0.5907 -1.1124
  260MOL0     C34972   9.727   3.690   9.776 -0.1519  0.1009  0.5479
  260MOL0     O34973   9.646   3.791   9.740  0.2791  0.0082 -0.3320
  260MOL0     C34974   9.612   3.891   9.838  0.1212  0.5352  0.0944
  260MOL0     C34975   9.527   3.835   9.949  0.2553 -0.2744 -0.3140
  260MOL0     C34976   9.466   3.945  10.047  0.0015 -0.2646 -0.7724
  260MOL0     C34977   9.352   4.022   9.976 -0.8232  0.3102  0.1105
  260MOL0     C34978   9.293   4.116  10.074  0.0858 -0.1675  0.6105
  260MOL0     C34979   9.179   4.196  10.014 -0.0444 -0.3252  0.4724
  260MOL0     C34980   9.128   4.323  10.081  0.4898  0.3001 -0.2694
  260MOL0     C34981   9.051   4.399   9.968 -0.4355  0.6071  0.1806
  260MOL0     N34982   8.981   4.521  10.030 -1.3937 -1.0428  0.1066
  260MOL0     C34983   8.889   4.529  10.125 -0.4282  0.8259  0.5010
  260MOL0     C34984   8.897   4.655  10.178 -0.1706 -0.7149  0.5094
  260MOL0     C34985   8.814   4.715  10.284  0.0799 -0.1645  0.3507
  260MOL0     C34986   8.658   4.694  10.268  0.3839 -0.3943 -0.1703
  260MOL0     C34987   8.595   4.759  10.143 -0.6852 -0.0282  0.1871
  260MOL0     C34988   8.610   4.693  10.004  0.2158 -0.5412  0.0918
  260MOL0     O34989   8.599   4.551  10.005 -0.9681 -0.9594  0.0470
  260MOL0     C34990   8.592   4.501   9.883 -0.2873 -0.3894  0.5254
  260MOL0     C34991   8.700   4.515   9.800  0.2369 -0.4286  0.1587
  260MOL0     C34992   8.694   4.467   9.670  0.2269 -0.1438  0.1661
  260MOL0     C34993   8.814   4.484   9.586 -1.6575  0.4074  0.3007
  260MOL0     C34994   8.570   4.407   9.630  0.0817  0.5504  0.5330
  260MOL0     C34995   8.554   4.324   9.498  0.6595  0.4660  0.1255
  260MOL0     O34996   8.431   4.315   9.448  0.4341 -0.2530  0.8901
  260MOL0     C34997   8.419   4.223   9.349  0.1202 -0.0087 -0.2993
  260MOL0     C34998   8.489   4.240   9.223  0.0037 -0.6766 -0.9714
  260MOL0     C34999   8.454   4.150   9.123  0.1666 -0.3100  0.0822
  260MOL0     C35000   8.378   4.032   9.148  0.4211  0.3637  0.4372
  260MOL0     O35001   8.333   3.944   9.045  0.0123 -0.2055 -0.0331
  260MOL0     C35002   8.256   4.012   8.946 -0.3299 -0.2591 -0.3553
  260MOL0     C35003   8.256   3.924   8.820 -0.4032  0.2549  0.3892
  260MOL0     C35004   8.154   3.991   8.734  0.0302  0.3001 -0.1315
  260MOL0     C35005   8.157   3.946   8.585 -0.0271 -0.7102 -0.0488
  260MOL0     C35006   8.036   3.978   8.499 -0.2282 -0.7076  0.7776
  260MOL0     C35007   8.000   4.125   8.509  0.9296  0.5296 -0.0081
  260MOL0     C35008   7.865   4.134   8.422  0.0552 -0.5164 -0.7706
  260MOL0     C35009   7.818   4.275   8.409 -0.3183  0.7669 -0.9084
  260MOL0    Cl35010   7.636   4.256   8.429  0.1257  0.1116 -0.2208
  260MOL0     C35011   8.334   4.016   9.277  0.7961  0.8129  1.4453
  260MOL0     C35012   8.347   4.106   9.373 -0.9370 -0.3957 -0.4897
  260MOL0     O35013   8.653   4.271   9.446 -0.3707 -1.0915 -0.1474
  260MOL0     C35014   8.462   4.393   9.712  0.5734 -0.0017 -0.3245
  260MOL0     C35015   8.476   4.434   9.853 -1.0819  0.1789 -0.9153
  260MOL0     N35016   8.993   4.718  10.107 -0.8041 -0.4282  0.2590
  260MOL0     N35017   9.039   4.641  10.017  0.4281  0.2030 -0.2872
  260MOL0     C35018   9.823   3.681   9.884 -0.6217  0.6460  0.1365
  260MOL0     C35019   9.905   3.567   9.896  0.0956  0.1006 -0.4860
  260MOL0     C35020  10.176   3.222   9.808 -0.0170  0.7005  0.6813
  260MOL0     C35021  10.315   3.221   9.783  0.5705  0.3599 -0.7563
  260MOL0     C35022  10.394   3.120   9.838 -0.2342 -0.4313 -0.2816
  260MOL0     C35023  10.332   3.008   9.898  0.4039  0.1378 -0.9657
  260MOL0     O35024  10.409   2.902   9.951 -0.6478  0.9469  0.5077
  260MOL0     C35025  10.492   2.950  10.061 -0.7307  0.5400  0.2191
  260MOL0     C35026  10.547   2.838  10.148  0.5453  0.1442 -0.7786
  260MOL0     C35027  10.609   2.719  10.074 -0.6385 -0.0612 -0.2139
  260MOL0     C35028  10.704   2.628  10.153 -0.2661 -0.1448 -0.0009
  260MOL0     C35029  10.820   2.570  10.077  1.0978  0.5494  0.5804
  260MOL0     C35030  10.906   2.518  10.021  0.1057 -0.3683 -0.6971
  260MOL0     C35031  10.185   2.998   9.911 -0.5039 -0.3146  0.8086
  260MOL0     C35032  10.110   3.112   9.874 -1.6032  0.6575  0.0022
  260MOL0     H35033   9.809   3.398   9.617  0.0406 -0.9271  1.1042
  260MOL0     H35034   9.674   3.603   9.595 -1.3284  0.1842 -0.4837
  260MOL0     H35035   9.703   3.928   9.886  0.2071 -1.0387  1.2481
  260MOL0     H35036   9.555   3.968   9.786 -1.8631 -1.5601 -1.0571
  260MOL0     H35037   9.448   3.775   9.902 -0.9743  1.5541 -0.7167
  260MOL0     H35038   9.583   3.757  10.000 -2.1203 -3.4103 -2.1453
  260MOL0     H35039   9.419   3.891  10.130  0.1922 -0.7198 -0.9586
  260MOL0     H35040   9.543   4.015  10.081  2.8212 -2.7354 -1.6205
  260MOL0     H35041   9.380   4.077   9.886  0.0392 -0.5910 -0.1927
  260MOL0     H35042   9.272   3.952   9.950  1.0282 -0.9531 -2.6375
  260MOL0     H35043   9.262   4.059  10.162  0.7168 -1.0905  0.2471
  260MOL0     H35044   9.373   4.188  10.095  0.7257 -1.2994  2.1934
  260MOL0     H35045   9.214   4.230   9.916  2.9506 -2.0711  0.8186
  260MOL0     H35046   9.099   4.122  10.006 -0.3971  0.0633  0.3368
  260MOL0     H35047   9.052   4.291  10.154 -0.0850  1.9921 -0.0734
  260MOL0     H35048   9.207   4.382  10.129 -0.2525  1.6225 -0.6332
  260MOL0     H35049   8.976   4.332   9.925 -0.6421  1.4697 -0.8588
  260MOL0     H35050   9.120   4.413   9.885  1.4296 -2.7977  0.9707
  260MOL0     H35051   8.826   4.444  10.151 -1.5483  1.5159  0.1076
  260MOL0     H35052   8.848   4.670  10.378 -1.9436 -0.8143  0.8100
  260MOL0     H35053   8.842   4.820  10.296  2.1922 -0.8214  1.7133
  260MOL0     H35054   8.611   4.735  10.358 -1.1671 -0.0390 -1.1087
  260MOL0     H35055   8.638   4.587  10.257 -0.5105 -0.2661  0.1377
  260MOL0     H35056   8.663   4.845  10.138  1.4648 -1.3056  3.4089
  260MOL0     H35057   8.496   4.801  10.164  0.8080  2.5912  2.8376
  260MOL0     H35058   8.710   4.712   9.964  2.0143  0.7420  4.5333
  260MOL0     H35059   8.542   4.739   9.932 -0.6250  1.1996  1.8822
  260MOL0     H35060   8.788   4.560   9.845 -0.7607  2.0547 -0.2096
  260MOL0     H35061   8.841   4.590   9.584  1.7252 -0.2482  2.5476
  260MOL0     H35062   8.898   4.431   9.632 -4.7321 -2.5092  3.1041
  260MOL0     H35063   8.810   4.460   9.479 -0.7287 -2.3454  0.8067
  260MOL0     H35064   8.559   4.319   9.198 -0.1658 -0.3273 -0.3562
  260MOL0     H35065   8.490   4.170   9.023 -1.0503 -0.2474 -0.3623
  260MOL0     H35066   8.155   4.030   8.985  0.3603  1.8652  0.6017
  260MOL0     H35067   8.296   4.111   8.922 -0.3190 -0.6211 -1.9135
  260MOL0     H35068   8.357   3.931   8.778  0.4455  1.5562  2.4935
  260MOL0     H35069   8.233   3.819   8.839 -3.0314  0.4426 -1.2167
  260MOL0     H35070   8.173   4.098   8.727  3.2547 -0.3013 -3.7845
  260MOL0     H35071   8.052   3.975   8.772 -1.5046  3.1980 -2.5610
  260MOL0     H35072   8.242   4.002   8.547 -1.0869 -0.9811 -3.0552
  260MOL0     H35073   8.170   3.837   8.576  2.8726 -0.3811 -0.8401
  260MOL0     H35074   7.944   3.920   8.517 -2.1101  2.2489  1.3461
  260MOL0     H35075   8.068   3.974   8.395 -1.6764 -1.9526  0.3391
  260MOL0     H35076   7.973   4.158   8.610 -0.0883 -0.1158 -0.0446
  260MOL0     H35077   8.078   4.190   8.469  0.4522 -0.6280 -3.0669
  260MOL0     H35078   7.795   4.068   8.474  2.5364 -2.3326  0.4979
  260MOL0     H35079   7.881   4.097   8.320  2.3828 -1.6642 -0.0541
  260MOL0     H35080   7.833   4.306   8.305 -1.6801 -0.2969 -1.4574
  260MOL0     H35081   7.863   4.349   8.476 -0.5324  0.0753  0.0187
  260MOL0     H35082   8.280   3.926   9.306  1.6442 -0.0973  0.2723
  260MOL0     H35083   8.297   4.096   9.468 -0.4609  0.7994 -0.0955
  260MOL0     H35084   8.364   4.358   9.682  0.9858 -0.8168 -0.7516
  260MOL0     H35085   8.387   4.428   9.916  0.8148  1.9140  2.1581
  260MOL0     H35086   9.824   3.759   9.959 -0.2767  2.9677 -2.1396
  260MOL0     H35087   9.958   3.548   9.988 -0.8545 -2.0447 -0.3419
  260MOL0     H35088  10.366   3.300   9.730  2.5546  2.5207  3.7786
  260MOL0     H35089  10.502   3.134   9.836 -0.2864 -0.0797 -2.4635
  260MOL0     H35090  10.572   3.004  10.009 -0.1511 -1.6846 -1.3487
  260MOL0     H35091  10.434   3.026  10.114 -3.8629 -2.0475  0.7819
  260MOL0     H35092  10.468   2.809  10.217 -1.6208  3.3572 -1.6931
  260MOL0     H35093  10.625   2.886  10.208  0.6384 -0.4965 -0.3866
  260MOL0     H35094  10.677   2.751   9.995 -0.6426  1.3478  0.3083
  260MOL0     H35095  10.529   2.653  10.040 -0.2932 -1.3739  1.3577
  260MOL0     H35096  10.652   2.542  10.196  0.8261  0.8337  3.6224
  260MOL0     H35097  10.728   2.678  10.247 -0.6975 -1.9036  1.0843
  260MOL0     H35098  10.990   2.485   9.964 -0.6791  0.6203 -2.5112
  260MOL0     H35099  10.145   2.902   9.942 -0.4933  0.4239  3.2972
  260MOL0     H35100  10.001   3.105   9.873 -1.4975 -2.7897  0.0968
  261MOL0     O35101   9.209   1.887   4.800 -0.5486  0.4744 -0.2694
  261MOL0     C35102   9.191   1.988   4.737 -0.7320  0.2228 -0.2259
  261MOL0     O35103   9.099   2.001   4.636 -0.1154 -0.0485 -1.2007
  261MOL0     C35104   8.998   1.912   4.653  0.1801 -0.0453 -0.0583
  261MOL0     C35105   8.968   1.837   4.549 -0.1415 -0.0582  0.5076
  261MOL0     C35106   8.855   1.748   4.556 -0.4440  1.5455 -0.2748
  261MOL0     C35107   8.764   1.752   4.660 -0.7390  0.0335 -1.0943
  261MOL0     O35108   8.645   1.691   4.680  0.1448 -0.3194  0.3037
  261MOL0     C35109   8.587   1.627   4.576 -0.0314 -0.3650 -0.6598
  261MOL0     C35110   8.517   1.729   4.496 -0.0304 -0.1319  0.6085
  261MOL0     C35111   8.530   1.713   4.350 -0.2388  0.5797 -0.1371
  261MOL0     C35112   8.477   1.579   4.289 -0.1880  1.1556 -0.8370
  261MOL0     C35113   8.329   1.539   4.321  0.1279 -0.3785  0.6923
  261MOL0     C35114   8.283   1.444   4.210 -0.3409 -0.2684 -0.1657
  261MOL0     C35115   8.164   1.360   4.249  0.8641 -0.7157 -0.2465
  261MOL0     C35116   8.113   1.260   4.150 -0.2835  0.7807  1.1197
  261MOL0     N35117   7.991   1.293   4.089  0.2258 -0.1773 -0.1172
  261MOL0     C35118   7.968   1.344   3.959 -0.8304 -0.5167  0.5380
  261MOL0     C35119   7.836   1.346   3.946  0.1592 -1.1256  0.7951
  261MOL0     C35120   7.752   1.397   3.821  1.1226  0.7976 -0.0242
  261MOL0     C35121   7.746   1.291   3.716 -0.8789 -0.9827 -0.4515
  261MOL0     C35122   7.601   1.284   3.660  0.1581 -0.2070  0.1397
  261MOL0     C35123   7.611   1.191   3.538  0.6473 -0.6735 -0.9178
  261MOL0     O35124   7.488   1.180   3.476  0.4650 -0.1045 -0.2299
  261MOL0     C35125   7.419   1.062   3.460 -0.5928  0.2595 -0.2738
  261MOL0     C35126   7.331   1.060   3.353 -0.8163  0.3736  0.9331
  261MOL0     C35127   7.268   0.942   3.318  0.5459 -0.0473 -0.6866
  261MOL0     C35128   7.179   0.944   3.194 -0.2164  0.6436 -0.4866
  261MOL0     C35129   7.290   0.824   3.391  0.4117  0.6780 -0.3618
  261MOL0     C35130   7.225   0.685   3.370 -0.7832  0.2429 -0.2387
  261MOL0     O35131   7.211   0.607   3.492  0.2259  0.0136 -0.0223
  261MOL0     C35132   7.162   0.477   3.494 -0.3271  0.5044 -0.0484
  261MOL0     C35133   7.034   0.458   3.446 -0.3433 -0.0425  0.0773
  261MOL0     C35134   6.991   0.320   3.433  0.1946  0.7971  0.1009
  261MOL0     C35135   7.071   0.214   3.482  0.0897  0.5348  0.1329
  261MOL0     O35136   7.028   0.080   3.487 -0.6040  1.0310  0.7459
  261MOL0     C35137   6.938   0.043   3.378  0.1479 -0.5027  0.7160
  261MOL0     C35138   6.956  -0.094   3.330 -0.2295  0.2027 -0.3525
  261MOL0     C35139   6.850  -0.133   3.220  0.4443  0.4539 -0.3165
  261MOL0     C35140   6.903  -0.248   3.127  0.1512  0.7954  0.3432
  261MOL0     C35141   6.862  -0.219   2.979 -0.3562  0.5883 -0.3033
  261MOL0     C35142   6.931  -0.099   2.907  0.0652 -0.4157  0.3130
  261MOL0     C35143   7.072  -0.131   2.852 -0.4048  0.2512 -1.1172
  261MOL0     C35144   7.079  -0.094   2.708  0.7336 -0.1431  0.3554
  261MOL0    Cl35145   7.103   0.089   2.692 -0.5274  0.2424 -0.2574
  261MOL0     C35146   7.200   0.249   3.532 -0.2423 -1.5923 -0.5361
  261MOL0     C35147   7.249   0.378   3.534 -0.5482 -0.0085 -0.5242
  261MOL0     O35148   7.174   0.664   3.258 -0.8199 -0.1980  0.5017
  261MOL0     C35149   7.365   0.839   3.514 -0.5647  0.0206 -0.3910
  261MOL0     C35150   7.431   0.958   3.546  0.3574  0.3878 -0.3883
  261MOL0     N35151   7.774   1.296   4.064 -0.6123  0.6501  0.2134
  261MOL0     N35152   7.871   1.270   4.141 -0.3047 -0.7363 -0.0483
  261MOL0     C35153   8.804   1.832   4.769  0.7208 -0.4269  0.9264
  261MOL0     C35154   8.913   1.916   4.763 -0.9818 -0.3957 -0.3603
  261MOL0     C35155   9.261   2.116   4.772  0.0919 -0.0895 -0.5074
  261MOL0     C35156   9.386   2.103   4.822 -0.2400 -0.9122 -0.0896
  261MOL0     C35157   9.455   2.220   4.859 -0.4100 -1.6818 -0.0036
  261MOL0     C35158   9.395   2.351   4.850  0.1996  0.5734 -0.4296
  261MOL0     O35159   9.439   2.478   4.883 -0.0746  0.2269  0.5903
  261MOL0     C35160   9.570   2.474   4.932 -0.2598 -0.7206  0.1822
  261MOL0     C35161   9.572   2.458   5.088  0.0053 -0.8438  0.2634
  261MOL0     C35162   9.537   2.591   5.175 -0.2304  0.6757 -0.3043
  261MOL0     C35163   9.562   2.572   5.319  0.0372 -0.0300  0.7536
  261MOL0     C35164   9.486   2.668   5.407 -0.2102 -0.1558  0.4419
  261MOL0     C35165   9.418   2.732   5.486 -0.5412 -0.3388  0.2949
  261MOL0     C35166   9.265   2.352   4.796 -0.0007  0.6395 -0.3000
  261MOL0     C35167   9.200   2.243   4.763 -0.3695  0.8049 -0.4743
  261MOL0     H35168   9.051   1.838   4.479  1.6827 -2.6608  2.4212
  261MOL0     H35169   8.824   1.682   4.476 -1.9718  0.8653  0.8411
  261MOL0     H35170   8.663   1.574   4.518  0.3235  1.5989 -2.0891
  261MOL0     H35171   8.516   1.557   4.621  1.8953 -1.3730  0.9633
  261MOL0     H35172   8.417   1.733   4.542 -1.0981 -0.8572 -1.5110
  261MOL0     H35173   8.552   1.831   4.513 -0.3978 -0.1064  1.2827
  261MOL0     H35174   8.462   1.790   4.311 -2.8516 -1.2788  0.5158
  261MOL0     H35175   8.635   1.726   4.321  0.1054  0.1080  0.8704
  261MOL0     H35176   8.503   1.582   4.183  4.3933 -1.7061 -0.0629
  261MOL0     H35177   8.546   1.503   4.327  0.7186  2.0165 -0.7195
  261MOL0     H35178   8.322   1.489   4.419  0.8435 -3.4506 -0.6907
  261MOL0     H35179   8.261   1.624   4.311 -0.9994 -1.4526 -1.6184
  261MOL0     H35180   8.271   1.498   4.115  0.2811  0.4309  0.1433
  261MOL0     H35181   8.370   1.379   4.199  1.8113  2.3511  0.4235
  261MOL0     H35182   8.170   1.319   4.350 -0.5605  1.4579  0.7938
  261MOL0     H35183   8.084   1.434   4.257  0.0093 -1.7320  1.2495
  261MOL0     H35184   8.096   1.169   4.209 -0.0385  0.4148  0.6376
  261MOL0     H35185   8.189   1.246   4.072  0.4339 -0.9883  2.0683
  261MOL0     H35186   8.030   1.373   3.875 -3.3128 -0.2768 -1.3203
  261MOL0     H35187   7.652   1.425   3.856  1.4099  0.7339  0.8683
  261MOL0     H35188   7.807   1.484   3.783  3.8285 -1.2064 -1.0612
  261MOL0     H35189   7.767   1.195   3.763 -2.2188 -0.8246  0.5271
  261MOL0     H35190   7.808   1.319   3.630 -0.7461  5.3448  1.2466
  261MOL0     H35191   7.553   1.380   3.637 -0.9863 -0.2076  2.3088
  261MOL0     H35192   7.533   1.251   3.739 -0.3515  1.1760  0.3087
  261MOL0     H35193   7.642   1.088   3.558 -0.9830 -0.9164  0.5189
  261MOL0     H35194   7.687   1.234   3.472  0.6261 -1.7225 -1.6549
  261MOL0     H35195   7.324   1.153   3.298 -1.8538 -0.1284  0.1841
  261MOL0     H35196   7.137   1.043   3.172 -0.7792  0.5906  0.3098
  261MOL0     H35197   7.245   0.899   3.119  0.5036  2.0409 -0.7169
  261MOL0     H35198   7.089   0.884   3.214  0.4063 -0.0843  0.1921
  261MOL0     H35199   6.965   0.538   3.420 -1.6666 -1.0505  0.3525
  261MOL0     H35200   6.887   0.309   3.404  0.8091  2.8228 -3.3678
  261MOL0     H35201   6.830   0.041   3.395 -0.5152 -0.9359 -2.7565
  261MOL0     H35202   6.954   0.112   3.295  0.2797 -0.3384  0.8775
  261MOL0     H35203   7.059  -0.114   3.299  0.3845 -0.9546  2.1834
  261MOL0     H35204   6.942  -0.164   3.414  1.0569  0.7216  0.3254
  261MOL0     H35205   6.836  -0.040   3.162 -4.3914  1.5247  2.0123
  261MOL0     H35206   6.754  -0.160   3.265 -0.4438  2.1159 -1.1024
  261MOL0     H35207   7.012  -0.253   3.138  0.1936  2.9402  1.3606
  261MOL0     H35208   6.860  -0.341   3.165 -0.1084  0.4998 -0.6475
  261MOL0     H35209   6.754  -0.212   2.968 -0.4398 -2.5066 -2.9456
  261MOL0     H35210   6.886  -0.308   2.920  1.9208  0.4610  0.6919
  261MOL0     H35211   6.868  -0.075   2.822  0.4672 -1.1947 -0.2138
  261MOL0     H35212   6.946  -0.015   2.976 -0.4212 -0.5553  0.5887
  261MOL0     H35213   7.087  -0.239   2.857 -0.8744  0.2067 -0.4824
  261MOL0     H35214   7.153  -0.079   2.904 -1.3343  0.8353 -0.2082
  261MOL0     H35215   6.986  -0.124   2.659  1.2101 -0.1973 -0.5553
  261MOL0     H35216   7.165  -0.130   2.650 -0.0733 -0.8709 -0.4098
  261MOL0     H35217   7.260   0.170   3.577  0.1207 -0.9951  0.0449
  261MOL0     H35218   7.350   0.408   3.560 -0.9105 -0.1328  1.1475
  261MOL0     H35219   7.388   0.750   3.572  1.1095  0.8674  0.3255
  261MOL0     H35220   7.485   0.966   3.640  2.2571 -0.7668 -1.3126
  261MOL0     H35221   8.737   1.837   4.855  0.6496 -0.4464  0.8719
  261MOL0     H35222   8.933   1.977   4.851  2.0536 -1.1348 -0.4198
  261MOL0     H35223   9.433   2.006   4.826  2.4428  0.2873 -0.0376
  261MOL0     H35224   9.558   2.208   4.891 -0.4198  0.5002  1.0328
  261MOL0     H35225   9.633   2.399   4.883 -2.0574 -0.5227 -2.6015
  261MOL0     H35226   9.614   2.572   4.910  1.9544 -1.9156 -1.0859
  261MOL0     H35227   9.673   2.434   5.121  0.0693 -2.5422 -1.0217
  261MOL0     H35228   9.492   2.386   5.110 -0.3080 -0.2958  0.9380
  261MOL0     H35229   9.437   2.618   5.137 -0.5083  0.7608  0.4709
  261MOL0     H35230   9.599   2.677   5.152 -0.3433  0.2308 -2.5785
  261MOL0     H35231   9.670   2.584   5.334 -0.0213 -0.5800  1.7655
  261MOL0     H35232   9.543   2.469   5.349  4.0055 -0.6172  1.8827
  261MOL0     H35233   9.344   2.759   5.559 -0.0320  0.7679  0.4072
  261MOL0     H35234   9.212   2.446   4.784 -1.6294  0.0876  2.0220
  261MOL0     H35235   9.093   2.249   4.742 -0.3717 -2.0112 -1.7103
  262MOL0     O35236   5.718  10.441   4.670 -0.1786 -0.2197 -0.2451
  262MOL0     C35237   5.779  10.356   4.605 -0.1602 -0.1388 -0.2712
  262MOL0     O35238   5.849  10.250   4.657  0.4624 -0.5345  0.4659
  262MOL0     C35239   5.864  10.232   4.791  0.7157 -0.7483 -0.8719
  262MOL0     C35240   5.983  10.179   4.842 -0.3641 -0.3398  0.6195
  262MOL0     C35241   6.006  10.155   4.970  0.0063 -0.9357  0.1478
  262MOL0     C35242   5.897  10.172   5.059 -0.5795  0.9832  0.0252
  262MOL0     O35243   5.908  10.152   5.193  0.2729 -0.8476  0.0080
  262MOL0     C35244   5.916  10.021   5.225  0.2554  0.7039  0.7095
  262MOL0     C35245   5.984  10.001   5.363 -0.1155 -0.9575  0.4694
  262MOL0     C35246   5.901  10.072   5.455  0.9359 -0.6706 -0.6384
  262MOL0     C35247   5.929  10.037   5.598 -0.4637 -0.0190  0.9315
  262MOL0     C35248   6.076  10.075   5.653  0.7479  0.4243 -1.1955
  262MOL0     C35249   6.094  10.006   5.797 -0.0778  0.2261  0.9448
  262MOL0     C35250   6.236  10.014   5.830 -0.0413 -0.4382  0.3710
  262MOL0     C35251   6.243   9.964   5.976 -0.7615 -1.1480 -0.1161
  262MOL0     N35252   6.371   9.892   6.004 -0.0295 -0.3085  0.3061
  262MOL0     C35253   6.493   9.952   6.026 -0.2926 -0.4018  0.7331
  262MOL0     C35254   6.587   9.853   6.027 -0.7108  0.8761  0.5814
  262MOL0     C35255   6.736   9.884   6.054  0.4383 -0.4702  0.2120
  262MOL0     C35256   6.764   9.898   6.206  0.4890  0.2451  0.1140
  262MOL0     C35257   6.750   9.760   6.265  0.0355 -1.3870 -0.0040
  262MOL0     C35258   6.770   9.771   6.418 -1.1446  0.2546  1.1055
  262MOL0     O35259   6.730   9.641   6.470  0.1384  0.1904 -0.0356
  262MOL0     C35260   6.656   9.632   6.589  0.7303  0.7237  0.2570
  262MOL0     C35261   6.573   9.512   6.608 -0.2062 -0.3421  0.2049
  262MOL0     C35262   6.505   9.483   6.724 -0.2844 -0.4750  0.1056
  262MOL0     C35263   6.418   9.366   6.729 -0.7438  0.9913  0.1839
  262MOL0     C35264   6.529   9.575   6.834  0.5664 -1.2066  0.1862
  262MOL0     C35265   6.462   9.555   6.972  0.0511 -0.0134 -0.5995
  262MOL0     O35266   6.525   9.602   7.084  0.3287 -0.2935 -0.3358
  262MOL0     C35267   6.474   9.576   7.206  0.4817 -0.1658 -0.7102
  262MOL0     C35268   6.430   9.681   7.282  0.1103  0.5950  0.5476
  262MOL0     C35269   6.364   9.661   7.408 -0.3910 -0.2531  0.6673
  262MOL0     C35270   6.338   9.528   7.456 -0.7771 -0.4235 -0.4141
  262MOL0     O35271   6.270   9.515   7.579  0.2551 -0.2164 -0.5100
  262MOL0     C35272   6.187   9.399   7.581 -0.7666  0.3699  1.0959
  262MOL0     C35273   6.073   9.405   7.675  0.4872  0.5766 -0.7515
  262MOL0     C35274   6.123   9.399   7.820  0.5498  0.4182 -0.7477
  262MOL0     C35275   6.056   9.512   7.906 -0.2990  0.6798 -0.7070
  262MOL0     C35276   5.905   9.494   7.920 -0.8521 -0.1260 -0.5598
  262MOL0     C35277   5.847   9.597   8.023 -0.8243 -0.2343 -0.0951
  262MOL0     C35278   5.704   9.603   8.044  0.5736  0.1954 -0.5833
  262MOL0     C35279   5.664   9.720   8.141 -0.8219  0.4425  0.4272
  262MOL0    Cl35280   5.700   9.880   8.061 -0.1849  0.1900 -0.0821
  262MOL0     C35281   6.393   9.418   7.387  0.0516 -0.8459 -0.2604
  262MOL0     C35282   6.454   9.445   7.262 -0.3754  0.0564 -1.1416
  262MOL0     O35283   6.358   9.486   6.979 -0.3105 -0.1513 -0.2957
  262MOL0     C35284   6.621   9.687   6.828  0.6409  0.1754 -0.7182
  262MOL0     C35285   6.676   9.718   6.704  0.2249 -0.5569  0.3079
  262MOL0     N35286   6.518   9.735   5.998 -0.6950  0.7089 -0.6563
  262MOL0     N35287   6.398   9.762   5.970  0.5176  0.2310  0.2475
  262MOL0     C35288   5.771  10.215   5.010 -0.3204  0.5918  0.7145
  262MOL0     C35289   5.753  10.240   4.881 -0.6229 -0.2805  0.6276
  262MOL0     C35290   5.766  10.352   4.460 -0.0881  0.4458 -0.0561
  262MOL0     C35291   5.655  10.422   4.397  0.0936  0.3483  0.8717
  262MOL0     C35292   5.637  10.422   4.260 -0.1373 -0.1666  0.0666
  262MOL0     C35293   5.708  10.332   4.176 -0.7227 -0.5833  0.7723
  262MOL0     O35294   5.693  10.324   4.039  0.9269 -0.1524  0.7829
  262MOL0     C35295   5.622  10.428   3.974 -0.4604 -0.4773 -0.8963
  262MOL0     C35296   5.559  10.371   3.848  0.5249 -0.3651  0.6951
  262MOL0     C35297   5.466  10.245   3.842 -0.4588 -0.0076 -0.0942
  262MOL0     C35298   5.555  10.134   3.788 -0.3250  0.7758  0.2451
  262MOL0     C35299   5.487  10.002   3.786  0.9942  1.3015  1.4055
  262MOL0     C35300   5.418   9.903   3.797  0.2072  0.8746 -0.3458
  262MOL0     C35301   5.820  10.262   4.231  0.2807 -0.2888 -0.1925
  262MOL0     C35302   5.851  10.278   4.369  0.2306 -0.4014  0.3425
  262MOL0     H35303   6.067  10.157   4.776  0.8060  3.7319  0.4619
  262MOL0     H35304   6.099  10.108   5.000  0.9710 -1.2387 -2.9504
  262MOL0     H35305   5.818   9.978   5.200  1.5625 -1.4569 -1.1314
  262MOL0     H35306   5.971   9.961   5.151  2.6199  1.5186  1.7078
  262MOL0     H35307   5.990   9.898   5.398  1.2598 -0.8978  0.4605
  262MOL0     H35308   6.085  10.043   5.356  0.0169 -1.1344  1.1731
  262MOL0     H35309   5.920  10.178   5.439 -2.1552  0.2394  0.8487
  262MOL0     H35310   5.795  10.058   5.431  0.3490  1.7909  0.2448
  262MOL0     H35311   5.847  10.085   5.651  0.3374  1.2515  1.0645
  262MOL0     H35312   5.919   9.928   5.603 -0.0137 -0.2657 -1.9093
  262MOL0     H35313   6.145  10.030   5.582  3.2291 -1.4081  2.0669
  262MOL0     H35314   6.096  10.182   5.655  0.5217  0.5016 -2.3367
  262MOL0     H35315   6.038  10.067   5.869  0.9008  2.0077  0.2649
  262MOL0     H35316   6.056   9.905   5.783 -0.5036  0.7242 -2.1882
  262MOL0     H35317   6.303   9.962   5.760  0.9301  1.5910 -0.2968
  262MOL0     H35318   6.263  10.118   5.810 -2.3048 -0.0253 -0.8907
  262MOL0     H35319   6.177   9.880   5.996  0.0520 -2.5132 -2.6370
  262MOL0     H35320   6.232  10.051   6.040  0.4790 -1.9174  1.1902
  262MOL0     H35321   6.503  10.059   6.038  0.7616 -0.2799 -0.8083
  262MOL0     H35322   6.807   9.812   6.014 -0.1751 -0.3285 -1.1993
  262MOL0     H35323   6.759   9.979   6.006  0.0297 -0.5555 -0.1600
  262MOL0     H35324   6.699   9.977   6.244 -1.1775 -0.3414 -1.3685
  262MOL0     H35325   6.869   9.926   6.216  1.2339 -2.8677  2.1974
  262MOL0     H35326   6.839   9.703   6.235  0.2902 -0.1664 -1.7336
  262MOL0     H35327   6.658   9.710   6.232 -2.3903  1.7096  1.5504
  262MOL0     H35328   6.699   9.841   6.462 -0.2647  2.3441 -0.5938
  262MOL0     H35329   6.873   9.789   6.449 -0.4194 -2.8054  0.8147
  262MOL0     H35330   6.575   9.452   6.517 -0.1745  0.9311 -0.6588
  262MOL0     H35331   6.441   9.284   6.661  0.5626 -0.8838  2.7671
  262MOL0     H35332   6.422   9.309   6.822  1.7721 -0.3085 -0.6323
  262MOL0     H35333   6.312   9.395   6.718 -1.7878 -1.8236  1.8919
  262MOL0     H35334   6.434   9.782   7.242  0.8328 -0.0313 -1.0814
  262MOL0     H35335   6.332   9.749   7.463  0.5657 -0.2920  1.3131
  262MOL0     H35336   6.135   9.400   7.485 -0.4293  1.8804  0.9059
  262MOL0     H35337   6.254   9.313   7.587  0.4913  1.2664  0.3669
  262MOL0     H35338   6.023   9.501   7.654  2.3930  1.3965 -1.8280
  262MOL0     H35339   5.990   9.335   7.662 -1.2163  2.1712  0.8923
  262MOL0     H35340   6.231   9.394   7.829  0.4426  0.9006  1.3262
  262MOL0     H35341   6.083   9.309   7.867 -1.1071  0.9040 -1.1553
  262MOL0     H35342   6.098   9.502   8.007 -0.8691  2.9645 -0.1955
  262MOL0     H35343   6.078   9.616   7.878  3.9048  0.0505 -0.5056
  262MOL0     H35344   5.895   9.396   7.966  3.7835 -1.5143 -1.8995
  262MOL0     H35345   5.865   9.506   7.819  3.3565  2.5537 -2.2050
  262MOL0     H35346   5.890   9.566   8.119 -0.8400 -2.1975 -0.6776
  262MOL0     H35347   5.879   9.697   7.991 -1.7687 -0.2044 -0.9835
  262MOL0     H35348   5.685   9.511   8.100 -0.5360  1.5132  1.3087
  262MOL0     H35349   5.636   9.598   7.958 -0.2307 -3.3201  0.0747
  262MOL0     H35350   5.722   9.725   8.234  3.1285 -0.2805 -1.7751
  262MOL0     H35351   5.561   9.697   8.169 -0.7659 -1.9960 -1.1045
  262MOL0     H35352   6.386   9.322   7.437  0.3651 -0.1928  1.0909
  262MOL0     H35353   6.480   9.361   7.198 -1.2807 -0.4827 -0.8281
  262MOL0     H35354   6.638   9.751   6.915  3.4250 -1.7682  0.3248
  262MOL0     H35355   6.726   9.814   6.705 -2.2058  0.8688  3.0115
  262MOL0     H35356   5.690  10.229   5.080  1.0515  0.4747  2.3932
  262MOL0     H35357   5.652  10.255   4.845 -1.4656 -5.5887  0.0374
  262MOL0     H35358   5.575  10.471   4.451 -0.4090 -0.9301  1.3236
  262MOL0     H35359   5.558  10.486   4.224 -0.8555 -0.8976  0.3320
  262MOL0     H35360   5.558  10.494   4.033 -2.2576 -0.7888 -2.4016
  262MOL0     H35361   5.701  10.499   3.945 -2.2007  1.6361 -0.7044
  262MOL0     H35362   5.642  10.355   3.777 -1.0587  2.1999 -1.9783
  262MOL0     H35363   5.495  10.450   3.807  0.4103 -0.3102  0.9845
  262MOL0     H35364   5.385  10.273   3.774  0.8766  3.6046 -0.4290
  262MOL0     H35365   5.440  10.227   3.947 -1.1927 -0.2370 -0.3115
  262MOL0     H35366   5.635  10.106   3.857  0.3655 -1.2734 -1.2846
  262MOL0     H35367   5.592  10.164   3.689  0.9313 -0.6529  0.2476
  262MOL0     H35368   5.352   9.821   3.816 -0.4928  0.6764 -3.0979
  262MOL0     H35369   5.871  10.190   4.168  0.8327  0.9361 -1.1748
  262MOL0     H35370   5.928  10.209   4.403 -0.2510 -0.5058  1.2413
  263MOL0     O35371   4.398   2.462   8.817 -0.9545  0.0203 -0.2137
  263MOL0     C35372   4.296   2.469   8.750  0.0386  0.2585 -0.8315
  263MOL0     O35373   4.183   2.510   8.802 -0.0639  0.0286 -0.1404
  263MOL0     C35374   4.182   2.560   8.934 -0.3844  1.4603 -0.1137
  263MOL0     C35375   4.182   2.480   9.052  0.1993  0.1861  0.1640
  263MOL0     C35376   4.183   2.537   9.179 -0.7160 -0.7470  0.0781
  263MOL0     C35377   4.179   2.674   9.184  0.2332 -0.4874 -0.3082
  263MOL0     O35378   4.167   2.740   9.300  0.1710 -0.3652  0.4332
  263MOL0     C35379   4.031   2.741   9.355  0.1073 -0.2990  0.6672
  263MOL0     C35380   3.969   2.870   9.338 -0.0211 -0.8041 -0.3058
  263MOL0     C35381   4.030   2.987   9.411 -0.3145  0.8343 -0.2462
  263MOL0     C35382   4.057   2.968   9.558  0.3651  1.0376 -0.2137
  263MOL0     C35383   4.098   3.092   9.633 -0.8401 -0.5392 -0.4682
  263MOL0     C35384   4.211   3.176   9.555 -0.0775  0.4368  0.0266
  263MOL0     C35385   4.295   3.272   9.643 -0.2609  0.8890  0.5430
  263MOL0     C35386   4.367   3.381   9.571 -0.0568 -0.9432 -0.1574
  263MOL0     N35387   4.411   3.375   9.428 -0.5621  0.1418 -0.6068
  263MOL0     C35388   4.356   3.430   9.318 -0.2555 -0.0009  0.2921
  263MOL0     C35389   4.446   3.407   9.216 -1.0996  0.3382 -0.0349
  263MOL0     C35390   4.435   3.452   9.074 -1.6444 -0.3292  0.5017
  263MOL0     C35391   4.301   3.513   9.018  0.7329  0.7123  0.2648
  263MOL0     C35392   4.313   3.554   8.869 -0.7231 -0.4637  0.1929
  263MOL0     C35393   4.185   3.625   8.811 -0.4650  0.0120 -0.3025
  263MOL0     O35394   4.065   3.560   8.868  0.4535  0.2913 -1.0826
  263MOL0     C35395   3.944   3.599   8.819  0.4373 -0.3742  0.0743
  263MOL0     C35396   3.832   3.544   8.872  0.8805  0.8177 -0.1506
  263MOL0     C35397   3.697   3.580   8.831  0.5363  0.2189 -1.0291
  263MOL0     C35398   3.594   3.499   8.910  0.4904  0.4277  0.4383
  263MOL0     C35399   3.681   3.680   8.729  0.2799  1.3562 -0.6525
  263MOL0     C35400   3.552   3.734   8.681 -0.2837 -1.0669 -1.2392
  263MOL0     O35401   3.549   3.867   8.622 -0.3318 -0.1866  0.0477
  263MOL0     C35402   3.464   3.892   8.524 -0.0511  0.3242 -0.4979
  263MOL0     C35403   3.517   3.961   8.408 -0.6731  0.6289 -1.0775
  263MOL0     C35404   3.423   4.019   8.317  1.0174 -0.6818 -0.6420
  263MOL0     C35405   3.277   4.022   8.349 -1.4068  0.1564  1.0264
  263MOL0     O35406   3.202   4.113   8.273  0.1864  0.9038  0.3021
  263MOL0     C35407   3.096   4.171   8.349  0.0814  0.3485  1.6117
  263MOL0     C35408   3.054   4.289   8.259  0.5911  0.1681  0.1927
  263MOL0     C35409   2.913   4.330   8.279  0.3994 -0.6333 -0.1937
  263MOL0     C35410   2.870   4.439   8.182  0.9052 -0.6014 -0.0038
  263MOL0     C35411   2.724   4.485   8.209  0.8185 -0.0367 -0.7372
  263MOL0     C35412   2.678   4.619   8.142 -0.7855  0.2849  0.2325
  263MOL0     C35413   2.670   4.611   7.987  1.0105 -0.4008 -0.9088
  263MOL0     C35414   2.679   4.759   7.929  0.2772 -0.6398  0.4085
  263MOL0    Cl35415   2.555   4.865   8.006  0.2542  0.0621 -0.4272
  263MOL0     C35416   3.237   3.951   8.457  0.1400 -0.7637 -1.1699
  263MOL0     C35417   3.326   3.886   8.551  0.8191 -0.5160  0.3504
  263MOL0     O35418   3.460   3.654   8.668 -0.3444 -0.0747 -0.5018
  263MOL0     C35419   3.797   3.736   8.669 -0.2903  0.2969  0.2633
  263MOL0     C35420   3.926   3.694   8.717 -0.7058 -0.3452  0.3601
  263MOL0     N35421   4.550   3.328   9.265 -0.1421  0.2932  0.5561
  263MOL0     N35422   4.537   3.333   9.388  0.0283  0.0709 -0.7703
  263MOL0     C35423   4.178   2.759   9.072 -0.7047 -0.2169  0.0683
  263MOL0     C35424   4.185   2.691   8.946  0.5265 -0.5357 -0.2099
  263MOL0     C35425   4.316   2.456   8.609  0.6972 -0.0162  0.2597
  263MOL0     C35426   4.210   2.462   8.521  0.0420 -0.2220 -0.7116
  263MOL0     C35427   4.222   2.461   8.382 -0.2805  0.0841  0.4281
  263MOL0     C35428   4.344   2.473   8.320 -0.9985 -0.3151  0.2453
  263MOL0     O35429   4.336   2.474   8.180 -0.1959 -0.3557  0.6247
  263MOL0     C35430   4.452   2.510   8.109  0.0316 -0.1235  0.6396
  263MOL0     C35431   4.423   2.515   7.958 -0.0944 -0.0218 -0.5139
  263MOL0     C35432   4.304   2.590   7.908 -0.4599 -0.1444  0.0763
  263MOL0     C35433   4.348   2.662   7.780 -0.4327 -0.5341 -0.1533
  263MOL0     C35434   4.379   2.584   7.660 -0.6769  1.3086  0.1728
  263MOL0     C35435   4.377   2.501   7.574 -0.5452 -0.6165 -0.1101
  263MOL0     C35436   4.453   2.458   8.398  0.1725  0.2100 -0.3342
  263MOL0     C35437   4.447   2.456   8.541  0.1573  0.1767  0.5407
  263MOL0     H35438   4.190   2.372   9.048  1.4360  0.3108 -1.7341
  263MOL0     H35439   4.184   2.480   9.271  0.9100  1.0530  1.2503
  263MOL0     H35440   3.971   2.662   9.310  0.4314 -1.3748  2.0284
  263MOL0     H35441   4.029   2.722   9.463 -0.8064 -1.6157  0.4523
  263MOL0     H35442   3.965   2.893   9.231 -1.0515 -2.0447 -0.5687
  263MOL0     H35443   3.863   2.869   9.365  0.9478  2.3339  5.1617
  263MOL0     H35444   4.128   2.990   9.363 -1.3077 -0.9848 -2.5938
  263MOL0     H35445   3.984   3.085   9.392  0.3119  1.1699 -0.0732
  263MOL0     H35446   3.955   2.942   9.586  0.1031  0.7887 -1.3614
  263MOL0     H35447   4.128   2.887   9.579 -1.4290 -0.3753  0.7479
  263MOL0     H35448   4.014   3.159   9.654  0.8998  0.6433  3.8347
  263MOL0     H35449   4.149   3.065   9.726 -2.8636 -5.5472 -0.5415
  263MOL0     H35450   4.293   3.107   9.530  1.7542  2.7281 -0.6623
  263MOL0     H35451   4.169   3.234   9.472 -2.1390  0.9079  1.3542
  263MOL0     H35452   4.238   3.325   9.720 -1.1543 -1.2616  1.4681
  263MOL0     H35453   4.369   3.215   9.701 -1.1368 -0.1705  0.6624
  263MOL0     H35454   4.454   3.405   9.634 -0.2553 -0.9565  0.1251
  263MOL0     H35455   4.304   3.470   9.573  1.8990  0.5199  1.4057
  263MOL0     H35456   4.271   3.497   9.319  0.6181  1.1606  1.6848
  263MOL0     H35457   4.505   3.534   9.056 -3.4461  2.0968  3.3863
  263MOL0     H35458   4.463   3.370   9.007 -1.1924 -0.2048  0.5354
  263MOL0     H35459   4.273   3.608   9.065 -0.3309 -1.0877  3.5893
  263MOL0     H35460   4.224   3.435   9.025  2.2019 -0.8417 -0.2571
  263MOL0     H35461   4.345   3.487   8.788 -0.8309  0.1338 -0.3587
  263MOL0     H35462   4.394   3.627   8.864 -0.9827 -0.0861  1.3567
  263MOL0     H35463   4.190   3.639   8.703  0.6282  1.2833 -0.1162
  263MOL0     H35464   4.183   3.727   8.851  0.0959 -1.2641  3.3705
  263MOL0     H35465   3.843   3.467   8.948 -2.4720  0.2025 -0.1056
  263MOL0     H35466   3.637   3.443   8.994  1.2520 -3.3485 -2.2050
  263MOL0     H35467   3.513   3.560   8.951 -0.3005 -0.2375 -0.1158
  263MOL0     H35468   3.570   3.421   8.837  2.2023  2.5362 -2.5891
  263MOL0     H35469   3.624   3.972   8.392 -0.7151 -1.1406 -3.1037
  263MOL0     H35470   3.444   4.092   8.240 -0.3867  0.4627  0.0046
  263MOL0     H35471   3.009   4.105   8.359  0.3395 -0.4690 -0.9646
  263MOL0     H35472   3.104   4.206   8.453 -3.3697 -0.9904  2.4700
  263MOL0     H35473   3.130   4.365   8.281  1.8070 -1.3799  1.6727
  263MOL0     H35474   3.063   4.258   8.155 -2.3730  0.0993 -0.1084
  263MOL0     H35475   2.899   4.369   8.380  3.4629  1.3237 -0.3805
  263MOL0     H35476   2.846   4.244   8.269  0.0726 -0.5472  1.0686
  263MOL0     H35477   2.936   4.526   8.190 -0.2961  0.1766  4.0897
  263MOL0     H35478   2.873   4.397   8.081 -2.1783 -2.0329  0.3729
  263MOL0     H35479   2.709   4.500   8.316 -1.8468 -3.4103 -0.4730
  263MOL0     H35480   2.666   4.402   8.170  1.6291 -0.1225 -1.8251
  263MOL0     H35481   2.579   4.642   8.182 -1.1671  1.9237 -1.5264
  263MOL0     H35482   2.753   4.689   8.179  2.4598 -2.8511  0.2015
  263MOL0     H35483   2.578   4.569   7.947  0.2225 -0.5689  0.9719
  263MOL0     H35484   2.754   4.549   7.956  0.6706 -1.1573 -0.3595
  263MOL0     H35485   2.662   4.763   7.821 -0.2305  2.2760  0.5375
  263MOL0     H35486   2.782   4.795   7.937  1.0141 -0.8378 -4.9114
  263MOL0     H35487   3.133   3.943   8.487  0.6365  0.6912  1.2349
  263MOL0     H35488   3.275   3.851   8.641  0.3240  0.5282  0.4990
  263MOL0     H35489   3.778   3.817   8.600 -1.1811 -0.3827 -0.3202
  263MOL0     H35490   4.008   3.724   8.653 -2.1083 -0.1857 -1.4551
  263MOL0     H35491   4.171   2.868   9.069 -1.6393 -0.1727  1.8598
  263MOL0     H35492   4.200   2.756   8.860 -1.3612 -0.6348 -0.6546
  263MOL0     H35493   4.105   2.466   8.546  0.0550  0.9311 -0.8275
  263MOL0     H35494   4.127   2.466   8.329  1.5017  4.6922 -3.0652
  263MOL0     H35495   4.482   2.606   8.153  0.2644  0.7793 -1.3711
  263MOL0     H35496   4.535   2.438   8.111 -0.2892 -0.4916  0.6839
  263MOL0     H35497   4.421   2.410   7.926 -0.7847 -0.0550 -0.3805
  263MOL0     H35498   4.516   2.550   7.913  2.0690  0.0106  3.5695
  263MOL0     H35499   4.259   2.666   7.973 -0.3517 -0.9382  1.0934
  263MOL0     H35500   4.226   2.515   7.891  0.1134 -0.5381 -0.9084
  263MOL0     H35501   4.426   2.737   7.797 -0.3972 -0.6602  0.2665
  263MOL0     H35502   4.260   2.708   7.732 -0.4916  1.6712  1.8223
  263MOL0     H35503   4.375   2.413   7.512  3.1440 -0.9107 -0.0422
  263MOL0     H35504   4.548   2.443   8.348  0.7430  1.8008  0.1987
  263MOL0     H35505   4.538   2.446   8.600 -0.7252 -0.6350  1.8217
  264MOL0     O35506   2.482   1.030   3.660  0.1394  0.1745 -0.1012
  264MOL0     C35507   2.500   1.141   3.612 -1.1001 -0.4910 -0.2190
  264MOL0     O35508   2.402   1.227   3.590  0.6159  0.5923 -0.0866
  264MOL0     C35509   2.273   1.169   3.596 -0.4981  0.2815 -1.2165
  264MOL0     C35510   2.231   1.087   3.487 -0.5156 -0.8173  0.7621
  264MOL0     C35511   2.089   1.060   3.471 -0.0400 -0.2219  0.4805
  264MOL0     C35512   1.996   1.107   3.564 -0.1495 -0.0149  0.3218
  264MOL0     O35513   1.862   1.084   3.544 -0.4643 -0.1080 -0.1442
  264MOL0     C35514   1.809   1.136   3.420  0.0338  0.6990  0.8976
  264MOL0     C35515   1.730   1.028   3.343 -0.3687 -0.6386 -0.6078
  264MOL0     C35516   1.817   0.928   3.261  0.8952  0.0991  0.5648
  264MOL0     C35517   1.736   0.812   3.204  0.3503  0.6435  0.6476
  264MOL0     C35518   1.789   0.773   3.063  0.6165 -0.1473 -0.5132
  264MOL0     C35519   1.929   0.716   3.050 -0.3890  1.1049 -0.1222
  264MOL0     C35520   1.940   0.581   3.129 -0.5357  1.2627 -0.0728
  264MOL0     C35521   1.823   0.486   3.103  0.0025 -1.3813  0.5904
  264MOL0     N35522   1.864   0.345   3.125 -0.3534  0.0164  0.3976
  264MOL0     C35523   1.839   0.243   3.035 -0.3723 -0.0985  0.2340
  264MOL0     C35524   1.904   0.137   3.083  0.8514 -0.1972  0.0027
  264MOL0     C35525   1.910   0.015   3.009 -0.5331  0.1230  0.6163
  264MOL0     C35526   1.807  -0.078   3.058 -0.7507 -0.4843 -1.3407
  264MOL0     C35527   1.800  -0.205   2.974 -0.4841 -0.1863 -1.0532
  264MOL0     C35528   1.790  -0.185   2.821 -0.2954  0.3159  0.6529
  264MOL0     O35529   1.673  -0.119   2.796 -0.5687  0.2549  1.0329
  264MOL0     C35530   1.626  -0.089   2.672  0.3651 -0.0653  1.0763
  264MOL0     C35531   1.497  -0.046   2.669 -0.6355 -0.2212  0.3167
  264MOL0     C35532   1.426  -0.009   2.554  0.2744  0.4384 -0.8893
  264MOL0     C35533   1.280   0.033   2.550  1.0298 -0.2219 -1.5147
  264MOL0     C35534   1.494  -0.023   2.431 -0.3099 -0.3829 -0.7242
  264MOL0     C35535   1.450   0.037   2.302  0.0767 -0.2241 -0.3362
  264MOL0     O35536   1.456  -0.031   2.181  0.4481  0.2900  0.2191
  264MOL0     C35537   1.454   0.041   2.067  0.6346  0.5042  1.4380
  264MOL0     C35538   1.555   0.017   1.970 -0.3140  1.0003  0.1029
  264MOL0     C35539   1.542   0.086   1.849 -0.3310 -0.7066  0.4532
  264MOL0     C35540   1.434   0.175   1.820  0.3447  0.4606  0.1273
  264MOL0     O35541   1.405   0.213   1.689  0.1352 -0.5155 -0.0658
  264MOL0     C35542   1.316   0.131   1.615 -1.0003 -0.3726 -1.6442
  264MOL0     C35543   1.318   0.155   1.466 -0.3009 -0.4900  0.3791
  264MOL0     C35544   1.235   0.045   1.390 -0.0044  0.3496 -0.0345
  264MOL0     C35545   1.196   0.065   1.238 -0.0527  0.1319 -0.9363
  264MOL0     C35546   1.088  -0.027   1.194  0.8023  0.4114  0.6872
  264MOL0     C35547   1.031  -0.002   1.047 -0.2259  0.5530 -0.6297
  264MOL0     C35548   0.948   0.125   1.033 -0.8585 -0.2823  0.4440
  264MOL0     C35549   0.802   0.106   1.069 -0.8559 -1.3485  0.1250
  264MOL0    Cl35550   0.706   0.008   0.943 -0.7355  0.3451  0.1672
  264MOL0     C35551   1.333   0.187   1.918 -0.7477 -0.6191  0.2978
  264MOL0     C35552   1.351   0.137   2.043  0.1814  0.6503 -0.5287
  264MOL0     O35553   1.415   0.155   2.314 -0.6896 -0.6465  0.4768
  264MOL0     C35554   1.624  -0.075   2.432  1.0397  0.3182 -0.1030
  264MOL0     C35555   1.693  -0.102   2.549  1.3980 -0.1432 -0.3049
  264MOL0     N35556   1.971   0.176   3.198 -0.4341  0.2097 -0.2144
  264MOL0     N35557   1.952   0.301   3.213  0.1395 -1.0574  0.8087
  264MOL0     C35558   2.045   1.168   3.684  0.2474  0.0505  0.3455
  264MOL0     C35559   2.176   1.207   3.692  0.1783 -0.4574  0.4197
  264MOL0     C35560   2.644   1.178   3.593  0.5236 -0.6741 -0.6619
  264MOL0     C35561   2.671   1.304   3.546  0.0545 -0.3261 -1.0113
  264MOL0     C35562   2.803   1.343   3.523 -0.5728 -0.2371  0.7618
  264MOL0     C35563   2.912   1.264   3.572 -0.4137 -0.0073 -0.2331
  264MOL0     O35564   3.036   1.308   3.573  1.0826  0.4733  0.7198
  264MOL0     C35565   3.088   1.300   3.699 -0.9324 -0.8126 -0.4955
  264MOL0     C35566   3.204   1.399   3.716 -0.2391 -0.0938 -0.5940
  264MOL0     C35567   3.181   1.537   3.671  0.0055 -0.8991  0.9974
  264MOL0     C35568   3.295   1.630   3.703  0.2044 -0.2527  0.3083
  264MOL0     C35569   3.354   1.632   3.841 -0.0166 -0.8092 -1.1355
  264MOL0     C35570   3.391   1.618   3.958 -0.0791  1.2338 -0.4847
  264MOL0     C35571   2.880   1.139   3.623 -1.2142 -0.1221 -0.1967
  264MOL0     C35572   2.745   1.091   3.627 -0.2835 -0.2186  0.2383
  264MOL0     H35573   2.300   1.040   3.418  1.2300 -2.8135  3.6146
  264MOL0     H35574   2.064   0.994   3.388 -0.2312  2.0828 -1.3763
  264MOL0     H35575   1.727   1.208   3.431  0.3666  1.0724  0.9847
  264MOL0     H35576   1.893   1.178   3.364 -1.7591  1.4434 -1.4128
  264MOL0     H35577   1.679   0.966   3.417 -0.7432  0.6211  0.2166
  264MOL0     H35578   1.659   1.067   3.270  0.2142  1.5504 -0.0904
  264MOL0     H35579   1.881   0.973   3.184  2.3302 -1.7487  0.6040
  264MOL0     H35580   1.882   0.878   3.334 -0.5346 -1.9517  0.5022
  264MOL0     H35581   1.735   0.726   3.271  1.6241 -0.0178 -0.1495
  264MOL0     H35582   1.628   0.827   3.206  0.4070  0.9213  1.8105
  264MOL0     H35583   1.714   0.711   3.013 -1.0732  1.5114 -0.1387
  264MOL0     H35584   1.778   0.862   3.001  0.8801 -0.5806 -1.1965
  264MOL0     H35585   1.952   0.708   2.944 -2.3644 -4.2345 -0.4752
  264MOL0     H35586   2.004   0.781   3.097 -0.2635 -0.2407  1.6646
  264MOL0     H35587   2.034   0.536   3.095  0.3850  1.3609  2.1954
  264MOL0     H35588   1.957   0.594   3.236  1.8617 -1.4735 -0.0016
  264MOL0     H35589   1.777   0.507   3.006  1.9822 -1.6721 -0.4506
  264MOL0     H35590   1.740   0.516   3.168 -0.5038 -1.6571  0.0851
  264MOL0     H35591   1.783   0.241   2.942 -0.1343  1.6433  0.0089
  264MOL0     H35592   1.894   0.029   2.902 -1.6114 -0.6838  0.6530
  264MOL0     H35593   2.010  -0.027   3.021  0.9275  2.9420 -0.7964
  264MOL0     H35594   1.709  -0.030   3.064 -1.1973 -1.4534 -0.6456
  264MOL0     H35595   1.831  -0.108   3.160  2.5211  0.9109 -1.6035
  264MOL0     H35596   1.716  -0.263   3.014  2.2782 -1.7867  3.1945
  264MOL0     H35597   1.889  -0.261   3.008 -1.0762 -0.1117  0.7318
  264MOL0     H35598   1.786  -0.282   2.771  1.5706 -0.6394  2.1957
  264MOL0     H35599   1.876  -0.130   2.780  0.1923 -0.3210  0.8140
  264MOL0     H35600   1.445  -0.050   2.765  0.3268  0.3849  0.8805
  264MOL0     H35601   1.271   0.141   2.559 -1.2398 -0.4921  0.6655
  264MOL0     H35602   1.225  -0.006   2.464 -0.9951 -0.4168 -0.1977
  264MOL0     H35603   1.227   0.004   2.641 -2.2317  2.2608 -2.4799
  264MOL0     H35604   1.627  -0.063   1.986  0.5509  1.9520  1.1243
  264MOL0     H35605   1.612   0.055   1.772  1.5616 -0.5952  2.0352
  264MOL0     H35606   1.364   0.036   1.641  0.3968 -0.2648 -3.6453
  264MOL0     H35607   1.213   0.138   1.650 -0.0129  2.9589  1.1019
  264MOL0     H35608   1.281   0.255   1.440  2.6818  0.5284 -0.2965
  264MOL0     H35609   1.423   0.147   1.437  0.4864 -0.8146  3.0391
  264MOL0     H35610   1.136   0.029   1.433 -0.9995  0.2881 -2.2499
  264MOL0     H35611   1.294  -0.048   1.393  4.0923  2.7301  1.4800
  264MOL0     H35612   1.155   0.167   1.240 -0.4113 -0.0029  1.9873
  264MOL0     H35613   1.286   0.069   1.176 -0.2065  2.0040 -1.0993
  264MOL0     H35614   1.000  -0.037   1.258 -1.0485  1.1259 -1.6084
  264MOL0     H35615   1.134  -0.127   1.197 -0.5050 -0.1871  2.3196
  264MOL0     H35616   1.115  -0.001   0.977  2.2268  1.1515  2.1331
  264MOL0     H35617   0.972  -0.090   1.018  3.2087 -1.7498 -1.1726
  264MOL0     H35618   0.937   0.158   0.929 -3.3609  0.6641  0.9285
  264MOL0     H35619   0.991   0.212   1.083  0.8013 -0.5526 -0.4292
  264MOL0     H35620   0.768   0.210   1.063 -0.2038 -1.2160 -1.5768
  264MOL0     H35621   0.784   0.072   1.172  1.0695 -0.5547  0.7700
  264MOL0     H35622   1.249   0.251   1.891  0.8860  0.8828 -1.4686
  264MOL0     H35623   1.283   0.165   2.123  1.2363  3.5737 -0.5245
  264MOL0     H35624   1.675  -0.076   2.336  2.3862 -1.5021  0.5512
  264MOL0     H35625   1.791  -0.149   2.557  1.4353 -0.0553 -0.2457
  264MOL0     H35626   1.990   1.198   3.773  2.1428  3.2433  0.6102
  264MOL0     H35627   2.217   1.266   3.774  1.0799  0.6443 -0.7933
  264MOL0     H35628   2.592   1.372   3.516  0.3357  0.4997  0.0451
  264MOL0     H35629   2.816   1.430   3.460 -1.7621 -0.5639  0.0323
  264MOL0     H35630   3.013   1.319   3.776  1.1669  1.7347  1.1247
  264MOL0     H35631   3.138   1.204   3.716 -1.2711 -0.6757  1.5629
  264MOL0     H35632   3.293   1.347   3.680 -0.8351 -0.6884 -1.2308
  264MOL0     H35633   3.213   1.401   3.825  0.1726  0.8790 -0.6341
  264MOL0     H35634   3.095   1.584   3.719  0.7190  2.7823 -0.9754
  264MOL0     H35635   3.159   1.546   3.565  2.7016  0.6748  0.4776
  264MOL0     H35636   3.285   1.730   3.660  4.6275  0.5108  0.5583
  264MOL0     H35637   3.375   1.590   3.640 -0.3177  1.2156 -1.3651
  264MOL0     H35638   3.399   1.639   4.062 -0.8924  1.6353 -0.4898
  264MOL0     H35639   2.961   1.073   3.651  0.2581  0.8770 -1.8504
  264MOL0     H35640   2.741   0.992   3.672  2.0268 -0.5377 -0.1513
  265MOL0     O35641   7.062   6.812   6.225 -0.3568 -0.5997  0.0011
  265MOL0     C35642   7.109   6.865   6.330 -0.6103  0.3224 -0.2062
  265MOL0     O35643   7.083   6.825   6.454 -0.4992  0.1818  0.0646
  265MOL0     C35644   7.018   6.708   6.468  0.4761 -0.3115  0.2134
  265MOL0     C35645   7.091   6.583   6.466  0.8481  0.9334 -0.3622
  265MOL0     C35646   7.025   6.460   6.499  0.9895 -0.5907  0.3276
  265MOL0     C35647   6.885   6.454   6.527 -0.0634 -0.1092  0.0191
  265MOL0     O35648   6.827   6.323   6.522  0.3480 -0.1810  0.6512
  265MOL0     C35649   6.717   6.315   6.619 -0.0985  0.3256  1.0095
  265MOL0     C35650   6.662   6.177   6.615  0.4153  0.0578  0.5571
  265MOL0     C35651   6.548   6.182   6.519  0.1960 -0.0154  0.0523
  265MOL0     C35652   6.485   6.041   6.504  0.3466  0.6755  0.6680
  265MOL0     C35653   6.579   5.942   6.427 -0.6012 -0.3334  0.6835
  265MOL0     C35654   6.564   5.962   6.274 -0.7788 -0.0403  0.0922
  265MOL0     C35655   6.662   5.880   6.189 -0.1889  0.0808 -0.1831
  265MOL0     C35656   6.632   5.843   6.046  0.6384  0.4176  0.0643
  265MOL0     N35657   6.520   5.741   6.044  0.5267 -0.0881  0.5811
  265MOL0     C35658   6.401   5.780   6.014 -0.3654 -0.2420 -0.1126
  265MOL0     C35659   6.331   5.662   6.003 -0.2923  0.2055  0.0901
  265MOL0     C35660   6.192   5.645   5.962 -0.3350 -0.4818 -0.5811
  265MOL0     C35661   6.175   5.594   5.813 -0.7469 -1.2808  0.6566
  265MOL0     C35662   6.135   5.448   5.812  0.4109  0.5108  0.1024
  265MOL0     C35663   6.234   5.351   5.884  0.7122 -0.1108  0.8982
  265MOL0     O35664   6.181   5.216   5.872 -0.2757  0.0029  0.1421
  265MOL0     C35665   6.194   5.134   5.976 -0.0318  1.1422 -0.5581
  265MOL0     C35666   6.275   5.141   6.097  0.1848 -0.0654 -1.1480
  265MOL0     C35667   6.284   5.041   6.196  0.4114 -0.8010  0.1991
  265MOL0     C35668   6.380   5.078   6.313 -0.2585  0.9167  0.3595
  265MOL0     C35669   6.219   4.916   6.172  0.0813  0.8911  0.1394
  265MOL0     C35670   6.240   4.801   6.255  0.5495  0.1044 -0.1103
  265MOL0     O35671   6.244   4.823   6.397 -0.0033 -0.1294  0.6184
  265MOL0     C35672   6.230   4.720   6.480 -0.2981 -0.1630  0.0802
  265MOL0     C35673   6.344   4.643   6.506 -0.3646  0.5881  0.5677
  265MOL0     C35674   6.329   4.519   6.580 -0.4302  0.3136  1.0488
  265MOL0     C35675   6.204   4.484   6.642  0.7209  0.2892  0.8721
  265MOL0     O35676   6.192   4.401   6.744  0.3009  0.0107 -0.1856
  265MOL0     C35677   6.274   4.287   6.733 -0.3773 -0.3050 -0.4710
  265MOL0     C35678   6.234   4.177   6.841 -0.9102 -0.1899  0.2353
  265MOL0     C35679   6.077   4.170   6.857 -0.1652 -0.6048  0.4161
  265MOL0     C35680   6.038   4.037   6.800  1.2360  0.7086  1.0758
  265MOL0     C35681   5.887   4.052   6.749  0.2855  1.1872  0.2081
  265MOL0     C35682   5.829   3.900   6.732 -0.3492  0.2989 -0.4162
  265MOL0     C35683   5.685   3.904   6.667  0.1189 -0.0088  0.3386
  265MOL0     C35684   5.614   3.763   6.673 -0.3921  0.5107  0.0934
  265MOL0    Cl35685   5.459   3.781   6.590 -0.0064 -0.6194 -0.1231
  265MOL0     C35686   6.085   4.562   6.612 -0.1114  0.5197  0.8345
  265MOL0     C35687   6.100   4.679   6.524  0.0287  0.7374 -0.1626
  265MOL0     O35688   6.220   4.692   6.196 -0.1583 -0.3165 -0.1381
  265MOL0     C35689   6.134   4.905   6.061 -1.0122  0.0518  0.4425
  265MOL0     C35690   6.134   5.005   5.968 -0.7118 -0.2518 -0.2218
  265MOL0     N35691   6.417   5.558   6.015 -0.4145 -0.2701 -1.0807
  265MOL0     N35692   6.540   5.606   6.047 -1.0219 -0.2724  0.0597
  265MOL0     C35693   6.822   6.575   6.536  1.6849  0.3020 -0.1186
  265MOL0     C35694   6.884   6.695   6.504 -0.0335 -1.4869  1.3428
  265MOL0     C35695   7.168   7.000   6.330 -0.4044  0.3041  1.3533
  265MOL0     C35696   7.187   7.083   6.217 -0.3563  0.2514 -0.4754
  265MOL0     C35697   7.236   7.217   6.229 -0.4589  0.3085  0.5393
  265MOL0     C35698   7.271   7.269   6.352 -0.0086 -0.2356 -0.7483
  265MOL0     O35699   7.325   7.383   6.392 -0.2568 -1.5036  0.0197
  265MOL0     C35700   7.366   7.483   6.295 -0.4696 -0.2097 -0.2607
  265MOL0     C35701   7.410   7.613   6.378 -0.3716  0.6720  0.3799
  265MOL0     C35702   7.485   7.717   6.301  0.7870  0.3161 -0.2957
  265MOL0     C35703   7.629   7.685   6.253 -0.1511 -0.6590  0.2451
  265MOL0     C35704   7.725   7.692   6.361 -0.1940  0.1406  0.1410
  265MOL0     C35705   7.790   7.724   6.447 -0.1870  0.7980 -0.4615
  265MOL0     C35706   7.244   7.193   6.463  0.3754 -0.3240 -0.7034
  265MOL0     C35707   7.206   7.058   6.460  0.0596 -0.5822  0.1813
  265MOL0     H35708   7.186   6.574   6.415  0.5034 -1.7241 -0.6460
  265MOL0     H35709   7.075   6.364   6.488 -0.8219 -1.4874 -0.5034
  265MOL0     H35710   6.773   6.328   6.712  1.0533  1.1613  0.2071
  265MOL0     H35711   6.646   6.399   6.621 -1.0598 -0.3724 -1.0969
  265MOL0     H35712   6.745   6.114   6.582  0.6825  1.3806 -1.5282
  265MOL0     H35713   6.640   6.138   6.715 -0.8512  4.6633  2.3442
  265MOL0     H35714   6.465   6.245   6.552 -2.5383 -4.7403  3.3588
  265MOL0     H35715   6.585   6.216   6.422 -0.1000  1.6238  0.4887
  265MOL0     H35716   6.465   5.999   6.603  0.9036  0.8979  0.8747
  265MOL0     H35717   6.389   6.056   6.453 -0.6583  2.5063  2.9210
  265MOL0     H35718   6.679   5.947   6.469 -0.3314  2.8384 -0.0759
  265MOL0     H35719   6.550   5.837   6.436  2.1994 -1.1411  1.2229
  265MOL0     H35720   6.463   5.925   6.254 -1.0480  0.7092  0.0270
  265MOL0     H35721   6.570   6.068   6.247  0.4176 -0.4147 -1.2154
  265MOL0     H35722   6.764   5.920   6.194  0.1159 -0.8058  1.6359
  265MOL0     H35723   6.681   5.786   6.241  3.8788  2.2895  3.0126
  265MOL0     H35724   6.724   5.830   5.987  0.1923  0.4797 -0.6650
  265MOL0     H35725   6.598   5.936   6.001  2.0537  1.9238  1.9503
  265MOL0     H35726   6.353   5.877   6.010 -2.5975 -1.3021 -0.8043
  265MOL0     H35727   6.160   5.564   6.029  3.9398  0.6224  3.3048
  265MOL0     H35728   6.126   5.731   5.975 -0.6713 -0.7626 -0.3894
  265MOL0     H35729   6.264   5.609   5.751  0.6175 -3.3766  1.9558
  265MOL0     H35730   6.104   5.655   5.757  1.0706 -1.0332 -1.5453
  265MOL0     H35731   6.138   5.410   5.710  0.6506 -0.2393  0.3758
  265MOL0     H35732   6.029   5.446   5.839  0.1084  0.4362 -1.0509
  265MOL0     H35733   6.232   5.376   5.990 -1.0499 -1.0866  1.1315
  265MOL0     H35734   6.337   5.361   5.847  0.5665 -1.8816 -0.1004
  265MOL0     H35735   6.323   5.236   6.118  0.1527 -0.0523 -1.1335
  265MOL0     H35736   6.315   5.091   6.401  0.2735 -2.5080  1.4392
  265MOL0     H35737   6.448   4.994   6.331 -4.2590 -3.1020 -1.0358
  265MOL0     H35738   6.444   5.165   6.297  2.3486 -0.7186  1.2807
  265MOL0     H35739   6.445   4.680   6.497  0.0325  0.5841  3.7739
  265MOL0     H35740   6.417   4.459   6.602 -1.1728 -1.8024 -1.2528
  265MOL0     H35741   6.278   4.251   6.630  0.4295  1.2672 -1.0132
  265MOL0     H35742   6.376   4.306   6.767 -0.1187  1.3917 -2.0265
  265MOL0     H35743   6.278   4.077   6.838 -1.7417 -0.5475 -1.1522
  265MOL0     H35744   6.272   4.220   6.934 -0.9085 -3.2997  1.7981
  265MOL0     H35745   6.022   4.247   6.802  0.1616 -2.6537 -3.1231
  265MOL0     H35746   6.037   4.189   6.957  2.0308  0.2721  1.1912
  265MOL0     H35747   6.108   4.023   6.717  0.8224  0.7043  0.7240
  265MOL0     H35748   6.050   3.959   6.876  1.4745 -1.1531 -0.7728
  265MOL0     H35749   5.874   4.097   6.650  3.8510  1.4006 -0.2932
  265MOL0     H35750   5.831   4.092   6.834 -0.4087 -0.1479  0.4114
  265MOL0     H35751   5.903   3.845   6.674 -0.2620  1.8428 -1.8350
  265MOL0     H35752   5.808   3.860   6.832 -1.1054  1.7675  0.0491
  265MOL0     H35753   5.698   3.942   6.565  5.1613  0.2895  0.8418
  265MOL0     H35754   5.618   3.968   6.725 -0.7353 -0.1636 -0.4451
  265MOL0     H35755   5.592   3.720   6.771 -1.8946 -0.3888 -0.5805
  265MOL0     H35756   5.678   3.700   6.610 -0.1119  1.2638 -0.3837
  265MOL0     H35757   5.988   4.532   6.650 -0.1404 -1.0019 -0.3530
  265MOL0     H35758   6.024   4.748   6.489  1.3927  2.0357 -0.6654
  265MOL0     H35759   6.085   4.811   6.041  0.3021 -0.7675  0.9034
  265MOL0     H35760   6.078   4.987   5.877  2.6891 -0.4193 -2.4569
  265MOL0     H35761   6.714   6.577   6.551  1.9073  0.4335  1.7838
  265MOL0     H35762   6.822   6.783   6.520 -1.0195 -2.0371  0.6841
  265MOL0     H35763   7.168   7.041   6.118  0.2826 -0.1881 -0.4154
  265MOL0     H35764   7.238   7.291   6.149 -1.4945  3.4497  3.1613
  265MOL0     H35765   7.456   7.450   6.243  0.6481 -1.3302  2.2253
  265MOL0     H35766   7.292   7.495   6.216 -0.3640 -2.5737 -0.7802
  265MOL0     H35767   7.467   7.580   6.464 -0.3347  0.2766  0.2061
  265MOL0     H35768   7.311   7.648   6.409 -0.4079  0.1056  0.9262
  265MOL0     H35769   7.471   7.811   6.356 -3.7856 -1.9943  3.1241
  265MOL0     H35770   7.421   7.726   6.212 -0.8162 -0.8197  0.6873
  265MOL0     H35771   7.676   7.749   6.177  3.4978 -3.8789 -0.5503
  265MOL0     H35772   7.634   7.584   6.212 -1.0824  0.1953 -2.1360
  265MOL0     H35773   7.864   7.735   6.523 -1.4588  1.6739  0.7203
  265MOL0     H35774   7.267   7.231   6.562 -1.8370 -0.8986  0.0813
  265MOL0     H35775   7.186   7.005   6.552 -2.4546 -2.6758 -1.4121
  266MOL0     O35776  10.502  10.028   4.897 -0.7203 -0.4828  0.1307
  266MOL0     C35777  10.543  10.143   4.905  0.3609  0.4754  0.5868
  266MOL0     O35778  10.648  10.189   4.988  0.7253  0.3562 -0.2986
  266MOL0     C35779  10.713  10.103   5.077 -0.4303  0.9656  0.3288
  266MOL0     C35780  10.762   9.973   5.052  0.6347 -0.4833  0.1056
  266MOL0     C35781  10.831   9.915   5.150  0.3436  0.5481 -0.0137
  266MOL0     C35782  10.843   9.969   5.285 -0.4338 -0.1884 -0.8663
  266MOL0     O35783  10.917   9.924   5.389  0.0282  0.6417  0.1792
  266MOL0     C35784  10.923   9.780   5.398  0.3862  0.4830 -0.4611
  266MOL0     C35785  10.963   9.747   5.536 -0.7553 -0.9279 -0.5439
  266MOL0     C35786  10.844   9.744   5.626 -0.3173  0.0829  0.2256
  266MOL0     C35787  10.835   9.611   5.699 -0.5202 -0.8954  0.0815
  266MOL0     C35788  10.697   9.595   5.764  0.5267 -0.0787  0.0280
  266MOL0     C35789  10.667   9.452   5.818 -1.1112  0.4101 -0.3353
  266MOL0     C35790  10.514   9.431   5.826 -0.6619  0.6568 -0.7996
  266MOL0     C35791  10.477   9.287   5.865  0.0647  0.0910  0.0052
  266MOL0     N35792  10.343   9.281   5.918  0.9457  0.1062 -0.2728
  266MOL0     C35793  10.309   9.317   6.048  0.4726  0.2858  0.4664
  266MOL0     C35794  10.167   9.319   6.044 -0.5532  0.7940 -0.2415
  266MOL0     C35795  10.076   9.323   6.164 -0.4895  0.7039 -0.9258
  266MOL0     C35796  10.143   9.291   6.304 -0.4876  0.2999  0.7563
  266MOL0     C35797  10.186   9.141   6.323  0.6130  0.1513  0.9171
  266MOL0     C35798  10.137   9.056   6.438  0.9211 -0.0199 -0.4966
  266MOL0     O35799   9.991   9.031   6.427  0.0350 -0.0661 -0.4899
  266MOL0     C35800   9.909   9.100   6.510 -0.3713 -0.6024  0.7115
  266MOL0     C35801   9.902   9.052   6.642  0.5442 -0.4675  1.1071
  266MOL0     C35802   9.825   9.113   6.733 -0.7676  0.0226 -1.7126
  266MOL0     C35803   9.825   9.051   6.872  0.4637 -0.1396  1.0016
  266MOL0     C35804   9.739   9.219   6.696 -0.0839 -0.9293  1.2315
  266MOL0     C35805   9.644   9.291   6.776  0.8929  0.1767  0.4418
  266MOL0     O35806   9.539   9.334   6.712 -0.6265  0.3570 -0.2305
  266MOL0     C35807   9.431   9.381   6.799  0.4993 -0.0965  0.4288
  266MOL0     C35808   9.317   9.296   6.809 -0.0285 -0.6905  0.1041
  266MOL0     C35809   9.215   9.318   6.896  0.6862  0.0320  0.3397
  266MOL0     C35810   9.211   9.436   6.964 -1.6609  0.7541 -0.1943
  266MOL0     O35811   9.101   9.454   7.046  0.2293 -0.1037 -0.9721
  266MOL0     C35812   9.116   9.509   7.178  0.4739 -0.5938 -0.1232
  266MOL0     C35813   8.973   9.488   7.241 -0.4731  0.4251 -0.0253
  266MOL0     C35814   8.937   9.338   7.270  0.0934  0.1429  0.3334
  266MOL0     C35815   8.789   9.315   7.238  0.1000  0.1334  0.6457
  266MOL0     C35816   8.748   9.173   7.285  0.0509  0.1952 -0.5668
  266MOL0     C35817   8.605   9.122   7.242  0.6637 -0.4013 -0.6578
  266MOL0     C35818   8.585   9.118   7.083  0.1267 -0.0566  0.3506
  266MOL0     C35819   8.437   9.079   7.046 -0.1452  0.0875  0.1559
  266MOL0    Cl35820   8.411   9.034   6.872 -0.0905 -0.2247  0.2346
  266MOL0     C35821   9.322   9.528   6.960  0.3007  1.8959  0.4347
  266MOL0     C35822   9.434   9.502   6.869  0.8446  0.8016 -0.5642
  266MOL0     O35823   9.667   9.309   6.894  0.1330 -0.3541 -0.1653
  266MOL0     C35824   9.750   9.270   6.561 -0.5896  0.0073 -0.1727
  266MOL0     C35825   9.837   9.213   6.470 -0.1543 -1.0003  0.2226
  266MOL0     N35826  10.123   9.304   5.910  0.0362 -0.5818 -0.4345
  266MOL0     N35827  10.228   9.281   5.840 -0.4017 -0.1795 -1.1261
  266MOL0     C35828  10.805  10.101   5.299  0.3204  0.5666 -0.6645
  266MOL0     C35829  10.746  10.168   5.193 -0.8769  0.0193  0.0714
  266MOL0     C35830  10.468  10.244   4.831  0.7019  0.6273 -0.2864
  266MOL0     C35831  10.518  10.377   4.816  0.2955  0.3351 -0.2151
  266MOL0     C35832  10.459  10.464   4.723 -0.0576  0.5294  0.5163
  266MOL0     C35833  10.335  10.443   4.671 -1.4428  1.1582  0.1039
  266MOL0     O35834  10.293  10.537   4.586 -0.1321 -0.9065 -0.4561
  266MOL0     C35835  10.160  10.514   4.532  0.6757  0.4994  0.1488
  266MOL0     C35836  10.135  10.570   4.393 -0.0997  0.2403  1.1937
  266MOL0     C35837  10.174  10.481   4.278 -0.5414  0.2253  0.5646
  266MOL0     C35838  10.126  10.537   4.141 -1.0261  0.8743  0.7962
  266MOL0     C35839  10.121  10.427   4.047 -0.6105 -0.3192 -0.4269
  266MOL0     C35840  10.138  10.342   3.964 -0.2771 -0.4916 -0.4655
  266MOL0     C35841  10.278  10.323   4.705  0.1135  0.1628 -0.3704
  266MOL0     C35842  10.347  10.224   4.766 -0.5118  0.5287 -0.4081
  266MOL0     H35843  10.743   9.926   4.956 -2.3737  2.1618 -0.7978
  266MOL0     H35844  10.878   9.821   5.120 -1.4068  1.0161 -5.3052
  266MOL0     H35845  10.824   9.740   5.377 -1.0496  3.5185  0.0366
  266MOL0     H35846  10.998   9.745   5.326  1.1383 -3.4863  1.8900
  266MOL0     H35847  11.027   9.662   5.563 -2.6465 -1.8687  1.2468
  266MOL0     H35848  11.026   9.830   5.568 -0.6063 -0.7097 -1.3885
  266MOL0     H35849  10.858   9.825   5.698  4.1067  1.3485 -1.6774
  266MOL0     H35850  10.755   9.780   5.573  0.4573  1.2079 -0.3485
  266MOL0     H35851  10.848   9.521   5.638 -0.9501  0.3518 -1.9462
  266MOL0     H35852  10.912   9.600   5.776  0.1853 -3.6255 -0.8939
  266MOL0     H35853  10.691   9.660   5.852  0.0976  3.1360 -2.2012
  266MOL0     H35854  10.617   9.626   5.696  0.6698 -0.2105 -0.2060
  266MOL0     H35855  10.697   9.372   5.750 -3.4644  0.6771 -1.8136
  266MOL0     H35856  10.707   9.436   5.918 -1.6961  1.1081  0.0242
  266MOL0     H35857  10.474   9.487   5.911  0.1467 -0.8038  0.6171
  266MOL0     H35858  10.457   9.446   5.735 -0.6812 -2.7598 -1.4922
  266MOL0     H35859  10.548   9.230   5.926  0.2159 -0.1682 -0.4042
  266MOL0     H35860  10.476   9.217   5.781 -0.3173 -2.0656  1.7084
  266MOL0     H35861  10.367   9.321   6.140  0.2383 -3.9714  0.9954
  266MOL0     H35862  10.028   9.422   6.170  0.5017  1.1993 -1.0197
  266MOL0     H35863   9.991   9.257   6.145  1.1767 -1.7806 -0.2090
  266MOL0     H35864  10.066   9.321   6.376 -2.8438  0.5607 -1.7061
  266MOL0     H35865  10.229   9.356   6.321  4.1367 -4.8072 -0.2958
  266MOL0     H35866  10.295   9.149   6.331  0.6938 -0.3159  0.3120
  266MOL0     H35867  10.160   9.084   6.234 -2.0633  0.5425  1.3658
  266MOL0     H35868  10.169   9.103   6.531 -1.6988  0.2431  0.3460
  266MOL0     H35869  10.182   8.956   6.444 -0.8006 -0.7525  1.0838
  266MOL0     H35870   9.960   8.965   6.670  2.9323  0.5553 -0.3618
  266MOL0     H35871   9.720   9.019   6.879 -0.2879  2.0905  0.8187
  266MOL0     H35872   9.890   8.966   6.895 -0.1384 -0.8567  0.0993
  266MOL0     H35873   9.847   9.122   6.952 -0.5748 -1.1506  2.2379
  266MOL0     H35874   9.314   9.200   6.758 -2.7445 -1.9636  2.3281
  266MOL0     H35875   9.134   9.246   6.896 -0.1313  0.8126  2.9959
  266MOL0     H35876   9.192   9.470   7.246 -0.4384  1.9514  2.5881
  266MOL0     H35877   9.126   9.617   7.164  0.8031 -0.6923 -0.6651
  266MOL0     H35878   8.962   9.538   7.337 -1.0688 -1.7499  1.1111
  266MOL0     H35879   8.901   9.530   7.171  0.0918  0.6694 -0.4734
  266MOL0     H35880   8.948   9.319   7.377 -2.3161  2.5283  1.1108
  266MOL0     H35881   8.995   9.272   7.206 -0.9458  0.7441 -1.2776
  266MOL0     H35882   8.727   9.401   7.265 -2.0007 -1.1946  0.3012
  266MOL0     H35883   8.782   9.306   7.129  2.2428 -0.4006  0.5050
  266MOL0     H35884   8.739   9.184   7.394  0.0216 -1.4338 -0.3820
  266MOL0     H35885   8.826   9.100   7.262 -0.2945  0.4031 -2.5177
  266MOL0     H35886   8.588   9.024   7.286  0.9513 -1.1555 -2.1574
  266MOL0     H35887   8.527   9.191   7.277  0.4112 -0.2745 -1.4548
  266MOL0     H35888   8.655   9.051   7.033 -0.0547  0.7985 -1.1096
  266MOL0     H35889   8.595   9.219   7.043  0.2039 -1.3519 -3.2029
  266MOL0     H35890   8.377   9.170   7.058 -0.9224 -0.2646 -0.8870
  266MOL0     H35891   8.405   8.996   7.109 -1.7296 -0.0751 -0.8143
  266MOL0     H35892   9.335   9.612   7.028  2.1432  1.3945  0.7656
  266MOL0     H35893   9.527   9.559   6.872  1.7712 -0.6870  0.3808
  266MOL0     H35894   9.678   9.345   6.530 -1.9596 -0.5203  1.5864
  266MOL0     H35895   9.846   9.244   6.366 -0.7548 -0.3513  0.3538
  266MOL0     H35896  10.814  10.151   5.395 -2.6021 -1.7519  0.9780
  266MOL0     H35897  10.720  10.273   5.199 -0.0117  0.1686  2.1516
  266MOL0     H35898  10.614  10.408   4.856 -0.5547  1.4881  1.0690
  266MOL0     H35899  10.503  10.560   4.696 -0.8296  1.1480  1.3713
  266MOL0     H35900  10.135  10.408   4.522  0.8815  0.0988  3.0290
  266MOL0     H35901  10.083  10.560   4.595 -1.2489  0.2168 -1.8490
  266MOL0     H35902  10.190  10.663   4.376 -0.0144 -0.0088 -0.0017
  266MOL0     H35903  10.030  10.596   4.383 -0.6289 -1.6507  1.4339
  266MOL0     H35904  10.126  10.382   4.276 -4.4200  1.8530 -3.0765
  266MOL0     H35905  10.283  10.476   4.275 -0.4811 -1.5977  2.8586
  266MOL0     H35906  10.199  10.605   4.095 -1.3692 -1.1400 -3.2116
  266MOL0     H35907  10.033  10.593   4.136  0.0780  2.8921  1.6483
  266MOL0     H35908  10.168  10.262   3.899  2.4514 -0.3046  0.4563
  266MOL0     H35909  10.173  10.312   4.680 -0.4263  1.0393  1.3471
  266MOL0     H35910  10.295  10.129   4.781 -0.3066  0.6385  1.1608
  267MOL0     O35911   3.514   0.618   4.976  0.5097  0.3810  0.0368
  267MOL0     C35912   3.455   0.725   4.964 -0.6789 -0.2414 -0.2092
  267MOL0     O35913   3.449   0.799   4.851  0.2385  0.6718  0.2643
  267MOL0     C35914   3.560   0.791   4.767 -0.9048  0.6529  0.1379
  267MOL0     C35915   3.668   0.694   4.760 -0.1715 -0.6485 -0.5622
  267MOL0     C35916   3.768   0.688   4.659 -0.5202 -1.0166 -0.4236
  267MOL0     C35917   3.768   0.787   4.568  0.6208 -0.4297 -0.0995
  267MOL0     O35918   3.863   0.796   4.474 -0.0952 -0.6745 -0.2047
  267MOL0     C35919   3.886   0.682   4.391  0.1473 -0.0653  0.2429
  267MOL0     C35920   3.952   0.736   4.259 -0.7390 -0.8100  0.1683
  267MOL0     C35921   3.948   0.626   4.157  0.2374  0.1457 -0.1205
  267MOL0     C35922   3.985   0.692   4.028 -0.3471  0.4464  1.0177
  267MOL0     C35923   3.874   0.689   3.918  1.0834 -0.5923  0.3638
  267MOL0     C35924   3.762   0.786   3.962  0.3602 -0.7013  0.5571
  267MOL0     C35925   3.629   0.774   3.887  0.3965 -0.7537  1.0796
  267MOL0     C35926   3.551   0.903   3.903 -0.1117 -0.5438  0.3679
  267MOL0     N35927   3.452   0.924   3.793  0.0403 -0.7210 -0.6325
  267MOL0     C35928   3.346   0.855   3.762  0.1754 -1.1633 -0.4480
  267MOL0     C35929   3.311   0.914   3.644 -0.1395 -0.1435  0.2581
  267MOL0     C35930   3.192   0.876   3.558 -0.7082 -0.0482  0.4361
  267MOL0     C35931   3.243   0.744   3.493 -0.7309  1.0554  0.2489
  267MOL0     C35932   3.289   0.765   3.348 -0.2614 -1.1586 -0.3230
  267MOL0     C35933   3.270   0.647   3.249  0.8971 -0.3194  0.2339
  267MOL0     O35934   3.301   0.699   3.127 -0.0737 -0.0433  0.1642
  267MOL0     C35935   3.287   0.624   3.012  0.3489  0.7992  0.1277
  267MOL0     C35936   3.188   0.523   2.997 -0.4474  0.3206  0.1138
  267MOL0     C35937   3.181   0.450   2.881 -0.8404 -0.3554  0.2265
  267MOL0     C35938   3.080   0.344   2.883  0.1151  0.0761 -0.1448
  267MOL0     C35939   3.265   0.486   2.768  0.0577 -0.0776  0.7554
  267MOL0     C35940   3.254   0.408   2.638 -0.4149 -1.2578  1.3625
  267MOL0     O35941   3.314   0.475   2.529  0.7328  0.3310  0.7310
  267MOL0     C35942   3.307   0.414   2.402 -0.6424 -0.1091  0.0542
  267MOL0     C35943   3.229   0.475   2.311 -0.0649  0.6117  0.9617
  267MOL0     C35944   3.234   0.432   2.178  0.8880  0.5173 -0.2415
  267MOL0     C35945   3.299   0.314   2.136 -0.0405  0.3511 -0.9127
  267MOL0     O35946   3.271   0.253   2.019 -0.0074 -0.5441 -0.9616
  267MOL0     C35947   3.132   0.222   2.009  0.3951 -0.2938 -0.7223
  267MOL0     C35948   3.098   0.088   1.942 -1.6795 -0.5333  0.5024
  267MOL0     C35949   2.954   0.056   1.884  0.4537  0.6075  0.3020
  267MOL0     C35950   2.835   0.110   1.957  0.6474  0.4835 -0.8456
  267MOL0     C35951   2.703   0.029   1.914  1.3326  0.3422  0.8654
  267MOL0     C35952   2.633   0.105   1.793  0.1329  0.6698  0.5497
  267MOL0     C35953   2.498   0.054   1.738  0.2148 -0.6679  0.2605
  267MOL0     C35954   2.515  -0.067   1.647  0.0275  0.6732 -0.0826
  267MOL0    Cl35955   2.519  -0.203   1.762 -1.1531 -0.3353 -0.1865
  267MOL0     C35956   3.388   0.247   2.223 -0.1460  0.0751 -0.4450
  267MOL0     C35957   3.390   0.306   2.360 -0.1594  0.6498 -0.0532
  267MOL0     O35958   3.216   0.298   2.632  1.0103 -0.2392  0.2061
  267MOL0     C35959   3.354   0.587   2.784 -0.7485  0.3829 -0.4671
  267MOL0     C35960   3.381   0.649   2.899  1.3498 -0.0439  0.1201
  267MOL0     N35961   3.375   1.029   3.616 -0.0499 -0.6630 -0.0541
  267MOL0     N35962   3.466   1.028   3.708  0.2621  0.9138 -0.4867
  267MOL0     C35963   3.671   0.886   4.572 -0.7466  0.1715  0.0366
  267MOL0     C35964   3.573   0.888   4.666  0.9091 -0.6484  0.1352
  267MOL0     C35965   3.368   0.760   5.080  0.4142 -0.2345  0.1099
  267MOL0     C35966   3.261   0.851   5.076  0.6247  0.8998  0.7601
  267MOL0     C35967   3.173   0.871   5.191  0.4581  0.4331  0.6979
  267MOL0     C35968   3.179   0.789   5.303  0.0854 -0.8310  0.2870
  267MOL0     O35969   3.089   0.821   5.399  1.1313 -0.9696 -0.0525
  267MOL0     C35970   3.081   0.750   5.525  0.4043  0.7318 -0.3968
  267MOL0     C35971   2.989   0.819   5.627  0.0080  0.6383 -0.2574
  267MOL0     C35972   2.943   0.730   5.744 -0.6619  0.2661 -0.0798
  267MOL0     C35973   2.856   0.821   5.844 -0.1896  0.1211  0.2783
  267MOL0     C35974   2.839   0.753   5.969 -0.3455 -0.1900 -0.1430
  267MOL0     C35975   2.856   0.715   6.088  1.5873  0.2973  0.6576
  267MOL0     C35976   3.295   0.703   5.309 -0.1658  0.2629 -0.3335
  267MOL0     C35977   3.387   0.690   5.199 -0.0158  0.2686  0.0650
  267MOL0     H35978   3.684   0.611   4.829 -0.2523 -0.0300  0.2178
  267MOL0     H35979   3.842   0.609   4.653 -2.2833 -2.7199 -0.4458
  267MOL0     H35980   3.953   0.611   4.441 -0.3618 -1.6464 -1.2478
  267MOL0     H35981   3.793   0.636   4.357  1.0962 -2.3049  0.5512
  267MOL0     H35982   3.905   0.831   4.233 -0.1732 -0.2153  1.2476
  267MOL0     H35983   4.058   0.750   4.278 -0.1787  1.4145 -3.6522
  267MOL0     H35984   4.020   0.545   4.176 -0.9224 -1.8029 -3.2469
  267MOL0     H35985   3.846   0.585   4.156 -0.0878  0.9527 -0.3442
  267MOL0     H35986   4.023   0.794   4.035  1.8762  0.0419 -2.6474
  267MOL0     H35987   4.063   0.622   3.995  0.2749  0.6936  1.9348
  267MOL0     H35988   3.906   0.740   3.827  0.5940  1.0867  1.0944
  267MOL0     H35989   3.842   0.586   3.901 -1.0213 -0.2300  1.7263
  267MOL0     H35990   3.755   0.761   4.068  1.6098 -0.3894  0.7272
  267MOL0     H35991   3.787   0.892   3.961 -1.3721 -0.2299  1.7991
  267MOL0     H35992   3.667   0.760   3.785  2.3310  1.5570  1.3937
  267MOL0     H35993   3.564   0.694   3.924 -0.3585 -1.3020 -1.1990
  267MOL0     H35994   3.612   0.994   3.896 -2.3731  1.0098 -0.3819
  267MOL0     H35995   3.493   0.894   3.995  2.6820  0.5580  2.3653
  267MOL0     H35996   3.313   0.757   3.796 -0.4173 -1.9040 -2.9860
  267MOL0     H35997   3.099   0.862   3.614 -0.6691  4.0633  1.8890
  267MOL0     H35998   3.177   0.949   3.478 -0.4343 -1.4290 -0.9352
  267MOL0     H35999   3.166   0.667   3.503  0.4899 -0.2841 -0.3801
  267MOL0     H36000   3.331   0.698   3.538 -0.6465 -0.9227 -1.7500
  267MOL0     H36001   3.391   0.805   3.349 -1.4072  2.1291 -1.5659
  267MOL0     H36002   3.236   0.850   3.304  0.8140 -1.9222 -3.3094
  267MOL0     H36003   3.170   0.606   3.238 -0.6405  3.4101 -1.5005
  267MOL0     H36004   3.338   0.563   3.268  0.3032 -0.9965 -0.5938
  267MOL0     H36005   3.119   0.497   3.077 -1.8988 -1.4911 -1.6530
  267MOL0     H36006   3.132   0.248   2.869 -0.6283 -0.1416 -1.6461
  267MOL0     H36007   3.044   0.340   2.986  4.6046  4.2178  1.9551
  267MOL0     H36008   2.999   0.358   2.811  0.6903  1.1187 -0.6222
  267MOL0     H36009   3.166   0.549   2.358 -1.8001 -0.3525  0.2647
  267MOL0     H36010   3.189   0.496   2.103  0.9595 -0.0532 -0.7771
  267MOL0     H36011   3.071   0.239   2.098  0.7514  4.0648 -1.1005
  267MOL0     H36012   3.078   0.295   1.946 -1.3067 -0.8824 -0.0141
  267MOL0     H36013   3.167   0.070   1.859 -0.1339 -0.1375  1.6510
  267MOL0     H36014   3.121   0.013   2.018 -0.1360  0.7975  1.4113
  267MOL0     H36015   2.944  -0.053   1.876  1.5246  0.3855  1.6259
  267MOL0     H36016   2.963   0.097   1.783  3.2518 -0.9070 -0.1799
  267MOL0     H36017   2.839   0.096   2.065  1.2440  0.5403 -0.8548
  267MOL0     H36018   2.834   0.219   1.952  0.7863  0.7810  2.7769
  267MOL0     H36019   2.637   0.031   2.000 -2.9007 -1.5754 -2.0032
  267MOL0     H36020   2.723  -0.076   1.891  2.7363  0.4987  1.2657
  267MOL0     H36021   2.606   0.204   1.832 -2.4722 -0.0150  0.6668
  267MOL0     H36022   2.698   0.110   1.705 -3.7476  0.6368 -2.6067
  267MOL0     H36023   2.440   0.127   1.682 -0.3605  0.0120  1.7098
  267MOL0     H36024   2.431   0.028   1.821 -0.9942  1.2461 -0.0707
  267MOL0     H36025   2.610  -0.064   1.593  0.6107  2.3905  0.9539
  267MOL0     H36026   2.424  -0.069   1.585  2.3584  1.5201 -3.8701
  267MOL0     H36027   3.430   0.148   2.207  0.7491  0.2546  0.6823
  267MOL0     H36028   3.435   0.247   2.439 -2.8288 -5.7033 -2.5640
  267MOL0     H36029   3.413   0.620   2.699 -1.9621 -0.7787 -1.8282
  267MOL0     H36030   3.451   0.731   2.905  1.7119 -0.2965 -0.5503
  267MOL0     H36031   3.692   0.970   4.506 -1.3365  1.2070  1.1400
  267MOL0     H36032   3.512   0.978   4.665  1.2749 -0.3982 -0.0587
  267MOL0     H36033   3.254   0.919   4.992 -1.1911 -0.3583 -0.1565
  267MOL0     H36034   3.101   0.951   5.179  2.3267  1.8545 -2.1234
  267MOL0     H36035   3.039   0.654   5.495  1.0027  0.7470 -1.3571
  267MOL0     H36036   3.182   0.734   5.564  0.8499  0.5972 -1.5512
  267MOL0     H36037   2.905   0.843   5.561  1.6534 -0.6050 -2.9833
  267MOL0     H36038   3.025   0.911   5.672  0.5498  1.3541 -2.0582
  267MOL0     H36039   3.032   0.689   5.793 -2.0007 -1.4930  0.9976
  267MOL0     H36040   2.883   0.650   5.700  1.8266 -1.0054 -1.3712
  267MOL0     H36041   2.754   0.846   5.814  0.3411  0.4995 -1.3668
  267MOL0     H36042   2.909   0.916   5.859 -1.1424  0.5673  0.9647
  267MOL0     H36043   2.854   0.669   6.185  0.2536 -0.7410  0.1702
  267MOL0     H36044   3.310   0.638   5.394  0.2735 -1.6756 -1.8257
  267MOL0     H36045   3.465   0.615   5.207 -0.2362  0.1512  1.3364
  268MOL0     O36046   6.614   9.200   3.554 -0.0980  0.3034 -0.4443
  268MOL0     C36047   6.587   9.180   3.437  0.5494 -0.6045 -0.7831
  268MOL0     O36048   6.656   9.205   3.330 -0.4918  0.0887  0.8346
  268MOL0     C36049   6.781   9.277   3.331 -0.2678 -0.4348 -1.0198
  268MOL0     C36050   6.821   9.357   3.442 -0.1681 -0.1180  0.1472
  268MOL0     C36051   6.954   9.415   3.441 -0.5325 -0.4791 -0.2586
  268MOL0     C36052   7.050   9.378   3.347  0.8924 -0.8176 -0.7867
  268MOL0     O36053   7.163   9.443   3.337 -0.1598 -0.2288  0.3912
  268MOL0     C36054   7.196   9.552   3.425  0.0276 -0.2089 -0.4636
  268MOL0     C36055   7.302   9.646   3.369 -0.5054  0.0567 -0.3081
  268MOL0     C36056   7.337   9.771   3.454  0.0143  0.3791 -0.0510
  268MOL0     C36057   7.335   9.742   3.612  0.4594 -0.3721  0.2554
  268MOL0     C36058   7.403   9.855   3.701  0.6042 -0.3540 -0.0041
  268MOL0     C36059   7.379   9.831   3.856  0.5854  0.6623  0.3959
  268MOL0     C36060   7.462   9.927   3.948  0.6930  0.2719  0.3611
  268MOL0     C36061   7.438   9.877   4.087 -0.6600 -0.6431 -0.2066
  268MOL0     N36062   7.459   9.968   4.201  0.3101 -0.3147 -0.1117
  268MOL0     C36063   7.569  10.050   4.216 -1.2231  0.3079 -0.1992
  268MOL0     C36064   7.545  10.108   4.338 -0.0626 -1.3969  0.4092
  268MOL0     C36065   7.633  10.217   4.416  0.8180  1.4125 -0.0857
  268MOL0     C36066   7.784  10.193   4.380 -0.5028 -0.4270 -0.1332
  268MOL0     C36067   7.885  10.247   4.472  0.0281 -0.2206 -0.1214
  268MOL0     C36068   7.924  10.394   4.453  0.1662 -0.1982  0.4985
  268MOL0     O36069   7.815  10.484   4.458  0.5700  0.1551 -0.8140
  268MOL0     C36070   7.794  10.575   4.360  0.5532  0.0808  0.7160
  268MOL0     C36071   7.886  10.630   4.272 -0.8666  0.1496  0.0451
  268MOL0     C36072   7.872  10.743   4.192 -0.1582 -0.5477  0.4404
  268MOL0     C36073   7.981  10.816   4.108 -0.2803  0.6907  0.1571
  268MOL0     C36074   7.739  10.795   4.188  0.5168  0.2042  0.6852
  268MOL0     C36075   7.709  10.927   4.130  0.5165 -0.4367 -0.1171
  268MOL0     O36076   7.749  10.949   3.992  0.1213  0.3910  0.1896
  268MOL0     C36077   7.742  11.062   3.918  0.3999  0.0118 -0.4518
  268MOL0     C36078   7.742  11.196   3.956  1.2661 -0.0942 -0.2954
  268MOL0     C36079   7.741  11.300   3.858  0.2307  0.0794  0.1867
  268MOL0     C36080   7.768  11.268   3.726  0.0058  0.3483  0.1301
  268MOL0     O36081   7.774  11.351   3.611 -0.0172 -0.8739 -0.1204
  268MOL0     C36082   7.799  11.495   3.642  0.1756 -0.1422 -0.3006
  268MOL0     C36083   7.931  11.520   3.710  0.5507 -0.7380 -0.8610
  268MOL0     C36084   8.044  11.531   3.611 -0.3565  1.1332 -0.3174
  268MOL0     C36085   8.171  11.552   3.684  0.1804 -0.0671 -0.9300
  268MOL0     C36086   8.301  11.535   3.600 -0.7716  0.2717 -0.1925
  268MOL0     C36087   8.426  11.574   3.692  0.4907 -0.1255  0.5190
  268MOL0     C36088   8.454  11.482   3.808 -0.5569  0.4510  0.6882
  268MOL0     C36089   8.600  11.466   3.843  0.0824  0.6096  0.7834
  268MOL0    Cl36090   8.666  11.606   3.942  0.0994  0.0517  0.0188
  268MOL0     C36091   7.766  11.131   3.694  0.0995 -0.3113 -0.3475
  268MOL0     C36092   7.754  11.034   3.786 -0.3865 -0.5393 -1.2334
  268MOL0     O36093   7.662  11.018   4.201 -0.9826  0.1610  0.0530
  268MOL0     C36094   7.642  10.751   4.289 -0.3755  0.3162 -0.4858
  268MOL0     C36095   7.671  10.637   4.363  0.9550 -1.0473  0.0060
  268MOL0     N36096   7.421  10.067   4.384  0.2033  0.6101  0.0671
  268MOL0     N36097   7.373   9.981   4.301  0.2864  0.5981  0.0877
  268MOL0     C36098   7.006   9.314   3.229  0.9124 -0.1712  0.4357
  268MOL0     C36099   6.870   9.269   3.223  0.9804  0.1967 -0.8793
  268MOL0     C36100   6.439   9.141   3.431 -0.7061 -0.2358  1.3747
  268MOL0     C36101   6.378   9.143   3.302  0.0293  0.0383  0.3634
  268MOL0     C36102   6.245   9.094   3.280 -0.4318 -0.5431  0.8739
  268MOL0     C36103   6.178   9.029   3.392  0.1005 -0.1599 -0.1167
  268MOL0     O36104   6.051   8.982   3.368 -0.2163 -0.5981  0.4192
  268MOL0     C36105   5.993   8.914   3.470 -0.6409  0.3503  0.2149
  268MOL0     C36106   5.855   8.863   3.438 -0.8536 -0.3374 -0.6252
  268MOL0     C36107   5.845   8.786   3.302  0.0836  0.1558 -0.5550
  268MOL0     C36108   5.930   8.655   3.296  0.9621  1.5947  0.8149
  268MOL0     C36109   5.899   8.580   3.170 -0.4020 -0.4181 -0.3034
  268MOL0     C36110   5.891   8.540   3.057  0.2345 -0.4782 -0.4865
  268MOL0     C36111   6.241   9.037   3.513 -0.0717  0.2885 -0.1949
  268MOL0     C36112   6.366   9.081   3.529  0.1423 -0.6381  0.5575
  268MOL0     H36113   6.754   9.377   3.524 -0.3399 -3.8116  1.0720
  268MOL0     H36114   6.966   9.461   3.538 -3.8824 -1.8867  0.9772
  268MOL0     H36115   7.103   9.609   3.436 -2.7102 -4.4971  1.6837
  268MOL0     H36116   7.220   9.521   3.528 -3.6398  3.0124  1.6354
  268MOL0     H36117   7.388   9.581   3.354 -2.8305 -3.1960 -0.7852
  268MOL0     H36118   7.260   9.676   3.273 -4.3684 -2.6189  0.3074
  268MOL0     H36119   7.439   9.799   3.427  0.9601 -1.2244  1.5612
  268MOL0     H36120   7.266   9.851   3.435 -1.0726 -0.1002  1.7088
  268MOL0     H36121   7.230   9.745   3.643 -0.5670 -0.1563 -2.8564
  268MOL0     H36122   7.379   9.643   3.626 -0.0526 -0.9914 -1.9971
  268MOL0     H36123   7.510   9.862   3.679  0.1807  0.8384 -1.9355
  268MOL0     H36124   7.349   9.945   3.670 -0.3370 -0.9433 -0.1022
  268MOL0     H36125   7.275   9.835   3.892  0.2492  1.5435 -0.6280
  268MOL0     H36126   7.417   9.731   3.876 -1.2675  0.0264  1.0157
  268MOL0     H36127   7.567   9.929   3.919  0.0744  1.1016 -2.1046
  268MOL0     H36128   7.409  10.023   3.948 -0.4325 -0.3280  0.0730
  268MOL0     H36129   7.507   9.791   4.092  1.2031  0.8142  0.4854
  268MOL0     H36130   7.335   9.841   4.090 -1.4543  1.3758 -1.2864
  268MOL0     H36131   7.657  10.074   4.157 -1.5369  0.2321 -0.7052
  268MOL0     H36132   7.595  10.317   4.392 -1.1694  0.5034 -0.9464
  268MOL0     H36133   7.617  10.193   4.521 -0.6495  0.1856 -0.5507
  268MOL0     H36134   7.805  10.223   4.277 -0.3287 -2.1353 -0.6236
  268MOL0     H36135   7.802  10.085   4.373 -3.7689 -1.0286 -0.5785
  268MOL0     H36136   7.972  10.185   4.447  0.8837  0.6516  0.6251
  268MOL0     H36137   7.853  10.221   4.573 -0.5077  0.9539  0.0223
  268MOL0     H36138   7.961  10.402   4.350  0.8491  2.0967  0.8640
  268MOL0     H36139   8.006  10.425   4.518 -0.2520  1.2181  0.3668
  268MOL0     H36140   7.978  10.572   4.270 -2.0336 -2.0909  3.4128
  268MOL0     H36141   7.993  10.921   4.134  1.4404  0.3373  0.9447
  268MOL0     H36142   8.073  10.769   4.144  0.0639 -1.1725 -2.8335
  268MOL0     H36143   7.967  10.791   4.003  2.1882  0.4458 -0.1795
  268MOL0     H36144   7.745  11.218   4.062 -1.6735 -0.3679 -0.0650
  268MOL0     H36145   7.735  11.405   3.886  0.4158  0.2557 -0.4178
  268MOL0     H36146   7.806  11.559   3.554  1.3275 -2.2533 -1.8503
  268MOL0     H36147   7.721  11.531   3.710 -1.3975 -1.7228 -1.1867
  268MOL0     H36148   7.940  11.610   3.771  0.1363 -1.9883  1.1386
  268MOL0     H36149   7.951  11.439   3.781  0.1353 -0.5994 -0.5816
  268MOL0     H36150   8.020  11.610   3.538  1.0093  1.0633 -0.8850
  268MOL0     H36151   8.056  11.440   3.551  4.3430  2.7224 -2.2210
  268MOL0     H36152   8.173  11.651   3.730 -1.6718 -0.0243 -0.8727
  268MOL0     H36153   8.169  11.479   3.765  0.1075  1.6648  0.6905
  268MOL0     H36154   8.299  11.606   3.516 -1.3837  0.3354 -0.1226
  268MOL0     H36155   8.330  11.437   3.559 -0.7674 -0.4411  1.4620
  268MOL0     H36156   8.518  11.572   3.632  0.6043 -1.8014  0.7131
  268MOL0     H36157   8.408  11.672   3.738 -2.7737 -1.7555  3.0714
  268MOL0     H36158   8.408  11.385   3.788 -2.2697  1.2155  0.7913
  268MOL0     H36159   8.385  11.502   3.891 -1.7676 -0.1843 -0.1442
  268MOL0     H36160   8.657  11.457   3.751  0.1868 -0.5758  0.9602
  268MOL0     H36161   8.622  11.376   3.900  2.0795 -1.3433 -2.7869
  268MOL0     H36162   7.765  11.110   3.587 -1.1672  2.0249 -0.8753
  268MOL0     H36163   7.754  10.932   3.749  3.4947 -0.4130 -2.0227
  268MOL0     H36164   7.551  10.806   4.310 -2.0359 -2.1496 -0.6915
  268MOL0     H36165   7.607  10.619   4.449  1.8363  0.3564  1.0158
  268MOL0     H36166   7.074   9.310   3.145  0.9577 -0.2926  0.4770
  268MOL0     H36167   6.834   9.209   3.141 -1.3788  0.3190 -0.0020
  268MOL0     H36168   6.437   9.178   3.217 -2.5200  1.8765 -0.7880
  268MOL0     H36169   6.191   9.117   3.188 -0.8109  0.8443  1.4117
  268MOL0     H36170   6.066   8.835   3.491  1.7351  1.2290 -3.5987
  268MOL0     H36171   5.979   8.982   3.555 -1.4115 -1.1364  1.3130
  268MOL0     H36172   5.785   8.947   3.448  1.0757  1.0782  2.1143
  268MOL0     H36173   5.845   8.790   3.519  1.3333  0.2881  0.2615
  268MOL0     H36174   5.866   8.860   3.225  2.5564  1.9291  1.6194
  268MOL0     H36175   5.738   8.764   3.308 -0.6709  3.2900 -0.7878
  268MOL0     H36176   5.900   8.593   3.381 -0.9428 -2.9870 -2.7437
  268MOL0     H36177   6.039   8.655   3.303  0.9613  1.1546  0.8163
  268MOL0     H36178   5.849   8.502   2.966  1.9087  0.8511 -1.8695
  268MOL0     H36179   6.195   8.997   3.604 -2.8746  7.2010  2.0993
  268MOL0     H36180   6.415   9.071   3.626  2.9999 -1.2060 -0.8213
  269MOL0     O36181   3.860   9.102   0.946 -0.3812 -0.5167  0.3399
  269MOL0     C36182   3.970   9.105   1.008  1.3931  0.2853 -0.0977
  269MOL0     O36183   4.045   9.217   1.042  0.2857  0.2516 -0.2969
  269MOL0     C36184   3.984   9.343   1.038 -0.5763  0.5158  0.1475
  269MOL0     C36185   3.897   9.393   1.143  0.1918 -0.2591  0.2691
  269MOL0     C36186   3.848   9.523   1.133  1.4842 -0.5539 -0.7398
  269MOL0     C36187   3.877   9.601   1.022 -1.2362 -0.6310  0.1687
  269MOL0     O36188   3.821   9.720   0.990 -0.3155  0.7173 -0.3180
  269MOL0     C36189   3.776   9.800   1.094 -0.2239  0.6337  1.0429
  269MOL0     C36190   3.829   9.943   1.070  0.2786 -0.6575 -1.0291
  269MOL0     C36191   3.773  10.033   1.186  0.6345 -0.3054  0.8755
  269MOL0     C36192   3.831  10.173   1.167 -0.4734 -0.4878  1.2710
  269MOL0     C36193   3.783  10.285   1.263 -0.0357  0.0524 -0.6249
  269MOL0     C36194   3.864  10.306   1.395  0.3291  0.1674  0.0978
  269MOL0     C36195   3.824  10.429   1.471 -0.2785 -0.0285 -0.8001
  269MOL0     C36196   3.907  10.458   1.600 -0.1938  0.1000  0.0985
  269MOL0     N36197   4.044  10.479   1.566  0.5969  0.4135 -0.2724
  269MOL0     C36198   4.096  10.524   1.448 -0.8852 -0.3166  0.3210
  269MOL0     C36199   4.233  10.519   1.470 -0.8324 -0.1202 -0.3381
  269MOL0     C36200   4.333  10.554   1.361 -0.3613 -0.4117  0.3044
  269MOL0     C36201   4.380  10.443   1.270  0.7174 -0.0549 -0.6419
  269MOL0     C36202   4.270  10.392   1.167  0.4908  0.7822 -0.7228
  269MOL0     C36203   4.337  10.294   1.067 -0.1129  0.8028 -1.2236
  269MOL0     O36204   4.243  10.219   0.999  0.1338  0.4784  0.0510
  269MOL0     C36205   4.300  10.118   0.926  1.1044 -0.1690 -0.9137
  269MOL0     C36206   4.414  10.119   0.858  0.2412 -0.6787 -0.2892
  269MOL0     C36207   4.474   9.999   0.800 -0.4216 -0.7009  0.4716
  269MOL0     C36208   4.612  10.031   0.730  0.4701 -1.0592 -0.5854
  269MOL0     C36209   4.409   9.874   0.804  0.5719  0.3389 -1.1660
  269MOL0     C36210   4.462   9.742   0.768 -0.6054  0.2107  0.1877
  269MOL0     O36211   4.586   9.750   0.708 -0.5269  0.2761 -0.4384
  269MOL0     C36212   4.661   9.639   0.654  0.2022 -0.2152  0.2093
  269MOL0     C36213   4.608   9.508   0.618  0.2163 -1.1245  0.2308
  269MOL0     C36214   4.692   9.415   0.568 -0.4505 -0.4802 -0.1082
  269MOL0     C36215   4.830   9.431   0.558 -0.6720 -1.1074  0.6319
  269MOL0     O36216   4.919   9.347   0.502 -0.2525 -0.1838  0.1019
  269MOL0     C36217   4.858   9.289   0.389 -0.6262 -0.0978  0.0503
  269MOL0     C36218   4.864   9.139   0.412 -0.5916 -0.9525 -0.9486
  269MOL0     C36219   4.784   9.073   0.302  0.6647 -0.7537 -0.5205
  269MOL0     C36220   4.765   8.922   0.338 -1.0705  0.1769 -0.1530
  269MOL0     C36221   4.672   8.861   0.233  0.2837 -0.7202 -0.4881
  269MOL0     C36222   4.627   8.717   0.266  0.0902  0.0239 -0.1854
  269MOL0     C36223   4.578   8.637   0.144 -0.5405  0.3701  0.5102
  269MOL0     C36224   4.431   8.617   0.149 -0.0902 -0.9646  0.0649
  269MOL0    Cl36225   4.329   8.767   0.140 -0.0098  0.0861  0.0255
  269MOL0     C36226   4.883   9.556   0.591  0.5086  0.7245  0.4604
  269MOL0     C36227   4.802   9.664   0.631  0.0678  0.1516 -0.3896
  269MOL0     O36228   4.392   9.646   0.783 -0.5935  1.1040  0.1851
  269MOL0     C36229   4.285   9.880   0.868 -1.1805  0.9051  0.5272
  269MOL0     C36230   4.233   9.999   0.931  0.0819 -1.1667 -0.3776
  269MOL0     N36231   4.256  10.474   1.598 -0.6596  0.7544  0.0410
  269MOL0     N36232   4.144  10.441   1.647 -0.0429 -0.5917  0.4107
  269MOL0     C36233   3.964   9.557   0.922 -0.6635  0.0193  0.0235
  269MOL0     C36234   4.017   9.428   0.931  0.0946  0.4110  0.0808
  269MOL0     C36235   4.029   8.981   1.043  0.5919 -0.9652 -0.0714
  269MOL0     C36236   3.971   8.856   1.000  0.2339  0.4328  0.5272
  269MOL0     C36237   4.022   8.733   1.040 -0.0961  0.9233 -0.0059
  269MOL0     C36238   4.129   8.721   1.124 -0.6816 -0.4521 -0.7894
  269MOL0     O36239   4.169   8.603   1.175 -0.0369  0.2858  0.1995
  269MOL0     C36240   4.278   8.548   1.115 -0.4587  0.3398  0.1739
  269MOL0     C36241   4.236   8.404   1.081  0.5323  0.0699 -0.5419
  269MOL0     C36242   4.182   8.377   0.939 -0.1216 -0.0883 -0.4053
  269MOL0     C36243   4.296   8.384   0.834  1.3530  0.0752  0.1324
  269MOL0     C36244   4.405   8.290   0.872  0.9658  0.4585  1.3512
  269MOL0     C36245   4.496   8.208   0.903  0.6643  0.6001 -0.8120
  269MOL0     C36246   4.186   8.844   1.168  0.7695  0.2298 -0.0886
  269MOL0     C36247   4.141   8.975   1.123  0.4159 -0.0459 -0.2690
  269MOL0     H36248   3.873   9.339   1.234 -2.1288  0.1220 -0.0542
  269MOL0     H36249   3.791   9.563   1.217  3.7606 -1.5610  1.4102
  269MOL0     H36250   3.669   9.778   1.100  0.3304 -1.9553  2.6214
  269MOL0     H36251   3.810   9.771   1.194 -3.7984  1.4584  2.6570
  269MOL0     H36252   3.938   9.950   1.067  0.3985 -0.9162  1.2632
  269MOL0     H36253   3.803   9.970   0.967 -0.2380 -0.9959 -0.9888
  269MOL0     H36254   3.665  10.042   1.178  0.4897 -2.5171 -0.0987
  269MOL0     H36255   3.798   9.994   1.285 -1.7848 -0.4751  1.4702
  269MOL0     H36256   3.938  10.171   1.190 -0.1550 -1.1656 -0.2154
  269MOL0     H36257   3.829  10.207   1.063  2.0982 -3.1659  0.2094
  269MOL0     H36258   3.785  10.376   1.203 -1.5112 -1.7618 -3.6866
  269MOL0     H36259   3.676  10.268   1.280 -0.4787  2.4591 -0.6936
  269MOL0     H36260   3.832  10.227   1.464 -0.7637 -0.1466 -0.7390
  269MOL0     H36261   3.972  10.297   1.379  0.9298  2.1543  2.4570
  269MOL0     H36262   3.826  10.507   1.394  0.9004  1.0125  0.2256
  269MOL0     H36263   3.720  10.415   1.504  0.2253 -1.2939  0.3503
  269MOL0     H36264   3.912  10.373   1.669  0.9308 -1.2697 -1.5888
  269MOL0     H36265   3.872  10.544   1.657  0.8710 -1.1865  2.8945
  269MOL0     H36266   4.048  10.562   1.358 -0.6660  1.2190  0.8234
  269MOL0     H36267   4.269  10.623   1.306 -1.1701  1.0241  2.9082
  269MOL0     H36268   4.405  10.624   1.405 -2.3177  1.0943  1.2508
  269MOL0     H36269   4.419  10.358   1.326  0.7027  1.2773  1.5033
  269MOL0     H36270   4.468  10.482   1.218  0.9421  0.2741 -0.0265
  269MOL0     H36271   4.233  10.479   1.112 -0.3826 -0.7747 -2.7327
  269MOL0     H36272   4.188  10.336   1.214 -0.5912 -0.6901 -4.0258
  269MOL0     H36273   4.398  10.224   1.125  0.0839  1.5663 -0.4995
  269MOL0     H36274   4.409  10.347   1.003  1.9938  0.0698  0.4318
  269MOL0     H36275   4.469  10.212   0.844  1.3692 -1.0580  1.2507
  269MOL0     H36276   4.625  10.012   0.623 -0.1149 -0.3156 -0.7999
  269MOL0     H36277   4.666  10.125   0.742  1.5679 -1.5731 -1.3450
  269MOL0     H36278   4.676   9.966   0.790  1.7743  1.3777  0.8148
  269MOL0     H36279   4.506   9.478   0.639 -0.1479 -1.3315 -1.6518
  269MOL0     H36280   4.643   9.320   0.546 -0.6528 -1.1968  2.8593
  269MOL0     H36281   4.763   9.330   0.354 -0.5810 -0.9523 -1.1461
  269MOL0     H36282   4.928   9.306   0.307 -0.9789  1.1487 -0.0225
  269MOL0     H36283   4.965   9.098   0.421 -0.9795 -1.5385  1.7304
  269MOL0     H36284   4.821   9.126   0.512 -2.1031  0.5981 -1.3481
  269MOL0     H36285   4.827   9.093   0.203  0.2452  0.7447 -0.4301
  269MOL0     H36286   4.688   9.123   0.291  1.4277  1.2272  1.0690
  269MOL0     H36287   4.863   8.874   0.335 -2.2624 -2.3622 -0.6867
  269MOL0     H36288   4.725   8.905   0.439 -0.9683 -4.1494 -0.6864
  269MOL0     H36289   4.719   8.876   0.136 -0.1945 -1.8439 -0.9112
  269MOL0     H36290   4.583   8.925   0.225 -1.7816 -3.2348  1.0298
  269MOL0     H36291   4.714   8.664   0.305  0.0448 -1.3739 -1.8538
  269MOL0     H36292   4.555   8.710   0.348  4.9249  1.8572  4.7962
  269MOL0     H36293   4.637   8.545   0.151 -1.3077 -0.0308  2.3496
  269MOL0     H36294   4.600   8.689   0.051 -2.2452  2.5558  1.2425
  269MOL0     H36295   4.408   8.564   0.241  0.7432  0.8710  1.3973
  269MOL0     H36296   4.401   8.557   0.063  2.3003 -0.9821 -0.8393
  269MOL0     H36297   4.991   9.551   0.586  0.4181 -3.9201 -1.0250
  269MOL0     H36298   4.844   9.761   0.654 -2.6997  0.2745  6.1251
  269MOL0     H36299   4.213   9.800   0.859 -2.1468  1.7804  0.2249
  269MOL0     H36300   4.131   9.993   0.967  0.5960 -1.9369  1.0254
  269MOL0     H36301   4.001   9.618   0.840 -0.3662  2.4893  1.9110
  269MOL0     H36302   4.089   9.400   0.855  2.4127 -0.9030  2.6102
  269MOL0     H36303   3.902   8.849   0.917  2.6817 -0.5647 -1.5649
  269MOL0     H36304   3.962   8.650   1.003  2.4764 -1.6818  1.2047
  269MOL0     H36305   4.300   8.600   1.022  0.0967  0.3388  0.3043
  269MOL0     H36306   4.360   8.542   1.187 -0.9401 -0.7127  0.6685
  269MOL0     H36307   4.159   8.381   1.156 -0.0216 -0.0475 -1.1399
  269MOL0     H36308   4.321   8.347   1.119  0.7885  2.1799  2.3691
  269MOL0     H36309   4.104   8.452   0.922 -1.2025 -0.1807  3.2570
  269MOL0     H36310   4.144   8.274   0.942  0.7040 -0.3986  2.3804
  269MOL0     H36311   4.337   8.485   0.838 -0.8022  1.0655 -1.1337
  269MOL0     H36312   4.250   8.365   0.737  1.2431 -4.0813  0.8198
  269MOL0     H36313   4.564   8.140   0.949  0.9289  2.7806  2.3614
  269MOL0     H36314   4.263   8.825   1.242 -2.5232 -1.5302  3.2290
  269MOL0     H36315   4.164   9.071   1.170 -0.9228  0.8987 -1.4475
  270MOL0     O36316   2.533   5.525   1.644 -0.0616 -0.7031 -0.0453
  270MOL0     C36317   2.479   5.550   1.752 -0.0073 -0.1181  1.4651
  270MOL0     O36318   2.497   5.482   1.877 -0.0267 -0.1583 -0.2030
  270MOL0     C36319   2.600   5.384   1.881  0.4059 -1.1480 -0.2428
  270MOL0     C36320   2.727   5.432   1.864  0.4919 -0.1458 -0.5545
  270MOL0     C36321   2.838   5.343   1.850 -0.5060  1.4214  0.9502
  270MOL0     C36322   2.817   5.196   1.843  0.0592  0.6267  0.0900
  270MOL0     O36323   2.916   5.105   1.848 -0.2684  0.2926 -0.3102
  270MOL0     C36324   2.988   5.107   1.720  0.1536  0.0068 -0.7531
  270MOL0     C36325   3.096   5.004   1.734 -0.3978  0.4005 -0.0248
  270MOL0     C36326   3.075   4.888   1.638 -0.2139  0.4047 -0.2113
  270MOL0     C36327   3.204   4.803   1.624  0.4685 -0.0747  1.0447
  270MOL0     C36328   3.195   4.678   1.716  0.4490  0.7525  0.0299
  270MOL0     C36329   3.310   4.579   1.696  0.0249 -0.8347  0.1224
  270MOL0     C36330   3.324   4.495   1.823  0.1416 -0.7225  0.0397
  270MOL0     C36331   3.435   4.400   1.799 -0.3191 -0.0002 -0.2192
  270MOL0     N36332   3.477   4.338   1.926  1.1393  0.3375  0.0094
  270MOL0     C36333   3.405   4.236   1.991  0.9741  0.0773  1.2732
  270MOL0     C36334   3.486   4.189   2.088  0.9714 -0.1677 -0.2789
  270MOL0     C36335   3.455   4.086   2.176  0.0380 -0.0445 -0.1767
  270MOL0     C36336   3.574   4.021   2.246 -0.3097 -0.0132  0.1543
  270MOL0     C36337   3.666   3.950   2.141  0.1711  0.0574 -0.3836
  270MOL0     C36338   3.779   3.875   2.218 -0.0840  0.3248 -0.5978
  270MOL0     O36339   3.887   3.844   2.126  0.1870  0.2463  1.1203
  270MOL0     C36340   3.952   3.953   2.080  0.5171 -0.1210  0.6975
  270MOL0     C36341   4.000   3.939   1.948 -0.7808 -0.0193  0.1343
  270MOL0     C36342   4.069   4.034   1.877  0.0472 -0.3584 -0.1739
  270MOL0     C36343   4.107   3.997   1.727  0.8161 -0.7129 -0.4284
  270MOL0     C36344   4.100   4.155   1.950 -1.1908 -0.0589 -0.8459
  270MOL0     C36345   4.168   4.270   1.894 -0.2165  0.2187  0.9785
  270MOL0     O36346   4.169   4.382   1.964  0.0972  0.0240  0.3334
  270MOL0     C36347   4.218   4.502   1.907  0.9008  0.8343 -0.0203
  270MOL0     C36348   4.184   4.624   1.968  0.2245  0.0319 -0.5091
  270MOL0     C36349   4.229   4.752   1.930  0.2179  0.7875  0.2418
  270MOL0     C36350   4.322   4.755   1.820 -0.3545  0.0050 -0.1530
  270MOL0     O36351   4.393   4.866   1.785 -0.8198 -0.6544  0.5133
  270MOL0     C36352   4.330   4.999   1.820 -0.6470  0.2921  0.6511
  270MOL0     C36353   4.425   5.104   1.757  0.6262 -0.1208 -0.5089
  270MOL0     C36354   4.368   5.242   1.789 -1.0094 -0.0143 -0.5425
  270MOL0     C36355   4.314   5.315   1.672  1.2250  0.0844  0.3957
  270MOL0     C36356   4.276   5.463   1.706 -1.2664 -0.6396  0.9073
  270MOL0     C36357   4.151   5.470   1.798  0.6782 -0.4731  0.3929
  270MOL0     C36358   4.101   5.609   1.825 -0.4473  0.8090 -0.2739
  270MOL0     C36359   4.070   5.635   1.965 -1.1315 -1.0574  1.0739
  270MOL0    Cl36360   3.956   5.776   1.942 -0.1459  0.0236  0.0213
  270MOL0     C36361   4.364   4.632   1.771 -0.6751  0.2758  0.5788
  270MOL0     C36362   4.312   4.515   1.807  0.7363  0.5250 -0.0512
  270MOL0     O36363   4.238   4.239   1.803 -1.1889  0.5041 -0.8756
  270MOL0     C36364   4.057   4.171   2.080 -0.9478 -1.3399 -0.4977
  270MOL0     C36365   3.984   4.072   2.146  0.6115  0.6722 -0.3205
  270MOL0     N36366   3.585   4.292   2.109  0.8718  1.0090  0.4731
  270MOL0     N36367   3.574   4.367   2.017 -0.6884 -0.4718 -0.5094
  270MOL0     C36368   2.686   5.153   1.863  0.9817 -1.0494 -0.0828
  270MOL0     C36369   2.580   5.251   1.885  0.2378  0.2565 -0.4282
  270MOL0     C36370   2.376   5.650   1.745  0.7511 -0.6175  0.4995
  270MOL0     C36371   2.312   5.675   1.618 -0.2722 -0.0294 -0.4269
  270MOL0     C36372   2.215   5.769   1.602 -0.1658  0.6325  1.3423
  270MOL0     C36373   2.171   5.840   1.710  0.3125 -0.1874 -0.0178
  270MOL0     O36374   2.076   5.932   1.689  0.4028  0.0757  0.5082
  270MOL0     C36375   2.081   6.063   1.756 -0.4760 -0.5560  0.6914
  270MOL0     C36376   2.190   6.159   1.714 -0.1660  0.3753  0.0881
  270MOL0     C36377   2.179   6.176   1.565  0.7037 -0.4692 -0.0986
  270MOL0     C36378   2.282   6.281   1.498 -0.3342  0.3877 -0.6692
  270MOL0     C36379   2.399   6.205   1.454 -0.2149 -1.0805 -0.4961
  270MOL0     C36380   2.499   6.146   1.431  0.8724 -0.1757 -0.1254
  270MOL0     C36381   2.212   5.796   1.835 -0.6266 -0.3204 -1.4453
  270MOL0     C36382   2.318   5.707   1.856 -0.1180  0.2743  0.3715
  270MOL0     H36383   2.733   5.540   1.855 -2.9397  0.0182 -2.8183
  270MOL0     H36384   2.933   5.391   1.828 -1.2023  2.5012  0.2337
  270MOL0     H36385   2.913   5.087   1.643  0.5243 -2.9779 -0.4520
  270MOL0     H36386   3.026   5.208   1.705  0.3466 -0.1278 -1.1846
  270MOL0     H36387   3.192   5.048   1.705 -0.4694  0.0375 -0.8429
  270MOL0     H36388   3.096   4.967   1.837  1.2432  0.9619  0.2208
  270MOL0     H36389   2.995   4.827   1.682 -0.9127  1.3208 -0.1808
  270MOL0     H36390   3.058   4.912   1.533  2.2670  0.6395 -0.6148
  270MOL0     H36391   3.202   4.763   1.522  1.3874  2.9177 -0.2548
  270MOL0     H36392   3.299   4.854   1.642  1.6594 -1.9310  0.3482
  270MOL0     H36393   3.207   4.715   1.819  2.8913 -3.0571  1.3084
  270MOL0     H36394   3.099   4.626   1.710  2.1483 -2.9651  1.9870
  270MOL0     H36395   3.297   4.519   1.606  2.6135  0.8510 -1.5244
  270MOL0     H36396   3.403   4.637   1.691  1.7788 -3.2082  2.2443
  270MOL0     H36397   3.333   4.557   1.913  1.1995  2.1144 -1.8643
  270MOL0     H36398   3.235   4.435   1.843  1.0693 -1.6533  1.6295
  270MOL0     H36399   3.521   4.454   1.759  0.2683  0.7176  1.8715
  270MOL0     H36400   3.397   4.324   1.730 -3.3709  0.4673  0.7988
  270MOL0     H36401   3.315   4.184   1.961  2.8875 -2.4483 -0.5218
  270MOL0     H36402   3.378   4.111   2.250  0.8813 -2.8363  1.8117
  270MOL0     H36403   3.410   4.004   2.119  2.8164  1.3087 -4.8951
  270MOL0     H36404   3.542   3.951   2.324 -2.4459  0.2825 -0.3784
  270MOL0     H36405   3.621   4.104   2.299 -0.0562 -2.4481  4.1897
  270MOL0     H36406   3.704   4.017   2.063  2.2165 -1.8734 -1.1544
  270MOL0     H36407   3.606   3.873   2.090  2.1485  0.0823 -2.9686
  270MOL0     H36408   3.748   3.779   2.262  2.5826 -0.3086  0.1295
  270MOL0     H36409   3.809   3.934   2.305  0.5674 -1.3892  0.3965
  270MOL0     H36410   3.978   3.848   1.893 -3.9964  2.6368 -3.6076
  270MOL0     H36411   4.211   3.962   1.719  1.3706  1.2249 -4.0002
  270MOL0     H36412   4.042   3.915   1.695  0.9135  0.6523 -4.7276
  270MOL0     H36413   4.105   4.082   1.658  2.8673 -1.0268 -0.9445
  270MOL0     H36414   4.110   4.621   2.047 -0.9319 -0.4411 -1.5702
  270MOL0     H36415   4.214   4.835   1.998  1.9553  3.2160 -2.1404
  270MOL0     H36416   4.222   5.017   1.819 -0.4548  2.0698  2.7553
  270MOL0     H36417   4.351   5.002   1.927  0.5000  1.1423  0.4332
  270MOL0     H36418   4.525   5.080   1.796  0.2754 -1.8223 -0.5733
  270MOL0     H36419   4.431   5.099   1.648 -0.6340  0.7694 -0.6417
  270MOL0     H36420   4.451   5.295   1.835 -0.0601  0.5788 -2.8158
  270MOL0     H36421   4.290   5.239   1.866 -0.9235 -0.5585 -0.4721
  270MOL0     H36422   4.379   5.299   1.585  1.1466  1.7741 -0.0062
  270MOL0     H36423   4.218   5.272   1.643  2.8588 -3.7341  0.0203
  270MOL0     H36424   4.267   5.523   1.615  1.7146  0.6811  1.3555
  270MOL0     H36425   4.359   5.506   1.763 -2.8595  3.8117  0.2641
  270MOL0     H36426   4.066   5.415   1.754  0.2388 -0.2910  1.0068
  270MOL0     H36427   4.168   5.408   1.886 -0.8818  1.7075  2.3424
  270MOL0     H36428   4.010   5.623   1.766 -0.1707 -0.0476 -0.9267
  270MOL0     H36429   4.180   5.680   1.799  1.1492 -0.2594  1.4563
  270MOL0     H36430   4.026   5.545   2.009  0.6459 -1.3751  2.2948
  270MOL0     H36431   4.157   5.670   2.020 -0.9847  2.4544 -1.0747
  270MOL0     H36432   4.452   4.624   1.708 -0.3373  0.4423  1.0309
  270MOL0     H36433   4.356   4.435   1.748  0.0560 -0.8338  1.2271
  270MOL0     H36434   4.093   4.257   2.136 -0.8106 -0.1067 -2.3926
  270MOL0     H36435   3.966   4.098   2.250  0.4775 -0.0304 -0.1641
  270MOL0     H36436   2.667   5.047   1.849 -1.0345 -1.2439  2.9440
  270MOL0     H36437   2.477   5.216   1.890  0.2592 -0.0254 -1.7549
  270MOL0     H36438   2.346   5.631   1.525  1.6571  2.4716 -1.0296
  270MOL0     H36439   2.174   5.793   1.505 -0.4495  0.2341  1.3597
  270MOL0     H36440   1.988   6.113   1.727 -1.2379 -3.1183 -1.7641
  270MOL0     H36441   2.083   6.038   1.862 -4.1379 -2.3555  0.5031
  270MOL0     H36442   2.285   6.111   1.740  0.0700 -1.5203 -3.6501
  270MOL0     H36443   2.184   6.252   1.771  0.1202  1.0029 -0.9000
  270MOL0     H36444   2.082   6.225   1.550  0.2637 -1.1267  0.5569
  270MOL0     H36445   2.178   6.085   1.505 -1.0012  1.3810 -3.1387
  270MOL0     H36446   2.294   6.354   1.578 -2.1150  2.0508 -1.8255
  270MOL0     H36447   2.232   6.318   1.408 -0.1154  1.5535 -0.3347
  270MOL0     H36448   2.593   6.096   1.414  2.1794  0.6153  3.8500
  270MOL0     H36449   2.166   5.841   1.922 -1.8027  0.4762 -2.4458
  270MOL0     H36450   2.359   5.679   1.953 -0.3518  1.2795  0.7732
  271MOL0     O36451   7.827   7.129   7.461  0.1657  0.7336  0.1778
  271MOL0     C36452   7.875   7.094   7.566  0.8211  0.0140  0.2848
  271MOL0     O36453   7.909   7.187   7.660 -0.5828 -0.0117 -0.1344
  271MOL0     C36454   7.900   7.315   7.625  0.7484 -0.0238 -0.6253
  271MOL0     C36455   7.996   7.373   7.556  0.3532  0.3416 -0.3425
  271MOL0     C36456   7.988   7.514   7.527 -0.7711  0.0866 -0.3450
  271MOL0     C36457   7.884   7.590   7.560 -0.5828 -0.1213 -0.3866
  271MOL0     O36458   7.901   7.721   7.538  0.4253 -0.7185  0.0919
  271MOL0     C36459   7.782   7.802   7.537  0.9138 -0.3319 -1.3356
  271MOL0     C36460   7.826   7.939   7.495 -0.1665  0.1470 -0.1551
  271MOL0     C36461   7.726   8.038   7.424 -0.4191  0.2300  1.2475
  271MOL0     C36462   7.632   8.107   7.522 -0.2341  0.5198  0.8564
  271MOL0     C36463   7.591   8.243   7.463  0.4369 -0.4156 -1.1503
  271MOL0     C36464   7.501   8.211   7.350  0.7366 -1.3104  0.2630
  271MOL0     C36465   7.411   8.337   7.294 -0.0063  0.2663 -0.8707
  271MOL0     C36466   7.490   8.442   7.215  0.0503 -0.1281  0.8118
  271MOL0     N36467   7.528   8.378   7.089 -0.7926  0.0784  0.2436
  271MOL0     C36468   7.646   8.311   7.090 -0.5256 -0.0932 -0.9697
  271MOL0     C36469   7.666   8.270   6.966  0.6311  0.0551 -0.9812
  271MOL0     C36470   7.778   8.192   6.914  0.8001 -0.5859 -0.0560
  271MOL0     C36471   7.850   8.106   7.030 -0.5268  0.1551  0.0707
  271MOL0     C36472   7.956   8.010   6.976 -0.9068 -0.9162  0.2750
  271MOL0     C36473   8.041   7.941   7.081  0.1456  0.4869 -0.5565
  271MOL0     O36474   7.940   7.867   7.157  0.0407 -0.2637 -0.2459
  271MOL0     C36475   7.959   7.730   7.174 -0.1525  0.0613 -0.5834
  271MOL0     C36476   7.849   7.651   7.182 -0.2837 -0.0741 -0.5155
  271MOL0     C36477   7.880   7.517   7.175 -0.3577 -0.2597  0.1093
  271MOL0     C36478   7.759   7.425   7.170  1.0722 -0.3252  0.0493
  271MOL0     C36479   8.014   7.459   7.173  0.3704 -0.2505 -0.1073
  271MOL0     C36480   8.042   7.317   7.152  0.9810 -2.1297 -0.3514
  271MOL0     O36481   7.941   7.229   7.112 -0.0484  0.3190 -0.5912
  271MOL0     C36482   7.989   7.101   7.100 -0.0292 -0.5263  0.9550
  271MOL0     C36483   8.046   7.022   7.195 -0.7769  0.8398 -1.0942
  271MOL0     C36484   8.075   6.888   7.174 -0.4445  0.5395  0.0159
  271MOL0     C36485   8.050   6.831   7.049 -0.2146  0.1868 -0.5227
  271MOL0     O36486   8.078   6.700   7.010  0.0623 -0.5880 -0.3547
  271MOL0     C36487   8.196   6.645   7.068 -0.3812  0.9220  0.6864
  271MOL0     C36488   8.243   6.527   6.978  0.5570  0.3893  0.3915
  271MOL0     C36489   8.253   6.557   6.829 -0.2052 -0.7570 -0.2385
  271MOL0     C36490   8.306   6.446   6.745 -1.4192 -0.3233 -0.3093
  271MOL0     C36491   8.288   6.471   6.592 -0.0208 -0.0164  0.0036
  271MOL0     C36492   8.360   6.604   6.542 -0.4177  0.4342  0.1321
  271MOL0     C36493   8.284   6.738   6.532 -0.0883 -0.3229  0.3868
  271MOL0     C36494   8.360   6.864   6.503 -0.5259  0.3731 -0.2874
  271MOL0    Cl36495   8.425   6.870   6.338 -0.0131  0.2853 -0.3133
  271MOL0     C36496   7.995   6.908   6.958 -0.2618 -0.0760  1.1879
  271MOL0     C36497   7.972   7.044   6.971  0.6823 -0.1885  1.0571
  271MOL0     O36498   8.156   7.291   7.176  1.1019 -1.0393  0.0099
  271MOL0     C36499   8.118   7.546   7.203 -0.1746  0.6021  0.2425
  271MOL0     C36500   8.095   7.684   7.194  0.6652  0.5535 -0.6390
  271MOL0     N36501   7.552   8.313   6.887 -0.0664 -0.8441  0.0610
  271MOL0     N36502   7.474   8.382   6.964 -0.3666 -0.5763  0.8579
  271MOL0     C36503   7.782   7.525   7.624  0.1411  0.1626 -0.7858
  271MOL0     C36504   7.780   7.388   7.653 -0.0599 -0.0312 -0.3431
  271MOL0     C36505   7.890   6.950   7.591 -0.1378 -0.0107 -0.6180
  271MOL0     C36506   7.894   6.863   7.484  0.3707 -0.8215 -0.5770
  271MOL0     C36507   7.925   6.729   7.503 -0.0661 -0.2840  0.2720
  271MOL0     C36508   7.937   6.678   7.623  0.9530  0.3391  0.1491
  271MOL0     O36509   7.968   6.538   7.617  0.1000 -0.2683 -0.0534
  271MOL0     C36510   8.034   6.478   7.727  0.7330 -0.1730  0.3518
  271MOL0     C36511   7.977   6.330   7.746 -1.0577  0.4353 -0.0803
  271MOL0     C36512   8.043   6.245   7.869 -0.1327 -0.8712 -0.4893
  271MOL0     C36513   8.189   6.197   7.836 -0.6772  0.4223  0.3513
  271MOL0     C36514   8.178   6.055   7.781  0.0693  0.3560 -0.6387
  271MOL0     C36515   8.152   5.934   7.748 -0.6264 -0.3109  1.0806
  271MOL0     C36516   7.946   6.766   7.737 -0.0536 -0.1680  0.8125
  271MOL0     C36517   7.926   6.907   7.719 -1.0203  0.0703 -0.8979
  271MOL0     H36518   8.072   7.318   7.501 -3.9801 -2.4697 -4.3313
  271MOL0     H36519   8.074   7.559   7.479  1.6110 -2.8462  0.9089
  271MOL0     H36520   7.706   7.772   7.464  0.5401 -0.3022 -0.9614
  271MOL0     H36521   7.736   7.804   7.636  4.3732  2.6809  0.4680
  271MOL0     H36522   7.880   7.979   7.581  2.3781 -1.4325 -0.8971
  271MOL0     H36523   7.895   7.913   7.415  0.3486  0.7008  0.1080
  271MOL0     H36524   7.782   8.116   7.371  3.1793 -1.5203  2.2153
  271MOL0     H36525   7.663   7.975   7.360 -3.0638  0.8926  3.0235
  271MOL0     H36526   7.556   8.034   7.552  0.6305 -0.1968  1.3625
  271MOL0     H36527   7.695   8.124   7.610  0.3609  0.9148  0.3612
  271MOL0     H36528   7.533   8.293   7.541  3.3174 -2.8360  2.9292
  271MOL0     H36529   7.670   8.318   7.452 -0.1879  0.8536  1.8834
  271MOL0     H36530   7.551   8.155   7.270 -0.6033  0.6544 -2.1038
  271MOL0     H36531   7.429   8.137   7.385  0.8650 -0.8982  1.4475
  271MOL0     H36532   7.328   8.304   7.232 -1.3925  1.0574  0.4945
  271MOL0     H36533   7.370   8.394   7.378 -0.7548 -0.8535 -0.4514
  271MOL0     H36534   7.574   8.486   7.271 -0.1135 -2.3825  2.9935
  271MOL0     H36535   7.414   8.519   7.197  1.0845  1.0749  1.3801
  271MOL0     H36536   7.715   8.284   7.169  1.1532  1.8231 -1.6931
  271MOL0     H36537   7.730   8.134   6.835  2.2195  1.0795 -2.2640
  271MOL0     H36538   7.846   8.264   6.868  0.1546 -1.1765 -2.0475
  271MOL0     H36539   7.770   8.043   7.071 -1.3479  0.8629 -0.3880
  271MOL0     H36540   7.887   8.170   7.111 -0.2902 -0.3221  0.3410
  271MOL0     H36541   8.031   8.069   6.924 -0.9592  3.0862  4.0985
  271MOL0     H36542   7.913   7.926   6.920  4.4738 -3.1701 -1.0480
  271MOL0     H36543   8.073   8.009   7.160 -1.8989  0.3194  0.4726
  271MOL0     H36544   8.121   7.888   7.028  1.5413  1.8277  0.1586
  271MOL0     H36545   7.753   7.702   7.184  0.5394  1.5165  0.1171
  271MOL0     H36546   7.777   7.345   7.243  3.7313  0.2210  0.0936
  271MOL0     H36547   7.654   7.452   7.185 -0.4281 -3.7320 -2.9612
  271MOL0     H36548   7.749   7.381   7.071 -3.6929  0.0541  0.1166
  271MOL0     H36549   8.070   7.082   7.282  2.6560  2.2388 -2.7915
  271MOL0     H36550   8.111   6.813   7.244 -0.6177 -0.6369 -1.1048
  271MOL0     H36551   8.280   6.714   7.061  1.7607 -1.5239  0.5720
  271MOL0     H36552   8.174   6.609   7.169 -1.5302  1.9007  0.8102
  271MOL0     H36553   8.347   6.518   7.011  1.3076  5.0226  0.0808
  271MOL0     H36554   8.185   6.436   6.996  1.0682 -0.0477 -0.1365
  271MOL0     H36555   8.307   6.651   6.816 -2.3814  1.0335  2.2821
  271MOL0     H36556   8.152   6.578   6.793 -0.9468  2.4350  3.0171
  271MOL0     H36557   8.413   6.441   6.769 -2.0506  1.2572  3.5658
  271MOL0     H36558   8.261   6.355   6.787 -0.6924  1.0821  4.0082
  271MOL0     H36559   8.183   6.470   6.561  0.8103 -0.8733 -3.0587
  271MOL0     H36560   8.326   6.385   6.537  1.3464 -0.1009  1.0372
  271MOL0     H36561   8.448   6.607   6.606  1.3441 -2.8478 -1.8687
  271MOL0     H36562   8.398   6.584   6.441  2.6879  2.4936  0.7641
  271MOL0     H36563   8.218   6.768   6.614 -2.8260  1.0333 -2.1305
  271MOL0     H36564   8.212   6.725   6.451 -1.1520 -1.1203  1.4174
  271MOL0     H36565   8.437   6.880   6.579 -0.9004 -0.4270  0.2738
  271MOL0     H36566   8.289   6.948   6.509 -1.6322 -0.4992 -0.7294
  271MOL0     H36567   7.985   6.859   6.861  0.3751 -0.1262  1.1468
  271MOL0     H36568   7.945   7.096   6.880 -1.2916  2.8897  3.2063
  271MOL0     H36569   8.220   7.513   7.219  0.5996  3.0786  0.9204
  271MOL0     H36570   8.177   7.749   7.220  2.4308 -0.9766 -2.1275
  271MOL0     H36571   7.692   7.573   7.660 -1.4177 -2.6175 -0.6836
  271MOL0     H36572   7.713   7.335   7.720  2.4116 -3.7481 -0.5148
  271MOL0     H36573   7.881   6.913   7.389  1.9216  0.6957 -0.0574
  271MOL0     H36574   7.939   6.677   7.408  0.3880  0.0270  0.1624
  271MOL0     H36575   8.140   6.483   7.702  0.0920  3.0925 -2.5737
  271MOL0     H36576   8.016   6.528   7.822 -3.6772 -2.9089  1.2745
  271MOL0     H36577   7.999   6.275   7.654  4.3501 -1.3364  1.8244
  271MOL0     H36578   7.871   6.334   7.772 -1.2247  0.7976 -0.8157
  271MOL0     H36579   7.970   6.164   7.884  0.8458 -1.3134  2.5587
  271MOL0     H36580   8.049   6.310   7.956  0.8558 -1.5133 -0.0634
  271MOL0     H36581   8.251   6.215   7.925  0.3959  0.2421 -0.3354
  271MOL0     H36582   8.242   6.246   7.754  0.0866  0.1997  0.6998
  271MOL0     H36583   8.120   5.842   7.704  0.0620  0.6161 -1.5603
  271MOL0     H36584   7.957   6.737   7.841 -4.5345 -0.3481  1.4246
  271MOL0     H36585   7.944   6.981   7.795 -1.5972 -0.7118  0.0237
  272MOL0     O36586   6.870   7.442   1.660  0.2315 -0.2698  0.2534
  272MOL0     C36587   6.762   7.501   1.667 -0.3742 -0.4952 -0.3632
  272MOL0     O36588   6.654   7.468   1.592 -0.2719  0.2209  0.5207
  272MOL0     C36589   6.694   7.395   1.479 -0.0124  0.0070 -1.2920
  272MOL0     C36590   6.733   7.258   1.500 -0.2695  0.2721  0.3017
  272MOL0     C36591   6.757   7.174   1.389 -0.6729  0.1188 -0.2603
  272MOL0     C36592   6.744   7.226   1.254  0.2523 -0.2308 -0.0859
  272MOL0     O36593   6.744   7.149   1.134 -0.6283 -0.8887  0.1190
  272MOL0     C36594   6.722   7.008   1.154  1.7402 -0.5572 -0.0184
  272MOL0     C36595   6.666   6.954   1.021  0.3157 -0.0562 -0.2782
  272MOL0     C36596   6.636   6.803   1.033 -0.4164 -0.4823  0.3443
  272MOL0     C36597   6.762   6.718   0.998  0.9684 -0.4285 -0.6882
  272MOL0     C36598   6.781   6.726   0.841  0.2403  1.0971  0.5691
  272MOL0     C36599   6.919   6.667   0.805  0.4953  0.1127 -1.9119
  272MOL0     C36600   6.958   6.671   0.660  0.2342 -0.4520  0.7753
  272MOL0     C36601   6.970   6.819   0.606  0.6966 -0.4969  0.0960
  272MOL0     N36602   7.053   6.906   0.683 -0.0605 -0.4048  0.7420
  272MOL0     C36603   7.015   6.990   0.784  1.0557 -0.9217  0.2004
  272MOL0     C36604   7.131   7.056   0.826 -1.0624  0.6578  1.5060
  272MOL0     C36605   7.122   7.171   0.920  0.0359  0.2507 -0.3560
  272MOL0     C36606   7.079   7.300   0.853  0.7283 -0.1470  0.7941
  272MOL0     C36607   6.994   7.385   0.949  0.3870  0.0798 -0.2483
  272MOL0     C36608   6.920   7.487   0.863 -0.1506  0.8594  0.4416
  272MOL0     O36609   6.815   7.541   0.943  0.0628 -0.0860 -0.3653
  272MOL0     C36610   6.719   7.627   0.882 -0.8837  0.8786 -0.5981
  272MOL0     C36611   6.618   7.681   0.966 -0.1156 -0.2861  0.2306
  272MOL0     C36612   6.533   7.792   0.926 -0.1822 -0.4055  1.6644
  272MOL0     C36613   6.427   7.837   1.022  0.7131 -0.3676  0.5352
  272MOL0     C36614   6.545   7.839   0.788  0.0815  0.8064 -0.5202
  272MOL0     C36615   6.469   7.955   0.735  0.1609  0.2688  0.0657
  272MOL0     O36616   6.422   8.046   0.823  0.7735 -0.3998 -0.2873
  272MOL0     C36617   6.361   8.164   0.785 -1.4398  0.6010 -0.1196
  272MOL0     C36618   6.431   8.284   0.824 -1.2205  0.6662  0.4939
  272MOL0     C36619   6.376   8.403   0.776 -0.4319  1.1519 -0.1370
  272MOL0     C36620   6.247   8.405   0.703 -0.4323 -0.2903 -0.2235
  272MOL0     O36621   6.182   8.518   0.667 -0.6472  0.2523 -0.2891
  272MOL0     C36622   6.167   8.615   0.774  1.0326 -0.0716 -0.7304
  272MOL0     C36623   6.073   8.721   0.732  0.8393  0.6553 -0.0256
  272MOL0     C36624   6.052   8.827   0.830  0.5127 -0.5502  0.0674
  272MOL0     C36625   6.148   8.942   0.812 -0.5939 -0.9682  0.2759
  272MOL0     C36626   6.114   9.074   0.884 -0.0060 -0.5542 -0.6817
  272MOL0     C36627   5.983   9.148   0.856 -0.2329 -0.2867 -0.5512
  272MOL0     C36628   5.952   9.254   0.961  0.0036 -0.6600 -0.2449
  272MOL0     C36629   5.885   9.377   0.897 -0.5975 -0.1538  0.5524
  272MOL0    Cl36630   5.729   9.321   0.850  0.2313 -0.8817  0.1183
  272MOL0     C36631   6.186   8.278   0.678  1.3281 -1.5136  0.8556
  272MOL0     C36632   6.246   8.157   0.717 -0.8759  0.5743 -1.7692
  272MOL0     O36633   6.449   7.960   0.615  0.2251 -0.2725  0.2439
  272MOL0     C36634   6.651   7.781   0.706  0.0763 -0.7448 -0.0240
  272MOL0     C36635   6.720   7.676   0.748 -0.1219 -0.2743 -0.3612
  272MOL0     N36636   7.243   6.992   0.763  0.5739 -0.1259  1.1119
  272MOL0     N36637   7.189   6.906   0.671 -0.7819  0.6468  0.2348
  272MOL0     C36638   6.717   7.363   1.239 -0.4196  1.2469  0.1763
  272MOL0     C36639   6.691   7.446   1.353 -0.4196  0.3816  0.8347
  272MOL0     C36640   6.742   7.607   1.767  0.3263 -0.3404 -0.0156
  272MOL0     C36641   6.613   7.667   1.797 -1.0186  0.5457  0.2331
  272MOL0     C36642   6.598   7.765   1.898 -0.3027 -0.1861 -0.0749
  272MOL0     C36643   6.704   7.811   1.976 -0.5037  0.6800  0.7240
  272MOL0     O36644   6.687   7.900   2.073 -0.3073  0.0979  0.3093
  272MOL0     C36645   6.699   7.852   2.204 -0.3006 -0.4487  0.6366
  272MOL0     C36646   6.562   7.815   2.263  0.4614  0.5834  0.2470
  272MOL0     C36647   6.581   7.728   2.393 -0.7282  0.3427  0.1107
  272MOL0     C36648   6.619   7.811   2.520 -0.0436 -0.3448  0.1640
  272MOL0     C36649   6.766   7.817   2.520 -0.0595 -1.0588 -0.1923
  272MOL0     C36650   6.883   7.856   2.528 -0.3490  0.2766 -0.3287
  272MOL0     C36651   6.825   7.765   1.941 -0.8147 -0.8681  0.4397
  272MOL0     C36652   6.848   7.661   1.838  0.7758  0.0448 -1.0620
  272MOL0     H36653   6.759   7.202   1.590 -2.2588 -5.8315 -2.4123
  272MOL0     H36654   6.763   7.067   1.407 -5.0982 -0.7112 -2.5001
  272MOL0     H36655   6.823   6.969   1.166  2.8006  0.9441 -2.9690
  272MOL0     H36656   6.648   6.994   1.234  0.0826  4.5053 -0.2648
  272MOL0     H36657   6.570   7.005   1.008  1.4359  2.1137 -0.4587
  272MOL0     H36658   6.741   6.973   0.943  1.6812 -1.4952  0.6169
  272MOL0     H36659   6.611   6.771   1.135  0.5562 -4.4636 -0.4898
  272MOL0     H36660   6.554   6.773   0.967 -0.8540  1.6713 -0.1689
  272MOL0     H36661   6.843   6.758   1.061  0.8602  0.3686 -1.0399
  272MOL0     H36662   6.749   6.614   1.028  0.4888 -0.0180  0.5732
  272MOL0     H36663   6.699   6.679   0.786  0.2447  1.7084  0.0184
  272MOL0     H36664   6.775   6.829   0.803 -2.1495  0.8887  0.2384
  272MOL0     H36665   6.983   6.730   0.867 -0.6509 -0.3819 -0.1477
  272MOL0     H36666   6.932   6.566   0.844  0.4619  1.3282  1.5719
  272MOL0     H36667   7.059   6.631   0.648 -0.1072 -0.3768 -4.1629
  272MOL0     H36668   6.883   6.620   0.599 -1.9403 -0.4833  3.2927
  272MOL0     H36669   6.871   6.865   0.605  1.1198  0.4608  0.8520
  272MOL0     H36670   6.999   6.808   0.501 -2.1308 -0.0284 -0.8095
  272MOL0     H36671   6.924   7.040   0.816  2.1615  0.6556  1.0423
  272MOL0     H36672   7.043   7.144   0.992 -4.2912  2.9835 -3.5904
  272MOL0     H36673   7.218   7.176   0.973  0.5261  0.0872 -1.2190
  272MOL0     H36674   7.019   7.283   0.763  3.2247 -1.5456 -0.7370
  272MOL0     H36675   7.178   7.345   0.837  1.1875 -0.0034  3.6085
  272MOL0     H36676   7.057   7.444   1.016 -2.8921  3.8826 -0.1343
  272MOL0     H36677   6.916   7.333   1.006 -2.4002  1.8906 -2.1683
  272MOL0     H36678   6.863   7.436   0.785  0.2765 -2.2128  1.9968
  272MOL0     H36679   6.989   7.553   0.808  1.4510 -0.1538  1.1687
  272MOL0     H36680   6.616   7.646   1.068  1.4529 -2.0513 -0.2740
  272MOL0     H36681   6.451   7.924   1.084 -3.4890  1.8481 -0.6511
  272MOL0     H36682   6.338   7.850   0.960 -0.1423 -3.8215  0.8379
  272MOL0     H36683   6.405   7.759   1.097 -0.4984 -0.4295  0.1234
  272MOL0     H36684   6.518   8.282   0.888  0.7158 -0.2988 -2.0087
  272MOL0     H36685   6.423   8.500   0.790 -1.1721  1.1867  2.7452
  272MOL0     H36686   6.127   8.562   0.861 -5.2912 -0.3340 -3.2850
  272MOL0     H36687   6.260   8.670   0.793  1.4122 -0.1730 -2.1351
  272MOL0     H36688   6.113   8.762   0.639 -0.7539 -0.0082 -1.0274
  272MOL0     H36689   5.978   8.670   0.714  1.6908 -0.2403 -2.4587
  272MOL0     H36690   6.053   8.787   0.931 -2.5435  0.4884  0.6109
  272MOL0     H36691   5.948   8.859   0.828  0.5523 -0.1796  2.1161
  272MOL0     H36692   6.247   8.906   0.841  1.0427  2.8816  0.0949
  272MOL0     H36693   6.150   8.963   0.704 -0.4133 -2.1759  0.0248
  272MOL0     H36694   6.187   9.155   0.875 -0.7524  0.5183  2.0076
  272MOL0     H36695   6.126   9.054   0.991  3.0000 -1.0452 -1.0207
  272MOL0     H36696   5.995   9.208   0.765  2.7750  1.3621  0.7762
  272MOL0     H36697   5.903   9.074   0.850 -2.0633  1.5152  0.4504
  272MOL0     H36698   6.033   9.295   1.022  1.2270  0.4735 -2.5304
  272MOL0     H36699   5.888   9.208   1.037  0.4648 -1.0755 -0.1008
  272MOL0     H36700   5.935   9.403   0.804  4.6168  1.5235  3.3869
  272MOL0     H36701   5.872   9.471   0.953 -1.2351 -0.2864  0.6409
  272MOL0     H36702   6.094   8.267   0.622  1.8569 -0.1023 -0.3573
  272MOL0     H36703   6.218   8.060   0.675 -0.5718 -0.1578 -0.3570
  272MOL0     H36704   6.662   7.817   0.605  0.0983  0.5933  0.4320
  272MOL0     H36705   6.798   7.657   0.674 -1.1472  3.0395 -2.5108
  272MOL0     H36706   6.704   7.409   1.142  1.9583  0.4429 -0.5878
  272MOL0     H36707   6.660   7.548   1.332  0.3058  0.1895 -1.5961
  272MOL0     H36708   6.521   7.625   1.755 -1.2813 -1.3900  2.5468
  272MOL0     H36709   6.493   7.785   1.919 -0.6698 -3.2733  1.5781
  272MOL0     H36710   6.762   7.762   2.201  1.0772  0.4623  1.0974
  272MOL0     H36711   6.754   7.920   2.270 -0.8144 -0.1947  0.8038
  272MOL0     H36712   6.507   7.749   2.195 -0.9651  1.2783  0.6980
  272MOL0     H36713   6.518   7.915   2.260  1.0262  0.8122 -1.2235
  272MOL0     H36714   6.630   7.632   2.375 -2.5956 -0.9113  1.2886
  272MOL0     H36715   6.483   7.691   2.428 -0.0069 -3.5048 -1.4624
  272MOL0     H36716   6.589   7.750   2.605  1.8145 -3.7939 -1.4638
  272MOL0     H36717   6.574   7.911   2.520 -1.0336 -0.7681  1.1792
  272MOL0     H36718   6.986   7.873   2.549 -0.0815 -3.6224  2.3858
  272MOL0     H36719   6.912   7.812   1.986 -1.3027 -1.0823  1.6420
  272MOL0     H36720   6.954   7.636   1.834  1.4051  2.5845 -1.9448
  273MOL0     O36721   2.231   9.955   0.710  0.0348 -0.2287 -1.0869
  273MOL0     C36722   2.247  10.032   0.805 -0.6215 -0.1977 -0.4404
  273MOL0     O36723   2.308   9.998   0.925  0.4165  0.5242  0.0423
  273MOL0     C36724   2.362   9.867   0.920  0.1090 -1.5889 -0.3400
  273MOL0     C36725   2.497   9.858   0.937 -0.3904 -0.2190 -0.1175
  273MOL0     C36726   2.556   9.723   0.949 -0.1846  0.1913 -0.5522
  273MOL0     C36727   2.476   9.604   0.943 -0.2026  0.2212  0.9670
  273MOL0     O36728   2.537   9.487   0.958 -0.1845 -0.0843  0.1206
  273MOL0     C36729   2.469   9.367   0.911  0.7347  0.3410 -0.0215
  273MOL0     C36730   2.573   9.259   0.887  0.2728  0.1595  0.2578
  273MOL0     C36731   2.546   9.170   0.757 -0.5971  0.2866 -0.1691
  273MOL0     C36732   2.675   9.101   0.717  0.7943  0.9761  0.3331
  273MOL0     C36733   2.705   8.977   0.807 -0.4754  0.1147 -0.4377
  273MOL0     C36734   2.586   8.881   0.791  0.5638  0.2186 -0.9859
  273MOL0     C36735   2.653   8.757   0.854 -0.2102 -0.4320  0.6574
  273MOL0     C36736   2.594   8.614   0.814 -0.2512  0.2824 -1.0542
  273MOL0     N36737   2.454   8.615   0.781 -0.1461 -0.7454 -0.5082
  273MOL0     C36738   2.400   8.623   0.653 -0.7437 -0.1117  0.7057
  273MOL0     C36739   2.271   8.651   0.667  0.2960  0.6365 -0.9863
  273MOL0     C36740   2.164   8.644   0.562  0.9349 -0.1206  1.1817
  273MOL0     C36741   2.135   8.502   0.508 -0.1410  0.7976  0.1059
  273MOL0     C36742   2.138   8.475   0.357  0.1078 -0.2049  0.1714
  273MOL0     C36743   2.030   8.543   0.278 -0.2587  1.3011 -0.5051
  273MOL0     O36744   1.909   8.481   0.317  0.7589 -0.1219 -0.0922
  273MOL0     C36745   1.817   8.497   0.214 -0.6834 -0.4638 -0.1392
  273MOL0     C36746   1.807   8.605   0.136 -0.2787  0.0113 -0.1882
  273MOL0     C36747   1.721   8.604   0.020  0.0983  0.2822 -0.1289
  273MOL0     C36748   1.748   8.733  -0.052  0.2200  0.5613  0.5138
  273MOL0     C36749   1.646   8.489  -0.013 -0.6934  0.8386  0.1083
  273MOL0     C36750   1.568   8.471  -0.136  0.4209 -0.1319  0.1738
  273MOL0     O36751   1.576   8.565  -0.228 -0.0819 -0.1892 -0.3059
  273MOL0     C36752   1.484   8.546  -0.330  0.0394  0.0295 -0.1311
  273MOL0     C36753   1.357   8.606  -0.313  0.3207 -0.3862 -1.1999
  273MOL0     C36754   1.263   8.620  -0.413  1.1021  0.2182 -0.1999
  273MOL0     C36755   1.287   8.573  -0.543  0.5899  0.2860 -0.7429
  273MOL0     O36756   1.182   8.577  -0.635 -0.2099 -0.3888  1.0343
  273MOL0     C36757   1.214   8.523  -0.760 -0.2186 -1.3534 -0.0795
  273MOL0     C36758   1.179   8.379  -0.769 -0.9919 -0.0093  0.6795
  273MOL0     C36759   1.031   8.344  -0.745 -0.0342 -0.7629 -0.3054
  273MOL0     C36760   1.022   8.195  -0.766 -1.0707 -0.0143 -0.6045
  273MOL0     C36761   0.881   8.141  -0.718 -2.0031 -0.2484  0.4869
  273MOL0     C36762   0.889   8.094  -0.569 -0.3065  0.1909  0.2058
  273MOL0     C36763   0.750   8.094  -0.496 -0.8557 -0.2718 -0.1162
  273MOL0     C36764   0.651   8.007  -0.576  0.3604  0.2430 -0.7436
  273MOL0    Cl36765   0.710   7.842  -0.586 -0.0708  0.2168  0.4750
  273MOL0     C36766   1.412   8.502  -0.556 -0.3505  0.9405 -0.7702
  273MOL0     C36767   1.513   8.502  -0.456  0.1925  0.0914 -0.6055
  273MOL0     O36768   1.491   8.378  -0.134  0.5608 -0.8002  0.5255
  273MOL0     C36769   1.667   8.377   0.071  0.5951 -0.6154  0.0188
  273MOL0     C36770   1.741   8.386   0.190  0.7450  0.2997 -0.7918
  273MOL0     N36771   2.245   8.669   0.796 -0.0536 -1.3767  0.4514
  273MOL0     N36772   2.349   8.627   0.871 -0.1416  0.0672  0.5159
  273MOL0     C36773   2.334   9.626   0.942 -0.7591  0.0874  0.1672
  273MOL0     C36774   2.287   9.751   0.935 -0.3261  0.7652  0.6890
  273MOL0     C36775   2.186  10.170   0.778 -0.0276  0.2817 -0.0259
  273MOL0     C36776   2.175  10.226   0.652  0.7674  0.1420 -0.8389
  273MOL0     C36777   2.144  10.354   0.632 -0.4211  0.1103 -0.0590
  273MOL0     C36778   2.091  10.441   0.732  0.3712  0.0237  0.0428
  273MOL0     O36779   2.057  10.576   0.720 -0.4782  0.2965 -0.0050
  273MOL0     C36780   2.109  10.646   0.611  0.0501  0.4836  0.0333
  273MOL0     C36781   2.100  10.792   0.648  0.1985 -0.9178  0.0035
  273MOL0     C36782   2.141  10.878   0.528 -0.0354  0.3801  0.1856
  273MOL0     C36783   2.214  11.012   0.568 -0.4001  0.3767 -0.0982
  273MOL0     C36784   2.356  10.999   0.555 -0.8025 -0.4799  0.1191
  273MOL0     C36785   2.475  10.980   0.529 -0.4229 -0.2892  0.3964
  273MOL0     C36786   2.093  10.390   0.861  0.6417 -0.2168 -0.4888
  273MOL0     C36787   2.148  10.259   0.874  0.4040  0.6365 -0.7866
  273MOL0     H36788   2.558   9.947   0.940  0.6792 -0.9677  2.0337
  273MOL0     H36789   2.660   9.706   0.972 -0.4747 -2.6379 -0.9095
  273MOL0     H36790   2.380   9.329   0.963  0.5549 -1.8159 -1.7308
  273MOL0     H36791   2.430   9.385   0.810  1.1838 -0.2514 -0.3072
  273MOL0     H36792   2.667   9.310   0.866 -1.4567  3.1716 -0.7684
  273MOL0     H36793   2.579   9.208   0.983  0.2028 -1.9868 -0.8050
  273MOL0     H36794   2.461   9.102   0.760  0.6319 -1.3190 -0.7609
  273MOL0     H36795   2.519   9.238   0.675 -0.2301 -0.1707 -0.6729
  273MOL0     H36796   2.665   9.064   0.614 -0.4373  2.3874 -0.0908
  273MOL0     H36797   2.757   9.173   0.717 -0.1914  2.1405 -0.9490
  273MOL0     H36798   2.798   8.932   0.772 -0.5360  1.5141 -2.6315
  273MOL0     H36799   2.730   9.005   0.909 -0.8219  2.4879 -0.9329
  273MOL0     H36800   2.494   8.907   0.843 -1.1604  1.9167 -4.5153
  273MOL0     H36801   2.565   8.859   0.686 -0.3484 -0.5957 -0.6479
  273MOL0     H36802   2.762   8.751   0.847 -0.3616 -1.3591 -2.5672
  273MOL0     H36803   2.623   8.768   0.959  0.9665  0.9252  0.8912
  273MOL0     H36804   2.617   8.544   0.894  1.0169  1.2182 -0.5602
  273MOL0     H36805   2.659   8.581   0.733 -0.9330 -3.6335 -0.2066
  273MOL0     H36806   2.455   8.589   0.566 -1.0377 -2.7834  1.4652
  273MOL0     H36807   2.077   8.672   0.622 -0.6437 -2.5149  0.1882
  273MOL0     H36808   2.170   8.720   0.484 -2.0926  0.8605  1.7739
  273MOL0     H36809   2.048   8.453   0.552  1.1639 -1.3289  0.4883
  273MOL0     H36810   2.221   8.443   0.543 -0.6899  1.4859  2.8545
  273MOL0     H36811   2.130   8.367   0.340  2.0744 -0.3507 -0.0217
  273MOL0     H36812   2.232   8.515   0.318 -0.5617  1.4487  0.2032
  273MOL0     H36813   2.044   8.527   0.171 -0.3065 -0.0615 -0.3265
  273MOL0     H36814   2.038   8.650   0.301  0.0218  1.1261  0.2762
  273MOL0     H36815   1.867   8.693   0.158 -2.6287  1.6843 -0.0716
  273MOL0     H36816   1.800   8.703  -0.144 -1.6785 -1.9059  0.1166
  273MOL0     H36817   1.657   8.785  -0.084  0.9040  1.6363  0.2705
  273MOL0     H36818   1.804   8.812  -0.001  0.7389  0.7408 -0.3067
  273MOL0     H36819   1.323   8.646  -0.219 -0.9752 -1.6107 -1.1256
  273MOL0     H36820   1.166   8.658  -0.386  0.2750  0.1668 -2.8315
  273MOL0     H36821   1.149   8.569  -0.835 -3.5237 -0.2117  3.1822
  273MOL0     H36822   1.318   8.547  -0.785 -0.2660 -1.7387 -0.6826
  273MOL0     H36823   1.214   8.338  -0.865  1.2096 -1.0386  1.8613
  273MOL0     H36824   1.247   8.338  -0.694 -1.0259  2.1675  1.9788
  273MOL0     H36825   0.968   8.407  -0.809  1.0533  0.8876  0.1953
  273MOL0     H36826   1.008   8.355  -0.639  2.5296 -1.5780  0.4252
  273MOL0     H36827   1.027   8.164  -0.871 -2.3101 -1.0745 -0.3870
  273MOL0     H36828   1.101   8.135  -0.721  0.3759  1.4163 -1.1655
  273MOL0     H36829   0.847   8.053  -0.773  0.8702 -0.6139 -0.8782
  273MOL0     H36830   0.813   8.225  -0.737 -1.7774  0.2105  1.6013
  273MOL0     H36831   0.932   7.994  -0.561  0.5340  0.1924 -2.9511
  273MOL0     H36832   0.948   8.166  -0.511  0.2299  0.2749 -0.4224
  273MOL0     H36833   0.720   8.196  -0.470  0.2267 -0.2639  1.2463
  273MOL0     H36834   0.772   8.042  -0.402  4.2614  1.6280  0.0965
  273MOL0     H36835   0.637   8.042  -0.678  0.6771 -1.4378 -1.3908
  273MOL0     H36836   0.558   8.011  -0.518  0.3262 -1.5967 -0.6144
  273MOL0     H36837   1.439   8.445  -0.644  2.7956 -1.2794  1.3818
  273MOL0     H36838   1.611   8.458  -0.472 -0.4316 -0.6909 -2.5560
  273MOL0     H36839   1.622   8.280   0.057  0.5804 -0.4951 -0.8278
  273MOL0     H36840   1.758   8.301   0.255  0.4800  0.3450 -0.6617
  273MOL0     H36841   2.274   9.537   0.958  1.4708 -1.5635 -0.2453
  273MOL0     H36842   2.178   9.755   0.939 -0.6942 -4.1503  2.5677
  273MOL0     H36843   2.193  10.162   0.566 -1.3203  0.4821 -1.5807
  273MOL0     H36844   2.157  10.402   0.535  0.2340  0.0125 -0.0299
  273MOL0     H36845   2.204  10.597   0.589 -0.1031 -0.2606  0.9574
  273MOL0     H36846   2.036  10.628   0.531 -2.4425  0.3329  2.2162
  273MOL0     H36847   2.163  10.809   0.735 -2.1767 -3.1931  2.3480
  273MOL0     H36848   2.002  10.828   0.682  1.4962  1.7784  1.2158
  273MOL0     H36849   2.054  10.922   0.479 -1.6043 -0.1020  2.3806
  273MOL0     H36850   2.209  10.824   0.461 -0.5748  0.0815 -0.1262
  273MOL0     H36851   2.194  11.041   0.672 -0.9801 -0.8657  0.1522
  273MOL0     H36852   2.186  11.088   0.495 -2.9010 -0.5309 -0.1516
  273MOL0     H36853   2.580  10.967   0.513 -0.9454 -3.6181 -1.0868
  273MOL0     H36854   2.074  10.449   0.950 -2.3405 -0.5906 -0.7758
  273MOL0     H36855   2.172  10.218   0.971 -1.0314  2.4265  0.3865
  274MOL0     O36856   2.055   8.160   0.129  0.1941  0.5520 -0.1823
  274MOL0     C36857   2.058   8.241   0.036  0.1415  0.0309  0.3602
  274MOL0     O36858   2.152   8.335   0.019  0.4424  0.2055 -0.0854
  274MOL0     C36859   2.277   8.335   0.076 -0.9184 -1.3516  0.8031
  274MOL0     C36860   2.355   8.455   0.071  0.9307 -0.0578 -0.0597
  274MOL0     C36861   2.480   8.455   0.125 -0.1855 -0.8790 -0.2416
  274MOL0     C36862   2.544   8.337   0.165 -0.0774 -0.6423  0.0245
  274MOL0     O36863   2.678   8.347   0.197  0.0642 -0.8281  0.0952
  274MOL0     C36864   2.749   8.228   0.165  0.4689 -1.2740  0.2934
  274MOL0     C36865   2.887   8.257   0.190  0.6531 -0.0322  0.5931
  274MOL0     C36866   2.914   8.274   0.335  0.2175  1.4843 -1.5858
  274MOL0     C36867   3.063   8.273   0.362 -0.0895 -0.5244  0.7701
  274MOL0     C36868   3.092   8.293   0.506  0.9187  0.5096 -0.1951
  274MOL0     C36869   3.029   8.414   0.579  0.2004  0.0382  0.0710
  274MOL0     C36870   3.105   8.547   0.553 -0.4221  0.2274  0.8019
  274MOL0     C36871   3.032   8.669   0.619 -0.9506 -0.1336 -0.3683
  274MOL0     N36872   2.910   8.703   0.541 -0.4496 -0.1554 -0.3260
  274MOL0     C36873   2.910   8.814   0.461 -0.8665  0.6819 -0.4086
  274MOL0     C36874   2.778   8.832   0.430 -0.1551  0.5612 -0.4388
  274MOL0     C36875   2.723   8.934   0.333 -0.3328 -0.4087 -0.0758
  274MOL0     C36876   2.591   8.875   0.277 -0.9804  1.2781  0.8231
  274MOL0     C36877   2.506   8.979   0.200  0.4247  1.0769  0.2019
  274MOL0     C36878   2.452   9.092   0.285  0.9347  0.1483 -0.3340
  274MOL0     O36879   2.411   9.023   0.408  0.3174 -0.0751 -0.4804
  274MOL0     C36880   2.278   8.991   0.419  0.3024  0.1649 -0.2426
  274MOL0     C36881   2.240   8.996   0.550 -0.2061 -0.3787 -0.0973
  274MOL0     C36882   2.111   8.982   0.599  0.2255 -0.0003  0.3572
  274MOL0     C36883   2.079   9.017   0.741  0.3075 -0.5135 -0.6189
  274MOL0     C36884   2.012   8.933   0.502  1.3982  0.7883  0.0831
  274MOL0     C36885   1.874   8.933   0.541  0.0063  0.2830 -0.0708
  274MOL0     O36886   1.846   8.858   0.655 -0.6217 -0.3334 -0.1296
  274MOL0     C36887   1.726   8.892   0.718  0.2274  0.0769  0.3185
  274MOL0     C36888   1.631   8.794   0.711 -0.2547  0.2745  0.6493
  274MOL0     C36889   1.512   8.807   0.779 -0.7562  0.7304  1.3442
  274MOL0     C36890   1.483   8.923   0.852  0.7262  0.6503 -0.5205
  274MOL0     O36891   1.372   8.935   0.937 -0.6340 -0.5112  0.2751
  274MOL0     C36892   1.255   8.862   0.912  0.2984 -0.0485 -0.2810
  274MOL0     C36893   1.132   8.902   0.994  0.2948  0.4028  0.1461
  274MOL0     C36894   1.143   8.885   1.149 -0.1971  0.3598  0.6522
  274MOL0     C36895   1.218   8.998   1.225 -0.0736 -0.1449 -0.6072
  274MOL0     C36896   1.255   8.960   1.380 -0.0510  0.3790  0.9314
  274MOL0     C36897   1.339   9.065   1.447 -0.4458 -0.4985 -0.9270
  274MOL0     C36898   1.431   9.017   1.558 -0.4049  0.3660 -0.7383
  274MOL0     C36899   1.517   9.133   1.596  0.0697  0.4305  0.4489
  274MOL0    Cl36900   1.418   9.263   1.664  0.0681  0.0050  0.2937
  274MOL0     C36901   1.582   9.026   0.854  0.0148  0.5372  0.6089
  274MOL0     C36902   1.705   9.006   0.780  0.4947 -0.2949 -0.4177
  274MOL0     O36903   1.791   8.975   0.460 -1.1074  0.1503  0.4262
  274MOL0     C36904   2.042   8.938   0.364  0.5104 -0.4340 -0.7397
  274MOL0     C36905   2.174   8.961   0.321 -0.1422 -0.6969  0.4245
  274MOL0     N36906   2.702   8.747   0.519 -1.0362  0.0640  0.1598
  274MOL0     N36907   2.787   8.674   0.574  0.6675  0.3776 -0.4174
  274MOL0     C36908   2.465   8.217   0.161  0.7478 -0.4811  0.8450
  274MOL0     C36909   2.344   8.222   0.108 -0.1065 -0.2695  0.1045
  274MOL0     C36910   1.939   8.230  -0.058  0.3754 -0.5635 -0.6330
  274MOL0     C36911   1.863   8.116  -0.067 -0.1390 -0.2536  1.1953
  274MOL0     C36912   1.761   8.104  -0.160  0.3814 -0.3347 -0.5083
  274MOL0     C36913   1.736   8.197  -0.257  1.1904  0.0523 -0.3603
  274MOL0     O36914   1.646   8.190  -0.362  0.5765  0.1391  0.6820
  274MOL0     C36915   1.549   8.073  -0.377  0.0542  0.8441 -0.2172
  274MOL0     C36916   1.434   8.077  -0.286 -0.7719  0.9335  0.2239
  274MOL0     C36917   1.319   8.165  -0.343 -0.4301  0.5636  0.7539
  274MOL0     C36918   1.210   8.185  -0.236 -0.4897  0.0487  0.7312
  274MOL0     C36919   1.095   8.266  -0.279 -0.0548 -0.2907  0.7286
  274MOL0     C36920   1.007   8.341  -0.327 -0.3760  0.0787 -0.2007
  274MOL0     C36921   1.814   8.317  -0.244  0.2081  0.0150 -0.2217
  274MOL0     C36922   1.909   8.335  -0.145  0.7241 -0.9331 -0.6630
  274MOL0     H36923   2.310   8.547   0.037 -1.1008 -0.5879  1.0266
  274MOL0     H36924   2.537   8.547   0.121  1.1451 -1.5864  1.2244
  274MOL0     H36925   2.727   8.143   0.231  1.1017 -2.2968 -0.7785
  274MOL0     H36926   2.742   8.205   0.059 -2.7489 -1.1419  0.3687
  274MOL0     H36927   2.942   8.172   0.150 -0.4033  1.1562 -3.8981
  274MOL0     H36928   2.918   8.346   0.134  1.0912  0.3684  1.4531
  274MOL0     H36929   2.872   8.371   0.362  0.1729  1.7498 -2.5774
  274MOL0     H36930   2.865   8.189   0.383  0.8152 -0.6039 -4.4020
  274MOL0     H36931   3.110   8.186   0.315 -1.8962 -1.3744  0.4331
  274MOL0     H36932   3.106   8.362   0.316  0.9603  0.5266  3.5660
  274MOL0     H36933   3.049   8.209   0.561 -1.1919 -0.1158 -2.6104
  274MOL0     H36934   3.200   8.291   0.526  0.8198 -0.3878  0.3477
  274MOL0     H36935   2.924   8.435   0.557  0.9523  4.5569 -0.0307
  274MOL0     H36936   3.035   8.393   0.686 -3.2482 -2.3299 -0.0439
  274MOL0     H36937   3.210   8.540   0.583 -0.0568  3.3812  0.6740
  274MOL0     H36938   3.100   8.561   0.444  0.6405 -2.1870  0.3862
  274MOL0     H36939   3.099   8.756   0.621 -0.1088 -0.6771 -2.7246
  274MOL0     H36940   3.008   8.635   0.720  0.2960 -2.0461 -0.6759
  274MOL0     H36941   2.987   8.886   0.433 -0.7776  0.6029 -0.3633
  274MOL0     H36942   2.710   9.033   0.377 -3.2843 -0.3783 -0.7908
  274MOL0     H36943   2.792   8.940   0.248 -1.8727  0.2114 -1.3472
  274MOL0     H36944   2.543   8.819   0.358 -1.8177  0.2523 -0.3414
  274MOL0     H36945   2.616   8.792   0.209  0.5953  1.8807  0.6289
  274MOL0     H36946   2.411   8.942   0.160  0.1557  3.3644 -1.5156
  274MOL0     H36947   2.564   9.029   0.122 -2.7844  0.4826 -2.8458
  274MOL0     H36948   2.368   9.137   0.233 -0.9630 -0.3649  2.1290
  274MOL0     H36949   2.533   9.166   0.293  1.9883 -0.9942 -0.0063
  274MOL0     H36950   2.321   9.031   0.613 -1.2680  3.1952 -0.5394
  274MOL0     H36951   2.156   9.077   0.792 -0.3055 -0.5441  0.3541
  274MOL0     H36952   1.988   9.076   0.727 -1.2835 -2.0396  2.3552
  274MOL0     H36953   2.060   8.932   0.807  1.4130 -0.1056  0.2747
  274MOL0     H36954   1.654   8.709   0.649  1.7639 -0.4036  2.2240
  274MOL0     H36955   1.436   8.731   0.767  0.2468 -0.0382 -0.6065
  274MOL0     H36956   1.237   8.857   0.804  2.9838 -2.0740 -0.7597
  274MOL0     H36957   1.288   8.764   0.947 -3.2163 -3.2201 -4.6690
  274MOL0     H36958   1.120   9.010   0.987 -0.8599  0.5616  3.1522
  274MOL0     H36959   1.037   8.858   0.960  0.6411  0.0461 -0.3644
  274MOL0     H36960   1.189   8.788   1.171 -1.4756 -0.0681  1.5684
  274MOL0     H36961   1.043   8.886   1.193 -0.0465  5.0418  1.3910
  274MOL0     H36962   1.309   9.023   1.169 -0.5978  0.4817 -1.1906
  274MOL0     H36963   1.152   9.083   1.207 -0.1593 -0.3567 -1.2991
  274MOL0     H36964   1.306   8.863   1.375 -1.6951 -0.4747 -0.7612
  274MOL0     H36965   1.168   8.938   1.443  1.1420 -1.6020  2.0082
  274MOL0     H36966   1.387   9.127   1.370  1.7549 -1.1820 -0.1779
  274MOL0     H36967   1.265   9.132   1.491  0.7987  0.6780 -0.5437
  274MOL0     H36968   1.490   8.927   1.538 -1.2552 -0.2341 -0.6132
  274MOL0     H36969   1.380   8.990   1.651  3.1294 -0.9362  0.9860
  274MOL0     H36970   1.578   9.173   1.515  0.5019 -1.3714 -0.1745
  274MOL0     H36971   1.591   9.109   1.673  0.3442 -2.3439 -0.5740
  274MOL0     H36972   1.556   9.113   0.913  0.3099  1.5283 -0.6840
  274MOL0     H36973   1.785   9.076   0.801  1.0412 -1.1979  0.6021
  274MOL0     H36974   1.966   8.907   0.293 -0.1884 -0.2305 -0.0819
  274MOL0     H36975   2.204   8.958   0.217 -1.9717 -1.5108 -0.1119
  274MOL0     H36976   2.519   8.124   0.174 -0.1565 -0.9047  1.7211
  274MOL0     H36977   2.308   8.121   0.088 -2.1883  0.6463 -0.9982
  274MOL0     H36978   1.886   8.032  -0.002  0.6999 -0.6754  0.3823
  274MOL0     H36979   1.699   8.017  -0.143 -2.8339  1.6453 -1.1564
  274MOL0     H36980   1.523   8.061  -0.482  2.2698 -1.5797 -0.5652
  274MOL0     H36981   1.619   7.990  -0.368  1.0098  1.7655  1.4002
  274MOL0     H36982   1.468   8.128  -0.195  1.1860  2.2514 -1.1693
  274MOL0     H36983   1.402   7.974  -0.262 -0.1730  0.5225 -0.7077
  274MOL0     H36984   1.277   8.129  -0.437 -0.5634 -2.7604  1.9364
  274MOL0     H36985   1.363   8.264  -0.353  0.0320  0.1090 -2.8093
  274MOL0     H36986   1.248   8.233  -0.145 -0.9096  0.2659  0.7978
  274MOL0     H36987   1.162   8.089  -0.216  1.0025 -1.1118 -0.9797
  274MOL0     H36988   0.923   8.396  -0.364 -1.7766 -0.9304  1.3162
  274MOL0     H36989   1.788   8.392  -0.317 -1.2244 -0.9300 -0.7147
  274MOL0     H36990   1.961   8.430  -0.141 -0.6731 -0.1368 -1.0758
  275MOL0     O36991   6.694   0.375   0.619 -0.5951  0.0392 -0.2257
  275MOL0     C36992   6.721   0.411   0.499  0.4510  0.0909 -1.0368
  275MOL0     O36993   6.642   0.498   0.428  0.3513  0.8215 -0.2972
  275MOL0     C36994   6.515   0.525   0.481 -0.6551 -0.8863  0.2731
  275MOL0     C36995   6.400   0.460   0.456  0.0096 -0.3685  0.7805
  275MOL0     C36996   6.275   0.500   0.507 -0.0149  0.0218  0.7485
  275MOL0     C36997   6.266   0.619   0.581 -0.0444  0.4109 -0.3205
  275MOL0     O36998   6.137   0.642   0.627  0.3538 -1.0567 -0.2746
  275MOL0     C36999   6.133   0.699   0.757  0.5034  0.3103  0.0448
  275MOL0     C37000   5.994   0.668   0.806 -0.1749 -0.3024 -0.1100
  275MOL0     C37001   5.958   0.696   0.949 -0.4000  0.3128 -0.0278
  275MOL0     C37002   5.932   0.838   0.986  0.2683 -0.0164  0.7957
  275MOL0     C37003   5.913   0.859   1.138 -0.0016  0.0727 -0.3121
  275MOL0     C37004   5.828   0.744   1.202  0.0905  0.1883 -0.3785
  275MOL0     C37005   5.784   0.775   1.348 -0.4299  0.9998 -0.0091
  275MOL0     C37006   5.871   0.714   1.452  1.3982  0.8055 -0.2843
  275MOL0     N37007   5.993   0.790   1.501 -0.1432  0.1338  0.5795
  275MOL0     C37008   6.001   0.924   1.528  0.1957  0.0157 -0.0695
  275MOL0     C37009   6.136   0.963   1.526  1.1695  0.5707  0.2639
  275MOL0     C37010   6.179   1.111   1.539 -0.6278  1.9219  0.3168
  275MOL0     C37011   6.249   1.135   1.667  0.1915 -0.6763 -1.0233
  275MOL0     C37012   6.390   1.078   1.687 -0.5774  0.1118 -0.2502
  275MOL0     C37013   6.460   1.133   1.808 -0.0951  0.6644 -0.7163
  275MOL0     O37014   6.408   1.073   1.930 -0.4730 -0.3643  0.1181
  275MOL0     C37015   6.457   1.116   2.041 -0.1896  0.1847 -0.4806
  275MOL0     C37016   6.589   1.106   2.081  0.3187 -0.3248  0.3513
  275MOL0     C37017   6.644   1.153   2.202  0.0256  0.4931 -0.1148
  275MOL0     C37018   6.792   1.135   2.229  0.1680  0.5220 -0.0989
  275MOL0     C37019   6.557   1.227   2.285  0.5299 -0.0089  0.1205
  275MOL0     C37020   6.599   1.287   2.423 -1.0802 -0.9361  0.4305
  275MOL0     O37021   6.501   1.357   2.497 -0.3820  0.0442 -0.1848
  275MOL0     C37022   6.545   1.402   2.617  0.1733  0.8482  0.2627
  275MOL0     C37023   6.576   1.320   2.721 -0.4429 -0.7014  1.0988
  275MOL0     C37024   6.618   1.389   2.837 -0.3900 -0.4062 -0.2066
  275MOL0     C37025   6.640   1.531   2.850  0.3997 -0.1571  0.5551
  275MOL0     O37026   6.659   1.591   2.974  0.1040  0.1385  0.5055
  275MOL0     C37027   6.791   1.641   2.978 -0.1382  0.1686  1.0763
  275MOL0     C37028   6.834   1.671   3.120  0.2925 -0.3041  0.2671
  275MOL0     C37029   6.840   1.552   3.220 -0.5368 -0.3308 -0.0468
  275MOL0     C37030   6.974   1.518   3.272 -0.1699 -0.2350  0.4442
  275MOL0     C37031   6.965   1.408   3.379  0.6494 -1.0257 -0.0856
  275MOL0     C37032   7.096   1.400   3.456  0.8910 -0.1393  0.2292
  275MOL0     C37033   7.109   1.280   3.543 -0.4670 -0.4275 -0.6339
  275MOL0     C37034   7.227   1.294   3.633  0.3632  1.1196  0.1414
  275MOL0    Cl37035   7.204   1.446   3.734 -0.1445  0.3152 -0.3650
  275MOL0     C37036   6.611   1.602   2.736  0.1408  0.3325 -0.4951
  275MOL0     C37037   6.566   1.542   2.622 -0.9647  0.2592 -0.6905
  275MOL0     O37038   6.722   1.284   2.449  0.3854 -1.0829  0.3288
  275MOL0     C37039   6.421   1.246   2.233 -0.2538  0.1609 -0.1708
  275MOL0     C37040   6.373   1.198   2.108  0.6322  0.7654 -0.3358
  275MOL0     N37041   6.210   0.848   1.489 -0.2103 -0.1957 -0.3262
  275MOL0     N37042   6.126   0.748   1.479  0.5548  0.0590  0.0464
  275MOL0     C37043   6.387   0.695   0.609  0.0714 -1.0630  0.2940
  275MOL0     C37044   6.504   0.644   0.558  0.5538 -0.5181  0.5316
  275MOL0     C37045   6.848   0.368   0.436 -0.4936 -0.8867 -0.6254
  275MOL0     C37046   6.864   0.348   0.305 -0.0753  0.0022  0.6271
  275MOL0     C37047   6.977   0.349   0.237 -0.6826  0.3909  0.3246
  275MOL0     C37048   7.104   0.364   0.303  0.0660  0.3217  0.1057
  275MOL0     O37049   7.216   0.349   0.224 -0.5348 -0.7078 -0.6371
  275MOL0     C37050   7.350   0.364   0.276  0.2001  0.3940  1.1153
  275MOL0     C37051   7.393   0.517   0.256  0.2058  0.1603 -0.0410
  275MOL0     C37052   7.532   0.533   0.311 -0.2373 -0.2418  0.1625
  275MOL0     C37053   7.587   0.683   0.305  0.1551 -0.1370  0.2346
  275MOL0     C37054   7.733   0.676   0.313 -0.2739 -0.6848  0.3368
  275MOL0     C37055   7.855   0.664   0.322  0.1935 -0.3085  1.1014
  275MOL0     C37056   7.095   0.372   0.440 -0.0945  1.1135  0.9889
  275MOL0     C37057   6.967   0.371   0.508  0.0939 -0.1783 -0.5285
  275MOL0     H37058   6.403   0.376   0.387 -1.8790  0.1602 -0.0086
  275MOL0     H37059   6.193   0.430   0.497 -0.0512  0.1455  0.1577
  275MOL0     H37060   6.202   0.657   0.831 -0.1135 -0.6698  0.0714
  275MOL0     H37061   6.152   0.807   0.751  0.4168  0.3819  1.0150
  275MOL0     H37062   5.912   0.708   0.745 -0.2938  1.0203  0.8865
  275MOL0     H37063   5.991   0.559   0.797 -1.7339 -0.4268  1.3201
  275MOL0     H37064   5.872   0.635   0.979 -1.3141  1.4191 -0.3405
  275MOL0     H37065   6.045   0.651   0.999 -0.1384  0.0095 -0.7456
  275MOL0     H37066   6.012   0.910   0.964 -0.4475  0.8673  1.0540
  275MOL0     H37067   5.842   0.868   0.931  3.4854  2.6862 -3.6936
  275MOL0     H37068   6.009   0.849   1.190 -0.8034  0.3128  1.2629
  275MOL0     H37069   5.878   0.957   1.171 -0.0270 -0.0927  0.1641
  275MOL0     H37070   5.733   0.735   1.148 -1.1191 -0.0960  1.6866
  275MOL0     H37071   5.884   0.650   1.200 -1.5166 -1.0132  3.0573
  275MOL0     H37072   5.760   0.880   1.367 -1.3434  0.9728 -0.9391
  275MOL0     H37073   5.692   0.718   1.361  0.3744 -0.8539 -1.7817
  275MOL0     H37074   5.883   0.615   1.407 -4.3318  1.2470 -3.6917
  275MOL0     H37075   5.824   0.693   1.549  3.6018  1.2108  0.9522
  275MOL0     H37076   5.917   0.980   1.569 -0.1163 -1.1399  0.9187
  275MOL0     H37077   6.244   1.134   1.455 -1.5101 -0.3607 -1.0969
  275MOL0     H37078   6.084   1.164   1.525 -1.2855 -0.0273 -4.5370
  275MOL0     H37079   6.190   1.091   1.748  3.9770  0.7725  2.9283
  275MOL0     H37080   6.247   1.244   1.667 -1.2181 -0.6717 -0.0228
  275MOL0     H37081   6.448   1.092   1.595 -0.9709  2.4958 -0.2058
  275MOL0     H37082   6.378   0.969   1.678  0.5360  0.1402 -3.6497
  275MOL0     H37083   6.455   1.242   1.811  0.2716  0.7423 -2.1580
  275MOL0     H37084   6.567   1.113   1.814 -0.2852  0.0127  1.1473
  275MOL0     H37085   6.655   1.054   2.012  1.0401  1.9893 -0.7845
  275MOL0     H37086   6.837   1.056   2.168 -1.0940 -1.6269  1.5941
  275MOL0     H37087   6.837   1.231   2.204 -0.4919  0.9005  0.1581
  275MOL0     H37088   6.812   1.118   2.335  1.3248  1.2438 -0.1875
  275MOL0     H37089   6.564   1.212   2.713  1.9886 -0.8506 -2.6931
  275MOL0     H37090   6.625   1.337   2.932  3.5010  5.5067  3.3948
  275MOL0     H37091   6.863   1.570   2.938 -3.3486 -3.2364  0.7700
  275MOL0     H37092   6.802   1.725   2.910 -0.6656 -0.1876  0.5426
  275MOL0     H37093   6.929   1.718   3.090 -0.1621 -0.2035 -1.1007
  275MOL0     H37094   6.772   1.750   3.163  2.3253  1.2101  0.5868
  275MOL0     H37095   6.801   1.467   3.163 -0.0547 -0.2603 -0.4845
  275MOL0     H37096   6.767   1.572   3.300  1.2081 -0.8895  1.7822
  275MOL0     H37097   7.044   1.477   3.198 -1.5623 -0.5925 -0.7141
  275MOL0     H37098   7.021   1.607   3.314 -2.6803  1.1255  0.5588
  275MOL0     H37099   6.933   1.311   3.339 -1.5028 -0.0807 -0.8225
  275MOL0     H37100   6.888   1.428   3.454  4.3796  0.7380  3.6679
  275MOL0     H37101   7.181   1.391   3.388  1.9062 -0.4000  1.4851
  275MOL0     H37102   7.091   1.497   3.507 -2.3178 -1.7152  3.3808
  275MOL0     H37103   7.117   1.196   3.474  1.5659 -1.1932  0.4512
  275MOL0     H37104   7.020   1.270   3.606 -1.2938 -1.8929 -1.9597
  275MOL0     H37105   7.324   1.283   3.584 -0.6413 -1.5830 -1.4715
  275MOL0     H37106   7.223   1.207   3.700 -4.5210 -1.5846 -3.0917
  275MOL0     H37107   6.606   1.711   2.744 -3.0203  0.1979  0.9305
  275MOL0     H37108   6.545   1.597   2.531 -1.8296 -2.4676 -2.2620
  275MOL0     H37109   6.367   1.320   2.292  2.1532 -1.0985  4.0836
  275MOL0     H37110   6.274   1.220   2.069  1.1640  1.4110 -1.3435
  275MOL0     H37111   6.391   0.791   0.658 -3.9543 -0.8163  0.4542
  275MOL0     H37112   6.603   0.681   0.583  0.6674 -0.2067 -0.3502
  275MOL0     H37113   6.780   0.350   0.237  1.2288 -1.0977 -1.1038
  275MOL0     H37114   6.973   0.327   0.131  4.2489  1.9199 -0.4393
  275MOL0     H37115   7.359   0.333   0.380 -0.5446  1.8083  1.6214
  275MOL0     H37116   7.416   0.307   0.209  0.2241 -0.3695  1.7785
  275MOL0     H37117   7.325   0.591   0.299 -0.4180  2.1158 -3.9383
  275MOL0     H37118   7.391   0.541   0.149  0.7807  0.7258  0.0749
  275MOL0     H37119   7.598   0.470   0.250  0.6757 -0.3159  1.1972
  275MOL0     H37120   7.552   0.495   0.412  2.2097 -3.0600 -1.2178
  275MOL0     H37121   7.540   0.737   0.388 -0.6188 -0.5772  0.0978
  275MOL0     H37122   7.557   0.723   0.208 -0.8188 -0.7780  0.2512
  275MOL0     H37123   7.961   0.679   0.327  0.3837 -1.2092  0.0516
  275MOL0     H37124   7.185   0.363   0.500  0.9452 -1.3700 -0.7569
  275MOL0     H37125   6.976   0.366   0.616  0.9131  3.3252 -0.3132
  276MOL0     O37126   3.415  10.840   5.849 -0.1616 -0.9123  0.0860
  276MOL0     C37127   3.518  10.881   5.787  0.9330  0.0309  0.5205
  276MOL0     O37128   3.648  10.855   5.816 -0.3969  0.0948  0.3007
  276MOL0     C37129   3.681  10.776   5.923  0.2202 -0.0997  0.0813
  276MOL0     C37130   3.606  10.715   6.024 -0.5648  0.1086 -0.5391
  276MOL0     C37131   3.661  10.640   6.131  0.3385 -0.2299  0.4202
  276MOL0     C37132   3.801  10.619   6.131  0.7653 -0.3982  0.2278
  276MOL0     O37133   3.872  10.545   6.210  0.4839  0.2806  0.2539
  276MOL0     C37134   3.805  10.472   6.310  0.3250  0.2559 -0.9402
  276MOL0     C37135   3.767  10.543   6.441 -0.1919  0.6587 -0.4147
  276MOL0     C37136   3.870  10.642   6.493  0.9860  0.4252  0.1926
  276MOL0     C37137   4.017  10.581   6.498 -0.4433  0.4945 -0.6681
  276MOL0     C37138   4.122  10.691   6.525  0.3283  0.1151  0.6375
  276MOL0     C37139   4.082  10.769   6.649 -0.5407 -0.1730  0.4495
  276MOL0     C37140   4.182  10.884   6.685 -0.1164  0.2110 -1.7378
  276MOL0     C37141   4.161  10.932   6.830 -0.0569  0.0621  0.1061
  276MOL0     N37142   4.234  11.056   6.874  0.9705 -0.2591  0.4607
  276MOL0     C37143   4.215  11.105   6.999  0.0389  0.0450 -0.3391
  276MOL0     C37144   4.312  11.196   7.013  0.6223 -0.2058  0.2878
  276MOL0     C37145   4.343  11.268   7.140 -0.6080  0.3912 -0.2908
  276MOL0     C37146   4.255  11.398   7.141 -0.2733 -0.2901 -0.3626
  276MOL0     C37147   4.293  11.507   7.033  1.0370  0.1256  0.7920
  276MOL0     C37148   4.174  11.572   6.956  0.2597 -0.5018 -0.8145
  276MOL0     O37149   4.129  11.472   6.864 -0.7552  0.1147  0.4188
  276MOL0     C37150   4.003  11.488   6.815 -0.7548  0.1145 -0.7392
  276MOL0     C37151   3.985  11.463   6.682  0.9875  0.4596  1.2132
  276MOL0     C37152   3.851  11.481   6.629  0.5043  0.3756  0.0801
  276MOL0     C37153   3.825  11.469   6.482 -0.1926  0.3552  0.1057
  276MOL0     C37154   3.746  11.525   6.709  1.2363 -0.1924 -0.6823
  276MOL0     C37155   3.607  11.546   6.673  0.2819  0.1750 -0.5439
  276MOL0     O37156   3.550  11.481   6.553  0.1037 -0.0934  0.0657
  276MOL0     C37157   3.415  11.468   6.524  0.2116  0.0492  0.2956
  276MOL0     C37158   3.317  11.487   6.617 -0.9363 -0.4461  0.7741
  276MOL0     C37159   3.187  11.508   6.581 -0.1105  0.2364 -0.3270
  276MOL0     C37160   3.152  11.486   6.448 -0.4469 -0.4708 -0.7132
  276MOL0     O37161   3.028  11.496   6.400 -0.4329 -0.0912  0.9168
  276MOL0     C37162   2.909  11.498   6.486 -0.7564 -1.2453 -0.1093
  276MOL0     C37163   2.791  11.474   6.394 -0.5094  0.6875 -0.1037
  276MOL0     C37164   2.668  11.418   6.468 -0.6738  0.3714 -0.1581
  276MOL0     C37165   2.595  11.525   6.546  1.0194 -0.9233  0.4832
  276MOL0     C37166   2.502  11.605   6.448 -0.4493  0.2490  0.1892
  276MOL0     C37167   2.422  11.706   6.516 -0.0778 -1.2965 -0.0954
  276MOL0     C37168   2.348  11.780   6.403  1.2326 -1.2199  0.2736
  276MOL0     C37169   2.260  11.894   6.467  0.5471  0.7699 -0.2564
  276MOL0    Cl37170   2.127  11.825   6.575  0.0073 -0.1472  0.0256
  276MOL0     C37171   3.252  11.453   6.358  1.0204 -0.1273 -0.8810
  276MOL0     C37172   3.383  11.450   6.391  0.2179  0.3206  0.0440
  276MOL0     O37173   3.558  11.635   6.734  0.9438  0.3424 -0.5127
  276MOL0     C37174   3.770  11.552   6.846  0.2365 -0.5264  0.2899
  276MOL0     C37175   3.899  11.534   6.893  0.3627  0.0015  0.3962
  276MOL0     N37176   4.397  11.206   6.904  0.1578 -0.9405 -0.4880
  276MOL0     N37177   4.344  11.118   6.821  0.0704  0.4472 -0.2068
  276MOL0     C37178   3.882  10.681   6.038 -0.2876 -0.5514  0.0049
  276MOL0     C37179   3.822  10.753   5.933  0.8800 -0.0989  0.2702
  276MOL0     C37180   3.501  10.972   5.668  0.1316 -0.8803  0.8972
  276MOL0     C37181   3.375  11.037   5.645 -0.4342 -0.9857 -0.5466
  276MOL0     C37182   3.357  11.125   5.535 -0.4076 -0.9707 -0.4574
  276MOL0     C37183   3.470  11.144   5.447  0.8415  0.2175  0.6507
  276MOL0     O37184   3.466  11.220   5.330  0.4194  1.0265 -1.2233
  276MOL0     C37185   3.345  11.225   5.266 -0.1905 -0.9438  0.2188
  276MOL0     C37186   3.263  11.353   5.320  0.0213 -0.4074 -0.1391
  276MOL0     C37187   3.125  11.363   5.279  0.5507  0.3342  0.7062
  276MOL0     C37188   3.068  11.508   5.294  0.8544  0.0492 -0.8513
  276MOL0     C37189   2.933  11.498   5.229  0.9173 -0.1474  0.6667
  276MOL0     C37190   2.833  11.477   5.161  0.9031 -0.0256  0.2516
  276MOL0     C37191   3.584  11.069   5.476  0.7763 -0.1295  0.0296
  276MOL0     C37192   3.610  10.990   5.579  0.0291  1.0120  0.5501
  276MOL0     H37193   3.497  10.713   6.025 -0.5926 -0.8704 -2.1529
  276MOL0     H37194   3.589  10.595   6.198  0.6784  0.0990  1.0157
  276MOL0     H37195   3.721  10.416   6.267  1.4851 -1.2116 -1.3948
  276MOL0     H37196   3.881  10.397   6.335  0.1403  0.5966  0.7146
  276MOL0     H37197   3.672  10.592   6.419 -1.8978 -2.1923  0.0805
  276MOL0     H37198   3.744  10.462   6.511  0.3571 -0.8130 -1.8454
  276MOL0     H37199   3.863  10.729   6.427  0.2842  0.3937  0.2223
  276MOL0     H37200   3.836  10.668   6.594  0.2879 -0.1325  0.1075
  276MOL0     H37201   4.035  10.495   6.563  1.7539  1.0149 -0.5114
  276MOL0     H37202   4.036  10.544   6.397 -0.4841 -1.9788  0.1723
  276MOL0     H37203   4.224  10.653   6.541  1.6260  1.5778 -3.0961
  276MOL0     H37204   4.116  10.742   6.429 -1.8566 -1.0878  0.0784
  276MOL0     H37205   3.998  10.837   6.633  1.0904  2.0095  0.6915
  276MOL0     H37206   4.068  10.700   6.733 -1.7220 -2.5670 -1.5732
  276MOL0     H37207   4.284  10.845   6.676 -0.1848 -0.4681  0.0508
  276MOL0     H37208   4.176  10.960   6.606  1.3185 -0.0637 -2.1330
  276MOL0     H37209   4.200  10.845   6.883 -1.3161 -1.2187 -0.9960
  276MOL0     H37210   4.055  10.935   6.858 -0.0336  2.4651  0.1430
  276MOL0     H37211   4.155  11.061   7.078 -0.5370 -1.3566 -1.5147
  276MOL0     H37212   4.309  11.191   7.209 -0.9803 -1.4647 -2.4288
  276MOL0     H37213   4.452  11.276   7.138 -0.6486  1.6947 -3.5233
  276MOL0     H37214   4.262  11.449   7.238  0.1230  0.6788 -0.8793
  276MOL0     H37215   4.151  11.366   7.141 -0.0889 -0.9781  1.0243
  276MOL0     H37216   4.365  11.467   6.961  0.3204  1.3950 -0.7041
  276MOL0     H37217   4.343  11.587   7.087 -0.0205  1.5018 -0.1837
  276MOL0     H37218   4.199  11.664   6.902 -0.8908  0.1071 -0.3282
  276MOL0     H37219   4.102  11.593   7.035  1.1814 -2.3014  0.5723
  276MOL0     H37220   4.066  11.439   6.614 -0.9625 -1.5542 -0.5455
  276MOL0     H37221   3.787  11.567   6.454 -1.1802 -0.2301 -0.6716
  276MOL0     H37222   3.912  11.440   6.422 -0.0701  0.4091  0.2571
  276MOL0     H37223   3.752  11.391   6.460  0.2421 -0.2385  0.6937
  276MOL0     H37224   3.356  11.500   6.717  0.2823  0.0524  0.2539
  276MOL0     H37225   3.118  11.547   6.656 -1.7586  0.7216 -2.0255
  276MOL0     H37226   2.922  11.421   6.561  0.3686 -1.6932 -0.7351
  276MOL0     H37227   2.911  11.592   6.542  0.4067 -2.0488  1.2544
  276MOL0     H37228   2.762  11.555   6.327 -4.8724 -0.1424  0.4403
  276MOL0     H37229   2.828  11.406   6.316  1.6014  0.6006  0.8930
  276MOL0     H37230   2.705  11.342   6.537 -1.1577  1.0743  0.9030
  276MOL0     H37231   2.597  11.369   6.401  2.3122 -0.2829 -3.1259
  276MOL0     H37232   2.521  11.494   6.619  1.4111 -0.8330  0.9283
  276MOL0     H37233   2.656  11.597   6.603 -2.1296  2.6549 -0.2616
  276MOL0     H37234   2.444  11.533   6.389  0.8051  1.2190 -2.4288
  276MOL0     H37235   2.566  11.657   6.375 -0.4869 -0.2466 -0.2016
  276MOL0     H37236   2.351  11.661   6.586 -0.1178  1.7815  2.0410
  276MOL0     H37237   2.479  11.782   6.570 -3.0863  0.6243  0.6781
  276MOL0     H37238   2.286  11.705   6.353  1.8388 -1.8744  0.4918
  276MOL0     H37239   2.423  11.814   6.331  2.3090 -2.1714  0.9089
  276MOL0     H37240   2.212  11.960   6.395  0.9582 -1.2319 -2.4700
  276MOL0     H37241   2.322  11.944   6.542 -0.9420 -1.9435  3.1056
  276MOL0     H37242   3.208  11.420   6.264  0.9926  0.0228 -0.9216
  276MOL0     H37243   3.449  11.409   6.315 -2.3358 -0.3352 -1.9880
  276MOL0     H37244   3.687  11.553   6.916  0.9759 -3.3831  1.3289
  276MOL0     H37245   3.918  11.536   7.000  0.6506  2.1711  0.3597
  276MOL0     H37246   3.990  10.666   6.043  0.6138  3.7367 -1.9066
  276MOL0     H37247   3.864  10.795   5.841 -1.1160  1.5835  0.0642
  276MOL0     H37248   3.297  11.039   5.721 -0.0738 -1.1063 -0.1698
  276MOL0     H37249   3.262  11.175   5.518 -0.5956 -1.4778 -0.9405
  276MOL0     H37250   3.350  11.248   5.159 -1.7506  0.9574  0.4969
  276MOL0     H37251   3.282  11.138   5.286 -0.7612 -0.7873 -0.8202
  276MOL0     H37252   3.323  11.439   5.290  2.2000 -1.6185  0.5002
  276MOL0     H37253   3.261  11.356   5.429  3.1805 -2.6036  0.1175
  276MOL0     H37254   3.057  11.294   5.330  0.8686  0.0095  0.6949
  276MOL0     H37255   3.124  11.343   5.172 -0.3897  0.7000  0.6381
  276MOL0     H37256   3.127  11.583   5.241 -0.6643  2.2572  0.4088
  276MOL0     H37257   3.063  11.535   5.400 -0.7692 -1.5373 -0.4785
  276MOL0     H37258   2.756  11.464   5.088 -1.2907 -0.0424  2.4414
  276MOL0     H37259   3.674  11.088   5.417  0.8962  1.0931  0.5657
  276MOL0     H37260   3.705  10.938   5.588 -0.0322  0.8443  0.2239
  277MOL0     O37261   9.434  10.355   7.197 -0.3037  0.5878 -0.0248
  277MOL0     C37262   9.418  10.362   7.074 -0.2595  0.4036  0.2537
  277MOL0     O37263   9.335  10.447   7.009 -0.2858  0.4668  0.6835
  277MOL0     C37264   9.228  10.491   7.078 -1.6591 -1.1860 -0.6639
  277MOL0     C37265   9.099  10.441   7.057 -0.6742 -1.1900 -0.2591
  277MOL0     C37266   8.996  10.488   7.130  0.4350  0.1199 -0.4117
  277MOL0     C37267   9.015  10.590   7.219 -0.4186  0.3990  0.6533
  277MOL0     O37268   8.908  10.644   7.279  0.1856 -0.6085 -0.6318
  277MOL0     C37269   8.917  10.757   7.359  0.4379  1.0512 -0.5475
  277MOL0     C37270   8.776  10.796   7.408 -0.0923  0.2947 -0.0954
  277MOL0     C37271   8.693  10.874   7.297 -0.6881 -0.7924  0.3369
  277MOL0     C37272   8.548  10.874   7.346  0.4190 -0.1632  0.4838
  277MOL0     C37273   8.464  10.975   7.262  0.3696  0.2636  0.1971
  277MOL0     C37274   8.315  10.986   7.318  0.3375  0.0452  0.2679
  277MOL0     C37275   8.217  11.058   7.213 -0.5164 -0.2073  0.5192
  277MOL0     C37276   8.212  11.209   7.215 -0.6972 -0.2958 -0.5713
  277MOL0     N37277   8.336  11.287   7.221 -0.0942 -0.3603  1.3612
  277MOL0     C37278   8.435  11.296   7.126 -0.0187  0.6648  0.4846
  277MOL0     C37279   8.527  11.373   7.182  0.6753  0.2375 -0.2312
  277MOL0     C37280   8.663  11.400   7.131 -0.7736  0.5894  0.7128
  277MOL0     C37281   8.761  11.394   7.249  0.6335 -0.1015 -0.6210
  277MOL0     C37282   8.795  11.240   7.293 -0.0080 -0.5708  0.1333
  277MOL0     C37283   8.885  11.221   7.417 -0.1633  0.2659 -0.6486
  277MOL0     O37284   8.990  11.130   7.375  0.6364 -0.5268  0.4014
  277MOL0     C37285   9.083  11.082   7.457 -0.5801  0.6859 -0.3670
  277MOL0     C37286   9.179  11.008   7.394 -0.2752  1.4005  0.3419
  277MOL0     C37287   9.288  10.963   7.466  0.0199  0.0482 -0.8749
  277MOL0     C37288   9.404  10.904   7.392 -0.4612  0.2468 -0.1388
  277MOL0     C37289   9.306  10.998   7.602 -0.0084 -0.5252  0.4510
  277MOL0     C37290   9.432  10.969   7.677  0.6178 -1.4834 -0.1751
  277MOL0     O37291   9.479  10.842   7.702 -0.6212  0.3385 -0.8826
  277MOL0     C37292   9.411  10.725   7.678 -0.3843 -0.0261  0.4643
  277MOL0     C37293   9.274  10.721   7.653  0.6130  0.7386  0.6143
  277MOL0     C37294   9.223  10.598   7.607 -0.2606  0.0114  0.3672
  277MOL0     C37295   9.307  10.488   7.566 -0.3047  0.1064  0.3239
  277MOL0     O37296   9.280  10.365   7.498  0.2083 -0.0352  0.0017
  277MOL0     C37297   9.145  10.335   7.463 -0.5787 -0.4770  0.1311
  277MOL0     C37298   9.128  10.190   7.432 -0.7935 -0.6329  0.7267
  277MOL0     C37299   9.148  10.163   7.281 -0.0493  0.5765  0.6426
  277MOL0     C37300   9.170  10.007   7.265  0.5250 -0.6398  0.0620
  277MOL0     C37301   9.234   9.978   7.129 -0.0308 -0.4016 -0.7600
  277MOL0     C37302   9.164  10.061   7.020  0.4684  0.0840 -0.1710
  277MOL0     C37303   9.241  10.071   6.888 -0.3516  0.3685  0.5063
  277MOL0     C37304   9.314   9.946   6.841 -0.7435 -1.2197  0.0687
  277MOL0    Cl37305   9.424   9.980   6.716 -0.0211  0.1218  0.0970
  277MOL0     C37306   9.440  10.499   7.590 -0.1495 -0.8927 -0.9647
  277MOL0     C37307   9.493  10.613   7.654  0.3181  0.1987 -0.5207
  277MOL0     O37308   9.500  11.067   7.674  0.2941  0.9393 -0.0030
  277MOL0     C37309   9.206  11.069   7.667 -0.0675 -0.6918 -0.3231
  277MOL0     C37310   9.087  11.118   7.598 -0.4018  0.8099  0.6516
  277MOL0     N37311   8.475  11.423   7.306 -0.1587 -0.7342  0.5887
  277MOL0     N37312   8.361  11.363   7.329  0.0401 -0.6976 -0.2385
  277MOL0     C37313   9.145  10.631   7.246 -1.2419  0.1728 -0.3471
  277MOL0     C37314   9.257  10.586   7.175 -1.6200 -0.2009 -0.8713
  277MOL0     C37315   9.524  10.292   6.992 -0.3211  0.0594  0.0153
  277MOL0     C37316   9.547  10.320   6.851 -0.5736 -0.0564  0.0263
  277MOL0     C37317   9.652  10.268   6.781 -0.4247 -0.1641 -0.2338
  277MOL0     C37318   9.724  10.168   6.852 -1.2354  0.7011  0.5133
  277MOL0     O37319   9.848  10.123   6.798  0.3841  0.0323  0.2762
  277MOL0     C37320   9.971  10.150   6.884  0.7843 -0.3745 -0.0371
  277MOL0     C37321  10.040  10.282   6.835  1.0056  0.3655 -0.2012
  277MOL0     C37322  10.135  10.268   6.723 -0.4844  1.5501 -0.5780
  277MOL0     C37323  10.063  10.246   6.594  0.5196 -0.7395 -0.6645
  277MOL0     C37324  10.163  10.270   6.487  0.4270  0.4301 -0.9044
  277MOL0     C37325  10.254  10.288   6.415 -0.5768 -0.0522 -0.0947
  277MOL0     C37326   9.704  10.133   6.975 -0.0604  0.8135 -0.7780
  277MOL0     C37327   9.607  10.194   7.054 -0.3057  0.1471 -0.6619
  277MOL0     H37328   9.088  10.358   6.988 -0.5142 -0.2445 -1.4805
  277MOL0     H37329   8.902  10.433   7.128  1.8778 -2.7798  2.2762
  277MOL0     H37330   8.980  10.733   7.445  0.7326 -1.3822 -1.3589
  277MOL0     H37331   8.962  10.837   7.299  0.5115  0.5129 -1.2156
  277MOL0     H37332   8.714  10.713   7.442 -1.1706 -0.3955 -3.3584
  277MOL0     H37333   8.783  10.868   7.490 -1.9506 -1.0082  1.2866
  277MOL0     H37334   8.733  10.976   7.299  0.9834 -1.4068 -0.2093
  277MOL0     H37335   8.696  10.830   7.197  0.8085  3.7460 -1.9152
  277MOL0     H37336   8.509  10.773   7.333  0.5872 -0.5287  2.4920
  277MOL0     H37337   8.533  10.894   7.453  2.1495 -0.9281  0.9147
  277MOL0     H37338   8.513  11.073   7.253 -0.3242  0.6984  1.0325
  277MOL0     H37339   8.447  10.942   7.159  1.1368 -0.5305  0.3122
  277MOL0     H37340   8.279  10.884   7.333 -0.8703  0.3742 -0.3262
  277MOL0     H37341   8.313  11.047   7.409  1.6317  0.0831  0.2874
  277MOL0     H37342   8.227  11.028   7.108  0.4229  0.5478  0.3816
  277MOL0     H37343   8.121  11.017   7.245 -0.0401  0.7693  3.4330
  277MOL0     H37344   8.148  11.251   7.292 -0.5886 -0.5116 -0.3632
  277MOL0     H37345   8.156  11.245   7.128  2.1855  6.7086 -0.2596
  277MOL0     H37346   8.440  11.240   7.033 -2.4223  2.1854 -0.6471
  277MOL0     H37347   8.680  11.329   7.050 -0.4670  0.7706  0.6137
  277MOL0     H37348   8.662  11.499   7.085 -0.0560  1.2524  2.0525
  277MOL0     H37349   8.722  11.444   7.338  2.4321  0.4843 -0.1026
  277MOL0     H37350   8.853  11.447   7.221  0.4512  0.5743  0.0082
  277MOL0     H37351   8.856  11.201   7.211 -1.7359  0.7822 -1.8957
  277MOL0     H37352   8.692  11.203   7.295 -0.7713  1.4401  1.0318
  277MOL0     H37353   8.819  11.182   7.495  1.4693 -1.1479  0.0887
  277MOL0     H37354   8.927  11.319   7.443 -3.0002  1.9312 -1.7730
  277MOL0     H37355   9.171  11.001   7.286 -0.9211 -0.3134  0.4671
  277MOL0     H37356   9.497  10.954   7.422 -0.2394 -0.6788  0.8015
  277MOL0     H37357   9.407  10.800   7.426 -2.7670  0.7136  1.8408
  277MOL0     H37358   9.381  10.910   7.286 -3.6067 -1.4094  0.3433
  277MOL0     H37359   9.201  10.793   7.686  2.2629  3.2953 -0.9248
  277MOL0     H37360   9.117  10.599   7.583 -0.7356  0.1228  2.3309
  277MOL0     H37361   9.070  10.369   7.536  1.2401  2.1009  0.9492
  277MOL0     H37362   9.121  10.390   7.371  1.1106 -3.7269 -2.4776
  277MOL0     H37363   9.203  10.135   7.489  1.0166  1.3524  0.4036
  277MOL0     H37364   9.028  10.171   7.472 -1.0670  4.1347  3.0592
  277MOL0     H37365   9.230  10.224   7.241  2.4588  0.0470  4.4608
  277MOL0     H37366   9.051  10.195   7.241 -0.3422 -1.5917 -0.4933
  277MOL0     H37367   9.228   9.965   7.348  1.8536  1.2181  0.1102
  277MOL0     H37368   9.071   9.961   7.276  0.0937  0.6143  1.9228
  277MOL0     H37369   9.226   9.872   7.106  1.1523 -0.3695 -1.4085
  277MOL0     H37370   9.338  10.014   7.132  0.0364 -0.4564 -1.8929
  277MOL0     H37371   9.060  10.029   7.007  0.8698 -0.7697 -1.5256
  277MOL0     H37372   9.161  10.167   7.044 -0.8234 -0.2486  1.3107
  277MOL0     H37373   9.317  10.149   6.899  0.7434 -0.6842  0.6356
  277MOL0     H37374   9.173  10.104   6.809 -2.9026 -5.2176 -0.1816
  277MOL0     H37375   9.252   9.865   6.803  0.7602 -1.6037 -1.7096
  277MOL0     H37376   9.368   9.912   6.930  0.2778  1.5480  0.6157
  277MOL0     H37377   9.503  10.412   7.575 -0.4942 -1.2969 -0.1325
  277MOL0     H37378   9.596  10.612   7.687 -0.2036  0.1802  1.2139
  277MOL0     H37379   9.218  11.079   7.774 -1.0763  2.1194 -0.3920
  277MOL0     H37380   9.004  11.163   7.652 -1.2886  0.5276 -0.4424
  277MOL0     H37381   9.172  10.717   7.308  1.1149  0.3982 -1.5918
  277MOL0     H37382   9.360  10.616   7.189 -2.0564 -0.0689  3.1037
  277MOL0     H37383   9.475  10.391   6.811 -3.5432 -2.0882  1.3747
  277MOL0     H37384   9.673  10.313   6.685 -2.9279 -1.8621 -1.6962
  277MOL0     H37385   9.956  10.159   6.992 -3.1339  1.3321 -0.5445
  277MOL0     H37386  10.029  10.060   6.862 -0.2879 -0.4177 -3.2138
  277MOL0     H37387  10.098  10.334   6.912  4.4359 -0.0800 -2.2962
  277MOL0     H37388   9.957  10.347   6.805  1.0257  0.2287 -0.5617
  277MOL0     H37389  10.190  10.174   6.734 -2.3473  0.6973  2.9499
  277MOL0     H37390  10.202  10.354   6.721  0.1204  1.0778 -1.6718
  277MOL0     H37391   9.981  10.317   6.588  0.0082 -0.6494  3.9278
  277MOL0     H37392  10.025  10.143   6.595 -0.3087 -0.4515  1.1585
  277MOL0     H37393  10.339  10.303   6.352 -2.0529 -0.4984 -2.3088
  277MOL0     H37394   9.769  10.058   7.018 -0.0650  0.5868 -1.1677
  277MOL0     H37395   9.604  10.166   7.159 -0.5543  1.7737 -0.2103
  278MOL0     O37396   9.836   4.611   1.400  0.1983  0.5576 -0.3948
  278MOL0     C37397   9.790   4.621   1.292 -0.0937  1.1387  0.4282
  278MOL0     O37398   9.654   4.600   1.256 -0.0246 -0.4894  1.4395
  278MOL0     C37399   9.578   4.551   1.359  0.5176  0.7042 -0.2758
  278MOL0     C37400   9.538   4.619   1.479 -0.0654  0.5386 -0.2157
  278MOL0     C37401   9.475   4.541   1.578 -0.0885 -0.7591  0.7733
  278MOL0     C37402   9.433   4.416   1.549 -0.2221 -0.0425  0.3770
  278MOL0     O37403   9.376   4.358   1.656 -0.4568  0.7166 -0.7160
  278MOL0     C37404   9.270   4.267   1.639 -0.1597 -0.0605 -0.3325
  278MOL0     C37405   9.170   4.300   1.757  0.0559  0.4744 -0.3023
  278MOL0     C37406   9.135   4.451   1.760 -0.4486  0.3571  0.2011
  278MOL0     C37407   9.033   4.487   1.868 -0.5945 -0.5796  0.3005
  278MOL0     C37408   9.000   4.633   1.858  0.8032  0.5466  1.1071
  278MOL0     C37409   9.128   4.725   1.876  0.9412 -0.1454  0.5166
  278MOL0     C37410   9.088   4.880   1.885 -0.2273 -0.2478 -0.3195
  278MOL0     C37411   9.199   4.980   1.863 -0.0584 -0.4053  0.2594
  278MOL0     N37412   9.324   4.933   1.922 -0.5241  1.1974  0.4596
  278MOL0     C37413   9.360   4.935   2.055 -0.1878  0.3846  0.9207
  278MOL0     C37414   9.480   4.886   2.064 -0.3777  1.3736 -1.3543
  278MOL0     C37415   9.567   4.871   2.186 -0.3460  1.2294 -0.7559
  278MOL0     C37416   9.696   4.961   2.169  0.4600  0.3438 -0.1721
  278MOL0     C37417   9.801   4.952   2.280  1.0427  0.9504 -0.0216
  278MOL0     C37418   9.916   4.849   2.264 -0.7581 -0.2329  0.2431
  278MOL0     O37419   9.856   4.722   2.261  0.3327  0.1210 -0.1247
  278MOL0     C37420   9.944   4.617   2.252  0.1227 -0.7096 -0.5986
  278MOL0     C37421  10.084   4.624   2.270 -0.8265  0.7019 -0.4721
  278MOL0     C37422  10.157   4.506   2.296 -0.1738  0.7309 -0.8345
  278MOL0     C37423  10.297   4.519   2.360 -0.4465  0.2227 -0.5135
  278MOL0     C37424  10.100   4.376   2.279 -0.3548 -0.4988  0.8002
  278MOL0     C37425  10.177   4.241   2.295 -0.3845 -0.8102 -0.0706
  278MOL0     O37426  10.105   4.133   2.300  0.5150  1.2633 -0.0039
  278MOL0     C37427  10.175   4.021   2.318  0.3434  0.2013 -0.1112
  278MOL0     C37428  10.127   3.921   2.235  0.0021 -0.2984  0.4725
  278MOL0     C37429  10.191   3.791   2.240  1.4725  1.2151 -0.7089
  278MOL0     C37430  10.291   3.770   2.332 -0.1386  0.5144 -0.7628
  278MOL0     O37431  10.357   3.642   2.333 -0.0135 -0.2109  0.5551
  278MOL0     C37432  10.373   3.583   2.465 -0.5346  0.8439 -0.8353
  278MOL0     C37433  10.238   3.550   2.525  1.0571  0.2508  0.4630
  278MOL0     C37434  10.178   3.427   2.456 -0.0955 -0.3856 -0.3060
  278MOL0     C37435  10.026   3.418   2.462  0.4313 -0.0783 -1.2045
  278MOL0     C37436   9.945   3.295   2.419  1.7211  0.5118  0.2366
  278MOL0     C37437   9.796   3.324   2.398  0.5196 -0.0630 -0.5633
  278MOL0     C37438   9.729   3.195   2.352 -0.4440 -0.8830  0.7564
  278MOL0     C37439   9.733   3.098   2.468  0.4421  0.8607 -0.2762
  278MOL0    Cl37440   9.619   2.963   2.431 -0.0547 -0.0987 -0.2518
  278MOL0     C37441  10.333   3.875   2.428 -0.2217  0.4028 -0.1450
  278MOL0     C37442  10.264   3.999   2.419  0.0406  0.4884  0.2750
  278MOL0     O37443  10.304   4.245   2.289 -0.6455 -0.6111 -0.1950
  278MOL0     C37444   9.963   4.374   2.242  0.0280  0.0829 -0.0353
  278MOL0     C37445   9.886   4.492   2.241  0.6535  0.3696  1.4228
  278MOL0     N37446   9.518   4.847   1.934 -0.0137 -0.1150  0.3166
  278MOL0     N37447   9.424   4.867   1.849  0.3103  1.1044 -0.0646
  278MOL0     C37448   9.456   4.354   1.424  0.1868 -0.0826 -1.0071
  278MOL0     C37449   9.522   4.425   1.329  0.0804  0.9686 -0.7830
  278MOL0     C37450   9.875   4.663   1.181 -0.8072  0.2219  0.2505
  278MOL0     C37451   9.827   4.660   1.056  0.0938  0.2371  0.4005
  278MOL0     C37452   9.901   4.711   0.952  1.1727 -0.0621 -1.6897
  278MOL0     C37453  10.037   4.744   0.966  0.1597  0.0890  0.3175
  278MOL0     O37454  10.119   4.771   0.859 -0.0538  0.1353 -1.2537
  278MOL0     C37455  10.160   4.655   0.793  0.4969  0.2780  1.0394
  278MOL0     C37456  10.306   4.683   0.744  0.0946  0.3798  0.0118
  278MOL0     C37457  10.319   4.809   0.649  0.0875 -0.4378  0.3681
  278MOL0     C37458  10.450   4.838   0.579 -0.1792 -0.0889  0.3592
  278MOL0     C37459  10.561   4.898   0.662  0.4640  0.8813  1.4050
  278MOL0     C37460  10.652   4.942   0.726 -0.4421 -1.1899  0.7398
  278MOL0     C37461  10.090   4.731   1.084 -0.8893 -0.1354 -0.0271
  278MOL0     C37462  10.012   4.696   1.199 -0.4655  0.6304 -0.0749
  278MOL0     H37463   9.557   4.725   1.488 -1.9863  1.0552 -1.6602
  278MOL0     H37464   9.448   4.588   1.671 -0.3254 -1.6445  1.1684
  278MOL0     H37465   9.223   4.275   1.541  0.1412  0.0032 -0.4731
  278MOL0     H37466   9.307   4.164   1.648 -1.8983 -0.7742 -1.0637
  278MOL0     H37467   9.075   4.247   1.743  0.2882  0.3671 -1.4973
  278MOL0     H37468   9.205   4.274   1.858 -2.9977 -0.9507  0.4990
  278MOL0     H37469   9.224   4.514   1.765  0.7723 -1.3624  1.2342
  278MOL0     H37470   9.091   4.478   1.664  0.2623 -0.1625 -0.2776
  278MOL0     H37471   8.942   4.439   1.832 -0.0363  0.9018 -3.5253
  278MOL0     H37472   9.067   4.458   1.968 -0.0432 -0.8070  0.0541
  278MOL0     H37473   8.951   4.660   1.764  0.1163 -1.6339  0.7894
  278MOL0     H37474   8.915   4.652   1.925 -0.5916  0.6123 -0.5915
  278MOL0     H37475   9.183   4.691   1.964 -1.3050  2.0141  2.9272
  278MOL0     H37476   9.189   4.720   1.785 -0.7045  0.7517 -0.6876
  278MOL0     H37477   9.008   4.900   1.813 -1.5708  1.2896  1.4853
  278MOL0     H37478   9.043   4.902   1.982  1.1820 -0.3523  0.3814
  278MOL0     H37479   9.173   5.080   1.900  2.4123  0.5239 -0.2805
  278MOL0     H37480   9.214   4.988   1.754 -2.1293  3.2838  0.0883
  278MOL0     H37481   9.296   4.961   2.138 -1.6380  0.0847 -0.0742
  278MOL0     H37482   9.514   4.886   2.281 -1.8907 -2.0912 -0.9672
  278MOL0     H37483   9.603   4.768   2.188  1.5350  1.8269 -1.6601
  278MOL0     H37484   9.667   5.066   2.179 -0.8132  0.0722 -0.8233
  278MOL0     H37485   9.741   4.947   2.071  2.9530  0.6029  0.8554
  278MOL0     H37486   9.745   4.936   2.372  1.7054 -0.7880  0.1000
  278MOL0     H37487   9.856   5.047   2.284 -0.4001  1.9264  5.6161
  278MOL0     H37488   9.986   4.854   2.348 -2.1341  0.2076  1.3885
  278MOL0     H37489   9.974   4.863   2.172 -1.4394  1.7135  0.0660
  278MOL0     H37490  10.129   4.718   2.300  1.1878 -0.5722  0.7632
  278MOL0     H37491  10.371   4.487   2.286  0.5674  1.9774 -0.3191
  278MOL0     H37492  10.319   4.618   2.399 -4.4039  1.1581 -0.2421
  278MOL0     H37493  10.305   4.452   2.447  0.4353 -1.7452 -2.0175
  278MOL0     H37494  10.057   3.940   2.154  0.6347  0.8361  0.1632
  278MOL0     H37495  10.150   3.705   2.189 -1.0823  1.4369  0.7705
  278MOL0     H37496  10.420   3.484   2.471 -4.0730 -0.9130  1.0294
  278MOL0     H37497  10.429   3.639   2.540 -2.8835  3.0339 -0.5714
  278MOL0     H37498  10.250   3.520   2.630 -0.8737 -3.9670 -0.3215
  278MOL0     H37499  10.170   3.635   2.510  1.8737  0.5893 -1.6542
  278MOL0     H37500  10.221   3.334   2.494  1.6359  1.0006  1.2781
  278MOL0     H37501  10.215   3.434   2.353  3.4336 -1.0765  0.7821
  278MOL0     H37502   9.995   3.448   2.562  2.1168 -0.1275 -0.6428
  278MOL0     H37503   9.997   3.499   2.394 -0.8341  2.9188  2.5973
  278MOL0     H37504   9.957   3.213   2.490 -1.0495 -1.9308 -1.8521
  278MOL0     H37505   9.973   3.245   2.326 -0.7080  0.2610 -0.4233
  278MOL0     H37506   9.744   3.346   2.492 -1.1890 -1.0124 -1.2403
  278MOL0     H37507   9.776   3.405   2.326 -2.0555 -0.9020 -0.8780
  278MOL0     H37508   9.786   3.166   2.264  0.3514  0.3609  0.8345
  278MOL0     H37509   9.627   3.230   2.335 -0.6813 -1.1519  1.5793
  278MOL0     H37510   9.704   3.141   2.564  3.4313 -0.2027  1.2404
  278MOL0     H37511   9.834   3.057   2.475  1.7242  3.9316  0.7904
  278MOL0     H37512  10.410   3.850   2.500  1.2794 -1.8435 -2.3569
  278MOL0     H37513  10.277   4.074   2.496 -1.5527  0.9043  0.1757
  278MOL0     H37514   9.909   4.281   2.231 -0.1321  0.2720 -0.9018
  278MOL0     H37515   9.783   4.497   2.204  0.9802 -0.2692  0.3698
  278MOL0     H37516   9.413   4.257   1.403  0.3698 -1.3632  3.5586
  278MOL0     H37517   9.543   4.371   1.238  2.0129 -0.7364  0.5732
  278MOL0     H37518   9.731   4.623   1.024  0.9977  0.8802 -3.6214
  278MOL0     H37519   9.852   4.709   0.855 -1.9022  0.2497 -0.2404
  278MOL0     H37520  10.151   4.561   0.848  0.2526 -0.8442 -0.8123
  278MOL0     H37521  10.106   4.653   0.698  2.1453  0.5248  0.0573
  278MOL0     H37522  10.323   4.591   0.687  1.1691  0.2806  0.4801
  278MOL0     H37523  10.378   4.695   0.825  1.8993 -0.4164 -1.3987
  278MOL0     H37524  10.291   4.894   0.712 -1.8255 -0.9958  0.3520
  278MOL0     H37525  10.235   4.808   0.578  2.6322  2.7890 -3.1388
  278MOL0     H37526  10.439   4.904   0.492  1.1489 -0.2597  0.0393
  278MOL0     H37527  10.474   4.738   0.542 -3.1000 -0.2448 -1.4076
  278MOL0     H37528  10.740   4.991   0.764  0.0623 -0.3942 -1.3422
  278MOL0     H37529  10.194   4.756   1.102 -1.0071  0.2458  0.1219
  278MOL0     H37530  10.046   4.715   1.301 -0.3238  2.4678 -0.4196
  279MOL0     O37531   1.886   0.944  10.194 -0.0209  0.0381 -0.7282
  279MOL0     C37532   1.932   1.041  10.122  0.0245  0.5254  0.7103
  279MOL0     O37533   1.859   1.112  10.033 -0.4294 -0.2034 -0.4129
  279MOL0     C37534   1.734   1.070  10.003  0.8988  0.1990  0.7109
  279MOL0     C37535   1.646   1.174   9.963 -0.0416  0.3266 -0.2714
  279MOL0     C37536   1.514   1.146   9.944  0.0909  0.0310 -0.5586
  279MOL0     C37537   1.473   1.012   9.918  1.1157 -0.6593  0.1732
  279MOL0     O37538   1.341   0.981   9.878 -0.8702  0.1075  0.4392
  279MOL0     C37539   1.295   1.057   9.768  0.6374  0.0252  0.4509
  279MOL0     C37540   1.173   0.968   9.708 -0.1128  0.1074 -0.2805
  279MOL0     C37541   1.107   1.033   9.593  0.4788 -0.6415 -0.1446
  279MOL0     C37542   0.998   0.949   9.540  0.4534  0.6834 -0.6183
  279MOL0     C37543   0.934   1.015   9.408 -0.1637 -0.3679 -0.4574
  279MOL0     C37544   0.843   0.919   9.337 -0.4154 -0.0517 -0.4004
  279MOL0     C37545   0.767   0.993   9.226  0.0411 -0.4985  0.3071
  279MOL0     C37546   0.687   0.901   9.135  0.6232 -1.2139 -1.1475
  279MOL0     N37547   0.557   0.862   9.202  0.1338 -0.3973 -0.2777
  279MOL0     C37548   0.462   0.953   9.239  0.9441  0.4173 -0.3341
  279MOL0     C37549   0.355   0.874   9.290 -0.6559 -0.1818  0.4984
  279MOL0     C37550   0.234   0.917   9.361 -0.1695 -0.1248 -0.2349
  279MOL0     C37551   0.227   0.849   9.503  0.3575  1.0126 -0.5678
  279MOL0     C37552   0.335   0.920   9.593  0.5607 -0.9345  0.2968
  279MOL0     C37553   0.450   0.821   9.626  0.3956 -0.1338  0.0370
  279MOL0     O37554   0.544   0.874   9.712 -0.1620  0.4299  0.2676
  279MOL0     C37555   0.652   0.794   9.741 -0.0310 -0.8529  0.2567
  279MOL0     C37556   0.682   0.674   9.690 -1.1449  0.0990  0.0792
  279MOL0     C37557   0.806   0.607   9.723 -1.2639 -0.5331 -0.7864
  279MOL0     C37558   0.816   0.468   9.662 -1.0907 -0.5129  0.1554
  279MOL0     C37559   0.905   0.664   9.808 -0.6683 -0.0953  0.5992
  279MOL0     C37560   1.031   0.601   9.859  0.3253  0.1674  0.6959
  279MOL0     O37561   1.061   0.473   9.825 -0.2151  0.2670 -0.0413
  279MOL0     C37562   1.192   0.428   9.835 -1.8978 -0.0095 -0.6176
  279MOL0     C37563   1.252   0.355   9.731  0.0157 -0.2370 -0.3095
  279MOL0     C37564   1.377   0.291   9.748 -0.7128  0.2418  0.8789
  279MOL0     C37565   1.452   0.310   9.860 -0.6019 -0.0956 -0.0029
  279MOL0     O37566   1.578   0.265   9.884 -0.2416  0.7357  0.1094
  279MOL0     C37567   1.662   0.243   9.774  0.2319 -0.4668  0.5999
  279MOL0     C37568   1.786   0.177   9.826  0.0228  0.8985 -0.5663
  279MOL0     C37569   1.755   0.026   9.854  0.2788  0.2597  0.1468
  279MOL0     C37570   1.874  -0.065   9.899 -0.0832  0.1278  0.1750
  279MOL0     C37571   1.965  -0.005  10.011 -0.2438 -0.6502  0.4698
  279MOL0     C37572   2.081  -0.106  10.042  0.5143 -0.4282 -0.1848
  279MOL0     C37573   2.195  -0.091   9.937 -0.0163 -0.2989  0.5663
  279MOL0     C37574   2.333  -0.154   9.991 -0.1250 -0.5833 -1.2414
  279MOL0    Cl37575   2.458  -0.128   9.862  0.1589 -0.1076  0.2064
  279MOL0     C37576   1.388   0.364   9.970 -1.5549 -0.5571 -0.4823
  279MOL0     C37577   1.265   0.431   9.955  0.6779 -0.3586 -0.6051
  279MOL0     O37578   1.115   0.677   9.899  0.1970  0.1697 -0.4632
  279MOL0     C37579   0.862   0.797   9.856  0.1629  1.1267 -0.0963
  279MOL0     C37580   0.742   0.855   9.824  0.6888  0.4394 -0.3879
  279MOL0     N37581   0.395   0.745   9.288  0.3956  0.5174  0.6775
  279MOL0     N37582   0.514   0.736   9.237 -0.5818 -0.2120  0.0371
  279MOL0     C37583   1.557   0.910   9.948  0.4749 -0.1365 -0.2542
  279MOL0     C37584   1.685   0.936   9.992  0.3599  0.0112  0.3830
  279MOL0     C37585   2.066   1.096  10.168 -0.6664 -0.7896 -0.8962
  279MOL0     C37586   2.115   1.082  10.302 -0.1398 -0.4462  0.2842
  279MOL0     C37587   2.230   1.141  10.349  0.5061  0.8966  0.1010
  279MOL0     C37588   2.296   1.233  10.265  0.6585 -0.5074  0.0783
  279MOL0     O37589   2.402   1.304  10.311  0.1096  0.1232  0.4015
  279MOL0     C37590   2.501   1.212  10.361  0.3617 -0.4971 -0.6019
  279MOL0     C37591   2.619   1.294  10.396  0.0432  1.0548  0.1324
  279MOL0     C37592   2.759   1.238  10.367 -0.2096  0.2835  0.5520
  279MOL0     C37593   2.790   1.094  10.418 -0.1855  0.7912  0.8482
  279MOL0     C37594   2.755   1.071  10.555  1.1488  0.5923 -1.0109
  279MOL0     C37595   2.695   1.059  10.659 -0.6516 -0.7531  0.5519
  279MOL0     C37596   2.251   1.252  10.125  0.4798  0.3143 -1.1488
  279MOL0     C37597   2.135   1.191  10.089  0.7035 -0.0436  0.3600
  279MOL0     H37598   1.677   1.276   9.986 -1.7216  0.3674  2.2584
  279MOL0     H37599   1.439   1.223   9.926 -0.0006 -0.1014 -0.7442
  279MOL0     H37600   1.263   1.156   9.803  0.3038 -0.2386  0.9093
  279MOL0     H37601   1.372   1.085   9.696 -2.2194  1.2111 -2.3912
  279MOL0     H37602   1.216   0.873   9.677  0.5495  0.3364 -0.0887
  279MOL0     H37603   1.095   0.939   9.779  1.8042  0.3408  2.0887
  279MOL0     H37604   1.054   1.116   9.642  0.6548 -1.3046  1.2087
  279MOL0     H37605   1.170   1.071   9.512 -1.8971  3.5382 -0.3022
  279MOL0     H37606   1.041   0.853   9.509  0.7182  0.6760 -0.2405
  279MOL0     H37607   0.925   0.922   9.618 -1.6333 -0.0295 -2.7072
  279MOL0     H37608   0.884   1.107   9.441 -1.1395 -1.2115  0.5085
  279MOL0     H37609   1.019   1.045   9.346  1.5234 -1.1067  1.4302
  279MOL0     H37610   0.908   0.837   9.307 -1.5714 -1.4212  0.6950
  279MOL0     H37611   0.774   0.883   9.414 -0.9176 -0.9969 -1.2787
  279MOL0     H37612   0.721   1.076   9.279  4.3061  1.9819  0.5337
  279MOL0     H37613   0.844   1.040   9.164  1.7276 -4.1918 -0.7437
  279MOL0     H37614   0.756   0.823   9.102  1.4624 -0.3656 -1.4177
  279MOL0     H37615   0.669   0.964   9.048 -1.7190 -0.2764 -0.0949
  279MOL0     H37616   0.478   1.058   9.218 -2.6196  0.6622 -2.6751
  279MOL0     H37617   0.225   1.025   9.378 -0.0768 -0.3201  1.1196
  279MOL0     H37618   0.147   0.894   9.298 -0.7142  2.5799 -0.6222
  279MOL0     H37619   0.232   0.741   9.483  1.5503  0.8790  0.3679
  279MOL0     H37620   0.135   0.875   9.557  1.8861  1.8306  1.7526
  279MOL0     H37621   0.278   0.961   9.677 -1.3483  2.4424 -2.3774
  279MOL0     H37622   0.370   1.009   9.540 -1.2450  1.1820  2.4222
  279MOL0     H37623   0.508   0.801   9.535  1.9853  1.7900  0.5713
  279MOL0     H37624   0.403   0.732   9.669  1.8569 -1.4299 -0.9675
  279MOL0     H37625   0.625   0.626   9.611  1.9120 -0.1057 -2.1588
  279MOL0     H37626   0.737   0.453   9.587 -1.5976  3.9028 -0.4533
  279MOL0     H37627   0.916   0.458   9.618  0.2038 -2.8155  3.2821
  279MOL0     H37628   0.824   0.386   9.734  0.7480  0.7933  1.5175
  279MOL0     H37629   1.205   0.335   9.636  0.5765 -3.6573 -0.0095
  279MOL0     H37630   1.412   0.222   9.672 -0.5205 -1.3854  2.3992
  279MOL0     H37631   1.625   0.184   9.689  3.6956  0.7024 -1.9715
  279MOL0     H37632   1.684   0.346   9.745 -0.3381 -1.1281 -2.5129
  279MOL0     H37633   1.866   0.170   9.751 -1.5030 -2.4119 -2.0990
  279MOL0     H37634   1.828   0.220   9.918  4.2687 -7.4715  2.5733
  279MOL0     H37635   1.703  -0.016   9.767  3.0182  2.9408 -3.0821
  279MOL0     H37636   1.684   0.022   9.936  2.0050  0.4950  1.7074
  279MOL0     H37637   1.845  -0.166   9.931  1.2568 -0.6704 -0.9926
  279MOL0     H37638   1.950  -0.086   9.823  1.5704  0.7771  1.5719
  279MOL0     H37639   1.902  -0.001  10.100 -2.5052 -0.4436 -1.0660
  279MOL0     H37640   2.011   0.091   9.988  0.1361 -0.7753  0.7007
  279MOL0     H37641   2.127  -0.061  10.130 -0.8643  2.3392 -0.7620
  279MOL0     H37642   2.048  -0.210  10.051  0.1830 -0.4060 -1.0317
  279MOL0     H37643   2.217   0.017   9.936  0.4385 -0.3650 -1.7318
  279MOL0     H37644   2.170  -0.119   9.835 -1.2551  2.0109  0.1654
  279MOL0     H37645   2.325  -0.260  10.017  2.1791 -1.1980 -2.7871
  279MOL0     H37646   2.381  -0.103  10.075  1.8781 -3.3369 -0.6056
  279MOL0     H37647   1.431   0.353  10.069 -4.0197 -0.1804  0.7066
  279MOL0     H37648   1.222   0.487  10.037  2.2065 -1.2429  0.8585
  279MOL0     H37649   0.919   0.859   9.925  0.6658  1.0346 -0.4265
  279MOL0     H37650   0.698   0.946   9.864  0.4043 -0.5147  1.5827
  279MOL0     H37651   1.503   0.816   9.945 -2.9047  1.6300  0.1555
  279MOL0     H37652   1.743   0.854  10.034  0.5420 -1.2779 -2.2115
  279MOL0     H37653   2.052   1.024  10.369 -0.2587 -2.8528 -1.7459
  279MOL0     H37654   2.264   1.132  10.452 -1.9083  1.0173  0.9533
  279MOL0     H37655   2.476   1.165  10.457 -0.1734 -1.6405 -1.2832
  279MOL0     H37656   2.521   1.131  10.290 -2.7814 -2.6169  0.6847
  279MOL0     H37657   2.613   1.325  10.501 -1.0313  2.3850 -0.2881
  279MOL0     H37658   2.622   1.385  10.335 -0.6064 -1.0112 -3.2182
  279MOL0     H37659   2.831   1.308  10.409  2.3810 -0.6881 -1.9537
  279MOL0     H37660   2.772   1.232  10.258 -0.9847  0.1526  0.4586
  279MOL0     H37661   2.898   1.086  10.403 -0.2666  1.0375  0.1410
  279MOL0     H37662   2.740   1.014  10.362  4.2955 -2.3758  0.8247
  279MOL0     H37663   2.653   1.080  10.755 -0.7756 -2.0899  0.8058
  279MOL0     H37664   2.288   1.326  10.054  2.7454  3.3832  2.7676
  279MOL0     H37665   2.081   1.216   9.998 -0.2361 -1.0466  0.6235
  280MOL0     O37666   5.347   5.216   8.907  0.2064  0.9204 -0.1283
  280MOL0     C37667   5.260   5.127   8.898 -0.5178  0.2659 -1.6165
  280MOL0     O37668   5.286   5.004   8.834  0.0477 -0.5051 -0.3628
  280MOL0     C37669   5.412   4.975   8.776  0.1276 -0.5574  0.1566
  280MOL0     C37670   5.456   4.847   8.790  0.3030 -0.0216 -0.3683
  280MOL0     C37671   5.581   4.813   8.733 -0.5177  0.4031  1.0792
  280MOL0     C37672   5.656   4.903   8.663 -1.1117  1.2461 -0.2903
  280MOL0     O37673   5.779   4.854   8.614  0.1250 -0.7553  1.1691
  280MOL0     C37674   5.807   4.887   8.478  0.8199  0.1460  0.9247
  280MOL0     C37675   5.705   4.843   8.373  0.6524  0.5572  0.6218
  280MOL0     C37676   5.757   4.835   8.223 -0.2066 -0.1218 -0.0595
  280MOL0     C37677   5.640   4.846   8.121  0.2451 -0.6203 -0.1189
  280MOL0     C37678   5.666   4.794   7.978  0.8714 -0.4894 -0.4364
  280MOL0     C37679   5.534   4.819   7.897  0.9619 -0.1737 -0.3305
  280MOL0     C37680   5.533   4.745   7.757 -0.6550 -0.1417 -1.0843
  280MOL0     C37681   5.564   4.830   7.634 -0.3098 -0.2991 -0.0476
  280MOL0     N37682   5.574   4.761   7.505  0.1703  0.6395 -0.4268
  280MOL0     C37683   5.680   4.758   7.421 -0.1306 -0.0918 -0.1618
  280MOL0     C37684   5.644   4.668   7.324 -0.4477  1.0859  0.1807
  280MOL0     C37685   5.733   4.615   7.223  0.4129  1.6220  0.1842
  280MOL0     C37686   5.665   4.537   7.114  0.4943  0.7250 -0.2568
  280MOL0     C37687   5.754   4.539   6.993  0.0183  0.1540 -0.9557
  280MOL0     C37688   5.734   4.415   6.902  0.5307  0.6980  0.0183
  280MOL0     O37689   5.600   4.398   6.850  0.5688 -0.5707  0.4964
  280MOL0     C37690   5.584   4.324   6.730  0.1629 -0.0086  0.0922
  280MOL0     C37691   5.459   4.285   6.685  0.1466 -0.0800 -0.0347
  280MOL0     C37692   5.431   4.209   6.564 -0.1671  0.3758 -0.5294
  280MOL0     C37693   5.293   4.166   6.523  0.2114  0.2631  0.6865
  280MOL0     C37694   5.539   4.176   6.479  0.0702  0.8446 -0.5389
  280MOL0     C37695   5.541   4.100   6.348 -0.6148 -0.1067 -1.0008
  280MOL0     O37696   5.663   4.051   6.306 -0.3282 -0.1114 -0.3322
  280MOL0     C37697   5.675   3.978   6.197  0.0718 -0.5305 -0.6991
  280MOL0     C37698   5.747   4.034   6.095  0.5238  0.8650  0.0548
  280MOL0     C37699   5.779   3.954   5.983 -0.7336  0.8557 -1.4559
  280MOL0     C37700   5.723   3.818   5.975 -0.0531 -0.1083 -0.4376
  280MOL0     O37701   5.724   3.744   5.860  0.2525 -0.1609  0.2810
  280MOL0     C37702   5.851   3.735   5.789 -0.1512  0.7301  0.7768
  280MOL0     C37703   5.840   3.623   5.689  0.0100  0.9407  0.3814
  280MOL0     C37704   5.961   3.600   5.610  0.3152 -1.0997  0.1074
  280MOL0     C37705   5.920   3.499   5.492  0.1613 -1.4060 -1.0187
  280MOL0     C37706   6.030   3.519   5.379 -0.1637 -0.2104 -0.8773
  280MOL0     C37707   5.984   3.537   5.237 -0.7056  0.1325 -0.2327
  280MOL0     C37708   6.098   3.515   5.134  0.3844 -0.4055 -0.4122
  280MOL0     C37709   6.048   3.555   4.994  0.0112 -0.0218  0.2015
  280MOL0    Cl37710   6.181   3.590   4.883  0.0899 -0.4467  0.5607
  280MOL0     C37711   5.644   3.764   6.084  0.1832 -0.5122  0.0131
  280MOL0     C37712   5.630   3.847   6.189  0.8823  1.2318 -0.0960
  280MOL0     O37713   5.432   4.086   6.299 -0.7486 -0.0121  0.2438
  280MOL0     C37714   5.660   4.227   6.525  0.7798 -0.1949  1.0715
  280MOL0     C37715   5.685   4.292   6.643  0.7916 -0.1409 -0.0796
  280MOL0     N37716   5.518   4.615   7.350 -0.8094  0.4541  0.0932
  280MOL0     N37717   5.483   4.665   7.463 -0.4580 -0.3211 -1.3867
  280MOL0     C37718   5.620   5.032   8.661 -0.5586 -0.9008 -0.7228
  280MOL0     C37719   5.495   5.067   8.711  0.6831  0.4948 -0.5903
  280MOL0     C37720   5.118   5.153   8.956  0.4512 -0.3313  0.6644
  280MOL0     C37721   5.031   5.051   8.958 -0.1112  0.4308 -0.6304
  280MOL0     C37722   4.912   5.073   9.019 -0.4661  0.0092  0.2720
  280MOL0     C37723   4.867   5.188   9.068  0.3929  0.0573 -0.6100
  280MOL0     O37724   4.738   5.191   9.125 -0.1074  0.1624  0.6399
  280MOL0     C37725   4.689   5.085   9.204  0.6437  0.9191  0.0717
  280MOL0     C37726   4.592   4.984   9.135  0.4706 -0.1399  0.1975
  280MOL0     C37727   4.504   5.055   9.043 -0.4476 -0.3856  0.2427
  280MOL0     C37728   4.382   4.974   9.026  0.6629  1.5174  0.0666
  280MOL0     C37729   4.295   4.970   9.142  1.2766  0.2577 -0.0571
  280MOL0     C37730   4.217   4.988   9.230 -0.2865  0.0625  0.1827
  280MOL0     C37731   4.949   5.296   9.055  0.0881 -0.1701 -0.9048
  280MOL0     C37732   5.075   5.278   8.996 -0.0754 -0.3458 -0.6878
  280MOL0     H37733   5.393   4.772   8.836  2.3905 -0.5380  1.8195
  280MOL0     H37734   5.591   4.705   8.728  0.1789  0.5022  0.2580
  280MOL0     H37735   5.824   4.992   8.456 -0.1522 -0.3987 -3.3196
  280MOL0     H37736   5.902   4.836   8.461  2.0900  2.2222  1.5051
  280MOL0     H37737   5.666   4.745   8.401 -0.8637  0.8869 -0.2444
  280MOL0     H37738   5.629   4.921   8.375 -0.2949 -0.2935 -0.7706
  280MOL0     H37739   5.830   4.911   8.192  0.5901 -1.9757 -3.1600
  280MOL0     H37740   5.816   4.744   8.211  0.7352  0.6193 -1.3419
  280MOL0     H37741   5.544   4.804   8.152 -0.6418  2.6702  2.1837
  280MOL0     H37742   5.611   4.951   8.110  1.8214 -0.2590 -1.1138
  280MOL0     H37743   5.750   4.854   7.942  2.0078  1.6588  4.7732
  280MOL0     H37744   5.688   4.687   7.982 -0.3995 -0.7706 -0.5444
  280MOL0     H37745   5.442   4.777   7.939  0.3506  0.6415 -0.8289
  280MOL0     H37746   5.526   4.928   7.890  0.4165  0.0906  2.8867
  280MOL0     H37747   5.595   4.655   7.770 -0.2606  0.2712 -0.0358
  280MOL0     H37748   5.436   4.700   7.734  0.5883 -2.8696 -1.3579
  280MOL0     H37749   5.657   4.883   7.657 -1.3467  1.4716  0.2030
  280MOL0     H37750   5.485   4.905   7.631  2.5796  3.0156  0.0330
  280MOL0     H37751   5.778   4.803   7.427  1.2613 -2.6763 -1.8948
  280MOL0     H37752   5.780   4.701   7.172 -0.5575  1.5217 -0.9190
  280MOL0     H37753   5.807   4.552   7.274 -0.2684  0.4565 -0.2363
  280MOL0     H37754   5.568   4.577   7.084 -0.0508 -2.1788 -2.9234
  280MOL0     H37755   5.650   4.434   7.145 -0.6295  0.1210 -2.6211
  280MOL0     H37756   5.853   4.532   7.039 -1.6059  0.0730  2.9068
  280MOL0     H37757   5.737   4.622   6.924 -2.7512 -1.0963 -1.9353
  280MOL0     H37758   5.755   4.320   6.952  1.1726  1.1567  0.6374
  280MOL0     H37759   5.811   4.423   6.825  0.5147  0.7805  0.0116
  280MOL0     H37760   5.369   4.323   6.731 -0.8072  1.9587 -3.2431
  280MOL0     H37761   5.210   4.185   6.592 -0.7305  2.3324 -0.9001
  280MOL0     H37762   5.261   4.216   6.431  1.4120 -0.7250 -0.3049
  280MOL0     H37763   5.272   4.059   6.509  1.8299 -0.2234  1.6786
  280MOL0     H37764   5.769   4.139   6.081 -0.8791  0.8950 -2.4459
  280MOL0     H37765   5.834   3.990   5.897  2.2395 -0.6309 -0.2909
  280MOL0     H37766   5.878   3.828   5.738  1.5048 -0.3987 -0.5115
  280MOL0     H37767   5.926   3.709   5.864 -0.6532  3.0871  2.2102
  280MOL0     H37768   5.806   3.534   5.742 -1.9570 -1.1194 -3.8238
  280MOL0     H37769   5.757   3.651   5.623  1.7737 -3.2864 -4.2463
  280MOL0     H37770   6.043   3.559   5.668 -0.2937 -0.1794  1.6861
  280MOL0     H37771   5.999   3.695   5.569 -2.1250  0.9098  2.1501
  280MOL0     H37772   5.916   3.393   5.519  1.9741 -0.8623  1.9306
  280MOL0     H37773   5.822   3.534   5.459  1.1270  1.7699 -0.8782
  280MOL0     H37774   6.102   3.439   5.396 -0.5333 -0.6888 -1.5397
  280MOL0     H37775   6.087   3.611   5.396 -1.9787  1.2577 -2.3713
  280MOL0     H37776   5.925   3.448   5.216  2.1768 -1.8649 -0.4346
  280MOL0     H37777   5.937   3.636   5.228  1.3050  1.2789  1.0515
  280MOL0     H37778   6.124   3.409   5.135 -0.7057 -0.7444 -2.7307
  280MOL0     H37779   6.178   3.588   5.153 -1.0542  0.6421  2.0496
  280MOL0     H37780   5.983   3.642   5.002 -4.0414 -2.8150  0.8218
  280MOL0     H37781   5.979   3.477   4.960 -1.3181  1.0940  0.2744
  280MOL0     H37782   5.610   3.662   6.097 -1.1865  0.1813  2.3737
  280MOL0     H37783   5.600   3.812   6.288  1.9528  1.9528  0.5038
  280MOL0     H37784   5.747   4.218   6.460 -0.9345 -1.3164 -1.2337
  280MOL0     H37785   5.786   4.333   6.649  1.8630 -2.5989 -0.3827
  280MOL0     H37786   5.687   5.104   8.615 -1.5301  0.5565  0.0695
  280MOL0     H37787   5.458   5.167   8.690  0.4436  0.4705 -0.2845
  280MOL0     H37788   5.062   4.952   8.927 -0.9931 -1.8644  4.7560
  280MOL0     H37789   4.850   4.984   9.017 -3.4104  1.6928  3.8758
  280MOL0     H37790   4.775   5.029   9.242  1.0559 -0.2797 -2.4549
  280MOL0     H37791   4.641   5.124   9.294  2.3583 -0.3739  1.6273
  280MOL0     H37792   4.543   4.938   9.222  1.1042  1.6297  1.5588
  280MOL0     H37793   4.650   4.915   9.074  0.8726  1.2582 -1.0424
  280MOL0     H37794   4.553   5.052   8.945 -0.2741 -3.5786  0.3038
  280MOL0     H37795   4.488   5.163   9.050 -1.3581 -0.1428 -3.4127
  280MOL0     H37796   4.417   4.872   9.007 -0.6124  1.0051  0.3879
  280MOL0     H37797   4.326   5.011   8.940 -1.0545  1.4127  1.0953
  280MOL0     H37798   4.143   5.002   9.307 -2.5246 -0.3552 -1.7692
  280MOL0     H37799   4.904   5.384   9.100 -1.6139 -1.7211  0.6113
  280MOL0     H37800   5.128   5.372   8.992 -2.4782  1.0395 -1.7411
  281MOL0     O37801   7.343   6.806  11.004  0.0131 -0.4891  0.2624
  281MOL0     C37802   7.226   6.852  11.014  0.3130  0.8468 -0.0174
  281MOL0     O37803   7.165   6.851  11.132  0.2720 -0.1600  0.2696
  281MOL0     C37804   7.204   6.769  11.230  0.1487  0.7847 -0.5404
  281MOL0     C37805   7.202   6.823  11.362 -0.7550  0.6386 -0.1834
  281MOL0     C37806   7.256   6.753  11.472  1.0697  0.0220  0.1349
  281MOL0     C37807   7.306   6.619  11.449  0.3589  0.6303 -0.8555
  281MOL0     O37808   7.344   6.547  11.561 -0.2144  0.2089 -0.4027
  281MOL0     C37809   7.236   6.479  11.631 -0.3622 -0.5048  0.2831
  281MOL0     C37810   7.266   6.332  11.621  0.0413 -0.2016 -0.1499
  281MOL0     C37811   7.139   6.249  11.641 -0.5264 -0.0385 -0.1452
  281MOL0     C37812   7.152   6.103  11.653  0.1983  0.3869  0.3037
  281MOL0     C37813   7.014   6.027  11.640  0.0220 -0.8608 -0.1103
  281MOL0     C37814   7.042   5.892  11.573  1.1437 -0.1225  0.4599
  281MOL0     C37815   6.925   5.798  11.540 -0.2047  0.5959 -0.2585
  281MOL0     C37816   6.834   5.778  11.670 -0.1698 -0.4163 -0.0101
  281MOL0     N37817   6.719   5.692  11.644 -0.1267 -0.4060  0.1286
  281MOL0     C37818   6.590   5.735  11.608  0.2221  0.4336 -0.2009
  281MOL0     C37819   6.529   5.629  11.547  0.0351  0.1796  0.0258
  281MOL0     C37820   6.391   5.624  11.494  0.1471 -0.2349 -0.3564
  281MOL0     C37821   6.279   5.597  11.596  0.1856  0.4100  1.1378
  281MOL0     C37822   6.284   5.442  11.634  0.3169 -0.5724  0.0849
  281MOL0     C37823   6.261   5.351  11.508  0.1928  0.0625 -0.2348
  281MOL0     O37824   6.214   5.223  11.551 -0.3476 -0.5179 -0.6455
  281MOL0     C37825   6.079   5.195  11.572  0.9033  0.1582  0.3125
  281MOL0     C37826   5.980   5.270  11.528 -0.5888 -0.0347  0.0503
  281MOL0     C37827   5.848   5.232  11.549  0.0960 -0.7294 -0.3867
  281MOL0     C37828   5.758   5.333  11.506  0.8519  0.1673 -0.3659
  281MOL0     C37829   5.815   5.120  11.625 -0.1463  0.2105  0.5406
  281MOL0     C37830   5.678   5.074  11.657  0.8263  1.1629  0.8797
  281MOL0     O37831   5.653   4.948  11.707  0.8093  0.8803  0.2075
  281MOL0     C37832   5.526   4.908  11.732  1.1733  0.1864 -0.3114
  281MOL0     C37833   5.444   4.842  11.637 -0.0120 -0.1215 -0.3923
  281MOL0     C37834   5.326   4.790  11.679 -0.7464  1.2910  0.0856
  281MOL0     C37835   5.285   4.791  11.811 -0.3586 -0.7478  0.0589
  281MOL0     O37836   5.169   4.735  11.839 -0.9144  0.0280 -0.1477
  281MOL0     C37837   5.169   4.621  11.926 -0.8195  0.2170 -0.5196
  281MOL0     C37838   5.275   4.508  11.899 -0.2805 -0.4085  0.1034
  281MOL0     C37839   5.270   4.394  11.995 -0.2804 -0.8070 -0.5305
  281MOL0     C37840   5.378   4.289  11.971 -0.0344 -0.1123  0.6419
  281MOL0     C37841   5.519   4.339  12.009  0.4318 -0.0499 -0.5362
  281MOL0     C37842   5.636   4.273  11.944  0.5871 -0.7934  0.5570
  281MOL0     C37843   5.753   4.357  11.968  0.7312 -0.2216  0.3146
  281MOL0     C37844   5.877   4.272  11.924  0.3046 -0.5364 -0.2823
  281MOL0    Cl37845   6.036   4.341  11.978 -0.1001  0.2187  0.1846
  281MOL0     C37846   5.363   4.862  11.908  0.5506 -0.2128  0.7413
  281MOL0     C37847   5.479   4.923  11.864 -0.6891 -0.2013  0.5675
  281MOL0     O37848   5.587   5.158  11.647  0.3514 -0.0944 -0.7130
  281MOL0     C37849   5.918   5.046  11.677  0.1243 -0.4397  0.6439
  281MOL0     C37850   6.052   5.078  11.633  0.1865 -0.3276 -0.4476
  281MOL0     N37851   6.621   5.525  11.551 -0.5821  0.9840  0.0677
  281MOL0     N37852   6.729   5.563  11.605 -0.0487  0.3188  0.0908
  281MOL0     C37853   7.315   6.561  11.321 -0.0330 -0.3550  0.0138
  281MOL0     C37854   7.251   6.635  11.215  0.0933  0.8436  0.0556
  281MOL0     C37855   7.160   6.915  10.900 -1.2723 -0.8842  0.2318
  281MOL0     C37856   7.193   6.880  10.768 -0.2603 -0.8358  0.3794
  281MOL0     C37857   7.134   6.941  10.660  0.3648 -0.2809  0.0173
  281MOL0     C37858   7.030   7.038  10.685  0.7067 -0.2426 -0.0461
  281MOL0     O37859   6.958   7.109  10.595 -0.1452  0.0937  0.5095
  281MOL0     C37860   6.999   7.124  10.453 -0.3148  0.8229 -0.8679
  281MOL0     C37861   6.886   7.204  10.396  0.8507  0.6766 -0.8423
  281MOL0     C37862   6.751   7.127  10.395 -0.9305  0.0027  1.1654
  281MOL0     C37863   6.728   7.025  10.290 -0.3371 -0.5915 -1.1028
  281MOL0     C37864   6.836   6.930  10.270 -0.0405  0.1239 -0.5801
  281MOL0     C37865   6.925   6.850  10.232 -0.2948 -0.4606  0.3448
  281MOL0     C37866   6.994   7.061  10.815  0.6992  0.0768  1.2377
  281MOL0     C37867   7.054   7.001  10.922 -0.4606  0.6691 -0.9716
  281MOL0     H37868   7.150   6.917  11.373 -0.3365  0.7332  1.1182
  281MOL0     H37869   7.253   6.788  11.575  0.2015  0.1237  0.0826
  281MOL0     H37870   7.232   6.505  11.737 -2.8533 -1.9199  0.6246
  281MOL0     H37871   7.142   6.511  11.584  1.0191  3.4296 -0.1842
  281MOL0     H37872   7.319   6.304  11.530  3.3795  0.7244  1.3626
  281MOL0     H37873   7.338   6.306  11.698  0.1450 -2.1778 -0.8584
  281MOL0     H37874   7.088   6.284  11.731 -0.3014 -0.2690  0.0737
  281MOL0     H37875   7.077   6.273  11.554  2.2091 -0.2975 -2.3020
  281MOL0     H37876   7.221   6.072  11.573  2.3347  2.2250  1.3380
  281MOL0     H37877   7.203   6.070  11.745  2.0335  0.4727 -0.6363
  281MOL0     H37878   6.975   6.018  11.742  1.5909 -0.7804  0.5208
  281MOL0     H37879   6.939   6.088  11.588  0.3473 -1.0813 -0.8536
  281MOL0     H37880   7.083   5.910  11.473 -4.5446 -1.2054 -2.4716
  281MOL0     H37881   7.114   5.840  11.637  0.2375  0.9683  2.4673
  281MOL0     H37882   6.873   5.841  11.454 -0.0993  1.6945  0.2093
  281MOL0     H37883   6.954   5.696  11.514 -2.2550  0.4082 -2.1273
  281MOL0     H37884   6.798   5.879  11.694 -1.3543 -1.3858  2.6185
  281MOL0     H37885   6.891   5.733  11.751 -0.2537  0.9679  0.8453
  281MOL0     H37886   6.541   5.831  11.604 -1.0104 -0.0210  2.1326
  281MOL0     H37887   6.368   5.729  11.471 -0.2550 -0.1595  0.3529
  281MOL0     H37888   6.392   5.567  11.401  0.3795  2.5599 -2.1629
  281MOL0     H37889   6.176   5.608  11.560  0.4169 -0.0056  0.3247
  281MOL0     H37890   6.295   5.648  11.692 -2.9578  0.1459  1.9142
  281MOL0     H37891   6.213   5.408  11.710  0.2548  2.5493  1.5450
  281MOL0     H37892   6.374   5.418  11.690  0.1167  0.4975  0.8858
  281MOL0     H37893   6.356   5.335  11.456  0.2619 -0.2874 -0.0077
  281MOL0     H37894   6.200   5.399  11.432  0.5816 -0.7430 -1.0783
  281MOL0     H37895   5.998   5.371  11.493  1.7400 -0.7595 -0.9750
  281MOL0     H37896   5.734   5.383  11.601 -0.6694  0.0855 -0.6888
  281MOL0     H37897   5.805   5.412  11.447 -0.1688  0.2340 -1.1261
  281MOL0     H37898   5.670   5.294  11.455  1.6918 -0.8513 -1.0762
  281MOL0     H37899   5.486   4.822  11.539  0.9204 -0.4846  0.0750
  281MOL0     H37900   5.268   4.740  11.603  2.5249 -2.2782 -0.3795
  281MOL0     H37901   5.180   4.651  12.031 -2.3478  3.6935 -1.2320
  281MOL0     H37902   5.068   4.581  11.913 -1.2085  1.0172  0.0271
  281MOL0     H37903   5.266   4.483  11.793 -0.2265  1.4860 -0.3794
  281MOL0     H37904   5.372   4.557  11.911 -0.1310 -1.2464  3.1644
  281MOL0     H37905   5.174   4.344  11.980 -1.2352  1.5162 -2.8912
  281MOL0     H37906   5.282   4.432  12.097 -0.2398 -0.2837 -0.7289
  281MOL0     H37907   5.360   4.196  12.026  3.7988 -0.0333  2.4090
  281MOL0     H37908   5.388   4.267  11.865 -1.1760 -0.4286  0.5934
  281MOL0     H37909   5.527   4.326  12.118  0.0004  1.3072 -0.3206
  281MOL0     H37910   5.524   4.445  11.983  2.4637 -0.3327 -1.4570
  281MOL0     H37911   5.648   4.172  11.984  4.0932 -0.2957  1.1183
  281MOL0     H37912   5.610   4.269  11.838 -1.1620 -1.4783  0.9788
  281MOL0     H37913   5.780   4.366  12.073 -1.1696 -1.2936  0.9355
  281MOL0     H37914   5.749   4.450  11.911  2.2111 -0.9993 -1.1454
  281MOL0     H37915   5.868   4.256  11.817 -1.9359  1.4536 -0.4838
  281MOL0     H37916   5.877   4.169  11.961  1.9678 -1.1862 -1.9329
  281MOL0     H37917   5.323   4.868  12.008 -3.4586  1.2887 -0.7307
  281MOL0     H37918   5.555   4.953  11.936  1.0696 -4.1988  0.6672
  281MOL0     H37919   5.909   4.963  11.747  0.2422  1.0717  2.5284
  281MOL0     H37920   6.129   5.017  11.678 -1.2546 -1.8861  0.0298
  281MOL0     H37921   7.354   6.459  11.318  2.0084  0.3227  1.3954
  281MOL0     H37922   7.253   6.586  11.118  0.0251 -0.4075  0.6611
  281MOL0     H37923   7.258   6.796  10.745 -2.2634 -2.8310  1.6124
  281MOL0     H37924   7.164   6.934  10.556 -0.1581  1.1229 -0.2515
  281MOL0     H37925   7.098   7.168  10.461 -0.4302  0.7233  1.9445
  281MOL0     H37926   7.006   7.026  10.404  1.3490 -0.2571  1.3553
  281MOL0     H37927   6.913   7.232  10.294 -0.3783 -1.6051 -1.8522
  281MOL0     H37928   6.859   7.299  10.444 -0.9984  0.8986 -2.1984
  281MOL0     H37929   6.679   7.206  10.372  1.5753  1.8150 -1.1441
  281MOL0     H37930   6.737   7.076  10.491 -2.0265 -1.9018  0.0442
  281MOL0     H37931   6.703   7.076  10.197 -5.5847 -1.2258 -0.3691
  281MOL0     H37932   6.634   6.980  10.324 -0.4424  0.2045 -0.2913
  281MOL0     H37933   6.992   6.772  10.201  0.2652 -0.6472  1.9011
  281MOL0     H37934   6.920   7.135  10.842  1.7538  2.8548 -2.7086
  281MOL0     H37935   7.015   7.029  11.019  0.6168 -0.2585 -0.2459
  282MOL0     O37936   2.404   2.484   9.978  0.3283 -0.0634 -0.3886
  282MOL0     C37937   2.293   2.441   9.955 -0.3544  0.9660 -0.4311
  282MOL0     O37938   2.185   2.513   9.921  0.6541 -0.1159 -0.1768
  282MOL0     C37939   2.207   2.647   9.899  0.8612  0.1330 -0.2116
  282MOL0     C37940   2.115   2.731   9.970 -1.1834 -1.2332 -0.3671
  282MOL0     C37941   2.138   2.874   9.962 -1.0146  0.5195 -0.1849
  282MOL0     C37942   2.232   2.927   9.872  0.1801  0.0489  0.0450
  282MOL0     O37943   2.244   3.059   9.849 -0.0280 -0.5654 -1.0311
  282MOL0     C37944   2.189   3.150   9.948  0.4033  0.2291 -0.3242
  282MOL0     C37945   2.251   3.296   9.932  0.4501 -0.1077  0.6650
  282MOL0     C37946   2.412   3.287   9.929 -0.2694  0.0269 -0.5776
  282MOL0     C37947   2.480   3.422   9.897  1.2514 -0.5847  0.2815
  282MOL0     C37948   2.626   3.424   9.920 -0.3043 -0.2973 -0.0365
  282MOL0     C37949   2.715   3.544   9.880  0.1056  1.0745  0.5303
  282MOL0     C37950   2.866   3.511   9.891 -0.2777 -0.4579 -0.5285
  282MOL0     C37951   2.951   3.630   9.916 -0.0455 -1.0793 -0.2571
  282MOL0     N37952   3.059   3.648   9.823  0.2885  0.7991  0.0944
  282MOL0     C37953   3.190   3.660   9.861 -0.8057 -0.0824  0.5567
  282MOL0     C37954   3.245   3.723   9.759 -0.5908  0.0741  0.4007
  282MOL0     C37955   3.390   3.755   9.754 -0.6221 -0.1705  0.4039
  282MOL0     C37956   3.448   3.735   9.619 -0.0382 -0.3306 -0.5434
  282MOL0     C37957   3.425   3.600   9.554  0.1440  0.4253 -0.4348
  282MOL0     C37958   3.440   3.481   9.643  0.5594  0.8941  0.4271
  282MOL0     O37959   3.403   3.367   9.563  0.3257 -0.9534 -0.2432
  282MOL0     C37960   3.396   3.247   9.626  0.1939 -0.1712  0.6609
  282MOL0     C37961   3.512   3.169   9.630  1.2012 -0.7599  0.1739
  282MOL0     C37962   3.510   3.035   9.666 -0.4864  0.6168  0.0169
  282MOL0     C37963   3.639   2.968   9.664  0.3266 -0.4141  1.3062
  282MOL0     C37964   3.393   2.973   9.709  0.0556  0.6939  0.7664
  282MOL0     C37965   3.375   2.824   9.750  0.5849  0.2556 -0.6767
  282MOL0     O37966   3.251   2.767   9.735 -0.3356  0.2454  1.7042
  282MOL0     C37967   3.238   2.633   9.770  0.5577 -0.7889  1.2060
  282MOL0     C37968   3.189   2.534   9.671  1.0016  0.5556  0.0151
  282MOL0     C37969   3.158   2.409   9.731 -0.2406  0.2453  0.0839
  282MOL0     C37970   3.186   2.366   9.859 -0.0866  0.4622  0.4691
  282MOL0     O37971   3.159   2.242   9.909 -0.1595  0.0550 -0.6667
  282MOL0     C37972   3.147   2.137   9.811  0.1962  0.3886 -0.3581
  282MOL0     C37973   3.133   1.995   9.877 -0.4758 -1.0297  1.3687
  282MOL0     C37974   3.012   1.947   9.958 -0.1217 -0.8472 -0.3768
  282MOL0     C37975   3.033   1.817  10.026 -1.3212  0.6190 -0.7439
  282MOL0     C37976   3.033   1.696   9.932  0.6071 -0.4736  0.5794
  282MOL0     C37977   3.072   1.570  10.000 -0.1621 -0.1582 -0.1432
  282MOL0     C37978   3.028   1.430   9.943  0.4951  0.0270  0.1126
  282MOL0     C37979   3.099   1.310  10.014  0.4099  0.3332 -0.5942
  282MOL0    Cl37980   3.073   1.298  10.196  0.0209  0.1026  0.1467
  282MOL0     C37981   3.230   2.466   9.944 -0.2724  0.3014 -0.0077
  282MOL0     C37982   3.249   2.594   9.902  0.0011 -1.1747  0.0970
  282MOL0     O37983   3.470   2.773   9.808  0.2162  0.8231  0.3034
  282MOL0     C37984   3.279   3.057   9.720  0.6052  0.0279  0.9395
  282MOL0     C37985   3.283   3.183   9.675 -1.0345 -0.8547  0.7613
  282MOL0     N37986   3.154   3.752   9.661  0.2066 -0.2895 -0.7918
  282MOL0     N37987   3.044   3.695   9.696 -0.2607  0.8574 -0.2352
  282MOL0     C37988   2.321   2.839   9.803  0.3302 -0.2635 -0.5833
  282MOL0     C37989   2.305   2.699   9.818  0.3215  0.6566  0.2536
  282MOL0     C37990   2.278   2.294   9.971  0.8064  0.1944  0.3318
  282MOL0     C37991   2.364   2.212  10.054  0.3746  0.3677  0.8432
  282MOL0     C37992   2.333   2.072  10.065  0.5938 -0.3832  0.3063
  282MOL0     C37993   2.229   2.019   9.989  0.6385 -0.4289 -0.5995
  282MOL0     O37994   2.193   1.889   9.993  0.0257 -0.0547 -1.0667
  282MOL0     C37995   2.276   1.789  10.052 -1.0719  0.6759  0.1571
  282MOL0     C37996   2.403   1.754   9.973 -0.6612 -0.5025  0.1539
  282MOL0     C37997   2.482   1.633  10.031  0.6349 -0.2770 -0.7097
  282MOL0     C37998   2.636   1.653  10.051 -0.1216  0.3510  0.2974
  282MOL0     C37999   2.664   1.782  10.117  0.3481  0.4670 -0.2256
  282MOL0     C38000   2.691   1.893  10.163  0.4922  0.6342 -0.6003
  282MOL0     C38001   2.156   2.091   9.891 -0.5653  0.4634  0.2231
  282MOL0     C38002   2.174   2.224   9.895 -0.6228 -0.0526  0.0890
  282MOL0     H38003   2.040   2.702  10.043 -0.3181 -2.6952 -0.0262
  282MOL0     H38004   2.063   2.937  10.010 -3.0938 -2.9662  1.6025
  282MOL0     H38005   2.081   3.166   9.952  0.3828 -0.0988  0.7966
  282MOL0     H38006   2.237   3.113  10.039  3.8460 -1.6811 -2.7053
  282MOL0     H38007   2.214   3.342   9.840 -0.4577 -0.8372  0.6466
  282MOL0     H38008   2.224   3.369  10.009 -0.3322  0.0983  0.2084
  282MOL0     H38009   2.434   3.243  10.027 -3.6433 -0.1007  0.2631
  282MOL0     H38010   2.453   3.213   9.859 -1.0289  0.4508 -1.4977
  282MOL0     H38011   2.465   3.449   9.792 -0.0670  0.3180  0.6850
  282MOL0     H38012   2.441   3.510   9.949  0.3455 -2.5523  3.1721
  282MOL0     H38013   2.654   3.406  10.024 -0.3299 -0.2920 -0.0284
  282MOL0     H38014   2.652   3.344   9.850 -1.0298  0.1919 -0.8905
  282MOL0     H38015   2.696   3.584   9.781  0.5373 -0.7047 -0.3156
  282MOL0     H38016   2.681   3.627   9.943 -0.4270 -0.5502  2.5088
  282MOL0     H38017   2.877   3.429   9.962  1.4649 -1.4274 -1.8502
  282MOL0     H38018   2.895   3.477   9.791  1.0994 -0.8220 -0.0282
  282MOL0     H38019   2.984   3.646  10.019 -0.2861  0.7222 -0.4354
  282MOL0     H38020   2.893   3.719   9.890  1.6360 -0.3204 -1.6165
  282MOL0     H38021   3.226   3.619   9.955 -0.7516  1.0445  1.0451
  282MOL0     H38022   3.397   3.861   9.783  0.2160  0.0215 -0.4762
  282MOL0     H38023   3.432   3.706   9.843  1.5804  0.0140 -0.4855
  282MOL0     H38024   3.554   3.761   9.610 -0.2462  0.0455 -2.3048
  282MOL0     H38025   3.400   3.804   9.550 -2.5054 -2.2833 -0.9251
  282MOL0     H38026   3.501   3.572   9.481  0.7097 -2.6171  1.1648
  282MOL0     H38027   3.323   3.596   9.514 -0.0721 -0.1275  0.1585
  282MOL0     H38028   3.373   3.481   9.729  0.7253  1.3115  0.5579
  282MOL0     H38029   3.543   3.459   9.670 -0.5943 -4.6845  1.6097
  282MOL0     H38030   3.605   3.220   9.606  0.8181 -0.8210 -1.5422
  282MOL0     H38031   3.715   3.027   9.612  2.5618 -1.7146  2.8952
  282MOL0     H38032   3.686   2.955   9.761  1.1011  0.8567  1.1245
  282MOL0     H38033   3.621   2.871   9.617  1.5335 -2.9564  5.5636
  282MOL0     H38034   3.161   2.569   9.572  1.7789  5.3477  1.2614
  282MOL0     H38035   3.110   2.342   9.661 -0.4609  1.7626 -1.2783
  282MOL0     H38036   3.061   2.161   9.748 -0.1066  1.8171  0.5668
  282MOL0     H38037   3.236   2.137   9.748 -0.1325  1.6864 -0.8441
  282MOL0     H38038   3.159   1.916   9.807  0.9933  1.2290 -0.8225
  282MOL0     H38039   3.213   1.997   9.952 -0.2176 -0.0371  1.0934
  282MOL0     H38040   2.917   1.944   9.905 -0.4270 -2.0978  0.1990
  282MOL0     H38041   2.996   2.022  10.037  1.5305 -0.0067 -0.8032
  282MOL0     H38042   3.124   1.821  10.087 -0.6178 -0.5216 -1.6807
  282MOL0     H38043   2.962   1.800  10.107  1.6287 -2.4131  1.4566
  282MOL0     H38044   3.090   1.705   9.839 -0.8115  0.1661 -0.2593
  282MOL0     H38045   2.932   1.680   9.895  0.6741  0.5320 -0.0742
  282MOL0     H38046   3.182   1.576  10.001 -0.2363  1.9213  0.0950
  282MOL0     H38047   3.025   1.567  10.098 -0.0287 -2.0565 -0.0910
  282MOL0     H38048   3.046   1.419   9.836 -1.9998 -1.6753 -0.2060
  282MOL0     H38049   2.919   1.417   9.945 -0.1494  3.1070 -3.3563
  282MOL0     H38050   3.207   1.315   9.997  1.1180 -0.2128  2.9820
  282MOL0     H38051   3.052   1.222   9.970 -2.2603 -0.2519  2.9792
  282MOL0     H38052   3.274   2.445  10.041  0.3211 -1.9821 -0.7181
  282MOL0     H38053   3.293   2.662   9.974  0.1242 -2.3558  1.1905
  282MOL0     H38054   3.182   3.013   9.741  0.3269 -0.1413 -0.6030
  282MOL0     H38055   3.191   3.241   9.672 -0.6043 -0.1591  0.9281
  282MOL0     H38056   2.399   2.882   9.742 -2.0018 -1.5306 -4.9533
  282MOL0     H38057   2.376   2.631   9.772 -1.4693 -0.3306 -1.1624
  282MOL0     H38058   2.449   2.265  10.095  1.7939 -0.4811 -0.8556
  282MOL0     H38059   2.390   1.996  10.117 -1.2920 -1.0229  1.5629
  282MOL0     H38060   2.296   1.826  10.153 -2.1886  0.1226  0.5947
  282MOL0     H38061   2.221   1.696  10.066  1.4896 -0.6358  2.3920
  282MOL0     H38062   2.466   1.840   9.948 -0.8358 -0.3344  0.2792
  282MOL0     H38063   2.366   1.717   9.877  2.3573 -1.8936 -0.5758
  282MOL0     H38064   2.454   1.552   9.963  0.3989  0.1241 -1.0910
  282MOL0     H38065   2.425   1.616  10.123 -2.5055  1.8494 -2.0808
  282MOL0     H38066   2.690   1.642   9.957  3.2808  0.5542  2.0705
  282MOL0     H38067   2.674   1.579  10.122  0.7406 -0.3757 -0.8798
  282MOL0     H38068   2.713   1.993  10.197 -1.8691  0.5639  1.4305
  282MOL0     H38069   2.075   2.061   9.826 -1.0658  0.7557  0.7025
  282MOL0     H38070   2.124   2.284   9.820  1.9180  5.2491  2.1033
  283MOL0     O38071   5.491   4.710   9.802  0.2817  0.9535  0.5532
  283MOL0     C38072   5.389   4.774   9.809 -0.6426 -0.3330  0.1107
  283MOL0     O38073   5.381   4.903   9.781  0.5707  0.1248  0.0106
  283MOL0     C38074   5.480   4.975   9.723  0.4471 -0.1230  0.7927
  283MOL0     C38075   5.618   4.955   9.722  0.7532  0.3059  0.7123
  283MOL0     C38076   5.707   5.040   9.657 -0.2615 -0.1762 -0.9584
  283MOL0     C38077   5.669   5.158   9.591 -0.3811  0.3010 -0.1574
  283MOL0     O38078   5.761   5.234   9.520 -0.1526 -0.2005 -0.0751
  283MOL0     C38079   5.819   5.166   9.397  0.9072 -0.6909 -1.0172
  283MOL0     C38080   5.877   5.274   9.305 -0.0835  0.1828  0.3601
  283MOL0     C38081   5.968   5.374   9.365  0.4575 -0.2148  0.6250
  283MOL0     C38082   5.997   5.481   9.265 -0.1554 -0.2600  0.1859
  283MOL0     C38083   6.064   5.445   9.132  0.4473 -0.1622  0.3981
  283MOL0     C38084   6.201   5.385   9.157 -0.8950  0.1241  0.0177
  283MOL0     C38085   6.287   5.359   9.028 -1.4257  0.5462 -0.0859
  283MOL0     C38086   6.307   5.472   8.930 -0.1242 -0.5428  0.1583
  283MOL0     N38087   6.399   5.452   8.821  0.3007  0.0109 -0.7661
  283MOL0     C38088   6.528   5.496   8.839  0.8351 -0.9591 -0.1185
  283MOL0     C38089   6.593   5.460   8.723 -0.5311 -0.4472  0.1331
  283MOL0     C38090   6.742   5.490   8.692 -0.7689  0.5283 -0.4174
  283MOL0     C38091   6.772   5.582   8.584  0.8716  0.3126  0.2890
  283MOL0     C38092   6.922   5.628   8.554 -0.5812 -0.2721 -0.4667
  283MOL0     C38093   6.982   5.715   8.667 -0.1039  0.7463  0.2136
  283MOL0     O38094   7.091   5.793   8.602  0.0275  0.1559  0.1720
  283MOL0     C38095   7.207   5.797   8.688  0.7218 -1.0270 -0.2051
  283MOL0     C38096   7.315   5.711   8.672 -0.8276  0.7465  0.2980
  283MOL0     C38097   7.426   5.725   8.753  0.1115  0.1556  0.2073
  283MOL0     C38098   7.532   5.621   8.718  0.9187  0.7875  0.0247
  283MOL0     C38099   7.425   5.825   8.857 -0.3658  0.2099  0.7590
  283MOL0     C38100   7.527   5.844   8.966  1.3693  0.4393  0.8679
  283MOL0     O38101   7.511   5.940   9.059  0.2517 -0.0997 -0.2143
  283MOL0     C38102   7.617   5.978   9.130  0.7341 -1.2481  1.2329
  283MOL0     C38103   7.647   6.113   9.149 -0.8162  0.4193 -0.4279
  283MOL0     C38104   7.751   6.156   9.229  0.4553  0.8466 -0.6675
  283MOL0     C38105   7.827   6.064   9.288 -0.9471 -0.5342 -0.7277
  283MOL0     O38106   7.942   6.112   9.344  0.3782 -0.0046 -0.1775
  283MOL0     C38107   8.056   6.022   9.350 -0.5370 -1.6962 -1.0090
  283MOL0     C38108   8.171   6.110   9.397  0.4824  0.4045 -0.0336
  283MOL0     C38109   8.173   6.162   9.551 -0.5868  0.0476 -0.4039
  283MOL0     C38110   8.303   6.236   9.580 -0.1652 -0.1431 -0.4694
  283MOL0     C38111   8.322   6.267   9.722 -0.0976  0.0237  0.1414
  283MOL0     C38112   8.450   6.336   9.744 -0.3665 -0.6780  0.1256
  283MOL0     C38113   8.468   6.460   9.662 -0.4216 -0.4850  0.1522
  283MOL0     C38114   8.599   6.538   9.694 -0.1271 -0.2964 -0.1550
  283MOL0    Cl38115   8.694   6.540   9.546 -0.2076  0.0178  0.1084
  283MOL0     C38116   7.800   5.926   9.279  0.4075  0.3642 -0.9722
  283MOL0     C38117   7.684   5.886   9.207  0.3557 -0.5743  0.6445
  283MOL0     O38118   7.626   5.776   8.948 -0.5519  0.4719 -0.3374
  283MOL0     C38119   7.313   5.905   8.867  0.0145  0.2201 -0.1184
  283MOL0     C38120   7.203   5.889   8.786  0.7862  0.1027 -0.3146
  283MOL0     N38121   6.498   5.406   8.636 -0.1164 -0.2197  0.1465
  283MOL0     N38122   6.388   5.397   8.701  0.4451  0.6019  0.1298
  283MOL0     C38123   5.530   5.175   9.584 -0.9680 -0.1744  0.0761
  283MOL0     C38124   5.440   5.086   9.650  0.7135  0.7974 -0.3480
  283MOL0     C38125   5.271   4.705   9.841  0.8436 -0.5204 -0.5862
  283MOL0     C38126   5.151   4.777   9.841 -0.6111  0.4136  0.9040
  283MOL0     C38127   5.037   4.718   9.884  1.2485  0.2608  1.0558
  283MOL0     C38128   5.031   4.582   9.928  0.4162 -0.8647 -0.2396
  283MOL0     O38129   4.917   4.516   9.979 -0.1987  0.2036  0.7561
  283MOL0     C38130   4.917   4.500  10.120  0.7624 -0.0046  0.7155
  283MOL0     C38131   4.799   4.582  10.172 -0.6399 -0.5416 -0.7568
  283MOL0     C38132   4.657   4.535  10.138  0.2385 -0.3616 -0.1358
  283MOL0     C38133   4.548   4.617  10.209  0.9005 -0.5837  0.8276
  283MOL0     C38134   4.415   4.607  10.150 -0.0093 -0.2105  0.2555
  283MOL0     C38135   4.306   4.573  10.122 -0.4117 -0.8860  0.2040
  283MOL0     C38136   5.151   4.518   9.945 -0.7544 -0.5129 -0.2821
  283MOL0     C38137   5.271   4.573   9.894  1.0779  0.6460 -0.6504
  283MOL0     H38138   5.650   4.864   9.770 -1.2008  0.5096  2.5409
  283MOL0     H38139   5.811   5.009   9.670  0.1055  1.3534 -0.0423
  283MOL0     H38140   5.893   5.093   9.432  2.5336  1.0495 -0.6740
  283MOL0     H38141   5.741   5.121   9.334 -2.7077  0.7500  2.0490
  283MOL0     H38142   5.929   5.224   9.223 -3.5534 -0.0131 -1.9203
  283MOL0     H38143   5.797   5.334   9.261  0.2232  2.4334  2.6114
  283MOL0     H38144   5.915   5.418   9.450 -3.3989  0.0539 -1.6945
  283MOL0     H38145   6.063   5.340   9.408  2.2336 -1.0328 -3.4408
  283MOL0     H38146   5.915   5.549   9.239  1.9067  2.8793  1.3006
  283MOL0     H38147   6.059   5.549   9.323  0.6367 -0.6610 -0.1686
  283MOL0     H38148   6.001   5.375   9.077 -0.5500 -0.9345  2.4195
  283MOL0     H38149   6.071   5.544   9.086 -0.7713  0.6743  1.9188
  283MOL0     H38150   6.255   5.450   9.226  1.3051 -4.1381  2.7346
  283MOL0     H38151   6.193   5.284   9.197  1.3582 -0.4470 -0.8739
  283MOL0     H38152   6.381   5.320   9.069 -0.4579  1.2667 -1.5397
  283MOL0     H38153   6.247   5.272   8.975 -0.5820 -1.4549  2.3474
  283MOL0     H38154   6.342   5.559   8.986 -4.7360  1.8059 -0.1791
  283MOL0     H38155   6.215   5.503   8.880  0.0808  1.0929  0.7348
  283MOL0     H38156   6.575   5.533   8.929  0.8162 -2.0734  0.3658
  283MOL0     H38157   6.778   5.543   8.781  0.8021  0.2971 -0.8960
  283MOL0     H38158   6.789   5.391   8.689  2.3731  1.9280 -1.8631
  283MOL0     H38159   6.711   5.669   8.611 -0.6007 -0.8176  0.6964
  283MOL0     H38160   6.729   5.550   8.489 -0.4705  2.4480  0.1039
  283MOL0     H38161   6.910   5.704   8.476  3.2035  1.2362  0.2246
  283MOL0     H38162   6.988   5.544   8.532 -1.0964 -0.5587 -0.9569
  283MOL0     H38163   7.030   5.647   8.737  0.6213 -0.2551 -1.2113
  283MOL0     H38164   6.911   5.786   8.711 -1.5338  1.6217 -3.1650
  283MOL0     H38165   7.311   5.643   8.587  1.7260  1.5151 -0.5246
  283MOL0     H38166   7.618   5.680   8.684  0.4358  0.4487 -1.9101
  283MOL0     H38167   7.551   5.562   8.808 -2.2973 -0.5613 -0.0708
  283MOL0     H38168   7.502   5.542   8.649  0.7111  0.2909  0.6722
  283MOL0     H38169   7.608   6.193   9.087  0.1443  0.7009 -0.6875
  283MOL0     H38170   7.777   6.261   9.230 -2.1775  1.6505  2.6164
  283MOL0     H38171   8.049   5.944   9.426 -2.2450 -0.7353 -0.1203
  283MOL0     H38172   8.091   5.974   9.258 -0.6957 -0.8372 -1.5296
  283MOL0     H38173   8.260   6.047   9.383  0.8195  0.3452  2.0423
  283MOL0     H38174   8.183   6.199   9.335 -2.7372  1.7811  1.1473
  283MOL0     H38175   8.188   6.087   9.629  0.2225  2.5643  2.0388
  283MOL0     H38176   8.091   6.226   9.585  1.4191  1.5035  2.0781
  283MOL0     H38177   8.389   6.171   9.565  0.2733  0.3169 -0.0177
  283MOL0     H38178   8.304   6.324   9.515 -1.0759  0.8430  0.7872
  283MOL0     H38179   8.326   6.172   9.776  1.0114 -0.7772 -1.2685
  283MOL0     H38180   8.244   6.334   9.759 -0.3712  1.2633 -2.4721
  283MOL0     H38181   8.473   6.362   9.848  4.1944  0.3982 -0.9195
  283MOL0     H38182   8.523   6.261   9.713  1.2325 -0.2909  2.6723
  283MOL0     H38183   8.386   6.530   9.682  2.0815  2.5295  0.6856
  283MOL0     H38184   8.466   6.437   9.556  0.5982  2.9694 -0.7401
  283MOL0     H38185   8.659   6.478   9.763 -2.6979 -2.1215  0.6589
  283MOL0     H38186   8.581   6.638   9.734 -0.4779 -0.3139 -0.2655
  283MOL0     H38187   7.865   5.849   9.320  0.1034  1.3313  1.4455
  283MOL0     H38188   7.656   5.782   9.195 -0.5175 -0.2078 -0.7554
  283MOL0     H38189   7.314   5.985   8.941  2.9608  0.6117 -0.4756
  283MOL0     H38190   7.116   5.954   8.793  0.7017 -0.0368 -0.0193
  283MOL0     H38191   5.496   5.248   9.511 -2.4507 -3.0506 -2.3160
  283MOL0     H38192   5.334   5.096   9.630  0.7826  1.6367 -0.3298
  283MOL0     H38193   5.140   4.872   9.789 -0.4551  0.2342  0.5345
  283MOL0     H38194   4.955   4.789   9.885 -0.4408 -1.4349 -2.1311
  283MOL0     H38195   4.914   4.399  10.161 -3.2933  0.2368  1.3368
  283MOL0     H38196   5.006   4.554  10.155 -0.6982  3.1059  0.0038
  283MOL0     H38197   4.813   4.689  10.151 -0.1013  0.0251  2.0726
  283MOL0     H38198   4.792   4.582  10.281  0.2613  1.4094 -0.6493
  283MOL0     H38199   4.624   4.438  10.177  0.0431 -1.0453 -1.9061
  283MOL0     H38200   4.633   4.537  10.031  0.9502  1.0357 -0.2916
  283MOL0     H38201   4.575   4.719  10.237 -0.5608  0.1487 -0.2849
  283MOL0     H38202   4.539   4.573  10.309  4.2126  2.4919  2.7227
  283MOL0     H38203   4.204   4.549  10.100 -0.2813 -1.3866  0.1323
  283MOL0     H38204   5.159   4.429  10.005 -2.0976 -0.9647 -0.7353
  283MOL0     H38205   5.368   4.523   9.897  0.8004  0.1194  2.1047
  284MOL0     O38206   0.495   5.227   6.318  0.0013  0.0167 -0.3512
  284MOL0     C38207   0.469   5.141   6.407  0.0715 -0.9262 -0.0132
  284MOL0     O38208   0.554   5.093   6.502  0.1620 -0.5506  0.2137
  284MOL0     C38209   0.683   5.125   6.498 -0.0052  0.7024  0.1099
  284MOL0     C38210   0.774   5.142   6.387  0.3284 -0.0823  0.6459
  284MOL0     C38211   0.915   5.155   6.415  0.5740 -0.6182 -0.0074
  284MOL0     C38212   0.961   5.143   6.545 -0.2379 -0.4760  0.3830
  284MOL0     O38213   1.095   5.154   6.558 -0.1804 -0.4301 -0.8504
  284MOL0     C38214   1.151   5.261   6.633 -0.0161 -0.4404 -1.0326
  284MOL0     C38215   1.098   5.389   6.594 -1.3135 -0.1555  0.3283
  284MOL0     C38216   1.174   5.498   6.670 -0.0983  0.1146 -0.1033
  284MOL0     C38217   1.109   5.632   6.642  0.6234 -0.6426  0.3407
  284MOL0     C38218   1.172   5.756   6.716  0.3718  0.6880 -0.0711
  284MOL0     C38219   1.199   5.869   6.615 -0.2181  0.4023  0.0839
  284MOL0     C38220   1.166   6.005   6.696 -0.4527  0.0720  0.2795
  284MOL0     C38221   1.217   6.122   6.609  0.4479  0.1917  0.8340
  284MOL0     N38222   1.359   6.107   6.581  0.5335  0.0296  0.7208
  284MOL0     C38223   1.416   6.097   6.454 -0.4294 -0.1824  0.0554
  284MOL0     C38224   1.547   6.092   6.477  0.1059 -0.9642 -0.2471
  284MOL0     C38225   1.642   6.068   6.377  1.5065 -0.7032  0.2714
  284MOL0     C38226   1.770   5.996   6.416 -1.1751  0.2493 -0.5472
  284MOL0     C38227   1.857   6.018   6.297  0.6862  0.2403  0.0647
  284MOL0     C38228   1.987   5.949   6.302 -0.4323 -0.3007 -0.5300
  284MOL0     O38229   2.061   5.990   6.416  0.2549 -0.4251 -0.2351
  284MOL0     C38230   2.189   5.937   6.422  0.0470 -0.1374 -0.0113
  284MOL0     C38231   2.218   5.798   6.429 -0.4580 -0.2069  0.2384
  284MOL0     C38232   2.345   5.743   6.449  0.1469 -0.8431 -0.1967
  284MOL0     C38233   2.347   5.596   6.441  0.2772  0.4650  0.4273
  284MOL0     C38234   2.450   5.831   6.483  0.1452  0.7672 -0.8666
  284MOL0     C38235   2.587   5.780   6.521  0.0067 -0.4481  0.2652
  284MOL0     O38236   2.672   5.885   6.561  0.3473 -0.6363 -0.1475
  284MOL0     C38237   2.793   5.836   6.601  0.9656  1.4577  0.5325
  284MOL0     C38238   2.823   5.819   6.734 -0.5750  0.8689 -0.1757
  284MOL0     C38239   2.942   5.765   6.765 -0.1287 -0.5874  0.4535
  284MOL0     C38240   3.036   5.738   6.675  0.8668 -0.6615  0.2107
  284MOL0     O38241   3.154   5.700   6.717  0.6403 -0.3949 -0.7534
  284MOL0     C38242   3.260   5.792   6.691  0.4682  0.6430  0.6839
  284MOL0     C38243   3.348   5.816   6.807  0.7645 -0.5405  0.4449
  284MOL0     C38244   3.282   5.916   6.906  0.1332 -0.1314 -0.0330
  284MOL0     C38245   3.392   5.978   6.997 -0.5716 -0.8497  0.2809
  284MOL0     C38246   3.321   6.063   7.106  0.1989 -0.5335 -0.2060
  284MOL0     C38247   3.408   6.135   7.206 -0.3829  0.2692 -1.0085
  284MOL0     C38248   3.330   6.237   7.298 -0.4216  0.8691  0.4240
  284MOL0     C38249   3.231   6.162   7.388 -0.5092  0.4442  0.7982
  284MOL0    Cl38250   3.300   6.029   7.493  0.1161 -0.5820 -0.0298
  284MOL0     C38251   3.017   5.759   6.538  0.2287 -0.0283  0.6563
  284MOL0     C38252   2.890   5.810   6.504  0.5361 -0.7611 -0.0792
  284MOL0     O38253   2.623   5.661   6.505 -0.2334 -0.2512 -1.1413
  284MOL0     C38254   2.431   5.968   6.466 -0.8927  0.3020  0.2205
  284MOL0     C38255   2.304   6.023   6.432  0.7614  0.6003 -0.0346
  284MOL0     N38256   1.572   6.105   6.607  0.2338 -0.2160 -0.1532
  284MOL0     N38257   1.462   6.111   6.670  0.3267 -0.0066  0.1862
  284MOL0     C38258   0.867   5.110   6.644  0.2069  0.2543  0.7846
  284MOL0     C38259   0.735   5.104   6.620 -0.3178  0.8291 -0.1277
  284MOL0     C38260   0.337   5.086   6.398  0.7259 -0.1480  1.1072
  284MOL0     C38261   0.280   5.032   6.517  0.6810  0.2266  0.4436
  284MOL0     C38262   0.145   4.997   6.514  0.3364  0.6500 -1.1426
  284MOL0     C38263   0.064   5.003   6.401  0.9310  0.3574  1.5441
  284MOL0     O38264  -0.071   4.967   6.387  0.3202 -0.6942 -0.8053
  284MOL0     C38265  -0.093   4.840   6.445  0.1445 -0.0146 -1.1006
  284MOL0     C38266  -0.051   4.738   6.351 -0.5608 -0.2144 -0.0035
  284MOL0     C38267  -0.144   4.740   6.228 -0.7558  0.6133  0.6506
  284MOL0     C38268  -0.118   4.624   6.140 -0.3477 -0.1088 -1.4698
  284MOL0     C38269  -0.185   4.637   6.013 -0.4859  0.9100 -0.1308
  284MOL0     C38270  -0.248   4.645   5.908  0.1210 -0.0908  0.6152
  284MOL0     C38271   0.121   5.065   6.291  1.3189 -0.1223  0.2157
  284MOL0     C38272   0.251   5.111   6.291 -1.3451 -0.2883  0.5286
  284MOL0     H38273   0.732   5.146   6.287 -2.8552 -4.4658  1.5294
  284MOL0     H38274   0.964   5.164   6.319 -2.2150 -1.2255 -1.5979
  284MOL0     H38275   1.128   5.246   6.739  1.4287 -0.1334 -0.6569
  284MOL0     H38276   1.259   5.253   6.614  0.5606 -1.8887  2.2623
  284MOL0     H38277   1.116   5.403   6.487 -4.1145  0.6206 -0.1011
  284MOL0     H38278   0.994   5.398   6.625 -1.1137 -1.4022  1.4862
  284MOL0     H38279   1.150   5.471   6.773 -1.0544  0.0362 -0.3366
  284MOL0     H38280   1.283   5.484   6.662 -0.3090 -2.2871  0.5026
  284MOL0     H38281   1.107   5.651   6.535  2.6879  3.1980  0.7949
  284MOL0     H38282   1.005   5.627   6.676  1.2220  1.7499  2.9370
  284MOL0     H38283   1.098   5.797   6.785  0.4802 -1.9920  1.7788
  284MOL0     H38284   1.265   5.728   6.766  1.0257  2.8617  0.0174
  284MOL0     H38285   1.299   5.863   6.569 -0.6032  3.6445 -1.4259
  284MOL0     H38286   1.130   5.857   6.531  2.1441  3.2742 -2.5179
  284MOL0     H38287   1.063   6.008   6.732 -1.0714  2.1515 -1.4181
  284MOL0     H38288   1.215   6.012   6.793 -2.5957 -0.2154  1.4434
  284MOL0     H38289   1.203   6.217   6.662 -2.0863 -0.1307  0.8557
  284MOL0     H38290   1.159   6.128   6.516 -0.5265  0.0638  1.4228
  284MOL0     H38291   1.379   6.100   6.352  2.5834 -2.5953 -1.2653
  284MOL0     H38292   1.603   6.013   6.291  0.9599  1.0594 -0.6503
  284MOL0     H38293   1.683   6.163   6.340 -1.9907  2.3166  3.3753
  284MOL0     H38294   1.756   5.889   6.430 -1.0105 -0.0525 -2.4074
  284MOL0     H38295   1.811   6.043   6.506  0.7926 -2.8611  0.3411
  284MOL0     H38296   1.888   6.122   6.281  2.6726 -0.2635  0.3373
  284MOL0     H38297   1.803   5.980   6.210 -3.0482  1.4486  1.6396
  284MOL0     H38298   2.043   5.970   6.210  0.1922  1.0267  0.1142
  284MOL0     H38299   1.967   5.843   6.318 -0.9895 -0.1119  0.0621
  284MOL0     H38300   2.129   5.737   6.425  0.9702 -2.3574 -0.8706
  284MOL0     H38301   2.423   5.574   6.366 -0.4080  1.2155 -0.5139
  284MOL0     H38302   2.374   5.559   6.540 -1.8421  2.9579  2.0941
  284MOL0     H38303   2.249   5.559   6.408 -0.7201  1.6765  1.8471
  284MOL0     H38304   2.755   5.855   6.811 -0.8984 -0.9613  0.4514
  284MOL0     H38305   2.961   5.736   6.868 -1.1555 -1.2982  0.4545
  284MOL0     H38306   3.321   5.760   6.606 -1.3496  0.4259 -0.6124
  284MOL0     H38307   3.223   5.892   6.666  1.2364  0.9597  0.7876
  284MOL0     H38308   3.374   5.720   6.852  4.1858 -1.4031 -2.9291
  284MOL0     H38309   3.441   5.862   6.771  0.3238  0.8745  1.0199
  284MOL0     H38310   3.208   5.856   6.959 -2.6753  1.4578 -1.9090
  284MOL0     H38311   3.226   5.999   6.861  1.0426  1.1113  1.0381
  284MOL0     H38312   3.444   5.892   7.040  2.3819  0.2167 -0.9096
  284MOL0     H38313   3.462   6.037   6.937 -2.9739  3.5340  1.2917
  284MOL0     H38314   3.259   5.988   7.157  0.6067 -0.2771  0.6919
  284MOL0     H38315   3.261   6.144   7.064  0.0119 -0.0272  0.9916
  284MOL0     H38316   3.457   6.055   7.263  1.1258 -0.3509 -3.0255
  284MOL0     H38317   3.480   6.195   7.150 -0.1739  2.6767  1.6196
  284MOL0     H38318   3.290   6.314   7.230  2.5262  1.2759 -1.0057
  284MOL0     H38319   3.392   6.293   7.368 -0.9815  1.3478  0.5478
  284MOL0     H38320   3.165   6.097   7.330  0.4513  1.2896 -1.3557
  284MOL0     H38321   3.172   6.219   7.461  0.6249  0.3990  1.7858
  284MOL0     H38322   3.085   5.744   6.455 -1.9422 -0.5114 -1.1226
  284MOL0     H38323   2.864   5.831   6.401  0.6382 -1.0779 -0.1718
  284MOL0     H38324   2.511   6.039   6.487 -1.3815  1.4837 -1.7225
  284MOL0     H38325   2.295   6.131   6.426 -1.4029  0.3839 -1.7318
  284MOL0     H38326   0.909   5.100   6.743  0.3486  0.4174  0.7418
  284MOL0     H38327   0.660   5.088   6.698 -2.6468 -1.5591 -2.6506
  284MOL0     H38328   0.333   5.029   6.612 -2.4460 -0.5662  2.3045
  284MOL0     H38329   0.108   4.954   6.607  0.4582  2.9565  0.0455
  284MOL0     H38330  -0.034   4.817   6.534  1.4533  1.0395 -1.6698
  284MOL0     H38331  -0.198   4.819   6.466 -0.1549  2.5294  0.1828
  284MOL0     H38332  -0.025   4.638   6.388  2.9935 -0.9810 -3.8535
  284MOL0     H38333   0.054   4.754   6.325  0.2120 -3.2900  0.8134
  284MOL0     H38334  -0.125   4.838   6.182  1.7273 -0.1049 -0.0006
  284MOL0     H38335  -0.247   4.720   6.259 -1.5324 -1.0058 -2.5417
  284MOL0     H38336  -0.151   4.530   6.186 -1.6549  2.6164  4.0651
  284MOL0     H38337  -0.011   4.606   6.129  0.2939 -1.5591  4.0315
  284MOL0     H38338  -0.301   4.659   5.816 -0.6055  1.4495  1.2272
  284MOL0     H38339   0.057   5.069   6.204  0.0481 -1.7256  1.0022
  284MOL0     H38340   0.285   5.164   6.202 -2.5985 -2.0141 -1.0565
  285MOL0     O38341   6.067   2.742   3.336  0.0849 -0.0756 -0.2021
  285MOL0     C38342   6.010   2.808   3.238  0.0609 -0.2353 -0.8262
  285MOL0     O38343   5.898   2.764   3.173  0.2592  0.7402 -0.3396
  285MOL0     C38344   5.839   2.640   3.213  0.3525 -0.6533 -0.9563
  285MOL0     C38345   5.779   2.633   3.340 -0.2905  0.5143 -0.8138
  285MOL0     C38346   5.708   2.509   3.379  0.9399 -0.5955 -0.3882
  285MOL0     C38347   5.696   2.402   3.302 -0.4849  0.1325  0.9617
  285MOL0     O38348   5.647   2.280   3.341  0.5001  0.9173  0.5379
  285MOL0     C38349   5.546   2.217   3.258 -0.6791  0.4661 -1.2925
  285MOL0     C38350   5.458   2.131   3.360 -0.6389 -0.2943 -0.2007
  285MOL0     C38351   5.342   2.047   3.290  0.6448  0.0759 -0.3249
  285MOL0     C38352   5.250   1.982   3.391  0.4199  0.0368 -0.0657
  285MOL0     C38353   5.174   1.859   3.337  0.0049 -0.1800  0.1872
  285MOL0     C38354   5.090   1.788   3.436 -0.4212  1.3536 -0.4227
  285MOL0     C38355   5.131   1.643   3.439 -0.0979 -0.1326 -0.5933
  285MOL0     C38356   5.087   1.574   3.570  0.4122  0.1473 -0.0368
  285MOL0     N38357   5.082   1.432   3.576  0.1310 -0.0566  0.1326
  285MOL0     C38358   5.009   1.360   3.489  1.5498 -0.4649  0.3419
  285MOL0     C38359   5.012   1.240   3.547 -0.6020 -0.0521  0.1076
  285MOL0     C38360   4.951   1.113   3.493 -0.3449  0.5455 -0.0950
  285MOL0     C38361   4.816   1.086   3.551  0.2440  1.0097 -1.2587
  285MOL0     C38362   4.796   1.103   3.705  1.0190 -0.3827  0.0776
  285MOL0     C38363   4.760   1.242   3.746  0.4422 -0.7347  0.5184
  285MOL0     O38364   4.726   1.258   3.885 -0.4845  0.1112  1.0117
  285MOL0     C38365   4.597   1.219   3.922  1.3668  1.6607  1.1973
  285MOL0     C38366   4.494   1.163   3.827  0.6159  0.7613 -0.2334
  285MOL0     C38367   4.366   1.124   3.883 -0.8692 -0.5480  0.8143
  285MOL0     C38368   4.257   1.064   3.789 -0.1423  0.5468 -0.2447
  285MOL0     C38369   4.355   1.118   4.028  0.7925  0.0986  0.3862
  285MOL0     C38370   4.234   1.089   4.089 -0.9483 -1.0738 -0.4017
  285MOL0     O38371   4.164   1.206   4.106  0.0856 -0.4522 -0.1321
  285MOL0     C38372   4.026   1.187   4.093 -0.2463  0.1171  0.5964
  285MOL0     C38373   3.961   1.212   3.976  0.3403  0.9872  1.3438
  285MOL0     C38374   3.818   1.200   3.979  0.0982 -0.2434  0.6106
  285MOL0     C38375   3.744   1.162   4.091 -0.9052  0.2672 -0.3795
  285MOL0     O38376   3.609   1.137   4.090 -0.2917  0.3339  0.0367
  285MOL0     C38377   3.531   1.263   4.086 -0.1525 -0.1984  0.2812
  285MOL0     C38378   3.380   1.222   4.119 -0.6085 -1.2969 -0.3013
  285MOL0     C38379   3.353   1.181   4.269 -0.0237  0.0646  0.0442
  285MOL0     C38380   3.435   1.257   4.379  0.7597  0.2269  0.4288
  285MOL0     C38381   3.420   1.209   4.519  1.2772 -0.0812  0.1025
  285MOL0     C38382   3.503   1.295   4.616  0.0107  0.1680 -0.7290
  285MOL0     C38383   3.475   1.446   4.614 -0.5427 -0.0681 -0.3781
  285MOL0     C38384   3.558   1.526   4.723  0.4940  0.8598  0.4107
  285MOL0    Cl38385   3.481   1.506   4.881  0.5438 -0.0190  0.3325
  285MOL0     C38386   3.812   1.137   4.210 -0.4513  0.2118 -0.7391
  285MOL0     C38387   3.952   1.139   4.204 -0.3642 -1.3213  0.3461
  285MOL0     O38388   4.187   0.974   4.063  0.3599  0.0532 -0.6831
  285MOL0     C38389   4.457   1.159   4.112 -0.2131 -0.1434  0.6342
  285MOL0     C38390   4.580   1.206   4.058  0.3981 -0.5129  0.2626
  285MOL0     N38391   5.086   1.243   3.658  0.3219  0.3484 -0.6100
  285MOL0     N38392   5.117   1.358   3.690 -0.2504  0.0362  0.3473
  285MOL0     C38393   5.754   2.423   3.177  0.1438 -0.2119  0.5143
  285MOL0     C38394   5.829   2.534   3.131 -0.2531  0.1904  0.3966
  285MOL0     C38395   6.067   2.948   3.217  0.3722 -0.3102  0.1527
  285MOL0     C38396   6.173   2.998   3.297  0.6758  0.7284  0.6745
  285MOL0     C38397   6.222   3.125   3.257 -0.2969  0.1787 -0.2612
  285MOL0     C38398   6.175   3.195   3.147 -1.6021 -1.3706  0.0535
  285MOL0     O38399   6.237   3.321   3.122  0.3935 -0.2304  0.6240
  285MOL0     C38400   6.225   3.396   2.999 -0.6496 -0.7774  1.6931
  285MOL0     C38401   6.314   3.518   3.001 -0.4062 -0.9941  0.0023
  285MOL0     C38402   6.465   3.482   2.988  0.6919 -0.4310  0.0461
  285MOL0     C38403   6.548   3.616   2.973 -0.4001 -0.5828  0.1428
  285MOL0     C38404   6.561   3.697   3.097 -1.0180  0.4927  0.4410
  285MOL0     C38405   6.570   3.750   3.208  0.0955  0.4923  0.0846
  285MOL0     C38406   6.084   3.137   3.062 -0.7926  0.1142  1.2076
  285MOL0     C38407   6.027   3.018   3.097 -0.5921  0.5536 -0.1904
  285MOL0     H38408   5.798   2.716   3.407 -0.8289 -0.6142  0.7830
  285MOL0     H38409   5.661   2.494   3.476  2.6457 -0.5397  0.4783
  285MOL0     H38410   5.496   2.287   3.189  1.5512 -0.3676 -3.9499
  285MOL0     H38411   5.601   2.141   3.202  1.6776  2.3967 -1.7792
  285MOL0     H38412   5.529   2.060   3.404 -0.6051 -1.1594 -1.6015
  285MOL0     H38413   5.419   2.187   3.446 -1.2998  0.1040 -0.7486
  285MOL0     H38414   5.289   2.120   3.228 -0.4649 -0.8729 -0.5287
  285MOL0     H38415   5.389   1.976   3.221 -1.0475 -0.0247 -1.4163
  285MOL0     H38416   5.311   1.953   3.477  1.8253 -2.2558 -1.7140
  285MOL0     H38417   5.176   2.059   3.414 -0.9885 -0.3499 -2.9082
  285MOL0     H38418   5.106   1.891   3.259  0.1277 -1.3242 -0.4147
  285MOL0     H38419   5.240   1.787   3.289  0.0968  2.3864 -4.0052
  285MOL0     H38420   5.106   1.820   3.540 -0.0622 -1.4265  0.4612
  285MOL0     H38421   4.982   1.793   3.417 -1.2329 -2.9148  1.7862
  285MOL0     H38422   5.084   1.586   3.358  1.7322  1.6782 -3.0822
  285MOL0     H38423   5.240   1.634   3.439 -0.0472  0.1575  1.0897
  285MOL0     H38424   4.984   1.605   3.592 -0.6007 -0.9117 -2.8544
  285MOL0     H38425   5.149   1.610   3.653 -1.5496 -0.1949  1.6575
  285MOL0     H38426   4.970   1.391   3.393  4.8806  2.6923 -0.2475
  285MOL0     H38427   4.950   1.119   3.384  0.2182 -0.7738 -0.1862
  285MOL0     H38428   5.005   1.021   3.518 -2.5984 -1.0847 -0.8836
  285MOL0     H38429   4.802   0.978   3.534 -3.1246  1.1182  0.1105
  285MOL0     H38430   4.741   1.134   3.488 -0.1607 -2.0084 -3.3094
  285MOL0     H38431   4.886   1.064   3.752 -0.7960 -1.4464  2.9608
  285MOL0     H38432   4.716   1.036   3.740  2.5658 -2.9256 -0.9827
  285MOL0     H38433   4.672   1.276   3.690  0.3655 -2.1375 -0.2609
  285MOL0     H38434   4.841   1.312   3.724  0.0239  0.0484  1.3948
  285MOL0     H38435   4.508   1.147   3.720  1.7578 -5.0628  0.4742
  285MOL0     H38436   4.158   1.110   3.791 -0.3712  1.0095 -5.9724
  285MOL0     H38437   4.290   1.074   3.685  0.8529  0.8989  0.0962
  285MOL0     H38438   4.248   0.957   3.811 -0.7281  0.3663 -1.3053
  285MOL0     H38439   4.026   1.238   3.894 -0.4022 -0.7499  0.1487
  285MOL0     H38440   3.765   1.242   3.894  2.7505  2.2128 -0.0224
  285MOL0     H38441   3.565   1.346   4.149  5.1824 -0.9296 -1.0910
  285MOL0     H38442   3.543   1.311   3.989  0.3873 -0.6444  0.1234
  285MOL0     H38443   3.315   1.306   4.093 -0.0921 -0.2722  1.5794
  285MOL0     H38444   3.343   1.132   4.068  0.1707 -2.9143  1.8383
  285MOL0     H38445   3.353   1.072   4.283 -4.2575 -0.0525  0.5692
  285MOL0     H38446   3.246   1.199   4.285  0.1889  0.9326  0.5618
  285MOL0     H38447   3.543   1.247   4.369  1.5223  3.1466  3.9044
  285MOL0     H38448   3.418   1.365   4.376 -0.1432  0.0961  0.5022
  285MOL0     H38449   3.452   1.105   4.519 -0.6949 -0.8453 -3.3390
  285MOL0     H38450   3.317   1.211   4.556  0.5391 -3.1194 -1.4628
  285MOL0     H38451   3.486   1.277   4.723  3.4147  3.9851  0.7283
  285MOL0     H38452   3.607   1.265   4.603  0.0959  1.0951 -2.6068
  285MOL0     H38453   3.368   1.473   4.618  0.3272  4.0042  3.1575
  285MOL0     H38454   3.520   1.481   4.520  1.3971  1.6418  1.1043
  285MOL0     H38455   3.559   1.632   4.698  1.2284  0.9760  0.8955
  285MOL0     H38456   3.664   1.496   4.727  0.5818  0.9906 -0.7799
  285MOL0     H38457   3.755   1.086   4.287  0.1895 -2.2400 -1.7927
  285MOL0     H38458   4.012   1.116   4.291  0.3694 -1.0431 -0.0762
  285MOL0     H38459   4.433   1.163   4.217  1.9078  1.9110  1.1300
  285MOL0     H38460   4.664   1.232   4.122  1.5326  0.5817 -1.5422
  285MOL0     H38461   5.742   2.344   3.104 -1.6423  1.4819 -1.1315
  285MOL0     H38462   5.882   2.524   3.037 -0.9733 -3.3322  0.2231
  285MOL0     H38463   6.211   2.948   3.386  3.0959  5.2000  2.4649
  285MOL0     H38464   6.290   3.177   3.325 -0.3410 -1.0592  0.7642
  285MOL0     H38465   6.251   3.330   2.916 -1.8483  0.6167  0.1560
  285MOL0     H38466   6.123   3.429   2.978  0.2673  0.3550 -1.6106
  285MOL0     H38467   6.299   3.579   3.091  1.7865 -2.6553  1.6049
  285MOL0     H38468   6.272   3.583   2.924  1.8090  0.8076  0.2299
  285MOL0     H38469   6.477   3.415   2.902  1.8756  0.9309 -0.9045
  285MOL0     H38470   6.499   3.419   3.071  0.5985  0.7428  1.0036
  285MOL0     H38471   6.498   3.679   2.900  2.7926  0.2446 -1.4991
  285MOL0     H38472   6.648   3.590   2.935 -0.0983  2.2241 -1.1901
  285MOL0     H38473   6.594   3.791   3.304  3.8274  2.7115 -1.5842
  285MOL0     H38474   6.047   3.169   2.965  2.7885 -2.4990 -1.3326
  285MOL0     H38475   5.955   2.973   3.030 -2.3253  0.4076  1.6562
  286MOL0     O38476   5.625   9.901  10.110  0.2606 -0.3027  0.2375
  286MOL0     C38477   5.700   9.942  10.017  1.7031 -0.8506  0.1806
  286MOL0     O38478   5.663  10.021   9.909  0.3286  0.4983  0.7048
  286MOL0     C38479   5.540  10.084   9.904  0.1321  1.1966  0.2228
  286MOL0     C38480   5.423  10.011   9.920 -0.5645 -0.0747  0.2843
  286MOL0     C38481   5.310  10.083   9.951  0.7912 -1.2828 -0.0726
  286MOL0     C38482   5.299  10.225   9.958 -0.5027  0.3578  0.2114
  286MOL0     O38483   5.180  10.295   9.984 -0.5148 -0.4454 -0.3457
  286MOL0     C38484   5.082  10.220  10.050  0.5097 -1.0711  0.1902
  286MOL0     C38485   4.990  10.325  10.112 -0.1205  0.2698 -1.1745
  286MOL0     C38486   4.885  10.267  10.200 -1.6405  0.0703 -0.5929
  286MOL0     C38487   4.813  10.358  10.295  0.2194  0.0635  0.8463
  286MOL0     C38488   4.729  10.259  10.380 -1.0840  0.1240  0.0580
  286MOL0     C38489   4.638  10.341  10.469 -0.1266  0.5618 -0.3331
  286MOL0     C38490   4.575  10.243  10.568  0.0266  0.0401 -0.5835
  286MOL0     C38491   4.671  10.210  10.683  0.2759 -0.4790 -1.1943
  286MOL0     N38492   4.614  10.121  10.779  0.0644  0.3947  0.1920
  286MOL0     C38493   4.661  10.104  10.910  0.4246  0.3895  0.5488
  286MOL0     C38494   4.584  10.001  10.962 -0.1582 -0.7287  0.0057
  286MOL0     C38495   4.611   9.919  11.084  0.5175 -0.4183 -0.1757
  286MOL0     C38496   4.718   9.803  11.070  0.5117 -0.4227  1.0630
  286MOL0     C38497   4.691   9.718  10.940 -0.4259  0.1747 -0.6832
  286MOL0     C38498   4.552   9.652  10.939 -0.0151  0.0846  0.6204
  286MOL0     O38499   4.537   9.588  10.810 -0.4367 -0.1320 -0.4827
  286MOL0     C38500   4.453   9.483  10.816  0.1104 -0.1393  0.8897
  286MOL0     C38501   4.498   9.363  10.875  0.5873  0.6667 -0.8799
  286MOL0     C38502   4.408   9.251  10.888 -0.0632 -0.2686 -0.6303
  286MOL0     C38503   4.448   9.129  10.970 -0.9918 -0.6980 -0.4137
  286MOL0     C38504   4.277   9.264  10.849  0.1649 -0.4238 -0.1003
  286MOL0     C38505   4.169   9.169  10.875 -0.1817 -0.1879  0.4087
  286MOL0     O38506   4.203   9.033  10.859 -0.5445  0.9512  0.1745
  286MOL0     C38507   4.115   8.932  10.893 -1.0122 -0.5232 -1.3303
  286MOL0     C38508   3.983   8.925  10.839  1.0919 -1.2502 -0.4971
  286MOL0     C38509   3.905   8.810  10.865  0.5669  0.6335 -0.4485
  286MOL0     C38510   3.956   8.708  10.951 -0.0394 -1.1819 -0.2180
  286MOL0     O38511   3.891   8.587  10.965 -0.2954  0.3381  0.0114
  286MOL0     C38512   3.908   8.507  11.087  0.1442 -0.1575 -0.1476
  286MOL0     C38513   3.788   8.405  11.088 -0.5238  0.5448 -0.2189
  286MOL0     C38514   3.769   8.313  10.967 -0.5896 -0.2363  0.0322
  286MOL0     C38515   3.676   8.189  10.989 -0.9708  0.0254 -0.0288
  286MOL0     C38516   3.695   8.093  10.874 -1.1450 -1.0522  0.0363
  286MOL0     C38517   3.583   7.989  10.872  0.4893 -0.1789  0.3163
  286MOL0     C38518   3.630   7.867  10.791  0.1788  0.6935  0.5009
  286MOL0     C38519   3.522   7.756  10.782  1.1519  0.0058  0.0914
  286MOL0    Cl38520   3.386   7.824  10.684  0.2782  0.4954  0.0904
  286MOL0     C38521   4.087   8.713  10.997  0.2515 -0.8259 -0.9864
  286MOL0     C38522   4.166   8.827  10.966  0.1361 -0.6452 -0.1507
  286MOL0     O38523   4.058   9.215  10.908 -0.2344  0.2862 -0.0595
  286MOL0     C38524   4.242   9.380  10.783  0.6864 -0.0900  0.2874
  286MOL0     C38525   4.327   9.492  10.761 -0.2916  0.5219  0.8526
  286MOL0     N38526   4.494   9.957  10.867 -0.5572  0.1851  0.1296
  286MOL0     N38527   4.512  10.033  10.764  0.0682  0.0293  0.5472
  286MOL0     C38528   5.422  10.294   9.929 -0.4213  0.2663  1.1754
  286MOL0     C38529   5.537  10.219   9.904 -0.8075 -0.5490 -0.7383
  286MOL0     C38530   5.823   9.876  10.001 -0.4880 -0.6285 -0.1835
  286MOL0     C38531   5.878   9.798  10.107  0.3885 -0.4097 -0.3921
  286MOL0     C38532   5.999   9.727  10.088  0.7044 -0.2921 -0.4076
  286MOL0     C38533   6.067   9.734   9.964 -0.2832 -0.9967  1.0157
  286MOL0     O38534   6.193   9.678   9.945  0.2585 -1.2776 -0.6762
  286MOL0     C38535   6.271   9.630  10.058  0.5002 -0.9065 -0.0642
  286MOL0     C38536   6.417   9.636  10.047 -0.6336 -0.1977 -0.1765
  286MOL0     C38537   6.478   9.536   9.947 -0.3220  0.1394 -0.7320
  286MOL0     C38538   6.397   9.489   9.824 -0.6568  0.9272  0.2101
  286MOL0     C38539   6.484   9.459   9.708  0.6812 -0.6116  0.5619
  286MOL0     C38540   6.545   9.445   9.604 -0.0600  0.3497  1.1186
  286MOL0     C38541   6.009   9.811   9.861 -1.1701  0.1058  0.9340
  286MOL0     C38542   5.889   9.873   9.872  0.0761 -0.9078 -0.2241
  286MOL0     H38543   5.424   9.902   9.923  1.1759 -0.2409 -2.3267
  286MOL0     H38544   5.211  10.041   9.971 -0.6493  0.3811 -2.9913
  286MOL0     H38545   5.019  10.150   9.993 -0.1810 -1.9554  1.9561
  286MOL0     H38546   5.132  10.168  10.132  2.4065 -1.1264 -0.9514
  286MOL0     H38547   5.053  10.399  10.163  1.5522 -2.6232  1.2495
  286MOL0     H38548   4.926  10.380  10.042 -1.1332  2.3406  1.2182
  286MOL0     H38549   4.802  10.222  10.144 -4.1097 -0.5639  3.1516
  286MOL0     H38550   4.933  10.189  10.260 -1.1569  0.7351 -0.1140
  286MOL0     H38551   4.888  10.416  10.349  0.8615  0.6315 -0.5856
  286MOL0     H38552   4.765  10.436  10.235  0.7917  1.9168  2.6830
  286MOL0     H38553   4.664  10.187  10.328  1.7988  0.3526 -4.4273
  286MOL0     H38554   4.803  10.200  10.435  0.6575 -1.7694 -3.9206
  286MOL0     H38555   4.671  10.431  10.521  2.1198  1.6090 -3.3176
  286MOL0     H38556   4.558  10.382  10.407 -0.8106  2.7631  1.8521
  286MOL0     H38557   4.495  10.298  10.618 -0.1140 -1.1194  0.5299
  286MOL0     H38558   4.532  10.151  10.526  2.9168  0.2738 -4.7434
  286MOL0     H38559   4.702  10.305  10.727  0.9588 -1.1286 -0.2346
  286MOL0     H38560   4.756  10.147  10.657 -0.0642 -1.0361 -0.9728
  286MOL0     H38561   4.740  10.162  10.957 -0.4727  1.1877  1.0928
  286MOL0     H38562   4.638   9.969  11.177  1.4539 -3.5885  1.3865
  286MOL0     H38563   4.518   9.875  11.119  1.4099 -1.3170  1.1414
  286MOL0     H38564   4.731   9.737  11.156  1.8943  1.6059  2.5024
  286MOL0     H38565   4.816   9.849  11.055 -0.9947  3.7770  2.4200
  286MOL0     H38566   4.763   9.636  10.940 -0.4105  0.1857  0.0174
  286MOL0     H38567   4.699   9.781  10.851 -3.0297 -0.3538 -1.3780
  286MOL0     H38568   4.476   9.730  10.947 -0.5911 -0.5718  1.9332
  286MOL0     H38569   4.541   9.583  11.024 -0.3618 -0.2775  0.2872
  286MOL0     H38570   4.603   9.354  10.899  0.8064  0.4579 -1.8775
  286MOL0     H38571   4.528   9.157  11.039 -0.8005  2.0301 -1.6508
  286MOL0     H38572   4.358   9.103  11.027 -1.6938  0.1876 -1.0909
  286MOL0     H38573   4.499   9.053  10.911  0.1347 -0.9968  0.8880
  286MOL0     H38574   3.942   9.011  10.786  0.7127  0.2049  2.0013
  286MOL0     H38575   3.803   8.809  10.827 -0.0552 -1.4713  1.0820
  286MOL0     H38576   4.003   8.454  11.085 -0.3797 -1.8905  5.2358
  286MOL0     H38577   3.911   8.565  11.180  2.0035  0.8466 -0.7683
  286MOL0     H38578   3.806   8.340  11.174  0.3103 -1.7672 -2.0295
  286MOL0     H38579   3.695   8.461  11.094 -1.5452 -0.7714 -2.4369
  286MOL0     H38580   3.869   8.277  10.941 -0.3888  0.5596 -0.3475
  286MOL0     H38581   3.735   8.375  10.884  0.1343 -0.8730 -0.7718
  286MOL0     H38582   3.692   8.145  11.088 -2.1989 -1.7042 -0.5652
  286MOL0     H38583   3.572   8.223  10.991 -0.7804  0.5921  0.4757
  286MOL0     H38584   3.790   8.044  10.900 -1.9327 -1.0288  3.5541
  286MOL0     H38585   3.707   8.144  10.779  0.6610  0.6307  1.0850
  286MOL0     H38586   3.562   7.951  10.972 -2.7819 -4.0381 -1.5116
  286MOL0     H38587   3.489   8.034  10.837  0.5501  2.0798  2.7062
  286MOL0     H38588   3.721   7.825  10.834 -2.8018 -3.5418  3.4964
  286MOL0     H38589   3.658   7.903  10.692 -0.7460  0.5054  0.1614
  286MOL0     H38590   3.473   7.730  10.877  1.0535  0.8163  0.2705
  286MOL0     H38591   3.553   7.662  10.735 -1.3433 -0.2096 -1.2647
  286MOL0     H38592   4.130   8.634  11.058 -0.6868 -0.5799  0.0240
  286MOL0     H38593   4.268   8.828  11.003  0.2401  0.5851 -0.4460
  286MOL0     H38594   4.140   9.382  10.744  0.4638  0.6676  0.8896
  286MOL0     H38595   4.299   9.576  10.698 -0.4474 -1.4805 -1.8981
  286MOL0     H38596   5.433  10.402   9.927  1.6108  0.0884 -1.0217
  286MOL0     H38597   5.622  10.286   9.907 -1.1849 -0.0605 -0.8673
  286MOL0     H38598   5.821   9.803  10.199  0.3598  5.5886 -0.4037
  286MOL0     H38599   6.029   9.672  10.177 -0.0848  0.2246  0.1877
  286MOL0     H38600   6.259   9.677  10.156  1.5737 -4.1499  1.8037
  286MOL0     H38601   6.227   9.530  10.059 -0.5698 -0.4926 -1.6847
  286MOL0     H38602   6.452   9.615  10.148 -2.0295  1.4451  0.7013
  286MOL0     H38603   6.450   9.739  10.027  0.0163 -0.7138 -1.9837
  286MOL0     H38604   6.516   9.448  10.000 -3.4655 -0.4756  0.7789
  286MOL0     H38605   6.566   9.583   9.904  1.5244 -0.3454  2.2054
  286MOL0     H38606   6.340   9.579   9.797 -0.2303  1.0871 -0.1642
  286MOL0     H38607   6.333   9.402   9.843 -0.5258  0.7000 -0.3815
  286MOL0     H38608   6.587   9.408   9.513 -1.2874 -2.0806  1.4696
  286MOL0     H38609   6.070   9.814   9.771  0.1223  0.5305  1.8014
  286MOL0     H38610   5.857   9.924   9.781  0.6710  1.0210  0.5888
  287MOL0     O38611  11.070   2.717   3.362  0.3411  0.8555 -0.7228
  287MOL0     C38612  11.139   2.619   3.355 -0.4046  0.0321  0.0500
  287MOL0     O38613  11.106   2.507   3.277  0.4494  0.0436  0.9796
  287MOL0     C38614  10.993   2.498   3.188 -0.8782 -0.0318 -0.1134
  287MOL0     C38615  10.927   2.600   3.130  0.7138 -0.1348 -0.7097
  287MOL0     C38616  10.798   2.578   3.078  0.1139 -0.4182  0.6512
  287MOL0     C38617  10.757   2.444   3.058  0.0390  0.2461 -0.3233
  287MOL0     O38618  10.648   2.434   2.975 -0.3251  0.4230 -0.8939
  287MOL0     C38619  10.604   2.304   2.927  0.3934 -0.1470  0.2965
  287MOL0     C38620  10.523   2.321   2.808 -0.4384  0.3004  0.9335
  287MOL0     C38621  10.604   2.395   2.693 -0.0664 -0.2979 -0.2099
  287MOL0     C38622  10.529   2.401   2.554 -1.0145 -0.2028 -0.1284
  287MOL0     C38623  10.605   2.474   2.435 -1.4417 -0.2596 -0.4773
  287MOL0     C38624  10.693   2.364   2.373  1.1289 -0.3095  0.0998
  287MOL0     C38625  10.785   2.417   2.265  0.9874 -0.3226 -0.5631
  287MOL0     C38626  10.889   2.313   2.232  0.2974  0.6007 -0.3976
  287MOL0     N38627  10.959   2.326   2.100  0.6432 -0.1982 -0.2334
  287MOL0     C38628  10.937   2.240   1.994 -0.1541  0.2641 -0.2685
  287MOL0     C38629  11.023   2.269   1.893  0.3833  0.6525  0.3626
  287MOL0     C38630  11.031   2.212   1.749  0.1579 -0.5757 -0.8978
  287MOL0     C38631  10.948   2.307   1.659  0.8506  0.2687 -0.5052
  287MOL0     C38632  10.982   2.456   1.660  0.7163  1.0331 -0.4897
  287MOL0     C38633  10.929   2.540   1.530  0.7092 -0.5116 -1.4415
  287MOL0     O38634  10.794   2.495   1.507 -1.8585  0.5810  1.0988
  287MOL0     C38635  10.724   2.548   1.405 -0.5766 -0.3320  0.6404
  287MOL0     C38636  10.593   2.587   1.412 -0.0138 -0.5208  0.2138
  287MOL0     C38637  10.526   2.633   1.292  0.3033  0.0716  0.1910
  287MOL0     C38638  10.377   2.680   1.310  0.0696  0.4722 -0.0935
  287MOL0     C38639  10.588   2.618   1.165 -0.0119  0.0335  1.1563
  287MOL0     C38640  10.523   2.654   1.031  0.7044 -0.8646  0.9877
  287MOL0     O38641  10.426   2.754   1.045 -0.8995  0.1373  0.2434
  287MOL0     C38642  10.368   2.804   0.926 -0.2715  0.2927 -0.1499
  287MOL0     C38643  10.243   2.759   0.886  0.3662 -0.5716 -0.0868
  287MOL0     C38644  10.189   2.799   0.766  0.4644 -0.5104 -0.7457
  287MOL0     C38645  10.246   2.892   0.683 -1.5413 -0.4009  0.4898
  287MOL0     O38646  10.186   2.921   0.567  0.8084 -0.8317 -0.0717
  287MOL0     C38647  10.268   2.963   0.458 -0.2297  0.9201 -0.4488
  287MOL0     C38648  10.368   2.863   0.412  0.1999 -0.9331 -0.6137
  287MOL0     C38649  10.443   2.931   0.291 -0.7447  0.5565  0.5449
  287MOL0     C38650  10.541   2.851   0.203  0.4892 -0.1463 -0.5885
  287MOL0     C38651  10.540   2.912   0.064 -1.8803  1.0015 -0.1598
  287MOL0     C38652  10.670   2.895  -0.023  0.2121  0.3999  1.0032
  287MOL0     C38653  10.721   2.752  -0.032  1.3829 -1.0124  0.4214
  287MOL0     C38654  10.871   2.748  -0.081  0.7652 -0.8063 -0.3433
  287MOL0    Cl38655  10.923   2.588  -0.154  0.3509 -0.3352  0.3365
  287MOL0     C38656  10.376   2.945   0.722  0.3172  0.2755 -0.3016
  287MOL0     C38657  10.430   2.902   0.845  0.6208 -0.6700 -0.5659
  287MOL0     O38658  10.558   2.593   0.934  0.7683  0.0726 -0.5810
  287MOL0     C38659  10.716   2.572   1.165 -0.1075  0.4428 -0.8034
  287MOL0     C38660  10.776   2.534   1.280 -0.1179  0.8876  0.1411
  287MOL0     N38661  11.093   2.384   1.927  0.1419  0.2028 -0.2297
  287MOL0     N38662  11.052   2.420   2.050 -0.5248 -0.3005  0.0883
  287MOL0     C38663  10.833   2.337   3.102  0.0354 -0.5210  0.1610
  287MOL0     C38664  10.943   2.366   3.178  0.4796  0.8590  0.4230
  287MOL0     C38665  11.277   2.623   3.418 -0.5314  0.3053 -0.3761
  287MOL0     C38666  11.325   2.738   3.491 -0.1829  0.4137 -0.5898
  287MOL0     C38667  11.438   2.728   3.557  0.4846  0.2292 -0.0755
  287MOL0     C38668  11.517   2.611   3.574 -0.7205  0.3864  0.1277
  287MOL0     O38669  11.625   2.606   3.654  0.3776 -1.6131  0.4498
  287MOL0     C38670  11.617   2.508   3.766  0.5839 -0.7830  0.3331
  287MOL0     C38671  11.759   2.504   3.835  0.0963  0.0284 -0.4945
  287MOL0     C38672  11.868   2.422   3.756 -0.8238  0.2957  0.5627
  287MOL0     C38673  11.907   2.508   3.643 -0.7965 -0.1464 -0.6296
  287MOL0     C38674  12.020   2.441   3.574  0.3317 -0.3674  0.1330
  287MOL0     C38675  12.100   2.375   3.513 -1.3374 -0.1398 -0.2023
  287MOL0     C38676  11.468   2.501   3.492  0.1994  1.0744 -0.7763
  287MOL0     C38677  11.355   2.505   3.402 -0.1511 -0.5222  0.5054
  287MOL0     H38678  10.963   2.703   3.132  2.2698 -0.5866  2.7502
  287MOL0     H38679  10.721   2.652   3.058  0.3338  0.3515  2.4389
  287MOL0     H38680  10.680   2.228   2.908  2.2968  0.9562  2.8508
  287MOL0     H38681  10.535   2.262   3.000 -1.7533  0.9663 -0.9697
  287MOL0     H38682  10.498   2.222   2.768  0.8452  1.1638 -2.2991
  287MOL0     H38683  10.434   2.379   2.836 -3.4887 -2.4050 -2.2746
  287MOL0     H38684  10.624   2.502   2.702 -0.4735 -0.0242 -2.0941
  287MOL0     H38685  10.696   2.336   2.693 -0.1024 -0.5515  2.9432
  287MOL0     H38686  10.486   2.301   2.545 -3.6348  0.4281  3.4274
  287MOL0     H38687  10.441   2.462   2.574 -1.3903 -0.9291  0.4643
  287MOL0     H38688  10.543   2.530   2.364 -1.2655  2.7614  1.5497
  287MOL0     H38689  10.677   2.552   2.464 -1.4399  0.4299 -2.1641
  287MOL0     H38690  10.746   2.318   2.457  0.3154  1.6478  1.7736
  287MOL0     H38691  10.635   2.287   2.322  0.3265  1.2692 -1.4644
  287MOL0     H38692  10.737   2.439   2.170  0.6645  0.9697 -0.1182
  287MOL0     H38693  10.836   2.504   2.308 -1.7812  1.2214 -0.1593
  287MOL0     H38694  10.841   2.215   2.229  0.8314  0.3547 -1.5772
  287MOL0     H38695  10.961   2.321   2.314  1.2763 -1.0830 -1.0249
  287MOL0     H38696  10.865   2.160   1.984 -0.5133  0.6250 -0.6376
  287MOL0     H38697  11.136   2.200   1.721  0.1079 -4.4399  0.0458
  287MOL0     H38698  10.988   2.112   1.753 -0.2505 -0.3867  1.5384
  287MOL0     H38699  10.841   2.298   1.679  0.8180  2.2851  0.4528
  287MOL0     H38700  10.966   2.264   1.560 -2.8569 -1.3412 -0.6424
  287MOL0     H38701  11.091   2.460   1.660  0.6826  3.1693  0.2082
  287MOL0     H38702  10.934   2.500   1.747  0.9168  1.0308 -0.3760
  287MOL0     H38703  11.000   2.534   1.448  1.0143 -1.3698 -1.1201
  287MOL0     H38704  10.920   2.643   1.566 -0.4537  0.4193 -4.1028
  287MOL0     H38705  10.538   2.601   1.505 -0.7358  3.3948 -0.6277
  287MOL0     H38706  10.372   2.788   1.294 -3.2972  0.8913  2.5378
  287MOL0     H38707  10.305   2.626   1.247  0.8439 -0.2061 -0.4101
  287MOL0     H38708  10.350   2.648   1.411  3.6850 -1.3571  0.4674
  287MOL0     H38709  10.189   2.684   0.943  0.0960 -2.0777 -2.1680
  287MOL0     H38710  10.092   2.761   0.738 -0.1407  0.1100  0.4557
  287MOL0     H38711  10.201   2.984   0.374  1.6575 -1.1213 -2.5994
  287MOL0     H38712  10.321   3.057   0.473 -0.1006  0.7996 -0.1421
  287MOL0     H38713  10.436   2.825   0.489  2.1552  4.3263  0.7309
  287MOL0     H38714  10.312   2.782   0.365 -4.5489  0.9335  1.2071
  287MOL0     H38715  10.505   3.012   0.332  0.9574 -0.6614  0.5104
  287MOL0     H38716  10.368   2.969   0.221 -0.4625  1.3112  0.6404
  287MOL0     H38717  10.638   2.857   0.253  0.2773 -0.2236 -0.1611
  287MOL0     H38718  10.514   2.746   0.194  0.6453 -0.1822 -0.6232
  287MOL0     H38719  10.533   3.021   0.078  2.4392  1.6837 -1.8558
  287MOL0     H38720  10.458   2.869   0.006  0.4890  0.0324 -3.0672
  287MOL0     H38721  10.660   2.945  -0.120 -0.8924  2.0615  1.9232
  287MOL0     H38722  10.743   2.954   0.034  2.8085  0.7305 -2.3550
  287MOL0     H38723  10.662   2.702  -0.110 -1.0091  1.7770  0.3005
  287MOL0     H38724  10.711   2.714   0.070 -0.7874  2.9096  1.8878
  287MOL0     H38725  10.940   2.785  -0.005  0.5853 -1.6564  0.2433
  287MOL0     H38726  10.871   2.824  -0.160 -1.6723 -1.6531 -1.2560
  287MOL0     H38727  10.419   3.028   0.666 -1.1234  2.1527  1.2235
  287MOL0     H38728  10.525   2.943   0.877 -0.3851  0.2228  1.4963
  287MOL0     H38729  10.767   2.556   1.070 -3.2277 -0.5718 -2.4476
  287MOL0     H38730  10.868   2.477   1.270 -2.5329 -3.1936 -1.3032
  287MOL0     H38731  10.797   2.235   3.097 -0.3232 -0.3764 -0.2427
  287MOL0     H38732  10.995   2.291   3.236  0.0547  1.3457  1.4632
  287MOL0     H38733  11.273   2.833   3.495 -2.1055 -0.5320 -1.9067
  287MOL0     H38734  11.464   2.811   3.622 -0.8888  0.0330  0.7517
  287MOL0     H38735  11.535   2.532   3.835  0.9849  2.6723 -0.1785
  287MOL0     H38736  11.585   2.409   3.735 -4.0595  0.0704  1.5881
  287MOL0     H38737  11.740   2.460   3.934 -0.4745 -2.9503 -1.8088
  287MOL0     H38738  11.794   2.607   3.844  0.5171  0.4744 -5.1479
  287MOL0     H38739  11.823   2.325   3.735 -2.5635  1.2146 -0.1940
  287MOL0     H38740  11.956   2.407   3.820  1.0294 -1.8642 -2.2644
  287MOL0     H38741  11.946   2.601   3.685  2.4459  0.1860 -3.8967
  287MOL0     H38742  11.832   2.520   3.564  0.4501 -0.9744 -1.9953
  287MOL0     H38743  12.172   2.300   3.485  0.9904  2.2223 -0.8615
  287MOL0     H38744  11.515   2.404   3.499 -0.0849  1.0107  0.7507
  287MOL0     H38745  11.322   2.419   3.345 -0.1920 -0.4367  0.3985
  288MOL0     O38746   7.398   1.407   0.479  0.2456 -0.1272  0.5535
  288MOL0     C38747   7.284   1.414   0.430 -0.0413  0.4079 -1.1208
  288MOL0     O38748   7.176   1.336   0.469 -0.1154 -0.3209 -0.6065
  288MOL0     C38749   7.202   1.262   0.580  0.2753  1.1508  0.4190
  288MOL0     C38750   7.125   1.275   0.697  0.4649  0.0195  0.7715
  288MOL0     C38751   7.133   1.180   0.792 -0.4022 -0.2932 -0.4444
  288MOL0     C38752   7.223   1.075   0.786  0.1314 -0.4309 -0.4105
  288MOL0     O38753   7.234   0.977   0.883  0.3162 -0.6264  0.1019
  288MOL0     C38754   7.132   0.958   0.990  0.2525 -0.2553  0.0870
  288MOL0     C38755   7.183   0.849   1.080  0.0752 -0.3058  0.5577
  288MOL0     C38756   7.080   0.817   1.182  0.1658  0.5934 -0.1710
  288MOL0     C38757   7.119   0.846   1.336  0.1578 -0.7175 -0.2583
  288MOL0     C38758   7.002   0.826   1.439 -0.5116 -0.7768 -0.0198
  288MOL0     C38759   6.884   0.929   1.415  0.5504  0.4448  0.2794
  288MOL0     C38760   6.761   0.902   1.510  0.9741 -0.5539 -0.3030
  288MOL0     C38761   6.789   0.952   1.654  0.5017 -0.6006  0.7514
  288MOL0     N38762   6.819   1.098   1.654 -0.3580  0.3395  0.7499
  288MOL0     C38763   6.939   1.150   1.696  0.1367  0.4260  1.0325
  288MOL0     C38764   6.915   1.280   1.692  0.7806  0.0268  0.0795
  288MOL0     C38765   7.001   1.390   1.731 -0.4278 -0.4435 -0.1920
  288MOL0     C38766   7.117   1.419   1.629  0.1576 -0.9080  0.3467
  288MOL0     C38767   7.230   1.518   1.685  0.7245  1.0191 -0.7933
  288MOL0     C38768   7.169   1.652   1.714  0.1818  0.0271 -0.1458
  288MOL0     O38769   7.205   1.739   1.608 -0.0641 -0.5629 -0.4054
  288MOL0     C38770   7.186   1.870   1.624  0.4546 -0.3394 -0.1828
  288MOL0     C38771   7.213   1.948   1.518 -0.0741  0.0513 -0.2535
  288MOL0     C38772   7.190   2.087   1.512 -1.1560  1.2164 -0.0495
  288MOL0     C38773   7.228   2.145   1.382  0.1982 -1.0163 -0.7588
  288MOL0     C38774   7.125   2.154   1.617  0.6030  0.3980  0.2411
  288MOL0     C38775   7.100   2.305   1.618 -0.0896 -0.4926  0.7574
  288MOL0     O38776   7.156   2.383   1.523 -0.1824  0.2603 -0.0894
  288MOL0     C38777   7.109   2.505   1.502  0.4473 -1.0670 -0.1357
  288MOL0     C38778   6.974   2.533   1.472  0.0674 -0.6888 -0.6159
  288MOL0     C38779   6.932   2.673   1.470 -0.3465 -0.4234  0.0694
  288MOL0     C38780   7.015   2.779   1.489 -0.1713 -0.0488 -0.5039
  288MOL0     O38781   6.948   2.899   1.483 -0.8617 -0.0546  0.3898
  288MOL0     C38782   7.039   3.009   1.459  1.5774 -0.7681  0.4860
  288MOL0     C38783   6.962   3.146   1.433 -0.1977  0.4753  0.2304
  288MOL0     C38784   6.906   3.195   1.558  0.2512  0.1099 -0.4169
  288MOL0     C38785   7.012   3.241   1.657  0.2172 -0.1761 -0.8305
  288MOL0     C38786   6.972   3.206   1.804  0.3410 -0.1447  0.1076
  288MOL0     C38787   7.095   3.245   1.889 -0.2291 -0.5623 -0.2060
  288MOL0     C38788   7.071   3.208   2.028  0.1789  0.2799 -0.7715
  288MOL0     C38789   7.203   3.181   2.105  0.3771  0.3354  0.8663
  288MOL0    Cl38790   7.319   3.326   2.076  0.7991  0.3053 -0.1576
  288MOL0     C38791   7.154   2.753   1.505 -0.9692  0.6851  0.8807
  288MOL0     C38792   7.196   2.619   1.507  0.6590 -0.7193 -0.3063
  288MOL0     O38793   7.030   2.355   1.718 -0.6026  0.2567  1.0780
  288MOL0     C38794   7.090   2.078   1.728  0.6719 -0.1596  0.0699
  288MOL0     C38795   7.126   1.935   1.736  0.2616  0.3006  0.3534
  288MOL0     N38796   6.793   1.311   1.641 -0.7979  0.3827  0.1684
  288MOL0     N38797   6.740   1.198   1.602 -0.1832 -0.2684 -0.6732
  288MOL0     C38798   7.307   1.059   0.671 -0.1137 -0.0379  0.2062
  288MOL0     C38799   7.289   1.149   0.562 -1.0980 -0.0930 -0.5993
  288MOL0     C38800   7.275   1.518   0.324 -0.1198  0.5062  0.3754
  288MOL0     C38801   7.391   1.580   0.264 -0.1137 -0.1433 -0.5836
  288MOL0     C38802   7.373   1.672   0.160  0.1543 -0.7631  0.7795
  288MOL0     C38803   7.246   1.680   0.087  0.8601  0.1326 -1.4772
  288MOL0     O38804   7.231   1.750  -0.030 -0.0962  0.3146 -0.9649
  288MOL0     C38805   7.343   1.829  -0.078  0.3521  0.5773 -0.1982
  288MOL0     C38806   7.292   1.891  -0.203 -0.2486 -1.1823  0.3425
  288MOL0     C38807   7.309   1.781  -0.319 -0.0518 -0.3912 -0.2517
  288MOL0     C38808   7.185   1.695  -0.343 -0.5607  0.0172  0.7420
  288MOL0     C38809   7.073   1.778  -0.390 -0.0129 -0.3868 -0.1046
  288MOL0     C38810   6.990   1.862  -0.429  1.1997  0.3360  0.6289
  288MOL0     C38811   7.138   1.614   0.151  0.1399  0.1289 -0.4238
  288MOL0     C38812   7.153   1.535   0.264 -0.4009  0.3297 -0.1727
  288MOL0     H38813   7.059   1.360   0.710 -4.1645 -3.1313  0.3644
  288MOL0     H38814   7.064   1.186   0.876  0.1046  1.1521 -0.1053
  288MOL0     H38815   7.119   1.051   1.046 -2.0004  0.6309 -1.7205
  288MOL0     H38816   7.039   0.914   0.954  0.3961 -1.1120  0.7371
  288MOL0     H38817   7.203   0.763   1.015 -0.4717  1.1751 -1.6637
  288MOL0     H38818   7.266   0.897   1.134 -3.2030 -0.7682  6.9720
  288MOL0     H38819   6.990   0.871   1.150 -0.9505 -2.5498 -2.9280
  288MOL0     H38820   7.053   0.711   1.176 -3.2755  0.8785  4.6810
  288MOL0     H38821   7.198   0.780   1.373 -0.2594 -0.8468  0.4266
  288MOL0     H38822   7.154   0.949   1.340  1.5429 -1.0995 -1.6027
  288MOL0     H38823   6.971   0.721   1.437  1.5613 -1.5398  2.8187
  288MOL0     H38824   7.049   0.851   1.534 -1.4682  3.2232 -0.3943
  288MOL0     H38825   6.936   1.023   1.434  1.0479  0.1138  0.5935
  288MOL0     H38826   6.858   0.926   1.309  2.7997 -0.0240 -0.3216
  288MOL0     H38827   6.683   0.964   1.466  2.2213  1.9030  0.7750
  288MOL0     H38828   6.736   0.795   1.517 -0.1251 -0.2463  4.8771
  288MOL0     H38829   6.870   0.896   1.701  1.6655  1.0658  0.7969
  288MOL0     H38830   6.705   0.936   1.723  1.9618 -0.4127  2.6677
  288MOL0     H38831   7.018   1.100   1.751 -0.8235  0.2233  2.2655
  288MOL0     H38832   6.945   1.479   1.759 -0.2025 -0.3658  0.0178
  288MOL0     H38833   7.040   1.358   1.828  0.2132 -0.7890 -0.5585
  288MOL0     H38834   7.063   1.460   1.544  0.0202 -0.0748  0.8309
  288MOL0     H38835   7.165   1.328   1.591  0.1219 -0.7619 -0.0468
  288MOL0     H38836   7.319   1.510   1.621  2.7271  1.7188  1.7413
  288MOL0     H38837   7.245   1.474   1.784  0.7749 -1.4345 -1.8003
  288MOL0     H38838   7.210   1.695   1.805 -0.1031 -0.1658  0.0755
  288MOL0     H38839   7.061   1.637   1.723  0.0500  0.7018 -0.4973
  288MOL0     H38840   7.267   1.902   1.436  2.6925 -0.8409  1.9345
  288MOL0     H38841   7.237   2.079   1.295 -3.2663  0.0659 -2.0683
  288MOL0     H38842   7.153   2.214   1.342  1.6707  2.4382  1.8832
  288MOL0     H38843   7.317   2.209   1.386 -1.6291  1.6391  0.8034
  288MOL0     H38844   6.899   2.455   1.459 -0.5244 -0.3547  0.6900
  288MOL0     H38845   6.827   2.687   1.446  0.2823  1.9350 -1.6028
  288MOL0     H38846   7.111   3.016   1.541 -1.2769 -4.5262  3.7538
  288MOL0     H38847   7.086   2.993   1.362  0.6567  2.6403 -0.6610
  288MOL0     H38848   7.019   3.222   1.379 -0.9854  0.5768 -0.4840
  288MOL0     H38849   6.874   3.132   1.369  1.6587  1.5353 -2.7907
  288MOL0     H38850   6.857   3.109   1.605  0.1786  0.7316  0.6834
  288MOL0     H38851   6.833   3.273   1.538 -1.7716 -1.6536 -0.2004
  288MOL0     H38852   7.116   3.211   1.644  0.8626  1.1414  0.8573
  288MOL0     H38853   7.023   3.348   1.637  1.3369  0.4520  2.4534
  288MOL0     H38854   6.949   3.100   1.816  0.4428 -0.0940  0.7740
  288MOL0     H38855   6.881   3.256   1.840 -0.4241 -2.1993  1.2238
  288MOL0     H38856   7.180   3.186   1.851 -0.6760 -0.5287 -1.3124
  288MOL0     H38857   7.131   3.348   1.885 -2.5899  0.8860  5.9282
  288MOL0     H38858   7.010   3.118   2.039  0.0918  0.1905 -1.8712
  288MOL0     H38859   7.007   3.290   2.062 -2.5428 -1.6331 -0.9506
  288MOL0     H38860   7.244   3.082   2.087 -0.7841  0.0290 -0.3165
  288MOL0     H38861   7.179   3.177   2.211  3.0654  2.0817  1.6321
  288MOL0     H38862   7.223   2.833   1.533 -2.1776  2.1334 -0.1344
  288MOL0     H38863   7.300   2.596   1.526  0.9537  2.5526  3.4075
  288MOL0     H38864   7.038   2.117   1.815 -4.1149 -2.3798 -1.4285
  288MOL0     H38865   7.094   1.887   1.828 -0.8561  1.1261  0.4064
  288MOL0     H38866   7.376   0.975   0.671  0.7580  0.6672  0.0013
  288MOL0     H38867   7.340   1.149   0.467  1.1331  1.9002  0.4821
  288MOL0     H38868   7.488   1.547   0.298 -1.2006 -3.0693 -0.0200
  288MOL0     H38869   7.456   1.719   0.109 -2.0911 -0.7539 -3.3083
  288MOL0     H38870   7.353   1.894   0.009  4.1411 -0.3486  0.2448
  288MOL0     H38871   7.442   1.784  -0.088 -0.3198 -1.5169  1.7326
  288MOL0     H38872   7.345   1.984  -0.225  1.8628 -2.1248  1.2043
  288MOL0     H38873   7.183   1.900  -0.198 -1.1335 -5.8604 -3.0995
  288MOL0     H38874   7.392   1.715  -0.293  0.0649 -0.5998 -1.1149
  288MOL0     H38875   7.337   1.833  -0.412  0.5325 -1.2928 -0.5926
  288MOL0     H38876   7.156   1.635  -0.257 -1.5858 -0.4718  0.0722
  288MOL0     H38877   7.186   1.615  -0.417  1.0345  0.2671  0.4426
  288MOL0     H38878   6.922   1.935  -0.469  0.2201  0.0246  1.6491
  288MOL0     H38879   7.039   1.637   0.112 -0.4904 -0.2761  0.8687
  288MOL0     H38880   7.061   1.492   0.303 -0.4784 -2.7862 -3.2467
  289MOL0     O38881   2.673   4.770   2.684  0.0102 -0.4235 -0.4456
  289MOL0     C38882   2.775   4.716   2.673 -0.9387  0.3950  0.6345
  289MOL0     O38883   2.879   4.746   2.598  0.3973  0.0680  0.4171
  289MOL0     C38884   2.883   4.843   2.499  0.6479  0.8152  0.1969
  289MOL0     C38885   2.849   4.970   2.540 -0.2996  0.0834 -0.9359
  289MOL0     C38886   2.854   5.084   2.457  0.3845 -0.0916 -0.0409
  289MOL0     C38887   2.872   5.068   2.316 -0.1345  0.0859  1.2052
  289MOL0     O38888   2.859   5.159   2.214 -0.6105  1.0057 -0.1937
  289MOL0     C38889   2.823   5.287   2.238 -0.0475 -0.8077 -0.7089
  289MOL0     C38890   2.670   5.294   2.255  0.6936 -0.0496 -0.6261
  289MOL0     C38891   2.614   5.430   2.208 -0.4224  0.1369 -0.2847
  289MOL0     C38892   2.604   5.530   2.318 -0.4322  0.7803 -0.2118
  289MOL0     C38893   2.516   5.655   2.284 -1.0470 -0.0011  0.1661
  289MOL0     C38894   2.509   5.746   2.400 -0.6230 -0.2843  0.8874
  289MOL0     C38895   2.434   5.873   2.365 -0.1048  0.0741  0.4049
  289MOL0     C38896   2.434   5.973   2.479 -0.2386 -0.8981 -0.1757
  289MOL0     N38897   2.345   6.096   2.435 -0.3438  0.2074 -0.1562
  289MOL0     C38898   2.360   6.178   2.333 -0.8891 -0.5868  0.3123
  289MOL0     C38899   2.290   6.283   2.363  0.7489 -0.5103 -0.9282
  289MOL0     C38900   2.266   6.403   2.275 -0.1569  0.7685 -0.3400
  289MOL0     C38901   2.404   6.467   2.223  0.1459 -0.0008  0.0043
  289MOL0     C38902   2.420   6.615   2.266 -0.1257 -0.0135 -0.0159
  289MOL0     C38903   2.422   6.625   2.417 -0.6391  0.0567  0.5413
  289MOL0     O38904   2.547   6.564   2.448 -0.6477 -1.3175 -0.8750
  289MOL0     C38905   2.631   6.654   2.512 -0.0132 -0.6676  0.1499
  289MOL0     C38906   2.599   6.726   2.623 -0.0420 -0.0375  0.0460
  289MOL0     C38907   2.690   6.800   2.697 -0.3673  0.0265  0.0913
  289MOL0     C38908   2.634   6.896   2.801 -0.8951  0.6811  0.5919
  289MOL0     C38909   2.825   6.793   2.654 -0.6929  0.2141  0.9727
  289MOL0     C38910   2.940   6.859   2.732  0.0370  0.9940 -1.1160
  289MOL0     O38911   2.920   6.893   2.864 -0.4732 -0.2366  1.2345
  289MOL0     C38912   3.016   6.968   2.942  0.5440 -0.1862  1.0870
  289MOL0     C38913   2.954   7.085   2.996  0.2981  0.0931 -1.1583
  289MOL0     C38914   3.036   7.177   3.062  0.6474 -0.3909 -0.8883
  289MOL0     C38915   3.177   7.164   3.059  0.0425 -0.7546  0.6803
  289MOL0     O38916   3.272   7.244   3.121 -0.0256  0.1857  0.2080
  289MOL0     C38917   3.224   7.369   3.159  0.3625  0.0252 -0.3447
  289MOL0     C38918   3.205   7.377   3.315  0.0092 -0.0125 -0.6586
  289MOL0     C38919   3.099   7.286   3.361  0.7896 -0.0743  0.3517
  289MOL0     C38920   3.106   7.269   3.512 -0.7750  0.5647 -0.0038
  289MOL0     C38921   2.991   7.185   3.555 -0.2914 -0.2528  1.1528
  289MOL0     C38922   2.981   7.158   3.705  0.0011 -0.3648  0.0218
  289MOL0     C38923   3.108   7.087   3.759  0.4312 -0.5054 -0.3202
  289MOL0     C38924   3.086   7.021   3.888  0.7756 -0.2791 -0.9507
  289MOL0    Cl38925   3.134   7.119   4.030 -0.6509 -0.1890 -0.4974
  289MOL0     C38926   3.235   7.059   2.994  0.5906  0.2630 -0.3988
  289MOL0     C38927   3.151   6.967   2.933  0.1593 -0.6414  0.0734
  289MOL0     O38928   3.045   6.872   2.670  0.0700  0.4752  0.1545
  289MOL0     C38929   2.861   6.720   2.540  0.3740 -0.4600  0.0821
  289MOL0     C38930   2.767   6.649   2.469  0.2425  1.4085 -0.5776
  289MOL0     N38931   2.216   6.265   2.487 -0.3273 -1.0708  0.1980
  289MOL0     N38932   2.256   6.148   2.523 -0.3736  0.4212 -0.7825
  289MOL0     C38933   2.908   4.940   2.280  0.3720 -0.3605  0.4123
  289MOL0     C38934   2.925   4.830   2.373 -0.0830  0.0958 -1.2113
  289MOL0     C38935   2.806   4.604   2.760  0.8204 -0.4596  0.1096
  289MOL0     C38936   2.940   4.562   2.776 -0.1460 -0.2899 -0.7001
  289MOL0     C38937   2.967   4.472   2.875 -0.5802 -0.8242 -0.6276
  289MOL0     C38938   2.871   4.427   2.960  0.1944  0.5477  0.6022
  289MOL0     O38939   2.909   4.338   3.052 -0.5275  0.6696 -0.5332
  289MOL0     C38940   2.813   4.248   3.104  0.3642  0.4670  0.1043
  289MOL0     C38941   2.893   4.149   3.195  0.5544 -0.7899  0.8789
  289MOL0     C38942   2.826   4.017   3.216 -0.2100  0.5866 -0.3620
  289MOL0     C38943   2.918   3.914   3.287 -0.1270 -0.1555  0.2606
  289MOL0     C38944   2.849   3.823   3.378  0.4763  0.6542  0.1169
  289MOL0     C38945   2.777   3.763   3.455 -0.3543  0.0700  0.2085
  289MOL0     C38946   2.739   4.473   2.942 -0.4366 -0.0361 -1.1165
  289MOL0     C38947   2.707   4.552   2.836  0.4655  0.6346 -0.2765
  289MOL0     H38948   2.835   5.007   2.641  1.4245  1.5762 -1.1843
  289MOL0     H38949   2.841   5.183   2.500  0.8552 -0.3559  0.7314
  289MOL0     H38950   2.881   5.336   2.316  1.1399  2.0451 -3.1555
  289MOL0     H38951   2.844   5.339   2.144  0.4295 -1.8636 -1.1965
  289MOL0     H38952   2.616   5.211   2.208  0.7429 -1.1999  1.2513
  289MOL0     H38953   2.654   5.289   2.363 -1.6166  2.9045 -0.6699
  289MOL0     H38954   2.683   5.466   2.131 -0.3441  0.2005 -0.1854
  289MOL0     H38955   2.515   5.425   2.162 -0.1432  1.3713 -1.0825
  289MOL0     H38956   2.569   5.487   2.413  3.1415 -1.9542  0.0733
  289MOL0     H38957   2.703   5.573   2.334 -0.7559  1.6454 -0.4715
  289MOL0     H38958   2.544   5.721   2.201  0.6673 -1.3457 -0.3930
  289MOL0     H38959   2.421   5.606   2.259 -1.1216  0.6149 -0.8317
  289MOL0     H38960   2.459   5.699   2.486  2.1516  0.3363  2.9809
  289MOL0     H38961   2.611   5.781   2.419 -0.4525 -0.4579  0.2971
  289MOL0     H38962   2.494   5.923   2.288  3.1369 -4.6016 -0.5890
  289MOL0     H38963   2.335   5.854   2.323 -0.0916  2.0830 -0.6573
  289MOL0     H38964   2.539   6.001   2.491 -0.2003 -1.3414  0.5829
  289MOL0     H38965   2.402   5.942   2.579 -0.0524 -3.8232 -0.9396
  289MOL0     H38966   2.434   6.179   2.253  0.1916 -0.2757  1.2936
  289MOL0     H38967   2.206   6.359   2.195 -0.8037 -1.0775  1.0627
  289MOL0     H38968   2.201   6.476   2.324 -0.1292 -0.0398  0.9626
  289MOL0     H38969   2.391   6.473   2.114 -1.4861 -1.6299  0.0602
  289MOL0     H38970   2.493   6.405   2.231  0.4070  0.4805  0.9347
  289MOL0     H38971   2.335   6.675   2.231  1.3243  1.9053 -0.4201
  289MOL0     H38972   2.505   6.657   2.212 -0.9372  0.8383 -0.6654
  289MOL0     H38973   2.343   6.577   2.475  1.0488 -2.9264  0.5828
  289MOL0     H38974   2.427   6.734   2.424  1.9874  0.2951 -2.7012
  289MOL0     H38975   2.499   6.723   2.666  0.7163 -0.0557  1.8996
  289MOL0     H38976   2.687   6.991   2.789  2.5919 -0.8259  2.4223
  289MOL0     H38977   2.526   6.907   2.795 -0.9296 -0.2179 -2.7048
  289MOL0     H38978   2.666   6.860   2.899 -0.5941  2.4562  1.1815
  289MOL0     H38979   2.847   7.091   3.012  0.4429 -2.4374  1.6021
  289MOL0     H38980   2.999   7.259   3.123  3.6895  1.6419 -1.5039
  289MOL0     H38981   3.302   7.443   3.139  1.3931 -0.3256  1.9461
  289MOL0     H38982   3.138   7.410   3.106 -0.5397  1.5218  2.0882
  289MOL0     H38983   3.295   7.353   3.372 -0.9182 -3.0086 -0.2540
  289MOL0     H38984   3.180   7.481   3.341 -2.2567 -0.3251 -1.3443
  289MOL0     H38985   3.114   7.188   3.314  0.7871  0.4548 -0.7918
  289MOL0     H38986   3.003   7.329   3.332  1.0181 -1.0684 -2.1851
  289MOL0     H38987   3.199   7.217   3.538 -0.1999 -1.0112 -4.3301
  289MOL0     H38988   3.110   7.367   3.561  1.2557 -0.7436  2.7229
  289MOL0     H38989   2.982   7.092   3.499  0.1506 -0.4108  1.3398
  289MOL0     H38990   2.901   7.243   3.530  0.4972  0.6253  0.2250
  289MOL0     H38991   2.957   7.254   3.752  3.0965 -0.0913  1.2279
  289MOL0     H38992   2.899   7.086   3.709 -0.0978 -0.4069 -1.7343
  289MOL0     H38993   3.183   7.165   3.769  0.1923 -0.3140  0.0105
  289MOL0     H38994   3.151   7.014   3.690  0.0119 -0.1280 -0.9901
  289MOL0     H38995   3.142   6.927   3.890  3.0924  0.8603  3.6636
  289MOL0     H38996   2.978   7.004   3.891  0.6937 -0.5824 -3.4525
  289MOL0     H38997   3.342   7.038   3.000  0.1107 -3.5503 -1.8655
  289MOL0     H38998   3.207   6.902   2.866 -0.9584 -0.1739 -1.3488
  289MOL0     H38999   2.963   6.730   2.503  0.9291  0.8592  1.8209
  289MOL0     H39000   2.798   6.589   2.385 -0.7439  0.4414 -0.2748
  289MOL0     H39001   2.935   4.933   2.175 -1.2253  1.5252 -0.1778
  289MOL0     H39002   2.953   4.731   2.339 -2.1944 -2.1984  3.0369
  289MOL0     H39003   3.017   4.595   2.707  1.0606  1.2540  1.2749
  289MOL0     H39004   3.065   4.428   2.885  1.6078  3.5311 -0.7870
  289MOL0     H39005   2.738   4.299   3.166  0.2927  0.9217 -0.3465
  289MOL0     H39006   2.751   4.187   3.038 -2.9484  1.3013  2.1960
  289MOL0     H39007   2.903   4.194   3.294 -1.0892  1.5464  0.0752
  289MOL0     H39008   2.995   4.131   3.157  0.4097 -0.7576  0.4682
  289MOL0     H39009   2.791   3.987   3.117 -0.8503  0.6869 -0.1747
  289MOL0     H39010   2.743   4.037   3.285  2.3507  3.3668  2.2384
  289MOL0     H39011   2.990   3.973   3.344  1.7413 -0.9381 -1.1848
  289MOL0     H39012   2.979   3.855   3.217  3.2412  1.8718  1.2725
  289MOL0     H39013   2.696   3.736   3.520  0.5398  1.2532  1.8770
  289MOL0     H39014   2.661   4.440   3.011  3.0170 -2.9693  1.8153
  289MOL0     H39015   2.606   4.591   2.824  0.7326  0.4416 -5.3443
  290MOL0     O39016   5.486   5.303   8.433  0.2613  0.1503  0.1973
  290MOL0     C39017   5.451   5.411   8.397 -0.1212  1.5365  0.1790
  290MOL0     O39018   5.523   5.478   8.304  0.2286  0.3862 -0.2769
  290MOL0     C39019   5.603   5.411   8.211  0.4747  0.2369 -0.3628
  290MOL0     C39020   5.734   5.458   8.168 -0.4204 -0.2782  0.7087
  290MOL0     C39021   5.805   5.400   8.062  0.6813  0.9606 -0.3708
  290MOL0     C39022   5.746   5.288   7.997 -0.2264 -0.1738 -0.0350
  290MOL0     O39023   5.815   5.228   7.901 -0.2622 -0.1713  0.1740
  290MOL0     C39024   5.746   5.213   7.772 -0.3851 -0.2504  0.2709
  290MOL0     C39025   5.860   5.193   7.675 -1.3456  0.8836  0.0260
  290MOL0     C39026   5.928   5.319   7.625  0.1013  0.2969 -0.3990
  290MOL0     C39027   6.007   5.399   7.726  0.0925 -0.0983  0.0433
  290MOL0     C39028   6.117   5.494   7.670  0.6453  0.0930 -0.3223
  290MOL0     C39029   6.228   5.531   7.782  0.0937  0.7758  0.4911
  290MOL0     C39030   6.332   5.611   7.695  0.9923  0.8856 -0.4224
  290MOL0     C39031   6.475   5.615   7.751  0.3443  0.6404  0.7856
  290MOL0     N39032   6.553   5.736   7.728  1.1615 -0.5345 -0.1202
  290MOL0     C39033   6.507   5.866   7.710  0.2432  0.0260 -0.2265
  290MOL0     C39034   6.622   5.929   7.653  0.2847 -0.1733 -0.8784
  290MOL0     C39035   6.621   6.075   7.635  0.4922  0.2100  0.7411
  290MOL0     C39036   6.593   6.157   7.762 -1.3298  0.2966  0.2563
  290MOL0     C39037   6.692   6.133   7.876  0.6662  0.7981  0.5475
  290MOL0     C39038   6.814   6.232   7.860  0.2925 -0.1711 -0.0242
  290MOL0     O39039   6.884   6.230   7.986  0.0408 -0.0345 -0.0091
  290MOL0     C39040   6.913   6.354   8.036  0.3506  0.4419 -0.0613
  290MOL0     C39041   7.039   6.404   8.005 -0.4671 -0.0476 -0.1025
  290MOL0     C39042   7.080   6.538   8.045  0.1673  0.2727 -0.7882
  290MOL0     C39043   7.221   6.586   8.020 -0.4658 -0.8750 -0.7633
  290MOL0     C39044   6.987   6.615   8.121  0.1469 -0.2938 -0.6541
  290MOL0     C39045   7.010   6.756   8.172  0.5350  0.4210 -0.0755
  290MOL0     O39046   6.908   6.813   8.241 -0.2021  0.4125  0.8836
  290MOL0     C39047   6.909   6.943   8.295 -0.2942  0.5277 -0.1583
  290MOL0     C39048   7.018   7.020   8.335 -0.5519  0.0266  0.6730
  290MOL0     C39049   7.007   7.153   8.366 -0.3924 -0.3589  0.4188
  290MOL0     C39050   6.878   7.212   8.363 -0.5162  0.0529  0.7106
  290MOL0     O39051   6.857   7.342   8.393 -0.3304 -0.6798 -0.6991
  290MOL0     C39052   6.970   7.423   8.419 -0.3605  0.4457 -0.1064
  290MOL0     C39053   6.930   7.572   8.432  0.2450  0.2939  0.3897
  290MOL0     C39054   6.814   7.598   8.521  0.4351 -0.1040 -0.0052
  290MOL0     C39055   6.860   7.570   8.662  0.0785  0.4463 -1.1617
  290MOL0     C39056   6.972   7.658   8.709  0.4489 -0.1701 -0.1254
  290MOL0     C39057   6.992   7.625   8.861  0.3028  1.3135  0.5926
  290MOL0     C39058   7.074   7.733   8.922  0.1870  0.2950  0.1112
  290MOL0     C39059   7.087   7.708   9.081 -0.7104 -0.4730  0.4838
  290MOL0    Cl39060   6.988   7.562   9.149  0.1163 -0.4428 -0.1698
  290MOL0     C39061   6.766   7.137   8.335  0.1509  0.7665  0.2266
  290MOL0     C39062   6.778   6.998   8.305 -0.3964  0.2710  0.5278
  290MOL0     O39063   7.109   6.817   8.131 -0.0977  0.1979 -0.5161
  290MOL0     C39064   6.865   6.550   8.148  0.3422 -0.4215 -0.1522
  290MOL0     C39065   6.817   6.429   8.100 -0.4908  0.0037 -0.0958
  290MOL0     N39066   6.727   5.844   7.661 -1.0124 -0.8981 -0.2012
  290MOL0     N39067   6.689   5.733   7.704 -0.6973  0.1334 -0.0751
  290MOL0     C39068   5.618   5.247   8.041 -0.5973 -0.4533  0.5767
  290MOL0     C39069   5.547   5.310   8.138  0.2359 -0.9725  0.3015
  290MOL0     C39070   5.339   5.478   8.459 -0.2365 -0.0940 -0.4298
  290MOL0     C39071   5.308   5.458   8.591 -0.0972  0.2132 -0.1849
  290MOL0     C39072   5.194   5.504   8.656 -0.4800  0.1280 -0.0038
  290MOL0     C39073   5.121   5.601   8.588  0.0065  1.1010  0.4413
  290MOL0     O39074   5.025   5.655   8.664  0.4004  1.0254  0.6664
  290MOL0     C39075   4.924   5.725   8.594 -0.6746 -0.4384 -0.7182
  290MOL0     C39076   4.829   5.789   8.694  0.1227 -0.5283  0.0972
  290MOL0     C39077   4.871   5.933   8.717  1.1679 -0.5741  0.5920
  290MOL0     C39078   4.777   5.995   8.834 -0.1229  0.6439  0.1189
  290MOL0     C39079   4.664   6.058   8.767  1.1920  0.5265  0.4572
  290MOL0     C39080   4.573   6.097   8.703  0.7625  0.0957 -1.0488
  290MOL0     C39081   5.161   5.642   8.460 -0.1477 -0.4562 -0.5260
  290MOL0     C39082   5.268   5.589   8.397 -0.8879  1.0775 -0.3176
  290MOL0     H39083   5.776   5.541   8.223  0.6975 -0.6092  0.3693
  290MOL0     H39084   5.905   5.429   8.032  0.1071  2.4205 -0.9525
  290MOL0     H39085   5.682   5.125   7.762 -1.1523  0.3533 -0.1830
  290MOL0     H39086   5.685   5.296   7.736  0.8152  1.1687  1.3683
  290MOL0     H39087   5.941   5.135   7.720 -0.3553  3.5366  1.9335
  290MOL0     H39088   5.824   5.136   7.588 -0.2109  0.6115 -0.2819
  290MOL0     H39089   5.993   5.290   7.542  1.8988 -0.5954  1.2525
  290MOL0     H39090   5.850   5.381   7.580 -0.7279  0.2770  0.9482
  290MOL0     H39091   5.929   5.459   7.773 -0.2363 -1.3497  1.1843
  290MOL0     H39092   6.059   5.329   7.792  0.4286 -2.4699 -2.5412
  290MOL0     H39093   6.154   5.433   7.587 -0.9264 -0.5345 -0.6009
  290MOL0     H39094   6.073   5.581   7.619  1.1413  0.7083  0.2846
  290MOL0     H39095   6.192   5.587   7.868  0.3467  1.0287  0.4337
  290MOL0     H39096   6.258   5.430   7.809 -0.6014 -0.2373 -2.1642
  290MOL0     H39097   6.329   5.570   7.594  0.1572 -0.6702  0.2051
  290MOL0     H39098   6.279   5.707   7.693 -0.3167  0.2024 -2.9612
  290MOL0     H39099   6.522   5.523   7.715 -0.6301 -0.0057  1.1274
  290MOL0     H39100   6.468   5.613   7.860 -1.4389 -1.1239  0.6876
  290MOL0     H39101   6.408   5.905   7.729  1.3290  1.8238  2.2286
  290MOL0     H39102   6.723   6.098   7.602  1.4969 -1.0333  2.8038
  290MOL0     H39103   6.548   6.103   7.559 -0.5433  1.8120  2.2590
  290MOL0     H39104   6.494   6.132   7.801  0.0326 -2.3602  2.3209
  290MOL0     H39105   6.590   6.264   7.736  2.7715  0.1553 -1.7235
  290MOL0     H39106   6.714   6.026   7.879  0.5039  0.7715  0.9505
  290MOL0     H39107   6.651   6.157   7.975 -0.1549 -0.0675  0.4240
  290MOL0     H39108   6.775   6.333   7.846  0.9968  0.2357  0.8387
  290MOL0     H39109   6.880   6.207   7.777  0.3225  2.8308 -1.0269
  290MOL0     H39110   7.106   6.332   7.959 -0.8756 -0.8271  0.4867
  290MOL0     H39111   7.262   6.519   7.944 -1.5109 -0.0472 -2.0946
  290MOL0     H39112   7.226   6.686   7.977  0.3325 -1.2170 -1.4999
  290MOL0     H39113   7.290   6.580   8.105 -2.3007 -1.6974  0.7488
  290MOL0     H39114   7.117   6.978   8.348 -0.0146  0.8064 -0.6149
  290MOL0     H39115   7.087   7.212   8.409 -0.1075 -0.5624  0.1795
  290MOL0     H39116   7.012   7.376   8.509 -2.4291 -1.8728 -0.2446
  290MOL0     H39117   7.026   7.415   8.326  0.9617 -0.4188  0.7242
  290MOL0     H39118   7.020   7.631   8.451  1.0544 -0.8102  0.0558
  290MOL0     H39119   6.898   7.590   8.329  2.1248  0.6168 -0.1674
  290MOL0     H39120   6.731   7.530   8.498  0.4572  0.0501 -0.5374
  290MOL0     H39121   6.773   7.699   8.508 -3.6766 -1.5670  0.2821
  290MOL0     H39122   6.767   7.596   8.714 -0.4928  0.4802 -2.1788
  290MOL0     H39123   6.864   7.461   8.666 -2.5800  0.3157  0.4095
  290MOL0     H39124   6.950   7.763   8.691  0.5275 -0.0044  0.7088
  290MOL0     H39125   7.060   7.627   8.650 -1.8367  0.1451 -4.0234
  290MOL0     H39126   6.893   7.605   8.904  0.8626 -2.2547  0.5166
  290MOL0     H39127   7.039   7.526   8.865 -2.2662 -0.2788 -3.0403
  290MOL0     H39128   7.040   7.835   8.901 -1.0243 -0.4659 -1.9522
  290MOL0     H39129   7.178   7.722   8.889  1.0187 -0.0974  2.6497
  290MOL0     H39130   7.046   7.800   9.125 -1.3660  0.2421 -1.4903
  290MOL0     H39131   7.192   7.697   9.109  0.2448 -0.0357 -2.5469
  290MOL0     H39132   6.664   7.175   8.342 -0.4419 -1.0741  2.7587
  290MOL0     H39133   6.703   6.922   8.286  0.8305 -0.5324 -1.2818
  290MOL0     H39134   6.796   6.618   8.196  3.2736  4.0601 -1.5877
  290MOL0     H39135   6.720   6.389   8.127  0.7890 -4.9428 -1.6814
  290MOL0     H39136   5.569   5.166   7.988 -0.5313 -1.3385  1.8193
  290MOL0     H39137   5.447   5.279   8.167 -0.6331  1.1373 -0.1960
  290MOL0     H39138   5.362   5.385   8.650  0.4202 -0.5901 -1.6096
  290MOL0     H39139   5.168   5.457   8.751  0.7263 -1.2215 -0.2917
  290MOL0     H39140   4.962   5.806   8.532 -0.3633 -0.9997 -1.2776
  290MOL0     H39141   4.859   5.650   8.546 -0.1566 -0.7893 -0.8761
  290MOL0     H39142   4.840   5.723   8.780  3.1197 -1.0218 -0.5622
  290MOL0     H39143   4.724   5.785   8.662 -0.2913  2.9320  0.6736
  290MOL0     H39144   4.879   5.988   8.622  0.4349  1.0916  1.4404
  290MOL0     H39145   4.977   5.932   8.745  0.7168 -2.0923  2.3905
  290MOL0     H39146   4.844   6.070   8.877  2.9943  0.0965 -3.2925
  290MOL0     H39147   4.744   5.917   8.903 -5.2252  2.5666  0.2673
  290MOL0     H39148   4.502   6.147   8.641  0.1380 -0.6819 -0.9796
  290MOL0     H39149   5.125   5.739   8.426 -0.5989 -0.9924 -1.6290
  290MOL0     H39150   5.303   5.611   8.296 -2.9085 -1.8903 -1.8446
  291MOL0     O39151   0.204   4.159   0.589 -0.7109 -1.1602  0.1634
  291MOL0     C39152   0.216   4.281   0.559  0.0093  0.7094 -0.3276
  291MOL0     O39153   0.283   4.324   0.452  0.9216  0.3379 -0.6423
  291MOL0     C39154   0.363   4.228   0.392  0.1096 -1.0369  0.9053
  291MOL0     C39155   0.470   4.163   0.451 -0.4453  0.2697  0.4515
  291MOL0     C39156   0.545   4.055   0.377  0.5422  0.9268  0.0470
  291MOL0     C39157   0.511   4.032   0.241  0.5981 -1.2536 -0.6140
  291MOL0     O39158   0.584   3.948   0.161 -0.0300 -0.4831  0.7109
  291MOL0     C39159   0.729   3.946   0.165  0.3397  0.1115 -0.7674
  291MOL0     C39160   0.781   3.808   0.164 -0.1880 -0.1597 -0.4854
  291MOL0     C39161   0.929   3.795   0.117 -0.5778 -0.4099 -0.0756
  291MOL0     C39162   0.966   3.647   0.094 -0.2379 -0.4619  0.2609
  291MOL0     C39163   0.974   3.573   0.217  0.1935  0.3217 -1.2666
  291MOL0     C39164   1.074   3.458   0.210 -0.1235 -1.2224  0.5557
  291MOL0     C39165   1.080   3.404   0.350 -0.2403 -0.2538 -0.4134
  291MOL0     C39166   1.086   3.250   0.354  0.7021 -0.2101 -0.1291
  291MOL0     N39167   1.206   3.207   0.291 -1.2287  0.2128  0.1094
  291MOL0     C39168   1.333   3.228   0.327 -0.4790 -0.2734  0.4887
  291MOL0     C39169   1.415   3.139   0.264  1.1881 -0.3107 -0.4740
  291MOL0     C39170   1.559   3.120   0.299  0.1530  0.0669 -0.2044
  291MOL0     C39171   1.640   3.170   0.180  0.5121 -0.3104 -0.1468
  291MOL0     C39172   1.797   3.196   0.186 -0.5594 -0.5314  0.3211
  291MOL0     C39173   1.849   3.268   0.321  0.1897 -0.1046  0.6574
  291MOL0     O39174   1.877   3.185   0.428 -0.5999  0.1909 -0.5588
  291MOL0     C39175   1.884   3.231   0.557 -0.1619  0.7684  0.6584
  291MOL0     C39176   1.907   3.366   0.594  1.1601  0.7366  0.0346
  291MOL0     C39177   1.908   3.407   0.731  0.0893 -0.2155 -0.0457
  291MOL0     C39178   1.952   3.558   0.738  0.3123  0.3164  1.1225
  291MOL0     C39179   1.878   3.317   0.838  0.3072 -0.0570  0.4064
  291MOL0     C39180   1.890   3.357   0.973  0.8960 -0.0033  0.4506
  291MOL0     O39181   1.873   3.256   1.056 -0.2791 -0.8217 -0.4152
  291MOL0     C39182   1.825   3.279   1.185  0.1640 -0.2471  0.8590
  291MOL0     C39183   1.890   3.363   1.278 -1.1454  0.4052 -0.3049
  291MOL0     C39184   1.864   3.356   1.409 -0.0308  0.3756 -0.9360
  291MOL0     C39185   1.767   3.281   1.455 -0.0874 -0.3529 -0.5833
  291MOL0     O39186   1.732   3.286   1.587 -0.9066  0.0823 -0.1532
  291MOL0     C39187   1.599   3.278   1.614  0.1435 -0.1102  0.0294
  291MOL0     C39188   1.587   3.308   1.767 -0.3905 -0.5957 -0.7662
  291MOL0     C39189   1.558   3.459   1.801 -0.3284 -0.1548  0.1520
  291MOL0     C39190   1.667   3.559   1.787  0.4938 -0.0990  0.3807
  291MOL0     C39191   1.615   3.697   1.749  1.3917  0.0602  0.1488
  291MOL0     C39192   1.721   3.806   1.740  0.0325 -0.7533 -0.4283
  291MOL0     C39193   1.681   3.935   1.665 -0.1223  0.9138  0.2303
  291MOL0     C39194   1.677   3.921   1.515  0.1058  0.2674  0.4920
  291MOL0    Cl39195   1.696   4.087   1.448 -0.5759 -0.0673 -0.1123
  291MOL0     C39196   1.701   3.202   1.366  0.7534 -0.6323 -0.1946
  291MOL0     C39197   1.727   3.191   1.233  0.3755 -1.0372  0.9311
  291MOL0     O39198   1.932   3.464   1.015 -1.0198  0.4625  0.8044
  291MOL0     C39199   1.868   3.184   0.797  0.5800 -0.4240 -0.0218
  291MOL0     C39200   1.871   3.145   0.665  0.2971  0.4706  0.3878
  291MOL0     N39201   1.329   3.052   0.202  0.1243 -0.1522 -0.9767
  291MOL0     N39202   1.208   3.098   0.214  0.1756 -0.1656  0.4463
  291MOL0     C39203   0.406   4.105   0.180  0.0416 -0.1169 -0.3680
  291MOL0     C39204   0.327   4.200   0.255  0.3979  0.2599  0.1093
  291MOL0     C39205   0.130   4.375   0.627  0.5574  0.1052 -0.6140
  291MOL0     C39206   0.071   4.472   0.549  0.8918  0.2679  0.2000
  291MOL0     C39207  -0.023   4.567   0.612 -0.3474 -0.4035 -0.2712
  291MOL0     C39208  -0.035   4.564   0.750  0.1249 -0.4691 -0.1681
  291MOL0     O39209  -0.117   4.645   0.822 -0.0985  0.1451  0.2295
  291MOL0     C39210  -0.237   4.590   0.892  0.0296 -0.2315  0.3586
  291MOL0     C39211  -0.236   4.608   1.042  0.0935  0.7666  0.3618
  291MOL0     C39212  -0.200   4.754   1.080  0.0942  1.0224 -0.0910
  291MOL0     C39213  -0.197   4.774   1.231  0.5214  0.1717 -0.3907
  291MOL0     C39214  -0.162   4.910   1.251 -0.2809 -0.1576  0.2160
  291MOL0     C39215  -0.118   5.017   1.261  0.4157 -0.1635  0.2673
  291MOL0     C39216   0.026   4.464   0.830  0.9894 -0.1282  0.0708
  291MOL0     C39217   0.107   4.370   0.766 -0.5894 -0.2088 -0.3037
  291MOL0     H39218   0.499   4.195   0.551 -0.7978 -0.0091  0.6467
  291MOL0     H39219   0.626   4.012   0.434 -0.1117 -1.9806 -1.0328
  291MOL0     H39220   0.766   3.984   0.069  1.7774  1.3948  0.2461
  291MOL0     H39221   0.763   4.001   0.253  1.4831 -1.5261 -0.1337
  291MOL0     H39222   0.768   3.765   0.263  5.1870  0.6047  0.8720
  291MOL0     H39223   0.728   3.749   0.088 -1.0947  1.3623 -1.0968
  291MOL0     H39224   0.953   3.840   0.020  0.9644 -0.7897  0.1016
  291MOL0     H39225   0.986   3.847   0.195 -1.2915  4.6937 -2.4986
  291MOL0     H39226   0.900   3.603   0.018 -1.5070 -1.0093  1.6357
  291MOL0     H39227   1.067   3.639   0.053 -0.7068 -0.9683 -0.8544
  291MOL0     H39228   1.007   3.631   0.304 -3.8746 -0.0135  0.7302
  291MOL0     H39229   0.877   3.536   0.252  1.4945 -0.4803  1.7340
  291MOL0     H39230   1.040   3.383   0.137 -1.2410 -2.0479  1.8814
  291MOL0     H39231   1.173   3.500   0.191 -0.6525  0.5580  1.4747
  291MOL0     H39232   1.167   3.453   0.395  0.1303 -0.5800 -0.7666
  291MOL0     H39233   0.988   3.423   0.404 -0.2734 -0.6616 -0.3243
  291MOL0     H39234   0.997   3.225   0.295 -0.4747 -1.2857  1.9773
  291MOL0     H39235   1.070   3.199   0.450 -2.1754  0.0344 -0.3918
  291MOL0     H39236   1.373   3.307   0.390  0.4158 -0.3253  0.0018
  291MOL0     H39237   1.584   3.177   0.389 -0.3220 -0.8188  0.5130
  291MOL0     H39238   1.578   3.014   0.322 -0.5368  0.3940  2.1719
  291MOL0     H39239   1.575   3.253   0.150 -2.8936 -2.0342  1.7298
  291MOL0     H39240   1.623   3.102   0.096  0.6074 -0.6906  0.1359
  291MOL0     H39241   1.826   3.249   0.095  1.1844 -3.0289 -0.6746
  291MOL0     H39242   1.852   3.105   0.160  0.0954  0.6568 -2.9019
  291MOL0     H39243   1.766   3.334   0.344 -2.8846 -3.5475  0.3515
  291MOL0     H39244   1.948   3.313   0.307  0.9066 -1.7218  0.2674
  291MOL0     H39245   1.924   3.436   0.514  0.8536  1.7714  0.8459
  291MOL0     H39246   2.046   3.577   0.684  0.6405 -1.6100  0.9456
  291MOL0     H39247   1.874   3.613   0.685  1.1531  2.2111  1.7367
  291MOL0     H39248   1.947   3.612   0.833  1.2906  1.8596  0.3441
  291MOL0     H39249   1.976   3.416   1.240 -1.8537  0.3043 -2.1064
  291MOL0     H39250   1.913   3.423   1.479 -2.3367  1.1155  0.0597
  291MOL0     H39251   1.541   3.355   1.563 -1.1208 -0.1136  1.4005
  291MOL0     H39252   1.573   3.174   1.589 -0.0565  0.1108 -0.7076
  291MOL0     H39253   1.504   3.243   1.796 -1.1649  0.3863 -0.7059
  291MOL0     H39254   1.683   3.281   1.812 -0.2689  1.0967  0.0772
  291MOL0     H39255   1.523   3.470   1.904 -1.6383 -0.7161 -0.2035
  291MOL0     H39256   1.478   3.500   1.738 -0.2426 -2.0772 -1.3072
  291MOL0     H39257   1.709   3.575   1.886 -1.7308  0.3831  1.3091
  291MOL0     H39258   1.741   3.522   1.715  0.5094  1.1656 -0.2679
  291MOL0     H39259   1.542   3.732   1.823 -1.0552  0.4847 -2.2926
  291MOL0     H39260   1.560   3.694   1.654  0.7633 -0.0060  0.5066
  291MOL0     H39261   1.749   3.817   1.845 -1.0843 -3.6421  0.2759
  291MOL0     H39262   1.814   3.767   1.698 -1.5035 -5.6957  0.0663
  291MOL0     H39263   1.742   4.023   1.689 -0.5549  1.3768 -0.3355
  291MOL0     H39264   1.578   3.960   1.694 -1.1571 -1.0509 -1.5332
  291MOL0     H39265   1.585   3.868   1.489  1.0146 -2.7710  2.8287
  291MOL0     H39266   1.760   3.858   1.482 -1.5870 -2.3672  0.9687
  291MOL0     H39267   1.620   3.134   1.388 -0.6284  0.5730 -1.3148
  291MOL0     H39268   1.671   3.120   1.172 -0.8761  0.5332  0.1862
  291MOL0     H39269   1.849   3.105   0.870  2.0556 -0.7421  0.0601
  291MOL0     H39270   1.869   3.040   0.635  0.8626  0.7774 -0.7702
  291MOL0     H39271   0.394   4.089   0.073  0.6617 -3.7062 -0.0125
  291MOL0     H39272   0.242   4.241   0.203 -0.4878 -2.3637 -0.6568
  291MOL0     H39273   0.087   4.480   0.442 -1.9903 -4.2608 -0.8540
  291MOL0     H39274  -0.076   4.638   0.550  2.0178  2.1480  0.4391
  291MOL0     H39275  -0.320   4.657   0.868 -0.1261 -0.7348 -0.5622
  291MOL0     H39276  -0.241   4.483   0.866  3.8945 -0.9874  2.1269
  291MOL0     H39277  -0.165   4.540   1.090 -1.6595  0.9798  3.4970
  291MOL0     H39278  -0.335   4.582   1.082  0.5925  1.8568  2.4693
  291MOL0     H39279  -0.285   4.799   1.029 -1.1545 -1.6373 -0.5077
  291MOL0     H39280  -0.105   4.792   1.041  1.0768 -0.3523  0.8482
  291MOL0     H39281  -0.129   4.710   1.287 -1.7450  0.3899  2.8837
  291MOL0     H39282  -0.300   4.755   1.261  1.3635 -1.5039  1.6230
  291MOL0     H39283  -0.072   5.114   1.263 -4.2898  2.4644 -1.6772
  291MOL0     H39284   0.001   4.465   0.935  0.1895  3.4160 -0.0251
  291MOL0     H39285   0.164   4.301   0.828 -2.4032 -1.3422  0.1938
  292MOL0     O39286  11.518   2.276   1.411 -0.7631  0.4492 -0.5715
  292MOL0     C39287  11.459   2.327   1.512  0.9010  0.1864  0.4876
  292MOL0     O39288  11.332   2.390   1.493 -0.2126  0.3053  0.0926
  292MOL0     C39289  11.257   2.386   1.380 -0.0520  1.3816 -0.6601
  292MOL0     C39290  11.271   2.483   1.279 -0.8618  0.6691  0.1854
  292MOL0     C39291  11.183   2.497   1.164 -0.0448  0.4418  0.1321
  292MOL0     C39292  11.072   2.409   1.152  0.1518  0.9195  0.7708
  292MOL0     O39293  10.978   2.421   1.046  0.1954 -0.0041  0.1425
  292MOL0     C39294  10.909   2.315   0.978  0.2758 -0.6909 -0.4918
  292MOL0     C39295  10.890   2.358   0.827 -0.2367 -0.4236 -0.4585
  292MOL0     C39296  10.848   2.252   0.722 -0.4840 -0.3109 -0.1117
  292MOL0     C39297  10.718   2.182   0.758  0.4848 -0.2866 -0.2503
  292MOL0     C39298  10.682   2.056   0.674  0.3285 -0.8334  0.1273
  292MOL0     C39299  10.568   1.970   0.750 -0.8581  0.7558  0.9680
  292MOL0     C39300  10.437   2.037   0.781  0.1487 -0.8219 -0.4865
  292MOL0     C39301  10.421   2.088   0.927  0.3399 -0.6441 -0.0088
  292MOL0     N39302  10.286   2.122   0.978 -0.3014  0.0686 -0.6353
  292MOL0     C39303  10.230   2.066   1.088 -0.3591  0.4264 -0.6206
  292MOL0     C39304  10.127   2.139   1.124  0.9743 -0.0711  0.7993
  292MOL0     C39305  10.072   2.166   1.261 -1.3088  0.2306 -0.3262
  292MOL0     C39306   9.974   2.282   1.257 -0.8765  0.6004  0.8217
  292MOL0     C39307   9.930   2.304   1.398 -0.2316  0.1459  0.4691
  292MOL0     C39308   9.814   2.402   1.412  0.7340  0.6625  0.6965
  292MOL0     O39309   9.861   2.542   1.383 -0.5487  0.6040  0.0288
  292MOL0     C39310   9.770   2.634   1.347 -0.3894 -0.9021  0.6179
  292MOL0     C39311   9.808   2.736   1.257 -0.2422  0.1585  1.0133
  292MOL0     C39312   9.717   2.834   1.222 -0.3245 -0.0473  1.5213
  292MOL0     C39313   9.766   2.940   1.117 -0.0710 -0.0095 -0.1251
  292MOL0     C39314   9.586   2.846   1.281 -0.1041 -0.6847 -0.8005
  292MOL0     C39315   9.473   2.934   1.230  0.0411  0.3357 -0.1602
  292MOL0     O39316   9.379   2.976   1.321  1.1322 -0.1553  0.9203
  292MOL0     C39317   9.333   3.099   1.277  0.6043  0.0093  0.6704
  292MOL0     C39318   9.218   3.107   1.192 -0.4796 -0.4058 -0.0325
  292MOL0     C39319   9.167   3.231   1.162 -0.3811  0.1229  0.5016
  292MOL0     C39320   9.236   3.349   1.215  0.6533  0.7079  0.0518
  292MOL0     O39321   9.183   3.468   1.196 -0.3676 -0.4294  0.0891
  292MOL0     C39322   9.092   3.513   1.301  0.1437 -0.3711  0.6877
  292MOL0     C39323   8.976   3.602   1.252  0.7184 -0.6558 -0.4587
  292MOL0     C39324   8.875   3.544   1.157 -0.8946  0.2490 -0.9996
  292MOL0     C39325   8.778   3.635   1.091  0.9994 -0.4329 -0.1616
  292MOL0     C39326   8.650   3.557   1.044  0.5512 -0.4887 -0.2050
  292MOL0     C39327   8.548   3.651   0.980 -0.0735 -0.1765  0.1433
  292MOL0     C39328   8.440   3.563   0.931  0.3141 -0.8455  0.3062
  292MOL0     C39329   8.309   3.651   0.912 -0.3197 -0.2145 -0.0715
  292MOL0    Cl39330   8.174   3.538   0.880  0.4715 -0.6952 -0.5788
  292MOL0     C39331   9.344   3.340   1.299 -0.9196  0.0041  0.6411
  292MOL0     C39332   9.385   3.219   1.332  0.3708  0.2498 -0.2463
  292MOL0     O39333   9.477   2.958   1.108  0.3608  0.2845  0.7008
  292MOL0     C39334   9.558   2.766   1.392 -0.3026 -0.4416  0.9375
  292MOL0     C39335   9.645   2.653   1.410  0.4485 -0.3094 -1.2910
  292MOL0     N39336  10.122   2.240   1.024  0.9119 -0.4374  0.4400
  292MOL0     N39337  10.231   2.239   0.947  0.3879 -0.6587  0.2392
  292MOL0     C39338  11.052   2.322   1.257 -0.0924 -0.3773  0.0570
  292MOL0     C39339  11.152   2.303   1.364  0.0814 -0.6255  0.6457
  292MOL0     C39340  11.529   2.327   1.646 -0.3023 -0.2274 -0.0926
  292MOL0     C39341  11.462   2.353   1.774  0.4363 -0.8718  0.2528
  292MOL0     C39342  11.538   2.356   1.896 -0.9614 -0.5380 -0.4217
  292MOL0     C39343  11.675   2.311   1.901 -0.5315  0.0156 -0.5771
  292MOL0     O39344  11.754   2.291   2.010  0.1407 -0.8961 -0.5437
  292MOL0     C39345  11.790   2.421   2.061  0.3654  0.4142 -0.9491
  292MOL0     C39346  11.860   2.407   2.197 -0.2567  1.2207 -0.2622
  292MOL0     C39347  11.939   2.533   2.219 -0.0793  0.9627  0.6558
  292MOL0     C39348  11.990   2.533   2.364 -0.1822 -0.5770  0.7299
  292MOL0     C39349  11.882   2.547   2.467 -0.6802  0.4290 -0.2348
  292MOL0     C39350  11.801   2.574   2.550 -0.8483  0.7169  0.2305
  292MOL0     C39351  11.735   2.277   1.773  0.1005 -1.0427  0.4191
  292MOL0     C39352  11.659   2.281   1.652 -0.5419  1.0532  0.1654
  292MOL0     H39353  11.347   2.561   1.284 -2.5400  2.3436  1.0422
  292MOL0     H39354  11.200   2.572   1.087 -1.7154 -2.1357 -2.9597
  292MOL0     H39355  10.967   2.224   0.993  2.0150  0.5943  0.9582
  292MOL0     H39356  10.810   2.307   1.025 -0.0552 -0.5249 -1.1543
  292MOL0     H39357  10.822   2.443   0.826 -1.7923 -1.6396 -0.7728
  292MOL0     H39358  10.990   2.386   0.792  2.1739 -3.2216  3.3946
  292MOL0     H39359  10.839   2.273   0.615 -0.1815 -1.9296 -0.4811
  292MOL0     H39360  10.931   2.181   0.729 -0.1363  0.2498  3.7180
  292MOL0     H39361  10.722   2.152   0.863  0.0042  1.2184  0.2219
  292MOL0     H39362  10.638   2.257   0.755  0.4571 -0.2488  0.8698
  292MOL0     H39363  10.646   2.093   0.578  0.4932  0.6086  0.5933
  292MOL0     H39364  10.772   1.997   0.654  1.3047  1.4604 -2.9188
  292MOL0     H39365  10.544   1.881   0.691  0.0551  1.5624 -0.6992
  292MOL0     H39366  10.618   1.932   0.840 -0.4275  2.5298  1.5143
  292MOL0     H39367  10.426   2.118   0.709  0.1310  0.5816  1.0414
  292MOL0     H39368  10.356   1.969   0.754  0.4859 -0.9810 -1.1136
  292MOL0     H39369  10.487   2.172   0.950 -2.1537  1.3964  0.0595
  292MOL0     H39370  10.468   2.016   0.995  2.1498 -0.6307 -1.1713
  292MOL0     H39371  10.285   1.996   1.150  3.5204  3.0998 -0.6448
  292MOL0     H39372  10.015   2.083   1.304 -0.3608 -0.3431 -0.1440
  292MOL0     H39373  10.164   2.178   1.320 -2.8890 -2.3114  2.9550
  292MOL0     H39374   9.886   2.254   1.198  1.0660 -1.8540 -1.1115
  292MOL0     H39375  10.016   2.373   1.214  0.2055 -0.0701  0.4102
  292MOL0     H39376  10.010   2.346   1.460 -1.9805  0.1486  2.8341
  292MOL0     H39377   9.904   2.207   1.440 -1.9392  1.4928  2.7515
  292MOL0     H39378   9.763   2.395   1.508 -0.4556  0.8375  0.0914
  292MOL0     H39379   9.750   2.358   1.334  2.9481 -4.5071  1.3335
  292MOL0     H39380   9.901   2.724   1.202 -1.0449 -1.0458 -0.1595
  292MOL0     H39381   9.774   3.045   1.149  1.5108  0.1928 -1.0381
  292MOL0     H39382   9.868   2.911   1.087  0.2362 -0.9993  1.7554
  292MOL0     H39383   9.699   2.943   1.030 -0.1976 -0.5935 -0.0501
  292MOL0     H39384   9.164   3.015   1.177 -0.6465 -0.4289  0.6804
  292MOL0     H39385   9.093   3.239   1.083  0.3450  1.3044 -0.0763
  292MOL0     H39386   9.059   3.423   1.354  0.7694 -2.2418 -1.9145
  292MOL0     H39387   9.148   3.572   1.374 -0.7336  1.4395 -0.0411
  292MOL0     H39388   8.923   3.629   1.345  0.3506 -0.1707 -0.8009
  292MOL0     H39389   9.020   3.691   1.207 -1.5249  0.0923 -1.3325
  292MOL0     H39390   8.830   3.468   1.221 -0.5627 -1.4284 -2.6751
  292MOL0     H39391   8.930   3.485   1.083 -2.5476  0.7442 -2.7016
  292MOL0     H39392   8.740   3.699   1.170 -0.0237 -1.1393 -0.0640
  292MOL0     H39393   8.832   3.692   1.015 -0.6000  0.7522 -0.4524
  292MOL0     H39394   8.602   3.507   1.129  1.5570  2.0176  1.9839
  292MOL0     H39395   8.687   3.485   0.971  1.2605 -1.1521  0.7866
  292MOL0     H39396   8.491   3.714   1.049 -0.4430 -0.3386 -0.0148
  292MOL0     H39397   8.596   3.694   0.891  0.4416 -1.2714 -0.1337
  292MOL0     H39398   8.413   3.493   1.011  2.2241  0.7870  2.5082
  292MOL0     H39399   8.472   3.503   0.845 -0.7838  0.1559 -0.8394
  292MOL0     H39400   8.304   3.711   0.821 -3.1170  0.7351  0.6129
  292MOL0     H39401   8.295   3.722   0.995  0.3260 -2.3272  1.9517
  292MOL0     H39402   9.395   3.424   1.346  2.7927 -1.8475  0.2943
  292MOL0     H39403   9.475   3.204   1.392  0.5554  0.2754 -0.5155
  292MOL0     H39404   9.468   2.782   1.451  0.0445 -0.7437  1.5542
  292MOL0     H39405   9.627   2.580   1.489 -0.4992  3.5956  2.5171
  292MOL0     H39406  10.962   2.263   1.246 -0.0200 -0.2082 -1.8166
  292MOL0     H39407  11.125   2.226   1.434  2.5121  0.0386  2.4560
  292MOL0     H39408  11.359   2.378   1.795 -0.1309 -2.4047 -0.5970
  292MOL0     H39409  11.494   2.384   1.991  0.9078  2.5208 -0.3017
  292MOL0     H39410  11.849   2.487   1.996 -0.9868  0.1864 -2.4619
  292MOL0     H39411  11.703   2.482   2.087  0.6946 -0.5990  3.3234
  292MOL0     H39412  11.929   2.322   2.201 -0.0443  1.4451  2.7589
  292MOL0     H39413  11.775   2.384   2.263 -1.0907 -0.7141 -1.8793
  292MOL0     H39414  11.891   2.629   2.197  0.9565  1.0918 -1.2810
  292MOL0     H39415  12.021   2.535   2.147 -1.1677 -0.1418 -0.6747
  292MOL0     H39416  12.072   2.603   2.377  0.8613 -1.9343  1.7647
  292MOL0     H39417  12.036   2.435   2.378 -2.0829 -1.5803  0.2882
  292MOL0     H39418  11.733   2.613   2.624  3.0824  2.7624  3.1066
  292MOL0     H39419  11.831   2.228   1.771  0.6227 -0.0197 -1.7232
  292MOL0     H39420  11.715   2.253   1.564  0.2857  3.1263 -0.0301
  293MOL0     O39421   8.169   8.973   4.351  0.4529 -0.4188 -0.5754
  293MOL0     C39422   8.194   9.047   4.253 -0.5423  0.5786  0.3440
  293MOL0     O39423   8.111   9.073   4.146 -0.3248 -0.0198  0.3573
  293MOL0     C39424   7.981   9.057   4.154  0.4895 -0.2663  0.2735
  293MOL0     C39425   7.893   9.073   4.270 -0.0405 -0.2410  0.1114
  293MOL0     C39426   7.760   9.032   4.260  0.3249 -0.4069  0.2458
  293MOL0     C39427   7.711   8.978   4.141  0.0468 -0.5416 -0.5100
  293MOL0     O39428   7.579   8.925   4.130  0.2870 -0.0704  1.1042
  293MOL0     C39429   7.506   8.943   4.002  0.0993 -1.5016 -0.6253
  293MOL0     C39430   7.356   8.915   4.039 -0.4243 -0.3937 -0.0246
  293MOL0     C39431   7.276   8.938   3.913  0.4951 -0.3803 -0.3504
  293MOL0     C39432   7.123   8.954   3.955  1.0120  0.6415  0.3914
  293MOL0     C39433   7.034   8.872   3.861 -1.2778 -0.6787  0.0411
  293MOL0     C39434   6.893   8.888   3.915 -0.1464  0.2068 -0.3584
  293MOL0     C39435   6.802   8.806   3.832 -1.1203  1.0300 -0.7865
  293MOL0     C39436   6.652   8.845   3.883 -0.0755  0.8153  0.7932
  293MOL0     N39437   6.548   8.743   3.851 -0.3314 -0.1516 -0.7371
  293MOL0     C39438   6.546   8.609   3.883 -0.7351  0.9182  1.2828
  293MOL0     C39439   6.420   8.575   3.848  0.0326 -0.4514  0.9628
  293MOL0     C39440   6.337   8.453   3.858 -0.0708  0.1228 -1.5416
  293MOL0     C39441   6.413   8.320   3.854 -0.5599 -0.3181  0.3843
  293MOL0     C39442   6.495   8.290   3.732 -0.7460 -0.3765  0.1790
  293MOL0     C39443   6.539   8.152   3.730  0.3992  0.5121 -0.0640
  293MOL0     O39444   6.645   8.136   3.829 -0.4552 -0.2360  0.1111
  293MOL0     C39445   6.619   8.062   3.940  0.0883 -0.2872 -0.2561
  293MOL0     C39446   6.535   7.939   3.933  0.0139 -1.0822 -0.5739
  293MOL0     C39447   6.529   7.853   4.041 -1.6963  0.5916 -0.9032
  293MOL0     C39448   6.438   7.729   4.041  0.8002  0.1917  0.3140
  293MOL0     C39449   6.616   7.872   4.152  0.7630 -0.8086 -0.1441
  293MOL0     C39450   6.625   7.788   4.286  0.5017 -0.1921 -0.4066
  293MOL0     O39451   6.716   7.813   4.378 -0.3141  0.3261  0.1502
  293MOL0     C39452   6.756   7.708   4.456  0.3690 -0.4553 -0.6655
  293MOL0     C39453   6.687   7.653   4.562  0.2021 -0.9030 -0.1515
  293MOL0     C39454   6.736   7.555   4.650  0.6830  0.1568 -0.2641
  293MOL0     C39455   6.877   7.518   4.634 -0.0321 -0.0997  0.1525
  293MOL0     O39456   6.920   7.428   4.726  0.4439  0.4359 -0.3783
  293MOL0     C39457   7.054   7.382   4.715 -0.3808  0.2007  0.2999
  293MOL0     C39458   7.077   7.259   4.798 -0.8828 -0.1099 -0.0503
  293MOL0     C39459   7.221   7.202   4.785  0.1090 -1.5284  0.1308
  293MOL0     C39460   7.239   7.083   4.887  0.4568 -0.6970 -0.4392
  293MOL0     C39461   7.374   7.012   4.877 -0.6989 -0.0009 -0.8998
  293MOL0     C39462   7.482   7.128   4.907 -1.0309 -0.4982 -0.2869
  293MOL0     C39463   7.621   7.069   4.928 -0.2090 -0.2050 -0.5400
  293MOL0     C39464   7.740   7.166   4.891  0.2365 -0.5146 -0.7608
  293MOL0    Cl39465   7.756   7.292   5.007 -0.0437  0.1206 -0.0688
  293MOL0     C39466   6.946   7.580   4.529  0.6096 -0.8630 -0.2011
  293MOL0     C39467   6.889   7.672   4.442 -0.7180 -0.3511 -0.1184
  293MOL0     O39468   6.546   7.695   4.296  0.2341 -0.0237 -0.1473
  293MOL0     C39469   6.686   7.997   4.164  0.1677 -0.0141  0.1418
  293MOL0     C39470   6.696   8.090   4.055 -0.3529 -0.3607 -0.8497
  293MOL0     N39471   6.349   8.696   3.810 -0.5438 -0.1435 -0.6434
  293MOL0     N39472   6.435   8.787   3.798 -0.2523 -0.2724 -0.1485
  293MOL0     C39473   7.790   8.974   4.020  1.2369  0.0600  0.0850
  293MOL0     C39474   7.927   9.007   4.034 -0.7356 -0.4239  0.5469
  293MOL0     C39475   8.335   9.099   4.246  0.7015  0.4179 -0.1040
  293MOL0     C39476   8.430   9.048   4.332  0.3241 -1.0222  1.1006
  293MOL0     C39477   8.564   9.088   4.328  0.5164  0.1007  0.7309
  293MOL0     C39478   8.600   9.197   4.239  0.3505 -0.0019  0.1336
  293MOL0     O39479   8.727   9.246   4.232  0.5650 -0.2353  0.5820
  293MOL0     C39480   8.823   9.221   4.333 -0.8611  0.6088 -0.1705
  293MOL0     C39481   8.943   9.313   4.303  0.1117  0.4555 -1.0985
  293MOL0     C39482   9.034   9.284   4.176 -0.2427  0.2794 -0.1056
  293MOL0     C39483   9.070   9.132   4.148 -0.5381  0.0668 -0.0570
  293MOL0     C39484   9.103   9.066   4.274  0.6671 -0.3874 -0.1819
  293MOL0     C39485   9.120   9.005   4.374 -0.4884  0.9631 -0.0925
  293MOL0     C39486   8.496   9.247   4.151 -0.5769 -0.2350  0.6184
  293MOL0     C39487   8.371   9.195   4.153  0.6902  0.2200 -0.1618
  293MOL0     H39488   7.925   9.107   4.368 -2.5327  0.1127  0.8639
  293MOL0     H39489   7.699   9.051   4.348  0.7311 -1.6756  0.8198
  293MOL0     H39490   7.499   9.046   3.967 -1.3039 -2.2044 -2.5856
  293MOL0     H39491   7.536   8.879   3.919  0.4690 -1.3172 -0.6348
  293MOL0     H39492   7.349   8.816   4.085 -1.9028 -0.9367 -1.3440
  293MOL0     H39493   7.328   8.987   4.115 -1.1068  1.1069 -1.6319
  293MOL0     H39494   7.293   9.033   3.861  0.5419 -1.5321 -2.5806
  293MOL0     H39495   7.300   8.860   3.841  3.6002  1.8916 -2.0331
  293MOL0     H39496   7.107   8.922   4.058 -0.8052  0.6690  0.1494
  293MOL0     H39497   7.089   9.058   3.953 -4.0510 -0.7760 -1.5897
  293MOL0     H39498   7.037   8.912   3.760  0.6282 -0.9607 -0.0573
  293MOL0     H39499   7.059   8.766   3.851 -2.7237 -0.8370 -2.9841
  293MOL0     H39500   6.879   8.844   4.014 -0.1607 -0.0625 -0.4784
  293MOL0     H39501   6.859   8.992   3.907  0.0872  0.2564 -0.7554
  293MOL0     H39502   6.808   8.839   3.727  0.7097 -0.0784 -1.0668
  293MOL0     H39503   6.822   8.699   3.838 -3.5866  0.6076  1.9823
  293MOL0     H39504   6.620   8.938   3.837  1.3586 -0.0536 -2.2356
  293MOL0     H39505   6.646   8.866   3.990  0.3655  0.3760  0.9095
  293MOL0     H39506   6.617   8.551   3.941  1.9317  2.1276 -0.6036
  293MOL0     H39507   6.272   8.460   3.946  0.7585 -2.3681 -0.6551
  293MOL0     H39508   6.274   8.465   3.769 -1.9479  0.5846 -0.2015
  293MOL0     H39509   6.341   8.239   3.873  1.5975 -2.4362  0.0217
  293MOL0     H39510   6.480   8.322   3.940 -0.0242 -0.0478 -0.0371
  293MOL0     H39511   6.587   8.349   3.724 -0.9205  0.1204  1.5647
  293MOL0     H39512   6.424   8.316   3.653 -0.2378  2.3936  0.5244
  293MOL0     H39513   6.574   8.123   3.631 -1.6752 -1.7866 -0.2272
  293MOL0     H39514   6.458   8.081   3.745  2.0111 -1.9967 -2.1904
  293MOL0     H39515   6.466   7.898   3.859 -2.4722 -0.3193  1.2113
  293MOL0     H39516   6.379   7.735   4.133 -1.4117 -0.0188 -1.0182
  293MOL0     H39517   6.371   7.728   3.955  1.0180  0.5142  0.1407
  293MOL0     H39518   6.499   7.638   4.041  1.2904  0.4886  1.8823
  293MOL0     H39519   6.588   7.697   4.573  0.4071 -0.9864  3.2127
  293MOL0     H39520   6.677   7.524   4.735  0.1393 -1.9834 -1.3510
  293MOL0     H39521   7.068   7.375   4.607 -1.6749  2.0835 -0.0457
  293MOL0     H39522   7.121   7.465   4.740  0.3621  0.8399 -3.3166
  293MOL0     H39523   7.047   7.267   4.903  0.4481 -0.4169  0.3670
  293MOL0     H39524   7.016   7.180   4.754  0.2367 -1.9378  1.5378
  293MOL0     H39525   7.280   7.293   4.801 -1.9920  0.8414 -3.8113
  293MOL0     H39526   7.254   7.174   4.684  2.4263 -2.1488  1.0068
  293MOL0     H39527   7.215   7.117   4.988 -1.3690  0.8550 -1.3335
  293MOL0     H39528   7.164   7.008   4.862 -1.0376  0.7087 -0.3056
  293MOL0     H39529   7.402   6.977   4.777  0.3420 -2.1745  0.1054
  293MOL0     H39530   7.391   6.925   4.941  2.9523 -0.0101 -1.6693
  293MOL0     H39531   7.482   7.209   4.833  4.2713  0.3311  0.2257
  293MOL0     H39532   7.449   7.186   4.994 -2.7042  0.1776 -1.3244
  293MOL0     H39533   7.630   6.983   4.862  0.0171 -2.1324  1.8396
  293MOL0     H39534   7.629   7.039   5.033 -2.3188  3.0887  0.7404
  293MOL0     H39535   7.722   7.223   4.799  0.7567 -1.7468 -1.6563
  293MOL0     H39536   7.832   7.108   4.881 -1.3130 -3.9647  2.5197
  293MOL0     H39537   7.054   7.575   4.518  0.7939 -0.7709  1.3314
  293MOL0     H39538   6.946   7.740   4.380 -2.1409 -0.0221 -1.1108
  293MOL0     H39539   6.739   8.019   4.255 -0.8345 -4.4338  2.0593
  293MOL0     H39540   6.756   8.179   4.068  2.5887 -2.5118  2.1492
  293MOL0     H39541   7.766   8.942   3.919  2.5871  0.2012 -0.3099
  293MOL0     H39542   7.992   9.011   3.948 -2.0981  1.7756 -0.4926
  293MOL0     H39543   8.408   8.964   4.397  1.2307 -1.8040  0.4199
  293MOL0     H39544   8.633   9.029   4.389 -1.3333 -2.5013  0.4823
  293MOL0     H39545   8.784   9.218   4.435 -2.4540  0.5037 -0.7622
  293MOL0     H39546   8.859   9.118   4.329 -0.4001  0.7836 -0.6927
  293MOL0     H39547   9.002   9.308   4.395 -2.8378  2.1903  1.0678
  293MOL0     H39548   8.919   9.419   4.298  1.7888  0.8857 -0.5747
  293MOL0     H39549   9.124   9.347   4.183 -0.5342  0.5566  1.6702
  293MOL0     H39550   8.979   9.312   4.086 -1.3146 -0.6163  0.2529
  293MOL0     H39551   9.147   9.130   4.070 -0.5862  0.4475 -0.1173
  293MOL0     H39552   8.985   9.072   4.116  1.1708 -3.3476  1.3359
  293MOL0     H39553   9.140   8.958   4.468  3.3042  0.5056 -0.9536
  293MOL0     H39554   8.535   9.308   4.070 -0.5209  0.6580  1.3097
  293MOL0     H39555   8.293   9.213   4.080  0.8598  2.5767  0.1641
  294MOL0     O39556   7.751   6.315   8.022 -0.0715  0.6166  0.1537
  294MOL0     C39557   7.661   6.389   8.062  0.0653 -0.1523 -0.4342
  294MOL0     O39558   7.532   6.360   8.081  0.2992 -0.1381  0.8632
  294MOL0     C39559   7.467   6.278   7.995  0.9169  0.6921  0.3177
  294MOL0     C39560   7.341   6.215   8.037 -0.1208 -0.4565  0.3945
  294MOL0     C39561   7.253   6.149   7.941  0.3373  0.5289 -0.2293
  294MOL0     C39562   7.281   6.152   7.806 -1.1510  0.2869 -0.1543
  294MOL0     O39563   7.211   6.084   7.713  0.4313  0.0382 -0.0963
  294MOL0     C39564   7.229   5.947   7.704  0.0129  0.6956 -0.2523
  294MOL0     C39565   7.093   5.869   7.676 -0.5103  0.0340  0.5686
  294MOL0     C39566   7.114   5.712   7.677 -0.4192  0.7546  0.1725
  294MOL0     C39567   7.170   5.664   7.544 -0.1532  0.8608 -0.3046
  294MOL0     C39568   7.183   5.519   7.548  0.1504  0.4351  0.2971
  294MOL0     C39569   7.207   5.456   7.410 -0.1767 -0.2490  0.7579
  294MOL0     C39570   7.186   5.303   7.404 -0.2325 -0.2647 -0.1451
  294MOL0     C39571   7.202   5.245   7.257  0.2371  0.0499 -0.1779
  294MOL0     N39572   7.109   5.128   7.231 -0.5783 -0.3140 -0.4984
  294MOL0     C39573   6.970   5.131   7.219  0.7300  0.2158  0.8639
  294MOL0     C39574   6.942   5.005   7.186  1.1142  0.0065 -0.8158
  294MOL0     C39575   6.804   4.960   7.143  0.3448  0.0043  0.5927
  294MOL0     C39576   6.687   5.057   7.151 -1.5728  0.8108 -0.5673
  294MOL0     C39577   6.577   5.011   7.245  0.1289 -0.3354  0.2691
  294MOL0     C39578   6.617   5.001   7.395 -1.0465  0.0648  0.3171
  294MOL0     O39579   6.518   4.980   7.494 -0.8267 -0.4411  0.2770
  294MOL0     C39580   6.487   4.843   7.528  0.1109 -1.0398  0.6311
  294MOL0     C39581   6.537   4.801   7.645  0.2129  0.6538  0.6882
  294MOL0     C39582   6.529   4.666   7.700 -0.2401  0.1178 -0.2753
  294MOL0     C39583   6.599   4.652   7.834  0.2366  0.5290  0.2960
  294MOL0     C39584   6.457   4.575   7.634  0.0024 -0.7906  0.2717
  294MOL0     C39585   6.428   4.436   7.677 -0.1108 -0.5263 -0.8212
  294MOL0     O39586   6.312   4.383   7.631  0.2753  0.6994  0.1302
  294MOL0     C39587   6.298   4.248   7.595  1.1209  0.1822  0.0124
  294MOL0     C39588   6.392   4.147   7.583  0.4140  0.6661  0.0667
  294MOL0     C39589   6.358   4.017   7.560  1.0571  0.5498 -0.3120
  294MOL0     C39590   6.215   3.991   7.535  0.5481 -0.8459 -0.2877
  294MOL0     O39591   6.176   3.858   7.511 -0.0659  1.0652  0.1389
  294MOL0     C39592   6.280   3.752   7.486 -0.1096  0.3611  0.0628
  294MOL0     C39593   6.212   3.643   7.399 -0.5402  0.1090 -0.0445
  294MOL0     C39594   6.097   3.564   7.474  0.1233  0.0497  0.1643
  294MOL0     C39595   5.966   3.640   7.486 -0.1203  0.6742  0.0310
  294MOL0     C39596   5.862   3.566   7.574  0.7680 -0.1520  0.3218
  294MOL0     C39597   5.723   3.642   7.577  0.4071 -0.9566 -0.1573
  294MOL0     C39598   5.625   3.548   7.657 -0.0456 -1.0001 -0.8374
  294MOL0     C39599   5.481   3.599   7.638  0.7714  0.5681 -0.6043
  294MOL0    Cl39600   5.446   3.575   7.471 -0.5332 -0.1472  0.3307
  294MOL0     C39601   6.124   4.091   7.535 -0.2416 -0.2745  0.6396
  294MOL0     C39602   6.165   4.218   7.575  0.3093 -0.4514 -0.2853
  294MOL0     O39603   6.520   4.370   7.723 -0.3021  0.4976  0.3446
  294MOL0     C39604   6.400   4.628   7.509  0.5024 -0.2034 -0.5698
  294MOL0     C39605   6.423   4.754   7.450  0.0506 -0.1153 -0.3545
  294MOL0     N39606   7.058   4.933   7.189 -0.2569 -0.0175 -0.7541
  294MOL0     N39607   7.161   5.003   7.222 -0.3863  0.5134 -0.7411
  294MOL0     C39608   7.405   6.202   7.761 -0.0294 -0.7349 -0.1219
  294MOL0     C39609   7.498   6.251   7.862 -0.0139  0.5091 -0.4595
  294MOL0     C39610   7.711   6.525   8.094  0.4921 -0.4300  0.0586
  294MOL0     C39611   7.618   6.617   8.154 -0.4419 -0.1593 -0.8834
  294MOL0     C39612   7.661   6.739   8.204  0.0583 -0.3086 -0.1249
  294MOL0     C39613   7.795   6.780   8.197  0.8030 -0.0918  0.8956
  294MOL0     O39614   7.841   6.895   8.251 -0.4454  0.5298 -0.1041
  294MOL0     C39615   7.763   6.962   8.341  0.0140 -0.0714  0.0331
  294MOL0     C39616   7.832   7.086   8.388 -0.7550 -0.3901  0.7601
  294MOL0     C39617   7.752   7.168   8.490  0.8281  0.5393 -0.4613
  294MOL0     C39618   7.845   7.273   8.559 -0.6142 -0.7546 -0.5057
  294MOL0     C39619   7.745   7.360   8.625 -0.9085  0.5097 -0.0114
  294MOL0     C39620   7.650   7.420   8.662 -0.1625 -0.3267  1.0682
  294MOL0     C39621   7.872   6.699   8.120 -0.1889 -0.7903  0.7087
  294MOL0     C39622   7.836   6.570   8.070  0.4096 -0.5210 -0.1997
  294MOL0     H39623   7.315   6.202   8.142  1.2822 -1.1820  0.6787
  294MOL0     H39624   7.163   6.095   7.964  1.2846 -1.7856 -1.5432
  294MOL0     H39625   7.297   5.917   7.624 -0.3190  1.6029 -0.8921
  294MOL0     H39626   7.275   5.906   7.794  0.5611  0.8458 -0.4634
  294MOL0     H39627   7.020   5.907   7.748 -1.8384  2.4358 -1.8997
  294MOL0     H39628   7.052   5.904   7.581 -1.2247 -1.0234  0.4600
  294MOL0     H39629   7.185   5.687   7.757 -0.3027 -0.5116 -0.3208
  294MOL0     H39630   7.016   5.667   7.696 -0.3267  1.0721  1.5711
  294MOL0     H39631   7.106   5.691   7.459 -3.3667 -1.6600  1.1042
  294MOL0     H39632   7.271   5.703   7.527 -0.1878  0.7763 -0.7244
  294MOL0     H39633   7.273   5.500   7.606  0.1644  0.2422  0.2144
  294MOL0     H39634   7.091   5.486   7.597 -2.1332  3.9310 -1.2494
  294MOL0     H39635   7.120   5.494   7.356 -1.4193 -1.6387  1.6912
  294MOL0     H39636   7.292   5.485   7.347 -2.2765  2.4090 -1.0854
  294MOL0     H39637   7.240   5.247   7.481 -0.9950  0.1471  0.6999
  294MOL0     H39638   7.082   5.281   7.427 -0.2102  0.5238  0.7533
  294MOL0     H39639   7.305   5.229   7.223 -0.2791 -0.5322 -1.5167
  294MOL0     H39640   7.164   5.326   7.193  1.6795 -0.3051 -1.5359
  294MOL0     H39641   6.913   5.224   7.213 -1.2330 -0.9361  0.7790
  294MOL0     H39642   6.835   4.948   7.039  0.0163  0.8547  0.3908
  294MOL0     H39643   6.783   4.860   7.183 -1.2309  0.0787  0.0122
  294MOL0     H39644   6.646   5.064   7.050  2.2461 -3.0270 -2.7500
  294MOL0     H39645   6.726   5.155   7.179  1.0001 -0.1588 -0.4919
  294MOL0     H39646   6.559   4.908   7.210  0.9495 -0.1879 -0.6248
  294MOL0     H39647   6.488   5.073   7.241  1.8015  2.1163 -1.1135
  294MOL0     H39648   6.674   5.093   7.412  3.5618 -2.4716  0.1336
  294MOL0     H39649   6.693   4.922   7.399 -2.0117 -0.9374 -0.3204
  294MOL0     H39650   6.604   4.873   7.690  0.0416  1.3031 -0.0732
  294MOL0     H39651   6.524   4.624   7.908 -0.3772 -3.3915 -1.5588
  294MOL0     H39652   6.671   4.569   7.831  1.3106  1.4461 -0.0288
  294MOL0     H39653   6.655   4.739   7.868 -0.8480  0.5560  2.0919
  294MOL0     H39654   6.500   4.161   7.584  0.5770 -0.3692  1.9563
  294MOL0     H39655   6.435   3.942   7.542  2.0164  1.2434  0.7294
  294MOL0     H39656   6.361   3.783   7.419  3.2554 -2.7756  2.2092
  294MOL0     H39657   6.317   3.727   7.586 -0.7413  1.1836  0.5172
  294MOL0     H39658   6.182   3.682   7.302  1.8978 -1.4116 -1.5003
  294MOL0     H39659   6.288   3.572   7.366 -1.5491 -1.1954  0.3380
  294MOL0     H39660   6.125   3.535   7.576 -6.9039 -1.2515  2.2772
  294MOL0     H39661   6.081   3.472   7.418 -1.2937  1.0821 -1.2135
  294MOL0     H39662   5.977   3.735   7.540 -1.7101  0.2917  1.1061
  294MOL0     H39663   5.921   3.684   7.396 -2.6465  0.1620  0.9454
  294MOL0     H39664   5.898   3.561   7.677 -2.7277 -0.9090  1.6270
  294MOL0     H39665   5.839   3.468   7.530 -2.8166  0.8534 -0.3266
  294MOL0     H39666   5.736   3.735   7.633 -1.7912  0.0447 -1.1970
  294MOL0     H39667   5.700   3.656   7.471 -2.3569 -2.5487  0.1200
  294MOL0     H39668   5.644   3.560   7.765 -2.9413  2.6249 -0.5377
  294MOL0     H39669   5.636   3.443   7.632  0.0001 -1.8550  2.2853
  294MOL0     H39670   5.465   3.701   7.673  1.7914  1.1405 -1.7450
  294MOL0     H39671   5.422   3.529   7.700 -0.2853 -0.7240 -2.9339
  294MOL0     H39672   6.022   4.060   7.516 -0.3894  2.0885 -4.0372
  294MOL0     H39673   6.100   4.302   7.598 -0.1257 -0.5820 -0.9884
  294MOL0     H39674   6.340   4.565   7.444 -0.3172 -0.3364  0.2834
  294MOL0     H39675   6.395   4.784   7.350  3.6876 -0.3501 -1.5862
  294MOL0     H39676   7.421   6.189   7.655  0.8174 -0.8041  0.0046
  294MOL0     H39677   7.599   6.283   7.840 -0.5795  1.9668 -1.0792
  294MOL0     H39678   7.512   6.596   8.165 -1.0840  3.0413  0.4493
  294MOL0     H39679   7.583   6.803   8.243  0.6741 -1.1225  2.6887
  294MOL0     H39680   7.664   6.991   8.305  0.3193  0.4613 -0.3994
  294MOL0     H39681   7.751   6.900   8.430  4.5753 -0.5089  0.5751
  294MOL0     H39682   7.860   7.149   8.302 -1.7239 -2.1569 -0.9327
  294MOL0     H39683   7.927   7.053   8.430 -1.5055  0.0131  2.8738
  294MOL0     H39684   7.702   7.101   8.561 -1.7274 -0.1808 -2.7784
  294MOL0     H39685   7.669   7.215   8.436 -0.4643 -0.8059  0.2829
  294MOL0     H39686   7.898   7.332   8.483 -1.0668  3.3676  2.0935
  294MOL0     H39687   7.916   7.238   8.634 -1.5171 -1.1846  0.1727
  294MOL0     H39688   7.569   7.478   8.702  0.4497  0.6446  0.9501
  294MOL0     H39689   7.977   6.726   8.116 -0.1590 -1.0096 -0.3615
  294MOL0     H39690   7.906   6.505   8.017 -0.5719 -1.5228 -0.2990
  295MOL0     O39691   2.694   8.086   7.908 -0.1202 -0.8586  0.0302
  295MOL0     C39692   2.802   8.052   7.896 -0.3828  0.2539  0.9330
  295MOL0     O39693   2.863   7.947   7.967 -0.0822 -0.1857 -0.2088
  295MOL0     C39694   2.779   7.841   8.002  0.2047 -1.3012  0.7719
  295MOL0     C39695   2.731   7.773   7.892 -0.6286 -1.0377  0.2200
  295MOL0     C39696   2.665   7.649   7.910 -0.1153  1.3624 -0.6404
  295MOL0     C39697   2.644   7.598   8.038  0.2956 -1.1751 -0.4453
  295MOL0     O39698   2.568   7.489   8.056  0.0884 -0.6708 -0.0150
  295MOL0     C39699   2.447   7.513   8.125 -0.0812  0.1039  1.2280
  295MOL0     C39700   2.368   7.377   8.144 -1.2287  0.3584  0.1048
  295MOL0     C39701   2.223   7.406   8.115 -0.1266  0.9810  0.1069
  295MOL0     C39702   2.175   7.451   7.971 -0.9415  0.1992  0.1852
  295MOL0     C39703   2.033   7.507   7.970 -0.7333 -0.6636  1.1530
  295MOL0     C39704   1.932   7.426   8.044 -0.3523  0.1524 -0.7699
  295MOL0     C39705   1.785   7.454   7.997 -0.4157  0.1671 -0.2471
  295MOL0     C39706   1.676   7.387   8.082 -0.2121  0.4732 -0.0372
  295MOL0     N39707   1.544   7.419   8.030 -0.7486  0.5291 -0.4187
  295MOL0     C39708   1.447   7.498   8.089 -0.3826  0.6549  0.1767
  295MOL0     C39709   1.347   7.490   7.993  0.3046  0.3525 -0.3252
  295MOL0     C39710   1.213   7.565   8.019 -0.3272  0.6658 -0.2979
  295MOL0     C39711   1.114   7.456   8.079  0.6547  0.2473 -0.2476
  295MOL0     C39712   0.980   7.518   8.100 -0.0824  0.3799 -0.4459
  295MOL0     C39713   0.864   7.429   8.154  0.1380 -0.0069  0.3557
  295MOL0     O39714   0.743   7.513   8.135 -0.8453  0.6886  0.1599
  295MOL0     C39715   0.627   7.475   8.186  0.8671 -0.6011  0.0216
  295MOL0     C39716   0.570   7.527   8.303  0.4717 -0.8820  1.2712
  295MOL0     C39717   0.454   7.466   8.357 -0.2183  0.5025 -0.2381
  295MOL0     C39718   0.393   7.535   8.485  0.1171  0.4105  1.6381
  295MOL0     C39719   0.395   7.349   8.292 -0.3913 -0.1168  0.1304
  295MOL0     C39720   0.256   7.298   8.322  0.4012  0.7048 -0.2691
  295MOL0     O39721   0.260   7.165   8.329 -0.5237  0.0998  0.3815
  295MOL0     C39722   0.151   7.081   8.310  0.4684  0.5137 -0.3185
  295MOL0     C39723   0.024   7.127   8.276  0.2200  0.3090  0.2942
  295MOL0     C39724  -0.088   7.046   8.290  0.8223 -0.4854 -0.7146
  295MOL0     C39725  -0.073   6.910   8.323  0.5561 -0.2651 -0.0608
  295MOL0     O39726  -0.188   6.840   8.347 -0.8575  0.5480 -0.4112
  295MOL0     C39727  -0.182   6.698   8.328  0.3793 -0.5376  0.4385
  295MOL0     C39728  -0.327   6.649   8.357  0.1757  0.8137 -0.5601
  295MOL0     C39729  -0.339   6.497   8.383 -0.2836 -1.0807 -0.7513
  295MOL0     C39730  -0.474   6.461   8.437 -0.4875  0.3154 -0.3207
  295MOL0     C39731  -0.487   6.305   8.457  0.3903 -0.2568  0.3623
  295MOL0     C39732  -0.619   6.274   8.534  0.0723  0.4354  0.1603
  295MOL0     C39733  -0.751   6.301   8.464  0.1046 -0.0631 -0.1905
  295MOL0     C39734  -0.773   6.254   8.324  0.6361 -0.0462 -0.2940
  295MOL0    Cl39735  -0.734   6.072   8.330 -0.2666  0.0409 -0.1655
  295MOL0     C39736   0.058   6.859   8.341  0.6887 -0.6522 -0.3014
  295MOL0     C39737   0.165   6.952   8.341 -0.1217 -0.2547 -0.1631
  295MOL0     O39738   0.160   7.374   8.326 -1.0366  0.2437  0.1107
  295MOL0     C39739   0.463   7.295   8.184 -0.3920  0.8730 -0.7388
  295MOL0     C39740   0.579   7.354   8.139 -0.4084 -0.7702  0.0982
  295MOL0     N39741   1.380   7.401   7.895 -1.1141 -0.0494 -1.0032
  295MOL0     N39742   1.493   7.360   7.919  0.1071 -0.9705 -0.6221
  295MOL0     C39743   2.691   7.671   8.146  0.1598 -0.0663 -0.1075
  295MOL0     C39744   2.771   7.782   8.125  0.4744 -0.0571 -0.2066
  295MOL0     C39745   2.887   8.109   7.789 -0.1098  0.4451 -0.4034
  295MOL0     C39746   3.023   8.073   7.776  0.1784  0.3136  0.2324
  295MOL0     C39747   3.105   8.131   7.676 -0.0427 -0.7013  0.0577
  295MOL0     C39748   3.045   8.223   7.590 -0.7520 -1.1046  1.0702
  295MOL0     O39749   3.105   8.273   7.487 -0.4629  0.8298  0.7759
  295MOL0     C39750   3.113   8.213   7.357 -0.5824 -0.6423 -0.9601
  295MOL0     C39751   3.173   8.069   7.341  0.5527 -0.0425 -1.6014
  295MOL0     C39752   3.070   7.953   7.357 -0.1554  0.2249 -0.0533
  295MOL0     C39753   3.139   7.820   7.388  0.4305  1.3314 -0.9528
  295MOL0     C39754   3.204   7.816   7.520 -0.3223 -0.3272  0.0709
  295MOL0     C39755   3.245   7.808   7.631  0.7624 -0.6883  0.2806
  295MOL0     C39756   2.914   8.267   7.602 -0.2953  0.6706 -0.7023
  295MOL0     C39757   2.835   8.204   7.699  0.6752  0.5570 -0.7754
  295MOL0     H39758   2.762   7.798   7.791 -1.2604 -0.2511  0.2186
  295MOL0     H39759   2.634   7.594   7.822 -1.8601 -0.4337  0.9781
  295MOL0     H39760   2.462   7.564   8.220  1.3763  0.4055  0.8606
  295MOL0     H39761   2.394   7.589   8.066  0.6364 -0.8173 -0.7113
  295MOL0     H39762   2.402   7.301   8.073 -1.6973 -0.6385  0.9195
  295MOL0     H39763   2.385   7.337   8.245 -0.7556 -2.5404 -1.0303
  295MOL0     H39764   2.174   7.309   8.131  1.9493 -0.5269 -1.9144
  295MOL0     H39765   2.189   7.478   8.189  0.6333 -0.3329  1.8125
  295MOL0     H39766   2.244   7.527   7.932  1.0447  0.5457  3.9131
  295MOL0     H39767   2.174   7.364   7.905 -1.3453  0.6685 -0.4381
  295MOL0     H39768   2.024   7.606   8.017 -0.2113 -0.7915  1.5265
  295MOL0     H39769   2.020   7.525   7.863  2.8365 -3.4169  0.0869
  295MOL0     H39770   1.966   7.325   8.018 -3.7211 -1.8312  1.7187
  295MOL0     H39771   1.946   7.425   8.153  1.0857  0.2675 -0.9326
  295MOL0     H39772   1.769   7.562   8.005 -0.8596  0.1716 -1.0982
  295MOL0     H39773   1.781   7.446   7.888 -1.5330 -0.7027 -0.1583
  295MOL0     H39774   1.678   7.421   8.186 -1.0472 -3.8195  1.5688
  295MOL0     H39775   1.691   7.279   8.089 -0.9948  0.1881 -2.1633
  295MOL0     H39776   1.458   7.554   8.182 -1.0753  1.1187 -0.0079
  295MOL0     H39777   1.219   7.640   8.099 -1.5253 -0.6731  1.1081
  295MOL0     H39778   1.168   7.604   7.927 -1.4681  0.6499  0.2444
  295MOL0     H39779   1.165   7.416   8.167 -1.9520 -0.7467  0.9170
  295MOL0     H39780   1.104   7.368   8.015 -0.4939 -0.7624  1.2274
  295MOL0     H39781   0.961   7.554   7.998  3.7423 -0.3950 -1.5811
  295MOL0     H39782   0.984   7.599   8.173 -3.0312 -0.8432  1.2535
  295MOL0     H39783   0.880   7.404   8.259  0.7317  0.4580  0.3823
  295MOL0     H39784   0.860   7.337   8.096  0.0165  0.8598 -1.0681
  295MOL0     H39785   0.606   7.623   8.340 -0.1933 -0.0928 -0.0686
  295MOL0     H39786   0.380   7.450   8.552  1.7226 -3.6200 -2.5849
  295MOL0     H39787   0.471   7.603   8.520  1.5485  2.9623 -4.9717
  295MOL0     H39788   0.298   7.586   8.469  0.9300  1.6157  0.4048
  295MOL0     H39789   0.011   7.228   8.241  3.1682  1.3008  1.6851
  295MOL0     H39790  -0.189   7.082   8.274 -0.7052 -2.2017  3.6576
  295MOL0     H39791  -0.152   6.649   8.235 -0.2626  1.3591 -0.8045
  295MOL0     H39792  -0.114   6.651   8.400 -0.1794 -1.7995  0.1731
  295MOL0     H39793  -0.371   6.687   8.449 -0.2159 -1.3942  0.2204
  295MOL0     H39794  -0.400   6.689   8.285  0.5389  2.4878 -0.0554
  295MOL0     H39795  -0.272   6.473   8.466 -2.2445  1.7476  1.8547
  295MOL0     H39796  -0.319   6.440   8.292  2.8975 -1.5351  0.1337
  295MOL0     H39797  -0.488   6.503   8.537 -1.4130 -0.5302 -0.0719
  295MOL0     H39798  -0.557   6.491   8.372 -0.8146  2.5024  1.0007
  295MOL0     H39799  -0.398   6.272   8.513  0.0312 -0.2143  0.9651
  295MOL0     H39800  -0.478   6.254   8.360  0.3421 -3.6565  1.9859
  295MOL0     H39801  -0.626   6.172   8.573 -1.3990  1.4792  2.9069
  295MOL0     H39802  -0.618   6.353   8.610  2.9310  1.7129 -1.0558
  295MOL0     H39803  -0.771   6.409   8.470  1.9865  0.2161  2.5433
  295MOL0     H39804  -0.827   6.261   8.531 -0.4104  1.5691  0.2421
  295MOL0     H39805  -0.699   6.293   8.254 -0.0627 -1.0080 -1.6124
  295MOL0     H39806  -0.871   6.282   8.285  1.5811  6.7259  0.9660
  295MOL0     H39807   0.076   6.758   8.377 -0.0705 -0.2909  1.1508
  295MOL0     H39808   0.260   6.906   8.364 -0.1837  0.3331  1.4188
  295MOL0     H39809   0.424   7.204   8.138 -0.0517  0.6966 -0.6849
  295MOL0     H39810   0.643   7.297   8.073 -0.5953 -1.2164  0.2973
  295MOL0     H39811   2.690   7.640   8.250  1.1580  0.4463  0.0699
  295MOL0     H39812   2.820   7.842   8.202  0.8290 -2.5751  1.6370
  295MOL0     H39813   3.055   8.019   7.865 -0.8923  0.2818  0.6099
  295MOL0     H39814   3.213   8.127   7.676 -0.0501 -1.8889  1.5643
  295MOL0     H39815   3.019   8.220   7.301 -1.1931  1.2346  0.2008
  295MOL0     H39816   3.175   8.278   7.295 -0.3953  0.1900  0.0782
  295MOL0     H39817   3.272   8.050   7.383  0.3529 -0.2241 -1.2066
  295MOL0     H39818   3.188   8.065   7.233 -1.4921 -0.1777 -1.9092
  295MOL0     H39819   3.014   7.935   7.265 -0.1033 -2.8482  0.4087
  295MOL0     H39820   2.997   7.970   7.436  0.9351 -0.0868  1.0628
  295MOL0     H39821   3.212   7.788   7.313 -1.2893 -0.5288 -1.9356
  295MOL0     H39822   3.062   7.742   7.386 -0.2330  1.9374 -0.0103
  295MOL0     H39823   3.288   7.795   7.728 -0.1772  0.4453  0.8750
  295MOL0     H39824   2.861   8.322   7.526  1.4384 -1.2097 -3.4546
  295MOL0     H39825   2.730   8.234   7.693  1.3193  2.8844 -1.7268
  296MOL0     O39826   1.063   5.087   8.010 -0.0084 -0.3248 -0.7216
  296MOL0     C39827   1.049   4.976   7.972  0.0840 -0.1487  1.1460
  296MOL0     O39828   0.992   4.870   8.040 -0.0535 -0.1491 -0.5218
  296MOL0     C39829   0.960   4.877   8.176  0.1852  0.8067  0.0400
  296MOL0     C39830   0.913   4.754   8.230  0.5679  0.0084 -0.1640
  296MOL0     C39831   0.878   4.737   8.362  0.1380 -0.2227  0.1648
  296MOL0     C39832   0.893   4.846   8.444 -0.1565 -0.4467 -1.6062
  296MOL0     O39833   0.881   4.843   8.585 -0.0080  0.5758 -1.0621
  296MOL0     C39834   0.779   4.773   8.645  0.1956  1.1108 -0.5537
  296MOL0     C39835   0.824   4.625   8.687 -0.7967 -0.6405  0.7546
  296MOL0     C39836   0.808   4.616   8.840 -0.2271 -0.4338  0.1931
  296MOL0     C39837   0.909   4.509   8.883 -0.1091  1.6113 -0.2204
  296MOL0     C39838   0.904   4.497   9.033  0.2329 -0.3165  0.8426
  296MOL0     C39839   1.037   4.428   9.073 -0.5956 -0.7346  0.4739
  296MOL0     C39840   1.025   4.332   9.184 -0.8938  0.4313 -0.7271
  296MOL0     C39841   0.981   4.390   9.324 -0.3163 -0.6618 -0.5162
  296MOL0     N39842   0.830   4.415   9.330 -1.2353  0.1364 -0.0509
  296MOL0     C39843   0.735   4.318   9.324 -0.5267  0.8587 -0.7777
  296MOL0     C39844   0.620   4.382   9.325  0.2057 -0.2144  0.1119
  296MOL0     C39845   0.491   4.323   9.280 -0.0526 -0.0982 -0.4620
  296MOL0     C39846   0.369   4.387   9.355 -0.2279 -0.3220 -0.4842
  296MOL0     C39847   0.381   4.414   9.507  0.5863  0.4514 -0.4296
  296MOL0     C39848   0.266   4.511   9.557  0.1786  0.6948 -0.3324
  296MOL0     O39849   0.285   4.561   9.699  0.3939 -0.0458  0.7452
  296MOL0     C39850   0.288   4.481   9.809 -0.5656 -0.5005  0.3607
  296MOL0     C39851   0.168   4.463   9.884 -0.1023  0.4235 -0.6369
  296MOL0     C39852   0.172   4.382  10.000  0.6320  0.4978 -0.6865
  296MOL0     C39853   0.034   4.350  10.052 -0.6178  0.0897  0.5149
  296MOL0     C39854   0.289   4.337  10.059  0.4914  0.0426  0.5762
  296MOL0     C39855   0.291   4.256  10.179  0.1576 -0.1596  1.0981
  296MOL0     O39856   0.405   4.174  10.187 -0.2816  0.3336 -0.7419
  296MOL0     C39857   0.417   4.104  10.313  0.8460  0.0687 -0.0797
  296MOL0     C39858   0.467   4.160  10.427 -0.6076 -0.4219  1.1144
  296MOL0     C39859   0.479   4.086  10.547  0.3083  0.7171 -0.8059
  296MOL0     C39860   0.445   3.952  10.554 -0.2510  0.1124 -0.7459
  296MOL0     O39861   0.456   3.871  10.666  0.1378  0.4123 -0.0106
  296MOL0     C39862   0.467   3.927  10.793  0.1473  0.5510  0.6200
  296MOL0     C39863   0.605   3.899  10.854  0.5436  0.3895  1.0018
  296MOL0     C39864   0.623   3.938  11.009  0.1267 -0.8662  0.4292
  296MOL0     C39865   0.742   3.870  11.058 -0.6916 -0.2924 -0.0066
  296MOL0     C39866   0.742   3.881  11.214 -0.0710 -0.8928  0.7791
  296MOL0     C39867   0.851   3.798  11.288 -0.3633  0.8524 -0.5801
  296MOL0     C39868   0.998   3.861  11.262  0.4377  0.3610 -0.2366
  296MOL0     C39869   1.027   3.986  11.339  0.0106 -0.1453 -0.1050
  296MOL0    Cl39870   1.152   4.060  11.242 -0.1388 -0.2790  0.3015
  296MOL0     C39871   0.383   3.891  10.444 -0.6200  0.5917  0.3030
  296MOL0     C39872   0.382   3.966  10.327  1.1323 -0.1661 -0.0536
  296MOL0     O39873   0.183   4.245  10.252 -0.2888  0.9606  0.3590
  296MOL0     C39874   0.407   4.368   9.989  0.1727 -0.5327  0.1772
  296MOL0     C39875   0.408   4.446   9.874  0.7594 -0.8776  0.2921
  296MOL0     N39876   0.652   4.514   9.332  0.6902  0.0484 -0.9411
  296MOL0     N39877   0.772   4.538   9.335 -1.1684 -0.4268 -0.5078
  296MOL0     C39878   0.949   4.968   8.392  0.1465  0.1967 -0.0338
  296MOL0     C39879   0.966   4.986   8.262  0.4721 -0.4394  1.1862
  296MOL0     C39880   1.098   4.937   7.832  0.6079  0.5100 -0.5838
  296MOL0     C39881   1.088   4.807   7.787  0.4612 -0.1517 -0.1183
  296MOL0     C39882   1.117   4.771   7.653  0.4004  0.7201  0.2825
  296MOL0     C39883   1.169   4.874   7.567 -0.6769  0.4656 -0.3563
  296MOL0     O39884   1.201   4.840   7.440 -0.2381  0.0064 -0.0472
  296MOL0     C39885   1.315   4.917   7.382 -0.6881 -0.5666 -0.1982
  296MOL0     C39886   1.336   4.868   7.233 -0.4896 -0.9721 -0.0819
  296MOL0     C39887   1.439   4.963   7.157 -0.3382 -0.8492  0.3687
  296MOL0     C39888   1.520   4.895   7.055  0.7393  1.1804 -0.8431
  296MOL0     C39889   1.449   4.907   6.924 -0.2342 -0.1738 -1.0594
  296MOL0     C39890   1.382   4.908   6.824 -0.0521 -0.9387 -0.6239
  296MOL0     C39891   1.193   4.999   7.618  0.3491 -0.8281  0.0169
  296MOL0     C39892   1.155   5.027   7.751 -0.8520 -0.9321  0.2484
  296MOL0     H39893   0.921   4.658   8.180  0.8578  0.7047 -1.5020
  296MOL0     H39894   0.852   4.638   8.398 -0.0448 -0.4652 -0.6080
  296MOL0     H39895   0.736   4.814   8.736  0.4159 -0.5202  0.3193
  296MOL0     H39896   0.686   4.771   8.586 -1.5351  1.3309  2.0041
  296MOL0     H39897   0.767   4.546   8.636 -0.1185 -0.3832 -0.4475
  296MOL0     H39898   0.930   4.627   8.659 -1.0119  3.4032 -0.4749
  296MOL0     H39899   0.822   4.710   8.894 -2.4366 -0.0381  0.1553
  296MOL0     H39900   0.715   4.567   8.867  0.7265 -1.8300  1.0758
  296MOL0     H39901   0.877   4.410   8.847  0.5537  1.5363 -0.6219
  296MOL0     H39902   1.005   4.532   8.837  0.3597 -1.5828 -1.0929
  296MOL0     H39903   0.895   4.595   9.081 -0.3897 -0.7032  1.5319
  296MOL0     H39904   0.814   4.445   9.067  0.1788  0.1254  1.4012
  296MOL0     H39905   1.085   4.383   8.985 -0.6907 -1.8392  0.9785
  296MOL0     H39906   1.107   4.509   9.099 -0.4175 -0.9253  0.5930
  296MOL0     H39907   0.948   4.260   9.156 -2.0809  1.5072 -0.3033
  296MOL0     H39908   1.127   4.294   9.198 -1.5019 -0.3266  2.2889
  296MOL0     H39909   1.042   4.480   9.335  1.1349 -1.3606 -2.2456
  296MOL0     H39910   0.993   4.329   9.414 -0.3016 -0.0548 -0.1015
  296MOL0     H39911   0.753   4.213   9.303  2.0780  0.9839  0.4023
  296MOL0     H39912   0.477   4.344   9.173  2.4339 -1.9759 -1.2602
  296MOL0     H39913   0.495   4.216   9.298  3.3151  0.0903  0.5722
  296MOL0     H39914   0.277   4.339   9.323 -0.4074  1.2401 -2.5514
  296MOL0     H39915   0.341   4.487   9.321 -0.9927 -0.4965 -0.3714
  296MOL0     H39916   0.476   4.466   9.522  2.3696 -2.1275 -2.0450
  296MOL0     H39917   0.386   4.317   9.559  0.5700 -0.3416 -1.8512
  296MOL0     H39918   0.178   4.446   9.555  0.8974 -0.2862 -0.6960
  296MOL0     H39919   0.240   4.592   9.488  0.2382  0.4564 -0.6368
  296MOL0     H39920   0.077   4.502   9.840  0.1283  3.7397  1.4683
  296MOL0     H39921  -0.045   4.384   9.984  0.0602 -1.3371 -1.0714
  296MOL0     H39922   0.022   4.241  10.058 -2.4558  0.1222 -1.1605
  296MOL0     H39923   0.026   4.386  10.155 -0.7814  1.9425 -0.1079
  296MOL0     H39924   0.498   4.264  10.429 -0.8969 -0.2606 -0.8880
  296MOL0     H39925   0.524   4.135  10.632 -0.6760  2.5017 -1.2723
  296MOL0     H39926   0.455   4.036  10.796  3.5463  1.1390 -2.0744
  296MOL0     H39927   0.387   3.875  10.847  1.1396  0.0678  1.6520
  296MOL0     H39928   0.622   3.791  10.847  1.8668  0.5236  1.8232
  296MOL0     H39929   0.681   3.956  10.801  0.7404  1.2084  2.1312
  296MOL0     H39930   0.534   3.920  11.070  1.2223  0.1056  2.3969
  296MOL0     H39931   0.641   4.046  11.014 -1.7583 -0.2138 -3.1164
  296MOL0     H39932   0.742   3.770  11.014 -0.8924 -0.5354  0.5337
  296MOL0     H39933   0.832   3.920  11.023  0.9117 -1.7988  1.7930
  296MOL0     H39934   0.652   3.828  11.248  0.8658 -3.3528 -0.3397
  296MOL0     H39935   0.739   3.988  11.240  1.6938 -1.0616  1.7853
  296MOL0     H39936   0.817   3.797  11.392 -2.2633 -0.5022 -1.1513
  296MOL0     H39937   0.843   3.695  11.250 -2.4097  1.5098 -2.1404
  296MOL0     H39938   0.995   3.884  11.155  0.8678 -0.6089 -0.4731
  296MOL0     H39939   1.077   3.789  11.286 -1.2516 -1.5521 -0.1894
  296MOL0     H39940   1.063   3.983  11.442 -1.3913 -2.8846  0.4032
  296MOL0     H39941   0.934   4.042  11.354  0.6716  0.3320  2.7674
  296MOL0     H39942   0.335   3.795  10.458 -1.1660  0.6263 -1.2279
  296MOL0     H39943   0.335   3.915  10.244 -1.2176 -0.8737  1.5942
  296MOL0     H39944   0.503   4.336  10.028  0.3910  1.5076  1.4194
  296MOL0     H39945   0.502   4.475   9.828 -0.5425  1.8067 -0.9337
  296MOL0     H39946   0.960   5.060   8.450 -1.9806  0.0984  0.6239
  296MOL0     H39947   0.980   5.087   8.225 -0.1336 -0.0967  1.8749
  296MOL0     H39948   1.055   4.730   7.857 -0.3851  0.0780 -0.2516
  296MOL0     H39949   1.123   4.669   7.617  4.5133 -0.5383  3.7138
  296MOL0     H39950   1.296   5.024   7.390  1.5067 -0.0682 -0.8455
  296MOL0     H39951   1.400   4.901   7.450 -2.0136  4.8865  3.3315
  296MOL0     H39952   1.246   4.865   7.171 -1.5315  1.6573  1.1320
  296MOL0     H39953   1.385   4.771   7.242  1.0429 -0.2225 -0.0505
  296MOL0     H39954   1.518   5.017   7.208  0.4817  0.3145 -1.9665
  296MOL0     H39955   1.388   5.045   7.105  1.1333 -1.1601 -1.6615
  296MOL0     H39956   1.539   4.791   7.081 -3.7501  0.3683 -0.0032
  296MOL0     H39957   1.618   4.943   7.045  1.2347  0.2371 -0.6219
  296MOL0     H39958   1.341   4.924   6.726  3.2679  2.7801 -1.6762
  296MOL0     H39959   1.237   5.086   7.572  0.6222  0.2615  2.1941
  296MOL0     H39960   1.169   5.128   7.790 -1.3379 -0.0078 -1.8332
  297MOL0     O39961  11.418   0.777   9.261  0.8315 -0.8186  0.0994
  297MOL0     C39962  11.389   0.664   9.302  0.4373 -0.6059  0.5813
  297MOL0     O39963  11.437   0.547   9.238  0.5403  0.5287  0.1202
  297MOL0     C39964  11.482   0.555   9.109 -0.0059  0.3643  0.4211
  297MOL0     C39965  11.416   0.626   9.010  0.9398 -0.5056  0.0313
  297MOL0     C39966  11.461   0.623   8.872 -0.1879  0.2494 -0.0571
  297MOL0     C39967  11.574   0.559   8.835 -0.2215  0.0775 -0.1229
  297MOL0     O39968  11.614   0.554   8.705  0.2050 -0.5302  0.7993
  297MOL0     C39969  11.764   0.567   8.683 -0.0126 -0.8826  0.3135
  297MOL0     C39970  11.824   0.696   8.733 -0.0150  0.3245 -0.3436
  297MOL0     C39971  11.931   0.751   8.640 -0.5085  0.2853  0.5556
  297MOL0     C39972  11.976   0.897   8.668 -0.2055 -0.6746  0.3422
  297MOL0     C39973  12.065   0.947   8.549 -0.5456  0.4101 -0.9286
  297MOL0     C39974  12.132   1.071   8.614 -0.8962  0.8235  0.2485
  297MOL0     C39975  12.189   1.161   8.503 -0.2952 -0.6856 -0.7464
  297MOL0     C39976  12.082   1.224   8.412  1.1751  0.7287  1.1002
  297MOL0     N39977  12.126   1.322   8.309 -0.9473  0.6651 -0.7131
  297MOL0     C39978  12.216   1.428   8.336  0.8111  0.2164  0.3703
  297MOL0     C39979  12.254   1.474   8.217 -0.0520  0.1388  0.3007
  297MOL0     C39980  12.353   1.587   8.191  0.6357  0.7161 -1.1145
  297MOL0     C39981  12.388   1.622   8.038  0.1799 -0.1963 -1.2824
  297MOL0     C39982  12.474   1.754   8.028 -0.9726  0.1539  0.1150
  297MOL0     C39983  12.408   1.884   8.074 -0.5933 -0.6414 -0.0151
  297MOL0     O39984  12.508   1.969   8.133  0.0258 -0.8603  0.3016
  297MOL0     C39985  12.573   2.068   8.059 -0.1573 -0.0990 -0.2341
  297MOL0     C39986  12.681   2.123   8.122  0.6894  0.2924 -0.5093
  297MOL0     C39987  12.774   2.211   8.061  0.2255  0.8022  1.8702
  297MOL0     C39988  12.897   2.238   8.141  0.1348 -0.7563 -0.0754
  297MOL0     C39989  12.737   2.256   7.927  0.2905 -0.9919  0.3606
  297MOL0     C39990  12.832   2.341   7.854  0.2449  0.2181  0.5977
  297MOL0     O39991  12.795   2.400   7.737  0.1497  0.2228 -0.9003
  297MOL0     C39992  12.880   2.462   7.643  0.7232  1.0565 -0.8323
  297MOL0     C39993  12.818   2.503   7.526 -0.6845  0.5993  0.6238
  297MOL0     C39994  12.890   2.561   7.416 -0.1632  0.1251  0.1324
  297MOL0     C39995  13.014   2.592   7.438 -0.0190  0.1363 -0.2060
  297MOL0     O39996  13.099   2.644   7.348 -0.1467 -0.2037  0.4856
  297MOL0     C39997  13.053   2.681   7.214 -0.5036 -0.7104  0.6089
  297MOL0     C39998  13.068   2.836   7.206 -1.3235  1.0427 -0.3189
  297MOL0     C39999  13.002   2.893   7.090 -0.5104 -0.0183  0.3407
  297MOL0     C40000  12.847   2.894   7.099 -0.4590 -0.0717 -0.1942
  297MOL0     C40001  12.791   2.868   6.964  0.3953  0.1359  0.4103
  297MOL0     C40002  12.654   2.936   6.958 -0.6022 -0.6047  0.8683
  297MOL0     C40003  12.565   2.862   6.859 -0.3682 -0.5889  0.8424
  297MOL0     C40004  12.477   2.759   6.916  0.0600 -0.2374  1.0789
  297MOL0    Cl40005  12.342   2.833   7.022 -0.0034 -0.0447 -0.1079
  297MOL0     C40006  13.089   2.556   7.558  0.5524 -0.0827  1.0281
  297MOL0     C40007  13.020   2.491   7.655  0.3548  0.2942  0.1536
  297MOL0     O40008  12.937   2.368   7.906 -0.2846  0.3641 -0.2120
  297MOL0     C40009  12.622   2.212   7.865 -0.0970  0.2161  0.2479
  297MOL0     C40010  12.546   2.115   7.930  0.9895  0.5547  0.1655
  297MOL0     N40011  12.185   1.399   8.118 -0.9213  0.3374 -0.0995
  297MOL0     N40012  12.119   1.305   8.174 -0.1769 -0.5131  1.0438
  297MOL0     C40013  11.626   0.467   8.927 -0.3678  0.1323 -0.2840
  297MOL0     C40014  11.591   0.481   9.067 -1.1363  0.2313  0.3348
  297MOL0     C40015  11.303   0.662   9.427  0.4121 -0.2150 -0.1114
  297MOL0     C40016  11.214   0.563   9.449  0.5231 -0.2488 -0.0441
  297MOL0     C40017  11.142   0.544   9.561  1.7145 -0.2574 -0.7103
  297MOL0     C40018  11.146   0.640   9.664 -1.4140 -0.3699 -0.9278
  297MOL0     O40019  11.087   0.615   9.786 -0.2051 -0.0288 -0.1039
  297MOL0     C40020  11.164   0.648   9.899  0.6488 -0.4903 -0.8180
  297MOL0     C40021  11.302   0.578   9.908 -0.2062  0.6139 -0.5379
  297MOL0     C40022  11.273   0.426   9.902 -1.2075 -1.3916  0.4716
  297MOL0     C40023  11.402   0.345   9.904  1.5970 -0.4263  0.8875
  297MOL0     C40024  11.509   0.408   9.817 -0.4668 -0.3079  0.0063
  297MOL0     C40025  11.608   0.429   9.757 -1.1382 -0.0310  0.5577
  297MOL0     C40026  11.232   0.754   9.645 -0.0123 -0.5189 -0.0020
  297MOL0     C40027  11.311   0.760   9.526  0.2525  0.7499  0.6383
  297MOL0     H40028  11.329   0.682   9.042  2.6312  1.4138  1.5561
  297MOL0     H40029  11.397   0.679   8.805 -0.3622  0.6553  0.4444
  297MOL0     H40030  11.818   0.490   8.740 -1.7835 -0.0572  3.3499
  297MOL0     H40031  11.789   0.547   8.578  0.4781 -1.7762  0.5901
  297MOL0     H40032  11.745   0.771   8.749 -1.2634 -0.8483 -0.8634
  297MOL0     H40033  11.867   0.676   8.831  3.6443 -0.6773 -1.9625
  297MOL0     H40034  12.021   0.688   8.636 -0.2346  0.7507 -2.2571
  297MOL0     H40035  11.899   0.744   8.536  0.1213 -1.3050  0.4439
  297MOL0     H40036  11.890   0.965   8.671 -0.6532 -1.2623  2.2224
  297MOL0     H40037  12.026   0.904   8.765 -1.5765 -2.5340  1.2592
  297MOL0     H40038  12.141   0.870   8.532 -1.4702  0.0994 -4.2753
  297MOL0     H40039  12.002   0.962   8.461 -2.4556  1.5350  0.5531
  297MOL0     H40040  12.059   1.134   8.666 -2.2851 -0.9567  0.5691
  297MOL0     H40041  12.209   1.052   8.688 -0.0428  3.0785  0.0286
  297MOL0     H40042  12.244   1.240   8.555 -1.7895  0.9995 -1.6399
  297MOL0     H40043  12.264   1.105   8.446 -0.0278 -0.8610 -0.2229
  297MOL0     H40044  12.019   1.289   8.474 -0.6551  0.7078 -0.6297
  297MOL0     H40045  12.017   1.150   8.364  2.4591  0.9364 -1.1120
  297MOL0     H40046  12.255   1.452   8.435  1.9802 -0.3989  0.0702
  297MOL0     H40047  12.306   1.673   8.239  2.9901  1.6376 -0.2999
  297MOL0     H40048  12.449   1.566   8.240 -0.8709 -3.4239  0.5446
  297MOL0     H40049  12.297   1.641   7.982 -1.1242 -1.3076  0.3403
  297MOL0     H40050  12.430   1.531   7.993  0.6173 -1.6384  1.7132
  297MOL0     H40051  12.500   1.763   7.922  1.5512 -2.0332  0.4249
  297MOL0     H40052  12.562   1.737   8.092 -1.4811 -1.0897  0.5161
  297MOL0     H40053  12.338   1.868   8.157  0.1391  1.7847  1.1607
  297MOL0     H40054  12.362   1.933   7.988  1.6224 -0.4651 -1.1727
  297MOL0     H40055  12.708   2.096   8.224  2.5337  3.9029  0.0912
  297MOL0     H40056  12.910   2.346   8.151 -1.3825 -0.3443 -1.9133
  297MOL0     H40057  12.913   2.176   8.230 -0.0697  1.5274  1.6531
  297MOL0     H40058  12.981   2.220   8.074 -0.0551  1.9488 -1.1807
  297MOL0     H40059  12.713   2.478   7.527  0.2209 -4.1261  1.7073
  297MOL0     H40060  12.834   2.594   7.329  0.3977  0.6846 -0.0221
  297MOL0     H40061  13.121   2.626   7.148 -0.7340 -2.1792  1.5380
  297MOL0     H40062  12.949   2.655   7.192 -0.4632 -4.7042  3.8593
  297MOL0     H40063  13.026   2.891   7.291 -0.7592  1.3547 -0.2427
  297MOL0     H40064  13.175   2.856   7.205 -0.6796 -1.9177  0.3057
  297MOL0     H40065  13.033   2.831   7.005  1.1034  1.3846 -0.1615
  297MOL0     H40066  13.042   2.993   7.067  1.6820 -0.9715 -0.2469
  297MOL0     H40067  12.814   2.825   7.177  3.8135 -2.1765  0.0650
  297MOL0     H40068  12.815   2.993   7.132  0.2436 -0.3205  1.3367
  297MOL0     H40069  12.771   2.760   6.964  0.7378  0.0195  2.9452
  297MOL0     H40070  12.856   2.902   6.883 -1.0439  0.9758 -0.4104
  297MOL0     H40071  12.604   2.931   7.056  0.4396  0.0527  1.4550
  297MOL0     H40072  12.673   3.037   6.921 -2.4918  0.0495  1.5381
  297MOL0     H40073  12.624   2.797   6.794 -0.0243  0.9790 -0.4793
  297MOL0     H40074  12.504   2.941   6.813  0.1150 -0.8366 -0.2513
  297MOL0     H40075  12.539   2.690   6.973  1.7646 -0.0123 -0.4284
  297MOL0     H40076  12.435   2.695   6.838  3.4904 -4.6079  2.4676
  297MOL0     H40077  13.193   2.586   7.555  0.1335  1.3816  0.0503
  297MOL0     H40078  13.075   2.457   7.742 -1.6680  1.2957  1.9189
  297MOL0     H40079  12.601   2.248   7.765 -1.8592  0.8990  0.8402
  297MOL0     H40080  12.458   2.081   7.875  1.2995  0.5223 -0.3153
  297MOL0     H40081  11.696   0.397   8.883  0.3056 -1.0209  2.3735
  297MOL0     H40082  11.651   0.427   9.139 -0.3586 -3.4096 -2.6818
  297MOL0     H40083  11.205   0.488   9.371 -0.3113  1.0580 -1.2516
  297MOL0     H40084  11.081   0.455   9.571 -0.0172  1.0897  1.9316
  297MOL0     H40085  11.179   0.756   9.901  0.6474 -0.5039  0.2067
  297MOL0     H40086  11.111   0.628   9.993  0.8102 -0.5527 -0.7409
  297MOL0     H40087  11.336   0.609  10.008  1.5943 -0.9322 -0.6019
  297MOL0     H40088  11.375   0.608   9.832  0.2904 -1.6910 -1.0459
  297MOL0     H40089  11.229   0.393   9.807  1.2990 -2.8615 -0.2646
  297MOL0     H40090  11.215   0.388   9.987  1.2375 -3.2143  1.4382
  297MOL0     H40091  11.382   0.243   9.870 -0.4337  0.7343 -1.8300
  297MOL0     H40092  11.443   0.359  10.004 -0.0130  2.6364  1.2530
  297MOL0     H40093  11.699   0.461   9.711  0.2539  3.4224  4.9314
  297MOL0     H40094  11.256   0.825   9.723  0.5055 -1.7839  1.0351
  297MOL0     H40095  11.383   0.840   9.520 -1.6897  2.5281 -0.4762
  298MOL0     O40096   5.791   9.692   8.483 -0.7669 -0.7108  0.1696
  298MOL0     C40097   5.764   9.592   8.549  0.2437  0.5403 -1.0500
  298MOL0     O40098   5.713   9.592   8.675 -0.6648 -0.2012 -0.3130
  298MOL0     C40099   5.739   9.693   8.762  0.3603  0.7150 -0.4220
  298MOL0     C40100   5.710   9.832   8.736  0.9061  0.0474  0.1124
  298MOL0     C40101   5.707   9.916   8.852  0.2617 -0.3929 -0.5958
  298MOL0     C40102   5.736   9.871   8.974  0.1166  0.0171 -0.5753
  298MOL0     O40103   5.726   9.964   9.076  0.1930 -0.2269  0.9219
  298MOL0     C40104   5.844   9.971   9.150 -1.1517 -0.2514  0.5188
  298MOL0     C40105   5.910  10.108   9.129 -0.7589  0.2334  0.0350
  298MOL0     C40106   5.806  10.216   9.128  0.0881 -0.8179  0.3779
  298MOL0     C40107   5.856  10.351   9.077  0.2010 -0.5472 -0.5293
  298MOL0     C40108   5.936  10.430   9.177  0.1585 -0.0998  0.2089
  298MOL0     C40109   5.944  10.576   9.130  0.2050 -0.2501  0.2031
  298MOL0     C40110   6.026  10.596   8.988 -0.6471  0.9086 -0.2657
  298MOL0     C40111   6.109  10.722   8.988  0.3808  0.4650  0.2919
  298MOL0     N40112   6.178  10.769   8.866 -0.6166  0.8241 -0.4720
  298MOL0     C40113   6.206  10.688   8.758 -0.8741 -0.3520 -0.8637
  298MOL0     C40114   6.274  10.765   8.677 -0.1271 -0.3498 -0.6643
  298MOL0     C40115   6.307  10.712   8.547 -0.6222 -0.1693  0.6394
  298MOL0     C40116   6.436  10.784   8.484 -0.0981 -0.8215 -0.2808
  298MOL0     C40117   6.524  10.696   8.391  0.3700 -0.7260 -0.3022
  298MOL0     C40118   6.474  10.679   8.247 -0.6823  0.3917  0.2388
  298MOL0     O40119   6.354  10.600   8.248  0.2392 -0.5423  0.0369
  298MOL0     C40120   6.303  10.563   8.128 -0.5854 -0.4365  0.2114
  298MOL0     C40121   6.379  10.542   8.009  0.4121 -0.4699 -0.3704
  298MOL0     C40122   6.327  10.480   7.897 -0.6898 -0.3809  0.0170
  298MOL0     C40123   6.427  10.445   7.789  0.9914  0.2602  0.2106
  298MOL0     C40124   6.178  10.452   7.900 -0.9497 -0.0480 -0.2471
  298MOL0     C40125   6.112  10.384   7.785 -0.5465  0.2648  0.3383
  298MOL0     O40126   6.167  10.380   7.665  0.4302  0.6433 -0.2916
  298MOL0     C40127   6.118  10.286   7.574  0.4001  0.0200  0.4487
  298MOL0     C40128   6.190  10.171   7.553 -0.3792 -0.1757  0.0218
  298MOL0     C40129   6.143  10.061   7.471  0.6600 -0.3525  0.1481
  298MOL0     C40130   6.024  10.087   7.400 -0.0590 -0.3650 -0.4360
  298MOL0     O40131   6.001   9.985   7.304  0.2638 -0.5800 -0.5549
  298MOL0     C40132   5.894  10.011   7.208  0.2485  1.4684  0.8484
  298MOL0     C40133   5.904   9.895   7.111 -1.0707  0.3138  0.6938
  298MOL0     C40134   6.007   9.913   7.003  0.0227 -0.4580  0.4867
  298MOL0     C40135   5.986   9.789   6.914  0.2823 -0.8339 -0.9179
  298MOL0     C40136   6.082   9.781   6.800 -0.4048 -0.0294  0.8522
  298MOL0     C40137   6.076   9.651   6.718 -1.1757  0.0610 -0.3214
  298MOL0     C40138   6.187   9.648   6.609  0.1999 -0.1996  0.1686
  298MOL0     C40139   6.166   9.544   6.505 -0.1805  0.0423  0.7350
  298MOL0    Cl40140   6.303   9.560   6.389  0.2484  0.0107 -0.3302
  298MOL0     C40141   5.952  10.203   7.409  0.9276 -1.1763  0.1323
  298MOL0     C40142   5.994  10.295   7.506  0.0362  0.2417 -0.2194
  298MOL0     O40143   6.001  10.337   7.809  0.0331 -0.5974 -0.5270
  298MOL0     C40144   6.107  10.503   8.019  0.1706  1.8737  0.7921
  298MOL0     C40145   6.168  10.549   8.131 -0.4747 -0.3400 -0.4155
  298MOL0     N40146   6.281  10.896   8.717  0.5567  0.8177  0.1950
  298MOL0     N40147   6.206  10.893   8.828 -0.3278 -1.1021 -1.3040
  298MOL0     C40148   5.777   9.736   8.999  0.2049  0.7751  0.0346
  298MOL0     C40149   5.782   9.652   8.888  0.1419 -0.4616 -0.4614
  298MOL0     C40150   5.807   9.466   8.503  0.1858  0.1944 -0.4352
  298MOL0     C40151   5.760   9.342   8.557  0.9670  0.1710  0.0657
  298MOL0     C40152   5.773   9.222   8.479 -0.0955 -0.6596 -0.5597
  298MOL0     C40153   5.847   9.216   8.361 -0.4390  0.4069  0.6156
  298MOL0     O40154   5.838   9.104   8.279  0.6573  0.0626 -0.4937
  298MOL0     C40155   5.941   9.090   8.176 -0.5008  0.4970  1.7913
  298MOL0     C40156   5.913   8.957   8.093  0.4069  0.2249  0.2914
  298MOL0     C40157   5.772   8.942   8.025 -0.7283  0.1113  0.4243
  298MOL0     C40158   5.731   9.066   7.943  0.3681  0.7400 -1.1546
  298MOL0     C40159   5.817   9.081   7.825 -0.3329 -1.0838 -0.5065
  298MOL0     C40160   5.872   9.102   7.714  0.9661  0.0302 -0.6744
  298MOL0     C40161   5.922   9.337   8.329 -0.2789  0.8701  0.3422
  298MOL0     C40162   5.892   9.456   8.391  0.5194 -0.3546 -0.1380
  298MOL0     H40163   5.674   9.863   8.639  1.3657 -1.4829 -0.5802
  298MOL0     H40164   5.675  10.019   8.836 -0.0595 -0.5139 -0.7299
  298MOL0     H40165   5.807   9.962   9.252 -0.7487  4.8288  1.3613
  298MOL0     H40166   5.914   9.888   9.138 -0.7618  0.2247 -0.6195
  298MOL0     H40167   5.975  10.133   9.214 -2.2223  1.8533  0.7388
  298MOL0     H40168   5.971  10.101   9.039  0.2048  0.6837  0.6334
  298MOL0     H40169   5.725  10.195   9.057  0.7530 -0.8124 -0.4018
  298MOL0     H40170   5.758  10.218   9.226  1.9668  0.1252  1.3210
  298MOL0     H40171   5.917  10.337   8.987 -1.8344 -1.0073 -1.8974
  298MOL0     H40172   5.774  10.415   9.044 -2.3615 -2.4860  1.6615
  298MOL0     H40173   5.881  10.420   9.271 -1.6425  2.0177 -0.5173
  298MOL0     H40174   6.036  10.388   9.194  1.2052  2.4576  0.8880
  298MOL0     H40175   5.843  10.616   9.121 -0.1420 -1.0525  0.4924
  298MOL0     H40176   5.987  10.636   9.210  0.3764 -0.4927  0.2938
  298MOL0     H40177   6.095  10.513   8.971 -2.2194 -0.0149 -2.5382
  298MOL0     H40178   5.958  10.604   8.903 -1.6264 -3.5456 -0.1251
  298MOL0     H40179   6.183  10.711   9.068  1.2371 -2.9906 -0.7786
  298MOL0     H40180   6.031  10.792   9.019 -1.1698 -1.9772  2.3551
  298MOL0     H40181   6.188  10.583   8.737 -0.0008 -1.5857  3.5286
  298MOL0     H40182   6.310  10.603   8.555  1.8520 -0.0736  2.0983
  298MOL0     H40183   6.231  10.731   8.470 -3.4238  1.8107  3.6441
  298MOL0     H40184   6.499  10.818   8.567 -0.5036  0.6751 -0.5563
  298MOL0     H40185   6.403  10.880   8.444  0.4732 -0.2317  0.6170
  298MOL0     H40186   6.536  10.594   8.429  1.4113 -1.5036 -2.5286
  298MOL0     H40187   6.628  10.730   8.391  0.1527  0.0691 -2.1495
  298MOL0     H40188   6.543  10.620   8.186 -1.7903 -2.3126  1.4246
  298MOL0     H40189   6.448  10.772   8.196 -1.2238 -0.1409 -0.4708
  298MOL0     H40190   6.486  10.550   7.997  0.4978 -2.5079 -1.3372
  298MOL0     H40191   6.536  10.457   7.799  1.0834 -2.2496  4.7846
  298MOL0     H40192   6.425  10.341   7.756 -1.9316  0.1907  0.3734
  298MOL0     H40193   6.386  10.503   7.706 -2.7627 -1.3754  0.7252
  298MOL0     H40194   6.280  10.152   7.611  0.9327  0.1048 -1.8320
  298MOL0     H40195   6.190   9.966   7.445 -2.2716 -1.8376 -0.0680
  298MOL0     H40196   5.796  10.009   7.257 -0.4022  2.6604 -0.3485
  298MOL0     H40197   5.898  10.112   7.167  1.9379  1.1237  0.0777
  298MOL0     H40198   5.905   9.802   7.169  1.8692  1.0581  2.0183
  298MOL0     H40199   5.809   9.900   7.057 -1.4686  1.8967  1.4741
  298MOL0     H40200   6.102   9.898   7.055  0.1211 -0.2359  0.3718
  298MOL0     H40201   5.996  10.011   6.955 -0.2365 -0.3915  0.6763
  298MOL0     H40202   6.014   9.707   6.980 -1.4947 -1.0415 -0.3615
  298MOL0     H40203   5.881   9.774   6.888 -1.2759  0.7802  3.4989
  298MOL0     H40204   6.181   9.786   6.846  1.1836 -0.7153 -2.2409
  298MOL0     H40205   6.081   9.870   6.736  0.9326 -2.1510 -2.3608
  298MOL0     H40206   6.083   9.561   6.780  5.0951  1.0304  1.0358
  298MOL0     H40207   5.977   9.644   6.673 -1.9611  0.3286  1.2820
  298MOL0     H40208   6.287   9.630   6.650 -0.0803 -3.1555 -0.2339
  298MOL0     H40209   6.194   9.743   6.555  2.1313  1.1580  2.6067
  298MOL0     H40210   6.067   9.563   6.461 -1.4048  2.6145  4.1290
  298MOL0     H40211   6.151   9.443   6.544  1.0963 -0.0690  0.9675
  298MOL0     H40212   5.860  10.220   7.354 -0.6897 -0.4821  2.9051
  298MOL0     H40213   5.943  10.385   7.539 -1.3622  0.1915 -2.1399
  298MOL0     H40214   5.999  10.497   8.010  0.3175 -2.9770 -0.5977
  298MOL0     H40215   6.117  10.585   8.220  1.7795  1.9493  0.0554
  298MOL0     H40216   5.785   9.703   9.102 -0.5854 -0.4938 -0.2837
  298MOL0     H40217   5.817   9.554   8.917  3.0558  0.5796 -0.1851
  298MOL0     H40218   5.686   9.336   8.637  1.0492 -0.5854  0.0992
  298MOL0     H40219   5.715   9.133   8.503 -2.6694  1.4531  1.7399
  298MOL0     H40220   5.937   9.172   8.102 -2.4011  0.3146  1.6225
  298MOL0     H40221   6.038   9.087   8.225 -1.2538 -0.6182  3.2765
  298MOL0     H40222   5.940   8.874   8.158 -2.1943  0.1635  1.4109
  298MOL0     H40223   5.988   8.971   8.014 -0.9327  1.5392 -0.8049
  298MOL0     H40224   5.705   8.917   8.107 -2.8861  4.2903  0.2134
  298MOL0     H40225   5.772   8.859   7.954  2.2445  0.7689 -0.4946
  298MOL0     H40226   5.724   9.157   8.002 -1.3708  0.5781 -1.0575
  298MOL0     H40227   5.630   9.041   7.908  0.2340 -0.0224 -0.2872
  298MOL0     H40228   5.894   9.116   7.610 -0.4997  2.0301 -0.7672
  298MOL0     H40229   5.986   9.328   8.242 -0.5240 -3.9241  0.3741
  298MOL0     H40230   5.927   9.553   8.356  0.7028  0.0142  1.0313
  299MOL0     O40231   3.591   5.669   3.307 -0.1192 -0.5822 -0.4636
  299MOL0     C40232   3.584   5.798   3.306  0.0600  0.6625 -0.7162
  299MOL0     O40233   3.586   5.877   3.421 -0.3746 -0.2516 -1.0241
  299MOL0     C40234   3.611   5.827   3.548  0.4819 -0.0702 -0.5641
  299MOL0     C40235   3.522   5.732   3.607  0.1165  0.1704  0.9024
  299MOL0     C40236   3.539   5.678   3.729  0.9417 -0.8990 -0.7079
  299MOL0     C40237   3.648   5.720   3.804 -0.3947  0.4335 -0.1903
  299MOL0     O40238   3.678   5.677   3.929  0.2431 -0.4717  0.2638
  299MOL0     C40239   3.596   5.571   3.982  0.2834  0.4724 -0.1047
  299MOL0     C40240   3.603   5.565   4.135  0.9450  0.8723  0.9140
  299MOL0     C40241   3.735   5.493   4.198  0.5050  0.4123  0.2958
  299MOL0     C40242   3.845   5.594   4.207 -1.0738 -0.4368 -0.2501
  299MOL0     C40243   3.990   5.538   4.219  0.2548 -0.8513 -0.1140
  299MOL0     C40244   4.072   5.639   4.282  0.0972  0.0499 -0.2274
  299MOL0     C40245   4.221   5.595   4.264  0.1737  0.8005  0.9626
  299MOL0     C40246   4.268   5.503   4.373 -0.0603 -0.1865 -0.8898
  299MOL0     N40247   4.252   5.554   4.509 -0.5030 -0.1536 -0.3264
  299MOL0     C40248   4.335   5.638   4.574  0.1907  1.4985  0.3643
  299MOL0     C40249   4.296   5.640   4.701  0.4248 -0.3652 -0.8928
  299MOL0     C40250   4.382   5.700   4.820 -0.4752 -0.5208 -0.6748
  299MOL0     C40251   4.428   5.592   4.910  0.8593  0.0939 -1.6843
  299MOL0     C40252   4.376   5.592   5.061 -0.5364  0.4634 -0.1524
  299MOL0     C40253   4.449   5.707   5.149  0.3347 -0.2901  1.0263
  299MOL0     O40254   4.399   5.708   5.281  0.3815 -0.1190  0.3513
  299MOL0     C40255   4.490   5.744   5.375  0.0095  0.3908 -0.1710
  299MOL0     C40256   4.567   5.865   5.369 -0.0169 -0.3140  0.4889
  299MOL0     C40257   4.682   5.882   5.454  0.0513  0.0237 -1.0113
  299MOL0     C40258   4.749   6.013   5.454 -0.2267  0.9877  0.1986
  299MOL0     C40259   4.719   5.775   5.540  0.5042  0.1063  0.0578
  299MOL0     C40260   4.847   5.770   5.622  0.6190 -0.4929  0.1094
  299MOL0     O40261   4.850   5.740   5.757 -0.4550 -0.0935  1.1184
  299MOL0     C40262   4.966   5.750   5.831 -0.0755 -0.6881 -0.7156
  299MOL0     C40263   4.987   5.860   5.924  0.1503  0.3435 -0.1632
  299MOL0     C40264   5.109   5.873   5.994  0.9996  0.4675 -0.5177
  299MOL0     C40265   5.215   5.788   5.970  0.8450  0.5234  0.4130
  299MOL0     O40266   5.342   5.795   6.029 -0.0079  0.4221  0.0150
  299MOL0     C40267   5.359   5.908   6.115 -0.9422  0.4020 -0.0738
  299MOL0     C40268   5.472   5.867   6.205 -1.1362  0.6357 -0.1883
  299MOL0     C40269   5.541   5.971   6.293  0.6416 -0.4082  0.6394
  299MOL0     C40270   5.584   5.935   6.433  0.4386  0.0645 -0.7035
  299MOL0     C40271   5.605   6.061   6.521  1.8788 -0.6639  0.1629
  299MOL0     C40272   5.746   6.106   6.502 -0.6394  0.4953 -0.9294
  299MOL0     C40273   5.786   6.214   6.599 -1.3829 -0.7412 -1.3174
  299MOL0     C40274   5.915   6.287   6.542  0.1964 -0.7420  0.1438
  299MOL0    Cl40275   5.961   6.431   6.638 -0.4286  0.0456  0.2906
  299MOL0     C40276   5.196   5.681   5.878  0.5680 -0.5536  0.0105
  299MOL0     C40277   5.076   5.664   5.811  0.0966  0.7892  0.3705
  299MOL0     O40278   4.946   5.777   5.555  0.3712  0.3964  0.6260
  299MOL0     C40279   4.630   5.671   5.554  0.5267  0.9643 -0.3825
  299MOL0     C40280   4.518   5.657   5.478  1.0040  0.1239 -0.1817
  299MOL0     N40281   4.176   5.576   4.717 -0.8623 -0.4697  0.1171
  299MOL0     N40282   4.160   5.517   4.609 -0.9855 -0.3591  0.3248
  299MOL0     C40283   3.739   5.814   3.750  0.6051  0.4786  0.1364
  299MOL0     C40284   3.730   5.862   3.624  0.7485 -0.2034 -0.0816
  299MOL0     C40285   3.577   5.869   3.175  0.6354 -0.0608 -0.2913
  299MOL0     C40286   3.552   5.794   3.063  0.6544  0.4684  0.6780
  299MOL0     C40287   3.544   5.857   2.935 -0.3477 -0.1357 -0.2145
  299MOL0     C40288   3.551   5.998   2.930 -0.1834 -0.1064 -0.0928
  299MOL0     O40289   3.550   6.053   2.804  0.6103 -0.1304 -0.5374
  299MOL0     C40290   3.505   6.191   2.798 -0.4509  0.6483 -0.1668
  299MOL0     C40291   3.466   6.236   2.667 -0.3614  0.3545 -0.6788
  299MOL0     C40292   3.575   6.303   2.580 -0.2338  0.8297 -1.1330
  299MOL0     C40293   3.667   6.201   2.511 -0.2031 -0.2522 -0.7749
  299MOL0     C40294   3.601   6.129   2.404  0.6005 -0.0778 -0.6961
  299MOL0     C40295   3.553   6.068   2.314  0.0202 -0.2527  0.9889
  299MOL0     C40296   3.582   6.073   3.051  0.4221  0.6089  0.1656
  299MOL0     C40297   3.595   6.010   3.168  0.2770  0.8732  0.3448
  299MOL0     H40298   3.430   5.713   3.552  0.3254 -3.1937  1.5409
  299MOL0     H40299   3.468   5.599   3.750 -0.2345 -0.0631 -1.4080
  299MOL0     H40300   3.491   5.598   3.966  0.6373  2.0510  0.0473
  299MOL0     H40301   3.615   5.473   3.938  2.0779  0.3745  0.7806
  299MOL0     H40302   3.586   5.664   4.179 -1.0261  1.8866 -1.8187
  299MOL0     H40303   3.518   5.510   4.175  0.5086 -0.7595 -2.0102
  299MOL0     H40304   3.708   5.468   4.301  1.8153  0.3467  0.6439
  299MOL0     H40305   3.760   5.407   4.134 -3.8962  0.9016 -2.4654
  299MOL0     H40306   3.847   5.676   4.135  0.3751  0.2976  0.5807
  299MOL0     H40307   3.812   5.637   4.302 -2.2625  2.6398 -1.9035
  299MOL0     H40308   3.990   5.435   4.256 -1.5715 -0.9102 -0.1585
  299MOL0     H40309   4.020   5.536   4.114 -1.4702  1.4698 -0.7411
  299MOL0     H40310   4.064   5.739   4.239  0.7268  0.7151  1.1301
  299MOL0     H40311   4.044   5.648   4.387 -3.5790  0.3304 -1.1099
  299MOL0     H40312   4.252   5.552   4.168  2.4258  2.5141  0.8277
  299MOL0     H40313   4.293   5.676   4.281 -0.1040  1.1165  0.6548
  299MOL0     H40314   4.372   5.473   4.357  0.7474  2.8073 -1.9242
  299MOL0     H40315   4.197   5.421   4.356  0.3984 -0.3329 -2.2266
  299MOL0     H40316   4.420   5.679   4.522  0.5322  1.5152  0.9280
  299MOL0     H40317   4.468   5.751   4.776  0.0634 -0.4546  0.4280
  299MOL0     H40318   4.332   5.775   4.881  1.1091 -0.1619  0.2237
  299MOL0     H40319   4.535   5.611   4.920  0.2086  3.5653  0.5252
  299MOL0     H40320   4.391   5.493   4.883 -0.4290 -0.3793  1.4147
  299MOL0     H40321   4.396   5.496   5.110  2.5149 -0.1522 -2.3340
  299MOL0     H40322   4.267   5.599   5.058 -0.4972  1.3187 -3.5217
  299MOL0     H40323   4.419   5.802   5.103  1.7050  0.4558  1.5924
  299MOL0     H40324   4.557   5.690   5.146  0.5862  1.2149  0.8427
  299MOL0     H40325   4.556   5.946   5.298  0.5105  0.1084  0.8906
  299MOL0     H40326   4.776   6.044   5.352 -2.1415  4.7797  0.6693
  299MOL0     H40327   4.670   6.086   5.469 -2.6909 -0.5639 -3.6761
  299MOL0     H40328   4.828   6.028   5.528 -0.3890 -1.0001  0.8378
  299MOL0     H40329   4.915   5.941   5.936  1.8180  1.9194 -0.4535
  299MOL0     H40330   5.114   5.959   6.060 -0.4807  0.4139 -0.2867
  299MOL0     H40331   5.396   5.995   6.060  1.2843 -0.8874 -0.7429
  299MOL0     H40332   5.275   5.933   6.180 -1.3225 -0.8247 -0.0662
  299MOL0     H40333   5.441   5.786   6.272  3.3602  0.9202  2.6190
  299MOL0     H40334   5.539   5.807   6.143 -2.4967 -1.5481  0.3375
  299MOL0     H40335   5.469   6.052   6.310  1.0094  0.3339 -1.1134
  299MOL0     H40336   5.629   6.004   6.236  1.0182  1.5943  2.2359
  299MOL0     H40337   5.498   5.885   6.478  0.1135 -0.6342 -2.0412
  299MOL0     H40338   5.671   5.868   6.430 -0.4692 -1.1085 -2.5767
  299MOL0     H40339   5.581   6.041   6.626 -0.2216  1.0698  0.0851
  299MOL0     H40340   5.531   6.132   6.483  2.5105  0.3638  0.7933
  299MOL0     H40341   5.817   6.024   6.510 -0.6926  0.6412  3.4035
  299MOL0     H40342   5.763   6.140   6.400  2.2714 -2.6502 -1.6767
  299MOL0     H40343   5.812   6.175   6.698 -2.1883  0.7544 -0.4715
  299MOL0     H40344   5.700   6.279   6.619 -2.6836 -2.3792 -1.3614
  299MOL0     H40345   5.897   6.323   6.440  0.5775 -2.6186 -0.6341
  299MOL0     H40346   6.001   6.220   6.555 -0.2209 -0.8735  2.8488
  299MOL0     H40347   5.279   5.611   5.874  1.5590  0.1008  4.1222
  299MOL0     H40348   5.066   5.575   5.749  0.8904  3.6536 -4.2717
  299MOL0     H40349   4.651   5.600   5.633 -2.3969  0.8587  0.4007
  299MOL0     H40350   4.456   5.570   5.496 -0.8963  0.4567 -3.9645
  299MOL0     H40351   3.821   5.834   3.818 -0.4705 -2.0597  2.3912
  299MOL0     H40352   3.818   5.917   3.591  0.6106 -0.3107 -0.6419
  299MOL0     H40353   3.533   5.688   3.076  0.9883  0.6279  2.8652
  299MOL0     H40354   3.515   5.807   2.843 -0.0429  0.9252 -0.8966
  299MOL0     H40355   3.419   6.216   2.861 -0.1611  0.1086  0.4574
  299MOL0     H40356   3.586   6.254   2.835 -0.4007  1.1392 -1.0905
  299MOL0     H40357   3.400   6.321   2.684  0.2465  0.6574  0.1825
  299MOL0     H40358   3.414   6.153   2.617 -0.8813  1.2492 -1.6607
  299MOL0     H40359   3.638   6.362   2.646 -2.5971  2.0611  0.1427
  299MOL0     H40360   3.535   6.375   2.508 -1.3578  1.0165 -0.3450
  299MOL0     H40361   3.708   6.127   2.580  0.5787  0.1665 -0.7814
  299MOL0     H40362   3.762   6.239   2.473 -0.4057 -1.7208 -2.9079
  299MOL0     H40363   3.504   6.028   2.227  3.3514 -1.1602 -0.6677
  299MOL0     H40364   3.601   6.178   3.069  0.7841  0.5310  0.2410
  299MOL0     H40365   3.627   6.069   3.253 -0.2599  2.1722 -0.3322
  300MOL0     O40366   1.769   2.901   2.082  0.0393 -0.4456 -0.8814
  300MOL0     C40367   1.713   2.932   1.978 -0.7596  0.0307  0.2142
  300MOL0     O40368   1.632   3.037   1.962  0.2180  0.1898  0.1204
  300MOL0     C40369   1.600   3.105   2.082 -0.1209 -0.1990  0.4234
  300MOL0     C40370   1.516   3.047   2.176  0.0697 -0.5842  0.1940
  300MOL0     C40371   1.479   3.121   2.291 -0.1551  0.1763 -0.4350
  300MOL0     C40372   1.524   3.254   2.304 -1.5702  0.0775 -0.3120
  300MOL0     O40373   1.489   3.345   2.407  0.4787  0.0438 -0.3958
  300MOL0     C40374   1.495   3.289   2.534 -0.4648 -0.2689  0.5088
  300MOL0     C40375   1.431   3.374   2.645 -0.0708  0.6353  0.8259
  300MOL0     C40376   1.441   3.315   2.789 -0.5947 -0.6226  0.0520
  300MOL0     C40377   1.369   3.403   2.891 -0.2424  0.2515 -0.2336
  300MOL0     C40378   1.366   3.341   3.037  0.0725  0.1810  1.7903
  300MOL0     C40379   1.445   3.428   3.135  0.9620 -0.2220 -0.2804
  300MOL0     C40380   1.430   3.388   3.282 -0.2567  0.5145  0.1542
  300MOL0     C40381   1.509   3.256   3.327 -0.5223 -0.3342 -0.1052
  300MOL0     N40382   1.552   3.278   3.475  0.7279  0.2088  0.9316
  300MOL0     C40383   1.477   3.266   3.582 -0.0858  0.0641  0.3984
  300MOL0     C40384   1.555   3.292   3.688  0.5904 -0.1318 -0.4250
  300MOL0     C40385   1.494   3.264   3.821  0.5468 -0.1441  0.0201
  300MOL0     C40386   1.496   3.375   3.916 -1.1104  0.3795 -0.4883
  300MOL0     C40387   1.387   3.358   4.028  0.0409 -0.1980 -0.6431
  300MOL0     C40388   1.429   3.275   4.146 -1.1880 -0.1026 -0.4085
  300MOL0     O40389   1.498   3.359   4.244 -0.1855 -0.3435 -0.8627
  300MOL0     C40390   1.624   3.333   4.288  0.4412 -0.5253 -0.9097
  300MOL0     C40391   1.713   3.267   4.201 -1.4085 -0.9354 -0.4573
  300MOL0     C40392   1.850   3.247   4.231  0.5893  0.4673 -0.4735
  300MOL0     C40393   1.918   3.153   4.137  0.3086 -0.3328 -0.9228
  300MOL0     C40394   1.905   3.284   4.353 -1.1663 -0.8668 -1.4079
  300MOL0     C40395   2.040   3.256   4.397  0.7396  0.3695 -0.6490
  300MOL0     O40396   2.081   3.287   4.524  0.4612 -0.2657  0.6365
  300MOL0     C40397   2.206   3.262   4.564 -0.6060  0.3202 -0.0593
  300MOL0     C40398   2.285   3.368   4.590  0.2705  0.0662 -0.5480
  300MOL0     C40399   2.419   3.352   4.646 -0.5161 -0.4473  0.0165
  300MOL0     C40400   2.465   3.222   4.660 -0.3747 -0.5492  0.2520
  300MOL0     O40401   2.597   3.209   4.705 -0.8815 -1.3543 -0.0445
  300MOL0     C40402   2.618   3.120   4.813  0.0061  0.0841  0.0580
  300MOL0     C40403   2.719   3.162   4.919  0.9761  0.1097 -1.0449
  300MOL0     C40404   2.727   3.047   5.033  0.2340 -0.5727 -0.1713
  300MOL0     C40405   2.865   3.031   5.110  1.0121 -0.0312  0.2679
  300MOL0     C40406   2.862   2.918   5.214 -0.8929  0.0611 -0.2560
  300MOL0     C40407   3.001   2.909   5.291  0.2019 -0.1235  0.2864
  300MOL0     C40408   2.992   2.808   5.404 -0.0625  0.5469 -0.4168
  300MOL0     C40409   3.134   2.742   5.426 -0.2601 -0.0836  0.9597
  300MOL0    Cl40410   3.122   2.644   5.578 -0.2765  0.3214  0.0627
  300MOL0     C40411   2.388   3.112   4.632  0.3574  0.1307 -0.8514
  300MOL0     C40412   2.258   3.132   4.590  0.1106 -0.0793  0.1495
  300MOL0     O40413   2.116   3.202   4.315  1.1394 -0.1847  0.5441
  300MOL0     C40414   1.810   3.345   4.447 -0.0553  0.1888 -0.2506
  300MOL0     C40415   1.678   3.376   4.411 -0.7163 -0.4597 -0.3761
  300MOL0     N40416   1.680   3.305   3.642  0.4433 -0.1760  0.0577
  300MOL0     N40417   1.682   3.287   3.510  0.0171  0.2183 -0.9211
  300MOL0     C40418   1.611   3.302   2.216 -0.0529 -0.3670  0.6672
  300MOL0     C40419   1.642   3.233   2.102 -0.4126 -0.3166  0.6154
  300MOL0     C40420   1.742   2.838   1.870  0.5223  0.4703 -0.7143
  300MOL0     C40421   1.681   2.860   1.741  0.3339  1.2991 -0.2278
  300MOL0     C40422   1.713   2.760   1.640 -0.5065  0.1050  0.5735
  300MOL0     C40423   1.808   2.655   1.668 -0.5596  0.1104  0.6594
  300MOL0     O40424   1.846   2.575   1.564 -0.4042  0.6127  0.3514
  300MOL0     C40425   1.736   2.488   1.517  0.1354  0.6567  0.4873
  300MOL0     C40426   1.797   2.366   1.445  0.5861  0.0848 -0.5845
  300MOL0     C40427   1.884   2.261   1.520  0.0767 -0.8459 -0.6352
  300MOL0     C40428   1.827   2.213   1.641  0.6211  0.1925  0.4040
  300MOL0     C40429   1.762   2.082   1.622  0.3554 -1.0492 -0.7401
  300MOL0     C40430   1.725   1.964   1.623  0.4667  0.1219 -0.9042
  300MOL0     C40431   1.863   2.638   1.797  0.2526  0.4341  0.1902
  300MOL0     C40432   1.843   2.740   1.883  0.2215 -0.7336 -1.2776
  300MOL0     H40433   1.471   2.951   2.152 -5.7628  0.7484  3.7548
  300MOL0     H40434   1.414   3.080   2.368 -3.0622  1.7203 -1.8575
  300MOL0     H40435   1.440   3.196   2.547  0.4279 -0.4174  4.6055
  300MOL0     H40436   1.603   3.282   2.550 -0.2213  0.6686 -0.5672
  300MOL0     H40437   1.475   3.475   2.646  0.0136  0.6633 -1.1747
  300MOL0     H40438   1.325   3.387   2.620 -0.0520 -0.8611 -0.1328
  300MOL0     H40439   1.397   3.214   2.794  0.5353 -1.0421  3.3423
  300MOL0     H40440   1.544   3.306   2.822 -0.6049 -2.3429 -0.2901
  300MOL0     H40441   1.432   3.492   2.898 -0.4418  0.5169 -1.6512
  300MOL0     H40442   1.270   3.422   2.849  1.2421 -3.7230 -7.1016
  300MOL0     H40443   1.259   3.345   3.060 -0.7665  0.1800 -1.5959
  300MOL0     H40444   1.399   3.237   3.030 -0.5627  0.0671 -2.4457
  300MOL0     H40445   1.548   3.426   3.099  0.4640 -1.1843 -1.7709
  300MOL0     H40446   1.412   3.532   3.121 -0.8687 -0.9917 -2.3071
  300MOL0     H40447   1.482   3.472   3.329 -0.2660  2.4321 -2.9547
  300MOL0     H40448   1.323   3.389   3.305 -0.3361  4.1167  0.1504
  300MOL0     H40449   1.592   3.244   3.257  0.8101  2.4625  0.8367
  300MOL0     H40450   1.441   3.172   3.318 -2.4706  1.1861 -0.2033
  300MOL0     H40451   1.370   3.251   3.576 -0.0254 -0.8546  1.3988
  300MOL0     H40452   1.390   3.242   3.797  0.5792 -2.8665  1.9182
  300MOL0     H40453   1.535   3.174   3.868 -2.2034 -1.6296 -0.2234
  300MOL0     H40454   1.476   3.474   3.873  0.1019  1.0479  0.4096
  300MOL0     H40455   1.597   3.386   3.957  1.2413 -3.8381 -4.2505
  300MOL0     H40456   1.290   3.329   3.985 -1.2844  2.2296  0.4726
  300MOL0     H40457   1.371   3.457   4.073 -3.6327  0.1800 -2.3623
  300MOL0     H40458   1.479   3.183   4.115  3.1764  2.2200 -1.1869
  300MOL0     H40459   1.338   3.244   4.198 -1.2633  1.5481  0.5505
  300MOL0     H40460   1.690   3.238   4.098  1.8799 -2.4087 -0.8850
  300MOL0     H40461   1.860   3.122   4.049 -0.8756  0.2181 -0.3646
  300MOL0     H40462   2.015   3.187   4.101  1.5958 -0.8431  1.7846
  300MOL0     H40463   1.939   3.065   4.199  1.6680  0.9421  0.4886
  300MOL0     H40464   2.254   3.465   4.552 -1.3686 -0.7187 -1.3463
  300MOL0     H40465   2.485   3.436   4.665 -3.3006  2.6528 -2.5953
  300MOL0     H40466   2.525   3.089   4.862  1.2606 -3.0913  0.7155
  300MOL0     H40467   2.645   3.023   4.771  0.1070 -0.3697  1.1305
  300MOL0     H40468   2.808   3.182   4.858  0.9918 -3.1742 -2.3021
  300MOL0     H40469   2.681   3.252   4.968  2.0290  0.3727 -0.6744
  300MOL0     H40470   2.705   2.951   4.986 -1.4237  0.0514 -0.7479
  300MOL0     H40471   2.644   3.076   5.099  0.4505  1.9352 -0.8802
  300MOL0     H40472   2.951   3.027   5.044  1.7235 -0.8237  1.2121
  300MOL0     H40473   2.873   3.121   5.173  1.0955 -1.1839  1.9840
  300MOL0     H40474   2.846   2.819   5.169  0.1127 -1.4944  2.5563
  300MOL0     H40475   2.784   2.929   5.289 -1.0093  0.7322 -0.4722
  300MOL0     H40476   3.076   2.883   5.216 -1.4682 -0.0595 -1.5130
  300MOL0     H40477   3.035   3.004   5.333 -0.7789 -0.6305  2.3360
  300MOL0     H40478   2.905   2.743   5.387  0.3545 -0.6160  1.5764
  300MOL0     H40479   2.969   2.865   5.495 -2.1102 -2.0268  0.8105
  300MOL0     H40480   3.214   2.816   5.427  0.5562 -0.7550 -2.4168
  300MOL0     H40481   3.160   2.677   5.341 -2.8886  0.9489 -0.7556
  300MOL0     H40482   2.424   3.010   4.642  0.2253 -0.3001 -3.7944
  300MOL0     H40483   2.193   3.049   4.566 -0.8644  0.9325 -0.8397
  300MOL0     H40484   1.842   3.367   4.548  0.2649  0.3934 -0.3939
  300MOL0     H40485   1.604   3.410   4.483 -0.0707  0.5043 -0.1565
  300MOL0     H40486   1.640   3.406   2.218  0.7031 -0.5317 -0.3520
  300MOL0     H40487   1.694   3.283   2.020 -1.7811 -1.8310 -1.2689
  300MOL0     H40488   1.614   2.943   1.719 -1.3589  0.1270  0.3196
  300MOL0     H40489   1.672   2.769   1.540  2.3768  1.2894 -0.6092
  300MOL0     H40490   1.660   2.458   1.590 -1.8970 -1.9510 -2.4678
  300MOL0     H40491   1.685   2.536   1.433  1.9119 -1.4463 -1.9350
  300MOL0     H40492   1.850   2.404   1.356 -0.9549 -4.4233 -3.8103
  300MOL0     H40493   1.708   2.314   1.409  1.2666 -1.8693  0.4392
  300MOL0     H40494   1.981   2.307   1.543  0.8879 -0.8324 -3.6926
  300MOL0     H40495   1.924   2.177   1.462 -0.0246  1.0261 -3.6235
  300MOL0     H40496   1.748   2.277   1.682 -1.7963 -1.1561 -1.8046
  300MOL0     H40497   1.913   2.208   1.708 -0.3655 -0.8962  1.6356
  300MOL0     H40498   1.705   1.859   1.626 -1.1502  0.2694 -3.5347
  300MOL0     H40499   1.936   2.558   1.793 -2.5673 -2.2928 -1.7284
  300MOL0     H40500   1.898   2.742   1.976 -1.0604 -2.8573 -0.4010
  301MOL0     O40501   7.504  10.110   6.817  0.3314 -0.4000 -0.4742
  301MOL0     C40502   7.452  10.209   6.752 -0.3499 -0.2009 -0.0949
  301MOL0     O40503   7.357  10.191   6.656 -0.0496  0.7575  0.7512
  301MOL0     C40504   7.299  10.063   6.639  0.2393  0.1479 -0.2394
  301MOL0     C40505   7.375   9.953   6.592 -0.0533  0.5316 -0.4143
  301MOL0     C40506   7.326   9.824   6.569  1.2985 -0.9972 -0.2622
  301MOL0     C40507   7.187   9.810   6.591 -0.3846  0.0291  0.2876
  301MOL0     O40508   7.117   9.690   6.569 -0.2478  0.5401 -0.5312
  301MOL0     C40509   7.174   9.591   6.495 -0.5705 -0.7546  0.5238
  301MOL0     C40510   7.221   9.653   6.353  0.8202  0.1527 -0.5040
  301MOL0     C40511   7.167   9.593   6.229  0.4111  0.3305 -0.2106
  301MOL0     C40512   7.164   9.442   6.227 -0.4561 -0.3812 -0.0716
  301MOL0     C40513   7.297   9.371   6.265  0.8817  0.5303  0.0415
  301MOL0     C40514   7.284   9.224   6.263  0.2932 -0.1690  0.4023
  301MOL0     C40515   7.415   9.150   6.303 -0.0949 -0.4638 -0.2401
  301MOL0     C40516   7.461   9.184   6.445  0.6870  0.2097 -0.5570
  301MOL0     N40517   7.343   9.187   6.528 -0.2535  0.8196  0.0948
  301MOL0     C40518   7.267   9.080   6.568 -0.9184 -0.6725  0.1772
  301MOL0     C40519   7.188   9.129   6.663 -0.2504 -0.8920 -0.5818
  301MOL0     C40520   7.089   9.068   6.775 -0.4206 -0.1928  0.0249
  301MOL0     C40521   7.099   8.908   6.787 -0.4725  0.1318 -0.0628
  301MOL0     C40522   6.977   8.830   6.843 -0.9453  0.2212  0.0512
  301MOL0     C40523   6.977   8.807   7.001 -0.0993 -0.0879  0.1048
  301MOL0     O40524   7.083   8.721   7.030 -0.5128 -0.2026  0.4695
  301MOL0     C40525   7.054   8.586   7.030  0.5382 -0.9029 -0.1786
  301MOL0     C40526   6.942   8.538   7.099 -0.5068  0.2053 -1.0261
  301MOL0     C40527   6.917   8.401   7.093 -0.7563  0.1041 -0.2151
  301MOL0     C40528   6.801   8.357   7.184  0.8656 -0.9568 -0.8475
  301MOL0     C40529   7.001   8.310   7.019  0.1120 -0.1757  0.3628
  301MOL0     C40530   6.963   8.174   6.982  0.6977  1.0821  1.3863
  301MOL0     O40531   7.036   8.112   6.880 -0.0232  0.8495 -0.0767
  301MOL0     C40532   7.002   7.983   6.841 -1.0052 -0.4983  0.6345
  301MOL0     C40533   7.042   7.869   6.916 -0.1983 -0.2238  0.6185
  301MOL0     C40534   7.023   7.739   6.876  0.7542 -0.9008  0.7727
  301MOL0     C40535   6.962   7.715   6.741 -0.4183 -0.0881  0.3004
  301MOL0     O40536   6.927   7.589   6.696 -0.2505 -0.1592 -0.1425
  301MOL0     C40537   6.940   7.557   6.560  0.3780 -0.1269  0.9650
  301MOL0     C40538   6.939   7.414   6.520  0.4159  0.3578 -0.1892
  301MOL0     C40539   6.938   7.392   6.373 -0.3388 -0.8292  0.5595
  301MOL0     C40540   6.872   7.255   6.346  0.1036 -0.3003 -0.2522
  301MOL0     C40541   6.866   7.220   6.199  0.3119  0.6090  0.5860
  301MOL0     C40542   6.814   7.078   6.180 -0.2156  0.3036  0.0396
  301MOL0     C40543   6.674   7.061   6.220  1.2347  0.2324 -0.7503
  301MOL0     C40544   6.607   6.951   6.134 -0.5636 -0.1601 -0.0632
  301MOL0    Cl40545   6.603   6.997   5.955 -0.2904  0.0383 -0.0817
  301MOL0     C40546   6.919   7.828   6.673 -0.9513 -0.8515  0.5263
  301MOL0     C40547   6.944   7.964   6.717 -0.1822  0.6855  1.0366
  301MOL0     O40548   6.857   8.132   7.033  0.9139  0.0130 -0.7299
  301MOL0     C40549   7.118   8.362   6.950  0.1527 -0.1202  0.9619
  301MOL0     C40550   7.148   8.503   6.971 -0.5647  0.7598 -0.2187
  301MOL0     N40551   7.212   9.265   6.671  0.4190  0.2557  0.0787
  301MOL0     N40552   7.290   9.296   6.579 -1.3818 -0.4610  0.5384
  301MOL0     C40553   7.102   9.918   6.632  0.4353  0.7592 -0.2692
  301MOL0     C40554   7.162  10.038   6.661 -0.4452  0.1515  0.2148
  301MOL0     C40555   7.511  10.340   6.764  0.8222  1.1792  0.9446
  301MOL0     C40556   7.613  10.370   6.863  0.7890  0.5172 -0.6683
  301MOL0     C40557   7.668  10.491   6.885  0.1171 -0.0833 -0.5571
  301MOL0     C40558   7.641  10.601   6.797 -0.0049  0.2426  1.4048
  301MOL0     O40559   7.659  10.726   6.831  0.0116  0.8336  0.2314
  301MOL0     C40560   7.583  10.781   6.933 -0.3763  0.4207  0.1483
  301MOL0     C40561   7.527  10.914   6.901  0.7371 -0.6530 -0.0624
  301MOL0     C40562   7.436  10.971   7.016 -0.5872 -0.3694 -0.0678
  301MOL0     C40563   7.308  11.036   6.954 -0.4701  0.0368  0.3689
  301MOL0     C40564   7.351  11.178   6.927 -0.5062 -0.3452 -0.5433
  301MOL0     C40565   7.392  11.296   6.922 -1.0451  0.5993  0.0598
  301MOL0     C40566   7.546  10.574   6.689 -1.5384 -0.6653 -0.0613
  301MOL0     C40567   7.487  10.447   6.671 -0.5398 -0.5623  1.2422
  301MOL0     H40568   7.484   9.950   6.586 -0.1025 -2.2068 -1.5139
  301MOL0     H40569   7.404   9.750   6.557  3.0074  0.4796  1.1578
  301MOL0     H40570   7.252   9.543   6.554  0.9517 -0.8252 -1.4233
  301MOL0     H40571   7.102   9.512   6.470 -1.0955 -1.2862  3.3888
  301MOL0     H40572   7.215   9.762   6.346  2.7624  0.3316  0.2124
  301MOL0     H40573   7.328   9.642   6.333  0.6862  0.7726 -1.6495
  301MOL0     H40574   7.063   9.624   6.212 -0.6402 -2.5076  0.4976
  301MOL0     H40575   7.228   9.625   6.145 -1.2143 -0.2483 -1.6796
  301MOL0     H40576   7.080   9.410   6.289 -1.1593 -0.1370 -0.8752
  301MOL0     H40577   7.132   9.410   6.128 -0.1232 -0.1765 -0.2495
  301MOL0     H40578   7.375   9.397   6.193 -1.7583  0.2000 -3.1626
  301MOL0     H40579   7.334   9.418   6.357 -0.2757 -2.7604  2.3568
  301MOL0     H40580   7.187   9.204   6.310  0.0794 -0.3651 -0.1197
  301MOL0     H40581   7.266   9.195   6.159  2.7582  1.0266 -0.4261
  301MOL0     H40582   7.392   9.043   6.295 -1.2138 -0.4007  1.5711
  301MOL0     H40583   7.491   9.171   6.226  0.4563  0.6235  0.5739
  301MOL0     H40584   7.511   9.281   6.447  1.3567 -0.1241 -1.0412
  301MOL0     H40585   7.531   9.104   6.473 -2.0883 -1.6466  1.7730
  301MOL0     H40586   7.295   8.980   6.538 -0.3625  0.0400 -1.8509
  301MOL0     H40587   7.094   9.108   6.876  2.5189 -1.6161  0.5734
  301MOL0     H40588   6.988   9.088   6.740  0.1119  2.0489 -0.3930
  301MOL0     H40589   7.191   8.877   6.837  1.2440  1.0784 -2.4145
  301MOL0     H40590   7.105   8.860   6.689 -0.6634 -4.8947  2.0780
  301MOL0     H40591   6.979   8.726   6.809  1.0848  0.7560 -1.7257
  301MOL0     H40592   6.887   8.882   6.808 -0.2427  3.2793  2.2990
  301MOL0     H40593   6.881   8.766   7.034  0.5898 -2.6491 -0.8684
  301MOL0     H40594   7.006   8.901   7.049  1.4356 -0.2625 -0.4229
  301MOL0     H40595   6.883   8.595   7.170  0.3513 -0.8563  0.6154
  301MOL0     H40596   6.710   8.332   7.129  0.2726 -3.0442  0.9083
  301MOL0     H40597   6.831   8.273   7.248  1.2640  0.5308  1.0047
  301MOL0     H40598   6.775   8.443   7.247  1.2935  0.1760 -2.1690
  301MOL0     H40599   7.099   7.888   7.007  2.2125 -0.5495 -0.7280
  301MOL0     H40600   7.064   7.652   6.926  1.9982 -1.1963 -0.6987
  301MOL0     H40601   6.861   7.615   6.512 -1.8206  0.7877  5.2239
  301MOL0     H40602   7.036   7.592   6.523  0.1451  0.7643  1.1873
  301MOL0     H40603   7.023   7.359   6.562  2.8113  1.5453 -3.1080
  301MOL0     H40604   6.842   7.379   6.558 -0.3840  0.8857 -1.6412
  301MOL0     H40605   7.036   7.401   6.325 -0.4409  1.2534  0.6432
  301MOL0     H40606   6.882   7.469   6.319 -0.0676 -0.7744  0.3557
  301MOL0     H40607   6.925   7.180   6.405 -1.2066 -1.6549 -0.7296
  301MOL0     H40608   6.771   7.284   6.377  1.3030  0.6016  3.1755
  301MOL0     H40609   6.960   7.244   6.148 -0.9097 -0.0885 -2.1724
  301MOL0     H40610   6.790   7.285   6.154 -0.3233 -1.0435 -0.8585
  301MOL0     H40611   6.827   7.062   6.073  0.5937  0.8064  0.0562
  301MOL0     H40612   6.873   7.005   6.236  1.4411  1.3272 -0.3090
  301MOL0     H40613   6.619   7.153   6.198  2.5971  1.2954  0.1619
  301MOL0     H40614   6.656   7.036   6.325 -5.5107  2.1515 -0.9605
  301MOL0     H40615   6.506   6.927   6.171 -0.2326  0.4835  1.3089
  301MOL0     H40616   6.664   6.859   6.151 -0.8309 -0.1335  1.0896
  301MOL0     H40617   6.856   7.808   6.586 -1.6970  0.4347  0.7434
  301MOL0     H40618   6.906   8.046   6.657  1.3814 -1.4847 -3.3141
  301MOL0     H40619   7.178   8.303   6.882 -1.5816 -1.2665  0.3610
  301MOL0     H40620   7.244   8.545   6.942  1.9077 -2.4470  2.4402
  301MOL0     H40621   6.996   9.892   6.632  1.3679 -4.2738 -1.6716
  301MOL0     H40622   7.100  10.127   6.670  1.9816  1.9721  0.0687
  301MOL0     H40623   7.629  10.280   6.922 -1.1309 -2.1396 -3.8037
  301MOL0     H40624   7.724  10.507   6.976 -3.8494  0.3243  2.0517
  301MOL0     H40625   7.502  10.717   6.971  0.1414  0.7142  1.8446
  301MOL0     H40626   7.656  10.793   7.014  0.1391  0.8121 -0.3607
  301MOL0     H40627   7.461  10.882   6.820 -0.7668 -2.7013  1.8505
  301MOL0     H40628   7.602  10.982   6.860 -0.2753  0.9852  0.7224
  301MOL0     H40629   7.493  11.036   7.083 -0.3555  0.3629 -0.9586
  301MOL0     H40630   7.401  10.889   7.079 -0.2058 -0.2623  0.2915
  301MOL0     H40631   7.229  11.042   7.030 -2.3707  1.4989 -1.5932
  301MOL0     H40632   7.281  10.996   6.856  2.5063 -0.9994 -0.1384
  301MOL0     H40633   7.436  11.393   6.915  0.7798 -0.0616  1.4121
  301MOL0     H40634   7.511  10.646   6.616 -1.3807 -0.2499  0.2716
  301MOL0     H40635   7.423  10.430   6.585 -0.4549 -0.9505  1.2528
  302MOL0     O40636   3.201   3.751   3.128  0.1042  0.2651 -0.5804
  302MOL0     C40637   3.265   3.792   3.033  0.6605 -0.2994  0.5908
  302MOL0     O40638   3.253   3.741   2.904 -0.4476  0.1008 -0.7693
  302MOL0     C40639   3.203   3.616   2.875 -0.1969 -0.6270  0.2725
  302MOL0     C40640   3.181   3.594   2.746 -0.6452  0.6500  0.4245
  302MOL0     C40641   3.140   3.471   2.701  0.0302  0.2267  1.1665
  302MOL0     C40642   3.097   3.365   2.780 -1.0444 -0.2663  0.0477
  302MOL0     O40643   3.072   3.234   2.745  0.4177 -0.5925  0.1007
  302MOL0     C40644   3.114   3.197   2.608 -0.6716 -0.2158 -0.8799
  302MOL0     C40645   3.007   3.230   2.498 -0.8488  0.0044  0.7594
  302MOL0     C40646   2.866   3.202   2.546  0.0065  0.3031  1.0696
  302MOL0     C40647   2.769   3.321   2.564  0.9644  0.2275  0.2199
  302MOL0     C40648   2.718   3.407   2.450  0.1236 -0.3274  0.6060
  302MOL0     C40649   2.613   3.516   2.495 -1.0877 -0.0818 -0.2468
  302MOL0     C40650   2.552   3.598   2.383  0.6183  0.2835  0.4985
  302MOL0     C40651   2.456   3.721   2.428 -0.6385 -0.7286 -0.0683
  302MOL0     N40652   2.521   3.854   2.439 -0.1936  0.4319  0.5276
  302MOL0     C40653   2.460   3.969   2.493  0.1706  0.3722  0.6487
  302MOL0     C40654   2.538   4.067   2.436 -0.1201 -0.0235 -0.7756
  302MOL0     C40655   2.514   4.207   2.463  0.1175  0.3086  0.1670
  302MOL0     C40656   2.556   4.271   2.606  0.0064 -0.3327  1.1731
  302MOL0     C40657   2.474   4.230   2.747 -0.1508  0.2912 -0.0449
  302MOL0     C40658   2.520   4.098   2.812  0.7312  0.0748 -0.1331
  302MOL0     O40659   2.412   4.030   2.880 -0.3847 -0.3846  0.1327
  302MOL0     C40660   2.393   3.894   2.866  0.7415  0.8517  0.5909
  302MOL0     C40661   2.260   3.843   2.885 -0.3384  1.0222  0.2597
  302MOL0     C40662   2.226   3.710   2.867 -0.3568 -0.3394 -0.7266
  302MOL0     C40663   2.076   3.675   2.860  0.4007  0.6167 -0.3793
  302MOL0     C40664   2.326   3.608   2.820 -0.2099  0.1478 -0.7857
  302MOL0     C40665   2.291   3.464   2.790 -0.8324  0.5751  1.0693
  302MOL0     O40666   2.397   3.392   2.735 -0.1165  0.4153  1.4515
  302MOL0     C40667   2.375   3.261   2.704 -0.6202  0.4480 -0.1484
  302MOL0     C40668   2.307   3.220   2.588  0.8200 -0.1287 -0.0658
  302MOL0     C40669   2.299   3.089   2.544  0.0500 -0.7745 -0.1649
  302MOL0     C40670   2.346   2.985   2.609 -0.2909 -0.1020 -0.2925
  302MOL0     O40671   2.336   2.855   2.572  0.2884 -0.2913  0.5238
  302MOL0     C40672   2.212   2.803   2.521  1.5541 -0.6415  0.0726
  302MOL0     C40673   2.237   2.664   2.460 -0.4648  0.6513  0.0854
  302MOL0     C40674   2.110   2.593   2.412  0.2513  0.0811  0.0181
  302MOL0     C40675   2.036   2.658   2.285  0.8268  0.2365  0.0437
  302MOL0     C40676   1.901   2.595   2.256  0.6058 -0.0529  0.5106
  302MOL0     C40677   1.804   2.657   2.358  0.6760 -0.0934 -0.0771
  302MOL0     C40678   1.664   2.617   2.331  0.3456  0.2827 -0.1226
  302MOL0     C40679   1.570   2.733   2.280  0.7766 -0.2273  0.7811
  302MOL0    Cl40680   1.409   2.667   2.252  0.5673  0.0357  0.3651
  302MOL0     C40681   2.393   3.015   2.738 -0.2671 -0.1465  0.5806
  302MOL0     C40682   2.410   3.149   2.781  0.1881 -0.3042  0.2781
  302MOL0     O40683   2.178   3.417   2.805  0.9661 -0.7590  0.4044
  302MOL0     C40684   2.453   3.659   2.807  0.1642  0.5478 -0.8587
  302MOL0     C40685   2.494   3.794   2.829  0.2789 -0.1156 -0.0149
  302MOL0     N40686   2.635   4.015   2.354  0.0373  0.0010 -0.3423
  302MOL0     N40687   2.628   3.887   2.366  1.1509  0.2402 -0.1050
  302MOL0     C40688   3.113   3.391   2.923  0.4085 -0.1293 -0.6833
  302MOL0     C40689   3.164   3.515   2.970 -0.2966  0.3611 -0.5681
  302MOL0     C40690   3.315   3.929   3.035 -0.0789 -0.6222 -0.3039
  302MOL0     C40691   3.380   3.991   2.925 -0.5967  0.5511 -0.0391
  302MOL0     C40692   3.424   4.122   2.929  0.0499  0.9371  0.0945
  302MOL0     C40693   3.381   4.205   3.032 -0.6016 -0.0389 -0.5760
  302MOL0     O40694   3.399   4.339   3.035 -0.0767 -0.3672  0.2123
  302MOL0     C40695   3.461   4.399   2.923  0.4807  0.5083 -0.1602
  302MOL0     C40696   3.437   4.548   2.934  0.4004 -0.3777  0.6830
  302MOL0     C40697   3.293   4.600   2.938 -0.2617  0.3835 -0.6639
  302MOL0     C40698   3.286   4.736   2.992 -0.1139 -0.4374 -0.4392
  302MOL0     C40699   3.149   4.784   2.973 -0.1666 -0.8572 -0.3190
  302MOL0     C40700   3.027   4.802   2.953  0.4376  0.1275  0.4984
  302MOL0     C40701   3.316   4.139   3.141  0.5796 -0.2611 -0.2067
  302MOL0     C40702   3.278   4.008   3.146 -0.3482  0.4767 -0.5632
  302MOL0     H40703   3.188   3.674   2.672  1.1983 -0.6749 -0.9128
  302MOL0     H40704   3.133   3.469   2.592  1.3654 -2.6244  1.0098
  302MOL0     H40705   3.212   3.244   2.593 -1.1670  1.1372 -0.0865
  302MOL0     H40706   3.119   3.089   2.624  0.8306  0.2023  2.1234
  302MOL0     H40707   3.020   3.333   2.465  2.1328 -0.1158  1.3009
  302MOL0     H40708   3.025   3.175   2.404 -0.4954  0.0327  0.8099
  302MOL0     H40709   2.820   3.116   2.496 -0.1889 -0.6178  2.7522
  302MOL0     H40710   2.877   3.155   2.644  2.7690  0.5342  0.9399
  302MOL0     H40711   2.673   3.284   2.600  0.0507  2.3697  0.1383
  302MOL0     H40712   2.813   3.389   2.638 -0.2885  0.4571  0.7906
  302MOL0     H40713   2.795   3.465   2.397 -0.0065  1.3358  2.1391
  302MOL0     H40714   2.666   3.346   2.376 -0.1930  1.4524 -0.7276
  302MOL0     H40715   2.539   3.463   2.556  0.8067 -1.7236  0.7785
  302MOL0     H40716   2.663   3.583   2.565 -1.6885 -0.0623  0.1781
  302MOL0     H40717   2.627   3.639   2.315 -0.4445  0.9344 -0.3239
  302MOL0     H40718   2.475   3.539   2.330 -2.1322  2.7224  1.5023
  302MOL0     H40719   2.392   3.700   2.514 -1.6002  1.8375 -0.0902
  302MOL0     H40720   2.388   3.737   2.344 -0.4068 -0.0465 -0.1273
  302MOL0     H40721   2.378   3.972   2.564 -0.9279 -1.1550 -0.4779
  302MOL0     H40722   2.560   4.265   2.382  1.3429 -1.8456 -0.7578
  302MOL0     H40723   2.406   4.224   2.454 -0.0056 -1.2994 -2.2765
  302MOL0     H40724   2.547   4.380   2.601  1.1128 -0.2655 -0.1801
  302MOL0     H40725   2.663   4.256   2.626 -0.2301 -3.2608  0.7732
  302MOL0     H40726   2.367   4.226   2.726 -0.5808  0.4745  1.9489
  302MOL0     H40727   2.499   4.310   2.817  3.1099 -2.4286  2.2541
  302MOL0     H40728   2.603   4.121   2.879  0.1418 -0.6594  0.8600
  302MOL0     H40729   2.557   4.042   2.726 -3.7648  2.1331 -3.8796
  302MOL0     H40730   2.186   3.916   2.914 -0.7530  1.8355 -2.5135
  302MOL0     H40731   2.052   3.604   2.939  1.1940  0.3667 -0.3547
  302MOL0     H40732   2.022   3.767   2.885 -1.4087 -0.8268  1.4120
  302MOL0     H40733   2.034   3.643   2.764 -1.5241 -1.3047  1.0061
  302MOL0     H40734   2.266   3.293   2.519  0.7379 -0.1605 -0.0507
  302MOL0     H40735   2.246   3.085   2.450  1.4403 -0.6267 -0.9850
  302MOL0     H40736   2.128   2.799   2.591  0.4401 -2.6914 -1.2738
  302MOL0     H40737   2.169   2.863   2.441 -0.1515  0.2769  1.6164
  302MOL0     H40738   2.289   2.678   2.365  0.8418 -0.8008  0.5471
  302MOL0     H40739   2.285   2.600   2.534  3.5647  1.0166 -1.9493
  302MOL0     H40740   2.042   2.578   2.496 -1.8858 -0.1923 -1.6472
  302MOL0     H40741   2.136   2.493   2.375 -0.8993 -1.1150  2.2400
  302MOL0     H40742   2.016   2.765   2.297 -1.1567 -0.2230  1.3673
  302MOL0     H40743   2.109   2.637   2.206  1.0478 -2.4319  0.8655
  302MOL0     H40744   1.915   2.487   2.271  1.1308 -0.5951 -3.0495
  302MOL0     H40745   1.863   2.619   2.156 -0.5105  1.7635  1.3092
  302MOL0     H40746   1.830   2.644   2.463 -2.9464 -0.6172  0.8892
  302MOL0     H40747   1.803   2.765   2.339 -0.6486  0.3653  2.2023
  302MOL0     H40748   1.623   2.581   2.426  2.4302 -0.5359  0.5378
  302MOL0     H40749   1.666   2.532   2.262  0.1412 -0.5393  0.8662
  302MOL0     H40750   1.601   2.771   2.182 -0.2796  2.5466  1.4408
  302MOL0     H40751   1.572   2.821   2.344  0.5942  0.6256 -0.3474
  302MOL0     H40752   2.434   2.941   2.805 -1.1351  1.7858  3.4452
  302MOL0     H40753   2.459   3.162   2.877  0.4114  2.3470 -0.1338
  302MOL0     H40754   2.539   3.596   2.789  3.5540  2.7478  4.7707
  302MOL0     H40755   2.589   3.826   2.788  0.5215  1.3944  1.6091
  302MOL0     H40756   3.077   3.319   2.995 -2.5605  2.8032  1.0341
  302MOL0     H40757   3.175   3.523   3.078  0.9275 -1.2037 -0.5363
  302MOL0     H40758   3.406   3.927   2.842  2.9529  0.1078  1.2148
  302MOL0     H40759   3.474   4.168   2.845  1.5926  0.1240  0.5288
  302MOL0     H40760   3.566   4.369   2.913 -0.0611 -1.3359 -0.8091
  302MOL0     H40761   3.410   4.361   2.834  1.8540 -2.2359  0.1123
  302MOL0     H40762   3.467   4.594   2.839  0.7980 -5.5753 -2.0676
  302MOL0     H40763   3.489   4.575   3.026 -0.9674 -2.2568  2.0871
  302MOL0     H40764   3.227   4.540   3.001 -2.8178  2.0138 -1.6288
  302MOL0     H40765   3.246   4.595   2.839 -1.3744 -3.2821 -0.1143
  302MOL0     H40766   3.343   4.805   2.928  0.9532  0.4575  1.3951
  302MOL0     H40767   3.332   4.746   3.090 -0.7919  0.2956 -0.1757
  302MOL0     H40768   2.923   4.785   2.936  0.3502  0.9166  0.2134
  302MOL0     H40769   3.289   4.200   3.226 -2.9380 -1.1226 -0.5627
  302MOL0     H40770   3.228   3.977   3.237 -0.0524  1.4281 -0.0631
  303MOL0     O40771  11.007   6.497   5.290  0.4947 -0.5215 -0.3869
  303MOL0     C40772  10.936   6.430   5.360  1.1255  0.2961 -0.4280
  303MOL0     O40773  10.892   6.465   5.484 -0.4202 -0.2355  0.5485
  303MOL0     C40774  10.929   6.586   5.537 -0.5664 -0.7316 -0.3029
  303MOL0     C40775  11.024   6.601   5.632 -1.0761 -0.4205 -0.0293
  303MOL0     C40776  11.028   6.732   5.697  0.3218 -0.9854  0.1609
  303MOL0     C40777  10.949   6.839   5.657 -0.5898  0.4043 -0.5450
  303MOL0     O40778  10.952   6.956   5.726  0.9204  1.0030  0.1742
  303MOL0     C40779  11.085   7.008   5.744  0.1000  0.5126 -0.4848
  303MOL0     C40780  11.096   7.051   5.882 -0.2977 -0.3593  0.0507
  303MOL0     C40781  11.103   6.937   5.978  0.3535  0.1207 -0.6526
  303MOL0     C40782  11.152   6.972   6.116  0.1537 -0.3815  0.1545
  303MOL0     C40783  11.065   7.070   6.192  0.8907  0.6667 -0.0063
  303MOL0     C40784  11.072   7.058   6.344  0.7064  0.3951 -1.1664
  303MOL0     C40785  11.189   7.137   6.398 -0.3192  1.0733 -0.0521
  303MOL0     C40786  11.222   7.099   6.554  0.2100 -0.5171 -0.0622
  303MOL0     N40787  11.338   7.182   6.614  0.0470  0.3545 -0.2193
  303MOL0     C40788  11.394   7.297   6.564 -0.1814  0.1194 -0.4421
  303MOL0     C40789  11.513   7.303   6.628 -0.0419 -1.6295 -0.7017
  303MOL0     C40790  11.622   7.407   6.617 -0.5053 -0.2630 -0.1600
  303MOL0     C40791  11.615   7.498   6.734 -0.6833  0.1778 -0.6161
  303MOL0     C40792  11.500   7.601   6.725  0.4118 -1.3548  1.2880
  303MOL0     C40793  11.497   7.694   6.840 -0.3555 -0.8783 -0.0085
  303MOL0     O40794  11.406   7.803   6.816 -0.5968  0.5397 -0.7146
  303MOL0     C40795  11.427   7.926   6.866 -0.1827  0.9953  0.2618
  303MOL0     C40796  11.323   8.012   6.858  0.2588 -0.3341  0.1535
  303MOL0     C40797  11.317   8.143   6.909 -0.1911 -1.1539  0.4587
  303MOL0     C40798  11.194   8.230   6.890 -0.4219  0.3061 -0.5861
  303MOL0     C40799  11.436   8.192   6.971 -1.0626 -0.3713 -0.0000
  303MOL0     C40800  11.477   8.329   7.001 -0.4604  0.0196 -0.0256
  303MOL0     O40801  11.614   8.355   7.026  0.2824  0.3980 -0.0938
  303MOL0     C40802  11.626   8.474   7.102 -0.4464  1.3241  0.0675
  303MOL0     C40803  11.726   8.561   7.055 -0.1602  0.3245 -0.3561
  303MOL0     C40804  11.764   8.665   7.135  1.0612  0.9173 -0.9550
  303MOL0     C40805  11.713   8.680   7.268  0.0547  0.7060 -0.1068
  303MOL0     O40806  11.781   8.782   7.324  0.2731  0.2109 -0.8993
  303MOL0     C40807  11.761   8.814   7.463  1.3341 -0.4450 -0.3822
  303MOL0     C40808  11.880   8.820   7.547 -0.1892 -0.6274  0.1595
  303MOL0     C40809  11.851   8.853   7.694 -0.4935 -0.7537  0.0669
  303MOL0     C40810  11.991   8.861   7.765 -0.1334  0.1244 -0.3365
  303MOL0     C40811  11.974   8.873   7.922 -0.0883  0.0632  0.1068
  303MOL0     C40812  12.109   8.872   7.982 -0.0590  0.0581  0.6208
  303MOL0     C40813  12.102   8.892   8.145 -0.3471 -0.4258 -1.2501
  303MOL0     C40814  12.236   8.908   8.225 -0.0910  0.7540 -0.6185
  303MOL0    Cl40815  12.365   9.001   8.148 -0.4926  0.3245 -0.1059
  303MOL0     C40816  11.614   8.593   7.317 -0.0528  0.0441  0.3870
  303MOL0     C40817  11.569   8.490   7.232 -0.0076 -0.0537 -0.0227
  303MOL0     O40818  11.395   8.414   6.995  0.4162  0.3535  0.3014
  303MOL0     C40819  11.541   8.102   6.994  0.4124  0.1945  0.5541
  303MOL0     C40820  11.535   7.971   6.947 -0.1008 -0.4803  0.4810
  303MOL0     N40821  11.521   7.203   6.715  0.3940  0.0704 -0.4407
  303MOL0     N40822  11.415   7.132   6.715  0.2768 -0.1962  0.4061
  303MOL0     C40823  10.856   6.821   5.557  0.4442  0.0642 -0.3043
  303MOL0     C40824  10.843   6.694   5.499  0.3293 -0.0174 -0.1858
  303MOL0     C40825  10.911   6.295   5.313 -0.6456 -0.0254  0.4228
  303MOL0     C40826  10.823   6.220   5.392  0.5268  0.2218 -0.8731
  303MOL0     C40827  10.775   6.090   5.346  0.8560 -0.9215 -0.7845
  303MOL0     C40828  10.826   6.032   5.230 -0.8285 -0.0601  0.5071
  303MOL0     O40829  10.791   5.919   5.171  0.1943 -0.7415 -0.4479
  303MOL0     C40830  10.696   5.838   5.230  0.3050 -0.6880  0.3449
  303MOL0     C40831  10.759   5.747   5.335 -0.1421  0.7478  0.2202
  303MOL0     C40832  10.665   5.689   5.440  0.0125 -0.1845 -0.6546
  303MOL0     C40833  10.612   5.799   5.539 -1.2182  0.7252  0.2059
  303MOL0     C40834  10.558   5.732   5.657  0.2494  0.5546  0.1225
  303MOL0     C40835  10.510   5.664   5.739 -0.7912  0.7227  0.3385
  303MOL0     C40836  10.917   6.116   5.150 -0.4458  0.4213 -0.0753
  303MOL0     C40837  10.966   6.238   5.200 -0.0100 -0.1789  0.1429
  303MOL0     H40838  11.094   6.527   5.668  0.4683 -0.1533 -2.3136
  303MOL0     H40839  11.112   6.752   5.763  2.1055 -0.2441 -2.1869
  303MOL0     H40840  11.173   6.952   5.712  0.2868  0.1036  0.6932
  303MOL0     H40841  11.086   7.089   5.671  1.8966  0.4135 -0.6022
  303MOL0     H40842  11.191   7.105   5.880  1.1941 -2.8776 -0.3384
  303MOL0     H40843  11.010   7.118   5.895 -0.9457 -1.0511 -0.6065
  303MOL0     H40844  11.011   6.879   5.991  1.4944 -2.0858 -1.8676
  303MOL0     H40845  11.168   6.860   5.936 -3.2870 -2.1096 -2.7667
  303MOL0     H40846  11.155   6.879   6.174  2.7010  0.2823  1.2305
  303MOL0     H40847  11.254   7.012   6.111  0.8228 -1.6246  2.3784
  303MOL0     H40848  11.072   7.175   6.160  1.4364  1.5101  2.6163
  303MOL0     H40849  10.962   7.037   6.180  0.0318  2.5678  1.5007
  303MOL0     H40850  10.981   7.091   6.394  1.8403 -0.9440  2.1030
  303MOL0     H40851  11.081   6.952   6.371 -0.3045  0.5768 -0.0247
  303MOL0     H40852  11.278   7.132   6.335 -0.0670 -0.9164  0.3987
  303MOL0     H40853  11.168   7.244   6.396  0.0050  1.1520  0.5697
  303MOL0     H40854  11.252   6.994   6.567  0.4393 -0.6196 -1.2897
  303MOL0     H40855  11.137   7.127   6.616  1.5497 -1.6961  2.4516
  303MOL0     H40856  11.357   7.368   6.490 -0.6522  0.2840 -0.0523
  303MOL0     H40857  11.722   7.363   6.622 -0.2411  0.1060 -1.7044
  303MOL0     H40858  11.619   7.473   6.530  0.6931 -0.2111 -0.1845
  303MOL0     H40859  11.710   7.551   6.743 -0.5088 -0.0743 -0.9506
  303MOL0     H40860  11.604   7.435   6.824  0.1605 -2.1459 -2.0475
  303MOL0     H40861  11.400   7.557   6.719 -0.1617  0.1126 -1.4511
  303MOL0     H40862  11.504   7.651   6.628  1.7463  0.3230  2.1390
  303MOL0     H40863  11.597   7.730   6.865 -0.1369 -0.4312 -1.4671
  303MOL0     H40864  11.459   7.638   6.926 -1.3986  0.3474  0.3713
  303MOL0     H40865  11.230   7.986   6.809 -0.6115  0.3993  1.3556
  303MOL0     H40866  11.104   8.170   6.873 -0.9743 -0.2886  3.4931
  303MOL0     H40867  11.178   8.292   6.979 -2.4517  1.0444 -1.3907
  303MOL0     H40868  11.211   8.303   6.809  0.1544  3.4711  2.1552
  303MOL0     H40869  11.774   8.545   6.959 -0.4991 -1.7780 -0.2263
  303MOL0     H40870  11.843   8.733   7.105  1.8902  0.4563  0.1638
  303MOL0     H40871  11.717   8.914   7.456  0.9750 -0.7277 -3.3311
  303MOL0     H40872  11.683   8.759   7.516  0.8166 -0.0179 -0.6850
  303MOL0     H40873  11.924   8.719   7.546 -0.1280 -0.6102  0.6905
  303MOL0     H40874  11.957   8.887   7.509 -1.2700 -0.3537 -1.6561
  303MOL0     H40875  11.790   8.783   7.752 -0.2941 -1.5770 -0.6884
  303MOL0     H40876  11.809   8.953   7.694  1.9723  0.3612 -0.5859
  303MOL0     H40877  12.048   8.769   7.753  0.0257  0.4860 -2.7824
  303MOL0     H40878  12.047   8.943   7.719 -0.8993  0.1984 -1.1656
  303MOL0     H40879  11.925   8.783   7.962 -0.6491  0.6786  0.8279
  303MOL0     H40880  11.926   8.965   7.957 -1.2891  0.0055 -1.2925
  303MOL0     H40881  12.163   8.777   7.980 -1.9203 -1.0454 -2.2643
  303MOL0     H40882  12.176   8.940   7.929  2.2322 -0.5625  2.5459
  303MOL0     H40883  12.054   8.807   8.195 -0.6051  1.8545  2.7608
  303MOL0     H40884  12.043   8.983   8.154  2.5614  1.4997 -0.2754
  303MOL0     H40885  12.277   8.806   8.229  1.2795  1.3150  0.1921
  303MOL0     H40886  12.222   8.952   8.324 -5.1452  1.2063 -1.3161
  303MOL0     H40887  11.570   8.605   7.416 -0.8352 -2.0563  0.3541
  303MOL0     H40888  11.505   8.410   7.266 -1.6214  0.8629 -0.7976
  303MOL0     H40889  11.634   8.132   7.040  1.6853  0.2211 -1.8570
  303MOL0     H40890  11.617   7.902   6.964 -0.3841 -0.4569  2.1263
  303MOL0     H40891  10.792   6.907   5.542 -1.3879 -0.6383  2.7000
  303MOL0     H40892  10.765   6.672   5.427  1.8619  1.4737 -2.4532
  303MOL0     H40893  10.774   6.275   5.471  0.6135 -0.3478 -0.4142
  303MOL0     H40894  10.693   6.053   5.407 -0.8536  0.4223 -2.1491
  303MOL0     H40895  10.622   5.908   5.270  1.5853  1.9652 -1.6390
  303MOL0     H40896  10.654   5.765   5.160  0.7017 -1.6609  1.0908
  303MOL0     H40897  10.844   5.804   5.374  2.1229 -1.4972 -1.0658
  303MOL0     H40898  10.797   5.656   5.287 -1.2344  1.4794 -2.1621
  303MOL0     H40899  10.740   5.626   5.488  1.6273  1.8484 -0.3478
  303MOL0     H40900  10.587   5.624   5.400 -0.4149 -0.6302  0.8401
  303MOL0     H40901  10.534   5.861   5.493  0.0976  2.3674  0.0765
  303MOL0     H40902  10.697   5.861   5.570 -1.0760  1.2004 -1.0768
  303MOL0     H40903  10.446   5.619   5.812 -3.3557  0.6993 -1.7894
  303MOL0     H40904  10.962   6.075   5.060  2.0426 -0.9196  1.6253
  303MOL0     H40905  11.029   6.304   5.141 -1.1062 -1.5120 -2.6917
  304MOL0     O40906   5.854   6.264   9.243 -0.9504  0.2190 -0.3273
  304MOL0     C40907   5.922   6.262   9.347  0.4246 -0.4425  0.7847
  304MOL0     O40908   6.055   6.281   9.346 -0.6044  0.0241  0.1810
  304MOL0     C40909   6.126   6.315   9.231 -0.8681 -0.7886 -0.5281
  304MOL0     C40910   6.198   6.211   9.174 -0.7925  0.6042 -0.1057
  304MOL0     C40911   6.253   6.221   9.049 -0.2997 -0.3890  0.8211
  304MOL0     C40912   6.261   6.359   8.990  0.9385  0.7307  0.1777
  304MOL0     O40913   6.326   6.380   8.880  0.6087 -0.0919 -0.0781
  304MOL0     C40914   6.410   6.280   8.815  0.0283 -0.1691  0.2372
  304MOL0     C40915   6.537   6.261   8.895  0.8903  0.1928  1.6552
  304MOL0     C40916   6.663   6.255   8.812 -0.6393  0.7984  0.0996
  304MOL0     C40917   6.686   6.135   8.718 -0.1302 -0.6135  0.1049
  304MOL0     C40918   6.824   6.154   8.650 -0.4025  0.1038 -0.4166
  304MOL0     C40919   6.845   6.047   8.545  0.1153 -0.3177  0.9317
  304MOL0     C40920   6.926   6.083   8.408  0.4498 -1.1171  0.0668
  304MOL0     C40921   7.071   6.115   8.455 -0.2173 -0.2851 -0.0299
  304MOL0     N40922   7.092   6.249   8.490  0.2694  0.0072 -0.1768
  304MOL0     C40923   7.116   6.344   8.401 -1.3808 -0.7791 -0.7580
  304MOL0     C40924   7.188   6.437   8.469  0.5323 -0.1734  0.5156
  304MOL0     C40925   7.227   6.582   8.422  0.2592  0.2465 -0.2268
  304MOL0     C40926   7.380   6.609   8.427 -1.0574 -0.2818 -0.2167
  304MOL0     C40927   7.429   6.673   8.559 -0.0442 -0.4177 -0.2027
  304MOL0     C40928   7.379   6.814   8.582 -0.5275  0.4925 -0.3967
  304MOL0     O40929   7.433   6.915   8.496  0.0417  0.4840 -1.0500
  304MOL0     C40930   7.396   7.047   8.509  0.6447 -0.0091  0.1052
  304MOL0     C40931   7.400   7.136   8.401 -0.5404  0.1914  0.7067
  304MOL0     C40932   7.370   7.279   8.423  0.8449  0.6378  0.9613
  304MOL0     C40933   7.387   7.373   8.304 -0.9403  0.3920 -0.4731
  304MOL0     C40934   7.335   7.333   8.548 -0.6946  0.1453  0.9551
  304MOL0     C40935   7.303   7.472   8.573 -0.5874 -0.0959 -0.7681
  304MOL0     O40936   7.324   7.570   8.479  0.3881 -0.7675 -0.8624
  304MOL0     C40937   7.378   7.688   8.516  1.2483 -0.7347 -0.4702
  304MOL0     C40938   7.291   7.796   8.533  0.1975 -0.0236  1.1918
  304MOL0     C40939   7.333   7.926   8.547 -0.4168 -0.0711  0.2058
  304MOL0     C40940   7.469   7.950   8.561  0.0527  0.7960 -0.1075
  304MOL0     O40941   7.516   8.075   8.588 -0.3108  0.9355  0.8882
  304MOL0     C40942   7.515   8.164   8.472 -0.0972 -0.5137  1.1353
  304MOL0     C40943   7.656   8.212   8.442  0.8032  0.2588  0.1409
  304MOL0     C40944   7.709   8.301   8.546  0.7204 -0.2988  0.9419
  304MOL0     C40945   7.804   8.231   8.640  0.0442 -0.1643  1.0135
  304MOL0     C40946   7.857   8.308   8.762  0.0344 -0.4311  0.1454
  304MOL0     C40947   7.759   8.321   8.871  0.1598 -0.3822 -0.2200
  304MOL0     C40948   7.699   8.193   8.924 -0.5682  0.2520  0.1946
  304MOL0     C40949   7.593   8.216   9.045 -0.4117  0.5436 -1.1408
  304MOL0    Cl40950   7.688   8.291   9.174 -0.1624 -0.0771 -0.4265
  304MOL0     C40951   7.554   7.842   8.536  0.0563 -0.5428 -0.5620
  304MOL0     C40952   7.509   7.715   8.519  0.0661 -0.3597 -0.2714
  304MOL0     O40953   7.265   7.494   8.688  0.0518 -0.0878  0.3997
  304MOL0     C40954   7.332   7.239   8.652  0.0981  0.3359 -0.0443
  304MOL0     C40955   7.356   7.105   8.637 -0.7061  0.5292 -0.1110
  304MOL0     N40956   7.195   6.394   8.601 -0.3596  0.0017  0.5165
  304MOL0     N40957   7.157   6.271   8.605 -0.8692 -0.0698  0.5179
  304MOL0     C40958   6.212   6.472   9.055 -0.0043  0.2546 -0.6910
  304MOL0     C40959   6.146   6.444   9.178 -0.4748 -0.2548 -0.4011
  304MOL0     C40960   5.847   6.246   9.472  0.4277 -0.4467  1.2438
  304MOL0     C40961   5.707   6.214   9.469  0.4769 -0.1343 -0.7325
  304MOL0     C40962   5.638   6.199   9.592 -0.0700  0.8125  0.0558
  304MOL0     C40963   5.697   6.210   9.716 -1.0052 -0.5392  0.6340
  304MOL0     O40964   5.623   6.195   9.829 -0.1574  0.4836 -1.2252
  304MOL0     C40965   5.477   6.201   9.830 -0.6547 -0.4839 -0.0614
  304MOL0     C40966   5.445   6.356   9.847  1.1753  0.4166 -0.1309
  304MOL0     C40967   5.295   6.379   9.863  0.6544 -0.7821 -0.0084
  304MOL0     C40968   5.261   6.509   9.950  0.4333 -0.2863  0.4679
  304MOL0     C40969   5.262   6.633   9.875 -0.5380 -0.5879 -1.2295
  304MOL0     C40970   5.252   6.734   9.806 -0.2812 -0.5842 -2.1161
  304MOL0     C40971   5.833   6.249   9.716 -0.8008 -0.3271  0.8059
  304MOL0     C40972   5.911   6.268   9.600  0.5114 -0.4697 -0.1109
  304MOL0     H40973   6.179   6.117   9.223 -3.6015 -0.2341 -2.4968
  304MOL0     H40974   6.302   6.137   9.002 -0.9798 -0.4212  0.1494
  304MOL0     H40975   6.369   6.183   8.785  4.4706 -2.3296  0.3603
  304MOL0     H40976   6.433   6.322   8.717 -3.9022  1.1302 -0.3189
  304MOL0     H40977   6.552   6.348   8.959 -2.2728  0.9671  1.4683
  304MOL0     H40978   6.522   6.169   8.953 -0.8837 -0.6502 -0.0417
  304MOL0     H40979   6.670   6.349   8.755 -3.1961  1.5419  0.8744
  304MOL0     H40980   6.735   6.250   8.893  0.2219 -1.4799 -0.7363
  304MOL0     H40981   6.681   6.049   8.785 -2.5003  0.0065  0.8060
  304MOL0     H40982   6.606   6.123   8.645 -1.1552 -1.5007  1.3421
  304MOL0     H40983   6.820   6.257   8.612  0.6944  0.6213  0.7978
  304MOL0     H40984   6.907   6.145   8.720  0.5914  2.0605 -1.2681
  304MOL0     H40985   6.900   5.968   8.596 -0.2778 -0.7280  0.7271
  304MOL0     H40986   6.750   5.999   8.520  1.9009 -3.1595 -1.1514
  304MOL0     H40987   6.921   5.985   8.360 -0.3744 -1.9013  1.6972
  304MOL0     H40988   6.889   6.159   8.338 -0.3954 -1.1765  0.4443
  304MOL0     H40989   7.122   6.097   8.360 -1.8201 -0.5703 -0.8852
  304MOL0     H40990   7.097   6.055   8.542 -1.4778  1.5838  1.7166
  304MOL0     H40991   7.087   6.337   8.296 -2.8318  1.8428 -0.6133
  304MOL0     H40992   7.189   6.593   8.321 -3.9746 -0.0809  1.1263
  304MOL0     H40993   7.180   6.655   8.489  1.0812 -0.9022  1.6920
  304MOL0     H40994   7.410   6.663   8.337  1.7711 -1.0059  0.1920
  304MOL0     H40995   7.426   6.511   8.415 -4.1296 -1.6992 -1.4089
  304MOL0     H40996   7.537   6.674   8.578 -0.4452 -4.3088  3.7592
  304MOL0     H40997   7.385   6.615   8.640 -1.4173  1.5086  0.5141
  304MOL0     H40998   7.407   6.829   8.687 -0.0952 -0.5497 -0.3501
  304MOL0     H40999   7.271   6.813   8.593 -0.4778 -0.0292  0.1265
  304MOL0     H41000   7.437   7.098   8.306  0.6971  0.2480  1.1483
  304MOL0     H41001   7.446   7.317   8.231 -1.1079 -0.2510 -0.1161
  304MOL0     H41002   7.294   7.415   8.267 -0.9678  1.3375  0.6027
  304MOL0     H41003   7.453   7.458   8.327 -0.4191 -0.4457  1.2343
  304MOL0     H41004   7.186   7.769   8.530  0.1990  0.0018 -1.2034
  304MOL0     H41005   7.256   8.002   8.540  0.1665  0.7775  2.3368
  304MOL0     H41006   7.477   8.111   8.385 -2.4688 -0.7651  2.2507
  304MOL0     H41007   7.457   8.256   8.485 -1.0148 -1.2050  2.0897
  304MOL0     H41008   7.725   8.128   8.428  0.6556 -0.1753  1.8289
  304MOL0     H41009   7.660   8.274   8.352 -1.3968 -0.0995 -0.2672
  304MOL0     H41010   7.629   8.336   8.612  0.8525  0.4503  0.7152
  304MOL0     H41011   7.755   8.389   8.500  1.4466 -0.9837  0.3233
  304MOL0     H41012   7.764   8.134   8.672  0.3477 -1.3283 -1.8952
  304MOL0     H41013   7.897   8.218   8.585 -0.8214  0.5675 -0.7117
  304MOL0     H41014   7.903   8.403   8.733 -1.6291 -0.2173 -2.1136
  304MOL0     H41015   7.935   8.247   8.807  1.7133 -1.5377 -3.8265
  304MOL0     H41016   7.803   8.389   8.945  0.6739  0.1390 -0.9856
  304MOL0     H41017   7.673   8.379   8.837 -1.8892 -3.1810 -0.2165
  304MOL0     H41018   7.788   8.139   8.956 -0.5898  0.9774  1.5701
  304MOL0     H41019   7.646   8.140   8.845  1.5370 -1.1636 -0.3376
  304MOL0     H41020   7.534   8.126   9.059 -3.7004  2.6180 -0.4468
  304MOL0     H41021   7.524   8.293   9.008 -2.7325  0.0487  1.8040
  304MOL0     H41022   7.660   7.861   8.550 -0.4495  0.6475  2.3913
  304MOL0     H41023   7.586   7.645   8.490 -0.4029 -0.7223 -0.6425
  304MOL0     H41024   7.306   7.264   8.754 -2.2256 -3.5741  0.5349
  304MOL0     H41025   7.347   7.033   8.717  2.4597  1.3442  1.1226
  304MOL0     H41026   6.214   6.562   8.995 -1.3675  0.7651 -0.0016
  304MOL0     H41027   6.089   6.524   9.224 -0.4602 -0.9340  0.8498
  304MOL0     H41028   5.654   6.203   9.375 -0.1830 -2.7619 -0.1173
  304MOL0     H41029   5.531   6.178   9.582 -0.1018  0.5761  0.8187
  304MOL0     H41030   5.430   6.153   9.744  1.8572 -1.3374 -1.0247
  304MOL0     H41031   5.433   6.148   9.915  1.1188  0.7983  1.7721
  304MOL0     H41032   5.483   6.412   9.760 -1.1851  2.2590 -0.0950
  304MOL0     H41033   5.499   6.388   9.937  0.9408  1.5948 -0.3934
  304MOL0     H41034   5.244   6.292   9.906 -1.5554  1.6098  2.5941
  304MOL0     H41035   5.253   6.388   9.762 -1.4623 -0.9504  0.8033
  304MOL0     H41036   5.326   6.510  10.039  0.3973 -3.7494  0.6938
  304MOL0     H41037   5.157   6.496   9.981  0.5541  0.7728  1.4000
  304MOL0     H41038   5.247   6.834   9.767  0.9321  0.9899  1.3198
  304MOL0     H41039   5.887   6.267   9.808  0.7088  2.0532 -0.4304
  304MOL0     H41040   6.016   6.297   9.605 -0.1162  2.5374 -1.6940
  305MOL0     O41041   4.226   7.464   3.937 -0.1142 -1.1842  0.3511
  305MOL0     C41042   4.293   7.520   3.847 -0.0822 -0.1267 -0.5081
  305MOL0     O41043   4.389   7.620   3.863 -0.2167  0.5957  0.1340
  305MOL0     C41044   4.414   7.660   3.988  0.2104 -0.5289 -0.4603
  305MOL0     C41045   4.327   7.752   4.060 -0.6661  1.2834  0.6232
  305MOL0     C41046   4.353   7.772   4.192 -0.6151  0.0696  0.9939
  305MOL0     C41047   4.456   7.706   4.267 -0.6640 -0.0544  0.2811
  305MOL0     O41048   4.475   7.727   4.403 -0.5963 -0.0197  0.5784
  305MOL0     C41049   4.570   7.652   4.473 -0.7926 -0.1567 -0.5753
  305MOL0     C41050   4.577   7.705   4.619 -0.0054 -0.3750  0.8149
  305MOL0     C41051   4.685   7.624   4.695 -0.3387  0.1464 -0.2141
  305MOL0     C41052   4.692   7.660   4.843  0.7187 -0.6139  0.0594
  305MOL0     C41053   4.746   7.800   4.849 -0.2786 -0.0217 -0.1279
  305MOL0     C41054   4.786   7.853   4.984 -0.7392  0.6778  0.0783
  305MOL0     C41055   4.674   7.836   5.090  0.2529  0.1322 -0.3455
  305MOL0     C41056   4.724   7.873   5.227  0.7999 -0.2784 -0.3053
  305MOL0     N41057   4.613   7.868   5.334 -0.4558 -0.5165  0.6345
  305MOL0     C41058   4.540   7.761   5.362 -0.6052  0.2862 -0.4934
  305MOL0     C41059   4.477   7.801   5.475  0.3533  0.3045 -0.9456
  305MOL0     C41060   4.351   7.732   5.530 -1.0385 -0.0876 -0.6793
  305MOL0     C41061   4.289   7.791   5.651  0.3838  0.7313 -0.4543
  305MOL0     C41062   4.385   7.814   5.769 -1.0034  0.5479  0.1095
  305MOL0     C41063   4.301   7.848   5.898  0.6225 -0.7141  0.0434
  305MOL0     O41064   4.390   7.888   6.005  0.4265  0.1587 -0.5572
  305MOL0     C41065   4.390   7.806   6.117 -0.3419 -0.1256  0.4549
  305MOL0     C41066   4.329   7.838   6.236 -0.7045  0.2369 -0.6039
  305MOL0     C41067   4.325   7.752   6.343 -0.8100  0.5455  0.1164
  305MOL0     C41068   4.259   7.807   6.463 -0.1670  0.2868  0.0653
  305MOL0     C41069   4.405   7.634   6.337 -1.2119  0.1160 -0.6517
  305MOL0     C41070   4.425   7.547   6.462  0.8301 -0.8575 -0.4851
  305MOL0     O41071   4.348   7.565   6.572 -0.1813 -0.8948  0.3712
  305MOL0     C41072   4.377   7.511   6.691 -1.1468  1.1458 -0.0790
  305MOL0     C41073   4.409   7.581   6.803 -0.3882 -0.1574 -0.4220
  305MOL0     C41074   4.459   7.522   6.922  0.8669 -0.0976 -0.0228
  305MOL0     C41075   4.469   7.387   6.929  1.2555 -0.6655 -0.1556
  305MOL0     O41076   4.520   7.331   7.038 -1.4657  0.1487 -0.4377
  305MOL0     C41077   4.633   7.239   7.025  0.0353 -0.7845  0.8182
  305MOL0     C41078   4.641   7.166   7.154 -0.4981 -0.0441 -0.4910
  305MOL0     C41079   4.776   7.083   7.150  0.2613  0.0441  0.2496
  305MOL0     C41080   4.837   7.066   7.287  0.1337 -0.2800 -0.6638
  305MOL0     C41081   4.918   6.936   7.289  0.2520 -0.3523  0.0312
  305MOL0     C41082   4.993   6.899   7.424 -0.2315 -0.4945  0.8233
  305MOL0     C41083   5.016   6.998   7.532 -1.1811 -0.0879 -0.7509
  305MOL0     C41084   5.096   6.912   7.637 -0.0275 -0.4012  0.9216
  305MOL0    Cl41085   5.129   6.992   7.788 -0.1843  0.2189 -0.1130
  305MOL0     C41086   4.437   7.307   6.824  0.3850 -0.5430  0.7099
  305MOL0     C41087   4.387   7.368   6.709 -0.3926 -0.3153  0.2636
  305MOL0     O41088   4.502   7.456   6.446 -0.3670 -0.9024 -0.0353
  305MOL0     C41089   4.451   7.592   6.209 -0.4211 -0.0816  0.2197
  305MOL0     C41090   4.446   7.677   6.102 -0.2625 -0.6671  0.3926
  305MOL0     N41091   4.481   7.938   5.503 -0.8533  0.3553  0.6049
  305MOL0     N41092   4.567   7.972   5.411  0.2860  0.1566 -0.3720
  305MOL0     C41093   4.539   7.620   4.188  0.7209 -0.4367 -0.2335
  305MOL0     C41094   4.521   7.602   4.049  0.2609 -0.5517  0.4018
  305MOL0     C41095   4.298   7.462   3.704 -0.4028  0.0188  0.1064
  305MOL0     C41096   4.416   7.467   3.622 -0.7464 -0.7696  0.1395
  305MOL0     C41097   4.399   7.412   3.492  0.0616  0.4924  0.9256
  305MOL0     C41098   4.285   7.346   3.448 -0.3452 -0.1343  0.7625
  305MOL0     O41099   4.296   7.289   3.319 -0.0330  0.1179  0.4048
  305MOL0     C41100   4.171   7.261   3.249  0.2976  0.8189 -0.6031
  305MOL0     C41101   4.205   7.175   3.127 -0.2030 -0.3244 -0.7482
  305MOL0     C41102   4.259   7.035   3.167  0.4183  0.3185 -0.0849
  305MOL0     C41103   4.306   6.960   3.042  0.3469 -0.9238 -0.3789
  305MOL0     C41104   4.419   6.878   3.077  0.1606 -1.0489 -0.1177
  305MOL0     C41105   4.514   6.804   3.073  0.3138  0.1306 -0.5465
  305MOL0     C41106   4.174   7.334   3.527 -0.3271 -0.6885 -0.1985
  305MOL0     C41107   4.186   7.395   3.657  0.1023 -0.7187 -0.2529
  305MOL0     H41108   4.245   7.802   4.009  1.1214  3.9449  0.1445
  305MOL0     H41109   4.297   7.850   4.242  0.4710  0.4095  1.7023
  305MOL0     H41110   4.540   7.547   4.473  1.2695 -0.7903 -1.3988
  305MOL0     H41111   4.668   7.669   4.426 -1.2652  2.5951 -0.7304
  305MOL0     H41112   4.600   7.812   4.619  2.7322 -0.8983  1.6548
  305MOL0     H41113   4.488   7.693   4.682  1.7936  1.1155  3.9133
  305MOL0     H41114   4.680   7.516   4.678  3.0292  0.0935 -1.7471
  305MOL0     H41115   4.780   7.646   4.644  0.4068 -1.9002  0.2039
  305MOL0     H41116   4.593   7.660   4.888 -0.0785  1.4630 -1.5649
  305MOL0     H41117   4.760   7.588   4.891  1.5408 -1.4862 -2.2418
  305MOL0     H41118   4.838   7.806   4.791 -0.1640  1.5588  0.1530
  305MOL0     H41119   4.676   7.876   4.812 -0.5307  1.6758  3.4292
  305MOL0     H41120   4.882   7.807   5.012 -0.8171  0.3285 -0.2311
  305MOL0     H41121   4.817   7.958   4.972 -0.2749  0.2974 -2.5212
  305MOL0     H41122   4.589   7.901   5.065 -0.3569  0.5736  2.5250
  305MOL0     H41123   4.644   7.731   5.087 -0.0766  0.2231 -0.2423
  305MOL0     H41124   4.764   7.974   5.212 -1.0767  0.0930 -3.8322
  305MOL0     H41125   4.803   7.802   5.254 -0.6454 -0.9753  2.5158
  305MOL0     H41126   4.540   7.658   5.328 -0.3436 -0.3209  1.2098
  305MOL0     H41127   4.284   7.730   5.443 -0.1698  1.1409 -1.3978
  305MOL0     H41128   4.385   7.631   5.557 -0.1400 -0.4465 -2.9331
  305MOL0     H41129   4.209   7.727   5.689  1.0607  1.5382  2.5905
  305MOL0     H41130   4.246   7.886   5.618 -0.9778  0.9715  1.7688
  305MOL0     H41131   4.460   7.893   5.754 -1.0009  1.0841  2.4535
  305MOL0     H41132   4.453   7.729   5.780 -1.0111  0.2804 -1.6711
  305MOL0     H41133   4.238   7.761   5.920 -1.4308  0.4362 -1.0671
  305MOL0     H41134   4.241   7.938   5.888 -0.5081 -1.4508  0.0028
  305MOL0     H41135   4.280   7.935   6.238  0.4623  1.0059 -3.5503
  305MOL0     H41136   4.326   7.822   6.549  0.3555  0.3205 -0.3447
  305MOL0     H41137   4.210   7.897   6.426 -0.3017 -0.8755 -2.8315
  305MOL0     H41138   4.182   7.741   6.504 -0.0952 -0.7510 -1.4086
  305MOL0     H41139   4.388   7.685   6.780 -0.1144  0.3458  1.4156
  305MOL0     H41140   4.485   7.580   7.010  1.4366  1.7807 -1.3420
  305MOL0     H41141   4.618   7.165   6.946  0.4452  0.2306 -0.2532
  305MOL0     H41142   4.721   7.296   6.995 -1.8048  3.0883  2.0638
  305MOL0     H41143   4.650   7.231   7.241 -1.1933  0.5935 -0.8780
  305MOL0     H41144   4.560   7.098   7.181 -0.0822  0.1109  1.2380
  305MOL0     H41145   4.845   7.133   7.081  3.2160 -0.4681  2.6379
  305MOL0     H41146   4.744   6.989   7.103  0.1018  0.2087  0.0260
  305MOL0     H41147   4.903   7.151   7.307  1.3955 -1.2653 -0.4555
  305MOL0     H41148   4.755   7.052   7.358 -0.7040  0.7858 -1.3919
  305MOL0     H41149   5.000   6.960   7.221 -1.7047  3.2603 -1.3624
  305MOL0     H41150   4.860   6.849   7.258  0.6148 -0.0310 -1.6626
  305MOL0     H41151   4.923   6.826   7.467 -1.1241  0.0496  0.3308
  305MOL0     H41152   5.085   6.844   7.402 -0.8336 -1.7201  1.2638
  305MOL0     H41153   4.920   7.035   7.569 -2.3561 -3.5715  0.0014
  305MOL0     H41154   5.084   7.076   7.496 -1.3084 -0.4191 -1.7305
  305MOL0     H41155   5.188   6.884   7.585  1.5103  5.5566 -0.4170
  305MOL0     H41156   5.036   6.823   7.658 -1.4480  0.4155  0.4720
  305MOL0     H41157   4.439   7.199   6.823  0.7017 -0.5562 -1.2756
  305MOL0     H41158   4.360   7.303   6.626  0.0043  2.7696 -2.4721
  305MOL0     H41159   4.501   7.497   6.195  1.3119  1.0285 -1.6159
  305MOL0     H41160   4.474   7.641   6.003  1.6009  1.1925  0.1679
  305MOL0     H41161   4.613   7.559   4.238  0.1241 -0.4833  0.6110
  305MOL0     H41162   4.592   7.546   3.989  0.8990  0.3926  0.2410
  305MOL0     H41163   4.504   7.507   3.673  1.4127 -1.1723 -3.0140
  305MOL0     H41164   4.475   7.416   3.415 -0.7829 -2.8659 -0.2489
  305MOL0     H41165   4.089   7.210   3.301  1.3049  0.4498  0.6717
  305MOL0     H41166   4.135   7.361   3.226 -2.0930 -0.1348 -1.2909
  305MOL0     H41167   4.267   7.239   3.063 -2.7969  2.5842 -0.5431
  305MOL0     H41168   4.116   7.160   3.065 -0.2561 -0.2141 -0.6998
  305MOL0     H41169   4.178   6.969   3.197  1.6106 -1.3068 -0.2720
  305MOL0     H41170   4.344   7.041   3.236  0.7697  1.9537 -0.6278
  305MOL0     H41171   4.344   7.031   2.968  0.6156 -1.2205 -0.5290
  305MOL0     H41172   4.223   6.900   3.005 -0.1699  0.2750 -1.2323
  305MOL0     H41173   4.587   6.726   3.077 -0.9388 -1.0312  0.8954
  305MOL0     H41174   4.078   7.288   3.503 -2.0528  2.0127  1.0139
  305MOL0     H41175   4.101   7.381   3.724 -2.2531 -2.5295 -3.3378
  306MOL0     O41176   1.996   9.440  11.218 -0.0391  0.6697  0.1670
  306MOL0     C41177   2.066   9.389  11.122 -0.3788 -0.7057 -0.2579
  306MOL0     O41178   2.206   9.403  11.109  0.1690 -0.8657  0.0275
  306MOL0     C41179   2.285   9.486  11.186 -0.3532 -0.6406  0.4181
  306MOL0     C41180   2.429   9.476  11.167  0.9642  0.1134  0.1843
  306MOL0     C41181   2.523   9.528  11.264 -0.1864  1.0145  0.0244
  306MOL0     C41182   2.471   9.615  11.355 -0.8224 -0.2079 -0.0507
  306MOL0     O41183   2.562   9.678  11.444  0.0678 -0.2906  0.7126
  306MOL0     C41184   2.518   9.731  11.575  0.5717 -0.3576 -0.3144
  306MOL0     C41185   2.637   9.818  11.649 -0.2130  0.4880 -0.2041
  306MOL0     C41186   2.713   9.716  11.720 -0.7135  0.1309 -0.3971
  306MOL0     C41187   2.786   9.803  11.822  0.0777  0.5936 -0.0734
  306MOL0     C41188   2.877   9.718  11.905  0.5444 -0.5743 -0.4767
  306MOL0     C41189   2.991   9.658  11.828  0.3146 -0.2446 -0.7909
  306MOL0     C41190   3.089   9.591  11.922 -0.3238 -0.5527 -0.7360
  306MOL0     C41191   3.194   9.688  11.967  0.0409  1.1123  0.0163
  306MOL0     N41192   3.281   9.606  12.053 -0.1049 -0.9131 -0.1293
  306MOL0     C41193   3.240   9.528  12.160 -0.2824  0.0989 -0.8964
  306MOL0     C41194   3.346   9.452  12.192 -0.3209  0.1402  0.0493
  306MOL0     C41195   3.362   9.368  12.316  1.3862 -0.5568  0.0510
  306MOL0     C41196   3.429   9.461  12.421 -0.1993 -0.1597  0.0443
  306MOL0     C41197   3.575   9.420  12.453 -0.1021 -0.3185 -0.5702
  306MOL0     C41198   3.568   9.326  12.582  0.7022 -0.4752  0.0595
  306MOL0     O41199   3.504   9.391  12.697 -0.3698  0.2716 -0.4287
  306MOL0     C41200   3.521   9.344  12.825 -0.0263 -0.0842  0.1747
  306MOL0     C41201   3.565   9.216  12.856  0.4258  0.0250 -0.6072
  306MOL0     C41202   3.577   9.171  12.992 -0.1853  0.0870  0.3584
  306MOL0     C41203   3.626   9.026  13.019  0.5015 -0.3681  0.8058
  306MOL0     C41204   3.546   9.253  13.102  0.8733  0.4007  0.9174
  306MOL0     C41205   3.532   9.201  13.246 -0.4491  0.8220  0.2426
  306MOL0     O41206   3.610   9.250  13.357  0.1610 -0.4511 -0.7850
  306MOL0     C41207   3.577   9.206  13.486 -0.0803 -0.7856 -0.7333
  306MOL0     C41208   3.595   9.082  13.516  0.1441  0.9763 -0.5670
  306MOL0     C41209   3.586   9.038  13.647  0.7288  0.0109  0.1382
  306MOL0     C41210   3.551   9.117  13.756  0.6893 -0.4188 -0.6879
  306MOL0     O41211   3.524   9.069  13.879 -0.7800 -0.4342  0.3635
  306MOL0     C41212   3.394   9.111  13.930 -0.1025  0.1618  0.1462
  306MOL0     C41213   3.351   8.994  14.013 -0.0322 -0.0772  0.2890
  306MOL0     C41214   3.317   8.862  13.938  0.3267 -0.2089 -0.1401
  306MOL0     C41215   3.301   8.739  14.033  0.6025  0.1139  0.0800
  306MOL0     C41216   3.252   8.610  13.959 -0.6417 -0.1797 -0.6280
  306MOL0     C41217   3.368   8.560  13.860 -0.8482  0.7715  1.3162
  306MOL0     C41218   3.474   8.494  13.945  0.3588  0.6559 -0.0703
  306MOL0     C41219   3.600   8.488  13.849 -0.0833  0.0643 -0.0757
  306MOL0    Cl41220   3.669   8.646  13.836 -0.1490 -0.1333  0.6292
  306MOL0     C41221   3.544   9.254  13.714  0.7716 -0.9246  0.3647
  306MOL0     C41222   3.557   9.307  13.589 -0.1401  0.4649  0.8163
  306MOL0     O41223   3.443   9.117  13.263  0.0984 -0.2718 -0.3877
  306MOL0     C41224   3.512   9.387  13.066  0.3442  0.0411  0.6115
  306MOL0     C41225   3.505   9.433  12.935 -1.3347  0.0423  0.1825
  306MOL0     N41226   3.448   9.480  12.101 -0.7176 -0.3681 -0.3115
  306MOL0     N41227   3.406   9.569  12.020 -0.6147  0.0846  0.4190
  306MOL0     C41228   2.332   9.643  11.364 -0.5209  0.1644  0.0641
  306MOL0     C41229   2.243   9.572  11.285  0.4449 -0.2754  0.1864
  306MOL0     C41230   2.007   9.290  11.035 -0.6326  0.4088  0.0611
  306MOL0     C41231   1.866   9.273  11.028 -0.4837 -0.4989 -0.3903
  306MOL0     C41232   1.800   9.196  10.933 -0.4440  0.7851  0.4179
  306MOL0     C41233   1.879   9.115  10.852 -1.6415  0.3364  0.0094
  306MOL0     O41234   1.826   9.031  10.758 -0.3892  0.0208 -0.6000
  306MOL0     C41235   1.698   9.064  10.703 -0.0809 -0.0883  0.6596
  306MOL0     C41236   1.720   9.058  10.543  0.3392  0.5873 -0.5461
  306MOL0     C41237   1.800   9.180  10.486  0.2197  1.8336 -0.0162
  306MOL0     C41238   1.951   9.164  10.493 -0.9726 -0.9299  0.0200
  306MOL0     C41239   2.007   9.262  10.400  0.0913 -0.2082  0.2652
  306MOL0     C41240   2.036   9.358  10.339 -0.4252  0.1692  0.5681
  306MOL0     C41241   2.023   9.117  10.865  0.3446 -0.0045  0.5084
  306MOL0     C41242   2.084   9.207  10.954 -0.2267  0.1515  0.5501
  306MOL0     H41243   2.474   9.413  11.091  1.8435 -0.0735  0.8418
  306MOL0     H41244   2.627   9.510  11.237 -0.4904  2.5095 -2.4152
  306MOL0     H41245   2.433   9.799  11.562 -0.0539 -0.9427  0.6571
  306MOL0     H41246   2.477   9.669  11.655  1.0357  0.8460  0.8920
  306MOL0     H41247   2.701   9.875  11.581  1.6778  0.5069  1.4948
  306MOL0     H41248   2.593   9.890  11.718 -1.7598 -0.7841  0.2076
  306MOL0     H41249   2.657   9.640  11.774  0.3688 -0.9223 -0.7250
  306MOL0     H41250   2.779   9.667  11.648  1.0681 -0.9012  1.8409
  306MOL0     H41251   2.850   9.876  11.772 -0.4791  1.8475  0.9939
  306MOL0     H41252   2.714   9.846  11.893  0.9063 -1.6629  2.2789
  306MOL0     H41253   2.927   9.773  11.985  0.6031 -1.3118  0.0111
  306MOL0     H41254   2.819   9.647  11.965  0.3965  2.5709  3.5534
  306MOL0     H41255   2.932   9.585  11.771 -2.4833  0.6720  0.7938
  306MOL0     H41256   3.043   9.737  11.773  3.7435 -0.7421  1.4404
  306MOL0     H41257   3.032   9.558  12.010  2.2714  1.5305  1.9196
  306MOL0     H41258   3.123   9.504  11.865  3.1110  0.9579 -1.1843
  306MOL0     H41259   3.154   9.777  12.016  0.7533  0.6095  1.5812
  306MOL0     H41260   3.246   9.724  11.878  1.7477  0.4545  0.6937
  306MOL0     H41261   3.144   9.539  12.210 -0.3930  3.3536 -1.6003
  306MOL0     H41262   3.265   9.331  12.354  0.8426  0.4052 -0.3738
  306MOL0     H41263   3.419   9.276  12.301  3.3919  0.7301 -0.4507
  306MOL0     H41264   3.372   9.457  12.514 -1.9459 -3.2212 -1.0269
  306MOL0     H41265   3.438   9.565  12.387  1.4022  1.2292  4.1046
  306MOL0     H41266   3.629   9.510  12.484 -4.0089  1.7799  0.8414
  306MOL0     H41267   3.614   9.365  12.367  3.6143  0.4632  0.4442
  306MOL0     H41268   3.667   9.295  12.615  0.2303  0.3740  2.4330
  306MOL0     H41269   3.530   9.228  12.552 -0.2752  0.1326 -0.7920
  306MOL0     H41270   3.590   9.149  12.774  1.3324  0.6212 -0.8425
  306MOL0     H41271   3.694   9.009  13.102 -1.0072 -1.0327  1.9523
  306MOL0     H41272   3.540   8.967  13.053 -0.7687  1.1657  0.3731
  306MOL0     H41273   3.673   8.980  12.931  0.1357  0.3348  0.2273
  306MOL0     H41274   3.610   9.006  13.440 -1.2425  0.5707 -0.4537
  306MOL0     H41275   3.596   8.930  13.659 -1.7863 -0.6275 -2.3941
  306MOL0     H41276   3.413   9.203  13.987  2.8775 -0.6060  0.5364
  306MOL0     H41277   3.324   9.114  13.846 -0.7762 -3.2731  0.4554
  306MOL0     H41278   3.420   8.985  14.098 -0.2090  1.0512  0.5705
  306MOL0     H41279   3.258   9.015  14.067  0.3297 -1.6084  1.5793
  306MOL0     H41280   3.392   8.842  13.860  1.3113 -0.3865  0.8175
  306MOL0     H41281   3.226   8.873  13.879  1.4279  0.7046 -1.7526
  306MOL0     H41282   3.390   8.718  14.092  0.7749 -2.7478 -1.0424
  306MOL0     H41283   3.222   8.764  14.105  0.9893  0.5177  0.3730
  306MOL0     H41284   3.156   8.618  13.908 -2.0372  1.9633  2.0737
  306MOL0     H41285   3.240   8.536  14.038  1.0226 -1.5411 -1.5775
  306MOL0     H41286   3.333   8.478  13.797  0.0258  1.3096  0.0892
  306MOL0     H41287   3.396   8.645  13.797 -0.5692  0.1395  0.5718
  306MOL0     H41288   3.452   8.391  13.976 -0.5681  0.3591 -1.6604
  306MOL0     H41289   3.509   8.553  14.031  3.0852 -1.7850  0.6914
  306MOL0     H41290   3.569   8.444  13.753 -2.3773  0.2515  0.5104
  306MOL0     H41291   3.674   8.417  13.888  0.2260  1.0266  1.1408
  306MOL0     H41292   3.527   9.342  13.776 -1.8153  2.0712 -3.9738
  306MOL0     H41293   3.543   9.412  13.568 -3.6765  0.2817  1.6454
  306MOL0     H41294   3.484   9.451  13.150  0.0217  0.3949  0.2349
  306MOL0     H41295   3.475   9.533  12.904  1.3204  1.2531  1.2339
  306MOL0     H41296   2.283   9.705  11.438 -0.5218  0.8401 -0.4987
  306MOL0     H41297   2.136   9.588  11.294  0.1190 -1.0114 -2.0262
  306MOL0     H41298   1.808   9.333  11.097  1.5939  0.7809  0.3081
  306MOL0     H41299   1.692   9.192  10.928 -0.3610 -0.7089 -1.8519
  306MOL0     H41300   1.617   8.997  10.733  1.7305 -2.6841  0.1167
  306MOL0     H41301   1.683   9.172  10.717  0.7990  0.6720 -3.0655
  306MOL0     H41302   1.619   9.074  10.504  0.4511 -0.8403 -1.4840
  306MOL0     H41303   1.749   8.958  10.508  0.5914  0.6529 -0.5244
  306MOL0     H41304   1.773   9.269  10.543  0.3668  0.9242  1.5490
  306MOL0     H41305   1.776   9.190  10.380 -1.8589  1.5525  0.3834
  306MOL0     H41306   1.976   9.061  10.465  1.2475 -1.4312  3.2693
  306MOL0     H41307   1.997   9.185  10.590  3.4013  1.1257 -2.1581
  306MOL0     H41308   2.048   9.449  10.285 -2.9458  1.3379  1.8182
  306MOL0     H41309   2.078   9.059  10.792  0.1006  0.7835 -0.3139
  306MOL0     H41310   2.192   9.216  10.962  0.0355  1.3127 -2.6530
  307MOL0     O41311   2.348   4.428   8.785  0.1444  0.0265 -0.3767
  307MOL0     C41312   2.383   4.517   8.863 -0.2882 -0.2145  0.2849
  307MOL0     O41313   2.462   4.505   8.973  0.0696 -0.2121  0.4349
  307MOL0     C41314   2.518   4.388   9.001  0.4514 -0.5939  0.4712
  307MOL0     C41315   2.603   4.318   8.912 -0.2764  0.6926 -0.1769
  307MOL0     C41316   2.677   4.203   8.960 -0.3064  0.4540  0.6485
  307MOL0     C41317   2.654   4.160   9.096 -0.4156  0.3213 -1.1319
  307MOL0     O41318   2.739   4.065   9.143  0.1266 -0.3343 -0.0117
  307MOL0     C41319   2.715   3.986   9.263 -0.1288  0.6867  0.4181
  307MOL0     C41320   2.838   3.889   9.284  0.0207  0.1702  0.0499
  307MOL0     C41321   2.803   3.796   9.410  0.0399 -0.2410 -0.2264
  307MOL0     C41322   2.663   3.730   9.414 -0.0859  0.1041  0.2053
  307MOL0     C41323   2.650   3.606   9.316 -0.5941 -1.0804  0.3983
  307MOL0     C41324   2.502   3.556   9.312 -0.1678  0.4953  0.2550
  307MOL0     C41325   2.480   3.441   9.210 -0.7806  0.5742  0.3117
  307MOL0     C41326   2.517   3.318   9.278  0.0450  0.2557 -0.8300
  307MOL0     N41327   2.573   3.216   9.192  0.0763  0.8018 -0.8666
  307MOL0     C41328   2.541   3.082   9.186  1.4764 -0.0383  0.1343
  307MOL0     C41329   2.631   3.019   9.104 -0.2556  0.0062 -0.1115
  307MOL0     C41330   2.632   2.879   9.062 -1.2619  1.0109 -0.3397
  307MOL0     C41331   2.770   2.824   9.048 -0.5650  0.2193  0.3852
  307MOL0     C41332   2.771   2.690   8.974  1.0938  0.4980 -1.4308
  307MOL0     C41333   2.762   2.570   9.071 -0.0621  0.7093 -0.2822
  307MOL0     O41334   2.893   2.529   9.110  0.1825 -0.2179  0.5245
  307MOL0     C41335   2.921   2.402   9.132 -0.3954  0.3950  0.5061
  307MOL0     C41336   2.882   2.352   9.255  0.9085 -0.2358 -0.0242
  307MOL0     C41337   2.911   2.210   9.285  0.0038  1.0382  0.4392
  307MOL0     C41338   2.877   2.169   9.425  0.1872 -0.3230 -0.1051
  307MOL0     C41339   2.963   2.127   9.175  0.0532  0.7993 -0.0191
  307MOL0     C41340   3.001   1.977   9.184  1.2428 -0.0846 -0.5810
  307MOL0     O41341   3.114   1.942   9.120  0.3790 -0.1577  0.7461
  307MOL0     C41342   3.162   1.816   9.109 -0.8411 -0.6429  0.0900
  307MOL0     C41343   3.278   1.798   9.035 -0.0237 -0.4913 -0.1703
  307MOL0     C41344   3.331   1.667   9.000 -0.9366 -0.5084  0.9094
  307MOL0     C41345   3.262   1.557   9.047  0.5122 -0.2061  0.1528
  307MOL0     O41346   3.311   1.425   9.027  0.4650 -0.2692  0.4910
  307MOL0     C41347   3.347   1.348   9.145  0.2186 -0.4156  0.8959
  307MOL0     C41348   3.464   1.266   9.103  1.0240  0.6468 -0.1241
  307MOL0     C41349   3.422   1.119   9.082  0.5157  1.1632  0.3976
  307MOL0     C41350   3.537   1.040   9.016  1.2779 -0.1296  0.4426
  307MOL0     C41351   3.483   0.924   8.931  0.0735 -0.1169 -0.4692
  307MOL0     C41352   3.595   0.824   8.873  0.3493 -0.1921  0.0236
  307MOL0     C41353   3.520   0.719   8.786 -0.5467 -0.3503 -0.2318
  307MOL0     C41354   3.572   0.576   8.822 -0.0608  0.1968 -0.0023
  307MOL0    Cl41355   3.751   0.559   8.836  0.4240  0.2127 -0.5316
  307MOL0     C41356   3.143   1.569   9.112 -1.2368  0.5153 -0.7162
  307MOL0     C41357   3.097   1.700   9.144  0.0828 -0.9411  0.0873
  307MOL0     O41358   2.930   1.905   9.262 -0.4765 -0.0356 -0.2755
  307MOL0     C41359   2.992   2.179   9.046 -0.0124 -0.2331  0.5566
  307MOL0     C41360   2.974   2.321   9.031  0.3822  0.4028 -0.4077
  307MOL0     N41361   2.723   3.114   9.057 -0.3510 -0.1110 -0.3397
  307MOL0     N41362   2.683   3.227   9.107 -0.4839  0.3677  0.4381
  307MOL0     C41363   2.571   4.234   9.176 -0.1285  0.8490 -0.5387
  307MOL0     C41364   2.497   4.340   9.126  0.4016  0.4439 -0.5138
  307MOL0     C41365   2.314   4.645   8.831  0.1922 -0.8735 -0.0892
  307MOL0     C41366   2.229   4.657   8.717 -0.1866 -0.2480  0.0031
  307MOL0     C41367   2.160   4.778   8.701  0.8330 -0.0847 -0.0554
  307MOL0     C41368   2.169   4.895   8.789  0.6427 -0.5417  0.8333
  307MOL0     O41369   2.092   5.008   8.776 -0.7050 -0.5178  0.6130
  307MOL0     C41370   2.070   5.047   8.636  0.4278 -0.5772 -0.6408
  307MOL0     C41371   2.062   5.201   8.638 -0.0364 -0.2322  0.5833
  307MOL0     C41372   2.024   5.247   8.499 -0.2015 -0.0203  0.1564
  307MOL0     C41373   2.036   5.403   8.493  0.2141  0.5599  0.3050
  307MOL0     C41374   1.959   5.483   8.588  0.0520  0.2952 -1.0204
  307MOL0     C41375   1.889   5.544   8.669  0.4458  0.4897  0.1262
  307MOL0     C41376   2.271   4.875   8.891 -1.2098  1.1370  0.6212
  307MOL0     C41377   2.341   4.756   8.912 -1.3230 -0.0759  0.3538
  307MOL0     H41378   2.603   4.344   8.807 -0.4882  2.0877  0.1464
  307MOL0     H41379   2.733   4.135   8.896 -1.5616 -0.3180  0.3081
  307MOL0     H41380   2.694   4.050   9.349 -0.6911  1.2123 -0.0909
  307MOL0     H41381   2.627   3.927   9.233  0.1223  0.6800 -0.3275
  307MOL0     H41382   2.851   3.826   9.195 -2.5992 -0.6578  0.1681
  307MOL0     H41383   2.929   3.949   9.291 -0.8334  1.8904 -2.1620
  307MOL0     H41384   2.872   3.713   9.428  1.2199  0.8850  0.6008
  307MOL0     H41385   2.799   3.863   9.497 -4.5327 -1.2181  0.5472
  307MOL0     H41386   2.641   3.687   9.513 -2.0093  2.2478  0.7912
  307MOL0     H41387   2.585   3.803   9.392 -2.1949 -0.5261  4.5758
  307MOL0     H41388   2.684   3.634   9.216 -0.6259  2.7510  1.3034
  307MOL0     H41389   2.712   3.521   9.346  0.3433 -1.1414 -1.5689
  307MOL0     H41390   2.475   3.514   9.409 -0.1102  0.3475  0.2082
  307MOL0     H41391   2.426   3.631   9.290 -1.1427 -0.1010  1.4715
  307MOL0     H41392   2.376   3.452   9.181 -0.1900  0.3314 -2.1146
  307MOL0     H41393   2.536   3.461   9.118 -0.0512  4.1272  1.3740
  307MOL0     H41394   2.431   3.274   9.329  2.6966 -0.8685  3.2311
  307MOL0     H41395   2.581   3.344   9.363 -1.7706  1.7113  0.1680
  307MOL0     H41396   2.452   3.029   9.218  2.3410 -1.3619  0.4289
  307MOL0     H41397   2.584   2.821   9.142  3.0464  0.1363  1.8752
  307MOL0     H41398   2.583   2.867   8.965 -1.6935 -1.8460  0.1346
  307MOL0     H41399   2.826   2.802   9.139  1.7636 -2.3325 -1.5234
  307MOL0     H41400   2.828   2.898   8.993 -0.3987 -1.3441 -1.6436
  307MOL0     H41401   2.871   2.676   8.931  0.3803  1.4614 -3.5154
  307MOL0     H41402   2.704   2.679   8.889 -0.9890 -0.9830  0.2918
  307MOL0     H41403   2.712   2.487   9.021  0.5569 -1.0901  1.9440
  307MOL0     H41404   2.712   2.607   9.161  2.0744  1.0435  0.8432
  307MOL0     H41405   2.848   2.427   9.326 -0.0967  0.1333 -0.8702
  307MOL0     H41406   2.891   2.070   9.468 -1.0837  0.4375  2.2611
  307MOL0     H41407   2.931   2.235   9.494  1.6285 -0.3236 -1.1836
  307MOL0     H41408   2.771   2.191   9.439  0.7158  0.7258  3.6308
  307MOL0     H41409   3.323   1.894   9.011  0.7657 -1.2104 -1.7190
  307MOL0     H41410   3.435   1.658   8.969 -0.5298  1.9929  1.3581
  307MOL0     H41411   3.378   1.415   9.226 -0.8337  0.9504  0.2068
  307MOL0     H41412   3.267   1.279   9.176 -0.8405 -1.2941 -3.1322
  307MOL0     H41413   3.510   1.319   9.019 -0.0762  0.5572 -0.8123
  307MOL0     H41414   3.532   1.268   9.188  0.0589 -1.5952  0.7879
  307MOL0     H41415   3.329   1.127   9.025 -1.3173  1.6535  3.2634
  307MOL0     H41416   3.390   1.072   9.175 -3.6731 -2.2407 -2.4130
  307MOL0     H41417   3.593   1.101   8.944 -3.3040  0.2257 -3.2704
  307MOL0     H41418   3.615   1.011   9.088 -0.5304 -1.5917  1.9061
  307MOL0     H41419   3.424   0.975   8.855 -3.6269 -2.1909  0.7535
  307MOL0     H41420   3.421   0.874   9.007  2.9484 -2.3202  0.6205
  307MOL0     H41421   3.666   0.875   8.808  1.8903 -0.5174  1.3814
  307MOL0     H41422   3.648   0.772   8.954  3.5477  1.0771 -1.0975
  307MOL0     H41423   3.531   0.742   8.680 -4.8463  0.2686 -0.7219
  307MOL0     H41424   3.413   0.728   8.807  0.1488 -0.4859  4.6933
  307MOL0     H41425   3.532   0.512   8.744 -0.5585  2.3715 -1.6243
  307MOL0     H41426   3.535   0.544   8.920 -2.1265 -0.9714 -1.0873
  307MOL0     H41427   3.099   1.471   9.129  0.5172  0.1413  2.2959
  307MOL0     H41428   3.001   1.712   9.194  0.8146 -0.2390  1.3956
  307MOL0     H41429   3.042   2.124   8.967 -3.0439 -1.5284 -0.6086
  307MOL0     H41430   3.024   2.358   8.942  3.0206 -0.7598  0.4936
  307MOL0     H41431   2.563   4.214   9.283  0.2874  0.5541 -0.5598
  307MOL0     H41432   2.427   4.383   9.196  1.4599  1.9758 -0.3476
  307MOL0     H41433   2.198   4.568   8.664 -0.5453  1.3573 -2.6663
  307MOL0     H41434   2.085   4.774   8.622 -0.4473  0.8144  1.0817
  307MOL0     H41435   2.128   4.999   8.557 -3.0578 -5.2153 -0.8143
  307MOL0     H41436   1.965   5.027   8.612  0.0250  2.0467 -1.3638
  307MOL0     H41437   2.158   5.251   8.655  0.4650 -0.5262 -1.1936
  307MOL0     H41438   1.992   5.240   8.712 -0.7438  0.6938 -0.5566
  307MOL0     H41439   1.922   5.211   8.482  0.5618 -2.4504  0.3626
  307MOL0     H41440   2.088   5.208   8.419  0.8699  1.5453  0.2242
  307MOL0     H41441   1.989   5.429   8.397  0.6714 -2.0757 -0.7268
  307MOL0     H41442   2.140   5.436   8.487  1.1420 -2.2428 -0.9669
  307MOL0     H41443   1.831   5.608   8.733 -0.5445  1.1320 -1.3538
  307MOL0     H41444   2.294   4.950   8.966 -2.4634 -1.2763  3.7101
  307MOL0     H41445   2.416   4.748   8.990 -0.3397  0.9108 -0.4634
  308MOL0     O41446   8.985   2.967   1.976 -0.2511 -0.0197 -0.2036
  308MOL0     C41447   8.944   2.927   2.088  0.0393  0.2543 -0.0099
  308MOL0     O41448   8.975   2.802   2.143 -0.1306  0.7092  0.5203
  308MOL0     C41449   9.058   2.719   2.060  0.3092 -0.6965 -0.3106
  308MOL0     C41450   8.989   2.600   2.042 -0.3569 -1.4271  0.3641
  308MOL0     C41451   9.033   2.506   1.946  0.6097  0.4271 -0.3127
  308MOL0     C41452   9.157   2.522   1.890  0.6448 -0.2991  0.0087
  308MOL0     O41453   9.181   2.428   1.789 -0.7198  0.0160 -0.8222
  308MOL0     C41454   9.271   2.458   1.680  0.6785 -0.0739  0.1700
  308MOL0     C41455   9.195   2.452   1.544  0.1258  0.3015  0.6284
  308MOL0     C41456   9.306   2.415   1.437  0.7991 -0.7298  0.1759
  308MOL0     C41457   9.342   2.264   1.429  0.7357  0.5684  0.3040
  308MOL0     C41458   9.436   2.240   1.320 -0.3416 -0.2579  0.4141
  308MOL0     C41459   9.399   2.314   1.188 -0.8174 -0.7000 -0.7460
  308MOL0     C41460   9.449   2.244   1.071 -0.4362  0.1403 -0.5237
  308MOL0     C41461   9.601   2.227   1.072 -0.4259 -0.1117  0.3803
  308MOL0     N41462   9.652   2.137   0.968  0.2463 -0.2574  0.3953
  308MOL0     C41463   9.771   2.152   0.906 -1.0545  0.5022 -0.2010
  308MOL0     C41464   9.793   2.038   0.836  0.3152 -0.7664  0.4250
  308MOL0     C41465   9.917   1.997   0.764  0.4112 -1.1406  0.3014
  308MOL0     C41466   9.890   1.915   0.640  0.3071 -0.3919  0.1736
  308MOL0     C41467   9.889   1.993   0.508 -0.6257  0.1549 -0.0812
  308MOL0     C41468   9.761   2.075   0.477 -0.7084  0.9203  0.2159
  308MOL0     O41469   9.659   1.997   0.423  0.9705  0.0393 -0.1315
  308MOL0     C41470   9.567   2.054   0.341 -1.0180  0.5361 -0.1778
  308MOL0     C41471   9.475   2.142   0.396  0.3375  0.4137  0.4471
  308MOL0     C41472   9.363   2.196   0.323 -0.0924  0.2435  0.1549
  308MOL0     C41473   9.270   2.268   0.401 -0.2802 -1.0843  1.1314
  308MOL0     C41474   9.358   2.176   0.181 -0.6010  0.0901  0.3616
  308MOL0     C41475   9.260   2.226   0.081 -0.2305  0.1927 -0.5967
  308MOL0     O41476   9.197   2.339   0.107  1.4721 -0.4420 -0.4722
  308MOL0     C41477   9.145   2.416   0.005 -0.5142 -0.4788  0.4838
  308MOL0     C41478   9.179   2.410  -0.123 -0.7075  1.1794  0.2899
  308MOL0     C41479   9.128   2.497  -0.219  0.0101  0.5282 -0.7527
  308MOL0     C41480   9.040   2.600  -0.181  0.2396  0.6826  0.1800
  308MOL0     O41481   9.004   2.672  -0.296 -0.0723  0.3162 -0.1434
  308MOL0     C41482   8.885   2.757  -0.290  0.8775 -0.3053  0.3206
  308MOL0     C41483   8.893   2.869  -0.401  0.2839 -1.0117 -1.4086
  308MOL0     C41484   8.756   2.940  -0.420  0.3636  0.3136  0.1033
  308MOL0     C41485   8.764   3.049  -0.523  0.4390  0.2309 -0.6341
  308MOL0     C41486   8.636   3.124  -0.544  0.8682  0.2831 -0.6069
  308MOL0     C41487   8.641   3.241  -0.641  0.3026 -0.7731 -0.3574
  308MOL0     C41488   8.503   3.286  -0.667  0.6343  0.1864 -0.9424
  308MOL0     C41489   8.492   3.442  -0.697  0.2090  1.0578 -0.1694
  308MOL0    Cl41490   8.331   3.488  -0.784  0.0042 -0.3473 -0.1378
  308MOL0     C41491   9.004   2.619  -0.047  0.0434 -0.0820  0.4672
  308MOL0     C41492   9.056   2.524   0.044 -0.2779  0.6498 -0.0570
  308MOL0     O41493   9.244   2.153  -0.013  0.1996 -0.5668  0.5059
  308MOL0     C41494   9.460   2.088   0.127 -0.1393  1.1626  0.1164
  308MOL0     C41495   9.569   2.040   0.205  0.3655 -0.1647  0.0962
  308MOL0     N41496   9.689   1.958   0.878 -0.8427  0.8904  0.9942
  308MOL0     N41497   9.599   2.019   0.930  0.5857  0.5320  0.0154
  308MOL0     C41498   9.223   2.652   1.901 -0.3853  0.3878 -0.1218
  308MOL0     C41499   9.180   2.754   1.993 -0.1390  0.1396  0.2712
  308MOL0     C41500   8.853   3.019   2.163  1.3066  0.8674 -0.1274
  308MOL0     C41501   8.824   3.150   2.115  0.4079  0.5271  0.0330
  308MOL0     C41502   8.720   3.212   2.171 -0.1983 -0.1087  0.4245
  308MOL0     C41503   8.656   3.174   2.287  0.1673 -0.6417 -0.1912
  308MOL0     O41504   8.540   3.245   2.322  0.6719 -0.1856  0.3625
  308MOL0     C41505   8.505   3.253   2.462 -1.0334  0.9541  0.2545
  308MOL0     C41506   8.520   3.395   2.507 -0.7368  0.2949 -0.7388
  308MOL0     C41507   8.409   3.474   2.434 -0.4501  0.2926 -0.2132
  308MOL0     C41508   8.407   3.627   2.466 -0.0202 -0.5831  0.2856
  308MOL0     C41509   8.363   3.665   2.606  0.4606 -0.8138  0.3242
  308MOL0     C41510   8.308   3.688   2.710  0.1245 -0.2563  0.4527
  308MOL0     C41511   8.697   3.049   2.339 -0.1180  1.4180  0.1565
  308MOL0     C41512   8.804   2.980   2.287  0.1495 -0.0784 -0.6688
  308MOL0     H41513   8.885   2.590   2.072 -1.2328  0.0142 -1.8803
  308MOL0     H41514   8.975   2.417   1.923  2.8738 -1.4125  0.6886
  308MOL0     H41515   9.316   2.558   1.680  2.0823 -0.6282 -2.2559
  308MOL0     H41516   9.345   2.378   1.688  2.4558  1.6442  2.1272
  308MOL0     H41517   9.113   2.380   1.558  1.7261 -1.5884  0.6276
  308MOL0     H41518   9.152   2.546   1.508 -2.9103 -0.2844  2.3305
  308MOL0     H41519   9.266   2.463   1.347 -1.1700  0.8364  1.7861
  308MOL0     H41520   9.399   2.468   1.458 -0.7384  1.5571  1.7694
  308MOL0     H41521   9.376   2.221   1.524  1.8035  0.4606 -0.1222
  308MOL0     H41522   9.243   2.218   1.418  0.4808  0.8331  1.3919
  308MOL0     H41523   9.530   2.279   1.359 -0.1360  0.3958 -0.6853
  308MOL0     H41524   9.435   2.131   1.308  2.1491 -0.1369 -2.0412
  308MOL0     H41525   9.289   2.315   1.190 -0.8663 -1.4735  1.9706
  308MOL0     H41526   9.442   2.414   1.200  0.4664 -0.8898 -3.2781
  308MOL0     H41527   9.411   2.145   1.044  1.2961 -0.0787 -2.3778
  308MOL0     H41528   9.422   2.286   0.973 -0.5794 -2.2043 -1.5748
  308MOL0     H41529   9.620   2.179   1.169 -1.4961  2.0369  1.7070
  308MOL0     H41530   9.651   2.324   1.075  5.2409 -2.6510  1.8166
  308MOL0     H41531   9.847   2.229   0.908 -0.0993 -0.4046 -0.5181
  308MOL0     H41532   9.969   2.091   0.744 -2.6435  0.6290  0.0589
  308MOL0     H41533   9.974   1.939   0.837  0.9030  0.6392  1.3947
  308MOL0     H41534   9.800   1.858   0.665 -0.3287  0.5142 -0.0079
  308MOL0     H41535   9.970   1.840   0.635  1.7973  1.2289 -3.4649
  308MOL0     H41536   9.890   1.918   0.429 -1.2686 -1.3965  1.3144
  308MOL0     H41537   9.975   2.059   0.500 -0.6931  0.2233 -0.2641
  308MOL0     H41538   9.782   2.161   0.413 -0.2220  1.1358  0.6580
  308MOL0     H41539   9.737   2.120   0.574  1.5486  2.6166  0.0846
  308MOL0     H41540   9.473   2.169   0.501 -2.4161 -4.0055  1.7966
  308MOL0     H41541   9.307   2.371   0.404  0.5330 -1.2841 -0.6542
  308MOL0     H41542   9.173   2.258   0.350 -0.8059  0.0406  1.8733
  308MOL0     H41543   9.260   2.241   0.506  0.0648  0.4398  1.5866
  308MOL0     H41544   9.250   2.337  -0.160 -0.8707  0.2789  1.6621
  308MOL0     H41545   9.155   2.473  -0.321 -0.0053  0.5357 -0.7585
  308MOL0     H41546   8.804   2.684  -0.293  1.6154 -1.1182 -2.5921
  308MOL0     H41547   8.866   2.798  -0.190  2.0398  1.2445 -0.0570
  308MOL0     H41548   8.976   2.936  -0.375  0.3113 -2.3720  2.6949
  308MOL0     H41549   8.906   2.817  -0.496  2.6789 -2.3603 -0.4121
  308MOL0     H41550   8.721   2.987  -0.328  0.5746 -0.9361  0.8571
  308MOL0     H41551   8.689   2.857  -0.445  0.2611  0.2730  0.5019
  308MOL0     H41552   8.841   3.122  -0.494  1.5922 -1.4269  0.7239
  308MOL0     H41553   8.792   3.010  -0.621 -1.6252 -0.3195 -1.0406
  308MOL0     H41554   8.599   3.165  -0.450  3.2280  2.0758 -0.3807
  308MOL0     H41555   8.558   3.050  -0.565  1.2203 -1.6017  3.6180
  308MOL0     H41556   8.693   3.331  -0.604 -1.3861 -0.0360  0.3484
  308MOL0     H41557   8.687   3.216  -0.737  0.4782  1.9179 -1.0667
  308MOL0     H41558   8.434   3.251  -0.589  2.4585 -1.9552 -0.1741
  308MOL0     H41559   8.476   3.246  -0.764 -2.3116  1.2070 -0.6356
  308MOL0     H41560   8.575   3.470  -0.762 -0.8066  0.2175 -1.8958
  308MOL0     H41561   8.489   3.505  -0.608 -2.3647  1.1421 -0.2375
  308MOL0     H41562   8.934   2.697  -0.020 -1.5555 -1.0563 -0.6777
  308MOL0     H41563   9.022   2.533   0.146 -1.7066  1.0756 -0.5399
  308MOL0     H41564   9.458   2.074   0.019 -1.8274 -0.2665  0.2812
  308MOL0     H41565   9.640   1.982   0.148  2.5578  2.4473 -0.0344
  308MOL0     H41566   9.310   2.672   1.839 -0.3236 -4.3045 -1.9503
  308MOL0     H41567   9.204   2.860   2.006 -2.6367  0.6591  1.2653
  308MOL0     H41568   8.865   3.183   2.019 -1.2719  3.9195  0.3364
  308MOL0     H41569   8.689   3.304   2.124  3.1190  1.0491  0.2110
  308MOL0     H41570   8.400   3.220   2.466 -1.2575  1.4624 -0.9574
  308MOL0     H41571   8.560   3.189   2.531 -1.9080  0.5393  0.5901
  308MOL0     H41572   8.617   3.436   2.477  0.0374 -0.4576  0.6268
  308MOL0     H41573   8.506   3.396   2.616  1.3387  1.7703 -0.4189
  308MOL0     H41574   8.306   3.439   2.449 -0.8902  0.5282 -2.4225
  308MOL0     H41575   8.421   3.463   2.326 -1.0888 -1.8771 -0.1016
  308MOL0     H41576   8.330   3.671   2.403 -0.7364  0.2498  1.6908
  308MOL0     H41577   8.504   3.673   2.444  0.6016 -2.0055 -0.0984
  308MOL0     H41578   8.253   3.711   2.799  1.9599 -1.6555  2.0254
  308MOL0     H41579   8.641   3.016   2.426 -1.0055 -1.9555 -1.5502
  308MOL0     H41580   8.829   2.882   2.326 -1.2546 -0.0311  0.4300
  309MOL0     O41581   9.345   1.711   4.360  0.9033 -0.0618 -0.2039
  309MOL0     C41582   9.374   1.804   4.437  0.6170  0.8455  0.1955
  309MOL0     O41583   9.427   1.779   4.560 -0.3484  0.8285  0.6588
  309MOL0     C41584   9.442   1.650   4.605  0.3908  0.2222 -0.2813
  309MOL0     C41585   9.363   1.604   4.712  0.0809  0.7906  0.3869
  309MOL0     C41586   9.382   1.486   4.783  0.3634  0.6828  0.0792
  309MOL0     C41587   9.493   1.412   4.760  0.1302 -0.2698  0.3052
  309MOL0     O41588   9.520   1.290   4.822  0.3313 -0.3002 -0.2313
  309MOL0     C41589   9.456   1.178   4.755 -0.0286  0.1909 -0.7050
  309MOL0     C41590   9.486   1.049   4.835 -0.0437  0.4008  0.3466
  309MOL0     C41591   9.422   1.055   4.976  0.4984 -0.4698  0.1010
  309MOL0     C41592   9.457   0.937   5.057 -0.7000  0.7408  0.3734
  309MOL0     C41593   9.390   0.947   5.191  0.6199 -0.8482 -0.2370
  309MOL0     C41594   9.444   0.846   5.287 -0.0518  0.3612  0.1993
  309MOL0     C41595   9.384   0.865   5.431  1.1256 -1.4152 -0.1907
  309MOL0     C41596   9.473   0.961   5.517 -0.5694 -0.2898  0.8422
  309MOL0     N41597   9.403   1.013   5.638  0.8251  0.1967  0.5806
  309MOL0     C41598   9.277   1.065   5.655 -0.7293  0.1684  0.6585
  309MOL0     C41599   9.261   1.083   5.787  0.0550 -0.1658  0.4357
  309MOL0     C41600   9.139   1.152   5.842 -0.0763  0.7451 -0.4829
  309MOL0     C41601   9.161   1.304   5.873  0.4190  0.3916  0.3682
  309MOL0     C41602   9.211   1.334   6.020 -0.1700 -0.3566 -0.6834
  309MOL0     C41603   9.100   1.298   6.125 -0.1423  0.4730  0.0502
  309MOL0     O41604   8.977   1.351   6.093 -0.1912 -0.3650  0.1975
  309MOL0     C41605   8.871   1.277   6.137 -1.0569  0.5937  0.1178
  309MOL0     C41606   8.851   1.210   6.262  0.5341 -0.0407  0.4788
  309MOL0     C41607   8.725   1.160   6.305  0.2190 -0.7965 -0.4686
  309MOL0     C41608   8.707   1.098   6.440 -0.5079 -0.2722 -0.2321
  309MOL0     C41609   8.612   1.181   6.222 -0.1113 -0.7032  0.1406
  309MOL0     C41610   8.473   1.131   6.262 -0.3142 -0.9061  0.9276
  309MOL0     O41611   8.393   1.087   6.163 -0.5333 -0.5182 -0.9195
  309MOL0     C41612   8.296   0.993   6.189 -0.7469  0.0849 -1.0550
  309MOL0     C41613   8.280   0.916   6.309  1.6319  0.5357 -1.4600
  309MOL0     C41614   8.171   0.835   6.320  0.1439 -0.8204  0.7014
  309MOL0     C41615   8.088   0.807   6.202  0.9694 -0.2887  0.5383
  309MOL0     O41616   7.993   0.705   6.207 -0.6820  0.1636  0.1501
  309MOL0     C41617   7.934   0.646   6.094 -1.2700 -0.3962 -0.1268
  309MOL0     C41618   7.854   0.535   6.150  0.4048  0.1055  0.2937
  309MOL0     C41619   7.779   0.453   6.053  0.4395  0.7068  0.9285
  309MOL0     C41620   7.875   0.361   5.973 -0.5533 -0.3251 -0.3168
  309MOL0     C41621   7.789   0.264   5.889 -0.2983  0.4720 -0.3672
  309MOL0     C41622   7.790   0.314   5.748  0.2359  0.2324  0.1610
  309MOL0     C41623   7.669   0.255   5.673 -1.4375  0.9192 -0.6898
  309MOL0     C41624   7.687   0.247   5.518 -0.3912 -0.6539 -0.6774
  309MOL0    Cl41625   7.524   0.179   5.450  0.1348  0.0068 -0.3492
  309MOL0     C41626   8.104   0.880   6.084  0.0243  0.6975  0.2684
  309MOL0     C41627   8.208   0.974   6.077 -0.7758 -1.0656 -0.1747
  309MOL0     O41628   8.436   1.150   6.377  0.1646 -0.3176 -0.0832
  309MOL0     C41629   8.629   1.241   6.097 -0.8395 -0.7514  0.2171
  309MOL0     C41630   8.757   1.296   6.068  0.3660  0.6435  0.3898
  309MOL0     N41631   9.366   1.034   5.858  0.2148  0.4022 -0.1903
  309MOL0     N41632   9.457   0.998   5.771  0.6633 -0.0882  0.4265
  309MOL0     C41633   9.577   1.451   4.655 -0.9302  0.0823  0.4628
  309MOL0     C41634   9.554   1.562   4.571  1.6132 -0.0885 -0.6858
  309MOL0     C41635   9.356   1.951   4.398  0.7970 -0.6612 -0.6657
  309MOL0     C41636   9.268   1.998   4.293  0.2223  0.7067 -0.3717
  309MOL0     C41637   9.244   2.135   4.287 -0.2390  0.4742  0.0953
  309MOL0     C41638   9.300   2.222   4.371  0.1737  0.2856 -0.0554
  309MOL0     O41639   9.261   2.351   4.382  0.3027  0.4885 -0.0224
  309MOL0     C41640   9.167   2.416   4.303  0.1844 -0.8006 -0.3289
  309MOL0     C41641   9.023   2.365   4.343  0.3222 -0.2795 -0.2356
  309MOL0     C41642   8.977   2.407   4.479 -0.4538 -0.3637  0.3832
  309MOL0     C41643   8.852   2.318   4.517 -0.2227  0.3978  0.4285
  309MOL0     C41644   8.797   2.366   4.650  0.3775  0.0788 -0.6970
  309MOL0     C41645   8.738   2.405   4.757 -0.0590 -0.0159  0.4169
  309MOL0     C41646   9.396   2.189   4.466  0.7468  0.2487  0.5344
  309MOL0     C41647   9.416   2.049   4.481 -0.5530 -1.2660 -0.0927
  309MOL0     H41648   9.281   1.670   4.741  0.7494  2.7292 -1.8361
  309MOL0     H41649   9.314   1.455   4.861  0.1975 -2.3824 -1.1149
  309MOL0     H41650   9.349   1.200   4.749 -0.5784 -1.1517  2.2069
  309MOL0     H41651   9.498   1.164   4.655  0.9476 -0.2361 -0.2508
  309MOL0     H41652   9.459   0.961   4.776  3.1013 -0.9702  0.7626
  309MOL0     H41653   9.595   1.042   4.841  0.3850  2.1083 -2.8253
  309MOL0     H41654   9.481   1.138   5.017  1.8343 -2.6462  2.8745
  309MOL0     H41655   9.314   1.074   4.977  0.3759 -1.0414 -0.8511
  309MOL0     H41656   9.440   0.844   5.002  2.7092  1.8037 -2.8970
  309MOL0     H41657   9.564   0.958   5.062 -1.1295  3.6947 -0.8237
  309MOL0     H41658   9.409   1.046   5.234 -2.2941 -1.0194  1.7278
  309MOL0     H41659   9.282   0.946   5.177 -0.0123 -1.6365  3.6244
  309MOL0     H41660   9.410   0.746   5.258  1.1662 -0.0174  0.0543
  309MOL0     H41661   9.552   0.850   5.300  0.0602  0.4685 -0.7407
  309MOL0     H41662   9.280   0.895   5.421  0.8987 -2.4153 -1.0356
  309MOL0     H41663   9.381   0.772   5.490 -0.3102 -0.0075  2.0938
  309MOL0     H41664   9.499   1.053   5.463 -3.9450  0.9409  1.0327
  309MOL0     H41665   9.563   0.907   5.547  0.3472  0.7982  0.1182
  309MOL0     H41666   9.208   1.107   5.583 -0.8309 -1.0285  0.0248
  309MOL0     H41667   9.054   1.129   5.778 -0.7472 -1.6836  1.1264
  309MOL0     H41668   9.101   1.096   5.929 -2.0578 -0.5058 -2.0528
  309MOL0     H41669   9.069   1.361   5.854  0.5884  0.6341  0.2631
  309MOL0     H41670   9.235   1.347   5.805 -0.3898  2.8662  0.9218
  309MOL0     H41671   9.233   1.441   6.031 -3.4490  0.4044 -0.4077
  309MOL0     H41672   9.293   1.264   6.038 -0.7429 -0.4868  1.7705
  309MOL0     H41673   9.136   1.327   6.224  2.1107  1.0724 -0.8809
  309MOL0     H41674   9.080   1.191   6.121  0.2284  0.4242 -1.6508
  309MOL0     H41675   8.925   1.202   6.340 -0.1029 -5.1012  0.8539
  309MOL0     H41676   8.647   1.149   6.516 -0.0546  1.8101 -1.2027
  309MOL0     H41677   8.656   1.001   6.440 -1.8105  0.3336  2.4664
  309MOL0     H41678   8.805   1.099   6.488 -0.4909  1.8508 -0.2337
  309MOL0     H41679   8.336   0.920   6.402  2.9813  0.5012 -2.2572
  309MOL0     H41680   8.158   0.783   6.415  2.5420 -3.9649 -0.4783
  309MOL0     H41681   7.864   0.711   6.041 -1.0308 -1.3445 -1.6785
  309MOL0     H41682   8.008   0.601   6.027  0.9525  0.3180  1.7252
  309MOL0     H41683   7.915   0.476   6.218  0.2165 -0.2136  0.1874
  309MOL0     H41684   7.773   0.580   6.209  2.6026  1.8829  2.1364
  309MOL0     H41685   7.746   0.534   5.987  2.1122  1.9725  1.5611
  309MOL0     H41686   7.693   0.406   6.101 -1.2396  0.4779 -2.0953
  309MOL0     H41687   7.944   0.420   5.912  0.8612 -1.4725  0.1199
  309MOL0     H41688   7.934   0.298   6.040 -0.4962 -2.9103 -2.6301
  309MOL0     H41689   7.687   0.275   5.927  0.2708  0.4305  1.2558
  309MOL0     H41690   7.824   0.162   5.906  2.0257  0.9590 -1.8286
  309MOL0     H41691   7.797   0.423   5.744 -1.3941  0.4075  1.3331
  309MOL0     H41692   7.886   0.277   5.709  0.7303 -0.1306  1.6806
  309MOL0     H41693   7.582   0.311   5.707  0.7810  0.9056  6.9184
  309MOL0     H41694   7.657   0.152   5.709  0.9398  0.4463 -1.0337
  309MOL0     H41695   7.773   0.183   5.500  0.2915 -0.0002  0.1468
  309MOL0     H41696   7.712   0.344   5.472 -1.1693 -0.7633 -1.3669
  309MOL0     H41697   8.037   0.863   6.000  0.4397 -2.2257  0.4259
  309MOL0     H41698   8.215   1.034   5.986 -2.8134  1.5340  1.2478
  309MOL0     H41699   8.542   1.260   6.035  0.2664  1.9025 -0.7087
  309MOL0     H41700   8.771   1.358   5.980  2.3815 -0.2045  0.0491
  309MOL0     H41701   9.672   1.398   4.651 -0.8863  0.2357 -1.7890
  309MOL0     H41702   9.632   1.575   4.496  3.2307 -1.9287  0.5637
  309MOL0     H41703   9.236   1.924   4.221  2.0578 -0.5359  0.0138
  309MOL0     H41704   9.181   2.167   4.205  0.2387  0.2489 -0.3650
  309MOL0     H41705   9.176   2.524   4.318 -2.5506 -0.5655  0.1535
  309MOL0     H41706   9.182   2.393   4.197  2.0279  1.1604 -0.5569
  309MOL0     H41707   9.032   2.258   4.324  3.9476 -0.2103  0.4601
  309MOL0     H41708   8.962   2.413   4.266  2.1496  4.0533  0.6808
  309MOL0     H41709   8.954   2.514   4.473  3.2790  0.7280  2.0444
  309MOL0     H41710   9.051   2.377   4.555  0.3789 -1.5552 -0.8500
  309MOL0     H41711   8.886   2.216   4.535 -1.9791 -0.3998 -0.5766
  309MOL0     H41712   8.769   2.311   4.446 -0.2189  1.4163  0.3011
  309MOL0     H41713   8.704   2.436   4.854  1.1458  0.0382  0.8408
  309MOL0     H41714   9.437   2.270   4.526 -1.7434  3.0311 -1.2136
  309MOL0     H41715   9.495   2.015   4.548  2.6032  0.1235 -2.8087
  310MOL0     O41716   4.341   1.018   2.222 -0.5363 -0.0209  0.1231
  310MOL0     C41717   4.457   0.992   2.231  0.3740 -0.0251 -0.0473
  310MOL0     O41718   4.554   1.026   2.141 -1.0006 -0.1102 -0.8584
  310MOL0     C41719   4.499   1.068   2.026 -0.6069 -0.0779 -0.2465
  310MOL0     C41720   4.471   0.968   1.931 -0.1047  0.4647 -0.1389
  310MOL0     C41721   4.412   1.006   1.812  0.2499 -0.2044  0.2603
  310MOL0     C41722   4.402   1.135   1.772 -0.7244  0.9513 -0.4007
  310MOL0     O41723   4.330   1.150   1.659 -0.6737  1.4283  0.1034
  310MOL0     C41724   4.396   1.224   1.560  0.5059 -0.6017  0.4764
  310MOL0     C41725   4.317   1.212   1.432  1.2790  0.0136  0.7609
  310MOL0     C41726   4.372   1.307   1.326  0.8093 -0.3662 -0.0090
  310MOL0     C41727   4.293   1.306   1.195  0.4644  0.2409 -1.0824
  310MOL0     C41728   4.313   1.444   1.118 -1.0804  1.0424 -0.0566
  310MOL0     C41729   4.469   1.475   1.099  0.4044  0.0387 -0.6066
  310MOL0     C41730   4.534   1.394   0.992  0.5054  0.0666 -0.5576
  310MOL0     C41731   4.672   1.427   0.940 -0.0058  0.0213 -0.5532
  310MOL0     N41732   4.764   1.434   1.051 -0.5593 -0.3872  0.2404
  310MOL0     C41733   4.783   1.539   1.127 -0.0881  0.5003 -0.2920
  310MOL0     C41734   4.855   1.488   1.235 -0.5764 -0.1979  0.1247
  310MOL0     C41735   4.911   1.576   1.348  0.4067 -0.4002  0.3449
  310MOL0     C41736   5.025   1.511   1.432  0.5563  0.9138  0.1894
  310MOL0     C41737   5.146   1.484   1.341 -0.1408 -0.0404 -0.0892
  310MOL0     C41738   5.269   1.422   1.410 -0.8437  0.1131 -0.6498
  310MOL0     O41739   5.341   1.493   1.507  1.0366  0.3464 -0.4287
  310MOL0     C41740   5.405   1.620   1.476 -0.3393 -0.0610 -0.5743
  310MOL0     C41741   5.422   1.719   1.576  0.1761 -0.7887 -0.0120
  310MOL0     C41742   5.487   1.840   1.548  0.1723 -0.6133 -0.1192
  310MOL0     C41743   5.466   1.948   1.648  0.6174 -0.7338  0.3265
  310MOL0     C41744   5.536   1.872   1.428  0.4835 -0.1145 -0.2436
  310MOL0     C41745   5.613   2.001   1.398 -0.1347 -0.7407 -0.6233
  310MOL0     O41746   5.592   2.049   1.272 -0.4490 -0.2493 -0.3231
  310MOL0     C41747   5.639   2.172   1.227  0.4451  1.0855  0.5104
  310MOL0     C41748   5.647   2.190   1.089  0.6439 -0.6521 -0.0342
  310MOL0     C41749   5.680   2.317   1.041 -0.0316 -1.4624  0.2613
  310MOL0     C41750   5.730   2.424   1.124  0.1592 -0.7077 -0.0264
  310MOL0     O41751   5.775   2.544   1.072 -0.1624 -0.0607 -1.0165
  310MOL0     C41752   5.724   2.604   0.952 -0.1361 -0.4608 -0.6307
  310MOL0     C41753   5.579   2.629   0.958 -0.4206  0.2011  0.7021
  310MOL0     C41754   5.554   2.744   1.047  0.4263  0.2438 -0.4476
  310MOL0     C41755   5.407   2.764   1.054 -0.4427  0.5511  0.7226
  310MOL0     C41756   5.389   2.890   1.148  0.1950  1.2072 -0.0357
  310MOL0     C41757   5.243   2.960   1.150 -0.0974  0.2591 -0.8701
  310MOL0     C41758   5.224   3.013   1.002  0.6573 -0.3859 -0.6463
  310MOL0     C41759   5.107   3.110   0.982  0.8206  0.3555  0.2867
  310MOL0    Cl41760   5.118   3.189   0.819 -0.1928  0.0824  0.0247
  310MOL0     C41761   5.724   2.395   1.259  0.3699  0.4018 -0.5830
  310MOL0     C41762   5.667   2.280   1.309 -0.3262 -0.0345 -0.5758
  310MOL0     O41763   5.695   2.040   1.474 -0.7274  0.1849 -0.2460
  310MOL0     C41764   5.533   1.775   1.327 -0.3781 -0.2376 -0.6979
  310MOL0     C41765   5.463   1.654   1.352 -1.3032  0.3457  1.2491
  310MOL0     N41766   4.864   1.349   1.221  0.6917  0.4515  0.1387
  310MOL0     N41767   4.800   1.314   1.106 -0.2719 -0.0542 -0.7611
  310MOL0     C41768   4.442   1.234   1.860 -0.0067 -0.3673  0.5764
  310MOL0     C41769   4.490   1.204   1.994  0.5126 -0.2057  1.4286
  310MOL0     C41770   4.499   0.923   2.359 -0.6484 -0.3810  0.0987
  310MOL0     C41771   4.626   0.944   2.419 -0.8865  1.2794 -0.0505
  310MOL0     C41772   4.659   0.867   2.534 -0.8538  0.6391  0.4993
  310MOL0     C41773   4.570   0.794   2.604  0.1429 -0.1794  0.6345
  310MOL0     O41774   4.625   0.751   2.719  0.1398  0.4097  0.6590
  310MOL0     C41775   4.533   0.663   2.795 -0.3190 -0.4756 -0.0973
  310MOL0     C41776   4.466   0.749   2.909 -0.8521  1.0448  0.9543
  310MOL0     C41777   4.391   0.645   2.996 -0.6539  0.3109 -0.1764
  310MOL0     C41778   4.273   0.572   2.935  0.7780 -0.3906 -0.1824
  310MOL0     C41779   4.182   0.662   2.872 -0.0641 -0.7127 -0.1536
  310MOL0     C41780   4.114   0.738   2.805 -1.1747 -0.2969  0.2925
  310MOL0     C41781   4.439   0.800   2.564  0.6748 -0.0416  0.1799
  310MOL0     C41782   4.401   0.855   2.443 -0.5452  0.4328  0.1114
  310MOL0     H41783   4.490   0.865   1.958  0.2298  0.2352 -1.2152
  310MOL0     H41784   4.389   0.929   1.739  0.5805 -1.0739  1.0602
  310MOL0     H41785   4.398   1.326   1.600 -0.7825 -1.2150  2.2206
  310MOL0     H41786   4.500   1.198   1.537  1.0465  1.3537  0.4911
  310MOL0     H41787   4.319   1.105   1.409 -0.2969  0.3082 -1.1053
  310MOL0     H41788   4.208   1.224   1.437  1.0412 -0.2430 -2.0204
  310MOL0     H41789   4.378   1.409   1.364  2.2662 -0.2282 -0.5553
  310MOL0     H41790   4.473   1.271   1.306  0.8022 -0.0914 -0.5614
  310MOL0     H41791   4.331   1.224   1.134  1.2663 -0.4237  0.2457
  310MOL0     H41792   4.188   1.283   1.218  0.8456 -0.1210  0.4352
  310MOL0     H41793   4.274   1.424   1.018  3.7482 -0.4613 -1.9696
  310MOL0     H41794   4.260   1.520   1.176 -2.7139  2.4599 -3.2174
  310MOL0     H41795   4.479   1.579   1.066  2.1740  1.8103  4.6041
  310MOL0     H41796   4.531   1.474   1.189 -0.0993  1.8103 -0.1953
  310MOL0     H41797   4.541   1.289   1.020  0.0446  0.0035 -0.6637
  310MOL0     H41798   4.464   1.394   0.908 -2.3221 -0.0352  1.6372
  310MOL0     H41799   4.646   1.520   0.888 -2.1107  0.9538  1.9653
  310MOL0     H41800   4.712   1.355   0.867  2.8097  0.6403  0.2510
  310MOL0     H41801   4.760   1.642   1.105 -1.8875 -0.1371 -1.6672
  310MOL0     H41802   4.960   1.656   1.290 -0.7984 -1.3586 -2.1444
  310MOL0     H41803   4.831   1.621   1.407 -0.0047  0.0228 -0.5224
  310MOL0     H41804   4.977   1.421   1.472  0.5945 -0.2890 -2.2555
  310MOL0     H41805   5.059   1.558   1.524  3.0879 -1.7623  0.7808
  310MOL0     H41806   5.170   1.587   1.312  2.2036  0.2108  2.3777
  310MOL0     H41807   5.117   1.428   1.251 -0.0363  0.7525 -0.6248
  310MOL0     H41808   5.328   1.385   1.325  0.4083 -0.7784  0.5488
  310MOL0     H41809   5.234   1.337   1.468 -1.4355 -0.6915 -2.1518
  310MOL0     H41810   5.396   1.683   1.675  0.1701 -1.9324 -0.4127
  310MOL0     H41811   5.381   1.930   1.714  0.6065 -1.7011  0.0666
  310MOL0     H41812   5.559   1.937   1.704 -0.3111  2.0777  2.6471
  310MOL0     H41813   5.464   2.051   1.612 -0.4504  0.0506  2.5049
  310MOL0     H41814   5.637   2.102   1.025 -2.9699  0.7172 -1.6740
  310MOL0     H41815   5.691   2.337   0.935 -1.4452 -1.4161  0.1101
  310MOL0     H41816   5.780   2.693   0.922 -0.1288 -1.5758 -4.4514
  310MOL0     H41817   5.740   2.536   0.868 -1.6844 -0.7735 -0.6980
  310MOL0     H41818   5.532   2.650   0.862  0.0798  1.1468  0.6570
  310MOL0     H41819   5.530   2.537   0.993 -2.2559  1.0387  0.4678
  310MOL0     H41820   5.607   2.822   0.992  0.1182  0.3494 -0.6018
  310MOL0     H41821   5.596   2.733   1.147 -0.7846 -1.5172 -0.0815
  310MOL0     H41822   5.367   2.774   0.952  1.3690 -2.7772 -0.4632
  310MOL0     H41823   5.371   2.671   1.098  3.8928 -0.7841  1.8893
  310MOL0     H41824   5.446   2.972   1.103 -0.3596  1.4858 -0.2342
  310MOL0     H41825   5.422   2.886   1.253  4.8467  0.6888 -1.2583
  310MOL0     H41826   5.166   2.889   1.180 -0.2589  0.1024 -1.6236
  310MOL0     H41827   5.245   3.046   1.218 -1.4173 -1.2526  1.2042
  310MOL0     H41828   5.220   2.930   0.931 -2.0492  0.3885 -1.5437
  310MOL0     H41829   5.307   3.081   0.981  1.2674  0.0500  2.6213
  310MOL0     H41830   5.091   3.183   1.061 -1.9778  0.9568 -0.7155
  310MOL0     H41831   5.020   3.044   0.987  1.0367  0.1851  2.5506
  310MOL0     H41832   5.772   2.467   1.325  1.6155  0.5921 -1.6516
  310MOL0     H41833   5.662   2.263   1.417 -1.1984  1.1329 -0.4222
  310MOL0     H41834   5.574   1.810   1.232  1.8180  0.2705  0.3808
  310MOL0     H41835   5.455   1.568   1.287  0.0375 -2.1798  4.1952
  310MOL0     H41836   4.431   1.335   1.823  0.9735 -0.7752 -0.9264
  310MOL0     H41837   4.514   1.278   2.069 -0.3012  0.3152  1.1912
  310MOL0     H41838   4.700   1.016   2.384  0.4560  1.0992  2.2216
  310MOL0     H41839   4.759   0.864   2.576 -1.1286 -2.2081  1.2044
  310MOL0     H41840   4.469   0.610   2.724 -0.5728  2.2993 -2.1037
  310MOL0     H41841   4.594   0.582   2.836  0.2310  0.6428  1.3717
  310MOL0     H41842   4.389   0.817   2.871 -1.6629  0.5058  1.6054
  310MOL0     H41843   4.524   0.812   2.978  0.0691  0.8464  0.3792
  310MOL0     H41844   4.347   0.695   3.083 -0.2464  1.6134 -0.7088
  310MOL0     H41845   4.457   0.569   3.039  0.9285 -0.1438 -3.1916
  310MOL0     H41846   4.220   0.518   3.014  2.3731 -0.2111  1.0615
  310MOL0     H41847   4.314   0.492   2.872 -0.2870 -0.7245 -0.4705
  310MOL0     H41848   4.047   0.807   2.759  0.1418  0.4560 -0.5537
  310MOL0     H41849   4.356   0.756   2.618  0.6290  0.7390  0.7673
  310MOL0     H41850   4.308   0.842   2.388 -0.1914  0.3749 -0.4848
  311MOL0     O41851   1.684   7.071   5.276 -0.3159  0.0819  0.0113
  311MOL0     C41852   1.730   6.963   5.306  0.0011  1.3854 -0.1310
  311MOL0     O41853   1.652   6.840   5.301 -0.6409 -1.3481  0.4655
  311MOL0     C41854   1.548   6.834   5.221 -0.4852  0.3428  0.5474
  311MOL0     C41855   1.478   6.931   5.148 -0.2290  0.6788 -0.1132
  311MOL0     C41856   1.367   6.899   5.074  0.0300  0.2024  0.3421
  311MOL0     C41857   1.318   6.770   5.074  0.2902  0.6228  0.8493
  311MOL0     O41858   1.216   6.736   5.000 -0.2261  0.6154 -0.0974
  311MOL0     C41859   1.248   6.764   4.859 -0.6146  0.5531  0.0257
  311MOL0     C41860   1.137   6.709   4.770 -0.2867 -0.0678 -0.3063
  311MOL0     C41861   1.137   6.560   4.751 -0.2982  1.1467  0.3832
  311MOL0     C41862   1.081   6.484   4.873 -0.0799  0.1926 -0.2298
  311MOL0     C41863   1.100   6.334   4.871 -0.4324  0.4183 -0.2691
  311MOL0     C41864   1.243   6.290   4.863  0.1266 -1.1223  0.7477
  311MOL0     C41865   1.259   6.141   4.888 -0.0780  0.0088 -0.3908
  311MOL0     C41866   1.402   6.087   4.880  0.3341  0.7985 -0.1006
  311MOL0     N41867   1.403   5.942   4.846  0.6002 -0.2124  0.3375
  311MOL0     C41868   1.360   5.880   4.731 -0.5182  0.7546 -0.1159
  311MOL0     C41869   1.427   5.764   4.718 -0.5575 -0.5604 -0.6834
  311MOL0     C41870   1.432   5.666   4.599  0.0982  0.1178  0.1214
  311MOL0     C41871   1.534   5.701   4.488  0.0707 -0.4885 -1.0500
  311MOL0     C41872   1.543   5.587   4.382  0.6724 -0.8639  0.1256
  311MOL0     C41873   1.560   5.443   4.444  0.8901 -0.7303 -0.5645
  311MOL0     O41874   1.581   5.358   4.325 -0.9306  0.0260  0.8383
  311MOL0     C41875   1.623   5.229   4.333  0.8968 -0.7435 -0.0795
  311MOL0     C41876   1.615   5.148   4.446 -0.1566 -0.9726 -0.3426
  311MOL0     C41877   1.675   5.021   4.448 -0.1684  0.7570  0.0258
  311MOL0     C41878   1.627   4.933   4.552  0.1127  0.3105  0.8085
  311MOL0     C41879   1.734   4.978   4.324 -0.1391  0.5131 -0.3062
  311MOL0     C41880   1.769   4.839   4.314  0.9970  0.5042  0.2647
  311MOL0     O41881   1.744   4.792   4.191  1.0119 -0.0376  0.4680
  311MOL0     C41882   1.802   4.679   4.146 -0.3317 -1.0269  0.0135
  311MOL0     C41883   1.726   4.579   4.090  0.2588 -0.8393 -0.5633
  311MOL0     C41884   1.766   4.452   4.058  0.3058  0.3083 -0.5608
  311MOL0     C41885   1.899   4.411   4.094  0.2868  0.1709  0.6411
  311MOL0     O41886   1.946   4.280   4.086 -0.1368  0.4902  0.1939
  311MOL0     C41887   1.863   4.184   4.010  0.0242  0.1874 -0.6908
  311MOL0     C41888   1.928   4.054   3.985  0.8360 -0.0818  1.0373
  311MOL0     C41889   2.055   4.078   3.903 -0.0512  0.1394  0.8263
  311MOL0     C41890   2.186   4.121   3.974 -0.0255 -0.0107 -0.1673
  311MOL0     C41891   2.322   4.102   3.906  0.7683  0.1793  0.2875
  311MOL0     C41892   2.378   4.230   3.852  0.6278  0.0245 -0.5722
  311MOL0     C41893   2.432   4.332   3.966  0.0826  0.0252  0.0470
  311MOL0     C41894   2.575   4.289   3.997  0.3700 -0.1874 -0.4945
  311MOL0    Cl41895   2.643   4.403   4.102 -0.0105 -0.2117  0.4530
  311MOL0     C41896   1.983   4.511   4.144  0.5630  0.5575 -0.3488
  311MOL0     C41897   1.935   4.637   4.175  0.3155  0.3033  0.0553
  311MOL0     O41898   1.833   4.776   4.406  0.3031 -0.3638  0.6690
  311MOL0     C41899   1.755   5.058   4.213 -0.8181 -0.6421  0.1128
  311MOL0     C41900   1.693   5.185   4.217  0.0040 -0.8417  0.0419
  311MOL0     N41901   1.523   5.760   4.831 -0.2363  0.1782  0.7120
  311MOL0     N41902   1.493   5.863   4.907  0.1799 -0.0614  0.5040
  311MOL0     C41903   1.392   6.666   5.129  0.5139  0.1830 -0.1375
  311MOL0     C41904   1.507   6.698   5.195  0.4306 -0.1815 -0.2737
  311MOL0     C41905   1.867   6.947   5.375  0.1896  0.0426  0.2647
  311MOL0     C41906   1.942   7.066   5.410 -1.4560  0.1364  0.1219
  311MOL0     C41907   2.073   7.054   5.470 -0.0511 -0.2284  0.1329
  311MOL0     C41908   2.139   6.922   5.497 -0.5547 -1.3208 -0.1051
  311MOL0     O41909   2.258   6.904   5.555 -0.5940  0.9507 -1.1457
  311MOL0     C41910   2.324   7.016   5.623  0.3164  0.9602  1.0042
  311MOL0     C41911   2.270   7.060   5.752  0.4441  0.6713 -0.1078
  311MOL0     C41912   2.306   6.948   5.864  1.1093 -0.9944 -0.6109
  311MOL0     C41913   2.444   6.952   5.919 -0.3679 -0.8921  0.3040
  311MOL0     C41914   2.462   6.869   6.039 -0.3651  0.2519  0.6189
  311MOL0     C41915   2.470   6.782   6.117 -0.8772 -0.2236  0.3938
  311MOL0     C41916   2.066   6.818   5.456  0.7786  0.1503 -0.0979
  311MOL0     C41917   1.934   6.829   5.393  0.1928  0.2960 -0.7658
  311MOL0     H41918   1.514   7.033   5.138  0.7102  0.2992 -0.7789
  311MOL0     H41919   1.328   6.981   5.013  3.5096  0.1221 -2.2808
  311MOL0     H41920   1.250   6.872   4.843 -0.9925  0.9140  2.1173
  311MOL0     H41921   1.340   6.723   4.817 -0.7405 -0.6509  0.8775
  311MOL0     H41922   1.041   6.746   4.808  0.1480  2.5554 -1.5483
  311MOL0     H41923   1.152   6.760   4.674  1.1766  4.1924  1.9190
  311MOL0     H41924   1.077   6.538   4.663  1.6280 -0.6314 -0.5638
  311MOL0     H41925   1.243   6.534   4.743  0.1452  3.2997 -1.8420
  311MOL0     H41926   1.135   6.514   4.963 -0.0945  0.6566 -0.3743
  311MOL0     H41927   0.975   6.505   4.892  0.0330  1.0888 -0.5369
  311MOL0     H41928   1.042   6.290   4.952  0.0160  0.6679  0.1919
  311MOL0     H41929   1.057   6.298   4.777 -0.1556  1.0200 -0.6362
  311MOL0     H41930   1.293   6.314   4.768  0.7849  1.3338  1.6353
  311MOL0     H41931   1.314   6.336   4.933  2.5580 -2.1724 -0.9090
  311MOL0     H41932   1.232   6.120   4.992  1.2082 -0.3832 -0.1203
  311MOL0     H41933   1.194   6.089   4.816 -0.7486 -0.3785  0.4778
  311MOL0     H41934   1.442   6.088   4.982 -1.7076 -0.5847  0.7844
  311MOL0     H41935   1.466   6.149   4.816  0.1020  2.3081  1.0619
  311MOL0     H41936   1.288   5.921   4.660  0.0986  0.7026 -0.7809
  311MOL0     H41937   1.472   5.580   4.654  0.7407  1.4505  1.8418
  311MOL0     H41938   1.333   5.636   4.562 -1.1586 -0.1708  3.3215
  311MOL0     H41939   1.632   5.719   4.534  1.0381  0.3169 -3.2862
  311MOL0     H41940   1.507   5.796   4.440  0.6617 -0.3446 -1.1022
  311MOL0     H41941   1.624   5.615   4.314 -1.0541  2.6484 -0.7563
  311MOL0     H41942   1.458   5.590   4.313  1.2629 -0.1615 -0.6027
  311MOL0     H41943   1.470   5.408   4.497 -1.2989  4.4769 -0.1553
  311MOL0     H41944   1.649   5.443   4.507  0.8843  1.0917 -0.4964
  311MOL0     H41945   1.557   5.179   4.533 -0.5900 -0.2781 -0.8694
  311MOL0     H41946   1.525   4.951   4.587 -0.2301  1.6277 -0.7365
  311MOL0     H41947   1.629   4.830   4.515  2.8329  0.3734  0.5413
  311MOL0     H41948   1.692   4.944   4.639 -0.7169  3.1941  1.1645
  311MOL0     H41949   1.620   4.601   4.077  0.1799  3.5248  4.1882
  311MOL0     H41950   1.692   4.380   4.022 -1.9992  0.8128  2.6836
  311MOL0     H41951   1.776   4.161   4.072  0.6276 -1.7141 -0.4940
  311MOL0     H41952   1.832   4.229   3.915 -3.3297 -0.4890 -0.0460
  311MOL0     H41953   1.957   4.006   4.079 -0.4826 -0.0019  1.4948
  311MOL0     H41954   1.855   3.994   3.929 -0.1844  0.8856  1.3033
  311MOL0     H41955   2.030   4.145   3.820 -1.8202  1.6231  2.4366
  311MOL0     H41956   2.074   3.986   3.847 -0.5512  0.3181  0.3532
  311MOL0     H41957   2.179   4.229   3.993 -1.3095  0.3017 -2.1278
  311MOL0     H41958   2.199   4.070   4.070  1.0972  0.6430  0.0466
  311MOL0     H41959   2.315   4.036   3.819  0.6194 -0.3487  0.7004
  311MOL0     H41960   2.400   4.066   3.973  0.8653  0.9902  0.6276
  311MOL0     H41961   2.453   4.208   3.775 -2.6217 -1.7442 -3.5285
  311MOL0     H41962   2.298   4.273   3.791  1.5198  1.3779 -0.8271
  311MOL0     H41963   2.368   4.338   4.054  2.8135 -2.1415  2.3966
  311MOL0     H41964   2.446   4.423   3.907 -0.6327  0.5916  0.7420
  311MOL0     H41965   2.632   4.271   3.905  0.5804 -0.2990 -0.3420
  311MOL0     H41966   2.574   4.203   4.064  0.4028 -0.3551 -0.7065
  311MOL0     H41967   2.079   4.493   4.191 -0.6808  0.5955  2.4168
  311MOL0     H41968   1.988   4.714   4.230 -0.8438  1.8868 -0.9475
  311MOL0     H41969   1.809   5.037   4.121 -0.5824 -0.2870  0.1690
  311MOL0     H41970   1.700   5.257   4.137  0.1700 -0.5717  0.2998
  311MOL0     H41971   1.360   6.562   5.124  0.2226  0.3261 -1.9118
  311MOL0     H41972   1.567   6.619   5.238  0.5261  0.1650  0.2441
  311MOL0     H41973   1.901   7.161   5.378 -1.3729  0.6049  1.3646
  311MOL0     H41974   2.129   7.145   5.487 -1.4087  0.4113  1.3656
  311MOL0     H41975   2.423   6.973   5.640 -0.2380 -1.6037 -1.6148
  311MOL0     H41976   2.328   7.097   5.549  0.0930 -0.0386 -0.1227
  311MOL0     H41977   2.161   7.063   5.744  0.5346  0.8420 -1.4434
  311MOL0     H41978   2.300   7.161   5.782  0.5997  0.4256  0.5833
  311MOL0     H41979   2.294   6.855   5.808 -2.7805  0.3786 -2.4889
  311MOL0     H41980   2.232   6.956   5.944 -0.8742 -0.5300 -2.3966
  311MOL0     H41981   2.477   7.052   5.950 -1.1634 -1.1617  2.1384
  311MOL0     H41982   2.513   6.929   5.837 -0.6672 -1.3113  0.1676
  311MOL0     H41983   2.472   6.699   6.185  0.1080 -1.9899 -1.6815
  311MOL0     H41984   2.109   6.719   5.464  0.7767  0.2287  1.0845
  311MOL0     H41985   1.892   6.733   5.363  0.6697  0.7601 -3.0937
  312MOL0     O41986   5.884   5.379   0.835 -0.5283 -0.1834 -0.2648
  312MOL0     C41987   5.829   5.288   0.892  0.6556  0.7016  0.8591
  312MOL0     O41988   5.705   5.286   0.946 -0.6488 -0.1975  0.3305
  312MOL0     C41989   5.628   5.400   0.963  0.0585 -0.2595 -0.1899
  312MOL0     C41990   5.490   5.383   0.950  0.2111 -0.1033 -0.7024
  312MOL0     C41991   5.406   5.490   0.976  0.9810  0.5813  0.2617
  312MOL0     C41992   5.460   5.612   1.025 -0.5490  0.9384  0.3303
  312MOL0     O41993   5.388   5.718   1.077 -0.2541 -0.1490 -0.1988
  312MOL0     C41994   5.246   5.704   1.108  0.3044 -0.8577 -0.7653
  312MOL0     C41995   5.143   5.715   0.991  0.3890 -0.2246  0.3731
  312MOL0     C41996   5.137   5.845   0.910 -0.5486  0.6571 -0.4492
  312MOL0     C41997   5.027   5.835   0.799 -0.3494  0.2891 -0.4874
  312MOL0     C41998   5.042   5.948   0.689 -0.2662  0.2404 -0.5227
  312MOL0     C41999   4.908   5.965   0.624  1.1697 -0.6706  0.5519
  312MOL0     C42000   4.926   6.090   0.528  0.2723 -0.3482 -0.7733
  312MOL0     C42001   4.811   6.110   0.442  0.5158 -0.6009  0.0989
  312MOL0     N42002   4.843   6.207   0.335  0.5006 -0.1879  0.4997
  312MOL0     C42003   4.924   6.320   0.349  1.6525  0.2188  0.8170
  312MOL0     C42004   4.898   6.395   0.237  0.5490 -0.5096  0.5212
  312MOL0     C42005   4.955   6.536   0.229 -0.3751  0.2404  0.2099
  312MOL0     C42006   4.839   6.630   0.220 -0.2534 -0.4117 -0.4678
  312MOL0     C42007   4.902   6.760   0.175 -0.1035 -0.1253  0.2239
  312MOL0     C42008   4.779   6.837   0.140  0.9468  0.3414 -0.0980
  312MOL0     O42009   4.819   6.972   0.101 -0.5766  0.6811  0.3093
  312MOL0     C42010   4.853   6.983  -0.033 -0.2987  0.1519 -0.8260
  312MOL0     C42011   4.972   7.049  -0.060 -0.9639  1.1484  0.8813
  312MOL0     C42012   5.030   7.046  -0.188 -0.5198  0.4536 -0.3110
  312MOL0     C42013   5.150   7.134  -0.207 -0.1637 -0.2335  0.1135
  312MOL0     C42014   4.968   6.983  -0.301 -0.3972  0.1292 -0.4378
  312MOL0     C42015   5.024   6.990  -0.436 -0.2848 -0.5602  2.0415
  312MOL0     O42016   5.153   7.021  -0.455  0.6031  0.2134  0.0808
  312MOL0     C42017   5.213   7.003  -0.581 -0.2034 -0.3671 -0.1020
  312MOL0     C42018   5.257   6.876  -0.640 -0.2732  0.5333  0.4881
  312MOL0     C42019   5.309   6.886  -0.766  0.7956 -0.0013 -0.6851
  312MOL0     C42020   5.317   7.007  -0.844  0.2610  0.2549  0.0195
  312MOL0     O42021   5.375   6.984  -0.966  0.0667  0.4261  0.3122
  312MOL0     C42022   5.325   7.059  -1.081  0.0649  0.5818  0.2925
  312MOL0     C42023   5.429   7.026  -1.199  0.0700 -0.8116 -0.1001
  312MOL0     C42024   5.441   6.879  -1.240 -0.5454 -0.7148  0.5245
  312MOL0     C42025   5.513   6.877  -1.381  0.4539 -0.2221  0.1826
  312MOL0     C42026   5.534   6.740  -1.448  0.9389  0.0819 -1.1724
  312MOL0     C42027   5.590   6.747  -1.588 -0.5341  0.3703 -0.1646
  312MOL0     C42028   5.697   6.645  -1.623 -0.3204 -0.1336 -0.0436
  312MOL0     C42029   5.745   6.670  -1.772 -0.8677  0.1708 -1.0025
  312MOL0    Cl42030   5.624   6.621  -1.892 -0.2936  0.2913 -0.2847
  312MOL0     C42031   5.258   7.122  -0.789  0.2413  0.7889  0.1793
  312MOL0     C42032   5.208   7.121  -0.659 -0.7276 -0.4855  0.5537
  312MOL0     O42033   4.948   6.950  -0.532  0.2114 -0.0023 -0.2031
  312MOL0     C42034   4.842   6.927  -0.275 -0.5546 -0.3815 -0.2753
  312MOL0     C42035   4.787   6.925  -0.141  0.1276 -0.6986 -0.6119
  312MOL0     N42036   4.829   6.315   0.147  0.5581 -0.1146 -0.0062
  312MOL0     N42037   4.794   6.205   0.208 -0.2255  0.3994  0.2499
  312MOL0     C42038   5.595   5.625   1.029  0.1243  0.0595 -0.2115
  312MOL0     C42039   5.680   5.521   1.005 -0.1247  0.7155  0.2611
  312MOL0     C42040   5.916   5.173   0.923 -0.6644 -0.7247 -0.3403
  312MOL0     C42041   5.863   5.059   0.989  0.2956 -0.2437 -0.0699
  312MOL0     C42042   5.929   4.937   1.002 -1.0272  0.5500  1.3883
  312MOL0     C42043   6.065   4.925   0.955 -0.0305  0.3921  0.3105
  312MOL0     O42044   6.136   4.805   0.944 -0.3628 -0.2949 -0.2782
  312MOL0     C42045   6.090   4.704   1.034 -0.0088  0.0870 -0.7578
  312MOL0     C42046   6.187   4.586   1.033  0.1639  0.5858  0.2746
  312MOL0     C42047   6.131   4.446   1.072 -0.8343  0.2133  0.8469
  312MOL0     C42048   6.053   4.373   0.960  0.4310 -0.8449  0.8388
  312MOL0     C42049   6.012   4.229   0.994 -0.7920 -0.8672 -0.8476
  312MOL0     C42050   5.970   4.122   1.028  0.8969 -0.2454 -0.1201
  312MOL0     C42051   6.118   5.030   0.884  0.4976  0.2349 -0.3400
  312MOL0     C42052   6.045   5.155   0.871 -0.3106 -0.0563  0.8835
  312MOL0     H42053   5.451   5.284   0.929  1.5451 -0.4494 -1.6278
  312MOL0     H42054   5.298   5.479   0.968  1.1920 -0.0812 -3.8943
  312MOL0     H42055   5.240   5.605   1.155  3.1234  0.0563  1.8749
  312MOL0     H42056   5.219   5.786   1.174  0.7031 -0.2899 -1.2913
  312MOL0     H42057   5.176   5.645   0.913  2.2315 -0.0525  0.9413
  312MOL0     H42058   5.041   5.692   1.024  0.9359 -3.6193  0.1377
  312MOL0     H42059   5.123   5.933   0.973  0.5346  0.0734  0.6427
  312MOL0     H42060   5.234   5.856   0.861  1.6473 -1.5758  2.9303
  312MOL0     H42061   5.019   5.735   0.754  0.2614 -0.8456  1.7859
  312MOL0     H42062   4.933   5.853   0.853 -0.2958  4.0386 -1.3452
  312MOL0     H42063   5.066   6.044   0.736 -1.5709  2.0193 -3.1989
  312MOL0     H42064   5.128   5.934   0.622 -0.2564  0.9100 -0.6656
  312MOL0     H42065   4.894   5.877   0.560 -1.9912  1.6575 -2.3069
  312MOL0     H42066   4.821   5.971   0.690 -0.3626 -0.7639 -1.3736
  312MOL0     H42067   4.941   6.177   0.593  1.5624 -1.7628  0.9317
  312MOL0     H42068   5.023   6.081   0.478  1.3651  1.8266  0.7752
  312MOL0     H42069   4.731   6.152   0.502  2.7456  2.8365  0.9693
  312MOL0     H42070   4.779   6.014   0.399  1.3849 -0.4010 -1.0544
  312MOL0     H42071   4.971   6.353   0.441  2.6459  0.3411  0.2825
  312MOL0     H42072   5.015   6.563   0.316  0.1689 -0.1524 -0.0364
  312MOL0     H42073   5.014   6.553   0.138 -0.7574 -0.4958 -0.1842
  312MOL0     H42074   4.802   6.639   0.323  0.0606 -2.5203 -0.1406
  312MOL0     H42075   4.765   6.586   0.153 -2.2339 -1.7170  2.3581
  312MOL0     H42076   4.963   6.749   0.085  2.1586  0.1896  1.6328
  312MOL0     H42077   4.978   6.795   0.246 -0.0377 -0.8770  0.5418
  312MOL0     H42078   4.714   6.852   0.226 -0.6944  1.2217 -1.4404
  312MOL0     H42079   4.713   6.796   0.063 -4.6796  3.7555  2.2954
  312MOL0     H42080   5.037   7.097   0.013  3.3032 -2.5995  0.0455
  312MOL0     H42081   5.126   7.202  -0.290 -1.6709  0.1702  0.8434
  312MOL0     H42082   5.165   7.190  -0.115 -3.4218 -1.3584  1.4816
  312MOL0     H42083   5.239   7.075  -0.231 -0.8926 -0.0458 -3.8214
  312MOL0     H42084   5.269   6.781  -0.588  0.3832  0.4699  0.2277
  312MOL0     H42085   5.361   6.806  -0.816  1.0011  1.5483 -3.1448
  312MOL0     H42086   5.224   7.044  -1.120  0.6324  1.1289 -1.4698
  312MOL0     H42087   5.325   7.168  -1.071  0.2668  0.8166 -1.8308
  312MOL0     H42088   5.386   7.077  -1.285 -2.9415 -0.5461  1.4291
  312MOL0     H42089   5.527   7.067  -1.174 -0.1331  0.1237 -0.8032
  312MOL0     H42090   5.341   6.836  -1.248 -1.2188  1.0845 -2.9942
  312MOL0     H42091   5.503   6.822  -1.171  2.6384 -0.6342 -2.0088
  312MOL0     H42092   5.470   6.947  -1.455 -0.5481 -0.7384  0.2576
  312MOL0     H42093   5.617   6.909  -1.369  0.2742  0.8410 -0.8667
  312MOL0     H42094   5.433   6.697  -1.449  1.7361 -2.2590  2.1837
  312MOL0     H42095   5.593   6.686  -1.374 -0.0933 -0.7090 -0.8920
  312MOL0     H42096   5.500   6.721  -1.646  0.3582  1.6370 -2.2247
  312MOL0     H42097   5.626   6.848  -1.610  0.7825 -0.1823 -0.6093
  312MOL0     H42098   5.657   6.544  -1.616  2.4714 -1.2753  1.2333
  312MOL0     H42099   5.780   6.651  -1.552 -0.4410 -0.2126  0.1041
  312MOL0     H42100   5.830   6.605  -1.797 -2.9719 -3.8013  1.1985
  312MOL0     H42101   5.780   6.771  -1.795  1.2852  1.0772  4.7109
  312MOL0     H42102   5.265   7.211  -0.849  3.8608 -0.5232 -1.6106
  312MOL0     H42103   5.161   7.212  -0.622 -0.6547 -0.6163  0.9738
  312MOL0     H42104   4.793   6.878  -0.358 -0.9963 -0.6653  0.1438
  312MOL0     H42105   4.689   6.881  -0.124 -1.3233  2.4655 -0.1217
  312MOL0     H42106   5.642   5.711   1.075  0.9849 -0.5139  0.0119
  312MOL0     H42107   5.787   5.518   1.020  0.3152 -2.3284 -2.5080
  312MOL0     H42108   5.759   5.070   1.021 -0.0803  0.6257 -1.4653
  312MOL0     H42109   5.872   4.854   1.042  0.2004 -0.6229  0.7723
  312MOL0     H42110   6.104   4.730   1.139  0.9273 -1.4999 -0.4537
  312MOL0     H42111   5.990   4.668   1.012  0.3183 -2.5380  1.6050
  312MOL0     H42112   6.271   4.600   1.102 -0.2325 -0.6699  1.0569
  312MOL0     H42113   6.229   4.587   0.932  0.8461  1.4040  0.5515
  312MOL0     H42114   6.077   4.457   1.166 -0.3554  0.5334  1.0841
  312MOL0     H42115   6.224   4.396   1.099  1.2658  4.1752  1.7281
  312MOL0     H42116   6.121   4.379   0.875 -1.7002  1.8177 -0.8276
  312MOL0     H42117   5.962   4.425   0.929  1.0563 -1.7181 -3.0184
  312MOL0     H42118   5.915   4.034   1.056 -0.8522  1.0270  0.6556
  312MOL0     H42119   6.222   5.039   0.855 -0.2721 -0.1753 -3.7288
  312MOL0     H42120   6.081   5.234   0.806 -1.7125 -0.6956 -0.7700
  313MOL0     O42121   2.861   9.431   7.987  0.7317 -0.3818 -0.3568
  313MOL0     C42122   2.927   9.497   7.911 -0.6716  0.4475  0.4681
  313MOL0     O42123   2.889   9.567   7.798  0.4670  0.6596 -0.0759
  313MOL0     C42124   2.758   9.575   7.769  0.7768 -0.0385 -0.5400
  313MOL0     C42125   2.685   9.467   7.725  1.4895  0.4836  0.8884
  313MOL0     C42126   2.561   9.485   7.661 -0.0211  0.0595  0.2262
  313MOL0     C42127   2.509   9.617   7.631 -0.9484  0.5552  0.3797
  313MOL0     O42128   2.395   9.652   7.565  0.2493  0.8184  0.6315
  313MOL0     C42129   2.295   9.541   7.553  0.2180 -0.3737  0.0553
  313MOL0     C42130   2.163   9.577   7.467 -0.2345  0.0566 -0.3815
  313MOL0     C42131   2.095   9.700   7.521  0.4883 -0.6481 -0.0122
  313MOL0     C42132   2.038   9.801   7.417  1.1103  0.0643  0.1427
  313MOL0     C42133   1.924   9.886   7.479  0.3410  0.4433 -0.1863
  313MOL0     C42134   1.840   9.976   7.389 -0.2759  0.2841 -0.0418
  313MOL0     C42135   1.735  10.069   7.450  0.3615  0.0892 -0.2612
  313MOL0     C42136   1.788  10.199   7.509 -0.3928  0.1661 -0.6288
  313MOL0     N42137   1.879  10.278   7.425 -0.4411  0.7428  0.2847
  313MOL0     C42138   1.852  10.385   7.352 -0.2686 -0.4142 -0.3582
  313MOL0     C42139   1.976  10.443   7.327  0.0304  0.7243 -2.2380
  313MOL0     C42140   1.990  10.575   7.255 -0.5087  0.5485 -0.0101
  313MOL0     C42141   2.006  10.713   7.326  0.5398  0.1500 -0.0876
  313MOL0     C42142   2.137  10.723   7.391 -0.0406 -0.2663  0.9495
  313MOL0     C42143   2.146  10.651   7.522  0.6033 -0.8243 -0.3015
  313MOL0     O42144   2.250  10.697   7.603  0.5252  0.1120 -0.8833
  313MOL0     C42145   2.269  10.641   7.722 -0.2414  0.7799 -0.2475
  313MOL0     C42146   2.339  10.717   7.818  0.7924  0.9015  0.3001
  313MOL0     C42147   2.362  10.683   7.949  0.1433  0.6165 -0.6099
  313MOL0     C42148   2.428  10.782   8.043 -0.7942 -0.4681  1.0396
  313MOL0     C42149   2.315  10.552   7.994 -0.0765 -0.4761 -0.0358
  313MOL0     C42150   2.325  10.492   8.123  1.9036 -0.0894 -0.7269
  313MOL0     O42151   2.329  10.355   8.118  0.7416  0.6996  0.1653
  313MOL0     C42152   2.345  10.291   8.233  0.2628 -0.1783 -0.5088
  313MOL0     C42153   2.241  10.251   8.321  0.3190 -0.6875 -0.0705
  313MOL0     C42154   2.274  10.173   8.434 -0.6046 -0.1766 -0.5545
  313MOL0     C42155   2.403  10.139   8.469  0.4121 -0.3675 -0.3847
  313MOL0     O42156   2.429  10.053   8.572  0.6131 -0.2788 -0.0380
  313MOL0     C42157   2.551  10.057   8.643  1.4323  0.3838 -0.0384
  313MOL0     C42158   2.538  10.034   8.801  0.0392 -0.0570  0.0873
  313MOL0     C42159   2.461  10.139   8.870  0.6266 -0.5341  0.6805
  313MOL0     C42160   2.403  10.105   9.012  0.3877  0.3182 -0.1285
  313MOL0     C42161   2.342  10.237   9.070 -0.0952  0.4007 -0.2647
  313MOL0     C42162   2.329  10.241   9.218  0.1976 -0.7963  0.2327
  313MOL0     C42163   2.206  10.178   9.282  0.3054 -0.5683 -0.4059
  313MOL0     C42164   2.203  10.048   9.360 -0.2192 -0.2701 -0.1501
  313MOL0    Cl42165   2.304   9.920   9.277 -0.1635  0.0157  0.3703
  313MOL0     C42166   2.507  10.175   8.379  0.7506  1.0856  0.4610
  313MOL0     C42167   2.481  10.252   8.264 -0.0291 -0.3210 -0.2734
  313MOL0     O42168   2.319  10.557   8.228 -0.5950 -0.0886  0.2126
  313MOL0     C42169   2.240  10.476   7.900 -0.0059  0.3044  1.0407
  313MOL0     C42170   2.216  10.518   7.769 -0.2265  0.6754  0.3202
  313MOL0     N42171   2.078  10.348   7.362 -0.3405  0.1932 -0.5187
  313MOL0     N42172   2.014  10.255   7.433  0.2755 -0.9462  0.6177
  313MOL0     C42173   2.593   9.723   7.669 -0.2636  0.0817 -0.8405
  313MOL0     C42174   2.703   9.702   7.749 -0.4950  0.3343 -0.9677
  313MOL0     C42175   3.078   9.482   7.943  0.1781  0.4615  0.7714
  313MOL0     C42176   3.122   9.386   8.039  0.0735 -0.5049 -0.0060
  313MOL0     C42177   3.259   9.364   8.064  0.2812 -0.7402  0.4528
  313MOL0     C42178   3.356   9.449   7.997  0.5874 -0.2785 -0.8259
  313MOL0     O42179   3.487   9.434   8.032 -0.0545  0.4915 -0.1885
  313MOL0     C42180   3.553   9.461   8.154  0.6752  0.5044 -0.3611
  313MOL0     C42181   3.554   9.613   8.208 -1.0016  1.2097 -0.0917
  313MOL0     C42182   3.422   9.657   8.267 -0.3398  0.1658  0.3428
  313MOL0     C42183   3.441   9.799   8.329 -0.1255  0.6472  0.8331
  313MOL0     C42184   3.313   9.847   8.376 -0.1436  0.1356 -0.1245
  313MOL0     C42185   3.209   9.899   8.421  0.2136  0.6409 -0.7372
  313MOL0     C42186   3.306   9.533   7.900 -0.0888 -0.0097  0.7348
  313MOL0     C42187   3.174   9.543   7.861 -0.7366  0.3766 -0.1111
  313MOL0     H42188   2.720   9.366   7.741 -1.5560 -0.8066  0.2228
  313MOL0     H42189   2.503   9.396   7.639  0.2718 -0.0869  0.0454
  313MOL0     H42190   2.334   9.446   7.514 -2.3859 -0.6571 -2.1155
  313MOL0     H42191   2.267   9.516   7.656  0.6880 -0.0654  0.2602
  313MOL0     H42192   2.190   9.606   7.365  0.1646 -0.0168 -0.2950
  313MOL0     H42193   2.103   9.485   7.469  0.7484 -0.6027  1.9222
  313MOL0     H42194   2.008   9.674   7.583  1.4140 -1.0268  1.1790
  313MOL0     H42195   2.169   9.746   7.587 -0.1073 -2.5642  2.1221
  313MOL0     H42196   2.110   9.878   7.387  0.9178  0.5116  0.8129
  313MOL0     H42197   2.012   9.741   7.329  1.8648  0.3141 -0.2608
  313MOL0     H42198   1.853   9.817   7.527  1.9870 -0.6593  0.7769
  313MOL0     H42199   1.961   9.951   7.558 -0.8191  1.2025 -0.2334
  313MOL0     H42200   1.903  10.045   7.332 -0.3899  0.2536 -0.2056
  313MOL0     H42201   1.800   9.906   7.315  4.8297 -3.2495  0.0356
  313MOL0     H42202   1.657  10.086   7.376  2.1616  3.0260 -1.6386
  313MOL0     H42203   1.695  10.006   7.530  1.6505 -0.2387  0.1568
  313MOL0     H42204   1.836  10.173   7.604  1.3650  0.6100 -1.3753
  313MOL0     H42205   1.705  10.269   7.526 -0.3584 -0.2576  1.5606
  313MOL0     H42206   1.756  10.428   7.323 -0.7560 -1.4077 -0.2936
  313MOL0     H42207   2.074  10.559   7.187 -0.2733  2.0084 -0.0999
  313MOL0     H42208   1.897  10.579   7.197 -0.3499 -0.4429 -0.3444
  313MOL0     H42209   1.920  10.731   7.392 -0.5417 -3.2116 -0.3755
  313MOL0     H42210   2.015  10.787   7.245  0.7921 -0.1589 -0.3421
  313MOL0     H42211   2.160  10.828   7.412  3.3434 -0.8519  0.7599
  313MOL0     H42212   2.221  10.692   7.327 -1.7607  2.6383 -3.1990
  313MOL0     H42213   2.160  10.544   7.508  1.6785 -1.0064  1.7131
  313MOL0     H42214   2.049  10.672   7.568  0.9761  1.0952 -0.2897
  313MOL0     H42215   2.359  10.810   7.766 -3.8144  2.2974  0.6516
  313MOL0     H42216   2.487  10.721   8.113 -0.3574 -2.2124 -0.7754
  313MOL0     H42217   2.509  10.824   7.983 -2.7571  0.6451 -0.9640
  313MOL0     H42218   2.366  10.851   8.102  0.2247 -0.3222  1.9883
  313MOL0     H42219   2.139  10.276   8.292 -0.1765 -2.0432  0.4351
  313MOL0     H42220   2.194  10.146   8.503 -0.5988 -0.3164 -0.6025
  313MOL0     H42221   2.612   9.979   8.598  2.8507  0.1837  2.1066
  313MOL0     H42222   2.602  10.153   8.626  2.3081 -0.3899 -2.0515
  313MOL0     H42223   2.481   9.942   8.816 -0.0264  0.2877  2.2499
  313MOL0     H42224   2.636  10.013   8.845  0.2439  1.2422  0.2804
  313MOL0     H42225   2.376  10.164   8.806  0.1275 -4.2541 -0.4014
  313MOL0     H42226   2.521  10.230   8.874  0.4608 -0.2663 -1.6246
  313MOL0     H42227   2.317  10.038   9.007  0.3309  0.4297 -0.7779
  313MOL0     H42228   2.477  10.058   9.077 -0.2447  0.6254  0.8305
  313MOL0     H42229   2.252  10.275   9.021 -0.1008 -1.2445 -1.6074
  313MOL0     H42230   2.421  10.311   9.056  1.0928 -0.9337 -0.8549
  313MOL0     H42231   2.415  10.189   9.260  1.7549  0.0703 -1.7493
  313MOL0     H42232   2.307  10.341   9.258 -0.3138 -0.0208 -1.8430
  313MOL0     H42233   2.129  10.161   9.207  0.4391 -1.9429 -0.2560
  313MOL0     H42234   2.155  10.249   9.348 -1.7772 -3.1537  0.9962
  313MOL0     H42235   2.098  10.015   9.355 -0.2243 -0.1691 -0.8814
  313MOL0     H42236   2.243  10.068   9.459 -0.2127 -1.8488  0.2021
  313MOL0     H42237   2.605  10.127   8.373 -1.0837 -2.8507 -4.4054
  313MOL0     H42238   2.560  10.290   8.201  0.5729  3.7782  2.5573
  313MOL0     H42239   2.206  10.375   7.920 -0.6625 -0.2075 -2.1354
  313MOL0     H42240   2.155  10.448   7.712 -0.3711  1.0086  0.0643
  313MOL0     H42241   2.559   9.827   7.669 -0.1609  0.3645  4.1301
  313MOL0     H42242   2.766   9.784   7.781  0.1227 -0.2418 -0.6769
  313MOL0     H42243   3.056   9.335   8.108  1.0931  1.6490  2.7378
  313MOL0     H42244   3.283   9.282   8.131 -1.8124 -1.3958  0.4638
  313MOL0     H42245   3.532   9.381   8.226  1.0573  1.3612  0.7331
  313MOL0     H42246   3.660   9.461   8.133  0.8099 -0.6565  0.2622
  313MOL0     H42247   3.584   9.688   8.134 -1.9816  1.8834  0.1747
  313MOL0     H42248   3.632   9.620   8.285 -0.7061  2.0831 -0.4561
  313MOL0     H42249   3.381   9.581   8.335 -0.5147 -1.1887 -1.2335
  313MOL0     H42250   3.346   9.667   8.189  0.5211  0.8487 -0.4272
  313MOL0     H42251   3.482   9.872   8.259 -2.0450  0.7448 -0.2544
  313MOL0     H42252   3.515   9.787   8.408 -0.4210 -0.1091  1.0087
  313MOL0     H42253   3.127   9.946   8.471  0.1992  0.9735 -1.0692
  313MOL0     H42254   3.362   9.602   7.838 -2.6056  1.1612 -0.3600
  313MOL0     H42255   3.150   9.592   7.767  0.2892 -1.4638 -1.3996
  314MOL0     O42256   9.191   6.448   3.541  0.4413 -0.2926  0.1376
  314MOL0     C42257   9.087   6.396   3.514  1.0505  0.4806  0.3126
  314MOL0     O42258   9.009   6.325   3.597 -0.0816 -0.1901 -0.4291
  314MOL0     C42259   9.057   6.285   3.715  0.6311  0.5262 -0.2953
  314MOL0     C42260   9.182   6.219   3.729 -0.7265 -0.8043 -1.0606
  314MOL0     C42261   9.229   6.189   3.866  0.6129 -0.3769 -0.7739
  314MOL0     C42262   9.153   6.231   3.977  0.3569  0.3402 -0.7380
  314MOL0     O42263   9.184   6.205   4.112  0.7576 -0.1491 -0.4366
  314MOL0     C42264   9.264   6.083   4.140  0.4929 -0.4508  0.0484
  314MOL0     C42265   9.214   6.013   4.263 -0.7183  0.7180  0.5021
  314MOL0     C42266   9.067   5.970   4.238  0.0942  0.1727 -0.1018
  314MOL0     C42267   9.053   5.866   4.125  0.2813  0.5002 -1.0026
  314MOL0     C42268   9.102   5.722   4.166  0.0519  0.1812 -0.0762
  314MOL0     C42269   9.101   5.634   4.040 -0.8271  0.6660 -0.2464
  314MOL0     C42270   9.125   5.485   4.080 -0.6269 -0.0537  0.0152
  314MOL0     C42271   9.009   5.429   4.163 -0.4131 -0.1985 -0.8850
  314MOL0     N42272   8.976   5.292   4.128 -1.0924  0.0977 -0.1858
  314MOL0     C42273   9.041   5.183   4.187  0.7016  1.3019 -0.5009
  314MOL0     C42274   9.037   5.078   4.104  0.7293 -0.4288  0.6761
  314MOL0     C42275   9.118   4.960   4.123  0.2934  0.2236 -0.2904
  314MOL0     C42276   9.034   4.834   4.098 -0.8584 -0.2090 -0.3518
  314MOL0     C42277   9.096   4.702   4.164  0.0988 -0.6915 -0.6647
  314MOL0     C42278   9.018   4.578   4.114 -1.1301 -0.2454 -1.0945
  314MOL0     O42279   8.881   4.596   4.144 -0.0510  0.9820  0.3797
  314MOL0     C42280   8.801   4.482   4.164 -0.6734 -0.3711 -0.0737
  314MOL0     C42281   8.804   4.369   4.090 -0.7578 -0.0925  0.3068
  314MOL0     C42282   8.712   4.253   4.106 -0.0291  0.5581  0.3446
  314MOL0     C42283   8.728   4.139   4.009  1.1196  0.1115  0.0836
  314MOL0     C42284   8.618   4.270   4.212 -0.2985 -0.1673 -0.1270
  314MOL0     C42285   8.531   4.149   4.247  0.0762 -0.2136  0.2493
  314MOL0     O42286   8.556   4.094   4.363 -0.4911 -0.2715  0.2133
  314MOL0     C42287   8.485   3.992   4.413  0.3025  1.3205 -0.3645
  314MOL0     C42288   8.415   3.992   4.531 -0.2733  0.0230 -0.0155
  314MOL0     C42289   8.341   3.870   4.584  0.4916 -0.6559 -0.2801
  314MOL0     C42290   8.353   3.754   4.514 -1.0691  0.3890  0.9207
  314MOL0     O42291   8.282   3.654   4.570 -0.5000 -0.2324  0.2187
  314MOL0     C42292   8.232   3.558   4.481  0.0652 -0.7448  0.6267
  314MOL0     C42293   8.133   3.638   4.383 -0.1816  0.2850 -0.0989
  314MOL0     C42294   8.068   3.528   4.290 -0.2721 -0.9231 -0.2915
  314MOL0     C42295   8.153   3.470   4.177 -0.0734  0.2008 -1.2139
  314MOL0     C42296   8.073   3.357   4.103 -0.6494  0.3064 -0.4133
  314MOL0     C42297   8.139   3.316   3.969  0.4342 -0.2406  0.4744
  314MOL0     C42298   8.267   3.229   3.973  0.4613 -0.2985  0.9164
  314MOL0     C42299   8.324   3.210   3.836 -0.1219 -1.0411  0.2317
  314MOL0    Cl42300   8.440   3.075   3.846 -0.6916 -0.7954  0.2772
  314MOL0     C42301   8.429   3.746   4.404 -0.9254 -0.4933 -0.1258
  314MOL0     C42302   8.485   3.867   4.342 -0.7914 -0.2774 -0.5502
  314MOL0     O42303   8.446   4.108   4.164 -0.4036  0.1684 -0.4383
  314MOL0     C42304   8.615   4.385   4.299  0.5491  0.4727  0.7716
  314MOL0     C42305   8.706   4.489   4.264  0.3655  0.3175 -1.3253
  314MOL0     N42306   8.974   5.129   3.990  0.6698 -0.0032  0.1516
  314MOL0     N42307   8.929   5.250   4.007 -0.3274  0.4052 -0.5750
  314MOL0     C42308   9.032   6.294   3.957 -0.2348 -0.7494  0.6948
  314MOL0     C42309   8.990   6.331   3.827  0.0459  0.3719  0.9507
  314MOL0     C42310   9.028   6.433   3.390  0.7453  0.5727  0.2872
  314MOL0     C42311   9.072   6.550   3.323  0.5431 -0.0403  0.0879
  314MOL0     C42312   9.018   6.600   3.204  0.8166  0.6334  0.7853
  314MOL0     C42313   8.909   6.541   3.144  0.5901 -0.6798 -0.7060
  314MOL0     O42314   8.844   6.604   3.036  0.2162 -0.3222  0.0205
  314MOL0     C42315   8.717   6.556   2.982  0.3673 -0.1581  0.7200
  314MOL0     C42316   8.600   6.577   3.076 -0.3490  0.2380 -0.9578
  314MOL0     C42317   8.476   6.506   3.035  0.2608  0.1337  0.0800
  314MOL0     C42318   8.354   6.561   3.113 -0.0933 -0.3702  0.6796
  314MOL0     C42319   8.351   6.530   3.248 -0.2255  0.3677 -1.4917
  314MOL0     C42320   8.356   6.516   3.373 -1.1449 -0.2011 -0.7172
  314MOL0     C42321   8.863   6.427   3.208  0.3497  0.1808 -0.0906
  314MOL0     C42322   8.909   6.378   3.332 -0.6352  0.7984  0.4798
  314MOL0     H42323   9.238   6.204   3.637 -1.9336 -2.1660 -1.6239
  314MOL0     H42324   9.314   6.122   3.873 -2.8143 -5.1997 -0.1315
  314MOL0     H42325   9.270   6.013   4.055 -0.3991 -1.5174  0.8338
  314MOL0     H42326   9.368   6.114   4.158 -0.2181  0.2570  3.5376
  314MOL0     H42327   9.277   5.924   4.276 -3.6572 -1.4057  1.2355
  314MOL0     H42328   9.230   6.082   4.347  2.5595  1.6284 -0.6941
  314MOL0     H42329   9.012   5.924   4.320  1.0418 -1.2690 -0.2197
  314MOL0     H42330   9.006   6.052   4.201 -3.8583 -2.3045  0.3008
  314MOL0     H42331   8.947   5.868   4.101 -0.6352  1.9488  2.4664
  314MOL0     H42332   9.094   5.906   4.032  0.2928  2.2758 -0.2877
  314MOL0     H42333   9.202   5.717   4.209 -0.6878 -1.2445  1.6298
  314MOL0     H42334   9.036   5.689   4.247  0.3515 -2.0236 -0.6721
  314MOL0     H42335   9.014   5.633   3.974 -0.2425 -3.0888 -1.2015
  314MOL0     H42336   9.181   5.671   3.976  1.8418 -2.0562  1.2249
  314MOL0     H42337   9.142   5.419   3.994 -0.2221 -3.2613  2.4030
  314MOL0     H42338   9.218   5.454   4.129  0.9007  0.3731 -2.4245
  314MOL0     H42339   8.927   5.497   4.139 -0.9925 -0.2443  0.8408
  314MOL0     H42340   9.031   5.433   4.270 -2.8279 -0.8746 -0.3008
  314MOL0     H42341   9.083   5.183   4.287 -0.6813  2.0347  0.1153
  314MOL0     H42342   9.201   4.974   4.053 -0.1248  1.4275 -0.5657
  314MOL0     H42343   9.153   4.954   4.226  1.2700 -1.1430 -0.6722
  314MOL0     H42344   9.031   4.820   3.989  0.8151  0.4327 -0.5055
  314MOL0     H42345   8.932   4.835   4.139 -0.4085 -2.5545  1.0058
  314MOL0     H42346   9.098   4.699   4.273  0.3028 -0.8173 -0.6711
  314MOL0     H42347   9.201   4.685   4.141  1.7840 -1.8608  5.9037
  314MOL0     H42348   9.054   4.488   4.164  0.4247  0.1385 -1.4847
  314MOL0     H42349   9.044   4.575   4.008  3.5475 -2.0661 -0.1505
  314MOL0     H42350   8.873   4.372   4.005  0.2217  1.0122  1.1062
  314MOL0     H42351   8.663   4.155   3.922  0.5712  1.8704  0.7609
  314MOL0     H42352   8.836   4.136   3.992  1.0495  0.6465 -0.5147
  314MOL0     H42353   8.701   4.041   4.048  2.2134 -0.0935  0.3449
  314MOL0     H42354   8.416   4.095   4.566  3.8737  0.5345 -1.1508
  314MOL0     H42355   8.272   3.875   4.668  1.3515  1.3687  0.3571
  314MOL0     H42356   8.312   3.503   4.431 -1.3457 -3.2492  0.9412
  314MOL0     H42357   8.171   3.485   4.534 -1.4754  0.7650  1.0216
  314MOL0     H42358   8.056   3.687   4.443 -3.7830 -2.8499 -1.6956
  314MOL0     H42359   8.191   3.708   4.322  2.4438 -0.5722  1.2259
  314MOL0     H42360   7.970   3.559   4.252  0.4581  3.7286  1.0093
  314MOL0     H42361   8.049   3.439   4.351 -0.7219 -0.7455 -0.1668
  314MOL0     H42362   8.174   3.548   4.103  4.3016 -0.9069 -1.4304
  314MOL0     H42363   8.240   3.423   4.222 -2.0753 -2.1727  0.4663
  314MOL0     H42364   7.973   3.400   4.084  0.5302  2.5313 -2.2304
  314MOL0     H42365   8.059   3.275   4.174  0.9887  2.8270  3.1338
  314MOL0     H42366   8.060   3.254   3.924 -0.1226  1.9405 -1.7749
  314MOL0     H42367   8.157   3.400   3.901  1.8940 -0.7695  0.1714
  314MOL0     H42368   8.225   3.129   3.991  2.2073 -0.9815  1.3874
  314MOL0     H42369   8.347   3.252   4.043  2.1079 -2.8986  0.0481
  314MOL0     H42370   8.362   3.309   3.811  0.8546 -1.1742  1.1017
  314MOL0     H42371   8.252   3.177   3.761  1.4096 -2.5082 -0.6673
  314MOL0     H42372   8.441   3.649   4.357  1.2216  1.2347 -3.6025
  314MOL0     H42373   8.558   3.860   4.262  0.3102  2.0351  0.1593
  314MOL0     H42374   8.537   4.401   4.372 -2.9467 -1.1546 -2.2896
  314MOL0     H42375   8.695   4.584   4.316  3.9095  0.8559 -1.3431
  314MOL0     H42376   8.976   6.331   4.042 -1.7469 -1.5049  0.0491
  314MOL0     H42377   8.902   6.392   3.807 -0.7896 -0.7858  0.9702
  314MOL0     H42378   9.168   6.598   3.338  1.2738 -0.1889 -3.2441
  314MOL0     H42379   9.045   6.703   3.182 -2.6811  1.7668  1.1421
  314MOL0     H42380   8.696   6.591   2.881  0.8499 -0.1088  0.6375
  314MOL0     H42381   8.734   6.448   2.974 -2.2588 -0.5215 -3.7185
  314MOL0     H42382   8.586   6.685   3.065 -2.1632  0.1849  0.3979
  314MOL0     H42383   8.612   6.564   3.184 -4.6512 -0.5436 -0.4139
  314MOL0     H42384   8.484   6.399   3.054 -0.7942  0.5541  3.6684
  314MOL0     H42385   8.465   6.502   2.926  0.4727 -1.1823  0.0850
  314MOL0     H42386   8.268   6.518   3.060 -0.5817  1.6118 -0.2528
  314MOL0     H42387   8.349   6.670   3.107 -1.8123 -0.4969 -1.7109
  314MOL0     H42388   8.372   6.510   3.479  2.9340  0.9629 -1.0831
  314MOL0     H42389   8.783   6.366   3.165  1.7239 -1.0829 -0.9528
  314MOL0     H42390   8.869   6.287   3.376  3.3572 -0.0040  2.9991
  315MOL0     O42391   8.947   7.094   7.120 -0.5887  0.9384 -0.0168
  315MOL0     C42392   9.016   7.169   7.184  0.4287 -0.2434 -0.2360
  315MOL0     O42393   8.997   7.196   7.313 -0.1346 -0.1536  0.4825
  315MOL0     C42394   8.900   7.153   7.402  0.5900 -0.4574 -0.1545
  315MOL0     C42395   8.882   7.227   7.518  0.0920 -0.5143  0.6703
  315MOL0     C42396   8.807   7.177   7.622  0.2514 -0.0780  0.6473
  315MOL0     C42397   8.731   7.056   7.610 -0.0817  0.1818  0.1796
  315MOL0     O42398   8.637   7.012   7.691 -0.3666 -0.4005 -0.0708
  315MOL0     C42399   8.684   7.001   7.825 -0.7378 -0.3063 -0.1841
  315MOL0     C42400   8.589   6.911   7.899  0.9203  0.4839 -0.8775
  315MOL0     C42401   8.561   6.782   7.819 -1.1234  0.2937 -0.3065
  315MOL0     C42402   8.430   6.708   7.855 -0.1779  0.4179  0.7494
  315MOL0     C42403   8.415   6.705   8.005 -0.2479 -0.0347  1.0676
  315MOL0     C42404   8.312   6.594   8.041  0.6512  0.5383 -1.2592
  315MOL0     C42405   8.297   6.593   8.191  0.9019 -0.0209  0.1688
  315MOL0     C42406   8.417   6.532   8.252  0.3035 -0.6300  1.1802
  315MOL0     N42407   8.419   6.547   8.394  0.3963  0.3606 -0.6385
  315MOL0     C42408   8.525   6.596   8.461 -0.3742  1.3393 -0.0598
  315MOL0     C42409   8.488   6.608   8.592 -0.4247 -0.0971 -0.2404
  315MOL0     C42410   8.559   6.678   8.707 -0.4049  0.1967 -0.2487
  315MOL0     C42411   8.474   6.795   8.779 -0.4466  0.0342  0.2166
  315MOL0     C42412   8.388   6.871   8.673 -0.1702 -0.0033  0.9522
  315MOL0     C42413   8.338   7.009   8.721 -0.2742 -0.8995  0.4470
  315MOL0     O42414   8.348   7.116   8.620  0.4212  0.2581  0.2698
  315MOL0     C42415   8.456   7.199   8.621  0.4758 -0.0851  1.3128
  315MOL0     C42416   8.588   7.148   8.627  0.2717 -1.2221  0.3575
  315MOL0     C42417   8.697   7.243   8.613  0.0302  0.5231 -0.2439
  315MOL0     C42418   8.828   7.178   8.634 -0.4963  0.2174 -0.4926
  315MOL0     C42419   8.678   7.377   8.598 -0.4695 -0.2076  0.0018
  315MOL0     C42420   8.788   7.487   8.595 -0.7554 -0.4917  0.2176
  315MOL0     O42421   8.747   7.609   8.563 -0.7217 -0.2096 -0.7771
  315MOL0     C42422   8.823   7.729   8.570  0.3279 -0.5121  0.0120
  315MOL0     C42423   8.756   7.845   8.606 -0.4134  0.3146  0.3874
  315MOL0     C42424   8.829   7.974   8.608  0.3167 -0.2245  0.2740
  315MOL0     C42425   8.966   7.989   8.590  0.1783 -0.0720 -0.0768
  315MOL0     O42426   9.033   8.104   8.611 -0.2259 -0.6001  0.2431
  315MOL0     C42427   8.991   8.193   8.708 -1.0354  0.9159  0.1597
  315MOL0     C42428   9.106   8.283   8.742  0.1323 -0.2975  0.6039
  315MOL0     C42429   9.098   8.415   8.676  0.4782 -0.3517 -0.4247
  315MOL0     C42430   9.218   8.506   8.708 -0.9029 -0.5020  0.3296
  315MOL0     C42431   9.343   8.467   8.639  0.5588 -1.1718 -0.3287
  315MOL0     C42432   9.449   8.568   8.629 -0.3779 -0.4230 -0.1675
  315MOL0     C42433   9.572   8.476   8.594  0.4874 -0.6059  0.3471
  315MOL0     C42434   9.688   8.556   8.550 -0.5323 -0.7871 -0.2720
  315MOL0    Cl42435   9.756   8.624   8.708  0.2190  0.0245  0.3757
  315MOL0     C42436   9.027   7.863   8.559  0.5201  0.2121 -0.1363
  315MOL0     C42437   8.962   7.740   8.561  0.5828 -0.4528 -0.0718
  315MOL0     O42438   8.904   7.461   8.643  0.6057  0.1992 -0.2881
  315MOL0     C42439   8.543   7.423   8.591 -0.5709 -0.7778  0.8362
  315MOL0     C42440   8.438   7.337   8.597 -0.2646 -0.4036 -0.6706
  315MOL0     N42441   8.371   6.532   8.600 -0.5446  0.7938 -0.3763
  315MOL0     N42442   8.326   6.495   8.485 -0.1086 -0.4070 -0.4814
  315MOL0     C42443   8.730   6.995   7.485  0.1146  0.3185  0.4613
  315MOL0     C42444   8.815   7.038   7.388 -0.0772 -0.7294 -0.3030
  315MOL0     C42445   9.130   7.236   7.117  0.3434 -0.4726  0.1462
  315MOL0     C42446   9.214   7.156   7.037  0.4655  0.9016 -0.0231
  315MOL0     C42447   9.326   7.212   6.989  0.1943  0.3168 -1.1353
  315MOL0     C42448   9.367   7.341   7.017 -0.3278  0.0995  0.2257
  315MOL0     O42449   9.479   7.389   6.947 -0.2312 -0.0491 -0.0239
  315MOL0     C42450   9.443   7.446   6.817 -0.8199 -0.5824 -1.0991
  315MOL0     C42451   9.536   7.555   6.788 -0.1163  0.2090 -0.4595
  315MOL0     C42452   9.514   7.595   6.640  0.8105 -0.4925 -0.8374
  315MOL0     C42453   9.635   7.683   6.592  0.5730  0.2230  0.5368
  315MOL0     C42454   9.608   7.705   6.445  0.6619  0.8195  0.1568
  315MOL0     C42455   9.571   7.733   6.329  0.4172  0.4449 -1.0337
  315MOL0     C42456   9.290   7.422   7.098 -0.7890 -0.1925 -0.3734
  315MOL0     C42457   9.176   7.373   7.152  0.2249  0.5434 -0.0196
  315MOL0     H42458   8.938   7.316   7.546  0.6503 -1.1353  1.5925
  315MOL0     H42459   8.795   7.244   7.706  0.9893  1.5214 -0.4704
  315MOL0     H42460   8.788   6.967   7.825 -1.0083 -1.2760 -1.9981
  315MOL0     H42461   8.675   7.094   7.882 -1.6007 -0.3578 -0.2166
  315MOL0     H42462   8.630   6.886   7.997  0.5675  2.8531 -0.0676
  315MOL0     H42463   8.493   6.960   7.915 -0.3874 -1.3975 -2.5484
  315MOL0     H42464   8.567   6.789   7.710 -0.4067 -0.7772 -0.3479
  315MOL0     H42465   8.644   6.714   7.839 -1.0785  0.4115 -0.0923
  315MOL0     H42466   8.347   6.766   7.814  1.6807  0.7605 -2.9407
  315MOL0     H42467   8.423   6.609   7.809 -1.1007 -0.4174  2.5653
  315MOL0     H42468   8.518   6.685   8.037 -0.4698 -0.6384  1.4389
  315MOL0     H42469   8.386   6.801   8.048  4.0696  3.8868 -3.4376
  315MOL0     H42470   8.218   6.634   8.000 -1.5021 -2.6096  0.1775
  315MOL0     H42471   8.344   6.494   8.008 -0.8745 -0.2831 -0.3650
  315MOL0     H42472   8.270   6.692   8.228 -0.3494  0.7390 -2.5616
  315MOL0     H42473   8.216   6.521   8.210  1.0457 -0.1841  0.1682
  315MOL0     H42474   8.511   6.578   8.219 -0.7311 -0.2104 -1.4602
  315MOL0     H42475   8.420   6.426   8.224 -2.9797 -0.5517  0.1679
  315MOL0     H42476   8.611   6.642   8.413 -0.8896  1.6185 -0.7212
  315MOL0     H42477   8.574   6.607   8.789 -1.2154 -0.3016 -0.5216
  315MOL0     H42478   8.648   6.729   8.669  0.6777  0.2457  2.1651
  315MOL0     H42479   8.551   6.866   8.812 -1.4515  2.0423 -1.5203
  315MOL0     H42480   8.425   6.749   8.866 -0.0843  1.3510  1.1555
  315MOL0     H42481   8.304   6.803   8.655  0.7047 -1.2400  1.4087
  315MOL0     H42482   8.435   6.880   8.575  0.2306 -1.3358  1.0010
  315MOL0     H42483   8.396   7.043   8.807 -0.6945  1.3883 -0.1045
  315MOL0     H42484   8.237   6.992   8.760  0.0063 -2.2663  0.6155
  315MOL0     H42485   8.614   7.043   8.634  0.3415 -1.2584 -0.4056
  315MOL0     H42486   8.820   7.069   8.637 -2.5902  0.3246 -0.6215
  315MOL0     H42487   8.900   7.197   8.554  2.5753 -1.2358  1.7594
  315MOL0     H42488   8.867   7.206   8.732  0.9852 -0.4395 -0.8713
  315MOL0     H42489   8.648   7.837   8.618 -0.8052 -2.6920 -3.1856
  315MOL0     H42490   8.763   8.060   8.620  2.6813  1.4957  1.7412
  315MOL0     H42491   8.910   8.255   8.667 -0.5388  0.8174 -1.0208
  315MOL0     H42492   8.953   8.142   8.797 -0.1932 -0.0171  0.0022
  315MOL0     H42493   9.116   8.291   8.851  2.8254  0.5222  0.3706
  315MOL0     H42494   9.203   8.242   8.712  0.0764 -1.6412  2.1341
  315MOL0     H42495   9.006   8.465   8.706 -0.7908 -2.2131 -1.0372
  315MOL0     H42496   9.093   8.404   8.567  2.1998  0.7605 -0.6701
  315MOL0     H42497   9.178   8.597   8.662 -0.3850 -1.9946 -3.4255
  315MOL0     H42498   9.244   8.533   8.810 -0.8826 -2.6268  0.9238
  315MOL0     H42499   9.319   8.439   8.536 -2.5825  0.3931 -0.1443
  315MOL0     H42500   9.374   8.377   8.693 -1.6945 -1.0984  1.1766
  315MOL0     H42501   9.428   8.638   8.548  1.7679  0.0761 -0.3569
  315MOL0     H42502   9.478   8.618   8.722  0.8922 -1.8172  0.2152
  315MOL0     H42503   9.552   8.407   8.511  3.4468 -1.1149 -0.0749
  315MOL0     H42504   9.598   8.418   8.683 -1.8499  0.2471  1.6874
  315MOL0     H42505   9.653   8.644   8.495  0.6637  0.4154  0.8105
  315MOL0     H42506   9.753   8.489   8.493 -1.8255 -2.2645 -0.0418
  315MOL0     H42507   9.134   7.854   8.539  0.0293  0.2158 -3.3145
  315MOL0     H42508   9.018   7.649   8.541 -0.8295 -0.8944 -2.3404
  315MOL0     H42509   8.509   7.525   8.576 -0.7613 -0.6594  1.9816
  315MOL0     H42510   8.338   7.380   8.592  0.4157  1.1318 -3.9016
  315MOL0     H42511   8.665   6.912   7.459  2.5896 -1.3486 -0.7575
  315MOL0     H42512   8.835   6.979   7.300 -0.3091 -0.6654 -0.4009
  315MOL0     H42513   9.183   7.057   7.006 -2.3925  1.6756  0.0605
  315MOL0     H42514   9.388   7.159   6.917  2.9827 -1.5986  2.3211
  315MOL0     H42515   9.442   7.360   6.749 -0.8283 -1.0761 -0.4830
  315MOL0     H42516   9.344   7.492   6.815  0.0890  2.0075 -6.8091
  315MOL0     H42517   9.635   7.508   6.795 -1.2069 -1.9880  1.4425
  315MOL0     H42518   9.520   7.645   6.847 -1.1423  2.0390 -3.2984
  315MOL0     H42519   9.417   7.639   6.617  1.1500  1.0120  0.4466
  315MOL0     H42520   9.509   7.503   6.581 -0.4439 -0.5607 -0.6357
  315MOL0     H42521   9.738   7.644   6.591  0.3593 -0.7253 -3.6683
  315MOL0     H42522   9.641   7.780   6.644  0.1300 -0.3982  1.7842
  315MOL0     H42523   9.541   7.766   6.231 -0.0394  3.6353  0.0709
  315MOL0     H42524   9.329   7.519   7.128  7.3323 -3.5307  2.9159
  315MOL0     H42525   9.115   7.421   7.228  0.8490  3.5136 -1.2519
  316MOL0     O42526   7.001   0.486   5.699  0.3919  0.6598 -0.3218
  316MOL0     C42527   6.882   0.461   5.667 -0.1190 -0.4727 -0.6723
  316MOL0     O42528   6.833   0.466   5.544 -0.2128 -0.8967  0.2244
  316MOL0     C42529   6.922   0.438   5.442  1.2052  0.6635  1.1153
  316MOL0     C42530   6.973   0.308   5.426  0.2160 -0.9825  0.3595
  316MOL0     C42531   7.070   0.286   5.331 -1.1158 -0.8033  0.4410
  316MOL0     C42532   7.102   0.385   5.233 -0.0078 -0.0423  0.5629
  316MOL0     O42533   7.185   0.369   5.124  0.6233 -0.7667 -0.3516
  316MOL0     C42534   7.315   0.311   5.160 -1.0755  0.3794 -0.1536
  316MOL0     C42535   7.418   0.329   5.052 -0.1128 -0.2466  0.2280
  316MOL0     C42536   7.550   0.260   5.066  0.7732  0.7102  0.2183
  316MOL0     C42537   7.633   0.332   5.163  0.7287 -0.3676  0.0767
  316MOL0     C42538   7.776   0.289   5.156 -0.6615  0.0446  0.5097
  316MOL0     C42539   7.792   0.134   5.155 -0.0816  0.5413  0.6613
  316MOL0     C42540   7.934   0.119   5.130  0.5794  0.4168  0.7686
  316MOL0     C42541   7.979  -0.024   5.107  0.0758  0.4855  0.5307
  316MOL0     N42542   8.120  -0.043   5.127  0.5897 -0.2249 -0.0573
  316MOL0     C42543   8.185  -0.049   5.249 -1.0396 -0.1750  0.0989
  316MOL0     C42544   8.307  -0.095   5.220 -0.2551 -0.1313  0.2410
  316MOL0     C42545   8.417  -0.116   5.321 -0.9999 -0.2346  0.0971
  316MOL0     C42546   8.371  -0.166   5.450  0.2559 -0.3275 -0.7104
  316MOL0     C42547   8.455  -0.121   5.577 -0.5971  0.0941 -0.9077
  316MOL0     C42548   8.597  -0.182   5.565 -0.0380  0.0226 -0.2170
  316MOL0     O42549   8.681  -0.132   5.669 -0.1303 -0.5019 -0.8237
  316MOL0     C42550   8.781  -0.216   5.717  0.8981 -0.7900 -0.5088
  316MOL0     C42551   8.842  -0.168   5.832 -0.0991 -0.3772  1.0787
  316MOL0     C42552   8.937  -0.241   5.904  0.1870 -0.1201 -0.4528
  316MOL0     C42553   8.982  -0.183   6.042 -0.2017 -0.0010 -0.6480
  316MOL0     C42554   8.973  -0.371   5.865 -0.9407 -0.2553  1.1605
  316MOL0     C42555   9.078  -0.452   5.934 -0.5412  0.5859 -0.1717
  316MOL0     O42556   9.096  -0.575   5.882 -0.5254  0.9627 -0.2603
  316MOL0     C42557   9.185  -0.652   5.949  0.5665 -0.1338 -0.1393
  316MOL0     C42558   9.325  -0.634   5.942  0.2224  0.6794 -0.0967
  316MOL0     C42559   9.414  -0.738   5.995  0.0089 -0.1729 -0.0366
  316MOL0     C42560   9.360  -0.853   6.059 -1.3858  0.7054 -0.1408
  316MOL0     O42561   9.458  -0.936   6.119 -0.6927 -0.7337 -0.2885
  316MOL0     C42562   9.451  -1.072   6.070  1.1533  0.7520 -0.3802
  316MOL0     C42563   9.567  -1.159   6.115  0.4828 -0.6934  1.0410
  316MOL0     C42564   9.710  -1.102   6.087  0.4482  0.0089 -0.1451
  316MOL0     C42565   9.717  -0.948   6.070 -0.0320  1.0232 -0.8034
  316MOL0     C42566   9.855  -0.891   6.054 -0.1442 -0.3360 -0.4183
  316MOL0     C42567   9.895  -0.875   5.908 -0.4951 -0.3912 -0.1820
  316MOL0     C42568  10.047  -0.862   5.884 -0.6983  0.4914  0.6171
  316MOL0     C42569  10.083  -0.778   5.748  0.4154  0.2616 -0.0611
  316MOL0    Cl42570  10.029  -0.614   5.768  0.2651  0.8878 -0.5231
  316MOL0     C42571   9.217  -0.867   6.077  0.2927  0.8664 -0.0803
  316MOL0     C42572   9.140  -0.770   6.009 -0.2758  0.0846 -0.0214
  316MOL0     O42573   9.145  -0.401   6.021 -0.3862 -0.2723 -0.7259
  316MOL0     C42574   8.912  -0.425   5.748 -0.2396 -0.2695  1.4878
  316MOL0     C42575   8.815  -0.345   5.676 -0.9637  0.0277  0.2042
  316MOL0     N42576   8.314  -0.109   5.079  1.1532  1.6337 -0.1401
  316MOL0     N42577   8.204  -0.065   5.026 -0.2180  0.2589 -0.3177
  316MOL0     C42578   7.022   0.501   5.234  0.6582 -0.0238  0.4800
  316MOL0     C42579   6.934   0.529   5.337  0.3441 -0.5386  0.8156
  316MOL0     C42580   6.798   0.419   5.787  1.4563  0.1785 -0.1772
  316MOL0     C42581   6.836   0.441   5.914 -0.1280  0.9359 -0.1434
  316MOL0     C42582   6.765   0.391   6.024 -0.0203  0.5239 -0.5725
  316MOL0     C42583   6.640   0.322   6.003 -0.1272 -0.0364  1.2777
  316MOL0     O42584   6.547   0.270   6.094 -0.5199 -0.2346  0.0231
  316MOL0     C42585   6.541   0.338   6.213  0.3918 -0.0502 -0.1140
  316MOL0     C42586   6.457   0.253   6.305  0.6897  0.4501 -0.5794
  316MOL0     C42587   6.308   0.238   6.246 -0.4537 -0.8555 -0.5834
  316MOL0     C42588   6.240   0.116   6.296  0.0612 -0.1439  0.5219
  316MOL0     C42589   6.208   0.139   6.433  0.0437  0.0413 -0.0054
  316MOL0     C42590   6.174   0.167   6.541 -0.4513  0.4212 -1.3472
  316MOL0     C42591   6.602   0.300   5.868  0.3873 -0.1724  1.0365
  316MOL0     C42592   6.680   0.337   5.765  0.8050 -0.4898  0.2408
  316MOL0     H42593   6.946   0.236   5.502 -1.1278 -3.5740 -2.3748
  316MOL0     H42594   7.121   0.191   5.345  1.3177  0.6404  2.1059
  316MOL0     H42595   7.346   0.349   5.258  1.0966 -0.6332 -0.3955
  316MOL0     H42596   7.306   0.203   5.172  1.6673 -0.0810 -1.5596
  316MOL0     H42597   7.363   0.274   4.975 -4.0557 -1.4772  3.5334
  316MOL0     H42598   7.420   0.435   5.025 -2.1367 -0.4775 -0.9911
  316MOL0     H42599   7.529   0.163   5.113 -0.5511  1.9307  2.3740
  316MOL0     H42600   7.599   0.267   4.969 -0.0928  3.4980 -0.1034
  316MOL0     H42601   7.635   0.438   5.136 -1.9234 -0.4374 -0.6906
  316MOL0     H42602   7.595   0.337   5.265  2.8136  2.9709  0.8685
  316MOL0     H42603   7.826   0.333   5.069 -2.7053  0.9317 -0.2789
  316MOL0     H42604   7.829   0.333   5.241 -2.0710  1.4909  0.6942
  316MOL0     H42605   7.775   0.096   5.256  0.9146 -3.0968 -0.4211
  316MOL0     H42606   7.729   0.082   5.082  1.6194  0.3532 -0.7424
  316MOL0     H42607   7.964   0.161   5.033  1.3138 -0.0831  0.7727
  316MOL0     H42608   7.988   0.159   5.216 -2.4146  0.8064  2.5998
  316MOL0     H42609   7.964  -0.065   5.007 -0.6093 -3.4796  2.0579
  316MOL0     H42610   7.930  -0.082   5.186 -0.3139  0.0536 -0.0157
  316MOL0     H42611   8.142  -0.030   5.347  0.1447 -2.9295  1.2709
  316MOL0     H42612   8.488  -0.188   5.279 -1.0660  0.1684 -0.7435
  316MOL0     H42613   8.470  -0.021   5.334 -2.7650  1.4666 -3.6158
  316MOL0     H42614   8.349  -0.273   5.439  0.3696 -0.3550 -0.6711
  316MOL0     H42615   8.267  -0.136   5.465  0.2009  2.2464 -4.7167
  316MOL0     H42616   8.425  -0.172   5.669  4.0352 -4.6690 -1.5555
  316MOL0     H42617   8.468  -0.013   5.584 -0.1862  0.1006 -1.7191
  316MOL0     H42618   8.639  -0.170   5.464  3.5924  0.2124  1.1833
  316MOL0     H42619   8.601  -0.291   5.568  0.4928  0.0514  0.1020
  316MOL0     H42620   8.827  -0.064   5.857 -1.2660  0.1816 -1.5729
  316MOL0     H42621   8.915  -0.100   6.067 -0.8902  0.3130 -3.2420
  316MOL0     H42622   8.975  -0.254   6.125 -1.2598  1.1963  0.3284
  316MOL0     H42623   9.085  -0.147   6.037 -0.9564  2.1594 -3.3809
  316MOL0     H42624   9.348  -0.537   5.900 -4.2764  2.6898  1.4446
  316MOL0     H42625   9.519  -0.710   5.998 -0.1950  0.5659  0.3597
  316MOL0     H42626   9.357  -1.116   6.103  1.5262  1.4305  1.7075
  316MOL0     H42627   9.441  -1.071   5.961  1.3550  1.3061 -0.3959
  316MOL0     H42628   9.551  -1.174   6.222 -5.7777  1.9223  0.8986
  316MOL0     H42629   9.552  -1.252   6.060 -1.0691  0.4280 -0.5286
  316MOL0     H42630   9.744  -1.137   5.990  0.4185  0.6032 -0.3712
  316MOL0     H42631   9.777  -1.131   6.169  0.5424 -3.1911 -1.2162
  316MOL0     H42632   9.659  -0.916   5.983  1.7933  0.2564 -2.3730
  316MOL0     H42633   9.686  -0.907   6.167  2.0595  0.8605 -0.0215
  316MOL0     H42634   9.928  -0.939   6.120 -0.9773 -2.2803 -0.8430
  316MOL0     H42635   9.859  -0.791   6.100  0.0059 -0.1041 -0.9241
  316MOL0     H42636   9.859  -0.959   5.848  0.9027  0.7411 -2.7778
  316MOL0     H42637   9.833  -0.792   5.874 -1.1977 -1.0540 -0.5552
  316MOL0     H42638  10.092  -0.961   5.872 -1.3344  0.4878 -3.4392
  316MOL0     H42639  10.097  -0.810   5.965 -0.4263  0.9654  0.1530
  316MOL0     H42640  10.034  -0.824   5.661  0.3307  1.2385 -0.5450
  316MOL0     H42641  10.191  -0.771   5.737  0.6707 -2.5544 -0.0202
  316MOL0     H42642   9.180  -0.946   6.141  1.7234  0.2761  0.0670
  316MOL0     H42643   9.034  -0.789   6.007 -0.8045  2.6117  0.4670
  316MOL0     H42644   8.932  -0.517   5.694  0.2183  1.0315 -0.6770
  316MOL0     H42645   8.793  -0.382   5.577  4.4482 -1.8885 -0.6565
  316MOL0     H42646   7.056   0.572   5.160  2.0876  0.4851  1.5725
  316MOL0     H42647   6.875   0.619   5.345 -0.7154 -1.2226  0.9944
  316MOL0     H42648   6.923   0.503   5.934  0.4593 -0.1909  0.8988
  316MOL0     H42649   6.807   0.409   6.122 -1.2131 -0.9987  0.2594
  316MOL0     H42650   6.638   0.370   6.252  1.7685 -0.3873 -2.9657
  316MOL0     H42651   6.482   0.429   6.195  0.7250 -0.2452 -2.6593
  316MOL0     H42652   6.436   0.295   6.404 -0.5953  2.0649 -1.4842
  316MOL0     H42653   6.483   0.147   6.314 -2.9728 -0.6341 -0.8515
  316MOL0     H42654   6.323   0.241   6.137  1.5954 -0.3362 -0.3235
  316MOL0     H42655   6.249   0.329   6.263  0.0168 -0.6908  0.2214
  316MOL0     H42656   6.295   0.024   6.274  0.1072  0.2127 -0.9144
  316MOL0     H42657   6.147   0.111   6.240 -1.2014  1.6949  2.3002
  316MOL0     H42658   6.144   0.190   6.641 -5.9635  2.1334 -3.0595
  316MOL0     H42659   6.503   0.257   5.858  0.0571  0.6436  0.7348
  316MOL0     H42660   6.653   0.308   5.664  0.8379 -1.5772  0.5388
  317MOL0     O42661   3.453   0.426   0.458  0.1382 -0.4003 -0.1475
  317MOL0     C42662   3.483   0.545   0.454  0.2177 -0.2200 -0.7358
  317MOL0     O42663   3.526   0.615   0.564  0.6202 -0.4336 -0.2000
  317MOL0     C42664   3.445   0.599   0.677 -0.0732  0.5018  0.2230
  317MOL0     C42665   3.506   0.530   0.791  0.1159  0.7625  0.0404
  317MOL0     C42666   3.426   0.516   0.902  0.8109  0.7613  0.2158
  317MOL0     C42667   3.290   0.561   0.909  0.1716  0.2134 -0.3402
  317MOL0     O42668   3.219   0.549   1.023  0.3503 -0.8563 -0.6983
  317MOL0     C42669   3.287   0.537   1.145  0.1365  0.4035 -1.0057
  317MOL0     C42670   3.213   0.593   1.260  0.2413  0.0630 -0.1841
  317MOL0     C42671   3.242   0.741   1.275 -0.2506 -0.9929 -0.6885
  317MOL0     C42672   3.379   0.782   1.324  0.4889 -0.8133  0.4307
  317MOL0     C42673   3.428   0.897   1.229 -0.9070 -0.8428 -0.2265
  317MOL0     C42674   3.466   0.843   1.091 -0.1039  0.3493 -0.0413
  317MOL0     C42675   3.529   0.959   1.007 -0.2694 -0.0349 -0.6289
  317MOL0     C42676   3.582   0.912   0.872 -1.5865 -0.4364  0.2565
  317MOL0     N42677   3.523   0.976   0.756 -1.3081  0.2281 -0.1381
  317MOL0     C42678   3.389   0.972   0.717 -0.3245 -0.9747 -0.9804
  317MOL0     C42679   3.367   1.085   0.649  0.1660  0.5653 -0.2881
  317MOL0     C42680   3.231   1.136   0.603  0.3979 -0.6796  0.1254
  317MOL0     C42681   3.192   1.061   0.472 -0.3338  0.2192  0.0876
  317MOL0     C42682   3.075   1.143   0.413  0.1714 -0.1227  0.2237
  317MOL0     C42683   3.112   1.239   0.300  1.0535  0.1730  0.3338
  317MOL0     O42684   3.163   1.166   0.191  0.5437  0.3218 -0.4816
  317MOL0     C42685   3.220   1.244   0.091 -0.3563 -0.5234 -0.6787
  317MOL0     C42686   3.258   1.385   0.097 -0.2561 -0.2153 -0.7802
  317MOL0     C42687   3.304   1.465  -0.008 -0.1269  0.6066 -0.5776
  317MOL0     C42688   3.341   1.607   0.022 -0.3314 -0.7230  0.0256
  317MOL0     C42689   3.333   1.388  -0.126 -0.2311 -0.0105  0.7807
  317MOL0     C42690   3.385   1.457  -0.244  0.2328  0.2937  0.3676
  317MOL0     O42691   3.482   1.387  -0.307  0.8063  0.0787 -0.1630
  317MOL0     C42692   3.527   1.417  -0.432  0.0478 -0.9187 -0.5008
  317MOL0     C42693   3.429   1.416  -0.537  0.3384 -0.1944  0.8881
  317MOL0     C42694   3.470   1.451  -0.666  0.5371 -0.5633  1.1617
  317MOL0     C42695   3.601   1.496  -0.699  0.7915  0.3984 -1.0147
  317MOL0     O42696   3.651   1.531  -0.818 -0.9623 -0.9012  0.1034
  317MOL0     C42697   3.549   1.515  -0.915 -1.3891 -0.9485  0.5137
  317MOL0     C42698   3.631   1.540  -1.052  0.2798 -0.8602 -0.3757
  317MOL0     C42699   3.711   1.670  -1.075  0.2310  0.2100  0.3338
  317MOL0     C42700   3.795   1.663  -1.200 -0.0196 -0.5781 -0.0247
  317MOL0     C42701   3.880   1.788  -1.189 -0.7441  0.8357 -0.3108
  317MOL0     C42702   3.791   1.915  -1.186 -0.2988 -0.3252  0.0176
  317MOL0     C42703   3.875   2.040  -1.224 -0.1090  0.2951  0.4548
  317MOL0     C42704   3.789   2.169  -1.207 -0.2251 -0.3684  0.8435
  317MOL0    Cl42705   3.886   2.296  -1.302  0.0910  0.0849  0.0531
  317MOL0     C42706   3.691   1.491  -0.597  0.2688 -1.0270  0.2142
  317MOL0     C42707   3.659   1.448  -0.470  0.4845 -0.1404 -0.9239
  317MOL0     O42708   3.339   1.568  -0.275  0.7906  0.0474 -0.1736
  317MOL0     C42709   3.296   1.263  -0.136 -0.2419  0.4654  0.1008
  317MOL0     C42710   3.240   1.184  -0.033 -1.3383  0.1951  0.6293
  317MOL0     N42711   3.486   1.151   0.626  0.2220 -0.0828  0.0900
  317MOL0     N42712   3.578   1.083   0.692 -0.4759  0.5625  0.4298
  317MOL0     C42713   3.225   0.618   0.792 -0.5285 -0.0668  0.5461
  317MOL0     C42714   3.304   0.634   0.675  0.3908 -0.0160  0.2355
  317MOL0     C42715   3.475   0.629   0.334 -0.2509 -0.0775 -0.3232
  317MOL0     C42716   3.487   0.575   0.212  0.3670  0.1447 -0.0676
  317MOL0     C42717   3.477   0.647   0.092 -0.8108  0.4755  1.1787
  317MOL0     C42718   3.445   0.785   0.097  1.0881 -0.0197 -0.6670
  317MOL0     O42719   3.436   0.864  -0.022  1.0242  0.5080  1.0210
  317MOL0     C42720   3.558   0.931  -0.055 -0.8457 -0.5437  0.7637
  317MOL0     C42721   3.568   1.055   0.025 -0.9188 -0.1601  0.2731
  317MOL0     C42722   3.689   1.054   0.123  1.1453  0.4451  0.8636
  317MOL0     C42723   3.723   1.192   0.173  0.1684  0.9617 -0.4962
  317MOL0     C42724   3.609   1.241   0.255 -0.0316 -0.4801  0.4236
  317MOL0     C42725   3.534   1.303   0.323  0.2227 -0.6363  0.2050
  317MOL0     C42726   3.431   0.848   0.217  0.4401 -0.2407  0.0878
  317MOL0     C42727   3.447   0.772   0.335 -0.2335  0.3341 -0.9028
  317MOL0     H42728   3.603   0.482   0.785 -0.6524 -0.6714 -2.2825
  317MOL0     H42729   3.471   0.465   0.987 -1.8324 -1.1182  0.5795
  317MOL0     H42730   3.272   0.429   1.148  3.4236 -0.1766 -2.0252
  317MOL0     H42731   3.394   0.561   1.145  0.0101  1.0939 -2.5109
  317MOL0     H42732   3.107   0.571   1.244  0.1392 -1.9812  2.5722
  317MOL0     H42733   3.237   0.529   1.345 -1.5784  0.8568  1.0028
  317MOL0     H42734   3.216   0.793   1.182  1.2510  1.9848  0.4064
  317MOL0     H42735   3.176   0.775   1.355 -0.3596  3.0448 -2.2494
  317MOL0     H42736   3.376   0.836   1.419 -1.2440  0.3119 -0.2223
  317MOL0     H42737   3.449   0.698   1.320 -1.7536 -2.7644 -0.2818
  317MOL0     H42738   3.347   0.971   1.226 -0.1476  0.0003 -0.3087
  317MOL0     H42739   3.514   0.940   1.281 -2.4742  1.0945  0.8723
  317MOL0     H42740   3.550   0.774   1.106  1.6718  1.9110 -2.1590
  317MOL0     H42741   3.387   0.782   1.047  0.6144  1.1667 -2.6539
  317MOL0     H42742   3.452   1.034   0.990 -0.2325 -0.2993 -2.0843
  317MOL0     H42743   3.614   0.994   1.066 -1.9312 -1.2367  2.7017
  317MOL0     H42744   3.567   0.805   0.858 -0.9683 -0.7319  1.6341
  317MOL0     H42745   3.690   0.929   0.882 -1.6109 -0.4576  0.5790
  317MOL0     H42746   3.311   0.909   0.758 -0.8333 -1.2416 -2.3039
  317MOL0     H42747   3.158   1.118   0.682  1.2614 -3.1949  0.4651
  317MOL0     H42748   3.234   1.245   0.593 -3.1540 -0.2483  2.2200
  317MOL0     H42749   3.151   0.963   0.494 -0.7403  0.1371 -0.9943
  317MOL0     H42750   3.271   1.065   0.397 -0.5676  1.2586 -0.1237
  317MOL0     H42751   3.022   1.198   0.492 -0.9188  4.7167 -3.3614
  317MOL0     H42752   3.000   1.076   0.371 -1.9584  1.0734  1.9309
  317MOL0     H42753   3.180   1.316   0.335  1.4672  0.1468 -0.4011
  317MOL0     H42754   3.031   1.296   0.254  2.0150  2.4068  1.2835
  317MOL0     H42755   3.236   1.431   0.193 -1.1428 -1.4723 -0.3555
  317MOL0     H42756   3.400   1.653  -0.058 -0.1665  1.8592  1.5123
  317MOL0     H42757   3.252   1.670   0.012  1.1386  1.6194  0.8431
  317MOL0     H42758   3.388   1.620   0.120 -2.7659  1.6063  1.0186
  317MOL0     H42759   3.325   1.399  -0.512  0.7649 -0.9671  2.2163
  317MOL0     H42760   3.386   1.453  -0.735 -0.7442  1.6935  2.6558
  317MOL0     H42761   3.501   1.417  -0.918 -2.7936 -0.2614 -1.7417
  317MOL0     H42762   3.472   1.591  -0.902  0.0878  0.8513 -0.6776
  317MOL0     H42763   3.715   1.470  -1.049  1.4865  0.5928  1.4849
  317MOL0     H42764   3.561   1.512  -1.132 -1.3795 -0.2645  0.7972
  317MOL0     H42765   3.778   1.687  -0.990  1.6678  2.4492 -1.1441
  317MOL0     H42766   3.639   1.749  -1.055 -1.7177 -1.6224  0.9047
  317MOL0     H42767   3.851   1.570  -1.213 -1.3533 -1.4603  0.3674
  317MOL0     H42768   3.732   1.679  -1.288  3.0704  1.2379 -2.0906
  317MOL0     H42769   3.959   1.786  -1.264 -0.7330 -1.9117 -0.2978
  317MOL0     H42770   3.941   1.788  -1.098 -1.3525  1.1163  0.1023
  317MOL0     H42771   3.716   1.900  -1.264 -0.3948  2.3112 -0.4968
  317MOL0     H42772   3.737   1.933  -1.093 -4.3482 -1.2223 -1.9107
  317MOL0     H42773   3.907   2.032  -1.328 -4.8427 -1.5795 -1.1315
  317MOL0     H42774   3.959   2.042  -1.154  0.4824  1.2479 -0.2583
  317MOL0     H42775   3.780   2.189  -1.100  3.1801 -0.8413  1.3412
  317MOL0     H42776   3.691   2.157  -1.254  0.8600  0.0267 -1.7377
  317MOL0     H42777   3.791   1.533  -0.605  1.0933 -1.7487  4.3978
  317MOL0     H42778   3.735   1.458  -0.393  0.5211 -2.0375 -0.6841
  317MOL0     H42779   3.312   1.223  -0.235 -2.7051  1.2397 -0.6639
  317MOL0     H42780   3.224   1.080  -0.061 -0.3450  0.3190 -0.4508
  317MOL0     H42781   3.123   0.647   0.814 -1.0665 -1.3643 -0.0974
  317MOL0     H42782   3.254   0.670   0.585 -0.3444 -0.3403  0.5076
  317MOL0     H42783   3.492   0.467   0.203 -1.2021 -0.4878  4.3856
  317MOL0     H42784   3.496   0.600  -0.004  5.7517 -0.4134  2.4226
  317MOL0     H42785   3.644   0.865  -0.043 -0.5618 -0.1461  0.9381
  317MOL0     H42786   3.548   0.953  -0.161  0.6257  0.6967  0.8325
  317MOL0     H42787   3.477   1.067   0.085  0.1187 -0.7294  2.0281
  317MOL0     H42788   3.573   1.142  -0.041 -1.1671 -0.7958 -0.6058
  317MOL0     H42789   3.779   1.014   0.077  2.2406 -0.7273  3.8124
  317MOL0     H42790   3.668   0.985   0.205  1.7729  1.0474  1.5440
  317MOL0     H42791   3.744   1.262   0.092 -1.9392  3.0494  0.6469
  317MOL0     H42792   3.805   1.184   0.245 -0.1715 -1.6325 -0.3137
  317MOL0     H42793   3.463   1.360   0.380  1.9350  0.0415  1.7780
  317MOL0     H42794   3.398   0.950   0.235  3.2291  0.4760  1.9045
  317MOL0     H42795   3.450   0.819   0.433  2.1217  1.0272 -1.2252
  318MOL0     O42796   7.803   6.569   9.768 -0.0435  0.6985  0.4119
  318MOL0     C42797   7.821   6.476   9.692 -0.9794 -0.0801 -0.5010
  318MOL0     O42798   7.925   6.465   9.598  0.6948 -0.1569  0.1630
  318MOL0     C42799   8.020   6.557   9.582  0.2400  0.4518  0.3390
  318MOL0     C42800   8.059   6.669   9.654  0.1981 -0.3624  0.2461
  318MOL0     C42801   8.164   6.754   9.607  0.8794 -0.6642  0.6681
  318MOL0     C42802   8.217   6.733   9.477  0.4134 -0.7821  0.1426
  318MOL0     O42803   8.310   6.814   9.416  0.4431 -0.4530 -1.1775
  318MOL0     C42804   8.439   6.852   9.479 -0.4338  0.3640  1.2583
  318MOL0     C42805   8.427   7.001   9.537  0.0554 -0.4394 -0.0254
  318MOL0     C42806   8.565   7.064   9.560 -0.1800 -0.4054 -0.8529
  318MOL0     C42807   8.554   7.218   9.584 -0.5862  0.3566  0.3095
  318MOL0     C42808   8.496   7.293   9.464 -0.1546 -1.0368 -1.0107
  318MOL0     C42809   8.513   7.450   9.490  0.2365  0.1644  0.3263
  318MOL0     C42810   8.416   7.526   9.388 -0.2371 -0.6723 -0.1303
  318MOL0     C42811   8.269   7.541   9.446  0.4464  0.6182 -0.1174
  318MOL0     N42812   8.175   7.594   9.350 -0.7249 -0.0524 -0.1398
  318MOL0     C42813   8.087   7.697   9.370 -0.3326  0.4224  0.2764
  318MOL0     C42814   8.027   7.717   9.243  0.2463  0.2759 -0.0327
  318MOL0     C42815   7.927   7.826   9.218 -0.1605 -0.1415  0.2866
  318MOL0     C42816   7.998   7.959   9.185  0.1871 -0.3718  0.5167
  318MOL0     C42817   8.106   7.958   9.074  0.3957 -1.2389 -0.1859
  318MOL0     C42818   8.185   8.086   9.043  0.6357  0.1375  0.3135
  318MOL0     O42819   8.238   8.077   8.911  0.8041 -0.0823  0.3231
  318MOL0     C42820   8.297   8.181   8.851  0.1474  0.1103  0.8359
  318MOL0     C42821   8.283   8.317   8.888  0.9185  0.1014  0.5251
  318MOL0     C42822   8.342   8.421   8.825 -0.3806 -0.3355 -0.1466
  318MOL0     C42823   8.336   8.561   8.885 -0.3818 -0.7195 -0.0987
  318MOL0     C42824   8.426   8.398   8.716 -0.0164 -0.5707  0.4364
  318MOL0     C42825   8.497   8.507   8.630 -0.1515 -0.0264 -0.4276
  318MOL0     O42826   8.411   8.593   8.570 -0.7395 -0.3756  0.2344
  318MOL0     C42827   8.451   8.684   8.478 -0.4741 -0.2292 -0.7579
  318MOL0     C42828   8.485   8.648   8.350 -0.4991  0.0752 -0.1917
  318MOL0     C42829   8.510   8.746   8.254 -0.1386 -0.1919 -0.3388
  318MOL0     C42830   8.512   8.885   8.281 -0.7487 -0.2534 -0.4455
  318MOL0     O42831   8.554   8.987   8.201 -1.7605 -0.0745  0.1058
  318MOL0     C42832   8.655   8.956   8.109 -0.3515  0.1977 -0.6485
  318MOL0     C42833   8.775   8.906   8.180 -1.5206 -0.4131  0.4862
  318MOL0     C42834   8.864   9.017   8.227  0.4794 -0.0178 -0.3354
  318MOL0     C42835   8.950   9.069   8.121 -0.6164 -0.6520  1.1007
  318MOL0     C42836   8.995   9.220   8.143  0.3136  0.2441 -1.4996
  318MOL0     C42837   9.101   9.219   8.261 -0.3662 -0.0177 -0.3107
  318MOL0     C42838   9.140   9.346   8.318 -0.2748  0.0736 -0.6458
  318MOL0     C42839   9.205   9.446   8.221 -0.6249 -0.5549 -0.9084
  318MOL0    Cl42840   9.081   9.536   8.127  0.3326 -0.3989 -0.6101
  318MOL0     C42841   8.478   8.918   8.411  0.3955  0.2976 -0.3410
  318MOL0     C42842   8.450   8.825   8.506 -0.0250 -0.4631 -0.7387
  318MOL0     O42843   8.615   8.509   8.627  0.1518 -0.3366 -0.1302
  318MOL0     C42844   8.445   8.265   8.680 -0.4025  0.0667  0.1104
  318MOL0     C42845   8.382   8.154   8.743 -0.4268 -0.7385  0.3913
  318MOL0     N42846   8.087   7.633   9.152  0.4611  0.0500  0.8523
  318MOL0     N42847   8.173   7.561   9.218 -0.7231 -0.2814  0.6758
  318MOL0     C42848   8.183   6.620   9.408 -0.8402 -0.6041 -0.0723
  318MOL0     C42849   8.093   6.535   9.464  0.3966 -0.4025  0.0125
  318MOL0     C42850   7.721   6.368   9.686 -0.1924  0.1864 -0.4183
  318MOL0     C42851   7.603   6.382   9.754  0.0016  0.0088  0.5743
  318MOL0     C42852   7.490   6.293   9.738 -0.5179  1.0588 -0.2620
  318MOL0     C42853   7.505   6.191   9.640  0.4342  0.4069 -0.3145
  318MOL0     O42854   7.407   6.101   9.607 -0.3843  0.4938 -0.0373
  318MOL0     C42855   7.303   6.125   9.512 -0.4167 -0.0452  0.4049
  318MOL0     C42856   7.173   6.077   9.566 -0.2877 -0.0949  0.1895
  318MOL0     C42857   7.137   6.159   9.703 -0.5207 -0.1539 -0.3576
  318MOL0     C42858   6.990   6.167   9.759  0.0702  0.2611 -1.0459
  318MOL0     C42859   6.895   6.217   9.669  0.5694  0.0240 -0.4311
  318MOL0     C42860   6.820   6.243   9.587  0.9114 -0.7931  0.2026
  318MOL0     C42861   7.622   6.177   9.573  0.4081  0.7334 -0.0416
  318MOL0     C42862   7.733   6.263   9.592  0.5000  0.0731 -0.9872
  318MOL0     H42863   8.010   6.677   9.751 -1.8398 -0.5586 -0.7054
  318MOL0     H42864   8.197   6.840   9.665  1.5702  1.0531 -2.0610
  318MOL0     H42865   8.480   6.789   9.558 -0.7044 -1.1787  0.2106
  318MOL0     H42866   8.505   6.853   9.392 -2.1950 -0.3793 -0.1548
  318MOL0     H42867   8.370   7.059   9.465 -1.3261 -1.7090 -0.0025
  318MOL0     H42868   8.371   6.993   9.631  1.3373  0.6013  0.8812
  318MOL0     H42869   8.619   7.021   9.645 -1.3035  0.8543  0.5382
  318MOL0     H42870   8.615   7.041   9.466  0.2409 -1.1534 -0.4530
  318MOL0     H42871   8.497   7.234   9.676 -2.0445 -2.2344 -0.0319
  318MOL0     H42872   8.650   7.268   9.598 -2.3204  3.6331  1.5369
  318MOL0     H42873   8.536   7.255   9.369  0.2887  2.0121 -2.1463
  318MOL0     H42874   8.389   7.277   9.449 -0.1887 -1.5078 -0.3290
  318MOL0     H42875   8.498   7.472   9.596  1.7376 -0.2758  0.6486
  318MOL0     H42876   8.617   7.470   9.462  0.0002  0.1283 -0.5984
  318MOL0     H42877   8.454   7.627   9.371  3.4312 -1.5379  1.7018
  318MOL0     H42878   8.424   7.465   9.298 -2.0282 -2.4790  0.8598
  318MOL0     H42879   8.284   7.612   9.529  0.3869  2.1094 -1.3322
  318MOL0     H42880   8.225   7.449   9.485  3.3203  0.4370  3.2799
  318MOL0     H42881   8.052   7.749   9.458  1.6376 -0.1304  1.4495
  318MOL0     H42882   7.866   7.783   9.138 -2.4086  1.1094  1.2209
  318MOL0     H42883   7.865   7.833   9.308  1.5136 -3.8962  1.9545
  318MOL0     H42884   8.036   7.999   9.279 -0.7289 -0.5013  0.9589
  318MOL0     H42885   7.920   8.032   9.159  0.7621  0.2160  0.4248
  318MOL0     H42886   8.058   7.927   8.980 -2.3744 -1.2850  1.1410
  318MOL0     H42887   8.190   7.894   9.101 -0.5224 -2.5128 -0.2610
  318MOL0     H42888   8.267   8.088   9.116  3.8262 -3.0664 -2.7243
  318MOL0     H42889   8.108   8.162   9.054  1.2343  1.2995 -2.7057
  318MOL0     H42890   8.213   8.346   8.965  0.8531  0.4292  0.3434
  318MOL0     H42891   8.271   8.571   8.972 -2.0789  0.3808 -1.4347
  318MOL0     H42892   8.439   8.588   8.911 -0.0056  0.5204 -2.5378
  318MOL0     H42893   8.315   8.635   8.808 -0.1351 -0.3479  0.1894
  318MOL0     H42894   8.496   8.552   8.301  1.9319  1.8414 -3.6010
  318MOL0     H42895   8.536   8.712   8.154 -1.1506 -1.8728 -0.0666
  318MOL0     H42896   8.622   8.879   8.039  0.1730 -0.5634 -0.0850
  318MOL0     H42897   8.687   9.045   8.054 -1.0329  0.9022  0.0755
  318MOL0     H42898   8.753   8.840   8.265 -1.9645 -0.3154  0.4461
  318MOL0     H42899   8.834   8.840   8.116 -1.8308 -1.6771  1.4545
  318MOL0     H42900   8.938   8.981   8.299  1.8518 -0.2810 -1.8191
  318MOL0     H42901   8.800   9.100   8.259 -0.0488 -0.6857  0.3844
  318MOL0     H42902   9.038   9.012   8.090 -0.5428  1.9590 -5.0760
  318MOL0     H42903   8.888   9.073   8.031  0.4787 -0.2853  0.3501
  318MOL0     H42904   8.916   9.285   8.183  0.6665  2.9567 -4.7349
  318MOL0     H42905   9.043   9.268   8.058  1.1497 -1.7779 -2.2075
  318MOL0     H42906   9.075   9.153   8.344  2.5968  0.2115  0.9357
  318MOL0     H42907   9.194   9.171   8.228 -0.2993  1.5691 -2.7010
  318MOL0     H42908   9.213   9.318   8.395 -1.8559 -2.7400 -0.0459
  318MOL0     H42909   9.058   9.387   8.378  0.4532 -1.0606  1.2117
  318MOL0     H42910   9.275   9.389   8.159  0.1129 -0.8548  0.1694
  318MOL0     H42911   9.273   9.518   8.267  0.3202  0.1198 -3.2271
  318MOL0     H42912   8.480   9.021   8.447 -2.1897 -0.7764  3.4252
  318MOL0     H42913   8.436   8.852   8.610  1.6178  1.3772 -0.9373
  318MOL0     H42914   8.516   8.241   8.602 -0.0074 -2.0034  1.0255
  318MOL0     H42915   8.414   8.056   8.708 -0.1298  0.1807 -2.1258
  318MOL0     H42916   8.233   6.587   9.318 -0.2728 -1.5918  0.5773
  318MOL0     H42917   8.088   6.434   9.425 -0.9778  0.1415 -1.3096
  318MOL0     H42918   7.586   6.460   9.828 -1.7821 -2.4061  2.9080
  318MOL0     H42919   7.399   6.306   9.796 -2.2190 -0.7558 -2.3542
  318MOL0     H42920   7.290   6.231   9.486  0.6602 -0.7515 -3.7590
  318MOL0     H42921   7.325   6.073   9.419 -3.0909  0.0939 -0.3804
  318MOL0     H42922   7.179   5.969   9.578 -1.5523 -0.3449 -1.1965
  318MOL0     H42923   7.099   6.101   9.489  0.0039  3.8270  0.9083
  318MOL0     H42924   7.172   6.262   9.696 -2.3253  0.6878  1.8224
  318MOL0     H42925   7.192   6.112   9.785  0.0225  1.7602  0.4320
  318MOL0     H42926   6.999   6.217   9.856 -1.7985  0.8084 -1.1130
  318MOL0     H42927   6.952   6.067   9.781 -0.3296  0.8559  1.2095
  318MOL0     H42928   6.763   6.277   9.503  1.0594 -1.7166 -0.2805
  318MOL0     H42929   7.622   6.093   9.504 -0.0344  0.2583  0.5244
  318MOL0     H42930   7.822   6.258   9.530  0.4389 -2.4647 -0.9620
  319MOL0     O42931   6.304   2.344   7.747  0.5950  0.0136  0.0916
  319MOL0     C42932   6.324   2.400   7.641  0.3230  0.1044 -0.3461
  319MOL0     O42933   6.242   2.492   7.591 -0.2949 -1.1297  0.7887
  319MOL0     C42934   6.151   2.561   7.670 -0.6058  1.3685 -0.9316
  319MOL0     C42935   6.187   2.651   7.770  0.1295 -0.7882  0.6809
  319MOL0     C42936   6.094   2.720   7.838 -0.0561 -0.5994  0.4139
  319MOL0     C42937   5.955   2.695   7.812  0.7099 -0.3937 -0.3376
  319MOL0     O42938   5.840   2.749   7.869  0.5108  0.5549  0.2185
  319MOL0     C42939   5.838   2.741   8.009  0.8018 -0.6709  0.3527
  319MOL0     C42940   5.707   2.821   8.049  0.6589  0.2167  0.4035
  319MOL0     C42941   5.582   2.734   8.045  0.1253 -0.5478 -0.6213
  319MOL0     C42942   5.476   2.781   8.142  0.5635  0.3047  1.3377
  319MOL0     C42943   5.386   2.659   8.178  0.0472 -0.2526  0.4253
  319MOL0     C42944   5.278   2.708   8.278 -0.1466  0.6092 -0.3298
  319MOL0     C42945   5.314   2.681   8.423  0.1512  0.7709 -0.3707
  319MOL0     C42946   5.181   2.696   8.506 -0.0884  0.2405 -0.5595
  319MOL0     N42947   5.217   2.700   8.643 -0.4228  0.8288 -0.0726
  319MOL0     C42948   5.302   2.612   8.715 -0.2364 -0.3400  0.1342
  319MOL0     C42949   5.290   2.639   8.850 -0.0408 -0.0753  0.2979
  319MOL0     C42950   5.382   2.582   8.958  1.0053 -0.5922 -0.4060
  319MOL0     C42951   5.508   2.650   8.982 -0.2961  0.3270 -0.5698
  319MOL0     C42952   5.603   2.608   8.870 -0.9498  0.4174  0.3692
  319MOL0     C42953   5.749   2.593   8.934 -0.0904 -0.1296 -0.5611
  319MOL0     O42954   5.771   2.711   9.009 -0.0238  0.7175 -1.0490
  319MOL0     C42955   5.901   2.735   9.022  0.2656 -0.3215 -0.7182
  319MOL0     C42956   5.945   2.782   9.147  0.2746  0.0869  0.1375
  319MOL0     C42957   6.076   2.813   9.179  0.0060 -0.6177  0.8019
  319MOL0     C42958   6.109   2.859   9.311 -0.9234 -0.1130  0.4200
  319MOL0     C42959   6.175   2.798   9.070  0.5095 -0.1133 -0.0695
  319MOL0     C42960   6.321   2.821   9.083  1.1227  0.0022  0.0852
  319MOL0     O42961   6.396   2.759   8.986  0.1371 -0.0718 -0.5865
  319MOL0     C42962   6.537   2.766   9.002  0.4495  0.0919 -0.1251
  319MOL0     C42963   6.614   2.653   9.019 -0.7420 -0.7235  0.0715
  319MOL0     C42964   6.750   2.661   9.015 -0.3598 -0.2179 -0.4311
  319MOL0     C42965   6.816   2.778   8.991 -0.3623 -0.9693 -0.5940
  319MOL0     O42966   6.953   2.777   9.009  0.0212  0.3017 -0.0408
  319MOL0     C42967   7.027   2.889   8.951  1.0711 -0.1514 -0.1411
  319MOL0     C42968   7.167   2.876   8.978 -1.3955 -0.1505  0.4197
  319MOL0     C42969   7.242   3.016   8.940  0.7916  0.4372  0.2836
  319MOL0     C42970   7.372   3.034   8.995 -0.3590  0.0492  0.4000
  319MOL0     C42971   7.418   3.180   8.974 -0.6528 -0.3292 -0.4437
  319MOL0     C42972   7.518   3.213   9.084  0.9311 -0.3464 -0.2585
  319MOL0     C42973   7.547   3.366   9.080 -1.3604  0.0644 -0.1057
  319MOL0     C42974   7.435   3.454   9.138 -0.2576 -0.2841  0.2158
  319MOL0    Cl42975   7.492   3.616   9.164  0.1293  0.3503 -0.2246
  319MOL0     C42976   6.739   2.890   8.986  0.4584 -0.0766 -1.0249
  319MOL0     C42977   6.597   2.885   8.998  0.3397  0.5030  0.0359
  319MOL0     O42978   6.360   2.867   9.189 -0.0719 -0.2764 -0.3156
  319MOL0     C42979   6.130   2.750   8.946 -0.1701 -0.8300  0.3873
  319MOL0     C42980   5.999   2.726   8.921  0.5079  0.2525  0.1145
  319MOL0     N42981   5.193   2.729   8.856 -0.2304 -0.4193  0.0354
  319MOL0     N42982   5.158   2.771   8.738  0.8123 -0.0205  0.5153
  319MOL0     C42983   5.914   2.595   7.717 -0.4438  0.2229 -0.1823
  319MOL0     C42984   6.016   2.530   7.657  0.2141  0.1659  0.0628
  319MOL0     C42985   6.434   2.347   7.569 -0.3463 -0.3612 -0.6676
  319MOL0     C42986   6.460   2.385   7.430  0.0354 -0.8181 -0.3154
  319MOL0     C42987   6.570   2.330   7.359 -0.0797  0.0543  0.8224
  319MOL0     C42988   6.665   2.245   7.423 -0.2382  0.3607  0.2963
  319MOL0     O42989   6.781   2.188   7.373 -0.2879 -0.9293 -0.3407
  319MOL0     C42990   6.795   2.202   7.227 -0.2593 -0.1267 -0.1045
  319MOL0     C42991   6.899   2.114   7.170  0.1008 -0.2597  0.0332
  319MOL0     C42992   6.902   1.963   7.215  0.1271 -0.7220  0.2485
  319MOL0     C42993   7.042   1.902   7.188 -0.1243  0.0976  0.6703
  319MOL0     C42994   7.056   1.889   7.037  0.2556 -0.5815  0.1669
  319MOL0     C42995   7.067   1.884   6.916  0.6333  0.2563  0.1670
  319MOL0     C42996   6.635   2.217   7.557  1.1725 -0.7246 -0.6035
  319MOL0     C42997   6.521   2.256   7.628  0.0375  0.9558  0.4712
  319MOL0     H42998   6.292   2.659   7.796  0.7274 -2.9922 -0.6901
  319MOL0     H42999   6.124   2.793   7.912  0.0843  0.3567 -0.5645
  319MOL0     H43000   5.849   2.637   8.042 -2.1306 -0.4685  2.3097
  319MOL0     H43001   5.919   2.809   8.040 -0.6683  0.4419  2.0257
  319MOL0     H43002   5.717   2.843   8.155 -2.9630  3.1731  0.3277
  319MOL0     H43003   5.677   2.914   7.999  0.8662 -0.2356 -0.5796
  319MOL0     H43004   5.537   2.722   7.946 -3.6643 -2.9609  1.1652
  319MOL0     H43005   5.614   2.638   8.087  0.7769  0.2122  0.6801
  319MOL0     H43006   5.520   2.826   8.231  1.9455 -3.4852  2.7527
  319MOL0     H43007   5.413   2.852   8.087 -0.1653 -1.4393 -0.1997
  319MOL0     H43008   5.342   2.615   8.088 -0.2400  2.6641 -0.9703
  319MOL0     H43009   5.448   2.579   8.219 -0.0638 -1.6240 -1.8827
  319MOL0     H43010   5.267   2.816   8.271 -2.5275  0.6380  2.2689
  319MOL0     H43011   5.184   2.653   8.269  0.4210 -0.6023  0.8061
  319MOL0     H43012   5.365   2.586   8.442  1.6344  1.2376 -1.7828
  319MOL0     H43013   5.391   2.753   8.450  3.7610 -2.8926  0.1010
  319MOL0     H43014   5.116   2.611   8.483 -2.5520  1.1247  2.4927
  319MOL0     H43015   5.138   2.795   8.491 -4.6656 -1.2491  0.9787
  319MOL0     H43016   5.381   2.549   8.676  2.2412  1.7405  1.4959
  319MOL0     H43017   5.314   2.587   9.044 -0.0858 -1.6861 -1.1714
  319MOL0     H43018   5.409   2.476   8.945 -0.8788 -1.0058 -1.2902
  319MOL0     H43019   5.549   2.614   9.077 -1.1097 -3.2195 -1.4096
  319MOL0     H43020   5.491   2.758   8.985  0.2969  0.4817 -2.0609
  319MOL0     H43021   5.607   2.685   8.793 -2.9599  0.5677  0.3587
  319MOL0     H43022   5.566   2.512   8.831 -0.9581 -0.3533  2.1758
  319MOL0     H43023   5.829   2.567   8.864  3.3777 -0.7479  3.2405
  319MOL0     H43024   5.739   2.503   8.996 -0.9171  0.5985  0.3804
  319MOL0     H43025   5.864   2.792   9.219 -2.4835 -2.1440 -2.4183
  319MOL0     H43026   6.018   2.905   9.350 -0.7711 -0.6424  1.4551
  319MOL0     H43027   6.133   2.769   9.369 -2.8250 -1.5130 -0.8630
  319MOL0     H43028   6.192   2.930   9.318  0.0929 -1.4183  2.9931
  319MOL0     H43029   6.565   2.558   9.038 -1.1566 -0.3062  1.1379
  319MOL0     H43030   6.802   2.566   9.024 -0.7879 -0.5409 -1.2851
  319MOL0     H43031   7.012   2.913   8.845  1.3358 -0.0464 -0.1555
  319MOL0     H43032   6.971   2.970   8.999 -1.9634 -2.7196  0.9844
  319MOL0     H43033   7.184   2.873   9.086 -3.3277 -3.4151  0.7688
  319MOL0     H43034   7.213   2.797   8.918  0.4349  2.8229 -2.3930
  319MOL0     H43035   7.170   3.094   8.968 -2.9710 -2.7446  0.4373
  319MOL0     H43036   7.252   3.021   8.831 -0.0701  3.6948  0.2479
  319MOL0     H43037   7.360   3.009   9.101 -2.8601 -0.8126 -0.0072
  319MOL0     H43038   7.438   2.958   8.952 -2.3796 -0.3997 -2.1579
  319MOL0     H43039   7.342   3.257   8.992 -0.0452 -0.1183  1.4609
  319MOL0     H43040   7.475   3.195   8.882  0.0740  1.1258  0.2145
  319MOL0     H43041   7.482   3.188   9.185  1.5680  2.6599  0.7946
  319MOL0     H43042   7.601   3.146   9.060 -0.6581 -2.0095 -1.4660
  319MOL0     H43043   7.580   3.392   8.980 -2.8324  0.3696 -0.5403
  319MOL0     H43044   7.634   3.393   9.140  1.1883 -1.1395 -3.0429
  319MOL0     H43045   7.402   3.422   9.238 -0.0340 -1.5323 -0.0978
  319MOL0     H43046   7.343   3.459   9.079 -0.6166 -1.0731  0.6925
  319MOL0     H43047   6.771   2.993   8.968 -3.8737  1.6575 -0.0959
  319MOL0     H43048   6.539   2.976   8.986  1.7466  1.4428  0.1482
  319MOL0     H43049   6.195   2.726   8.863  0.1929 -1.3508  0.8208
  319MOL0     H43050   5.967   2.726   8.818  2.9041  2.6677 -0.7580
  319MOL0     H43051   5.810   2.575   7.694 -0.1282 -3.0801  0.8114
  319MOL0     H43052   5.988   2.465   7.575 -3.9100  1.3856  0.3015
  319MOL0     H43053   6.400   2.465   7.390 -0.2224  1.1099  3.4584
  319MOL0     H43054   6.603   2.372   7.265 -0.3829 -1.2813  0.0905
  319MOL0     H43055   6.707   2.170   7.170 -1.2128 -0.3511  1.4307
  319MOL0     H43056   6.799   2.305   7.190 -0.4873  0.0472  0.3398
  319MOL0     H43057   6.991   2.169   7.192 -0.6267  1.1294 -0.2621
  319MOL0     H43058   6.890   2.109   7.061  4.3105 -2.2190 -0.4298
  319MOL0     H43059   6.835   1.922   7.140  2.4812  1.1512 -3.1687
  319MOL0     H43060   6.887   1.950   7.323  0.0462  1.6019  0.5720
  319MOL0     H43061   7.053   1.807   7.240  1.2497  0.3494  0.8879
  319MOL0     H43062   7.131   1.958   7.218 -1.3661  2.7166 -0.1909
  319MOL0     H43063   7.076   1.904   6.811 -0.5113  1.0310  0.2042
  319MOL0     H43064   6.707   2.158   7.613 -0.1554 -1.2354  0.6415
  319MOL0     H43065   6.507   2.202   7.720 -3.0807  1.4260  0.3710
  320MOL0     O43066   3.865  10.397   3.968 -0.0863 -0.2905  0.2304
  320MOL0     C43067   3.896  10.505   4.024 -0.4974 -0.9143  0.7329
  320MOL0     O43068   4.024  10.548   4.056 -0.7514 -0.5727 -0.4240
  320MOL0     C43069   4.114  10.447   4.078 -0.8661  0.2590  0.4753
  320MOL0     C43070   4.225  10.445   3.988 -0.5602  0.4082 -0.5263
  320MOL0     C43071   4.321  10.343   4.011  0.2374 -0.4915  0.1102
  320MOL0     C43072   4.323  10.251   4.117 -0.7179 -0.3707 -1.9670
  320MOL0     O43073   4.422  10.157   4.143 -0.9207 -0.7156 -0.6858
  320MOL0     C43074   4.552  10.214   4.140 -0.2721 -0.3599  0.9919
  320MOL0     C43075   4.664  10.116   4.185  0.1950  1.1708  0.3321
  320MOL0     C43076   4.800  10.189   4.182 -0.8410 -0.6615 -0.3624
  320MOL0     C43077   4.902  10.097   4.260  0.7575 -0.3216 -0.7176
  320MOL0     C43078   5.056  10.138   4.225 -0.2694 -0.0132 -0.6126
  320MOL0     C43079   5.087  10.294   4.250 -0.5419  0.9648  0.0034
  320MOL0     C43080   5.100  10.351   4.390 -0.8452  0.9917  0.1126
  320MOL0     C43081   5.236  10.342   4.459 -1.1420  0.2739  0.3709
  320MOL0     N43082   5.235  10.418   4.580 -0.0795  0.4558 -0.1126
  320MOL0     C43083   5.340  10.401   4.670 -0.1986  0.2671 -0.5550
  320MOL0     C43084   5.328  10.504   4.756  0.6586  0.5650 -0.0387
  320MOL0     C43085   5.411  10.538   4.875 -0.7555  0.3363  0.2538
  320MOL0     C43086   5.365  10.472   5.002 -0.3503  0.4567  0.6260
  320MOL0     C43087   5.452  10.514   5.121 -0.4037 -0.1960 -1.0788
  320MOL0     C43088   5.453  10.655   5.161 -0.3624 -0.6189 -0.4970
  320MOL0     O43089   5.332  10.692   5.220 -0.1883  0.8585 -0.2579
  320MOL0     C43090   5.332  10.808   5.282  0.8379  0.7226  0.4213
  320MOL0     C43091   5.290  10.920   5.218 -0.2263  1.3028 -0.1028
  320MOL0     C43092   5.284  11.044   5.283  0.4427 -0.4805  0.6936
  320MOL0     C43093   5.205  11.162   5.209 -0.4159  0.1423 -0.2630
  320MOL0     C43094   5.342  11.063   5.408 -0.3776  0.1539  0.0990
  320MOL0     C43095   5.362  11.180   5.485 -0.2902 -0.6666  0.1717
  320MOL0     O43096   5.364  11.167   5.619  0.1579  0.5802  0.5440
  320MOL0     C43097   5.390  11.279   5.697  0.9257 -0.1190  0.6345
  320MOL0     C43098   5.272  11.335   5.753 -0.1943 -1.4226  0.1024
  320MOL0     C43099   5.286  11.473   5.799  0.5002  0.2114 -0.0778
  320MOL0     C43100   5.416  11.537   5.819  0.8995 -0.2631  0.6003
  320MOL0     O43101   5.404  11.663   5.876  1.1198  0.2424  0.6076
  320MOL0     C43102   5.526  11.740   5.870 -0.3483 -0.6649 -0.4696
  320MOL0     C43103   5.523  11.867   5.966 -0.6759  0.2081 -0.3679
  320MOL0     C43104   5.436  11.971   5.885  0.2824  0.1728 -0.3073
  320MOL0     C43105   5.419  12.110   5.954 -0.9095 -0.1652 -0.0105
  320MOL0     C43106   5.365  12.227   5.867  0.3294  0.5342  0.1267
  320MOL0     C43107   5.219  12.257   5.910  0.1199 -0.4687 -0.4356
  320MOL0     C43108   5.162  12.365   5.815  0.1634  1.0468 -0.0230
  320MOL0     C43109   5.037  12.425   5.864  0.0898  1.1718 -0.0170
  320MOL0    Cl43110   5.011  12.565   5.774  0.0909 -0.3577  0.4460
  320MOL0     C43111   5.528  11.470   5.774  0.0562  1.3275  0.0189
  320MOL0     C43112   5.520  11.341   5.711  0.5536  0.7976  0.5698
  320MOL0     O43113   5.375  11.287   5.429  0.1271 -0.2331 -0.0350
  320MOL0     C43114   5.390  10.948   5.476 -0.2607  0.6059 -0.0979
  320MOL0     C43115   5.388  10.824   5.411  0.3532 -0.7426 -0.8439
  320MOL0     N43116   5.228  10.589   4.712 -0.6180  0.7212  0.0875
  320MOL0     N43117   5.164  10.533   4.614  0.4192 -0.1315 -0.1545
  320MOL0     C43118   4.211  10.262   4.205  0.3257 -0.0223  0.1081
  320MOL0     C43119   4.102  10.350   4.173  0.0552 -0.2580 -0.3715
  320MOL0     C43120   3.776  10.598   4.058 -0.1375 -0.1057 -0.4283
  320MOL0     C43121   3.793  10.728   4.105  0.7598 -0.2962 -0.0328
  320MOL0     C43122   3.693  10.808   4.149  1.6774 -0.9682 -0.2148
  320MOL0     C43123   3.566  10.756   4.143 -0.6750  0.9789 -0.6014
  320MOL0     O43124   3.456  10.836   4.165 -0.6563  0.1880  0.4040
  320MOL0     C43125   3.366  10.808   4.271 -0.3821  0.8014  1.2289
  320MOL0     C43126   3.265  10.923   4.290 -0.6462 -0.6639 -0.9062
  320MOL0     C43127   3.186  10.911   4.421  0.8215  0.2314  0.2033
  320MOL0     C43128   3.179  11.037   4.509 -0.1449  0.6767 -0.1424
  320MOL0     C43129   3.173  11.156   4.435 -0.1343 -0.6601  0.5560
  320MOL0     C43130   3.180  11.259   4.371  0.1338  0.3913  0.9487
  320MOL0     C43131   3.543  10.632   4.086  0.4070 -0.3287 -0.6522
  320MOL0     C43132   3.645  10.552   4.045 -0.2146  0.4197  0.0774
  320MOL0     H43133   4.229  10.531   3.921  0.4554 -0.8898 -2.2083
  320MOL0     H43134   4.408  10.345   3.946  0.7428 -3.4493  0.5823
  320MOL0     H43135   4.580  10.231   4.035  2.7171  0.4712  1.8112
  320MOL0     H43136   4.552  10.299   4.209  2.3206 -1.0898  2.0277
  320MOL0     H43137   4.656  10.087   4.290 -0.4677  2.1666  0.5690
  320MOL0     H43138   4.671  10.023   4.128  2.0273  2.5045 -1.8360
  320MOL0     H43139   4.841  10.200   4.081  0.2025  3.0213  0.3009
  320MOL0     H43140   4.794  10.284   4.236  0.5872  0.4006 -1.9315
  320MOL0     H43141   4.865  10.093   4.363 -2.3181  0.4693 -1.7119
  320MOL0     H43142   4.892   9.993   4.227 -0.3155 -1.7239  3.4168
  320MOL0     H43143   5.112  10.086   4.303 -2.0228 -0.4977  0.3735
  320MOL0     H43144   5.077  10.104   4.123  2.2571  0.1441 -0.2110
  320MOL0     H43145   5.174  10.334   4.196 -0.3306  1.2724  0.5581
  320MOL0     H43146   5.020  10.352   4.186  0.7198 -0.8743 -3.2085
  320MOL0     H43147   5.073  10.456   4.381  0.0739  1.1981 -0.4241
  320MOL0     H43148   5.022  10.309   4.453 -1.4463  3.2686  0.9777
  320MOL0     H43149   5.313  10.383   4.394 -2.0732  0.5974 -0.5424
  320MOL0     H43150   5.253  10.236   4.482 -1.4284  0.6443  2.5236
  320MOL0     H43151   5.424  10.332   4.676  1.1873  1.7045 -2.3254
  320MOL0     H43152   5.515  10.505   4.864 -0.2904  1.9411 -0.4754
  320MOL0     H43153   5.415  10.645   4.897 -1.3402  0.2118  1.0011
  320MOL0     H43154   5.366  10.365   4.979 -0.1539  0.2478  1.5373
  320MOL0     H43155   5.261  10.494   5.031 -0.4596 -0.0273  0.6098
  320MOL0     H43156   5.557  10.482   5.111  0.3099 -0.2556  3.9790
  320MOL0     H43157   5.416  10.455   5.206 -1.9164 -1.5076 -2.5706
  320MOL0     H43158   5.476  10.716   5.073 -3.5656 -0.3470 -1.2777
  320MOL0     H43159   5.521  10.666   5.246 -0.2584  1.0601 -0.7639
  320MOL0     H43160   5.265  10.911   5.113 -4.2382  3.6859  0.4359
  320MOL0     H43161   5.261  11.221   5.135  0.1291 -0.7635 -0.5935
  320MOL0     H43162   5.130  11.118   5.143  2.1610 -2.0517 -1.9723
  320MOL0     H43163   5.159  11.229   5.282 -0.5338 -2.2532  2.0222
  320MOL0     H43164   5.189  11.268   5.733  0.3992 -2.0510 -0.3119
  320MOL0     H43165   5.192  11.518   5.825 -0.3561 -1.6723  0.2818
  320MOL0     H43166   5.605  11.677   5.911 -1.6242 -1.5500  0.7468
  320MOL0     H43167   5.554  11.765   5.767  0.5006  0.1218 -0.0566
  320MOL0     H43168   5.477  11.840   6.062  1.4721 -3.1422 -0.1245
  320MOL0     H43169   5.625  11.900   5.986 -1.0076  0.4133  1.1347
  320MOL0     H43170   5.330  11.946   5.884  0.3141 -0.0143  0.2276
  320MOL0     H43171   5.475  11.986   5.784  0.8553 -2.3517 -0.5201
  320MOL0     H43172   5.359  12.099   6.045 -1.3026  2.1362  0.0772
  320MOL0     H43173   5.519  12.141   5.985 -0.8526  0.6600 -0.9755
  320MOL0     H43174   5.364  12.187   5.765  0.4824 -0.9719  0.6830
  320MOL0     H43175   5.421  12.321   5.869 -1.7237  1.8026  0.9797
  320MOL0     H43176   5.150  12.175   5.890 -1.1699  0.5555 -0.3589
  320MOL0     H43177   5.221  12.285   6.016 -0.3272 -1.9492 -0.0138
  320MOL0     H43178   5.143  12.323   5.716 -1.8359 -1.0849  1.1764
  320MOL0     H43179   5.245  12.437   5.810  0.9667  0.0633 -1.6337
  320MOL0     H43180   5.017  12.441   5.971 -1.8274 -0.8436  0.0141
  320MOL0     H43181   4.965  12.354   5.822 -1.0764  1.7339  0.9804
  320MOL0     H43182   5.627  11.510   5.792  2.8114 -3.1670 -2.9850
  320MOL0     H43183   5.606  11.287   5.674 -0.8493 -2.4633  1.6927
  320MOL0     H43184   5.423  10.947   5.580  0.1774  0.3051 -0.2357
  320MOL0     H43185   5.406  10.745   5.483 -1.8750  2.3892  3.6483
  320MOL0     H43186   4.206  10.200   4.294  0.1573 -1.7611 -1.0700
  320MOL0     H43187   4.015  10.338   4.237 -0.2360  2.4078 -0.1795
  320MOL0     H43188   3.891  10.773   4.115  1.2284 -1.3758  0.3933
  320MOL0     H43189   3.707  10.912   4.178 -0.7434 -0.5882 -0.1515
  320MOL0     H43190   3.311  10.718   4.244  1.3919  0.3149 -1.0655
  320MOL0     H43191   3.437  10.797   4.353 -0.1794  2.3616  1.3054
  320MOL0     H43192   3.193  10.928   4.208 -0.4012 -1.1169 -1.1546
  320MOL0     H43193   3.318  11.018   4.304 -1.7469 -0.2614  0.8350
  320MOL0     H43194   3.218  10.826   4.482  1.4158 -0.3338 -0.8684
  320MOL0     H43195   3.083  10.883   4.398  1.5823 -1.7589 -0.9716
  320MOL0     H43196   3.263  11.040   4.578 -0.5232 -0.0500  0.3661
  320MOL0     H43197   3.088  11.035   4.570  0.4148  1.4685  0.7384
  320MOL0     H43198   3.181  11.342   4.303  1.8591 -0.7392 -0.4800
  320MOL0     H43199   3.442  10.591   4.091  0.6091 -0.6906  2.4051
  320MOL0     H43200   3.616  10.456   4.002  1.2511 -0.4501  0.9562
  321MOL0     O43201   6.708   0.656   1.787  0.3238 -1.1144 -0.1897
  321MOL0     C43202   6.698   0.546   1.727  0.8361  0.5036 -0.3479
  321MOL0     O43203   6.583   0.473   1.723  0.2600  0.3635  0.1508
  321MOL0     C43204   6.472   0.511   1.798 -0.7566  0.0862  0.4872
  321MOL0     C43205   6.380   0.593   1.734 -0.1193  0.2640  0.0550
  321MOL0     C43206   6.271   0.645   1.799  0.8915  0.5185  0.4210
  321MOL0     C43207   6.238   0.587   1.927  0.4710  0.5947  0.3040
  321MOL0     O43208   6.108   0.616   1.984 -0.6403  0.4287  0.7906
  321MOL0     C43209   6.025   0.724   1.933  0.9188  0.0586  0.0221
  321MOL0     C43210   6.084   0.874   1.949  0.3377 -0.2296  0.0203
  321MOL0     C43211   6.046   0.931   2.087  0.1819  0.3093 -0.2424
  321MOL0     C43212   6.138   0.866   2.193 -0.5856  0.3711 -0.5691
  321MOL0     C43213   6.156   0.964   2.319  0.6363  0.8144  0.6311
  321MOL0     C43214   6.274   0.935   2.412  0.0294 -0.1892  0.2975
  321MOL0     C43215   6.249   1.023   2.540 -0.1179  0.0567 -0.0340
  321MOL0     C43216   6.370   1.030   2.624 -0.4430 -1.2078  0.2308
  321MOL0     N43217   6.427   0.906   2.678  0.5031 -1.0026  0.7483
  321MOL0     C43218   6.373   0.837   2.775  0.3215 -0.1983 -0.7390
  321MOL0     C43219   6.433   0.720   2.783 -0.2558  1.2768 -0.0200
  321MOL0     C43220   6.399   0.621   2.884 -0.1412  0.1828 -0.7393
  321MOL0     C43221   6.333   0.489   2.830  0.1934 -0.0903  0.0660
  321MOL0     C43222   6.326   0.362   2.927  0.7244  0.2939 -0.0726
  321MOL0     C43223   6.254   0.240   2.861  0.5320 -1.0258  0.3596
  321MOL0     O43224   6.132   0.298   2.808  0.6379 -0.7862 -0.2903
  321MOL0     C43225   6.029   0.220   2.747  0.0046  0.9453 -0.1206
  321MOL0     C43226   6.030   0.079   2.752  0.6190  0.6987  0.3509
  321MOL0     C43227   5.916   0.010   2.712 -0.4146 -0.8906 -0.0436
  321MOL0     C43228   5.925  -0.144   2.707  0.9551  0.5638 -0.5388
  321MOL0     C43229   5.805   0.078   2.657  0.1076  0.0246  0.5033
  321MOL0     C43230   5.681   0.019   2.611  0.6217  0.2759 -0.1117
  321MOL0     O43231   5.586   0.104   2.590  0.1456  0.0495 -0.7213
  321MOL0     C43232   5.457   0.060   2.591 -0.2265 -0.5155  0.1549
  321MOL0     C43233   5.400   0.041   2.712  1.1345  1.0004 -0.1217
  321MOL0     C43234   5.264   0.001   2.719  0.7901  0.0246 -0.1103
  321MOL0     C43235   5.189  -0.023   2.611  0.4647  1.1155 -1.5305
  321MOL0     O43236   5.048  -0.056   2.629 -0.7696 -0.8727  0.4607
  321MOL0     C43237   4.971   0.007   2.533 -1.1115  0.3911 -0.4892
  321MOL0     C43238   4.824  -0.017   2.554 -0.4227  0.1476 -0.0423
  321MOL0     C43239   4.783  -0.155   2.512  0.0747 -0.4233  0.3723
  321MOL0     C43240   4.639  -0.192   2.559 -0.5536  0.0040 -0.5340
  321MOL0     C43241   4.649  -0.238   2.708  0.0838 -0.9236  0.3383
  321MOL0     C43242   4.521  -0.261   2.780  0.4619  0.1258 -0.1461
  321MOL0     C43243   4.459  -0.126   2.823 -0.6089 -0.7981 -0.5346
  321MOL0     C43244   4.327  -0.148   2.895 -0.1679 -0.4550 -0.2256
  321MOL0    Cl43245   4.274   0.008   2.954  0.0141  0.2657  0.1187
  321MOL0     C43246   5.259  -0.021   2.484 -0.0909  0.1335 -0.2786
  321MOL0     C43247   5.393   0.020   2.484 -0.2384 -0.3816  0.0274
  321MOL0     O43248   5.664  -0.102   2.621  0.8689  0.2715 -0.4265
  321MOL0     C43249   5.820   0.220   2.636 -0.3292  0.2591  1.4749
  321MOL0     C43250   5.920   0.290   2.690 -0.1608  0.9693  0.4895
  321MOL0     N43251   6.509   0.707   2.669 -0.4750  0.7532  0.0406
  321MOL0     N43252   6.505   0.821   2.605  0.0110 -0.5692  0.5072
  321MOL0     C43253   6.328   0.480   1.976  0.7290  0.2308 -0.4378
  321MOL0     C43254   6.447   0.450   1.918 -0.2624 -0.6851  0.4812
  321MOL0     C43255   6.815   0.489   1.676  0.1192  0.3804 -0.7929
  321MOL0     C43256   6.811   0.359   1.620 -0.3256  0.0334 -0.6477
  321MOL0     C43257   6.926   0.309   1.553  0.6503  0.0427 -1.0735
  321MOL0     C43258   7.054   0.372   1.569 -0.0858 -0.4476 -1.2264
  321MOL0     O43259   7.168   0.312   1.532 -0.1326 -1.0049  0.4247
  321MOL0     C43260   7.242   0.374   1.431  0.5543 -0.3383  0.7425
  321MOL0     C43261   7.188   0.364   1.286  0.7208 -0.4994  0.1631
  321MOL0     C43262   7.309   0.402   1.187  0.4132  0.1858  0.8660
  321MOL0     C43263   7.263   0.433   1.040 -0.9720  0.9565  0.2231
  321MOL0     C43264   7.373   0.455   0.951  0.4976 -0.2030 -0.7147
  321MOL0     C43265   7.452   0.493   0.865  0.8217  0.0103 -0.6993
  321MOL0     C43266   7.059   0.504   1.617  0.4592 -0.3673  0.3316
  321MOL0     C43267   6.943   0.557   1.666  0.4757  0.2542  0.4008
  321MOL0     H43268   6.395   0.598   1.627 -0.2600 -1.0646 -0.0507
  321MOL0     H43269   6.201   0.708   1.745 -0.0277 -1.7653 -1.1917
  321MOL0     H43270   5.981   0.712   1.834  0.7388  0.9431 -0.0051
  321MOL0     H43271   5.934   0.724   1.993 -0.1035  0.9097 -1.4893
  321MOL0     H43272   6.192   0.873   1.932  0.4124  1.8093  0.1170
  321MOL0     H43273   6.034   0.938   1.876  0.0612  3.3972  3.0711
  321MOL0     H43274   6.064   1.037   2.071  0.0825  0.5058  0.8670
  321MOL0     H43275   5.941   0.911   2.110  0.2690 -1.6922 -1.2800
  321MOL0     H43276   6.091   0.776   2.236  2.4243 -0.6849  0.8026
  321MOL0     H43277   6.236   0.835   2.155 -0.3407 -0.5668  0.7465
  321MOL0     H43278   6.177   1.057   2.265 -0.6412 -0.1433 -1.6639
  321MOL0     H43279   6.062   0.969   2.375  2.5537  1.9260  4.0519
  321MOL0     H43280   6.286   0.831   2.443  0.4678 -0.2231  0.0131
  321MOL0     H43281   6.372   0.942   2.364  1.0372 -1.0678  2.1012
  321MOL0     H43282   6.226   1.125   2.511  0.0535  1.3056  3.6798
  321MOL0     H43283   6.163   0.986   2.597  1.7274 -3.2047  0.9320
  321MOL0     H43284   6.352   1.108   2.698  0.5021 -1.3304  0.6089
  321MOL0     H43285   6.444   1.082   2.561 -1.0584 -0.0405  0.4499
  321MOL0     H43286   6.291   0.870   2.838  0.4134 -1.2545 -0.0380
  321MOL0     H43287   6.485   0.588   2.944 -0.8246 -0.0109  0.1641
  321MOL0     H43288   6.335   0.669   2.959  1.5774  1.4997 -0.0285
  321MOL0     H43289   6.392   0.446   2.749  0.1285 -3.3623  1.5585
  321MOL0     H43290   6.231   0.513   2.799  0.3032 -1.1209 -1.2012
  321MOL0     H43291   6.266   0.379   3.017  0.3478 -0.7741 -0.1050
  321MOL0     H43292   6.428   0.325   2.943  0.6451  0.1069 -0.0009
  321MOL0     H43293   6.235   0.158   2.931  1.6766 -0.5315  1.2797
  321MOL0     H43294   6.308   0.217   2.769 -1.5985  0.8979 -1.5059
  321MOL0     H43295   6.119   0.029   2.789  0.3842  1.0274  1.3917
  321MOL0     H43296   6.021  -0.177   2.748 -1.4626 -1.1744  4.6713
  321MOL0     H43297   5.851  -0.182   2.779  1.2162 -0.7279 -0.9165
  321MOL0     H43298   5.907  -0.180   2.605  0.1717 -0.8939  0.0750
  321MOL0     H43299   5.453   0.056   2.806  0.8837 -3.9302  1.1099
  321MOL0     H43300   5.217  -0.008   2.816  0.7266 -0.1153 -0.1553
  321MOL0     H43301   4.989   0.115   2.531 -0.3708  0.2989  0.4692
  321MOL0     H43302   5.014  -0.038   2.443 -1.3483  1.3692 -1.1029
  321MOL0     H43303   4.791   0.013   2.654  1.4178 -0.8242  0.9047
  321MOL0     H43304   4.771   0.056   2.492  0.8009  2.6314  1.7071
  321MOL0     H43305   4.851  -0.233   2.549 -2.5318 -1.9086  2.4251
  321MOL0     H43306   4.775  -0.157   2.403 -1.0215 -1.6119  0.4399
  321MOL0     H43307   4.574  -0.105   2.547  0.2725  0.6259 -0.6103
  321MOL0     H43308   4.613  -0.279   2.498  1.6344 -1.3734  0.3644
  321MOL0     H43309   4.708  -0.166   2.766  2.6109 -1.4705 -1.3703
  321MOL0     H43310   4.711  -0.328   2.706 -0.2805 -1.2249  1.7450
  321MOL0     H43311   4.452  -0.306   2.708  1.0280  0.9454 -1.2391
  321MOL0     H43312   4.531  -0.327   2.867 -3.1770  0.0819  0.3688
  321MOL0     H43313   4.432  -0.069   2.734 -2.7275 -0.9357 -0.0244
  321MOL0     H43314   4.533  -0.074   2.885  0.6911 -2.5930 -0.5231
  321MOL0     H43315   4.319  -0.225   2.972 -3.1760  0.0840  0.1041
  321MOL0     H43316   4.257  -0.171   2.814  0.5063  3.7556 -2.2984
  321MOL0     H43317   5.208  -0.045   2.391  0.4952  2.9304 -1.4346
  321MOL0     H43318   5.438   0.030   2.386  0.9533  1.8889  0.7276
  321MOL0     H43319   5.752   0.292   2.592  2.9540  3.1222  0.6995
  321MOL0     H43320   5.924   0.398   2.695  0.2298  1.0213 -0.7335
  321MOL0     H43321   6.297   0.414   2.056 -0.2748 -2.4119 -2.8489
  321MOL0     H43322   6.513   0.383   1.973  1.5153 -1.1037 -2.0161
  321MOL0     H43323   6.724   0.296   1.612  1.5169 -2.7840 -0.0817
  321MOL0     H43324   6.919   0.213   1.502 -0.3136  1.6665 -4.2443
  321MOL0     H43325   7.240   0.481   1.449 -1.7236  0.5182 -3.4336
  321MOL0     H43326   7.343   0.335   1.444  0.5733 -0.9137 -0.8827
  321MOL0     H43327   7.095   0.420   1.271  0.1433 -2.1809 -3.5448
  321MOL0     H43328   7.143   0.266   1.270 -1.5565  0.7432 -1.7655
  321MOL0     H43329   7.381   0.320   1.182  1.3960  1.0724  0.1989
  321MOL0     H43330   7.347   0.493   1.233  0.1781 -1.2627  4.2623
  321MOL0     H43331   7.205   0.525   1.045 -0.5134  1.3849 -1.7289
  321MOL0     H43332   7.206   0.353   0.992  0.4061  0.0779  0.0078
  321MOL0     H43333   7.510   0.522   0.780  0.0161 -2.1677 -2.0825
  321MOL0     H43334   7.149   0.564   1.628 -0.1186  0.5822 -0.0041
  321MOL0     H43335   6.951   0.654   1.716 -1.2498  0.9391 -0.5817
  322MOL0     O43336   0.174   7.070   7.702 -0.1167 -0.6516  0.4346
  322MOL0     C43337   0.230   7.135   7.789  0.6460 -0.8808 -0.5767
  322MOL0     O43338   0.290   7.092   7.901 -0.1943  0.3909 -0.5465
  322MOL0     C43339   0.262   6.965   7.959  0.9063  0.4555 -0.0729
  322MOL0     C43340   0.341   6.933   8.065 -0.5628  0.6168 -0.1323
  322MOL0     C43341   0.341   6.803   8.114 -0.1569 -0.3104  0.1284
  322MOL0     C43342   0.242   6.707   8.082 -0.8023 -0.4565  0.1023
  322MOL0     O43343   0.257   6.577   8.121  0.2017 -0.3441  1.0636
  322MOL0     C43344   0.178   6.475   8.066 -0.4993 -0.1692 -0.1719
  322MOL0     C43345   0.205   6.343   8.146 -0.2535  0.2400 -0.6640
  322MOL0     C43346   0.138   6.331   8.287  0.2438 -0.4912 -0.1879
  322MOL0     C43347  -0.013   6.293   8.272 -0.1341  0.0424 -0.3307
  322MOL0     C43348  -0.075   6.234   8.402  1.1985  0.4355  0.1946
  322MOL0     C43349  -0.056   6.092   8.432  0.8800  0.3920  0.0412
  322MOL0     C43350   0.054   6.078   8.533  0.4466 -0.2978 -0.4985
  322MOL0     C43351   0.008   6.037   8.676  1.0429 -0.2959 -0.3461
  322MOL0     N43352  -0.125   6.097   8.719 -0.5611  0.6044 -0.0204
  322MOL0     C43353  -0.139   6.215   8.784 -0.6347  0.0670 -0.7288
  322MOL0     C43354  -0.270   6.241   8.809 -0.2177 -0.2960 -0.0515
  322MOL0     C43355  -0.321   6.334   8.915  0.1019  0.2769  0.1754
  322MOL0     C43356  -0.256   6.470   8.910 -0.1761 -0.5917 -0.5257
  322MOL0     C43357  -0.276   6.546   8.780 -0.0544 -0.2393 -0.6503
  322MOL0     C43358  -0.186   6.664   8.761  0.0284 -0.0325  0.0062
  322MOL0     O43359  -0.070   6.610   8.687 -0.2660  0.7437 -0.2174
  322MOL0     C43360   0.045   6.661   8.718 -1.5858 -0.3974  0.7306
  322MOL0     C43361   0.074   6.800   8.745  0.1277 -0.2263 -0.5507
  322MOL0     C43362   0.195   6.842   8.793  0.0001  0.6854 -0.1054
  322MOL0     C43363   0.201   6.992   8.794 -0.3944  0.9381 -0.2070
  322MOL0     C43364   0.303   6.752   8.814  0.9124  0.4954  0.4283
  322MOL0     C43365   0.441   6.789   8.856 -0.1334  0.1367 -0.9174
  322MOL0     O43366   0.473   6.920   8.864 -0.0155 -0.8746  0.8174
  322MOL0     C43367   0.596   6.948   8.916 -0.1226  0.8747 -1.0023
  322MOL0     C43368   0.704   6.957   8.834 -0.1200 -0.1126 -1.3836
  322MOL0     C43369   0.830   6.973   8.893  0.3555  0.7322  0.6672
  322MOL0     C43370   0.854   6.981   9.032 -0.0973 -0.6585 -0.2245
  322MOL0     O43371   0.994   6.995   9.056  0.3269 -0.1379  0.3106
  322MOL0     C43372   1.043   6.979   9.192  0.2540  0.1360  0.7217
  322MOL0     C43373   1.187   6.924   9.197 -0.6427  0.9538 -0.4927
  322MOL0     C43374   1.202   6.807   9.098 -0.9971  0.4659  0.8825
  322MOL0     C43375   1.356   6.752   9.088  0.9162 -0.5647 -0.2309
  322MOL0     C43376   1.357   6.630   8.998  1.1774 -0.5510  0.3306
  322MOL0     C43377   1.482   6.556   9.006  0.3638  0.8766  0.5048
  322MOL0     C43378   1.500   6.450   8.883 -0.0034 -0.3657  1.2646
  322MOL0     C43379   1.531   6.523   8.751 -0.6206 -0.2822  1.1643
  322MOL0    Cl43380   1.706   6.546   8.746  0.0416 -0.2840  0.1434
  322MOL0     C43381   0.737   6.987   9.118 -0.5921  0.4865 -0.7012
  322MOL0     C43382   0.614   6.960   9.061 -0.8441 -1.0535  0.7690
  322MOL0     O43383   0.510   6.699   8.903  0.3380  0.1257  0.8887
  322MOL0     C43384   0.271   6.618   8.787 -0.4829 -0.3199  0.1340
  322MOL0     C43385   0.147   6.571   8.744 -0.0046  0.1953 -0.7977
  322MOL0     N43386  -0.346   6.147   8.731 -0.2810  0.4370 -0.0035
  322MOL0     N43387  -0.258   6.064   8.682 -1.1701  0.1281  0.3804
  322MOL0     C43388   0.150   6.753   7.984 -0.3642  0.0196  0.2554
  322MOL0     C43389   0.169   6.875   7.924 -0.3770 -0.3204  0.9019
  322MOL0     C43390   0.267   7.279   7.759  0.6746  0.1205 -0.1864
  322MOL0     C43391   0.252   7.377   7.856  0.0767 -0.1128  0.8251
  322MOL0     C43392   0.284   7.517   7.837  0.8112  0.4475 -0.3924
  322MOL0     C43393   0.326   7.552   7.703  0.6389  0.2531 -0.2841
  322MOL0     O43394   0.370   7.673   7.669  0.3904 -0.5245 -0.3611
  322MOL0     C43395   0.461   7.734   7.761 -0.6483 -0.7737  0.1736
  322MOL0     C43396   0.493   7.863   7.695 -0.5738 -0.6586 -0.0418
  322MOL0     C43397   0.587   7.937   7.791  0.1074 -0.4326 -0.2197
  322MOL0     C43398   0.536   7.969   7.941  0.1672  0.2832  0.5399
  322MOL0     C43399   0.412   8.052   7.934 -0.4095 -1.0482  0.0153
  322MOL0     C43400   0.303   8.107   7.925 -1.1116 -0.3710 -0.3978
  322MOL0     C43401   0.326   7.457   7.602 -0.7372 -0.8805 -0.3189
  322MOL0     C43402   0.295   7.326   7.630  1.0016  0.5545 -0.1017
  322MOL0     H43403   0.422   6.997   8.101  1.5739 -2.0131  0.0756
  322MOL0     H43404   0.425   6.799   8.183  0.0350  2.4782  0.1740
  322MOL0     H43405   0.076   6.506   8.091  0.2550 -0.7001  4.3968
  322MOL0     H43406   0.203   6.459   7.960  0.0443  0.6930 -0.1786
  322MOL0     H43407   0.170   6.258   8.087 -0.6742  0.9184 -1.4104
  322MOL0     H43408   0.314   6.338   8.162 -0.1984  0.2689 -1.0347
  322MOL0     H43409   0.195   6.256   8.344  2.9385  2.1701  0.8947
  322MOL0     H43410   0.138   6.423   8.346  0.2668 -0.0186 -0.9166
  322MOL0     H43411  -0.062   6.386   8.240 -1.7086 -1.3668 -2.2333
  322MOL0     H43412  -0.024   6.225   8.187  3.8476  0.1198 -1.1284
  322MOL0     H43413  -0.043   6.288   8.491  3.5041 -2.7644  1.4828
  322MOL0     H43414  -0.181   6.258   8.414  0.3467 -1.6633 -2.2557
  322MOL0     H43415  -0.143   6.033   8.461 -0.1117 -0.1180 -3.4439
  322MOL0     H43416  -0.016   6.051   8.339  1.5138 -1.6260  1.1422
  322MOL0     H43417   0.111   5.991   8.499 -0.5587 -1.1576 -0.0365
  322MOL0     H43418   0.115   6.168   8.541  1.2589 -1.0410  2.8382
  322MOL0     H43419   0.076   6.088   8.745 -0.0758 -0.2298  0.7240
  322MOL0     H43420  -0.021   5.932   8.680 -2.2851  0.0000 -6.0209
  322MOL0     H43421  -0.046   6.266   8.804  0.3129  0.1189 -4.6168
  322MOL0     H43422  -0.429   6.352   8.909 -0.0510 -0.2760  1.0849
  322MOL0     H43423  -0.308   6.288   9.013 -1.5217 -1.3568 -0.3354
  322MOL0     H43424  -0.150   6.455   8.933  0.5962  0.1809 -3.2117
  322MOL0     H43425  -0.296   6.531   8.992  2.1765 -1.6009  1.4992
  322MOL0     H43426  -0.379   6.582   8.787 -0.5810 -1.9096  1.1606
  322MOL0     H43427  -0.280   6.480   8.693 -3.9183  0.2271 -0.9698
  322MOL0     H43428  -0.153   6.703   8.858  0.1819 -0.3925  0.1001
  322MOL0     H43429  -0.238   6.743   8.705  2.0651 -0.3281 -2.4665
  322MOL0     H43430  -0.007   6.866   8.715 -2.8238 -2.9563  0.8008
  322MOL0     H43431   0.223   7.028   8.895 -0.6524 -0.3837  0.3385
  322MOL0     H43432   0.282   7.021   8.727 -0.7920  0.8779 -0.7269
  322MOL0     H43433   0.103   7.039   8.775 -0.0614  1.4308 -0.7453
  322MOL0     H43434   0.682   6.954   8.728  1.6564  2.2817 -1.9084
  322MOL0     H43435   0.919   6.985   8.832 -0.0617  1.5554  0.2081
  322MOL0     H43436   1.062   7.073   9.246  2.6418 -0.8467  1.6945
  322MOL0     H43437   0.981   6.905   9.244 -4.5353 -1.3257 -5.7115
  322MOL0     H43438   1.250   7.012   9.182 -3.8085  4.1289  2.7172
  322MOL0     H43439   1.213   6.889   9.298 -2.9243  3.0221  0.9449
  322MOL0     H43440   1.169   6.843   9.000  4.0788  0.2764 -1.2202
  322MOL0     H43441   1.144   6.719   9.125 -0.0067 -1.0592 -1.5894
  322MOL0     H43442   1.424   6.836   9.069 -1.6840  2.3379  2.0563
  322MOL0     H43443   1.379   6.723   9.190  2.6951  0.6768 -0.2295
  322MOL0     H43444   1.329   6.656   8.895  1.7289 -0.0292  0.3013
  322MOL0     H43445   1.276   6.567   9.034 -0.9564  0.4010 -2.4303
  322MOL0     H43446   1.569   6.621   8.999  1.5493 -0.6985  0.0832
  322MOL0     H43447   1.487   6.498   9.099 -2.5729  1.4107  1.0925
  322MOL0     H43448   1.408   6.391   8.877  0.3757 -1.0568  1.9791
  322MOL0     H43449   1.582   6.377   8.891 -0.6135 -1.3982 -0.9922
  322MOL0     H43450   1.480   6.620   8.746 -1.4885 -0.8132 -1.7499
  322MOL0     H43451   1.519   6.456   8.666 -1.4798  1.7896 -0.4250
  322MOL0     H43452   0.748   6.985   9.225  1.3483 -0.2377 -0.8844
  322MOL0     H43453   0.525   6.945   9.121  0.1589  1.2590  3.0324
  322MOL0     H43454   0.350   6.545   8.798 -1.1049 -1.2127 -1.0535
  322MOL0     H43455   0.125   6.465   8.735  1.1757 -0.0455 -0.9719
  322MOL0     H43456   0.071   6.691   7.942  0.6688 -0.4360 -1.0720
  322MOL0     H43457   0.104   6.893   7.839  0.0077 -2.9706 -0.0454
  322MOL0     H43458   0.223   7.348   7.956 -1.2856  1.2048  0.8449
  322MOL0     H43459   0.269   7.586   7.920 -0.0960 -0.5627  0.3062
  322MOL0     H43460   0.409   7.753   7.856 -1.2407  2.1070 -0.6275
  322MOL0     H43461   0.550   7.670   7.763 -1.0138 -1.6002 -3.5143
  322MOL0     H43462   0.409   7.931   7.677 -2.6240 -3.0058  0.1833
  322MOL0     H43463   0.542   7.856   7.598  0.3564 -3.5247  0.5275
  322MOL0     H43464   0.601   8.025   7.728  0.7505 -0.2110  0.2208
  322MOL0     H43465   0.689   7.902   7.805 -0.5423 -1.2653  3.2561
  322MOL0     H43466   0.619   8.024   7.985  0.0770 -0.1168  1.2206
  322MOL0     H43467   0.523   7.872   7.989  0.6478 -1.2835 -2.2491
  322MOL0     H43468   0.207   8.154   7.912 -0.6979  0.4206 -0.6449
  322MOL0     H43469   0.354   7.493   7.503  0.7671 -0.3416  0.2738
  322MOL0     H43470   0.304   7.250   7.553 -0.5962 -0.5500  0.7328
  323MOL0     O43471   4.938   4.685   8.948 -0.6400  0.4097  0.6186
  323MOL0     C43472   4.986   4.632   8.848  0.0494  0.5272  0.8682
  323MOL0     O43473   4.918   4.613   8.729  0.2171 -0.2184 -0.6760
  323MOL0     C43474   4.800   4.685   8.700 -0.3747 -0.2186 -0.1834
  323MOL0     C43475   4.688   4.692   8.784 -0.2351  0.2254  1.2920
  323MOL0     C43476   4.565   4.761   8.735 -0.5001  0.0650 -0.0978
  323MOL0     C43477   4.561   4.817   8.614  0.5019  0.9327  0.3461
  323MOL0     O43478   4.447   4.884   8.573 -0.3494 -0.5352 -0.1888
  323MOL0     C43479   4.363   4.930   8.681  0.9952 -0.4566 -0.0713
  323MOL0     C43480   4.252   5.004   8.617  0.0487  0.5664  0.6433
  323MOL0     C43481   4.117   4.960   8.682  0.3869  0.4223 -0.4878
  323MOL0     C43482   3.997   5.040   8.664 -0.5962  0.2778  0.0935
  323MOL0     C43483   3.877   4.988   8.747  0.1396 -0.9431  0.1677
  323MOL0     C43484   3.896   5.030   8.896 -0.3652  0.0077  1.0978
  323MOL0     C43485   3.796   4.943   8.978 -0.1553  0.2476  0.4739
  323MOL0     C43486   3.743   5.026   9.096 -0.3754  0.6227  0.5504
  323MOL0     N43487   3.651   4.954   9.180 -0.5960  0.1999 -0.1991
  323MOL0     C43488   3.686   4.873   9.285 -0.3461 -0.4246  0.2516
  323MOL0     C43489   3.576   4.796   9.318  0.3006 -0.5778 -0.3904
  323MOL0     C43490   3.556   4.720   9.447  0.3187  0.0965  0.4885
  323MOL0     C43491   3.457   4.606   9.429 -0.4321  0.5922  0.5839
  323MOL0     C43492   3.373   4.564   9.555  0.3783  0.2767  0.4725
  323MOL0     C43493   3.339   4.669   9.665 -0.4377  0.2515  0.1398
  323MOL0     O43494   3.205   4.652   9.713 -0.3325  0.6166  0.0335
  323MOL0     C43495   3.098   4.681   9.629  0.0265 -0.5897  0.4899
  323MOL0     C43496   3.114   4.731   9.490  0.4003 -0.0303 -1.2738
  323MOL0     C43497   3.004   4.751   9.417 -0.4078 -0.4831  0.3390
  323MOL0     C43498   3.012   4.791   9.279  0.0524 -0.0871 -0.3666
  323MOL0     C43499   2.870   4.747   9.482 -0.1905 -0.2474 -0.7257
  323MOL0     C43500   2.747   4.776   9.412 -0.6464  0.5487  0.4705
  323MOL0     O43501   2.716   4.894   9.364 -0.8456  0.4118 -0.9531
  323MOL0     C43502   2.592   4.932   9.315  0.5194 -0.3089  0.5227
  323MOL0     C43503   2.484   4.859   9.265 -0.1051  0.0103  0.8741
  323MOL0     C43504   2.369   4.925   9.221  1.0476 -0.5651 -0.0179
  323MOL0     C43505   2.353   5.058   9.230  0.0126 -0.3666  0.2182
  323MOL0     O43506   2.221   5.103   9.208  0.5498 -0.1395  0.0493
  323MOL0     C43507   2.189   5.244   9.202  0.6836 -0.4802 -0.3058
  323MOL0     C43508   2.051   5.276   9.146  0.5596  0.3954 -0.3952
  323MOL0     C43509   2.017   5.424   9.153 -0.6296  0.3066  0.2428
  323MOL0     C43510   1.881   5.456   9.097  0.2514 -0.5628  0.5623
  323MOL0     C43511   1.838   5.595   9.115 -0.5000 -0.6838  0.0653
  323MOL0     C43512   1.713   5.620   9.031 -1.2266  0.0482 -0.1090
  323MOL0     C43513   1.670   5.760   9.010 -0.7827 -1.1207 -0.1352
  323MOL0     C43514   1.606   5.809   9.133  0.0683 -0.2282 -0.5054
  323MOL0    Cl43515   1.438   5.742   9.135  0.2221 -0.2152  0.1869
  323MOL0     C43516   2.454   5.147   9.275 -0.0772  0.6186  0.3227
  323MOL0     C43517   2.577   5.072   9.312 -0.0664  0.0548  0.6757
  323MOL0     O43518   2.668   4.682   9.421  0.5533 -1.0553  0.8788
  323MOL0     C43519   2.859   4.700   9.611 -0.6966 -0.4381 -1.1726
  323MOL0     C43520   2.971   4.655   9.684 -0.7675  0.6245  0.2468
  323MOL0     N43521   3.475   4.842   9.237  0.0478 -0.0335  0.0686
  323MOL0     N43522   3.522   4.940   9.156 -0.5192  0.7162  0.7618
  323MOL0     C43523   4.670   4.793   8.521  0.4738 -0.0450 -0.3316
  323MOL0     C43524   4.796   4.741   8.569  0.3407  0.6656  0.7934
  323MOL0     C43525   5.115   4.563   8.854 -0.4011  0.8501 -0.6890
  323MOL0     C43526   5.189   4.578   8.978 -0.1976 -1.1320 -0.1996
  323MOL0     C43527   5.321   4.524   8.998  1.0979  0.2885 -0.2399
  323MOL0     C43528   5.372   4.450   8.892 -0.0536  0.4352  0.7225
  323MOL0     O43529   5.491   4.389   8.895 -0.8351  0.3816  0.1310
  323MOL0     C43530   5.608   4.455   8.958 -0.5054 -0.6263  0.4258
  323MOL0     C43531   5.627   4.398   9.095  0.4674  0.3205  0.4364
  323MOL0     C43532   5.606   4.248   9.098  0.0192  0.8860 -0.5054
  323MOL0     C43533   5.695   4.162   9.190  0.0412 -0.4094 -0.2956
  323MOL0     C43534   5.828   4.161   9.142  0.5727  0.5494  0.4389
  323MOL0     C43535   5.946   4.151   9.112  0.4601 -0.2202 -0.0876
  323MOL0     C43536   5.289   4.405   8.785 -0.2845 -0.3223 -0.2042
  323MOL0     C43537   5.154   4.462   8.767 -0.1572 -0.2601  0.3796
  323MOL0     H43538   4.703   4.636   8.875 -1.9751  0.5016  1.7877
  323MOL0     H43539   4.477   4.755   8.799 -0.6054  0.2011 -0.2283
  323MOL0     H43540   4.308   4.855   8.739 -1.6509  2.8730  2.0764
  323MOL0     H43541   4.421   4.990   8.751  0.2087  0.6688 -0.3568
  323MOL0     H43542   4.275   5.111   8.623  0.2217  0.4924  1.3531
  323MOL0     H43543   4.244   4.981   8.510  2.3957 -1.5105  0.8124
  323MOL0     H43544   4.088   4.864   8.639  0.1618  0.9027 -1.4237
  323MOL0     H43545   4.130   4.949   8.790 -1.0615 -0.4454 -0.3797
  323MOL0     H43546   4.024   5.144   8.686 -0.6087 -0.2776  3.1931
  323MOL0     H43547   3.974   5.039   8.557 -1.3314  2.3446  0.1865
  323MOL0     H43548   3.781   5.025   8.711  2.5792  3.9887 -2.3362
  323MOL0     H43549   3.878   4.879   8.747 -0.8631 -0.9651  1.0288
  323MOL0     H43550   3.990   5.006   8.946 -0.6379 -2.2680  0.6508
  323MOL0     H43551   3.868   5.136   8.901  0.1561  0.0791  3.1471
  323MOL0     H43552   3.710   4.916   8.917  2.1752 -0.7689 -2.6198
  323MOL0     H43553   3.831   4.845   9.011 -0.2809  0.3592  0.9499
  323MOL0     H43554   3.699   5.122   9.068 -0.6434  0.0182 -1.2218
  323MOL0     H43555   3.828   5.057   9.158 -0.0778 -1.2024  1.1191
  323MOL0     H43556   3.784   4.873   9.331  0.2461 -0.9854 -0.9469
  323MOL0     H43557   3.652   4.674   9.473 -0.2359 -0.8663  0.8599
  323MOL0     H43558   3.533   4.793   9.524 -2.4847 -0.8330  0.6253
  323MOL0     H43559   3.521   4.524   9.393 -0.8033  1.7732 -3.1174
  323MOL0     H43560   3.389   4.619   9.345 -0.9320 -0.2251  0.8488
  323MOL0     H43561   3.430   4.492   9.615  1.3249 -2.0593 -2.9649
  323MOL0     H43562   3.274   4.525   9.530 -0.3925  1.6141  1.2561
  323MOL0     H43563   3.334   4.774   9.635 -3.1202  1.0550  2.8278
  323MOL0     H43564   3.410   4.654   9.746 -0.9272  1.0878  0.7380
  323MOL0     H43565   3.211   4.746   9.444 -0.0340 -0.2962 -2.2895
  323MOL0     H43566   3.106   4.772   9.227 -0.6470 -2.2134 -0.9652
  323MOL0     H43567   2.933   4.730   9.234 -1.1167 -1.0539  2.7283
  323MOL0     H43568   3.000   4.900   9.274  3.2182  0.3616 -0.1834
  323MOL0     H43569   2.482   4.751   9.257 -3.0599  0.0692 -0.8833
  323MOL0     H43570   2.292   4.865   9.176 -1.1734  3.0162 -1.4433
  323MOL0     H43571   2.187   5.295   9.299 -1.1108  2.1247 -1.5951
  323MOL0     H43572   2.267   5.289   9.138 -1.3403  2.7663 -0.7096
  323MOL0     H43573   2.049   5.242   9.042 -2.1690 -1.4503  0.1477
  323MOL0     H43574   1.973   5.229   9.207 -3.0048  1.5974 -3.6042
  323MOL0     H43575   2.079   5.478   9.081 -2.3844 -1.5519 -2.9164
  323MOL0     H43576   2.030   5.468   9.253  1.0479  0.8070 -0.1593
  323MOL0     H43577   1.873   5.427   8.991 -0.7301  1.0318  0.1723
  323MOL0     H43578   1.817   5.382   9.145 -0.7321 -0.0098  0.1126
  323MOL0     H43579   1.922   5.643   9.063  2.7776 -2.2458  3.3832
  323MOL0     H43580   1.827   5.628   9.219  0.2536  3.3481 -0.9536
  323MOL0     H43581   1.734   5.581   8.931  2.1791  2.3218 -0.4151
  323MOL0     H43582   1.634   5.555   9.070 -0.7015  0.1855  1.2305
  323MOL0     H43583   1.596   5.769   8.930 -2.0118  0.3887  1.0982
  323MOL0     H43584   1.753   5.825   8.981 -2.0690  1.0679  0.8318
  323MOL0     H43585   1.601   5.917   9.118  2.7860  0.4046  2.1238
  323MOL0     H43586   1.657   5.784   9.227  0.9301  3.7810  0.2915
  323MOL0     H43587   2.424   5.250   9.296 -0.0295  0.9308 -1.0398
  323MOL0     H43588   2.648   5.138   9.359 -1.5261  1.9581  0.3367
  323MOL0     H43589   2.758   4.691   9.649 -0.1335 -1.7345  0.1048
  323MOL0     H43590   2.960   4.604   9.779 -1.3507 -2.7264 -1.4424
  323MOL0     H43591   4.669   4.832   8.419  1.1216 -3.0312 -1.5933
  323MOL0     H43592   4.873   4.730   8.493 -0.7314 -4.6379  0.1006
  323MOL0     H43593   5.169   4.644   9.061  0.3060 -1.1370 -0.0725
  323MOL0     H43594   5.373   4.539   9.093 -1.9516  3.0300  1.2082
  323MOL0     H43595   5.694   4.458   8.891 -0.3368  0.6554  0.6683
  323MOL0     H43596   5.591   4.562   8.970 -2.6288 -0.5956 -2.0014
  323MOL0     H43597   5.575   4.468   9.161  0.5025  0.7882 -0.0308
  323MOL0     H43598   5.730   4.413   9.130  1.5338 -0.2763 -2.1579
  323MOL0     H43599   5.621   4.206   8.998  2.1922 -0.8696  0.5001
  323MOL0     H43600   5.502   4.226   9.125 -0.5938  2.3515 -1.5214
  323MOL0     H43601   5.664   4.057   9.196  1.7887 -0.8877  3.4599
  323MOL0     H43602   5.704   4.199   9.293  0.7521 -1.2218 -0.0543
  323MOL0     H43603   6.049   4.138   9.085  1.1255  2.2384  0.9729
  323MOL0     H43604   5.333   4.333   8.716  3.1224 -1.2296  2.6084
  323MOL0     H43605   5.109   4.436   8.672  2.1522  2.5183 -1.6659
  324MOL0     O43606  10.313   7.475   3.874 -0.0391  0.3484  0.6503
  324MOL0     C43607  10.427   7.454   3.910 -0.1848 -0.4707 -0.4411
  324MOL0     O43608  10.465   7.413   4.035 -0.3713  0.4870 -0.1776
  324MOL0     C43609  10.378   7.326   4.090 -0.3795  0.7868 -0.2974
  324MOL0     C43610  10.375   7.201   4.037 -1.2349 -0.5904  0.2106
  324MOL0     C43611  10.281   7.113   4.087  0.4124  0.4614 -0.3317
  324MOL0     C43612  10.186   7.146   4.187  0.0961 -0.3371 -0.1332
  324MOL0     O43613  10.088   7.064   4.217 -0.0237 -0.5879 -0.3370
  324MOL0     C43614  10.018   7.080   4.342 -0.3528 -0.0294  1.1100
  324MOL0     C43615  10.020   6.953   4.427  0.1412 -0.1802  0.6096
  324MOL0     C43616   9.973   6.838   4.338  0.5622 -0.5489  0.0930
  324MOL0     C43617   9.965   6.707   4.417 -0.1249  0.8230 -0.1402
  324MOL0     C43618   9.821   6.701   4.465 -0.3356  0.1397 -1.0105
  324MOL0     C43619   9.803   6.584   4.567  0.2921 -0.6923  0.9408
  324MOL0     C43620   9.657   6.534   4.568  0.3197  0.0707 -0.9551
  324MOL0     C43621   9.546   6.641   4.565  0.7443  0.5159  0.9026
  324MOL0     N43622   9.508   6.699   4.699 -0.6288 -0.2467  1.3705
  324MOL0     C43623   9.474   6.626   4.806  0.4188 -0.0471 -0.6232
  324MOL0     C43624   9.465   6.721   4.903  0.1309  1.0842 -0.2960
  324MOL0     C43625   9.418   6.682   5.042 -0.0984 -0.6610  0.7020
  324MOL0     C43626   9.544   6.684   5.133 -1.1401 -0.2252 -0.5200
  324MOL0     C43627   9.504   6.710   5.277  0.9842 -0.4188  0.1767
  324MOL0     C43628   9.458   6.865   5.284  0.1845  0.0974  0.2709
  324MOL0     O43629   9.529   6.961   5.197 -0.3994 -0.7559 -0.4508
  324MOL0     C43630   9.482   7.091   5.179  1.1461  0.7388 -0.5454
  324MOL0     C43631   9.498   7.156   5.062 -0.5406  0.8911  0.6569
  324MOL0     C43632   9.439   7.285   5.039  0.1382  0.0702  0.3509
  324MOL0     C43633   9.483   7.346   4.902 -0.1876  0.5796  1.5644
  324MOL0     C43634   9.367   7.349   5.140 -0.1744 -0.6697  0.6751
  324MOL0     C43635   9.304   7.482   5.127  0.5550 -0.6122 -0.4485
  324MOL0     O43636   9.300   7.541   5.006 -0.1439 -0.5072 -0.3758
  324MOL0     C43637   9.237   7.658   4.982 -0.1526  0.2453 -0.7315
  324MOL0     C43638   9.280   7.769   5.062 -1.2063  0.0697  0.4380
  324MOL0     C43639   9.220   7.888   5.045  0.0224  0.6970  0.0637
  324MOL0     C43640   9.112   7.903   4.956  0.3401 -0.3627  0.3692
  324MOL0     O43641   9.059   8.027   4.935 -0.4508 -0.4147  0.6157
  324MOL0     C43642   9.166   8.125   4.910  0.3811 -0.0771  0.3281
  324MOL0     C43643   9.089   8.272   4.871 -0.0954  0.5696  0.4775
  324MOL0     C43644   9.000   8.261   4.750  0.4830 -0.7120  0.0723
  324MOL0     C43645   8.947   8.398   4.719  0.3586 -1.7144 -0.0620
  324MOL0     C43646   8.860   8.421   4.589  0.0294  0.1203 -0.2191
  324MOL0     C43647   8.837   8.572   4.567 -0.4861 -0.6364  1.4336
  324MOL0     C43648   8.722   8.599   4.463  0.0244  0.3647 -0.7543
  324MOL0     C43649   8.647   8.724   4.478  0.3808 -0.2675  0.6317
  324MOL0    Cl43650   8.502   8.701   4.383 -0.2011 -0.2422 -0.3368
  324MOL0     C43651   9.059   7.789   4.893 -0.1647  0.6922 -1.3941
  324MOL0     C43652   9.128   7.667   4.902  0.6857 -0.0359 -0.8581
  324MOL0     O43653   9.247   7.523   5.235 -0.4229 -0.1041  0.3870
  324MOL0     C43654   9.348   7.282   5.256  0.8185  0.0367 -0.3167
  324MOL0     C43655   9.411   7.155   5.278  0.5502 -0.1717 -0.4341
  324MOL0     N43656   9.504   6.841   4.854 -0.1898  0.1757 -0.1435
  324MOL0     N43657   9.515   6.831   4.728  0.2702  0.1595  0.0408
  324MOL0     C43658  10.188   7.284   4.237 -0.3341 -0.5567 -0.4527
  324MOL0     C43659  10.291   7.366   4.187 -0.2679 -0.3389 -0.2636
  324MOL0     C43660  10.529   7.478   3.806  0.4464 -1.1960 -0.3074
  324MOL0     C43661  10.667   7.454   3.837 -0.1371  0.8042 -0.0499
  324MOL0     C43662  10.755   7.458   3.730  0.0792  0.0870 -0.2303
  324MOL0     C43663  10.718   7.502   3.600 -0.4034  0.6245 -0.3758
  324MOL0     O43664  10.824   7.494   3.507  0.0757  0.0631  0.0231
  324MOL0     C43665  10.788   7.496   3.368  0.0166 -0.7417  0.1286
  324MOL0     C43666  10.895   7.429   3.279  0.2168 -1.1301 -0.6570
  324MOL0     C43667  10.939   7.297   3.336  0.0321  0.4553  0.2129
  324MOL0     C43668  10.913   7.183   3.235 -0.4756 -0.6136  0.5798
  324MOL0     C43669  10.948   7.058   3.298 -0.1404  0.3268  0.2500
  324MOL0     C43670  11.001   6.952   3.335  0.2659 -0.3636  0.5368
  324MOL0     C43671  10.586   7.540   3.571  0.5250 -0.2150  0.1170
  324MOL0     C43672  10.489   7.524   3.675 -1.1147 -0.0706  0.3330
  324MOL0     H43673  10.442   7.170   3.958 -1.3136  1.6867 -0.8107
  324MOL0     H43674  10.292   7.010   4.053  3.1699  1.1844 -1.9378
  324MOL0     H43675  10.062   7.153   4.410 -1.0939 -0.6112  2.2359
  324MOL0     H43676   9.916   7.109   4.314 -0.2261  0.1232  0.7946
  324MOL0     H43677  10.125   6.942   4.452 -0.0932 -0.4860  1.4735
  324MOL0     H43678   9.962   6.965   4.519  0.7001  3.5897  0.6115
  324MOL0     H43679   9.883   6.850   4.277  1.0007 -0.1072 -0.4791
  324MOL0     H43680  10.054   6.814   4.269  2.0592  2.5272  0.5841
  324MOL0     H43681   9.991   6.624   4.352  0.2370  0.7848  0.0477
  324MOL0     H43682  10.035   6.703   4.501  0.2198 -0.4360 -0.4634
  324MOL0     H43683   9.786   6.798   4.500 -2.8064 -0.6859 -1.0454
  324MOL0     H43684   9.764   6.694   4.372  1.2434  1.5334 -2.1538
  324MOL0     H43685   9.865   6.502   4.531 -1.2197 -2.4133  2.0777
  324MOL0     H43686   9.838   6.623   4.663 -1.4330  1.1943  0.8674
  324MOL0     H43687   9.644   6.478   4.475  1.6525 -1.2181 -0.4072
  324MOL0     H43688   9.632   6.463   4.647 -2.2683 -1.2478 -2.8314
  324MOL0     H43689   9.458   6.595   4.517  2.1389 -0.7288 -0.5749
  324MOL0     H43690   9.565   6.724   4.497 -3.0450 -0.4063 -1.6692
  324MOL0     H43691   9.460   6.519   4.820 -0.1597  0.1647  0.4765
  324MOL0     H43692   9.355   6.766   5.072 -1.9643 -1.5640 -0.4687
  324MOL0     H43693   9.357   6.591   5.044 -0.7882 -0.2072  0.4351
  324MOL0     H43694   9.627   6.752   5.111  3.3104 -4.8270 -0.0182
  324MOL0     H43695   9.590   6.585   5.119 -0.1250 -0.1575  1.8974
  324MOL0     H43696   9.589   6.695   5.344  1.2623  1.6813  0.3682
  324MOL0     H43697   9.428   6.640   5.311  3.3252 -4.7744 -2.6411
  324MOL0     H43698   9.457   6.890   5.391 -2.7073 -2.2176  0.9258
  324MOL0     H43699   9.354   6.871   5.251  0.2012 -2.9555 -0.6526
  324MOL0     H43700   9.557   7.107   4.985 -2.7573 -1.2901  0.2225
  324MOL0     H43701   9.496   7.258   4.838 -1.0055 -2.1891  4.9023
  324MOL0     H43702   9.415   7.424   4.869 -0.6150 -0.3932  0.0470
  324MOL0     H43703   9.580   7.394   4.916 -0.0414  0.4641  0.9647
  324MOL0     H43704   9.354   7.775   5.142 -0.1041  1.8707 -0.6436
  324MOL0     H43705   9.258   7.973   5.100 -0.1779  2.0509 -1.7874
  324MOL0     H43706   9.227   8.138   5.000  1.9701 -1.0984 -0.5499
  324MOL0     H43707   9.234   8.087   4.834  0.3055  1.0198 -0.3024
  324MOL0     H43708   9.045   8.299   4.967 -1.5851  1.2322 -0.3530
  324MOL0     H43709   9.172   8.339   4.846 -1.4806  1.6608 -1.4618
  324MOL0     H43710   8.912   8.197   4.768  1.4776 -1.9018  0.8595
  324MOL0     H43711   9.054   8.202   4.675 -2.4865 -4.0445  0.2814
  324MOL0     H43712   8.905   8.447   4.807 -0.3160 -2.3965  0.0086
  324MOL0     H43713   9.032   8.465   4.703 -0.5543 -1.0458 -2.6727
  324MOL0     H43714   8.770   8.363   4.606 -0.3889 -0.4191 -3.6102
  324MOL0     H43715   8.906   8.374   4.501  1.0360  0.4186  0.1263
  324MOL0     H43716   8.803   8.627   4.656  0.9110  4.1348 -0.6385
  324MOL0     H43717   8.929   8.624   4.538  0.5645 -1.5427  2.9993
  324MOL0     H43718   8.653   8.516   4.480  0.0875  0.5064  0.2418
  324MOL0     H43719   8.756   8.598   4.359 -0.8227  1.7100 -1.0717
  324MOL0     H43720   8.704   8.805   4.432 -3.2169  0.9105 -2.1856
  324MOL0     H43721   8.619   8.743   4.582 -2.0487 -0.7100  0.1160
  324MOL0     H43722   8.970   7.817   4.838  0.3002  4.7931 -0.4320
  324MOL0     H43723   9.096   7.576   4.852  1.2786 -0.4924 -0.4074
  324MOL0     H43724   9.284   7.320   5.336  1.6961  0.9235 -0.0175
  324MOL0     H43725   9.400   7.102   5.372 -1.2348  0.0788 -0.4673
  324MOL0     H43726  10.118   7.328   4.306 -2.0869 -4.0089  0.1754
  324MOL0     H43727  10.302   7.467   4.226 -0.5520 -0.6995  0.7781
  324MOL0     H43728  10.708   7.396   3.918  3.8433 -2.4425 -3.8540
  324MOL0     H43729  10.855   7.423   3.751 -0.7983 -2.0521  0.7057
  324MOL0     H43730  10.691   7.447   3.349 -1.0427  1.6927 -1.2980
  324MOL0     H43731  10.779   7.603   3.347  3.3387 -0.5585 -0.8462
  324MOL0     H43732  10.973   7.504   3.290 -1.1108  0.0373  1.5186
  324MOL0     H43733  10.863   7.422   3.175  1.7313  1.2403 -1.3711
  324MOL0     H43734  10.883   7.272   3.427  0.3956 -0.9054  0.0799
  324MOL0     H43735  11.044   7.296   3.368  0.6810 -0.9010 -1.7849
  324MOL0     H43736  10.968   7.202   3.142 -0.5347  3.1572  1.1676
  324MOL0     H43737  10.808   7.184   3.204 -0.1476  0.6016 -0.5926
  324MOL0     H43738  11.068   6.890   3.392 -0.8562  1.0107  3.5842
  324MOL0     H43739  10.557   7.586   3.477  0.7816  2.8524  1.4248
  324MOL0     H43740  10.386   7.552   3.658 -0.6033  0.3268 -2.6923
  325MOL0     O43741   7.587  10.200   0.496 -0.3302 -0.9273  0.1915
  325MOL0     C43742   7.623  10.084   0.483  0.1407 -0.0525 -0.4930
  325MOL0     O43743   7.609  10.001   0.372  0.3950 -0.3406 -0.4578
  325MOL0     C43744   7.561  10.049   0.256 -0.3485 -0.2272 -0.6738
  325MOL0     C43745   7.646  10.112   0.163  0.1428  1.0058 -1.3945
  325MOL0     C43746   7.601  10.165   0.050 -0.5436 -0.5306  0.2067
  325MOL0     C43747   7.464  10.167   0.019 -0.3133 -0.2496  0.6771
  325MOL0     O43748   7.410  10.247  -0.086 -0.7317  0.0423  0.7451
  325MOL0     C43749   7.284  10.303  -0.080  0.2805 -0.1847  0.4382
  325MOL0     C43750   7.227  10.348  -0.223  0.2757 -0.0596 -0.3066
  325MOL0     C43751   7.124  10.461  -0.206 -0.2495  1.7752 -0.0197
  325MOL0     C43752   6.985  10.410  -0.129 -0.8353 -0.0259 -0.0749
  325MOL0     C43753   6.896  10.527  -0.110 -0.6557  0.5528 -0.1670
  325MOL0     C43754   6.822  10.567  -0.239  0.6862 -1.1185 -0.4295
  325MOL0     C43755   6.690  10.652  -0.206 -0.0890  0.9103  0.6184
  325MOL0     C43756   6.562  10.572  -0.225 -0.3019  0.8700 -0.7163
  325MOL0     N43757   6.443  10.651  -0.194  0.5677  0.1183  1.8851
  325MOL0     C43758   6.384  10.749  -0.270  0.5473  0.0607  1.1330
  325MOL0     C43759   6.251  10.743  -0.243  0.1292  0.0964  0.2487
  325MOL0     C43760   6.146  10.835  -0.291 -0.3395 -0.0236  0.1615
  325MOL0     C43761   6.055  10.767  -0.377  1.3501  1.0811  0.8328
  325MOL0     C43762   5.931  10.850  -0.410 -0.2842 -0.3331  0.0033
  325MOL0     C43763   5.842  10.802  -0.531 -1.4783  0.6498  0.3111
  325MOL0     O43764   5.905  10.829  -0.661 -0.5798  1.5550 -0.9414
  325MOL0     C43765   5.840  10.797  -0.777 -0.4372  0.3957 -0.3805
  325MOL0     C43766   5.711  10.734  -0.789  1.0977 -0.4432  0.1893
  325MOL0     C43767   5.657  10.699  -0.917  0.8122  0.7010 -0.5282
  325MOL0     C43768   5.525  10.623  -0.909  0.7466  0.0397 -0.6408
  325MOL0     C43769   5.711  10.758  -1.034  0.9617  0.2874 -1.1459
  325MOL0     C43770   5.676  10.752  -1.175  0.4755  0.5371  1.2458
  325MOL0     O43771   5.601  10.644  -1.215  0.5536  0.4368 -0.2620
  325MOL0     C43772   5.527  10.643  -1.334  0.1679 -0.4803 -0.0983
  325MOL0     C43773   5.394  10.584  -1.325  0.5085 -1.2523 -0.3106
  325MOL0     C43774   5.307  10.578  -1.441  0.3888  0.6841 -0.5796
  325MOL0     C43775   5.361  10.622  -1.570 -0.1401 -0.5066  0.1550
  325MOL0     O43776   5.298  10.589  -1.692 -0.2075 -0.3459 -0.3770
  325MOL0     C43777   5.158  10.613  -1.699  0.7338  0.1735  0.5590
  325MOL0     C43778   5.102  10.544  -1.824 -0.0538  0.2194  0.1104
  325MOL0     C43779   4.962  10.478  -1.820 -1.1360  0.5430  0.2332
  325MOL0     C43780   4.854  10.587  -1.807 -0.2486  0.2379 -0.6046
  325MOL0     C43781   4.706  10.560  -1.850  0.1277  0.5211  0.7850
  325MOL0     C43782   4.632  10.691  -1.860  0.4441 -0.2543  0.4653
  325MOL0     C43783   4.480  10.692  -1.892 -0.1071 -1.4021  0.0700
  325MOL0     C43784   4.395  10.590  -1.829  0.9299  0.7300 -0.4363
  325MOL0    Cl43785   4.327  10.634  -1.654  0.1173 -0.0726  0.0655
  325MOL0     C43786   5.488  10.687  -1.582 -0.6551  0.0166  0.2096
  325MOL0     C43787   5.566  10.678  -1.466 -0.4311 -0.2227  0.7424
  325MOL0     O43788   5.719  10.833  -1.256  1.0824 -0.9935 -0.2084
  325MOL0     C43789   5.844  10.820  -1.016  0.4819 -0.2563  0.5476
  325MOL0     C43790   5.911  10.833  -0.895  0.8269 -0.0566  0.5920
  325MOL0     N43791   6.231  10.651  -0.148  0.1530 -0.1541 -1.0123
  325MOL0     N43792   6.345  10.598  -0.117  0.2295 -0.2866  1.0363
  325MOL0     C43793   7.376  10.101   0.107 -0.3001 -0.0115 -0.9677
  325MOL0     C43794   7.423  10.043   0.226  0.0682 -0.1797 -0.5118
  325MOL0     C43795   7.707  10.024   0.587 -0.2905 -0.0697 -0.0402
  325MOL0     C43796   7.798   9.918   0.557  0.0985 -0.5908  0.0564
  325MOL0     C43797   7.905   9.885   0.646  0.8346 -0.6395 -0.6230
  325MOL0     C43798   7.910   9.945   0.777 -0.4503 -0.1297  0.4434
  325MOL0     O43799   8.006   9.894   0.860 -0.8122  0.1184  0.1211
  325MOL0     C43800   7.998   9.925   1.000 -0.1709  0.6293  0.1115
  325MOL0     C43801   7.922   9.821   1.086 -0.8822  0.2533 -1.3390
  325MOL0     C43802   7.984   9.688   1.070 -0.7514 -0.2621  0.5947
  325MOL0     C43803   7.900   9.601   0.971 -0.1923  0.5155 -0.2066
  325MOL0     C43804   7.972   9.485   0.921 -0.7026  0.4486 -0.5526
  325MOL0     C43805   8.023   9.378   0.884 -0.2607 -0.9929  0.0085
  325MOL0     C43806   7.810  10.040   0.807  0.4132  0.4760  0.1380
  325MOL0     C43807   7.718  10.081   0.712 -0.3538  0.4530  0.0942
  325MOL0     H43808   7.752  10.095   0.175 -0.1537 -1.6755 -1.9279
  325MOL0     H43809   7.677  10.207  -0.015 -1.2607  1.1601  0.4138
  325MOL0     H43810   7.215  10.229  -0.038  1.1272 -1.7974 -0.8853
  325MOL0     H43811   7.283  10.393  -0.018  2.2241  0.7911 -0.8351
  325MOL0     H43812   7.316  10.376  -0.280  1.0451 -1.6075  0.1028
  325MOL0     H43813   7.189  10.259  -0.274  2.7821 -1.9703  0.9279
  325MOL0     H43814   7.161  10.548  -0.151 -2.1330  0.5166  3.5506
  325MOL0     H43815   7.091  10.488  -0.307  0.0500  3.0741  0.2113
  325MOL0     H43816   6.925  10.338  -0.186 -0.6992  1.2845 -1.9727
  325MOL0     H43817   7.018  10.380  -0.029 -2.2203  1.0534  0.7600
  325MOL0     H43818   6.824  10.501  -0.031 -2.2470 -1.8958 -2.2294
  325MOL0     H43819   6.958  10.609  -0.075  2.4963 -0.6840 -2.3853
  325MOL0     H43820   6.898  10.620  -0.297 -0.3473 -0.9808 -1.7114
  325MOL0     H43821   6.780  10.477  -0.286 -1.3156  0.0962 -1.0859
  325MOL0     H43822   6.697  10.691  -0.104  1.0978 -2.3272  1.9016
  325MOL0     H43823   6.688  10.741  -0.270 -0.4915 -0.8500 -1.9760
  325MOL0     H43824   6.568  10.491  -0.153 -2.6179  2.3046  1.2468
  325MOL0     H43825   6.563  10.531  -0.326  3.5438  1.5456 -1.0884
  325MOL0     H43826   6.431  10.812  -0.346  0.8538 -1.4670 -0.0096
  325MOL0     H43827   6.095  10.868  -0.200  1.7312  2.4742  0.5179
  325MOL0     H43828   6.196  10.920  -0.337  0.5052 -1.2367 -1.2679
  325MOL0     H43829   6.019  10.676  -0.329  0.9231 -0.5426 -2.3093
  325MOL0     H43830   6.089  10.737  -0.476 -3.1647 -1.0292 -0.3146
  325MOL0     H43831   5.957  10.953  -0.434 -0.6012 -0.2812 -0.1246
  325MOL0     H43832   5.861  10.832  -0.328  3.4609 -1.9824  3.1388
  325MOL0     H43833   5.748  10.856  -0.519 -1.0182  1.5173  0.0459
  325MOL0     H43834   5.838  10.693  -0.523  2.0553  0.3293 -0.6203
  325MOL0     H43835   5.662  10.688  -0.703 -3.6273  0.4009 -1.7197
  325MOL0     H43836   5.451  10.689  -0.956  1.5094  2.6172  1.5092
  325MOL0     H43837   5.519  10.526  -0.958 -0.8558  0.8168 -2.0860
  325MOL0     H43838   5.502  10.600  -0.804  0.9139 -2.3279 -1.0795
  325MOL0     H43839   5.353  10.559  -1.228 -1.3420  4.1510  0.6445
  325MOL0     H43840   5.215  10.521  -1.435  1.5145 -1.1249  1.4479
  325MOL0     H43841   5.101  10.572  -1.615  0.9935  0.1544  0.7294
  325MOL0     H43842   5.137  10.720  -1.711 -0.0060 -0.0892 -0.5616
  325MOL0     H43843   5.086  10.622  -1.899 -2.1122  1.2944  1.5519
  325MOL0     H43844   5.174  10.465  -1.848 -0.4814 -0.9290  2.3690
  325MOL0     H43845   4.954  10.394  -1.750 -0.8487 -4.1590 -4.7212
  325MOL0     H43846   4.936  10.427  -1.913 -1.0687  0.6223  0.1716
  325MOL0     H43847   4.844  10.599  -1.699 -0.2734  3.3981 -0.8759
  325MOL0     H43848   4.879  10.683  -1.854 -1.1552  0.6766 -0.2082
  325MOL0     H43849   4.654  10.501  -1.774 -1.3825 -1.1186 -1.3943
  325MOL0     H43850   4.716  10.505  -1.944  0.6637 -0.5062  1.4250
  325MOL0     H43851   4.649  10.737  -1.762  3.8102  3.5569 -1.5650
  325MOL0     H43852   4.685  10.758  -1.929  0.8994  1.3849  2.3137
  325MOL0     H43853   4.481  10.682  -2.001 -0.7211 -0.0121 -0.0823
  325MOL0     H43854   4.439  10.790  -1.867  1.4827 -0.9763  1.1502
  325MOL0     H43855   4.436  10.489  -1.826  2.0652  1.1760  1.9350
  325MOL0     H43856   4.303  10.593  -1.888  0.1320  0.5677  0.7479
  325MOL0     H43857   5.527  10.728  -1.674  0.1563  0.6665  0.8251
  325MOL0     H43858   5.659  10.730  -1.480 -1.3350  0.9052 -1.5165
  325MOL0     H43859   5.900  10.868  -1.095 -1.2243  2.0458  0.6001
  325MOL0     H43860   6.004  10.889  -0.891 -1.2625  3.7317  0.5458
  325MOL0     H43861   7.272  10.083   0.080 -0.4237 -2.3621  0.7295
  325MOL0     H43862   7.372   9.986   0.304 -0.0642 -1.0148 -1.1960
  325MOL0     H43863   7.790   9.865   0.463  1.4100 -1.5983  0.4836
  325MOL0     H43864   7.978   9.812   0.614  2.5166 -1.2384  3.8096
  325MOL0     H43865   8.098   9.918   1.044 -1.3731 -2.3333  2.8075
  325MOL0     H43866   7.975  10.032   1.004  3.1207  1.4573  4.3473
  325MOL0     H43867   7.817   9.816   1.057 -0.9748  0.8005 -1.1055
  325MOL0     H43868   7.931   9.843   1.193  0.3021 -0.6185 -1.2403
  325MOL0     H43869   7.988   9.630   1.162 -0.9706 -0.0551  0.7342
  325MOL0     H43870   8.085   9.697   1.028 -0.7628 -2.5130 -0.0617
  325MOL0     H43871   7.861   9.658   0.886  0.7227 -1.4668 -2.0681
  325MOL0     H43872   7.815   9.549   1.016 -0.5600 -2.3072 -3.7196
  325MOL0     H43873   8.062   9.293   0.832 -3.2153 -2.7999  0.5403
  325MOL0     H43874   7.800  10.096   0.899 -2.9854 -2.4723  1.7730
  325MOL0     H43875   7.640  10.153   0.730  0.3152  1.1836  0.1336
  326MOL0     O43876   4.065   1.360   9.377  0.1151 -0.5298  0.1994
  326MOL0     C43877   4.125   1.399   9.276 -0.3568 -0.3733 -0.8332
  326MOL0     O43878   4.113   1.522   9.215  0.6267  0.6239  0.9037
  326MOL0     C43879   4.030   1.621   9.243 -0.0547  0.0598 -0.4834
  326MOL0     C43880   3.951   1.626   9.356  0.1417 -0.4563 -0.2481
  326MOL0     C43881   3.863   1.724   9.380 -0.4417  0.5337  0.2501
  326MOL0     C43882   3.849   1.836   9.299  0.5995 -0.3455  0.9183
  326MOL0     O43883   3.756   1.923   9.345 -0.3701  0.0072 -0.0406
  326MOL0     C43884   3.784   2.067   9.328  0.5215  0.1747  0.2350
  326MOL0     C43885   3.832   2.118   9.462 -0.3613  0.3499  0.3417
  326MOL0     C43886   3.830   2.271   9.467 -0.0006 -0.0090  0.0421
  326MOL0     C43887   3.921   2.315   9.579 -0.5080 -0.1826  0.2804
  326MOL0     C43888   3.851   2.312   9.715  0.2032 -0.6890 -0.5798
  326MOL0     C43889   3.772   2.444   9.723  0.4005  0.4445 -0.4133
  326MOL0     C43890   3.677   2.449   9.846  0.2984  0.4507  1.0690
  326MOL0     C43891   3.538   2.395   9.820  0.5446 -1.0380 -0.0484
  326MOL0     N43892   3.527   2.256   9.821  0.1844 -0.4112  1.1606
  326MOL0     C43893   3.553   2.186   9.939 -0.1752 -0.2854 -0.4643
  326MOL0     C43894   3.544   2.062   9.902  0.4369  0.1028 -0.1437
  326MOL0     C43895   3.585   1.947   9.993 -0.3617 -0.5007 -0.4673
  326MOL0     C43896   3.478   1.845  10.008  0.0353  0.3996  0.1960
  326MOL0     C43897   3.451   1.735   9.902 -0.4070  0.4265 -0.2146
  326MOL0     C43898   3.577   1.668   9.838  0.4702 -0.0675 -0.6478
  326MOL0     O43899   3.638   1.575   9.931  0.8020 -0.7232 -0.6136
  326MOL0     C43900   3.611   1.441   9.924 -0.9414 -0.2889  0.8174
  326MOL0     C43901   3.702   1.357   9.997 -0.2333  0.0594  0.8527
  326MOL0     C43902   3.671   1.225  10.010 -0.4285 -0.1723 -0.2635
  326MOL0     C43903   3.760   1.154  10.106  0.1258 -0.2780  0.0957
  326MOL0     C43904   3.552   1.175   9.955 -0.4110 -0.6106  0.5995
  326MOL0     C43905   3.509   1.038   9.978  0.0152 -0.3124 -0.2118
  326MOL0     O43906   3.384   1.023  10.028  0.4672  0.1611 -0.5763
  326MOL0     C43907   3.355   0.895  10.058  0.0293  0.3608  0.3157
  326MOL0     C43908   3.308   0.811   9.956 -0.2580 -0.7839 -0.4018
  326MOL0     C43909   3.264   0.687   9.986  0.7999 -0.1296 -0.2739
  326MOL0     C43910   3.271   0.636  10.115  0.1366 -0.6436  0.3977
  326MOL0     O43911   3.240   0.501  10.124  0.5203 -0.3261  0.3956
  326MOL0     C43912   3.331   0.416  10.052 -0.3752 -0.2011  0.4037
  326MOL0     C43913   3.388   0.345  10.175  0.6160 -0.2744  0.2764
  326MOL0     C43914   3.534   0.299  10.152  0.8707  0.1326 -0.0631
  326MOL0     C43915   3.622   0.312  10.276 -0.4040 -0.1310  0.3240
  326MOL0     C43916   3.709   0.429  10.300 -0.2854  0.5162  0.3824
  326MOL0     C43917   3.641   0.563  10.282  0.2493  0.9664  0.2777
  326MOL0     C43918   3.740   0.676  10.333 -0.1843  0.5076 -0.4372
  326MOL0     C43919   3.682   0.802  10.387  0.1027  0.4105  1.0517
  326MOL0    Cl43920   3.556   0.778  10.518 -0.0068 -0.1618  0.5319
  326MOL0     C43921   3.305   0.719  10.224  0.0730 -0.5684 -0.4830
  326MOL0     C43922   3.347   0.852  10.189 -0.1962  0.2267 -0.2033
  326MOL0     O43923   3.600   0.951   9.982  0.6469 -0.4546  0.3864
  326MOL0     C43924   3.470   1.255   9.877  0.2197 -0.4273  0.0365
  326MOL0     C43925   3.489   1.393   9.869 -0.0058  0.6577  0.6820
  326MOL0     N43926   3.506   2.050   9.765  0.4256  0.5566 -0.0141
  326MOL0     N43927   3.494   2.172   9.721 -0.2383  0.1715 -0.3189
  326MOL0     C43928   3.925   1.840   9.180 -0.4809  0.2999  0.2312
  326MOL0     C43929   4.019   1.734   9.155  0.4806  0.2677  0.8342
  326MOL0     C43930   4.222   1.300   9.227 -0.8005 -0.1312  1.0033
  326MOL0     C43931   4.247   1.178   9.297 -0.0920  1.1465  0.2185
  326MOL0     C43932   4.329   1.076   9.235 -0.8909  0.1400  0.9882
  326MOL0     C43933   4.394   1.104   9.115  0.0734  0.7691  0.5221
  326MOL0     O43934   4.458   0.995   9.057 -0.2850 -0.2746 -0.2108
  326MOL0     C43935   4.439   0.984   8.912  0.1771  0.0174 -0.4034
  326MOL0     C43936   4.411   0.832   8.888  0.0792 -0.9151 -0.6486
  326MOL0     C43937   4.383   0.814   8.738  0.5180 -0.4841  0.1300
  326MOL0     C43938   4.308   0.680   8.707 -0.2120  0.7681  0.5819
  326MOL0     C43939   4.323   0.645   8.556 -1.2056 -0.0115 -0.0191
  326MOL0     C43940   4.327   0.621   8.430  0.2469  0.5261  0.4875
  326MOL0     C43941   4.354   1.223   9.052  0.3563  0.2762 -1.1585
  326MOL0     C43942   4.276   1.319   9.112  0.9820 -0.2108  0.3908
  326MOL0     H43943   3.971   1.552   9.433  0.5853  0.0634  0.1427
  326MOL0     H43944   3.786   1.718   9.456  1.6167 -0.7272  2.3606
  326MOL0     H43945   3.853   2.093   9.248  0.5847 -1.2794 -0.2152
  326MOL0     H43946   3.688   2.112   9.302  1.1218  1.6033  0.4093
  326MOL0     H43947   3.766   2.078   9.539 -1.6677 -1.6129 -1.6850
  326MOL0     H43948   3.932   2.078   9.478  0.6259  2.7159  0.5914
  326MOL0     H43949   3.881   2.309   9.377  3.6367  1.6235  2.5182
  326MOL0     H43950   3.732   2.318   9.475  0.6859  1.7798 -1.2287
  326MOL0     H43951   4.020   2.269   9.584  0.7732  2.4871  1.5035
  326MOL0     H43952   3.956   2.415   9.550  0.3203  0.0649  2.0067
  326MOL0     H43953   3.788   2.222   9.720 -0.9287 -0.1161 -2.9534
  326MOL0     H43954   3.929   2.310   9.791  0.8571 -0.4552 -1.2335
  326MOL0     H43955   3.846   2.524   9.724  0.8659  0.0188  0.9800
  326MOL0     H43956   3.712   2.452   9.631  0.9293 -1.3056 -0.9541
  326MOL0     H43957   3.725   2.400   9.931  1.4683  2.5262  1.6726
  326MOL0     H43958   3.658   2.555   9.867 -4.6249 -0.5091  2.6941
  326MOL0     H43959   3.500   2.442   9.729  1.8473  1.6109  0.6651
  326MOL0     H43960   3.475   2.435   9.901  0.4531  3.1369 -1.9249
  326MOL0     H43961   3.584   2.229  10.034 -1.2328 -0.0113 -0.2252
  326MOL0     H43962   3.676   1.895   9.960  0.4297 -0.0494  0.9369
  326MOL0     H43963   3.607   1.988  10.091 -0.0514 -2.1491  0.1972
  326MOL0     H43964   3.385   1.896  10.033  0.7601  2.4531 -1.0415
  326MOL0     H43965   3.500   1.802  10.106 -1.1900  2.7666  1.5731
  326MOL0     H43966   3.392   1.784   9.824 -0.7392 -2.2160 -1.7469
  326MOL0     H43967   3.397   1.649   9.943 -0.6587  0.6789 -0.0101
  326MOL0     H43968   3.644   1.753   9.824 -0.6100  1.6958  3.3064
  326MOL0     H43969   3.554   1.623   9.741 -3.9586 -2.9522  1.4236
  326MOL0     H43970   3.791   1.402  10.038 -1.7321  0.1350  4.3390
  326MOL0     H43971   3.853   1.127  10.054 -0.2630  0.0231 -0.7840
  326MOL0     H43972   3.779   1.221  10.190 -6.4569  0.7732  1.2501
  326MOL0     H43973   3.699   1.073  10.145  0.4395 -0.2038  0.7369
  326MOL0     H43974   3.304   0.848   9.854 -0.0197  3.5612  0.9713
  326MOL0     H43975   3.234   0.625   9.902 -0.2139  0.9883 -0.7619
  326MOL0     H43976   3.272   0.341   9.998  0.3044  0.7350 -1.7431
  326MOL0     H43977   3.403   0.474   9.994 -1.5625  0.9641  0.0622
  326MOL0     H43978   3.383   0.420  10.255  3.2404 -1.1453  1.3486
  326MOL0     H43979   3.319   0.263  10.198  0.8802 -0.1423  1.5949
  326MOL0     H43980   3.576   0.348  10.064  3.1871 -0.8463  0.4332
  326MOL0     H43981   3.526   0.191  10.137  1.2407 -0.0600  1.0440
  326MOL0     H43982   3.565   0.312  10.369  1.7448 -2.1299  1.7402
  326MOL0     H43983   3.694   0.230  10.264 -1.2311 -0.6035 -1.9165
  326MOL0     H43984   3.792   0.431  10.229 -0.8127  5.8099 -0.5360
  326MOL0     H43985   3.748   0.420  10.402  1.8739 -1.6114 -0.5376
  326MOL0     H43986   3.609   0.573  10.178  1.5028 -1.4086 -0.4001
  326MOL0     H43987   3.555   0.552  10.349  1.3236 -0.7807  1.4706
  326MOL0     H43988   3.797   0.698  10.242  2.0636  0.8448  0.9944
  326MOL0     H43989   3.809   0.660  10.416  1.0092  0.2548 -1.4511
  326MOL0     H43990   3.650   0.857  10.299  0.0008 -2.8778 -1.1325
  326MOL0     H43991   3.757   0.874  10.422  2.0726  0.2021 -2.2448
  326MOL0     H43992   3.316   0.668  10.319  3.1939  1.3771  0.3434
  326MOL0     H43993   3.380   0.911  10.274  1.2085 -0.9436  0.1094
  326MOL0     H43994   3.394   1.208   9.815 -0.0556 -0.9163  0.7248
  326MOL0     H43995   3.415   1.451   9.815  0.4976  0.6638 -0.0085
  326MOL0     H43996   3.911   1.923   9.112  1.7663  0.9930  0.4939
  326MOL0     H43997   4.065   1.744   9.057 -1.8845 -2.8739 -0.7810
  326MOL0     H43998   4.197   1.164   9.392 -1.4808  3.7337 -0.0392
  326MOL0     H43999   4.345   0.973   9.267 -2.2696 -1.3349 -2.5362
  326MOL0     H44000   4.356   1.041   8.869  0.5467 -0.5093 -1.9161
  326MOL0     H44001   4.530   1.008   8.857  0.3702 -0.9521 -0.5265
  326MOL0     H44002   4.320   0.795   8.937  0.1362  1.1332  1.1830
  326MOL0     H44003   4.495   0.767   8.914 -1.4497 -2.1854  1.4211
  326MOL0     H44004   4.477   0.808   8.683 -0.4711 -1.0925 -1.5924
  326MOL0     H44005   4.326   0.902   8.704 -1.3194 -1.8249 -0.4248
  326MOL0     H44006   4.203   0.673   8.738 -0.5820 -2.0663 -0.9827
  326MOL0     H44007   4.368   0.607   8.762  0.4369 -0.5207 -1.6907
  326MOL0     H44008   4.321   0.622   8.323  1.5679  1.5693  0.4012
  326MOL0     H44009   4.380   1.230   8.947 -1.4980 -0.6117 -1.7102
  326MOL0     H44010   4.267   1.412   9.057  1.4722  2.1306  3.9482
  327MOL0     O44011   1.578   3.861   2.607 -0.8619  0.4483 -0.3793
  327MOL0     C44012   1.633   3.754   2.568  0.0823  1.2140  0.1225
  327MOL0     O44013   1.648   3.709   2.439 -0.8964 -0.1353  0.3787
  327MOL0     C44014   1.575   3.773   2.340 -0.3919 -0.0453  0.2404
  327MOL0     C44015   1.497   3.692   2.266  1.1434  0.4135 -0.2535
  327MOL0     C44016   1.420   3.739   2.152  0.1893  0.4660  0.0233
  327MOL0     C44017   1.422   3.879   2.125 -0.0818 -0.6449  0.3025
  327MOL0     O44018   1.341   3.926   2.019 -0.2946 -0.9154  0.2834
  327MOL0     C44019   1.312   4.065   2.004  0.7687  0.1966 -0.0664
  327MOL0     C44020   1.200   4.096   1.900  1.0946 -0.1576 -0.3472
  327MOL0     C44021   1.062   4.056   1.963 -0.9644 -0.4386 -0.1199
  327MOL0     C44022   0.954   4.068   1.852 -1.0003 -0.2574  0.1376
  327MOL0     C44023   0.805   4.045   1.900 -0.8383 -0.0679 -0.5461
  327MOL0     C44024   0.778   3.891   1.917 -0.4128 -0.2069  0.5725
  327MOL0     C44025   0.702   3.854   2.047  0.3329  1.1957  0.6832
  327MOL0     C44026   0.626   3.715   2.022 -0.3327  1.1246 -0.6254
  327MOL0     N44027   0.717   3.609   1.982  0.4008 -0.2618 -0.6534
  327MOL0     C44028   0.822   3.563   2.059 -0.7372  0.3702 -0.6044
  327MOL0     C44029   0.896   3.471   1.992 -0.3080 -0.4357  0.3617
  327MOL0     C44030   1.027   3.405   2.023  0.0845 -0.1780  0.0627
  327MOL0     C44031   1.060   3.347   2.161 -0.5386  0.6333 -0.1059
  327MOL0     C44032   1.134   3.457   2.238 -0.1099 -0.5619 -0.1235
  327MOL0     C44033   1.116   3.445   2.393  0.2048  0.7366  0.3756
  327MOL0     O44034   0.975   3.447   2.417 -1.1832 -0.0978 -0.0482
  327MOL0     C44035   0.928   3.390   2.529  1.1046 -0.5272 -0.1063
  327MOL0     C44036   1.006   3.324   2.621  0.2860  0.6522 -0.5678
  327MOL0     C44037   0.940   3.236   2.716 -0.6013  0.2347 -0.9049
  327MOL0     C44038   1.028   3.178   2.833  0.2955 -0.0909 -0.2007
  327MOL0     C44039   0.799   3.223   2.727  0.5106  0.5856  0.4417
  327MOL0     C44040   0.725   3.144   2.824 -0.1461 -0.5145 -0.0069
  327MOL0     O44041   0.605   3.102   2.789 -0.0036 -0.7292 -0.7280
  327MOL0     C44042   0.526   3.038   2.875  0.2787 -0.5746 -0.5633
  327MOL0     C44043   0.451   2.937   2.823  0.1284 -0.9851 -0.0990
  327MOL0     C44044   0.350   2.863   2.894 -1.6245 -0.3062 -0.5068
  327MOL0     C44045   0.327   2.898   3.028 -0.4474 -0.2458 -0.8001
  327MOL0     O44046   0.245   2.820   3.103 -0.1954  0.5075 -0.4951
  327MOL0     C44047   0.314   2.744   3.205  0.2627  0.5310  0.2658
  327MOL0     C44048   0.251   2.611   3.228  0.4496  0.6647  0.6749
  327MOL0     C44049   0.329   2.483   3.187 -0.4524 -0.7483  0.7896
  327MOL0     C44050   0.243   2.372   3.167 -1.0617 -0.1336  1.0582
  327MOL0     C44051   0.161   2.377   3.036  0.2118 -0.1171  0.5017
  327MOL0     C44052   0.249   2.336   2.906  0.4032 -0.2852 -0.1021
  327MOL0     C44053   0.169   2.284   2.788 -0.0581 -0.4879 -0.1541
  327MOL0     C44054   0.149   2.137   2.797 -0.0016  0.1537 -0.4712
  327MOL0    Cl44055   0.282   2.048   2.718  0.2554  0.0956 -0.0897
  327MOL0     C44056   0.405   3.003   3.093  0.4083  0.6629  0.8979
  327MOL0     C44057   0.499   3.070   3.015  0.0745 -0.2578 -0.0167
  327MOL0     O44058   0.764   3.159   2.936  0.3516 -0.0426 -0.1783
  327MOL0     C44059   0.717   3.288   2.628  0.6180 -0.8087  0.5923
  327MOL0     C44060   0.790   3.361   2.533 -0.5940 -0.0851  0.1030
  327MOL0     N44061   0.832   3.464   1.876 -1.1905  0.0459  1.0856
  327MOL0     N44062   0.725   3.542   1.869 -0.6134  0.2726  0.4928
  327MOL0     C44063   1.496   3.964   2.215 -0.8237  0.9857 -0.0394
  327MOL0     C44064   1.579   3.916   2.322  0.4529  0.4052 -0.3822
  327MOL0     C44065   1.684   3.667   2.677 -1.5259  0.0843 -0.6887
  327MOL0     C44066   1.660   3.694   2.815  0.6995  1.1151 -0.5794
  327MOL0     C44067   1.699   3.606   2.915 -0.0649 -0.6002 -0.2427
  327MOL0     C44068   1.749   3.483   2.880 -0.7240 -0.4085 -0.3526
  327MOL0     O44069   1.778   3.387   2.974 -0.3234 -0.3342 -0.2108
  327MOL0     C44070   1.912   3.363   3.028 -0.3502  0.1454 -0.4703
  327MOL0     C44071   1.910   3.286   3.154  0.4469  0.5913  0.9377
  327MOL0     C44072   2.051   3.267   3.211  1.1139  0.8764  0.3049
  327MOL0     C44073   2.086   3.392   3.296  0.0355 -0.1772 -0.7578
  327MOL0     C44074   2.165   3.492   3.228  0.4030 -0.4774  1.1292
  327MOL0     C44075   2.242   3.560   3.158  0.6449 -0.7566  0.0102
  327MOL0     C44076   1.794   3.467   2.748  0.6223 -0.0895 -0.7991
  327MOL0     C44077   1.759   3.548   2.643  0.2267 -0.2266  0.5571
  327MOL0     H44078   1.489   3.590   2.303  2.9965 -1.0619 -3.4848
  327MOL0     H44079   1.353   3.682   2.088 -2.1275  1.8213  1.1180
  327MOL0     H44080   1.274   4.102   2.099 -3.7038  1.1156 -1.9472
  327MOL0     H44081   1.406   4.111   1.972  0.3297  0.4347 -1.0614
  327MOL0     H44082   1.186   4.202   1.875  0.6244 -0.5638 -1.8583
  327MOL0     H44083   1.213   4.042   1.807  1.2590  0.1261 -0.4918
  327MOL0     H44084   1.060   3.954   2.003  1.4009  0.7472  3.5074
  327MOL0     H44085   1.031   4.122   2.044 -0.4773  0.6481 -0.7802
  327MOL0     H44086   0.963   4.170   1.812 -0.2803  0.9760  3.1856
  327MOL0     H44087   0.979   4.000   1.770  0.5000  1.7254 -1.1649
  327MOL0     H44088   0.782   4.106   1.988 -4.6062  0.9238 -1.9984
  327MOL0     H44089   0.742   4.090   1.823 -0.8264  0.1963 -0.4012
  327MOL0     H44090   0.713   3.856   1.837 -0.4484  0.1992  0.4218
  327MOL0     H44091   0.860   3.819   1.910 -0.0076  0.3142 -0.2058
  327MOL0     H44092   0.772   3.835   2.130  1.7790 -2.0643 -1.1128
  327MOL0     H44093   0.637   3.931   2.089  1.7907  2.1316  1.3476
  327MOL0     H44094   0.550   3.741   1.948  0.9478  1.6863 -1.7910
  327MOL0     H44095   0.578   3.684   2.115 -1.1689  1.7017 -0.8558
  327MOL0     H44096   0.857   3.588   2.159 -1.8546 -1.0504  0.1773
  327MOL0     H44097   1.031   3.319   1.955 -3.1111  0.2405 -0.8091
  327MOL0     H44098   1.115   3.460   1.990  1.0649 -2.2057 -0.9031
  327MOL0     H44099   1.119   3.262   2.127 -0.7871  0.3431  0.1787
  327MOL0     H44100   0.964   3.316   2.204 -0.5272 -0.7691 -1.0061
  327MOL0     H44101   1.109   3.551   2.188  3.3700 -0.9640 -3.0854
  327MOL0     H44102   1.243   3.452   2.227  0.1519  2.6111  0.1678
  327MOL0     H44103   1.175   3.521   2.445  0.4213  0.0390  1.1657
  327MOL0     H44104   1.159   3.348   2.419 -1.3963  0.5498  2.5044
  327MOL0     H44105   1.114   3.330   2.629  0.2654 -1.0451  2.1112
  327MOL0     H44106   1.036   3.248   2.917 -0.4391 -0.2919  0.0487
  327MOL0     H44107   0.984   3.085   2.870 -2.1871  0.6139 -1.1559
  327MOL0     H44108   1.131   3.175   2.798  1.2077 -0.2546  2.3177
  327MOL0     H44109   0.490   2.915   2.724  1.6529  1.0979 -0.0165
  327MOL0     H44110   0.276   2.799   2.846  0.1433 -3.9176  1.2111
  327MOL0     H44111   0.419   2.729   3.176  0.3776  2.7758 -0.6641
  327MOL0     H44112   0.314   2.818   3.286 -0.5202 -0.7301  1.4508
  327MOL0     H44113   0.251   2.601   3.337  0.9121 -2.0808  0.5021
  327MOL0     H44114   0.149   2.604   3.188  0.9615 -0.3870 -0.5330
  327MOL0     H44115   0.413   2.468   3.256 -1.2760 -1.6623  1.6139
  327MOL0     H44116   0.379   2.504   3.092  0.2034 -2.1713  0.7964
  327MOL0     H44117   0.285   2.272   3.172 -3.8692 -1.3631  1.7685
  327MOL0     H44118   0.174   2.374   3.251 -5.3429 -0.9831 -2.0822
  327MOL0     H44119   0.131   2.477   3.003  4.1021  1.1148  0.1889
  327MOL0     H44120   0.082   2.305   3.059  1.1141 -0.9956  0.9282
  327MOL0     H44121   0.309   2.421   2.872 -0.7211  1.3293  1.7448
  327MOL0     H44122   0.310   2.256   2.947 -0.9118 -0.1345  2.3439
  327MOL0     H44123   0.210   2.310   2.691 -1.3914  1.4161 -0.2616
  327MOL0     H44124   0.073   2.336   2.788 -0.3254 -0.9049 -2.5468
  327MOL0     H44125   0.055   2.113   2.746  1.0007 -1.2143 -1.7559
  327MOL0     H44126   0.133   2.102   2.900  1.4433 -1.1634 -0.6669
  327MOL0     H44127   0.400   3.039   3.195  0.3460 -1.4709  1.7155
  327MOL0     H44128   0.558   3.153   3.053  1.7528 -0.7370 -1.4780
  327MOL0     H44129   0.609   3.286   2.618  0.7136 -0.5959 -0.7682
  327MOL0     H44130   0.733   3.415   2.458 -0.0075  2.1335  1.1500
  327MOL0     H44131   1.492   4.072   2.206 -0.8028  0.8860 -1.5806
  327MOL0     H44132   1.634   3.981   2.388 -0.7759 -1.5630  2.8172
  327MOL0     H44133   1.601   3.784   2.825 -3.7959 -1.4397 -1.3396
  327MOL0     H44134   1.664   3.624   3.017 -0.4651 -1.9895 -0.1147
  327MOL0     H44135   1.969   3.299   2.960  3.0306 -0.7490  2.8343
  327MOL0     H44136   1.960   3.460   3.044  0.7602 -0.3780 -0.5261
  327MOL0     H44137   1.854   3.194   3.140 -1.5844  1.8414  0.4986
  327MOL0     H44138   1.846   3.345   3.220  0.0505  1.7818 -0.4666
  327MOL0     H44139   2.125   3.239   3.136  0.0943  0.6441 -0.6358
  327MOL0     H44140   2.039   3.188   3.286 -3.8466  2.3584  1.4047
  327MOL0     H44141   2.150   3.362   3.379 -0.0916  2.7076  0.4968
  327MOL0     H44142   1.998   3.440   3.340  1.5327  0.3320  1.8458
  327MOL0     H44143   2.300   3.630   3.101  1.7254 -2.2622 -0.8386
  327MOL0     H44144   1.852   3.378   2.726 -2.1110 -1.6901 -2.0797
  327MOL0     H44145   1.793   3.519   2.544 -2.4562 -1.5116 -0.0666
  328MOL0     O44146   9.622  10.119   5.657  1.1688  0.9196 -0.2787
  328MOL0     C44147   9.668  10.010   5.632  0.5085 -0.2261  0.0711
  328MOL0     O44148   9.645   9.900   5.702 -0.2553  0.4263 -0.2094
  328MOL0     C44149   9.559   9.912   5.807  0.5641  0.2400  0.3373
  328MOL0     C44150   9.427   9.868   5.802 -0.1665 -1.2870  0.0058
  328MOL0     C44151   9.344   9.872   5.914  0.3951 -0.2309  0.1487
  328MOL0     C44152   9.386   9.936   6.036  1.1254  0.6701  0.3634
  328MOL0     O44153   9.314   9.969   6.150  0.2776 -0.9816 -0.5162
  328MOL0     C44154   9.182   9.929   6.152  0.4637 -0.4130  0.4682
  328MOL0     C44155   9.103   9.992   6.269 -0.0943  0.6180 -0.5663
  328MOL0     C44156   8.953   9.957   6.248 -0.6899 -0.3868 -0.0721
  328MOL0     C44157   8.877  10.017   6.364  0.2767  0.5642 -0.3236
  328MOL0     C44158   8.737   9.989   6.354  0.1495 -0.1824 -0.7102
  328MOL0     C44159   8.652  10.081   6.444 -0.2660  0.9527  1.0336
  328MOL0     C44160   8.500  10.063   6.425 -0.9496 -0.4853 -0.1356
  328MOL0     C44161   8.434  10.195   6.487 -0.7361  0.5301  0.1977
  328MOL0     N44162   8.286  10.205   6.505 -0.2351  0.1729 -0.0894
  328MOL0     C44163   8.223  10.265   6.615 -0.7087  0.0558 -0.1689
  328MOL0     C44164   8.093  10.273   6.587  0.2433  0.3279  0.3467
  328MOL0     C44165   7.978  10.329   6.671  0.0518  0.0059 -1.2414
  328MOL0     C44166   7.989  10.480   6.689  0.2983  0.1942 -0.8057
  328MOL0     C44167   7.957  10.568   6.577  0.7679  0.0643  0.6268
  328MOL0     C44168   8.061  10.582   6.467 -1.0147  0.9237 -0.0960
  328MOL0     O44169   8.186  10.638   6.512 -0.8218 -0.3109  0.4125
  328MOL0     C44170   8.295  10.611   6.426 -0.4843 -0.8727 -0.8688
  328MOL0     C44171   8.290  10.622   6.289 -0.5919 -0.9471 -0.1616
  328MOL0     C44172   8.408  10.605   6.209 -0.1156 -0.3949 -0.9842
  328MOL0     C44173   8.394  10.617   6.065 -0.0800  0.5323  0.5444
  328MOL0     C44174   8.530  10.570   6.272  0.4264  0.0147  0.2852
  328MOL0     C44175   8.657  10.533   6.198  0.5928  0.5377 -0.0407
  328MOL0     O44176   8.738  10.447   6.263 -0.6165  0.0847 -0.2839
  328MOL0     C44177   8.848  10.388   6.197  0.6643  0.5183  0.5705
  328MOL0     C44178   8.979  10.415   6.244 -0.4004 -0.5339  1.0917
  328MOL0     C44179   9.102  10.370   6.182 -0.2059 -0.3323  0.1905
  328MOL0     C44180   9.081  10.301   6.064  0.2502  0.2845  0.2490
  328MOL0     O44181   9.199  10.258   6.009  0.1794  0.5400  0.5811
  328MOL0     C44182   9.204  10.206   5.877 -0.4727  0.0503 -0.5610
  328MOL0     C44183   9.333  10.254   5.797  0.1292  0.3330 -0.5277
  328MOL0     C44184   9.288  10.381   5.723  0.3015 -0.8234 -0.1501
  328MOL0     C44185   9.404  10.451   5.653  0.3692 -0.0442  0.4078
  328MOL0     C44186   9.352  10.601   5.622 -0.2616  0.2235 -0.9597
  328MOL0     C44187   9.454  10.684   5.543 -0.3577 -0.4174  0.1991
  328MOL0     C44188   9.463  10.641   5.390  0.5600  0.0005 -0.0084
  328MOL0     C44189   9.339  10.683   5.300  0.4595  0.6380 -0.9367
  328MOL0    Cl44190   9.319  10.862   5.318  0.4673  0.3899  0.3759
  328MOL0     C44191   8.950  10.262   6.023  0.1978  0.2773 -0.3845
  328MOL0     C44192   8.835  10.298   6.091  0.3523  0.9105  0.3006
  328MOL0     O44193   8.681  10.587   6.088  0.0786  0.3852  0.0213
  328MOL0     C44194   8.532  10.552   6.413 -0.9985 -0.1891  0.4250
  328MOL0     C44195   8.414  10.575   6.489  0.4668 -0.4212 -1.0474
  328MOL0     N44196   8.075  10.196   6.473 -0.3315  0.1625  0.2754
  328MOL0     N44197   8.185  10.169   6.417  0.6118 -0.4564  0.2434
  328MOL0     C44198   9.513   9.985   6.039 -0.1786  0.5232 -0.9871
  328MOL0     C44199   9.596   9.960   5.924  0.1738 -0.6287  0.5922
  328MOL0     C44200   9.767  10.006   5.516  0.3395 -0.5403  0.0571
  328MOL0     C44201   9.851   9.896   5.498 -1.1712  0.4252  0.1094
  328MOL0     C44202   9.942   9.891   5.392  0.1513 -0.3095 -0.7154
  328MOL0     C44203   9.958  10.004   5.306 -0.3196 -0.4210  0.1018
  328MOL0     O44204  10.045  10.003   5.203 -0.2005 -0.0237 -0.6683
  328MOL0     C44205  10.149  10.100   5.219  0.3361  0.4363 -0.4029
  328MOL0     C44206  10.251  10.026   5.310 -0.3398  0.0933 -0.5917
  328MOL0     C44207  10.347  10.123   5.378  0.9509 -0.7750 -1.0239
  328MOL0     C44208  10.458  10.031   5.454  0.4950 -0.0982  0.8558
  328MOL0     C44209  10.527  10.119   5.548 -0.2414  0.3153  0.9617
  328MOL0     C44210  10.584  10.197   5.617  0.4395 -0.3139 -0.1629
  328MOL0     C44211   9.881  10.112   5.322  0.7807  0.8546 -0.7150
  328MOL0     C44212   9.786  10.115   5.424  0.0311  0.6808 -0.6943
  328MOL0     H44213   9.384   9.832   5.709  1.3798  1.2633 -1.8346
  328MOL0     H44214   9.251   9.822   5.891  0.8312 -0.5989 -0.8991
  328MOL0     H44215   9.128   9.955   6.060  4.0435 -1.8089 -2.2617
  328MOL0     H44216   9.166   9.821   6.160 -3.4442 -0.1167 -1.0973
  328MOL0     H44217   9.147   9.952   6.361  0.7092  0.0482 -1.1774
  328MOL0     H44218   9.096  10.101   6.270 -2.0926  0.5224 -0.4885
  328MOL0     H44219   8.942  10.010   6.152  4.2912  2.9195  0.7977
  328MOL0     H44220   8.932   9.850   6.239 -1.5401 -0.1889 -0.5684
  328MOL0     H44221   8.914   9.978   6.459  2.7592  3.5725  0.1298
  328MOL0     H44222   8.880  10.126   6.371  0.4763  0.4621  2.0363
  328MOL0     H44223   8.703  10.010   6.252  0.0303  1.1012 -0.4112
  328MOL0     H44224   8.713   9.884   6.374 -2.1541  0.6262  1.1366
  328MOL0     H44225   8.683  10.072   6.549 -0.6742 -1.3211  0.9998
  328MOL0     H44226   8.668  10.187   6.419  1.5965 -0.0641 -2.7900
  328MOL0     H44227   8.472  10.044   6.320 -1.8832 -1.8371  0.3297
  328MOL0     H44228   8.464   9.974   6.478  1.5886 -1.4720  0.0751
  328MOL0     H44229   8.450  10.267   6.406 -0.8770 -0.7120 -0.9624
  328MOL0     H44230   8.481  10.221   6.582 -2.8130 -1.8150  1.9935
  328MOL0     H44231   8.262  10.307   6.707  0.1329 -2.8836  0.9396
  328MOL0     H44232   7.879  10.303   6.632 -0.6116 -1.9068  1.4270
  328MOL0     H44233   7.990  10.283   6.770 -3.1627 -0.5384 -0.9930
  328MOL0     H44234   8.084  10.502   6.739 -0.0187 -1.9559  0.8961
  328MOL0     H44235   7.915  10.503   6.766 -1.3524 -1.1850 -1.9003
  328MOL0     H44236   7.931  10.667   6.614  0.6890 -0.4405  1.9698
  328MOL0     H44237   7.871  10.525   6.524  1.8384 -1.1364 -0.1970
  328MOL0     H44238   8.022  10.652   6.393  0.8137 -0.2191 -2.2696
  328MOL0     H44239   8.079  10.485   6.419 -1.7904  2.0028 -2.7581
  328MOL0     H44240   8.193  10.648   6.249 -0.1781 -2.7715 -2.6066
  328MOL0     H44241   8.456  10.534   6.029  0.3023  0.6502  0.9217
  328MOL0     H44242   8.293  10.584   6.041  1.1739 -5.2201  1.7497
  328MOL0     H44243   8.433  10.713   6.030  0.6684  0.4872  1.2189
  328MOL0     H44244   9.001  10.459   6.341  0.9503 -1.1886  1.1016
  328MOL0     H44245   9.197  10.378   6.235 -0.4046 -2.2639  0.9005
  328MOL0     H44246   9.185  10.098   5.872  0.0650 -0.0882  0.3124
  328MOL0     H44247   9.110  10.235   5.827 -0.9479 -2.0410 -0.9684
  328MOL0     H44248   9.404  10.259   5.880  0.5221 -1.9900 -0.6595
  328MOL0     H44249   9.358  10.167   5.736  0.5108  2.5505 -3.7601
  328MOL0     H44250   9.234  10.448   5.790  0.6090  0.6423 -1.3263
  328MOL0     H44251   9.212  10.348   5.652 -0.1052 -1.4280  0.5574
  328MOL0     H44252   9.484  10.459   5.727  0.9824  2.1911 -0.4134
  328MOL0     H44253   9.442  10.406   5.561 -1.2964 -2.3763  0.7677
  328MOL0     H44254   9.337  10.652   5.718  1.8713  0.2253 -0.5709
  328MOL0     H44255   9.255  10.602   5.571  0.5052 -5.6046 -3.3322
  328MOL0     H44256   9.425  10.789   5.544  0.2246 -0.1881 -1.8615
  328MOL0     H44257   9.550  10.668   5.594 -0.1584  2.2414  0.8020
  328MOL0     H44258   9.459  10.532   5.380 -3.1467  0.0623 -0.2291
  328MOL0     H44259   9.553  10.688   5.350  0.2825 -0.6612 -1.4609
  328MOL0     H44260   9.255  10.628   5.342  0.8229  1.4213  0.9354
  328MOL0     H44261   9.350  10.658   5.195  1.1399 -0.0640 -0.7062
  328MOL0     H44262   8.925  10.201   5.937 -0.3403  1.2015 -0.9076
  328MOL0     H44263   8.731  10.276   6.066  1.0145 -1.6101 -0.5302
  328MOL0     H44264   8.627  10.542   6.465 -0.8729  1.7557  0.6616
  328MOL0     H44265   8.433  10.587   6.596  1.3357  5.8196 -1.5266
  328MOL0     H44266   9.542  10.032   6.133  2.8897  2.3059 -2.6798
  328MOL0     H44267   9.701   9.984   5.939  0.2231 -0.4849  0.0157
  328MOL0     H44268   9.841   9.808   5.560 -0.1768 -1.3285 -2.1056
  328MOL0     H44269  10.001   9.802   5.374  0.5113  0.3219 -2.9896
  328MOL0     H44270  10.188  10.124   5.119  0.4412  0.3913 -0.3734
  328MOL0     H44271  10.123  10.195   5.266 -1.4028 -0.2472  0.0731
  328MOL0     H44272  10.316   9.957   5.256  2.6033  0.4047  2.2341
  328MOL0     H44273  10.201   9.980   5.395 -0.9268 -0.6396 -1.3129
  328MOL0     H44274  10.294  10.166   5.464  0.0798  0.0177 -1.9277
  328MOL0     H44275  10.397  10.202   5.322  2.0884 -0.3762  0.5005
  328MOL0     H44276  10.529   9.978   5.389 -0.3726  1.4556 -1.4816
  328MOL0     H44277  10.410   9.958   5.520  2.1902 -0.3109  1.9057
  328MOL0     H44278  10.628  10.262   5.691 -0.6526 -1.3043  1.4206
  328MOL0     H44279   9.885  10.191   5.248 -2.2509 -0.0480 -2.0249
  328MOL0     H44280   9.736  10.209   5.442  0.5699  1.0643 -1.1518
  329MOL0     O44281   2.186  11.036  11.204 -0.4734  0.3584 -0.2359
  329MOL0     C44282   2.286  10.957  11.198  0.1800 -0.7782 -1.2902
  329MOL0     O44283   2.413  10.982  11.215 -0.5113  0.2252 -0.4028
  329MOL0     C44284   2.451  11.083  11.302 -0.5827  1.0175 -0.0352
  329MOL0     C44285   2.471  11.070  11.441  0.8168 -0.3434  0.7267
  329MOL0     C44286   2.536  11.169  11.514 -0.3308  0.4879 -0.1547
  329MOL0     C44287   2.556  11.291  11.464 -0.2938 -0.4912  0.6158
  329MOL0     O44288   2.610  11.367  11.558 -0.2314  0.0796  0.2852
  329MOL0     C44289   2.704  11.464  11.517  0.2996  0.2474  0.6131
  329MOL0     C44290   2.786  11.503  11.635  0.1888  0.1718 -0.1005
  329MOL0     C44291   2.885  11.617  11.611  0.8568  1.6518  0.6431
  329MOL0     C44292   2.792  11.738  11.595 -0.6880 -0.7395  0.6490
  329MOL0     C44293   2.718  11.792  11.722 -0.0130  1.3274 -0.2033
  329MOL0     C44294   2.802  11.789  11.855 -0.4879  0.4442  0.8616
  329MOL0     C44295   2.730  11.869  11.967 -0.1345 -0.3886  0.3571
  329MOL0     C44296   2.607  11.790  12.012  0.0658  1.0006 -0.5885
  329MOL0     N44297   2.556  11.866  12.123 -0.7574 -0.0416 -0.1736
  329MOL0     C44298   2.523  12.000  12.143 -1.0127  0.0717 -0.1912
  329MOL0     C44299   2.474  12.014  12.260  0.3532  0.2367 -0.4429
  329MOL0     C44300   2.430  12.144  12.335 -0.3115  0.3237 -0.1604
  329MOL0     C44301   2.331  12.223  12.257 -0.1292  0.1130 -0.2478
  329MOL0     C44302   2.383  12.346  12.191  0.3391 -0.6348  0.7833
  329MOL0     C44303   2.268  12.413  12.108  0.6040  0.7081 -0.0614
  329MOL0     O44304   2.287  12.548  12.067  0.1875  0.0675  0.0708
  329MOL0     C44305   2.398  12.572  11.990 -0.5453 -0.3601  0.0692
  329MOL0     C44306   2.454  12.702  11.994 -0.1953  0.3896  0.6171
  329MOL0     C44307   2.581  12.726  11.926 -0.1326 -0.2898  0.1577
  329MOL0     C44308   2.638  12.863  11.952 -0.3074  0.6903 -0.6069
  329MOL0     C44309   2.624  12.634  11.823 -0.2193  0.3996 -0.4148
  329MOL0     C44310   2.733  12.655  11.724 -0.5216  0.2928 -0.3285
  329MOL0     O44311   2.701  12.619  11.600 -0.2220 -0.3065  0.2289
  329MOL0     C44312   2.792  12.587  11.499 -0.8923 -0.4352 -0.5485
  329MOL0     C44313   2.745  12.575  11.367  0.3538 -0.5766 -0.2145
  329MOL0     C44314   2.811  12.532  11.265  0.0026  0.0779 -0.2875
  329MOL0     C44315   2.948  12.513  11.290  0.8887  0.2196 -0.4108
  329MOL0     O44316   3.004  12.473  11.173  0.6795  0.0574  0.3370
  329MOL0     C44317   3.097  12.360  11.181  0.9184  0.4924 -0.5935
  329MOL0     C44318   3.241  12.407  11.182 -0.0913  1.0585 -0.2417
  329MOL0     C44319   3.280  12.477  11.055  0.6324  0.4929 -0.5839
  329MOL0     C44320   3.414  12.554  11.084 -0.0136  0.4801 -0.0417
  329MOL0     C44321   3.469  12.617  10.954  0.5750 -0.2513 -0.5732
  329MOL0     C44322   3.527  12.517  10.856 -0.4201  0.2430  0.4589
  329MOL0     C44323   3.645  12.587  10.780 -1.1841 -0.2350  0.1353
  329MOL0     C44324   3.601  12.696  10.672  0.0680  0.1946  0.2776
  329MOL0    Cl44325   3.716  12.687  10.537 -0.1115  0.2533  0.3595
  329MOL0     C44326   3.003  12.509  11.419 -0.4223 -1.1304 -0.4370
  329MOL0     C44327   2.926  12.552  11.521 -0.9865  0.3205  0.0065
  329MOL0     O44328   2.836  12.714  11.760 -0.2381 -0.1971 -0.8049
  329MOL0     C44329   2.560  12.504  11.813  0.4759  0.4877  0.7764
  329MOL0     C44330   2.446  12.477  11.897 -0.8289  0.0191 -0.1643
  329MOL0     N44331   2.469  11.896  12.320 -0.0981  0.3167 -0.4882
  329MOL0     N44332   2.517  11.810  12.240  0.6705 -0.4659  0.3280
  329MOL0     C44333   2.531  11.315  11.324 -0.5142  1.1364  0.8404
  329MOL0     C44334   2.483  11.210  11.244 -0.5531 -0.6573  0.0765
  329MOL0     C44335   2.248  10.828  11.147  0.7104 -0.0338  0.0011
  329MOL0     C44336   2.316  10.708  11.184 -0.5600 -1.0319 -0.4067
  329MOL0     C44337   2.275  10.589  11.119 -1.0533 -0.5126  0.6693
  329MOL0     C44338   2.160  10.576  11.043 -0.3041  0.1552 -0.6732
  329MOL0     O44339   2.122  10.451  11.005 -1.0580 -0.8417 -0.7701
  329MOL0     C44340   2.022  10.428  10.908  0.2707 -0.2062  0.4019
  329MOL0     C44341   1.999  10.285  10.862 -0.4844  0.0484 -0.0938
  329MOL0     C44342   2.000  10.174  10.971 -0.2406  1.0826  0.3748
  329MOL0     C44343   1.987  10.029  10.916 -0.5862 -0.0693 -0.5993
  329MOL0     C44344   2.044   9.940  11.014  0.4339  0.2526  0.4986
  329MOL0     C44345   2.092   9.868  11.100  1.0023 -0.0402 -0.2115
  329MOL0     C44346   2.085  10.693  11.010  0.1364  0.3698  0.5357
  329MOL0     C44347   2.128  10.814  11.059  0.7286 -0.6134  0.4438
  329MOL0     H44348   2.437  10.979  11.489 -0.2438 -1.2911 -1.6338
  329MOL0     H44349   2.585  11.130  11.603  1.2338  1.0537 -0.7353
  329MOL0     H44350   2.778  11.429  11.444  1.8462  1.8167  1.3436
  329MOL0     H44351   2.649  11.545  11.469 -1.7555 -1.1829  0.4621
  329MOL0     H44352   2.724  11.527  11.723  0.6062 -2.1639  0.8976
  329MOL0     H44353   2.853  11.419  11.653 -1.1114 -1.6953 -3.1704
  329MOL0     H44354   2.948  11.633  11.699  1.7152 -0.9429  0.5949
  329MOL0     H44355   2.938  11.599  11.517  1.0158 -2.4677  1.3609
  329MOL0     H44356   2.856  11.812  11.545 -2.2669 -1.0169 -2.0257
  329MOL0     H44357   2.718  11.737  11.514 -1.8253 -0.0519  1.6502
  329MOL0     H44358   2.688  11.895  11.700  0.9932  1.6395 -0.1389
  329MOL0     H44359   2.624  11.738  11.737  0.2814  0.6018 -0.9249
  329MOL0     H44360   2.830  11.694  11.900 -0.9784  0.6981  1.7342
  329MOL0     H44361   2.895  11.833  11.818 -2.1247  3.5821  0.1255
  329MOL0     H44362   2.792  11.868  12.057 -0.6129 -2.7964  0.7193
  329MOL0     H44363   2.714  11.969  11.927  0.2513 -0.5432 -0.2141
  329MOL0     H44364   2.632  11.685  12.036  0.9743  0.1014 -4.7407
  329MOL0     H44365   2.525  11.787  11.941  0.7462 -0.5125 -1.3545
  329MOL0     H44366   2.550  12.076  12.071  0.0728  1.8354  1.9468
  329MOL0     H44367   2.393  12.100  12.429  2.8609 -2.2764  0.0553
  329MOL0     H44368   2.521  12.200  12.356  0.4151 -0.5567 -0.8308
  329MOL0     H44369   2.260  12.269  12.325  0.2580  1.0931 -0.4883
  329MOL0     H44370   2.294  12.152  12.182  0.6826 -0.2367 -0.3348
  329MOL0     H44371   2.467  12.324  12.125 -0.2846 -2.3051  0.5006
  329MOL0     H44372   2.400  12.425  12.265 -2.3751  3.3540 -2.3542
  329MOL0     H44373   2.181  12.407  12.174 -1.4161  0.0022 -2.6069
  329MOL0     H44374   2.244  12.352  12.020  1.0497  1.0681 -0.4397
  329MOL0     H44375   2.422  12.774  12.069  1.1562  0.4000  1.2174
  329MOL0     H44376   2.689  12.890  11.859 -1.7931 -0.4859 -1.8139
  329MOL0     H44377   2.573  12.943  11.989  2.1347  2.0690  0.9929
  329MOL0     H44378   2.721  12.851  12.022  2.1982 -0.9526 -3.5795
  329MOL0     H44379   2.641  12.602  11.352  0.5411  0.7433  0.6668
  329MOL0     H44380   2.770  12.534  11.165  2.2272  0.4977 -1.2382
  329MOL0     H44381   3.089  12.296  11.270 -0.0171 -1.7224 -2.1714
  329MOL0     H44382   3.085  12.292  11.096  5.4233 -0.3783 -0.7582
  329MOL0     H44383   3.251  12.477  11.265  0.4787  1.4403 -0.6234
  329MOL0     H44384   3.305  12.319  11.192 -0.7420  0.0796 -3.4096
  329MOL0     H44385   3.200  12.549  11.034 -1.9303 -1.0919  2.8584
  329MOL0     H44386   3.300  12.407  10.973 -1.0739 -0.3145 -0.3455
  329MOL0     H44387   3.389  12.629  11.159 -2.8916 -0.5048  0.1014
  329MOL0     H44388   3.485  12.484  11.129 -0.6066  0.8291  1.5035
  329MOL0     H44389   3.546  12.691  10.980 -0.4284  0.1323  1.5389
  329MOL0     H44390   3.383  12.670  10.912  1.0772  1.4336  0.4353
  329MOL0     H44391   3.582  12.435  10.904 -2.0224 -1.7968 -0.9934
  329MOL0     H44392   3.457  12.475  10.783 -0.2767  0.6224  0.0995
  329MOL0     H44393   3.711  12.513  10.735 -0.2278 -0.2350  1.4596
  329MOL0     H44394   3.712  12.645  10.846 -0.9247  1.1253 -1.2625
  329MOL0     H44395   3.630  12.791  10.718 -0.4831  1.7033 -2.2505
  329MOL0     H44396   3.495  12.695  10.648 -0.7572  3.0275  3.1255
  329MOL0     H44397   3.101  12.477  11.454  0.0593  2.5365  2.2237
  329MOL0     H44398   2.968  12.551  11.621 -2.8485 -0.1272  0.8455
  329MOL0     H44399   2.607  12.424  11.756 -2.4250 -0.5670 -0.3639
  329MOL0     H44400   2.410  12.374  11.892  3.9035 -2.2116  3.3857
  329MOL0     H44401   2.561  11.409  11.279  2.4163  0.3670  0.9379
  329MOL0     H44402   2.469  11.227  11.137 -0.1120 -0.3591  0.0648
  329MOL0     H44403   2.397  10.730  11.253 -2.2845 -0.2614  1.4864
  329MOL0     H44404   2.331  10.499  11.142 -1.3511 -0.0815  3.3882
  329MOL0     H44405   1.935  10.478  10.953  3.4535  2.6089  4.1044
  329MOL0     H44406   2.053  10.491  10.824 -1.8865  2.0531  1.1832
  329MOL0     H44407   2.070  10.268  10.780 -0.2722 -1.5654  0.4000
  329MOL0     H44408   1.900  10.290  10.815  0.6691 -0.6253 -2.8185
  329MOL0     H44409   1.918  10.193  11.041 -0.0535  1.5395  0.4719
  329MOL0     H44410   2.094  10.177  11.027 -0.3337  0.4589  0.5780
  329MOL0     H44411   2.044  10.018  10.823 -0.6176 -0.2002 -0.6019
  329MOL0     H44412   1.884  10.001  10.893 -0.4412 -2.7696  1.4906
  329MOL0     H44413   2.138   9.794  11.164  0.4129  0.9002  1.3632
  329MOL0     H44414   1.989  10.695  10.961  0.6956 -1.0246 -0.7019
  329MOL0     H44415   2.072  10.904  11.037  3.5425  0.4895 -3.1148
  330MOL0     O44416  10.756   2.462   6.359 -0.0435 -0.3509  0.0343
  330MOL0     C44417  10.837   2.448   6.268  1.4128  0.1218 -0.0680
  330MOL0     O44418  10.812   2.368   6.164 -0.2095  0.5178 -0.0860
  330MOL0     C44419  10.692   2.302   6.133 -0.7386  0.4187  0.2071
  330MOL0     C44420  10.706   2.194   6.052 -0.4951 -0.2111 -1.4854
  330MOL0     C44421  10.593   2.111   6.029  0.5220  0.0136 -0.6471
  330MOL0     C44422  10.465   2.140   6.070  0.8294 -0.2216 -0.2076
  330MOL0     O44423  10.372   2.055   6.030 -0.2947  0.2016  0.6830
  330MOL0     C44424  10.233   2.071   6.080 -0.1959 -0.4273  0.8295
  330MOL0     C44425  10.209   2.029   6.219 -0.3273 -0.5906 -0.5098
  330MOL0     C44426  10.068   2.058   6.254  0.4621  0.6782 -0.2308
  330MOL0     C44427   9.961   1.963   6.201 -0.5429 -0.4738  0.9165
  330MOL0     C44428   9.813   1.994   6.263  0.1715  0.6388 -0.0961
  330MOL0     C44429   9.759   2.131   6.217  0.2493  0.2157 -0.2545
  330MOL0     C44430   9.600   2.145   6.249  0.0687  0.3381 -0.6469
  330MOL0     C44431   9.574   2.175   6.389 -0.7775 -0.8618  0.5866
  330MOL0     N44432   9.427   2.188   6.394  0.6503 -0.3257 -0.5051
  330MOL0     C44433   9.353   2.262   6.308 -0.1032  0.2641  0.1988
  330MOL0     C44434   9.228   2.215   6.325  0.6595 -0.2619  0.2523
  330MOL0     C44435   9.105   2.267   6.250 -0.9293 -0.2356 -0.0439
  330MOL0     C44436   9.012   2.163   6.184 -0.7575 -0.2681  0.4428
  330MOL0     C44437   8.866   2.203   6.176 -0.2608  0.1098  0.4994
  330MOL0     C44438   8.796   2.088   6.120  0.3257  0.0247  0.1056
  330MOL0     O44439   8.669   2.123   6.075 -0.0970 -1.3692 -0.5930
  330MOL0     C44440   8.597   2.019   6.015 -0.6396 -0.8922 -0.1334
  330MOL0     C44441   8.606   1.878   6.024  0.6135 -0.2794  0.1762
  330MOL0     C44442   8.508   1.791   5.958  0.1942 -0.3430 -0.2100
  330MOL0     C44443   8.535   1.642   5.959  0.0179  0.9265 -0.7716
  330MOL0     C44444   8.400   1.838   5.885  1.3946 -0.2005  0.0019
  330MOL0     C44445   8.290   1.762   5.824 -0.6376  1.1743  0.1186
  330MOL0     O44446   8.311   1.631   5.807 -0.8865 -0.0531 -0.3858
  330MOL0     C44447   8.209   1.546   5.759 -0.5100 -0.2931 -0.3477
  330MOL0     C44448   8.199   1.503   5.624 -0.6127  0.7134  0.1846
  330MOL0     C44449   8.116   1.397   5.594  0.2480  0.1824 -0.0877
  330MOL0     C44450   8.026   1.341   5.691 -0.3644  0.1089 -0.0359
  330MOL0     O44451   7.948   1.235   5.641 -0.3003  0.0703 -0.1557
  330MOL0     C44452   7.864   1.173   5.746 -0.2200 -0.6274  0.5455
  330MOL0     C44453   7.744   1.127   5.667 -0.0815  0.2424 -0.0150
  330MOL0     C44454   7.656   1.227   5.605  0.0239 -0.5878 -0.7106
  330MOL0     C44455   7.545   1.181   5.513 -0.1340  0.3655 -0.6859
  330MOL0     C44456   7.492   1.312   5.454 -0.8236  0.1784 -0.5266
  330MOL0     C44457   7.375   1.287   5.358  1.3557  1.5508  0.9018
  330MOL0     C44458   7.303   1.423   5.322 -0.3816 -0.3128  0.2578
  330MOL0     C44459   7.171   1.388   5.243 -0.5189 -0.1300 -0.5103
  330MOL0    Cl44460   7.051   1.507   5.277 -0.0894  0.1603  0.0252
  330MOL0     C44461   8.011   1.397   5.817  0.4971 -1.2933  0.1465
  330MOL0     C44462   8.101   1.505   5.850 -0.1056 -0.0607 -0.0057
  330MOL0     O44463   8.191   1.823   5.790 -0.5076 -0.9217 -0.3000
  330MOL0     C44464   8.389   1.979   5.884 -0.6870 -0.0812  0.3265
  330MOL0     C44465   8.491   2.060   5.938  0.6880  0.5107 -0.3778
  330MOL0     N44466   9.232   2.109   6.409 -0.0089 -0.1484 -0.9748
  330MOL0     N44467   9.353   2.080   6.444  0.2441 -0.3503  0.2648
  330MOL0     C44468  10.448   2.255   6.153  0.5181  0.2433 -0.1750
  330MOL0     C44469  10.563   2.338   6.180  0.7430 -0.3504 -0.8679
  330MOL0     C44470  10.958   2.532   6.267  0.3938 -0.4631  0.0656
  330MOL0     C44471  11.039   2.538   6.156  0.3167 -0.8029  0.7785
  330MOL0     C44472  11.140   2.638   6.141 -0.4352  0.3774  0.2279
  330MOL0     C44473  11.180   2.720   6.246  0.1320  1.0159 -0.6042
  330MOL0     O44474  11.290   2.799   6.225 -0.3232  0.0457 -0.2566
  330MOL0     C44475  11.343   2.868   6.331  0.2244 -1.0522 -0.4159
  330MOL0     C44476  11.463   2.970   6.286 -0.2471 -0.3702  0.8360
  330MOL0     C44477  11.409   3.123   6.280 -1.0575  1.0122  0.0141
  330MOL0     C44478  11.498   3.214   6.209 -0.1241 -0.3650  0.1929
  330MOL0     C44479  11.476   3.347   6.267  0.0914  0.1278 -0.0092
  330MOL0     C44480  11.438   3.449   6.318 -0.0473 -1.3192 -0.1020
  330MOL0     C44481  11.105   2.695   6.363 -0.7905 -0.3645  0.9867
  330MOL0     C44482  10.993   2.605   6.375  0.3664  0.7582 -0.3925
  330MOL0     H44483  10.798   2.167   6.002 -0.7472 -0.1087 -2.0160
  330MOL0     H44484  10.599   2.021   5.968  0.2145  1.0714 -2.3062
  330MOL0     H44485  10.198   2.175   6.073 -1.1501 -0.8520 -2.1696
  330MOL0     H44486  10.169   2.017   6.009  0.2330 -2.1376  1.6964
  330MOL0     H44487  10.223   1.922   6.235 -1.0812 -0.6344 -0.0757
  330MOL0     H44488  10.268   2.094   6.285 -2.2377  1.3020 -0.5492
  330MOL0     H44489  10.060   2.061   6.363 -0.1624  0.5587 -0.2679
  330MOL0     H44490  10.033   2.159   6.232 -0.4627  1.1818  3.0581
  330MOL0     H44491   9.971   1.977   6.093  1.4643  2.0943  1.3413
  330MOL0     H44492   9.991   1.862   6.229 -0.0595 -0.3579  0.8260
  330MOL0     H44493   9.746   1.919   6.220  2.5601  0.4984 -4.1091
  330MOL0     H44494   9.811   1.987   6.372  3.9691 -0.4913  0.0469
  330MOL0     H44495   9.827   2.206   6.258  3.2487 -1.1857 -2.3181
  330MOL0     H44496   9.777   2.134   6.109 -0.5696 -0.3258 -0.4156
  330MOL0     H44497   9.559   2.226   6.188 -2.5868 -0.3816  0.0374
  330MOL0     H44498   9.556   2.048   6.222 -3.8731  2.1389 -1.4071
  330MOL0     H44499   9.622   2.272   6.406  1.6865 -2.6100  5.5124
  330MOL0     H44500   9.606   2.101   6.463 -1.5812 -1.6340  0.1810
  330MOL0     H44501   9.395   2.335   6.241  0.1562  0.5998  0.7198
  330MOL0     H44502   9.052   2.328   6.324 -0.0986  0.9704 -0.4014
  330MOL0     H44503   9.135   2.333   6.168  0.9187 -0.7826  0.1458
  330MOL0     H44504   9.015   2.085   6.261 -0.7066 -0.7654 -0.0575
  330MOL0     H44505   9.059   2.128   6.092 -1.4679 -0.8367  0.2842
  330MOL0     H44506   8.846   2.290   6.112  1.6479 -0.2769 -0.6982
  330MOL0     H44507   8.824   2.234   6.272 -1.0909 -0.0100  0.1882
  330MOL0     H44508   8.788   2.015   6.201  0.5810 -0.7980 -0.5934
  330MOL0     H44509   8.850   2.031   6.043  1.0283  0.5141  0.2247
  330MOL0     H44510   8.675   1.820   6.083 -1.0431 -1.5694  0.9144
  330MOL0     H44511   8.560   1.600   5.861  1.2859  0.5511 -0.3083
  330MOL0     H44512   8.627   1.618   6.012  1.9018  3.4818 -2.6883
  330MOL0     H44513   8.460   1.580   6.010  0.7802  0.9577  0.4386
  330MOL0     H44514   8.261   1.558   5.554 -1.6434  1.7956  0.0961
  330MOL0     H44515   8.120   1.358   5.493 -1.8603 -2.0966  0.6023
  330MOL0     H44516   7.912   1.085   5.790 -0.0102 -1.2843 -0.9262
  330MOL0     H44517   7.821   1.233   5.826  1.7138 -1.7128  2.5328
  330MOL0     H44518   7.783   1.052   5.599  2.3351 -0.6529  2.2065
  330MOL0     H44519   7.683   1.070   5.738  0.1695  1.3668  1.1454
  330MOL0     H44520   7.723   1.297   5.554 -1.4572 -0.3632 -2.4598
  330MOL0     H44521   7.605   1.275   5.689 -0.1471 -3.2532  0.8236
  330MOL0     H44522   7.586   1.118   5.433  3.0282  0.4398  0.7196
  330MOL0     H44523   7.469   1.113   5.553  1.8154 -1.9372 -0.6936
  330MOL0     H44524   7.573   1.364   5.403  2.8923 -1.9398  2.6811
  330MOL0     H44525   7.464   1.371   5.542  2.7404 -0.3819  1.1550
  330MOL0     H44526   7.414   1.255   5.261 -0.0906  1.4814  0.3173
  330MOL0     H44527   7.310   1.210   5.400  0.6695  0.7619 -1.4642
  330MOL0     H44528   7.362   1.501   5.272  0.3974  0.4873  2.3149
  330MOL0     H44529   7.297   1.471   5.420 -1.9679 -0.0902  0.0805
  330MOL0     H44530   7.137   1.293   5.285 -2.6536  0.6389 -0.3540
  330MOL0     H44531   7.184   1.381   5.134 -0.0276  1.2343 -0.5487
  330MOL0     H44532   7.930   1.373   5.885 -2.9553  0.7537 -2.8593
  330MOL0     H44533   8.090   1.577   5.930 -0.5662  2.9041 -2.5335
  330MOL0     H44534   8.321   2.038   5.824  0.3050 -0.6347 -1.4135
  330MOL0     H44535   8.463   2.166   5.939  2.9224  1.1521 -1.0172
  330MOL0     H44536  10.349   2.279   6.190 -0.8086 -2.6924 -1.5236
  330MOL0     H44537  10.543   2.422   6.246 -0.1461 -0.4899 -0.9504
  330MOL0     H44538  11.016   2.471   6.074 -1.2640 -0.0187  0.5424
  330MOL0     H44539  11.189   2.648   6.045 -0.2053  3.3733  0.5434
  330MOL0     H44540  11.269   2.933   6.377  1.1425  1.3490 -2.1329
  330MOL0     H44541  11.374   2.790   6.401 -1.4972 -2.3617 -1.0572
  330MOL0     H44542  11.491   2.959   6.181 -1.3609  2.8256  0.0848
  330MOL0     H44543  11.544   2.969   6.360 -3.1437  4.2894  4.7472
  330MOL0     H44544  11.396   3.158   6.383 -0.6237 -0.6944  0.6870
  330MOL0     H44545  11.318   3.118   6.219 -1.6515  0.1602  0.9297
  330MOL0     H44546  11.477   3.216   6.101  7.5409 -0.8962 -1.8908
  330MOL0     H44547  11.602   3.181   6.213  0.1121  0.2432 -0.5646
  330MOL0     H44548  11.412   3.541   6.366 -0.2228 -0.7994 -1.1667
  330MOL0     H44549  11.129   2.749   6.454  0.3497  3.1092 -1.1915
  330MOL0     H44550  10.923   2.601   6.458  2.0694  1.9311  1.1823
  331MOL0     O44551   4.729   1.557   0.343  0.0873 -0.0996  0.1187
  331MOL0     C44552   4.707   1.662   0.282  0.2737  0.1402  0.4378
  331MOL0     O44553   4.588   1.727   0.260 -0.5831  0.0196  0.6112
  331MOL0     C44554   4.491   1.716   0.361  0.2461  0.7164  0.2988
  331MOL0     C44555   4.514   1.687   0.498  0.5544 -0.5196  0.2395
  331MOL0     C44556   4.414   1.714   0.588  1.1791 -0.6081 -1.0599
  331MOL0     C44557   4.284   1.756   0.547 -0.1173  0.1446  0.4335
  331MOL0     O44558   4.168   1.762   0.620 -0.4892  0.4867 -0.2322
  331MOL0     C44559   4.168   1.754   0.766 -0.7527  0.2354  0.4881
  331MOL0     C44560   4.034   1.825   0.816 -0.4472  0.6192  0.0969
  331MOL0     C44561   4.036   1.982   0.812 -0.0772  0.5499  0.7661
  331MOL0     C44562   3.900   2.034   0.876 -0.6366 -0.7741 -0.1351
  331MOL0     C44563   3.783   2.027   0.782  0.1565 -0.2845 -0.1743
  331MOL0     C44564   3.769   2.147   0.688  0.5441 -0.9330  0.2605
  331MOL0     C44565   3.628   2.151   0.623  0.4749 -1.2295  0.1880
  331MOL0     C44566   3.615   2.276   0.537  0.1050 -0.7362  0.8337
  331MOL0     N44567   3.480   2.307   0.469 -0.2755  0.0129  0.1160
  331MOL0     C44568   3.457   2.432   0.428  1.0642  1.2740 -0.2049
  331MOL0     C44569   3.352   2.414   0.340 -0.0666 -0.1929 -0.1597
  331MOL0     C44570   3.284   2.525   0.265  0.2630 -0.3841  0.5255
  331MOL0     C44571   3.143   2.550   0.319  0.1485  0.2470 -0.0731
  331MOL0     C44572   3.062   2.655   0.245  0.6056 -1.0241  0.6837
  331MOL0     C44573   3.054   2.646   0.091  0.1614  0.6736 -0.2642
  331MOL0     O44574   2.974   2.741   0.028  0.2646  0.2624  0.1982
  331MOL0     C44575   2.919   2.717  -0.098 -0.1232 -1.1514  0.0554
  331MOL0     C44576   2.798   2.783  -0.128  0.8131 -0.0342  0.1959
  331MOL0     C44577   2.727   2.752  -0.254  0.1818 -0.0252  0.1541
  331MOL0     C44578   2.596   2.825  -0.275  0.7353  0.1346 -0.2482
  331MOL0     C44579   2.790   2.656  -0.350 -0.7856  0.3593 -0.2065
  331MOL0     C44580   2.727   2.607  -0.467  0.1093  0.5391  0.0748
  331MOL0     O44581   2.793   2.525  -0.544 -0.3575  0.9744 -0.0247
  331MOL0     C44582   2.724   2.451  -0.635 -0.1441 -0.1857 -0.4806
  331MOL0     C44583   2.654   2.508  -0.747  0.7226  0.3127 -0.1253
  331MOL0     C44584   2.583   2.421  -0.827  0.6114  0.1518  0.5473
  331MOL0     C44585   2.575   2.283  -0.803  0.4987 -0.4489  0.7229
  331MOL0     O44586   2.494   2.194  -0.878  0.5644  0.2870 -0.0687
  331MOL0     C44587   2.512   2.198  -1.022  1.3194 -0.0422 -0.1068
  331MOL0     C44588   2.433   2.092  -1.098  0.9958 -0.0269  0.3236
  331MOL0     C44589   2.445   1.936  -1.064  0.4084 -0.9510 -0.4217
  331MOL0     C44590   2.317   1.871  -1.107  0.3624  0.4410  0.7162
  331MOL0     C44591   2.309   1.726  -1.088  0.0877 -1.0678  0.0113
  331MOL0     C44592   2.179   1.663  -1.134  0.1369  0.8708  0.3786
  331MOL0     C44593   2.177   1.517  -1.092 -1.1620 -0.2458 -0.4935
  331MOL0     C44594   2.136   1.494  -0.946  0.6588  0.0914 -0.5975
  331MOL0    Cl44595   2.166   1.322  -0.898 -0.7168  0.3395  0.1640
  331MOL0     C44596   2.652   2.226  -0.699  0.0552  0.4160 -0.3475
  331MOL0     C44597   2.722   2.312  -0.609  0.8479  0.4910  0.9095
  331MOL0     O44598   2.611   2.629  -0.471  0.0775 -0.3723  0.6238
  331MOL0     C44599   2.902   2.590  -0.308 -0.4540 -0.8953  0.3731
  331MOL0     C44600   2.969   2.632  -0.196  0.6820  0.4580 -0.3401
  331MOL0     N44601   3.319   2.283   0.339  1.2293 -0.3147  0.1298
  331MOL0     N44602   3.406   2.215   0.407  0.3382  0.3040  0.2889
  331MOL0     C44603   4.264   1.786   0.413  0.4415  0.3739 -0.6243
  331MOL0     C44604   4.363   1.761   0.320 -0.3746  0.5843 -0.1022
  331MOL0     C44605   4.813   1.699   0.176  0.4760  0.2066 -0.8292
  331MOL0     C44606   4.895   1.589   0.121  0.4629 -0.1021  0.2660
  331MOL0     C44607   4.982   1.618   0.015  0.3368 -0.6839  0.5558
  331MOL0     C44608   4.989   1.739  -0.055  0.4685  0.7077 -0.5362
  331MOL0     O44609   5.077   1.749  -0.161 -0.0318  0.3795 -0.4812
  331MOL0     C44610   5.054   1.665  -0.270  1.0756 -0.6155  0.3652
  331MOL0     C44611   4.926   1.682  -0.360 -0.8829 -0.0665  0.0685
  331MOL0     C44612   4.910   1.820  -0.426 -1.3120  0.3379 -0.1571
  331MOL0     C44613   4.840   1.806  -0.565 -0.0518  0.3056  0.3509
  331MOL0     C44614   4.707   1.751  -0.555  0.7399 -0.3482  0.0833
  331MOL0     C44615   4.592   1.702  -0.550  1.1860  0.1919  0.5220
  331MOL0     C44616   4.917   1.839   0.005  0.8484  0.0834 -0.3947
  331MOL0     C44617   4.824   1.827   0.115 -0.1508 -0.0228 -0.2671
  331MOL0     H44618   4.612   1.656   0.534 -0.6459 -1.6092  2.8457
  331MOL0     H44619   4.437   1.697   0.693  2.4031  0.8506 -1.0594
  331MOL0     H44620   4.168   1.649   0.798  2.5918 -0.5181 -1.5360
  331MOL0     H44621   4.256   1.810   0.799  0.5041 -2.2103  1.5542
  331MOL0     H44622   3.952   1.800   0.748  0.8655  2.3829 -2.3174
  331MOL0     H44623   4.018   1.797   0.920  0.9275  2.7198  0.9519
  331MOL0     H44624   4.114   2.034   0.868  0.0237  0.4468  0.7226
  331MOL0     H44625   4.049   2.011   0.707 -1.1851  1.4502  0.8523
  331MOL0     H44626   3.883   1.991   0.975  3.0161  0.4961  1.2021
  331MOL0     H44627   3.913   2.141   0.894  1.1396 -0.9588 -0.1323
  331MOL0     H44628   3.790   1.941   0.713 -0.6500 -0.8399  0.4175
  331MOL0     H44629   3.689   2.014   0.837  1.4863 -0.9891  2.0227
  331MOL0     H44630   3.785   2.242   0.740 -0.3720 -1.4928  1.6194
  331MOL0     H44631   3.854   2.133   0.621  0.5324 -5.4862  0.9099
  331MOL0     H44632   3.615   2.057   0.569 -0.9039 -1.8124  1.4668
  331MOL0     H44633   3.559   2.157   0.708  4.3413 -2.2466  3.7350
  331MOL0     H44634   3.685   2.257   0.455  0.4280 -3.0032  1.5784
  331MOL0     H44635   3.648   2.366   0.590 -3.7664  0.0110  2.3578
  331MOL0     H44636   3.516   2.521   0.445 -0.3725  1.9344  1.7399
  331MOL0     H44637   3.337   2.619   0.273 -1.5084  0.6961  0.1853
  331MOL0     H44638   3.283   2.484   0.163  1.0182 -6.7320  2.5894
  331MOL0     H44639   3.156   2.579   0.423  3.4978 -0.7554 -0.1013
  331MOL0     H44640   3.090   2.454   0.313  3.4924 -1.6969 -0.7231
  331MOL0     H44641   3.103   2.755   0.262 -0.6733 -0.2924 -0.4247
  331MOL0     H44642   2.961   2.632   0.279  0.8414 -3.3199  0.0329
  331MOL0     H44643   3.018   2.548   0.056  2.1870  0.4336 -1.9129
  331MOL0     H44644   3.154   2.646   0.047 -0.4557 -2.5393 -2.0646
  331MOL0     H44645   2.769   2.856  -0.053  0.7426  0.9116 -0.7310
  331MOL0     H44646   2.608   2.860  -0.378  0.8279 -0.3098 -0.3924
  331MOL0     H44647   2.514   2.754  -0.257  0.1061  0.5600 -1.3212
  331MOL0     H44648   2.582   2.910  -0.207  1.8196 -0.2949  0.5286
  331MOL0     H44649   2.677   2.607  -0.783  1.7192  0.0713 -0.1797
  331MOL0     H44650   2.531   2.461  -0.914  3.6630  0.5297 -1.2497
  331MOL0     H44651   2.474   2.295  -1.053  0.3663 -0.2601  0.3448
  331MOL0     H44652   2.613   2.194  -1.063  0.1075 -3.8214 -3.4507
  331MOL0     H44653   2.327   2.118  -1.086  1.0538  0.1455  0.4744
  331MOL0     H44654   2.461   2.110  -1.202 -1.6101 -0.7451 -0.5823
  331MOL0     H44655   2.464   1.934  -0.957  1.0626  1.5079 -0.4225
  331MOL0     H44656   2.535   1.893  -1.109  1.0221  1.1269 -1.3165
  331MOL0     H44657   2.233   1.923  -1.061  2.0727 -0.0701  4.7990
  331MOL0     H44658   2.303   1.878  -1.216  3.2511  0.5782  0.2826
  331MOL0     H44659   2.319   1.715  -0.980  1.6032  0.3049  0.0582
  331MOL0     H44660   2.389   1.668  -1.134 -0.0447 -0.5035 -0.9553
  331MOL0     H44661   2.095   1.712  -1.083  0.3090  3.3574 -1.5145
  331MOL0     H44662   2.161   1.658  -1.241  2.5543 -0.1076 -0.0270
  331MOL0     H44663   2.277   1.475  -1.104 -0.6983  0.8142 -0.4595
  331MOL0     H44664   2.110   1.460  -1.157 -1.2191 -0.7281 -0.0186
  331MOL0     H44665   2.030   1.516  -0.928 -0.1061 -4.3052  1.5543
  331MOL0     H44666   2.203   1.555  -0.884 -1.7327  1.1185  1.1642
  331MOL0     H44667   2.645   2.118  -0.687  0.5772  0.3412 -0.6886
  331MOL0     H44668   2.788   2.275  -0.531  1.4980  0.9548  0.5858
  331MOL0     H44669   2.930   2.506  -0.370 -2.7729 -1.3642 -0.1500
  331MOL0     H44670   3.065   2.582  -0.189  0.8617  0.5566 -1.7956
  331MOL0     H44671   4.168   1.830   0.389 -0.1432 -1.1862 -1.3153
  331MOL0     H44672   4.353   1.805   0.222 -0.2728  1.3061  0.2095
  331MOL0     H44673   4.904   1.492   0.167  0.0558  0.4852  1.6295
  331MOL0     H44674   5.043   1.533  -0.014 -2.9342 -2.3119 -2.2753
  331MOL0     H44675   5.141   1.670  -0.337 -0.6233  1.3354 -1.8984
  331MOL0     H44676   5.055   1.560  -0.242  1.9304 -0.3974  1.1952
  331MOL0     H44677   4.830   1.667  -0.310 -1.1555  0.0733 -0.4040
  331MOL0     H44678   4.926   1.612  -0.444 -2.5030 -1.0947  0.8764
  331MOL0     H44679   5.002   1.878  -0.432 -0.6352 -0.6458  0.5972
  331MOL0     H44680   4.851   1.885  -0.360 -1.2850  2.1904 -1.8421
  331MOL0     H44681   4.913   1.745  -0.618 -1.3203 -1.1398  0.1784
  331MOL0     H44682   4.824   1.907  -0.606 -2.0229 -0.2053 -0.2671
  331MOL0     H44683   4.489   1.671  -0.553  2.6665 -5.8973  0.1639
  331MOL0     H44684   4.942   1.934  -0.041 -0.0161 -0.2607 -1.6346
  331MOL0     H44685   4.769   1.913   0.153  0.7045 -0.7196  2.8599
  332MOL0     O44686  11.439   1.793   2.110  0.0461 -0.0962 -0.0699
  332MOL0     C44687  11.505   1.890   2.068 -0.5735  0.5335 -0.6628
  332MOL0     O44688  11.479   1.963   1.958  0.4472 -0.2066  0.9005
  332MOL0     C44689  11.374   1.939   1.872  0.1736 -1.2395  0.3020
  332MOL0     C44690  11.388   1.947   1.736  0.7072  0.4931  0.0827
  332MOL0     C44691  11.298   1.905   1.642  0.5931  0.6394  0.2624
  332MOL0     C44692  11.169   1.869   1.682  0.7610  0.4112  0.3546
  332MOL0     O44693  11.080   1.810   1.602  0.4368  0.3864 -0.2624
  332MOL0     C44694  11.096   1.817   1.456  0.4189 -0.0187 -0.5564
  332MOL0     C44695  10.963   1.793   1.387 -0.9860 -0.3716  0.5563
  332MOL0     C44696  10.979   1.780   1.235  0.6326  0.0955  0.2225
  332MOL0     C44697  10.855   1.791   1.148  0.0800  0.4285 -0.0532
  332MOL0     C44698  10.881   1.801   0.995 -1.0013  0.0333  0.2165
  332MOL0     C44699  10.941   1.675   0.928  0.2339  0.7678  0.0947
  332MOL0     C44700  11.094   1.651   0.913 -0.5907  1.2147 -0.5501
  332MOL0     C44701  11.110   1.524   0.811 -0.1122 -0.0293 -0.2259
  332MOL0     N44702  11.237   1.470   0.834 -0.4282  0.4333  0.1489
  332MOL0     C44703  11.354   1.521   0.781  0.4427  0.3077  0.5261
  332MOL0     C44704  11.449   1.419   0.783  0.3641 -0.2510 -0.3117
  332MOL0     C44705  11.594   1.436   0.746 -0.2046  0.0213  0.9797
  332MOL0     C44706  11.660   1.554   0.807 -0.1233  0.4857  0.7451
  332MOL0     C44707  11.785   1.586   0.716 -0.3130  0.2579  0.1775
  332MOL0     C44708  11.878   1.672   0.799 -0.4158 -0.7855  0.4135
  332MOL0     O44709  12.019   1.685   0.742  0.0666 -0.5686 -0.9566
  332MOL0     C44710  12.121   1.767   0.800 -0.1853  0.0465  0.9341
  332MOL0     C44711  12.251   1.754   0.759 -0.5756 -0.4098  0.1227
  332MOL0     C44712  12.350   1.847   0.799  0.2748 -1.2390 -0.2126
  332MOL0     C44713  12.480   1.861   0.723  0.6221  1.0396  1.0772
  332MOL0     C44714  12.311   1.953   0.896 -0.1291  0.2359 -0.0738
  332MOL0     C44715  12.386   2.067   0.919 -0.8010  1.2788  0.3075
  332MOL0     O44716  12.398   2.111   1.047  0.1201 -0.0281 -0.3491
  332MOL0     C44717  12.455   2.238   1.080 -0.6939  0.6476 -0.0586
  332MOL0     C44718  12.387   2.300   1.189 -0.4173  0.1696  0.4430
  332MOL0     C44719  12.422   2.422   1.237  0.0197  0.1854 -0.7357
  332MOL0     C44720  12.540   2.482   1.179 -0.5164  0.3558  0.2438
  332MOL0     O44721  12.592   2.604   1.203  0.0049  0.7754 -0.1563
  332MOL0     C44722  12.495   2.708   1.214 -0.1418  0.7668  0.7189
  332MOL0     C44723  12.548   2.847   1.156 -0.0133  0.6748 -0.2829
  332MOL0     C44724  12.602   2.825   1.013 -0.3305 -0.2692 -0.6553
  332MOL0     C44725  12.709   2.925   0.959  0.3838 -0.3869 -0.0081
  332MOL0     C44726  12.662   3.071   0.956 -0.1246 -0.1255 -0.7675
  332MOL0     C44727  12.775   3.151   0.903 -0.8852 -0.4518  0.0471
  332MOL0     C44728  12.732   3.302   0.884 -0.1363  0.2334 -0.3332
  332MOL0     C44729  12.665   3.339   0.752 -0.6088 -0.2184 -0.0169
  332MOL0    Cl44730  12.611   3.519   0.734  0.0494  0.7058  0.0368
  332MOL0     C44731  12.618   2.407   1.078  0.0245 -1.3303  0.2588
  332MOL0     C44732  12.567   2.291   1.029  0.0090 -0.3192  0.3050
  332MOL0     O44733  12.419   2.133   0.824 -0.5540 -0.0605  0.2728
  332MOL0     C44734  12.187   1.940   0.963 -1.0002 -0.8842 -0.4328
  332MOL0     C44735  12.099   1.844   0.917 -0.1778  0.1002 -0.1944
  332MOL0     N44736  11.383   1.312   0.838 -0.1788  1.2557 -0.4218
  332MOL0     N44737  11.258   1.334   0.853  0.8047  0.5080  0.1589
  332MOL0     C44738  11.143   1.882   1.816 -0.9649  0.0631 -1.0304
  332MOL0     C44739  11.246   1.911   1.913  0.6953 -0.1642  0.1967
  332MOL0     C44740  11.627   1.922   2.142 -0.2092  0.0970 -1.3295
  332MOL0     C44741  11.656   2.048   2.195  0.1007 -0.8027 -0.5273
  332MOL0     C44742  11.776   2.069   2.270 -0.6777 -0.7922 -0.2047
  332MOL0     C44743  11.866   1.970   2.301  0.5322 -0.6783  0.0708
  332MOL0     O44744  11.984   1.989   2.365 -0.9522  0.0446 -0.0787
  332MOL0     C44745  12.027   2.124   2.395 -0.4984 -0.0749  0.1883
  332MOL0     C44746  12.145   2.121   2.491 -0.0500 -0.6946 -0.3041
  332MOL0     C44747  12.255   2.026   2.472  0.2475  0.0611  0.4739
  332MOL0     C44748  12.361   2.036   2.585  0.5658 -0.7120  0.3184
  332MOL0     C44749  12.424   2.167   2.572 -0.0631 -0.2639 -0.1940
  332MOL0     C44750  12.464   2.281   2.577 -0.1163  0.0205  0.1237
  332MOL0     C44751  11.836   1.840   2.253 -0.6480  0.0635 -0.5466
  332MOL0     C44752  11.719   1.817   2.180 -0.3202 -0.1747 -0.4779
  332MOL0     H44753  11.490   1.973   1.711  1.0822  0.7595  1.7852
  332MOL0     H44754  11.332   1.883   1.541 -0.0723  0.3775  0.0913
  332MOL0     H44755  11.137   1.914   1.429  1.4629  0.2096  1.5961
  332MOL0     H44756  11.176   1.752   1.417  3.0704  3.2426 -0.9975
  332MOL0     H44757  10.916   1.698   1.415 -2.7877  0.4647  0.5102
  332MOL0     H44758  10.896   1.873   1.419 -0.5538 -0.5614  1.9808
  332MOL0     H44759  11.045   1.863   1.209  1.2530 -0.5929 -0.4058
  332MOL0     H44760  11.023   1.683   1.209  1.5315 -0.6965  4.0744
  332MOL0     H44761  10.781   1.711   1.156  1.4678 -0.7008  3.2404
  332MOL0     H44762  10.802   1.884   1.173 -0.1833 -0.2589  2.1383
  332MOL0     H44763  10.788   1.816   0.939 -2.2867 -2.1760  1.6223
  332MOL0     H44764  10.949   1.887   0.986  0.0618 -0.5981  1.6849
  332MOL0     H44765  10.886   1.589   0.968 -0.1202  0.0262 -1.8447
  332MOL0     H44766  10.906   1.687   0.825 -2.1867 -0.3641  0.7273
  332MOL0     H44767  11.151   1.731   0.864 -1.5376  1.2884 -1.5736
  332MOL0     H44768  11.135   1.629   1.012 -2.3205 -0.1696 -0.1040
  332MOL0     H44769  11.102   1.568   0.711  1.0763 -1.1742 -0.8455
  332MOL0     H44770  11.031   1.449   0.824  0.1010  0.0649  2.1209
  332MOL0     H44771  11.375   1.625   0.759  1.7509  0.1883  1.0890
  332MOL0     H44772  11.656   1.346   0.756  2.3365  1.1014 -2.8555
  332MOL0     H44773  11.598   1.462   0.640 -0.2642  2.3947  1.5135
  332MOL0     H44774  11.699   1.523   0.905  1.2801  2.0923  0.7455
  332MOL0     H44775  11.586   1.635   0.817 -1.1960 -0.0024 -2.2218
  332MOL0     H44776  11.751   1.651   0.635  0.0593  0.0508 -0.1477
  332MOL0     H44777  11.841   1.500   0.678 -2.4707 -0.1013 -2.5884
  332MOL0     H44778  11.887   1.639   0.903 -0.7667  0.3319  0.8084
  332MOL0     H44779  11.836   1.771   0.818  0.3653 -0.7973  2.3908
  332MOL0     H44780  12.278   1.676   0.689  0.9419  1.5499 -1.6023
  332MOL0     H44781  12.474   1.884   0.617 -0.9667 -1.8482  0.4185
  332MOL0     H44782  12.544   1.929   0.779 -1.5948  0.8482  4.0981
  332MOL0     H44783  12.537   1.767   0.727  0.9190  1.1002 -0.9689
  332MOL0     H44784  12.300   2.255   1.236  1.8313 -0.9638  3.8674
  332MOL0     H44785  12.361   2.475   1.308  2.8195  2.8253 -0.0815
  332MOL0     H44786  12.402   2.677   1.166  0.8463 -2.9475  0.9413
  332MOL0     H44787  12.459   2.722   1.316  0.0709  0.9936  0.7656
  332MOL0     H44788  12.471   2.923   1.139 -2.3873 -1.5783 -0.3666
  332MOL0     H44789  12.624   2.890   1.221  1.9964 -2.6464 -0.2317
  332MOL0     H44790  12.510   2.838   0.954  0.1129 -1.8762 -1.7859
  332MOL0     H44791  12.647   2.728   0.994  0.6881  0.1017 -0.1605
  332MOL0     H44792  12.793   2.915   1.028  0.7773 -0.9225 -0.5547
  332MOL0     H44793  12.746   2.897   0.860  1.3699 -1.4959  0.6548
  332MOL0     H44794  12.618   3.096   1.052 -0.6638 -2.0302 -0.4750
  332MOL0     H44795  12.580   3.075   0.883  0.6381  1.2642 -1.6002
  332MOL0     H44796  12.858   3.158   0.973 -2.1670  2.1585  1.4478
  332MOL0     H44797  12.808   3.123   0.802  1.7472  1.5548  0.2574
  332MOL0     H44798  12.816   3.370   0.905 -0.1435 -0.3120  1.7478
  332MOL0     H44799  12.659   3.327   0.962 -2.0659  0.5645 -2.1743
  332MOL0     H44800  12.569   3.286   0.760 -1.3784  1.4156  3.2860
  332MOL0     H44801  12.712   3.295   0.664  0.7047  1.4141 -0.1737
  332MOL0     H44802  12.708   2.458   1.048 -2.7798  3.3608 -1.2704
  332MOL0     H44803  12.629   2.232   0.963  0.3514 -0.0234  0.3556
  332MOL0     H44804  12.167   2.004   1.049  3.2156 -2.6482  2.1917
  332MOL0     H44805  12.005   1.837   0.972  1.0898  2.5975  2.5753
  332MOL0     H44806  11.041   1.859   1.846 -0.9491  0.3714 -0.7225
  332MOL0     H44807  11.215   1.914   2.017 -5.2051  0.7510 -1.2294
  332MOL0     H44808  11.592   2.130   2.163 -0.0710 -0.7518 -0.0537
  332MOL0     H44809  11.796   2.172   2.300  1.3854 -0.3393 -2.7920
  332MOL0     H44810  12.048   2.168   2.298 -0.2193 -0.6116  0.0004
  332MOL0     H44811  11.951   2.181   2.449 -0.1937  0.2496  0.2748
  332MOL0     H44812  12.094   2.094   2.584 -3.1965 -4.3091 -2.7679
  332MOL0     H44813  12.178   2.225   2.500 -2.2435  0.4631 -3.7149
  332MOL0     H44814  12.296   2.033   2.371  0.1131 -2.4403  0.1984
  332MOL0     H44815  12.213   1.927   2.490 -0.5675  0.4865  0.9958
  332MOL0     H44816  12.440   1.964   2.560  2.3298  2.1926 -3.7960
  332MOL0     H44817  12.309   2.020   2.679 -0.8204 -1.6954 -0.5783
  332MOL0     H44818  12.510   2.376   2.562  3.9138 -1.9022 -0.9008
  332MOL0     H44819  11.904   1.762   2.286 -1.4484 -0.5387 -0.2652
  332MOL0     H44820  11.698   1.711   2.171 -0.1631 -0.0731 -2.5825
  333MOL0     O44821   9.853   9.776   7.157  0.6867 -0.0880 -0.3047
  333MOL0     C44822   9.805   9.748   7.046  0.0760  0.6203 -0.1604
  333MOL0     O44823   9.675   9.714   7.026 -0.8968  0.2994  0.2064
  333MOL0     C44824   9.603   9.681   7.134  0.9325 -1.8028 -0.7238
  333MOL0     C44825   9.544   9.789   7.196  0.3248 -0.3054  0.2205
  333MOL0     C44826   9.465   9.762   7.311 -0.2310 -0.6071 -0.1982
  333MOL0     C44827   9.463   9.642   7.363 -0.1459  0.6539 -0.8421
  333MOL0     O44828   9.383   9.644   7.481 -0.7190 -0.5837 -0.1674
  333MOL0     C44829   9.377   9.543   7.572  0.3399  0.6325  1.1160
  333MOL0     C44830   9.275   9.563   7.675  0.3182  0.8273 -0.9172
  333MOL0     C44831   9.139   9.573   7.607  0.2733  0.0922 -0.6486
  333MOL0     C44832   9.030   9.534   7.717  0.3709 -0.2168 -0.7878
  333MOL0     C44833   8.884   9.572   7.695  0.7022 -1.1880 -0.1752
  333MOL0     C44834   8.818   9.466   7.608  1.0239 -0.0665  0.2525
  333MOL0     C44835   8.673   9.486   7.597  0.9614  0.0891  0.0869
  333MOL0     C44836   8.643   9.619   7.509  0.1160 -0.5192 -0.0576
  333MOL0     N44837   8.598   9.728   7.611  0.4898 -0.2559  0.2357
  333MOL0     C44838   8.463   9.748   7.649 -0.2084 -0.1605  0.0486
  333MOL0     C44839   8.470   9.871   7.708  0.1949  0.1020 -0.2772
  333MOL0     C44840   8.353   9.970   7.734  0.1220  0.3079 -0.0015
  333MOL0     C44841   8.271   9.975   7.598 -0.7066  0.5034 -0.4929
  333MOL0     C44842   8.165  10.081   7.612  0.1796  0.0725  0.1268
  333MOL0     C44843   8.229  10.212   7.585  0.0071 -0.1796 -0.3302
  333MOL0     O44844   8.136  10.307   7.532 -0.5031 -0.5036 -0.1937
  333MOL0     C44845   8.154  10.431   7.558 -0.1899  0.0442  0.9031
  333MOL0     C44846   8.039  10.500   7.591 -0.4252  0.4045 -0.2025
  333MOL0     C44847   8.041  10.637   7.633  0.5844 -0.5088  0.1936
  333MOL0     C44848   7.910  10.698   7.674  0.8972  0.6894  0.9995
  333MOL0     C44849   8.163  10.722   7.618 -1.1458  1.0431 -1.7435
  333MOL0     C44850   8.169  10.864   7.624 -1.0773  0.4034 -0.3284
  333MOL0     O44851   8.268  10.924   7.689  0.7761  0.4704 -0.1272
  333MOL0     C44852   8.267  11.059   7.704  0.4828 -0.0426 -1.2058
  333MOL0     C44853   8.178  11.119   7.795  0.8191 -0.0237 -0.1140
  333MOL0     C44854   8.181  11.263   7.815 -0.3254 -0.3930  1.0527
  333MOL0     C44855   8.282  11.337   7.753  0.3187  1.0189  0.0088
  333MOL0     O44856   8.286  11.469   7.779 -0.1069  0.1952  1.0208
  333MOL0     C44857   8.297  11.566   7.669  0.3579 -0.2295  0.1024
  333MOL0     C44858   8.175  11.546   7.578 -0.0944 -0.3941 -0.9763
  333MOL0     C44859   8.153  11.677   7.507  0.2484 -0.0899  0.4670
  333MOL0     C44860   8.039  11.664   7.407  0.2943  0.5526  0.3100
  333MOL0     C44861   8.061  11.584   7.277 -0.0619  0.6120  0.5757
  333MOL0     C44862   7.933  11.572   7.193  0.0905 -0.2028 -0.4583
  333MOL0     C44863   7.974  11.518   7.048 -0.2071 -0.2816 -1.5528
  333MOL0     C44864   8.045  11.617   6.968  0.3417  0.3866 -0.3049
  333MOL0    Cl44865   7.979  11.783   6.971 -0.5968  0.1595 -0.1634
  333MOL0     C44866   8.378  11.272   7.677 -0.1178 -0.8294  0.2596
  333MOL0     C44867   8.367  11.137   7.654  0.1524  0.4282 -0.4584
  333MOL0     O44868   8.081  10.924   7.557  0.0521 -0.0940  0.4963
  333MOL0     C44869   8.278  10.634   7.593 -0.6758 -0.3889  0.3092
  333MOL0     C44870   8.270  10.498   7.550  0.3095 -0.8096 -0.3852
  333MOL0     N44871   8.610   9.912   7.723  0.7241  1.1075 -0.2444
  333MOL0     N44872   8.678   9.831   7.652  0.2263  0.2991  0.7636
  333MOL0     C44873   9.521   9.533   7.310  0.2614 -0.4964 -1.0548
  333MOL0     C44874   9.591   9.554   7.195 -0.0069 -0.1052  0.5346
  333MOL0     C44875   9.881   9.771   6.922 -0.0538  0.6752 -0.2241
  333MOL0     C44876  10.023   9.770   6.931 -0.6106 -0.6862  0.1447
  333MOL0     C44877  10.094   9.787   6.809 -0.7770  0.1695 -0.2838
  333MOL0     C44878  10.021   9.795   6.687 -0.5576  0.2113  1.0708
  333MOL0     O44879  10.074   9.806   6.555 -0.0599 -0.8040 -0.0467
  333MOL0     C44880  10.212   9.786   6.537 -0.5173 -0.0453  0.7300
  333MOL0     C44881  10.292   9.914   6.570 -0.1085 -0.6894 -0.0922
  333MOL0     C44882  10.434   9.930   6.502 -0.3792 -1.4443  0.5036
  333MOL0     C44883  10.548   9.887   6.594  0.3198  0.6845 -0.9437
  333MOL0     C44884  10.680   9.889   6.535 -0.0376  0.2923  1.4252
  333MOL0     C44885  10.795   9.878   6.487  0.1520 -0.1220 -0.2934
  333MOL0     C44886   9.883   9.807   6.687 -0.5708  0.6472  0.9075
  333MOL0     C44887   9.815   9.802   6.801  0.4640 -0.7616 -0.5291
  333MOL0     H44888   9.534   9.883   7.142  2.0971 -1.3495 -2.0975
  333MOL0     H44889   9.408   9.838   7.364 -0.2271 -0.5327 -0.3009
  333MOL0     H44890   9.348   9.453   7.517 -0.1667  3.7392 -4.5087
  333MOL0     H44891   9.472   9.535   7.626  1.9309  1.2364 -1.4039
  333MOL0     H44892   9.274   9.477   7.742  1.4900 -0.9639 -3.0569
  333MOL0     H44893   9.289   9.650   7.740 -0.4504 -0.5268  1.1545
  333MOL0     H44894   9.114   9.670   7.562  0.0516 -0.9038 -2.7717
  333MOL0     H44895   9.117   9.499   7.531 -3.7691 -1.8553  2.0801
  333MOL0     H44896   9.046   9.432   7.753  1.1111  0.8702  2.3053
  333MOL0     H44897   9.050   9.594   7.806 -3.5881 -2.3760  1.8540
  333MOL0     H44898   8.847   9.575   7.798  0.6432 -2.2774 -0.1537
  333MOL0     H44899   8.891   9.671   7.650  5.5591  0.0186  2.5550
  333MOL0     H44900   8.866   9.464   7.509  1.8094 -1.7312  0.6389
  333MOL0     H44901   8.836   9.370   7.657  0.1864 -0.3371  0.0389
  333MOL0     H44902   8.624   9.400   7.550  2.2283  1.0456 -3.2780
  333MOL0     H44903   8.618   9.487   7.692 -2.8537 -0.2840 -1.9430
  333MOL0     H44904   8.561   9.603   7.438 -0.9686  0.2289  1.0050
  333MOL0     H44905   8.734   9.660   7.465 -0.3070  2.2750  1.4673
  333MOL0     H44906   8.378   9.694   7.610 -0.7575 -0.3537  1.4495
  333MOL0     H44907   8.296   9.928   7.818  1.9205 -0.9691  0.6281
  333MOL0     H44908   8.396  10.067   7.761  2.9641 -1.0657  0.7090
  333MOL0     H44909   8.219   9.879   7.596  0.1804  0.0106 -0.2330
  333MOL0     H44910   8.333   9.976   7.509  0.9672  1.0808  0.6300
  333MOL0     H44911   8.116  10.085   7.709 -1.0999 -0.1262 -0.4997
  333MOL0     H44912   8.090  10.066   7.534  1.9123 -2.7341 -1.1544
  333MOL0     H44913   8.304  10.199   7.506  0.8098  0.7626  0.2515
  333MOL0     H44914   8.285  10.255   7.669  0.6949 -2.8122  0.6634
  333MOL0     H44915   7.950  10.440   7.609 -0.6799  1.5412  2.8319
  333MOL0     H44916   7.860  10.628   7.742 -0.3024  1.0502  0.5176
  333MOL0     H44917   7.914  10.801   7.713  3.0849 -0.6007  4.7211
  333MOL0     H44918   7.851  10.682   7.583  1.2420 -0.5345  0.9754
  333MOL0     H44919   8.110  11.060   7.854  1.6510  0.8142  1.7642
  333MOL0     H44920   8.128  11.328   7.884  0.6478  0.3343  1.1375
  333MOL0     H44921   8.302  11.670   7.701  2.8949  0.1231 -1.2054
  333MOL0     H44922   8.386  11.549   7.608 -1.0415  0.3908 -2.2628
  333MOL0     H44923   8.199  11.460   7.514  3.2828 -0.6772  0.4571
  333MOL0     H44924   8.099  11.531   7.655  1.8023  1.4667  1.4128
  333MOL0     H44925   8.242  11.721   7.461 -1.3917  6.1549  2.2645
  333MOL0     H44926   8.120  11.741   7.590  1.6280  0.2453  0.7745
  333MOL0     H44927   7.959  11.627   7.472 -0.7035  4.8887  1.8765
  333MOL0     H44928   8.018  11.766   7.375 -0.7150 -0.2349 -1.7555
  333MOL0     H44929   8.091  11.480   7.297  1.0808  0.5112 -1.4568
  333MOL0     H44930   8.144  11.635   7.227 -0.9948  1.0553 -0.5320
  333MOL0     H44931   7.854  11.511   7.238 -0.2458 -0.8486 -1.8747
  333MOL0     H44932   7.884  11.669   7.186  0.6263 -0.0345 -2.8410
  333MOL0     H44933   7.880  11.490   7.001 -2.1076  1.3496  0.9993
  333MOL0     H44934   8.030  11.424   7.054 -1.1388 -0.7763  2.0575
  333MOL0     H44935   8.038  11.580   6.865 -0.3536  0.6447 -0.3511
  333MOL0     H44936   8.148  11.612   7.005  0.6342  3.9116 -0.3388
  333MOL0     H44937   8.460  11.326   7.631  0.5154 -1.8839  0.0951
  333MOL0     H44938   8.445  11.100   7.588  0.9162  3.9498 -1.7286
  333MOL0     H44939   8.380  10.672   7.596 -1.4448  1.8652 -0.7210
  333MOL0     H44940   8.362  10.443   7.533  2.0162  1.8692 -0.5292
  333MOL0     H44941   9.526   9.436   7.358  0.1052 -0.9191 -1.8715
  333MOL0     H44942   9.642   9.467   7.155 -0.7048  0.6162 -2.0860
  333MOL0     H44943  10.076   9.758   7.025  2.5734 -0.6077 -1.5376
  333MOL0     H44944  10.201   9.788   6.827 -0.8856  1.6213  0.4681
  333MOL0     H44945  10.251   9.697   6.588 -1.7724 -1.1031 -0.0511
  333MOL0     H44946  10.221   9.748   6.434  0.9643 -2.7709  1.7456
  333MOL0     H44947  10.284   9.927   6.678  2.4184 -3.0465  0.4986
  333MOL0     H44948  10.238   9.998   6.525  2.2665  2.4238  2.4317
  333MOL0     H44949  10.448  10.030   6.461  0.2242 -2.0325 -0.8048
  333MOL0     H44950  10.434   9.860   6.417  3.5991  0.0618 -0.9771
  333MOL0     H44951  10.527   9.785   6.627 -0.8674  0.8716 -1.0536
  333MOL0     H44952  10.568   9.958   6.675  2.1000 -0.3808 -0.3953
  333MOL0     H44953  10.897   9.887   6.456  0.2249  4.1508  0.6452
  333MOL0     H44954   9.826   9.807   6.594  0.7980 -2.0552 -0.0233
  333MOL0     H44955   9.707   9.796   6.803  0.4011  0.0108 -1.0251
  334MOL0     O44956   3.446  10.131   7.766  0.1402 -0.0733 -0.8735
  334MOL0     C44957   3.408  10.045   7.841 -0.2036  0.3303  0.5023
  334MOL0     O44958   3.489   9.968   7.915 -0.2607  0.0054 -0.2561
  334MOL0     C44959   3.617   9.947   7.871 -0.0927 -0.2636  0.6460
  334MOL0     C44960   3.656   9.929   7.737  0.4539  0.0366 -0.8112
  334MOL0     C44961   3.791   9.903   7.700  0.3635  1.0064  0.0557
  334MOL0     C44962   3.886   9.868   7.792  0.0244  0.2829  0.0342
  334MOL0     O44963   4.017   9.846   7.754 -0.6859 -0.1911 -1.2344
  334MOL0     C44964   4.101   9.756   7.818  0.3611  0.4979 -1.0825
  334MOL0     C44965   4.229   9.742   7.730  0.5353 -1.5849  0.1679
  334MOL0     C44966   4.328   9.631   7.756 -0.6922  0.0033 -0.3479
  334MOL0     C44967   4.281   9.505   7.682  0.3434 -0.5021  0.3588
  334MOL0     C44968   4.277   9.496   7.527  0.5815 -0.2881  0.3414
  334MOL0     C44969   4.135   9.504   7.471 -0.6679  0.7465 -1.4475
  334MOL0     C44970   4.125   9.481   7.320 -0.7457  0.3875 -0.8424
  334MOL0     C44971   3.978   9.491   7.258 -0.2436 -0.4686 -1.4155
  334MOL0     N44972   3.924   9.620   7.283 -0.2043 -0.8630 -0.6867
  334MOL0     C44973   3.975   9.746   7.238 -0.3423  0.3304 -0.4213
  334MOL0     C44974   3.892   9.833   7.298  1.1665 -0.2875 -1.3440
  334MOL0     C44975   3.889   9.981   7.294 -0.1095 -0.0481  0.0337
  334MOL0     C44976   3.969  10.053   7.176 -0.5592 -0.9074 -0.1687
  334MOL0     C44977   4.098  10.120   7.238 -0.0762 -0.1483 -0.4493
  334MOL0     C44978   4.202  10.014   7.296 -0.6377 -0.5752  0.1761
  334MOL0     O44979   4.294   9.964   7.204 -0.8388 -0.5503 -0.0161
  334MOL0     C44980   4.411  10.027   7.177 -0.6262 -0.2021 -0.1561
  334MOL0     C44981   4.525   9.962   7.210 -0.2325 -0.0379  0.3221
  334MOL0     C44982   4.653  10.025   7.201  0.9383  0.4726 -0.0348
  334MOL0     C44983   4.768   9.943   7.257  0.2685 -0.5652  0.2496
  334MOL0     C44984   4.669  10.164   7.157 -0.3436  0.2314 -0.4966
  334MOL0     C44985   4.800  10.233   7.133 -0.1167 -0.2415  0.8646
  334MOL0     O44986   4.793  10.353   7.068  0.2974  0.0401 -0.5705
  334MOL0     C44987   4.889  10.372   6.970  0.4678 -0.4565 -0.2361
  334MOL0     C44988   4.896  10.505   6.940 -0.1481 -0.5742 -0.2905
  334MOL0     C44989   5.002  10.556   6.875 -0.2112 -1.0568  1.1743
  334MOL0     C44990   5.103  10.475   6.843 -0.2783 -0.8325  0.0021
  334MOL0     O44991   5.223  10.534   6.809  0.3416 -0.6002 -0.1999
  334MOL0     C44992   5.304  10.461   6.718  0.4606 -0.2587  0.8177
  334MOL0     C44993   5.384  10.569   6.652 -0.4859  0.0825 -0.1940
  334MOL0     C44994   5.501  10.523   6.577 -0.0149 -0.7747  1.2452
  334MOL0     C44995   5.568  10.657   6.532  0.0751  1.0605 -0.2803
  334MOL0     C44996   5.689  10.622   6.447 -0.0541 -0.0082  1.4019
  334MOL0     C44997   5.805  10.549   6.524 -0.1791 -0.1651 -0.5547
  334MOL0     C44998   5.940  10.574   6.445 -0.3335  0.4465 -0.2418
  334MOL0     C44999   6.050  10.489   6.511 -0.4895  0.5549  0.5781
  334MOL0    Cl45000   6.072  10.533   6.680 -0.0509 -0.0300 -0.0901
  334MOL0     C45001   5.096  10.334   6.851 -0.0551 -0.2940 -0.4256
  334MOL0     C45002   4.990  10.284   6.918  0.5637  0.0175 -0.1752
  334MOL0     O45003   4.905  10.173   7.167 -1.1549  0.2025 -0.1181
  334MOL0     C45004   4.545  10.224   7.134  0.2515 -0.0526  0.1283
  334MOL0     C45005   4.419  10.167   7.145 -0.0076  0.1805 -0.8228
  334MOL0     N45006   3.812   9.766   7.380  0.0546 -0.0336 -0.1457
  334MOL0     N45007   3.831   9.635   7.377  0.8140  0.3282 -0.9002
  334MOL0     C45008   3.846   9.882   7.926 -0.2182  0.9855  0.1255
  334MOL0     C45009   3.712   9.913   7.965 -0.6575  0.3808  0.5658
  334MOL0     C45010   3.258  10.028   7.853 -0.1037  0.3154 -0.2301
  334MOL0     C45011   3.212   9.936   7.960  0.2139 -0.5430  0.3979
  334MOL0     C45012   3.074   9.928   7.981  0.1042 -0.5791 -0.0289
  334MOL0     C45013   2.981  10.008   7.912 -0.6745  0.9747  0.9219
  334MOL0     O45014   2.852   9.980   7.950  0.0851 -0.1450 -0.6688
  334MOL0     C45015   2.740  10.029   7.877  0.1752 -0.1141 -0.2157
  334MOL0     C45016   2.707  10.176   7.898 -0.4214 -0.3998 -1.1931
  334MOL0     C45017   2.590  10.219   7.804  0.3514 -0.8860  0.1615
  334MOL0     C45018   2.633  10.321   7.698  1.2025 -0.1393  0.2538
  334MOL0     C45019   2.640  10.446   7.770  0.8109  0.4188  0.2933
  334MOL0     C45020   2.645  10.550   7.826  0.5601  0.4532  1.0917
  334MOL0     C45021   3.030  10.098   7.812  0.6350 -1.1087  1.0563
  334MOL0     C45022   3.161  10.092   7.776 -0.6637 -0.8733  0.7821
  334MOL0     H45023   3.585   9.946   7.656  1.2600  0.2000 -1.4986
  334MOL0     H45024   3.836   9.895   7.601  1.3179  0.1755  0.5380
  334MOL0     H45025   4.121   9.785   7.922 -1.2356 -2.3831  0.1520
  334MOL0     H45026   4.051   9.660   7.838  2.4841  0.1209  4.0078
  334MOL0     H45027   4.188   9.743   7.629  0.3650 -1.7681  0.2331
  334MOL0     H45028   4.302   9.823   7.741 -0.3015 -0.7018 -0.5931
  334MOL0     H45029   4.431   9.653   7.727 -0.0706 -1.8968  0.2714
  334MOL0     H45030   4.336   9.612   7.863  4.4440 -3.4094 -1.0048
  334MOL0     H45031   4.350   9.426   7.711  0.5651 -0.0941  0.9645
  334MOL0     H45032   4.179   9.480   7.712 -0.2250 -2.5079 -2.7808
  334MOL0     H45033   4.339   9.580   7.494 -0.1691  0.9522  1.9435
  334MOL0     H45034   4.325   9.402   7.497 -0.8626 -0.7574 -0.5954
  334MOL0     H45035   4.069   9.430   7.516  0.1231  1.1629  0.5016
  334MOL0     H45036   4.096   9.602   7.500 -0.7190 -0.5125  3.5344
  334MOL0     H45037   4.189   9.557   7.274  2.2663  0.1283  2.5205
  334MOL0     H45038   4.174   9.384   7.307  0.6075  0.7805  0.9541
  334MOL0     H45039   3.915   9.412   7.298 -0.8020  0.7114  0.1250
  334MOL0     H45040   3.987   9.494   7.149 -0.8181  0.2697 -1.4502
  334MOL0     H45041   4.053   9.770   7.166  0.8031 -1.5137  0.1458
  334MOL0     H45042   3.782  10.004   7.288 -0.2032 -0.4444  0.1702
  334MOL0     H45043   3.925  10.014   7.391 -0.4242 -1.0638  0.5123
  334MOL0     H45044   3.908  10.132   7.132 -1.9127 -2.8037 -1.8628
  334MOL0     H45045   3.993   9.979   7.099  1.9799  0.4843 -0.8201
  334MOL0     H45046   4.064  10.188   7.316 -0.3817  0.3717 -1.0270
  334MOL0     H45047   4.139  10.171   7.151  0.1239 -0.5778 -0.6116
  334MOL0     H45048   4.140   9.932   7.336 -1.9933  0.2057 -0.2511
  334MOL0     H45049   4.256  10.061   7.378 -1.1082  1.0843 -0.4203
  334MOL0     H45050   4.514   9.864   7.256  3.6234 -1.2937 -0.9944
  334MOL0     H45051   4.776   9.946   7.366 -0.7841  2.8180  0.3291
  334MOL0     H45052   4.752   9.835   7.249 -4.1566 -0.4725  3.6020
  334MOL0     H45053   4.867   9.971   7.221 -0.1267  2.2126  1.1009
  334MOL0     H45054   4.827  10.576   6.985 -2.1316 -1.6341 -1.4957
  334MOL0     H45055   5.009  10.662   6.855  3.7079 -0.6636  3.5553
  334MOL0     H45056   5.363  10.386   6.771  0.1406  0.3070  2.0179
  334MOL0     H45057   5.254  10.405   6.638  1.7435  1.8201 -1.5922
  334MOL0     H45058   5.315  10.621   6.585 -3.2147 -1.6507  1.0936
  334MOL0     H45059   5.414  10.639   6.730  1.3995  0.8505 -1.5373
  334MOL0     H45060   5.481  10.452   6.496  1.0439 -0.6453  0.8580
  334MOL0     H45061   5.570  10.476   6.647  1.7717  0.4647  0.3785
  334MOL0     H45062   5.502  10.721   6.473  1.1298  2.2612 -0.1934
  334MOL0     H45063   5.602  10.713   6.619 -0.8636 -0.0266  0.8249
  334MOL0     H45064   5.725  10.721   6.415  2.5946 -1.9382 -2.4327
  334MOL0     H45065   5.664  10.559   6.361 -0.8135 -4.0580  4.3159
  334MOL0     H45066   5.818  10.603   6.618 -1.7249 -2.6704  1.2357
  334MOL0     H45067   5.772  10.446   6.545 -1.4766  1.1082  5.3791
  334MOL0     H45068   5.973  10.678   6.447  0.4764  0.2834 -2.4359
  334MOL0     H45069   5.936  10.537   6.342  0.3283 -0.2952 -0.0083
  334MOL0     H45070   6.148  10.518   6.470 -1.1858  3.7881  0.9372
  334MOL0     H45071   6.043  10.380   6.500 -0.5779  0.5184  0.9824
  334MOL0     H45072   5.184  10.275   6.827  1.0097  0.3054  1.7023
  334MOL0     H45073   4.990  10.178   6.944 -1.6499  0.6637  3.0835
  334MOL0     H45074   4.537  10.327   7.100  1.0146  0.2077  0.7143
  334MOL0     H45075   4.330  10.218   7.110 -0.8438  1.1891  2.3743
  334MOL0     H45076   3.928   9.864   7.995 -2.5499 -0.1156  2.8635
  334MOL0     H45077   3.695   9.936   8.070  0.1274  0.0285  0.7775
  334MOL0     H45078   3.278   9.892   8.034  0.8477  0.8548  0.6819
  334MOL0     H45079   3.032   9.852   8.046 -1.1461  0.5498  0.5312
  334MOL0     H45080   2.765  10.010   7.772  2.3737  0.8097  0.0896
  334MOL0     H45081   2.648   9.973   7.897 -0.3333  0.6363 -0.4020
  334MOL0     H45082   2.795  10.237   7.873  0.4447 -2.0590 -2.3979
  334MOL0     H45083   2.677  10.201   8.000 -0.3980  1.2643 -1.5642
  334MOL0     H45084   2.515  10.251   7.876  0.3862 -0.2890 -0.0671
  334MOL0     H45085   2.546  10.136   7.748  2.1287 -0.9088 -1.3101
  334MOL0     H45086   2.552  10.325   7.624  1.3430 -0.5182  0.0776
  334MOL0     H45087   2.729  10.296   7.652  1.9483 -0.0960  1.7341
  334MOL0     H45088   2.643  10.641   7.881  1.9468 -0.6719  3.1182
  334MOL0     H45089   2.966  10.163   7.754  2.6612 -0.7107 -0.8472
  334MOL0     H45090   3.191  10.157   7.695 -2.8510 -0.7594 -0.0007
  335MOL0     O45091   3.253   9.898   8.806  0.4861 -0.1855  0.3528
  335MOL0     C45092   3.196  10.003   8.773 -0.1559  0.4211  0.0133
  335MOL0     O45093   3.066  10.011   8.746 -0.3470  0.6692 -0.2993
  335MOL0     C45094   2.974   9.909   8.784  0.7190  0.1285 -0.0121
  335MOL0     C45095   2.878   9.857   8.699  0.3521 -0.0018 -0.3488
  335MOL0     C45096   2.791   9.758   8.743 -0.2544  0.2382  0.1451
  335MOL0     C45097   2.787   9.723   8.882 -0.5470 -0.4317  0.8808
  335MOL0     O45098   2.706   9.628   8.928 -0.0016 -0.4734 -0.1611
  335MOL0     C45099   2.613   9.696   9.002  0.6725 -0.0638  0.6074
  335MOL0     C45100   2.497   9.602   9.039  0.1891  0.1576  0.3416
  335MOL0     C45101   2.546   9.494   9.133 -0.0620  0.8720 -0.3961
  335MOL0     C45102   2.431   9.425   9.221  0.0819 -0.1976  0.9025
  335MOL0     C45103   2.487   9.324   9.333 -0.2010 -0.8498  0.6202
  335MOL0     C45104   2.573   9.221   9.264  0.0168 -0.7725 -0.9534
  335MOL0     C45105   2.651   9.118   9.352 -0.0267  0.1030 -0.5312
  335MOL0     C45106   2.770   9.176   9.432 -0.5233  0.0014 -0.1873
  335MOL0     N45107   2.815   9.057   9.521 -0.5183 -0.5480 -0.5530
  335MOL0     C45108   2.932   8.984   9.488  0.2826 -0.1218 -1.2665
  335MOL0     C45109   2.943   8.890   9.579 -0.1489  0.7199  0.6716
  335MOL0     C45110   3.044   8.783   9.594  0.5261 -1.2852  0.1254
  335MOL0     C45111   3.128   8.786   9.713 -0.8634  0.6630 -0.3700
  335MOL0     C45112   3.064   8.720   9.830 -0.3701  0.5966  0.3972
  335MOL0     C45113   3.110   8.785   9.958  0.3171  0.5992 -0.3850
  335MOL0     O45114   3.067   8.717  10.074  0.0218  0.3094  0.0709
  335MOL0     C45115   3.086   8.795  10.190 -0.6463 -0.0813 -0.6546
  335MOL0     C45116   3.192   8.766  10.277 -0.5953  0.3187  0.1078
  335MOL0     C45117   3.212   8.844  10.395  0.1132  0.0057 -0.7419
  335MOL0     C45118   3.321   8.796  10.480 -0.1987  1.5431  1.2105
  335MOL0     C45119   3.130   8.955  10.427  0.0035  0.6420  0.0059
  335MOL0     C45120   3.155   9.032  10.547  0.1953 -0.3570  0.3710
  335MOL0     O45121   3.270   9.100  10.567  0.0452 -0.2521  0.1249
  335MOL0     C45122   3.332   9.096  10.691 -0.3242 -1.3854  0.3121
  335MOL0     C45123   3.475   9.080  10.684  0.1856 -0.4838  0.2407
  335MOL0     C45124   3.548   9.071  10.805 -0.0809 -0.7849 -0.2558
  335MOL0     C45125   3.479   9.095  10.921  0.1347  1.2418  1.2198
  335MOL0     O45126   3.550   9.101  11.037 -0.3423  0.2085  0.3063
  335MOL0     C45127   3.648   9.208  11.050  0.0000 -0.4234 -1.3049
  335MOL0     C45128   3.721   9.214  11.190  1.7840  0.6244  0.9032
  335MOL0     C45129   3.769   9.070  11.207 -0.0801  0.3333 -1.2973
  335MOL0     C45130   3.829   9.071  11.346  0.3913  0.2067  0.4411
  335MOL0     C45131   3.904   8.940  11.374 -0.8398  0.9726 -0.2295
  335MOL0     C45132   3.793   8.835  11.440 -0.3156 -1.1887 -0.1891
  335MOL0     C45133   3.850   8.697  11.449  0.0997  0.6525  0.5374
  335MOL0     C45134   3.744   8.583  11.431  0.3216  0.4526 -0.3394
  335MOL0    Cl45135   3.817   8.423  11.419 -0.0787  0.3099  0.6586
  335MOL0     C45136   3.346   9.104  10.932  0.9993  0.4747  0.4033
  335MOL0     C45137   3.263   9.108  10.813 -1.0149 -0.6008 -0.0829
  335MOL0     O45138   3.059   9.025  10.625  0.3661 -0.0422  0.1049
  335MOL0     C45139   3.015   8.973  10.351 -0.2768 -0.9446  0.7419
  335MOL0     C45140   2.996   8.889  10.237  0.0897  0.9031  0.2024
  335MOL0     N45141   2.832   8.891   9.658  0.8846 -0.2942 -0.0827
  335MOL0     N45142   2.765   9.001   9.630  0.1194 -0.7635 -0.1660
  335MOL0     C45143   2.883   9.779   8.973 -0.1444 -0.1441  1.1962
  335MOL0     C45144   2.973   9.874   8.918  0.2586 -0.1461 -0.7921
  335MOL0     C45145   3.283  10.113   8.754  0.0699  0.0958 -0.5063
  335MOL0     C45146   3.417  10.092   8.739  0.8108  0.0215  0.4248
  335MOL0     C45147   3.509  10.181   8.681  0.1468 -1.2321  1.1594
  335MOL0     C45148   3.459  10.309   8.630  1.0735 -0.0328 -0.7567
  335MOL0     O45149   3.532  10.412   8.578 -0.2054  0.1689 -0.1300
  335MOL0     C45150   3.674  10.415   8.577  0.6674  1.1965 -0.1947
  335MOL0     C45151   3.716  10.539   8.661  0.1099  0.3006 -0.2810
  335MOL0     C45152   3.719  10.496   8.812  0.1204  0.4394 -0.4152
  335MOL0     C45153   3.579  10.518   8.883 -1.4098 -1.2219 -0.2883
  335MOL0     C45154   3.599  10.492   9.023  0.6144  0.2953 -0.1235
  335MOL0     C45155   3.615  10.481   9.143 -0.0803  0.1223 -1.0254
  335MOL0     C45156   3.330  10.337   8.656 -0.1552 -0.0892 -0.8132
  335MOL0     C45157   3.241  10.245   8.731 -0.0577 -0.8711 -0.1241
  335MOL0     H45158   2.875   9.881   8.593 -1.8635 -1.0134 -0.5663
  335MOL0     H45159   2.721   9.721   8.670  1.1108  1.0903 -1.6926
  335MOL0     H45160   2.661   9.739   9.090  2.7637 -0.3769 -0.3204
  335MOL0     H45161   2.570   9.781   8.948 -0.1968 -1.3382 -0.8247
  335MOL0     H45162   2.405   9.644   9.081  0.5447 -0.1578  1.4707
  335MOL0     H45163   2.462   9.558   8.945  0.1249 -1.5011  1.0950
  335MOL0     H45164   2.595   9.419   9.071 -0.8809 -0.6348  0.7149
  335MOL0     H45165   2.621   9.547   9.192 -1.1129  0.3351  1.5142
  335MOL0     H45166   2.370   9.507   9.258 -0.3612  1.0995 -2.3513
  335MOL0     H45167   2.366   9.376   9.148 -2.3597 -1.5222  3.8009
  335MOL0     H45168   2.532   9.384   9.412  0.9085  1.1874 -1.4392
  335MOL0     H45169   2.409   9.267   9.386 -1.7504  1.0002  0.4393
  335MOL0     H45170   2.513   9.155   9.200  0.3870 -0.4028 -1.6910
  335MOL0     H45171   2.655   9.262   9.205 -0.0147  1.7717  0.6263
  335MOL0     H45172   2.587   9.062   9.421 -0.0068  0.9018  0.1610
  335MOL0     H45173   2.696   9.044   9.286 -1.0137 -0.5015 -0.5422
  335MOL0     H45174   2.741   9.260   9.496  1.4428  0.6800 -0.1387
  335MOL0     H45175   2.844   9.211   9.360  2.2733 -1.7929  1.5996
  335MOL0     H45176   3.000   9.015   9.409 -0.8551 -0.7459 -2.5279
  335MOL0     H45177   2.999   8.684   9.584 -3.4039  0.5061 -2.0289
  335MOL0     H45178   3.106   8.804   9.507 -0.5630 -0.9179 -0.5696
  335MOL0     H45179   3.137   8.890   9.746 -0.8591 -0.3479  3.1917
  335MOL0     H45180   3.224   8.735   9.703  0.3094  2.4265  1.1580
  335MOL0     H45181   3.104   8.618   9.842  0.4829  0.4482 -2.7452
  335MOL0     H45182   2.958   8.705   9.810  0.2732 -2.0340 -1.6974
  335MOL0     H45183   3.071   8.887   9.960  0.5238  0.6701  0.2349
  335MOL0     H45184   3.219   8.783   9.959  0.4365  1.8200  2.8808
  335MOL0     H45185   3.273   8.699  10.249 -0.2156  0.1761  1.4537
  335MOL0     H45186   3.417   8.782  10.430  0.0044 -1.0662  2.1941
  335MOL0     H45187   3.343   8.864  10.563  0.6316 -0.1812  2.4634
  335MOL0     H45188   3.300   8.708  10.541  1.3736 -0.2955 -0.7401
  335MOL0     H45189   3.520   9.063  10.586 -2.1271  1.0956 -1.1841
  335MOL0     H45190   3.655   9.061  10.812 -0.0331  0.6018  4.2821
  335MOL0     H45191   3.731   9.189  10.981  1.0127 -0.4106 -0.1214
  335MOL0     H45192   3.600   9.304  11.026  0.0781 -0.2702 -0.8630
  335MOL0     H45193   3.798   9.291  11.184  0.1615  2.1920 -1.5237
  335MOL0     H45194   3.645   9.243  11.263  0.3039 -1.4355  0.2767
  335MOL0     H45195   3.849   9.031  11.143  2.0385 -1.3210  2.1036
  335MOL0     H45196   3.690   8.996  11.193  1.4657 -1.3526 -1.4195
  335MOL0     H45197   3.893   9.159  11.347 -2.4048  2.3748 -0.3110
  335MOL0     H45198   3.754   9.089  11.424 -2.3203  1.5670 -2.2638
  335MOL0     H45199   3.987   8.971  11.439 -0.3577 -0.3598 -0.1828
  335MOL0     H45200   3.950   8.901  11.283 -1.1606  1.2276 -0.5042
  335MOL0     H45201   3.770   8.857  11.544 -1.8774 -0.6477 -0.6245
  335MOL0     H45202   3.702   8.842  11.379 -0.3639  0.6859  0.0269
  335MOL0     H45203   3.904   8.692  11.543  3.1836  0.2260 -1.1159
  335MOL0     H45204   3.922   8.696  11.366 -0.3064 -0.3173  0.1832
  335MOL0     H45205   3.691   8.603  11.338 -0.7988 -0.8399 -0.0105
  335MOL0     H45206   3.673   8.575  11.513  0.6667 -2.5163 -0.2309
  335MOL0     H45207   3.292   9.116  11.025  2.3028  0.2668  1.2103
  335MOL0     H45208   3.156   9.128  10.823 -1.1131 -0.2166 -1.7048
  335MOL0     H45209   2.948   9.052  10.383  2.2865  1.7322 -0.0515
  335MOL0     H45210   2.905   8.888  10.178 -0.1002 -0.7043  0.4835
  335MOL0     H45211   2.893   9.753   9.078  3.4073  0.9123  1.2807
  335MOL0     H45212   3.043   9.909   8.993  1.6709 -1.7816 -1.2739
  335MOL0     H45213   3.456   9.993   8.760 -1.5264 -1.2418 -0.7941
  335MOL0     H45214   3.613  10.157   8.664  0.8085  1.7473  0.4986
  335MOL0     H45215   3.706  10.318   8.616 -0.9179 -0.2949 -2.3664
  335MOL0     H45216   3.718  10.424   8.477 -0.0051  1.2212 -0.4914
  335MOL0     H45217   3.640  10.617   8.652  0.7262  1.0489  0.7522
  335MOL0     H45218   3.816  10.566   8.627 -0.5950  2.0624 -1.0814
  335MOL0     H45219   3.799  10.551   8.862 -0.9072 -0.1256  2.0043
  335MOL0     H45220   3.749  10.391   8.819 -1.8804 -0.2066 -0.9149
  335MOL0     H45221   3.493  10.463   8.845 -1.5436 -1.9023  0.9622
  335MOL0     H45222   3.567  10.626   8.874  3.4495 -0.4335 -0.1641
  335MOL0     H45223   3.614  10.466   9.249  1.0401  0.3664 -0.9591
  335MOL0     H45224   3.287  10.435   8.637 -1.6793 -0.2323  1.4862
  335MOL0     H45225   3.139  10.271   8.756  0.7272 -0.0398  2.5665
  336MOL0     O45226   6.989  11.202   2.534  1.0627 -0.3638  0.0567
  336MOL0     C45227   7.062  11.124   2.477 -0.3178 -0.2147 -0.5857
  336MOL0     O45228   7.026  11.055   2.371  0.0200 -0.0099 -0.5042
  336MOL0     C45229   6.891  11.070   2.337 -0.1468  0.8869 -0.0698
  336MOL0     C45230   6.795  11.011   2.410  0.0542  0.0656  0.3779
  336MOL0     C45231   6.668  11.020   2.375 -0.2227 -0.1250  0.2299
  336MOL0     C45232   6.618  11.100   2.269 -0.2365  0.2648  0.1278
  336MOL0     O45233   6.487  11.132   2.232 -0.3304 -0.2539 -0.8880
  336MOL0     C45234   6.381  11.054   2.290 -0.5632  1.0376  0.4956
  336MOL0     C45235   6.299  10.986   2.182 -0.6183 -0.3783  0.4849
  336MOL0     C45236   6.224  11.086   2.082  0.6532  1.5020 -0.3050
  336MOL0     C45237   6.142  11.024   1.967  0.6565  0.0822  0.7381
  336MOL0     C45238   6.125  11.123   1.849  0.5181  0.2241  0.7238
  336MOL0     C45239   6.098  11.264   1.898 -0.4241  0.4141 -0.0197
  336MOL0     C45240   5.950  11.286   1.940 -0.6727 -0.1001  0.8816
  336MOL0     C45241   5.846  11.275   1.823 -0.8109  0.1345 -0.5051
  336MOL0     N45242   5.868  11.374   1.720 -0.2019  0.1659  0.4645
  336MOL0     C45243   5.868  11.332   1.591 -0.3839 -0.4246  0.7344
  336MOL0     C45244   5.850  11.449   1.525 -0.3643  0.0018  0.6223
  336MOL0     C45245   5.852  11.455   1.376  0.0773 -0.9768  0.5346
  336MOL0     C45246   5.981  11.399   1.308 -1.1869 -0.3232  0.7678
  336MOL0     C45247   6.117  11.469   1.340  0.5517  0.2478  0.1765
  336MOL0     C45248   6.178  11.414   1.465 -0.0640 -0.0326 -0.2980
  336MOL0     O45249   6.285  11.513   1.487 -0.0103  0.4257 -0.6733
  336MOL0     C45250   6.362  11.518   1.594 -0.3662 -1.2835 -0.1077
  336MOL0     C45251   6.372  11.418   1.688  0.2363 -0.9372  0.6716
  336MOL0     C45252   6.462  11.417   1.797  0.7359  0.7231  0.5629
  336MOL0     C45253   6.478  11.286   1.869  0.2162 -0.3947  0.9825
  336MOL0     C45254   6.528  11.541   1.815 -0.5370  0.4842 -0.5414
  336MOL0     C45255   6.623  11.561   1.936  0.2626  0.1982 -1.2611
  336MOL0     O45256   6.669  11.682   1.950 -0.9518 -0.3754  0.0559
  336MOL0     C45257   6.778  11.722   2.030 -0.2715 -0.2537  0.4185
  336MOL0     C45258   6.801  11.680   2.162 -0.2802  0.5951 -0.7246
  336MOL0     C45259   6.900  11.743   2.243 -0.3574  0.5359  0.7752
  336MOL0     C45260   6.998  11.823   2.178  0.7845  1.1358  0.6111
  336MOL0     O45261   7.123  11.858   2.233  1.1125 -0.1033  0.5739
  336MOL0     C45262   7.111  11.937   2.353 -0.1207  1.3395 -0.0029
  336MOL0     C45263   7.226  11.893   2.441  0.3836 -0.1139  0.4621
  336MOL0     C45264   7.365  11.951   2.412 -1.1452  0.8446 -0.6395
  336MOL0     C45265   7.365  12.092   2.342  0.2048  0.1467  0.6400
  336MOL0     C45266   7.484  12.182   2.385  0.0926  0.2161 -0.4997
  336MOL0     C45267   7.485  12.305   2.297  1.7602 -0.7485  1.2717
  336MOL0     C45268   7.562  12.412   2.355  0.4331 -0.6851 -0.1215
  336MOL0     C45269   7.711  12.392   2.338  1.1122  0.3674 -0.6869
  336MOL0    Cl45270   7.774  12.262   2.437 -0.5624 -0.1745 -0.0230
  336MOL0     C45271   6.984  11.851   2.042 -0.1020 -0.5227  0.4771
  336MOL0     C45272   6.866  11.819   1.975 -0.6724 -0.2418  0.0268
  336MOL0     O45273   6.654  11.469   2.008 -0.2402 -0.2310  0.1376
  336MOL0     C45274   6.505  11.651   1.730  0.1153 -0.8652 -0.3364
  336MOL0     C45275   6.427  11.638   1.615 -0.9258  0.0096  0.3616
  336MOL0     N45276   5.828  11.550   1.613  0.4379 -0.1406 -0.0269
  336MOL0     N45277   5.842  11.505   1.728  1.2923 -0.1012 -0.9662
  336MOL0     C45278   6.722  11.158   2.193  0.4214 -0.6579 -0.1786
  336MOL0     C45279   6.855  11.144   2.221 -0.7533 -0.5830 -0.4184
  336MOL0     C45280   7.181  11.079   2.545 -0.7212  0.5042 -0.0963
  336MOL0     C45281   7.202  11.115   2.682  0.2147  0.6516 -0.1513
  336MOL0     C45282   7.312  11.053   2.754  1.0319 -0.5686  1.1555
  336MOL0     C45283   7.393  10.953   2.688 -0.4667  0.0108 -0.7378
  336MOL0     O45284   7.491  10.895   2.766  0.5443  1.1380  0.0632
  336MOL0     C45285   7.541  10.770   2.710 -0.2318 -0.3413 -0.4341
  336MOL0     C45286   7.680  10.783   2.645 -0.4610  0.3547 -1.0189
  336MOL0     C45287   7.768  10.875   2.725 -0.2059  0.2769 -0.0978
  336MOL0     C45288   7.910  10.884   2.675  0.6981 -0.2261 -0.1298
  336MOL0     C45289   7.944  10.942   2.545  0.4925  0.4479 -1.0645
  336MOL0     C45290   7.969  10.981   2.438 -0.8866 -1.0160  0.3118
  336MOL0     C45291   7.366  10.926   2.553 -0.3912 -0.3341 -0.1323
  336MOL0     C45292   7.262  10.989   2.485  0.2429  0.7152  0.5967
  336MOL0     H45293   6.828  10.949   2.492  0.1906  1.2986  1.2851
  336MOL0     H45294   6.596  10.987   2.449  2.2785  0.0851  2.9063
  336MOL0     H45295   6.411  10.983   2.367  0.5795  2.1677  1.1346
  336MOL0     H45296   6.319  11.119   2.353 -1.3094 -0.7199  1.6540
  336MOL0     H45297   6.366  10.931   2.115 -1.7044  0.4624 -1.3786
  336MOL0     H45298   6.224  10.921   2.228 -1.7718 -2.4626 -3.7363
  336MOL0     H45299   6.152  11.133   2.149  0.5907  1.6838 -0.4992
  336MOL0     H45300   6.301  11.155   2.046  2.0009 -0.6450 -1.7728
  336MOL0     H45301   6.193  10.939   1.920  1.4457  1.3751 -0.8319
  336MOL0     H45302   6.040  11.017   2.005 -0.1907  4.6175 -0.1317
  336MOL0     H45303   6.211  11.120   1.781 -0.2188 -2.1071 -0.1981
  336MOL0     H45304   6.041  11.097   1.785 -0.3714  0.9002  1.5886
  336MOL0     H45305   6.163  11.292   1.982 -0.6702 -0.5149  0.4931
  336MOL0     H45306   6.140  11.328   1.821  1.4179  0.0726  0.6489
  336MOL0     H45307   5.926  11.204   2.009  2.1121 -0.7318  1.2220
  336MOL0     H45308   5.934  11.376   1.999  1.3362  1.3583 -0.6655
  336MOL0     H45309   5.746  11.279   1.867  0.0997 -1.0754  1.8922
  336MOL0     H45310   5.863  11.176   1.781  2.1555 -0.6764  2.1758
  336MOL0     H45311   5.896  11.238   1.544 -2.8898 -0.4041 -1.0481
  336MOL0     H45312   5.764  11.409   1.330  1.5933 -2.4773 -1.0208
  336MOL0     H45313   5.860  11.560   1.348  0.7763 -0.9282  0.9011
  336MOL0     H45314   5.970  11.417   1.201  1.5859  1.5030  0.6920
  336MOL0     H45315   6.003  11.293   1.324 -3.3774 -1.2825 -1.8891
  336MOL0     H45316   6.112  11.579   1.339 -1.8845  0.2124 -1.4448
  336MOL0     H45317   6.184  11.430   1.263 -1.8375 -2.2814 -0.7656
  336MOL0     H45318   6.221  11.316   1.442  1.3691  0.9597 -2.2309
  336MOL0     H45319   6.112  11.411   1.551  0.3188 -1.2480 -0.0230
  336MOL0     H45320   6.296  11.340   1.686 -0.8603  0.0388  2.0490
  336MOL0     H45321   6.395  11.219   1.846  0.7651 -1.8971  3.1313
  336MOL0     H45322   6.575  11.244   1.840  0.5185  3.7822 -6.8320
  336MOL0     H45323   6.462  11.312   1.974 -2.5333  4.3060 -0.2949
  336MOL0     H45324   6.723  11.611   2.192  1.8725 -1.4020  0.6578
  336MOL0     H45325   6.924  11.712   2.344  0.6090  1.1097  0.7346
  336MOL0     H45326   7.121  12.039   2.316  2.0120  0.6190 -1.5886
  336MOL0     H45327   7.012  11.925   2.399 -1.4435  0.0362 -2.8991
  336MOL0     H45328   7.194  11.917   2.543 -0.2418  0.9640  0.0379
  336MOL0     H45329   7.221  11.784   2.443 -0.7530 -0.0630  1.5349
  336MOL0     H45330   7.416  11.883   2.343  0.7004  0.7563  0.7272
  336MOL0     H45331   7.421  11.950   2.506  1.5012 -1.4592 -2.0851
  336MOL0     H45332   7.360  12.087   2.232  0.1408  1.2588  0.5768
  336MOL0     H45333   7.285  12.155   2.381 -1.7617 -1.1359 -1.1081
  336MOL0     H45334   7.573  12.120   2.381 -0.6393 -0.8634 -0.5430
  336MOL0     H45335   7.468  12.218   2.488  3.8857 -2.4209  1.2546
  336MOL0     H45336   7.517  12.286   2.194 -1.0418  1.4183 -0.1452
  336MOL0     H45337   7.379  12.332   2.296  0.4310 -5.0246  3.1892
  336MOL0     H45338   7.536  12.429   2.460  1.8043  0.5746  0.0474
  336MOL0     H45339   7.535  12.502   2.300 -0.4334 -0.6456  0.3496
  336MOL0     H45340   7.757  12.489   2.358  1.2189 -0.1292  1.8674
  336MOL0     H45341   7.726  12.371   2.232 -1.8361 -3.6239 -0.5720
  336MOL0     H45342   7.057  11.918   1.996 -3.1881  0.2435 -3.9790
  336MOL0     H45343   6.862  11.847   1.870 -3.5610  2.6689  0.7440
  336MOL0     H45344   6.575  11.733   1.744 -1.1207  0.3891 -1.2088
  336MOL0     H45345   6.426  11.720   1.544  1.4514 -0.9271 -0.8478
  336MOL0     H45346   6.687  11.214   2.108 -0.4011  2.1330  1.8577
  336MOL0     H45347   6.929  11.188   2.155  0.6988 -0.5351  1.1814
  336MOL0     H45348   7.131  11.170   2.743  1.3039 -0.8558  2.6658
  336MOL0     H45349   7.339  11.061   2.858  2.0654 -0.2145  0.8655
  336MOL0     H45350   7.555  10.716   2.804  0.2105  1.8982  0.8671
  336MOL0     H45351   7.472  10.714   2.647  0.1868  1.6137 -2.7975
  336MOL0     H45352   7.673  10.819   2.542 -0.2546 -1.2794 -1.6477
  336MOL0     H45353   7.728  10.685   2.657  3.1271  1.9282 -1.1089
  336MOL0     H45354   7.771  10.838   2.828  0.9850 -1.2826 -0.6415
  336MOL0     H45355   7.726  10.976   2.719 -0.4665  0.1039 -1.5343
  336MOL0     H45356   7.945  10.781   2.689 -0.0979 -0.4344  0.3695
  336MOL0     H45357   7.962  10.940   2.754  0.2052 -1.5427  1.1851
  336MOL0     H45358   7.987  11.032   2.345 -0.6285  3.4559  2.5491
  336MOL0     H45359   7.417  10.868   2.476 -0.7272  0.4584 -0.9832
  336MOL0     H45360   7.253  10.967   2.379 -0.6029  0.0349  0.7996
  337MOL0     O45361   2.548   6.227   9.706 -0.0230 -0.4549 -1.0909
  337MOL0     C45362   2.526   6.264   9.589  0.4784 -0.4358 -0.6383
  337MOL0     O45363   2.528   6.393   9.540  0.1783  0.7481 -0.3039
  337MOL0     C45364   2.554   6.496   9.627 -0.9671 -0.0937 -0.2078
  337MOL0     C45365   2.644   6.495   9.735 -0.2603 -0.5343 -0.6663
  337MOL0     C45366   2.674   6.618   9.805 -0.1882 -0.2758  0.3114
  337MOL0     C45367   2.622   6.743   9.761  0.2225  0.8779  0.1625
  337MOL0     O45368   2.649   6.859   9.830  0.1080  1.1208  0.5004
  337MOL0     C45369   2.537   6.886   9.916  0.4799 -0.0612 -0.0863
  337MOL0     C45370   2.556   7.026   9.987  0.3737  0.4535 -0.7602
  337MOL0     C45371   2.433   7.075  10.063 -0.8426  0.2226 -0.3009
  337MOL0     C45372   2.434   7.229  10.089  0.1049  0.2353 -0.6481
  337MOL0     C45373   2.396   7.308   9.958 -0.2237  0.2853 -0.7427
  337MOL0     C45374   2.470   7.448   9.965 -0.6244  0.5408 -0.0025
  337MOL0     C45375   2.413   7.523   9.849  0.9617  0.1375 -0.6057
  337MOL0     C45376   2.439   7.670   9.872  0.6467  0.2703 -0.1136
  337MOL0     N45377   2.424   7.745   9.742  0.3655  0.3993 -0.5144
  337MOL0     C45378   2.518   7.811   9.670 -0.6397 -0.0149  0.3906
  337MOL0     C45379   2.454   7.860   9.562  0.3691  0.1656  0.4624
  337MOL0     C45380   2.529   7.912   9.447  0.2677 -0.0197  0.4566
  337MOL0     C45381   2.564   7.806   9.339 -1.0030  0.1151 -1.4603
  337MOL0     C45382   2.457   7.739   9.258 -0.2224  0.1869 -0.8934
  337MOL0     C45383   2.405   7.832   9.147 -0.7588  0.1755 -0.0502
  337MOL0     O45384   2.518   7.871   9.064  0.3752 -0.1203 -0.2799
  337MOL0     C45385   2.546   7.809   8.950  0.1262 -0.7354  0.8291
  337MOL0     C45386   2.490   7.685   8.918  0.8152  0.7620  0.4088
  337MOL0     C45387   2.539   7.611   8.813  0.5363 -0.3131 -0.2113
  337MOL0     C45388   2.467   7.483   8.772  0.8211 -0.6421 -0.7490
  337MOL0     C45389   2.647   7.660   8.739 -0.3739  0.1731  0.7088
  337MOL0     C45390   2.704   7.591   8.609 -0.0021 -0.2909 -0.1295
  337MOL0     O45391   2.696   7.455   8.596 -0.6125  0.4909 -0.7245
  337MOL0     C45392   2.766   7.413   8.492  0.1291 -0.1595 -0.9167
  337MOL0     C45393   2.698   7.365   8.378  0.5462  0.2839 -0.7969
  337MOL0     C45394   2.768   7.308   8.281 -0.5569  0.1292  0.8854
  337MOL0     C45395   2.909   7.306   8.288  0.1636 -0.4328  0.3187
  337MOL0     O45396   3.006   7.262   8.206  0.7811 -0.0183 -0.0443
  337MOL0     C45397   2.968   7.171   8.100  0.7708  0.5289  1.2966
  337MOL0     C45398   2.953   7.035   8.170 -0.6329 -0.3480 -0.1165
  337MOL0     C45399   2.945   6.930   8.074 -1.0152 -0.0162 -0.7366
  337MOL0     C45400   2.819   6.927   7.980  0.1212  0.1251 -0.2264
  337MOL0     C45401   2.695   6.893   8.068 -0.2676 -0.9774  0.5314
  337MOL0     C45402   2.572   6.879   7.982 -0.2640  0.6266  0.1053
  337MOL0     C45403   2.542   7.002   7.894 -0.7015 -0.4819 -0.7574
  337MOL0     C45404   2.390   7.007   7.865  1.0186  0.1352  0.4902
  337MOL0    Cl45405   2.292   7.059   8.009 -0.4460 -0.0976  0.2069
  337MOL0     C45406   2.975   7.363   8.400 -1.1005  0.1772  0.4891
  337MOL0     C45407   2.902   7.406   8.512  0.8387 -0.2686  0.6474
  337MOL0     O45408   2.759   7.667   8.529 -0.0253 -0.1665  0.4727
  337MOL0     C45409   2.711   7.781   8.769 -1.0242 -0.7348 -0.0495
  337MOL0     C45410   2.655   7.851   8.879 -0.2478 -0.2382  0.1848
  337MOL0     N45411   2.317   7.831   9.582 -0.0990  1.1168 -0.0245
  337MOL0     N45412   2.303   7.763   9.684 -0.0467  0.3068 -0.6246
  337MOL0     C45413   2.535   6.741   9.645 -0.6784 -0.6400 -0.4386
  337MOL0     C45414   2.497   6.621   9.592  0.0120 -0.2449  0.0674
  337MOL0     C45415   2.502   6.163   9.489  0.4521  0.9944  0.6626
  337MOL0     C45416   2.421   6.185   9.377 -0.7224 -0.2373  0.3459
  337MOL0     C45417   2.391   6.078   9.297  0.8225  0.1538 -0.0997
  337MOL0     C45418   2.449   5.950   9.318 -0.3715  0.8537  0.3290
  337MOL0     O45419   2.412   5.855   9.225 -0.2369  0.0397  0.2817
  337MOL0     C45420   2.419   5.716   9.255  0.2529  0.0503  0.5308
  337MOL0     C45421   2.331   5.645   9.143 -0.2549 -0.1338 -0.7235
  337MOL0     C45422   2.408   5.640   9.014  0.0198  0.4028 -0.2832
  337MOL0     C45423   2.335   5.566   8.899 -0.3267 -0.4785 -0.3064
  337MOL0     C45424   2.227   5.658   8.856  0.2292 -0.3520 -0.6673
  337MOL0     C45425   2.128   5.732   8.849 -0.2026 -0.7165 -0.0864
  337MOL0     C45426   2.525   5.924   9.425  0.1433  0.1215 -1.7581
  337MOL0     C45427   2.553   6.032   9.510  0.7621 -0.0898 -0.4294
  337MOL0     H45428   2.699   6.408   9.768  0.4618 -0.3097 -1.2394
  337MOL0     H45429   2.740   6.613   9.890 -0.0998  1.9475  0.4450
  337MOL0     H45430   2.447   6.880   9.854  0.6143 -0.8243 -0.2135
  337MOL0     H45431   2.524   6.804   9.987  1.1920  1.2602  1.6350
  337MOL0     H45432   2.648   7.021  10.045 -0.4308 -0.1228  0.5063
  337MOL0     H45433   2.582   7.101   9.912  1.2557  2.2380  1.2408
  337MOL0     H45434   2.346   7.031  10.014 -1.1616  2.0032 -1.4356
  337MOL0     H45435   2.434   7.039  10.166 -2.4220 -0.1028 -0.3712
  337MOL0     H45436   2.383   7.253  10.183  0.1372 -3.4254  0.4417
  337MOL0     H45437   2.538   7.247  10.120 -0.0573  2.2234 -1.0689
  337MOL0     H45438   2.420   7.259   9.864 -3.3422  0.0704 -1.5216
  337MOL0     H45439   2.287   7.303   9.947 -0.2680  0.1375 -0.2528
  337MOL0     H45440   2.441   7.483  10.064  1.5144 -0.3511  0.9890
  337MOL0     H45441   2.577   7.436   9.946 -0.9607  0.6093 -2.1942
  337MOL0     H45442   2.466   7.487   9.760 -0.1018 -3.8741  0.1737
  337MOL0     H45443   2.307   7.509   9.825  1.4071 -0.5945 -2.2808
  337MOL0     H45444   2.540   7.691   9.908  1.5471  0.7810 -2.6659
  337MOL0     H45445   2.362   7.719   9.933  1.5297  1.0121  0.4359
  337MOL0     H45446   2.624   7.812   9.696 -0.5814 -0.9786  0.2014
  337MOL0     H45447   2.473   7.999   9.413  0.3528 -1.0496 -2.6489
  337MOL0     H45448   2.622   7.954   9.487  1.3230 -2.7806  1.1253
  337MOL0     H45449   2.617   7.723   9.387 -1.0693  0.5172 -0.6770
  337MOL0     H45450   2.638   7.850   9.271  0.4161 -0.2067 -0.1979
  337MOL0     H45451   2.373   7.724   9.326 -0.2466 -0.8943 -1.1425
  337MOL0     H45452   2.498   7.642   9.228  0.0795  0.5287 -1.6072
  337MOL0     H45453   2.349   7.911   9.198 -2.0874 -1.7258  1.6250
  337MOL0     H45454   2.323   7.781   9.097 -2.2626  0.0041  2.4196
  337MOL0     H45455   2.416   7.629   8.974 -0.1133 -0.0607 -1.5447
  337MOL0     H45456   2.388   7.450   8.840  2.4167  1.7456  2.5803
  337MOL0     H45457   2.427   7.497   8.672 -1.1921  1.6153  0.2653
  337MOL0     H45458   2.534   7.396   8.772  2.0292  0.2419 -1.4081
  337MOL0     H45459   2.594   7.388   8.357  1.0844  0.4959 -3.4767
  337MOL0     H45460   2.734   7.262   8.188  1.0703  2.4482 -0.9827
  337MOL0     H45461   2.871   7.197   8.057  0.8994 -1.0551 -0.0530
  337MOL0     H45462   3.036   7.170   8.015 -3.2006  3.1931 -2.3360
  337MOL0     H45463   3.040   7.016   8.234 -2.2505 -2.1640  1.7002
  337MOL0     H45464   2.862   7.032   8.230 -1.4092  0.3520 -1.2148
  337MOL0     H45465   2.967   6.837   8.125  0.5661  0.5869 -0.2767
  337MOL0     H45466   3.032   6.950   8.012  0.2878  0.0851  1.0438
  337MOL0     H45467   2.815   7.018   7.921  2.8852 -1.8241 -3.7777
  337MOL0     H45468   2.836   6.846   7.908  2.1774 -0.9114  1.3031
  337MOL0     H45469   2.680   6.965   8.149  3.3143 -1.0288  1.4279
  337MOL0     H45470   2.706   6.791   8.106  1.0139 -0.0417  2.9268
  337MOL0     H45471   2.584   6.794   7.915  0.9215  0.1724  0.8526
  337MOL0     H45472   2.498   6.875   8.063  0.5601  0.3652  0.8655
  337MOL0     H45473   2.607   7.004   7.805  0.0858  0.5700 -0.1811
  337MOL0     H45474   2.566   7.090   7.954 -1.3549 -2.2113  2.2168
  337MOL0     H45475   2.358   6.909   7.830  1.1009 -0.2377  1.4312
  337MOL0     H45476   2.353   7.075   7.788  0.0699 -2.5470 -1.6011
  337MOL0     H45477   3.081   7.340   8.411 -1.0653  0.4639  0.7786
  337MOL0     H45478   2.953   7.432   8.605  0.7362  0.1988  0.5756
  337MOL0     H45479   2.794   7.822   8.712 -1.4575 -0.7544 -0.7081
  337MOL0     H45480   2.715   7.932   8.918 -2.3164  0.3752  2.2754
  337MOL0     H45481   2.494   6.841   9.632  1.8415  0.5352 -0.0106
  337MOL0     H45482   2.416   6.630   9.521 -2.4202  0.8497  2.7532
  337MOL0     H45483   2.379   6.284   9.357  0.3492 -0.1372 -1.6753
  337MOL0     H45484   2.327   6.091   9.211  1.3817 -1.0036 -0.7236
  337MOL0     H45485   2.518   5.669   9.258  0.3511  0.0134 -1.7475
  337MOL0     H45486   2.361   5.718   9.347 -0.8737 -2.4105 -0.0451
  337MOL0     H45487   2.232   5.690   9.128 -1.1821 -0.7021  2.7976
  337MOL0     H45488   2.316   5.541   9.172 -0.7531 -0.1853 -1.1507
  337MOL0     H45489   2.500   5.582   9.024  0.5484  1.4217  1.0274
  337MOL0     H45490   2.430   5.740   8.977  1.4248 -0.4574 -1.9720
  337MOL0     H45491   2.295   5.470   8.931  0.5473 -0.8789 -0.3949
  337MOL0     H45492   2.403   5.552   8.815 -0.2816 -0.3769 -0.2875
  337MOL0     H45493   2.055   5.810   8.851  0.4118 -0.1315 -0.1861
  337MOL0     H45494   2.565   5.824   9.439  1.2170  0.5184 -1.9154
  337MOL0     H45495   2.617   6.004   9.593 -0.9588 -2.2852  0.2307
  338MOL0     O45496   0.283  10.782   2.483 -0.3145  1.0346 -0.4210
  338MOL0     C45497   0.381  10.728   2.422  0.9581  0.3033 -0.6551
  338MOL0     O45498   0.407  10.740   2.293  0.1362  0.7774  0.4612
  338MOL0     C45499   0.327  10.816   2.211  0.6047  0.4923  0.0234
  338MOL0     C45500   0.385  10.893   2.108  0.0402 -0.8066 -0.2852
  338MOL0     C45501   0.303  10.959   2.015  0.0045  0.4431  0.1266
  338MOL0     C45502   0.161  10.940   2.019 -0.2482  0.9459 -0.5739
  338MOL0     O45503   0.095  10.979   1.902  0.3739  0.4471 -0.5849
  338MOL0     C45504  -0.021  11.061   1.924  0.0465 -0.3130 -0.8323
  338MOL0     C45505   0.025  11.201   1.958 -1.1237  0.4586 -0.5884
  338MOL0     C45506   0.123  11.259   1.854  0.5740  0.6073  0.2018
  338MOL0     C45507   0.198  11.384   1.906 -0.2158 -0.4797  0.3703
  338MOL0     C45508   0.292  11.440   1.799 -0.1787  0.3543 -0.4147
  338MOL0     C45509   0.338  11.567   1.856 -0.0952 -0.5420 -0.5395
  338MOL0     C45510   0.465  11.615   1.785 -0.3338 -0.0305 -0.2961
  338MOL0     C45511   0.436  11.645   1.634 -0.3482  0.1682  0.4160
  338MOL0     N45512   0.534  11.721   1.549  0.5006 -0.0743 -1.4617
  338MOL0     C45513   0.537  11.857   1.516  0.0687 -0.5964  0.1487
  338MOL0     C45514   0.638  11.862   1.423  0.0259 -0.1229 -0.4989
  338MOL0     C45515   0.695  11.988   1.363  1.1241 -0.9269  1.4218
  338MOL0     C45516   0.575  12.073   1.298 -0.8208 -0.6784 -0.1632
  338MOL0     C45517   0.582  12.220   1.314 -0.5519 -0.0906  0.1943
  338MOL0     C45518   0.698  12.292   1.244  0.0582  0.2309 -0.3560
  338MOL0     O45519   0.804  12.307   1.340 -0.8140 -0.5036  0.2302
  338MOL0     C45520   0.922  12.367   1.287  0.4144  0.0601  0.2052
  338MOL0     C45521   0.967  12.367   1.162 -1.4003  0.5204  0.8650
  338MOL0     C45522   1.093  12.411   1.117  0.2009  0.7456 -0.3481
  338MOL0     C45523   1.128  12.401   0.967 -1.5602 -0.1028  0.5507
  338MOL0     C45524   1.190  12.450   1.218  0.3810 -0.3142  0.2423
  338MOL0     C45525   1.335  12.491   1.183  0.2808  1.4261  0.2780
  338MOL0     O45526   1.389  12.582   1.265 -0.2969  0.9830 -0.5344
  338MOL0     C45527   1.522  12.612   1.237 -0.5349  0.1920 -0.4356
  338MOL0     C45528   1.561  12.743   1.230  0.3668 -0.4644 -0.6167
  338MOL0     C45529   1.688  12.790   1.191  0.3967 -0.1821 -0.0568
  338MOL0     C45530   1.785  12.690   1.175  0.6764  0.5004 -0.0005
  338MOL0     O45531   1.917  12.724   1.154  0.3522  0.4503  1.1232
  338MOL0     C45532   1.962  12.858   1.183 -0.0578 -0.2396 -0.4523
  338MOL0     C45533   1.946  12.968   1.081  0.9547 -0.3690  0.5951
  338MOL0     C45534   1.924  12.922   0.930 -0.6386 -0.1467  0.1073
  338MOL0     C45535   2.069  12.912   0.854  0.3882 -0.3684  0.0987
  338MOL0     C45536   2.143  12.785   0.886 -0.1520 -0.1628  0.5081
  338MOL0     C45537   2.303  12.797   0.876  0.6588  0.4228  0.6360
  338MOL0     C45538   2.367  12.866   0.999 -0.7247 -0.5302 -0.4244
  338MOL0     C45539   2.384  13.020   1.015 -0.5494  0.6656 -0.4294
  338MOL0    Cl45540   2.522  13.053   1.120  0.0490 -0.0452 -0.4845
  338MOL0     C45541   1.755  12.553   1.207  0.0845 -0.2069  0.5392
  338MOL0     C45542   1.629  12.512   1.236 -1.0700 -0.8611  0.3895
  338MOL0     O45543   1.393  12.428   1.093  0.1585 -0.1861 -0.4881
  338MOL0     C45544   1.144  12.457   1.352 -0.6977  0.3961 -0.4516
  338MOL0     C45545   1.012  12.412   1.384  0.1123 -0.1693 -0.3734
  338MOL0     N45546   0.698  11.746   1.408 -0.0694 -0.1639  0.3705
  338MOL0     N45547   0.628  11.658   1.471  0.1771  0.8968 -0.1400
  338MOL0     C45548   0.102  10.870   2.125  0.4870 -0.0866  0.6488
  338MOL0     C45549   0.183  10.813   2.223  0.4171  0.9637  0.7050
  338MOL0     C45550   0.459  10.631   2.507 -0.8318  0.6608  0.8187
  338MOL0     C45551   0.567  10.565   2.442  0.4834  0.0922 -0.3193
  338MOL0     C45552   0.627  10.461   2.515 -0.4676  1.0177  0.3995
  338MOL0     C45553   0.607  10.446   2.658  0.5772 -0.4479  0.4382
  338MOL0     O45554   0.700  10.358   2.713 -0.1332 -0.4970 -0.8452
  338MOL0     C45555   0.694  10.337   2.857 -0.0946 -0.4538  0.0483
  338MOL0     C45556   0.793  10.233   2.897 -0.9691  0.3152 -0.1277
  338MOL0     C45557   0.938  10.276   2.870 -0.9089 -0.3054  0.2376
  338MOL0     C45558   1.039  10.169   2.876 -0.9172  0.0277 -0.9457
  338MOL0     C45559   1.031  10.088   3.004 -0.2058  0.0438  0.3169
  338MOL0     C45560   1.021  10.031   3.107  0.2985 -0.1673 -0.1083
  338MOL0     C45561   0.496  10.513   2.716  0.1531  0.2969 -0.2342
  338MOL0     C45562   0.430  10.612   2.649 -0.1142  0.1716  0.7929
  338MOL0     H45563   0.493  10.902   2.101  0.0880 -0.3252  0.8387
  338MOL0     H45564   0.353  11.018   1.939 -0.0857  2.7192  1.7114
  338MOL0     H45565  -0.073  11.071   1.828 -0.2918 -1.4368 -0.7872
  338MOL0     H45566  -0.089  11.018   1.999  0.3645 -0.0394 -0.3849
  338MOL0     H45567  -0.065  11.262   1.955 -1.7194 -0.2674  1.0836
  338MOL0     H45568   0.051  11.215   2.064 -4.3220 -1.8472  0.6606
  338MOL0     H45569   0.200  11.190   1.819 -1.8504 -0.7454 -3.0041
  338MOL0     H45570   0.066  11.280   1.763  2.4612  0.0191 -1.1949
  338MOL0     H45571   0.118  11.450   1.938 -0.6067 -1.3257  1.1818
  338MOL0     H45572   0.254  11.348   1.992  0.8531 -2.5028 -1.0734
  338MOL0     H45573   0.371  11.368   1.775  0.0863  0.2418  0.7411
  338MOL0     H45574   0.235  11.442   1.706  1.3542 -3.3305 -1.6185
  338MOL0     H45575   0.262  11.646   1.860  0.3697  0.0308 -2.1516
  338MOL0     H45576   0.368  11.551   1.960  1.0760 -1.2677 -0.9669
  338MOL0     H45577   0.493  11.704   1.843 -2.6852  0.1285  0.7180
  338MOL0     H45578   0.542  11.538   1.783  1.9428  2.1024 -2.0367
  338MOL0     H45579   0.337  11.693   1.635 -1.5458 -2.1491  2.1536
  338MOL0     H45580   0.417  11.546   1.593  0.3078 -0.4774  1.6454
  338MOL0     H45581   0.468  11.934   1.549  1.6239  1.8511 -1.8493
  338MOL0     H45582   0.743  12.050   1.439  3.0318 -0.3758 -0.1509
  338MOL0     H45583   0.765  11.968   1.281 -2.6325 -0.0378 -2.3101
  338MOL0     H45584   0.477  12.041   1.336 -0.8579  1.7125  2.0843
  338MOL0     H45585   0.569  12.066   1.189 -1.8646 -1.9931 -0.0486
  338MOL0     H45586   0.566  12.239   1.421 -2.1308  2.4340 -0.4153
  338MOL0     H45587   0.491  12.257   1.265  0.4035  0.8540 -0.9011
  338MOL0     H45588   0.666  12.393   1.218  0.3707 -0.2363 -2.8036
  338MOL0     H45589   0.720  12.234   1.154 -1.0689 -0.8094  0.0131
  338MOL0     H45590   0.905  12.320   1.087  0.1879 -3.6409  1.8363
  338MOL0     H45591   1.185  12.489   0.937  2.5395 -3.0641 -1.2886
  338MOL0     H45592   1.202  12.321   0.953 -2.0892 -0.3136 -1.3010
  338MOL0     H45593   1.040  12.388   0.904 -1.4866  0.5924  0.2996
  338MOL0     H45594   1.503  12.826   1.268  2.9980  0.3820  1.8984
  338MOL0     H45595   1.702  12.895   1.167  1.9661 -0.5342 -0.7938
  338MOL0     H45596   1.927  12.893   1.280 -3.0751 -0.2638 -1.4198
  338MOL0     H45597   2.071  12.858   1.194 -0.0365  2.5387  0.0026
  338MOL0     H45598   1.851  13.018   1.099 -1.3332 -2.5041 -3.8556
  338MOL0     H45599   2.025  13.044   1.088 -0.4065  1.2823 -0.9321
  338MOL0     H45600   1.863  12.993   0.872  2.3933  2.8368  0.2381
  338MOL0     H45601   1.857  12.836   0.927 -3.8224  2.1321 -0.3659
  338MOL0     H45602   2.060  12.907   0.745 -0.9288  1.4021  0.0894
  338MOL0     H45603   2.134  12.995   0.883  0.3367 -1.6824  4.8326
  338MOL0     H45604   2.106  12.699   0.829  1.8081 -2.8294  2.9523
  338MOL0     H45605   2.118  12.749   0.987  0.2004  1.1282  1.0675
  338MOL0     H45606   2.353  12.700   0.865 -0.3544 -0.0689  0.2534
  338MOL0     H45607   2.319  12.859   0.787 -1.7325  0.6230  0.2787
  338MOL0     H45608   2.468  12.826   0.988 -0.9763 -1.1333 -0.5597
  338MOL0     H45609   2.316  12.829   1.089 -0.9991 -3.1407 -1.5561
  338MOL0     H45610   2.297  13.071   1.058 -0.9853  0.1592 -0.7012
  338MOL0     H45611   2.395  13.065   0.916 -0.6985  4.0741  0.9658
  338MOL0     H45612   1.838  12.485   1.227  0.9131  1.0930  1.7520
  338MOL0     H45613   1.608  12.406   1.240  1.4427 -1.4195  0.3662
  338MOL0     H45614   1.208  12.504   1.426 -1.0537  1.6903 -0.9423
  338MOL0     H45615   0.973  12.416   1.485 -1.4867 -2.4152 -0.8261
  338MOL0     H45616  -0.007  10.867   2.120  0.5016 -0.4230  0.4171
  338MOL0     H45617   0.122  10.745   2.281 -1.5815 -1.0729 -3.3791
  338MOL0     H45618   0.587  10.592   2.339 -2.8620  0.8507 -0.9149
  338MOL0     H45619   0.704  10.401   2.468 -2.2815 -1.0107 -0.1440
  338MOL0     H45620   0.726  10.425   2.913  2.1442 -1.6115  0.7011
  338MOL0     H45621   0.593  10.320   2.894 -0.2814  1.6387  0.6406
  338MOL0     H45622   0.769  10.140   2.845  1.9628 -0.2367 -0.6557
  338MOL0     H45623   0.787  10.215   3.005  1.8246 -1.0121 -0.1274
  338MOL0     H45624   0.968  10.343   2.950 -2.7822 -1.1779  1.7448
  338MOL0     H45625   0.940  10.309   2.765 -1.4610 -0.4812  0.1680
  338MOL0     H45626   1.140  10.212   2.875 -0.8374  0.0350 -4.4348
  338MOL0     H45627   1.019  10.101   2.793 -5.3881 -1.9735  1.4162
  338MOL0     H45628   1.001   9.992   3.205  1.4063 -3.2916 -0.9991
  338MOL0     H45629   0.457  10.515   2.817  0.2895  1.2454 -0.1883
  338MOL0     H45630   0.350  10.667   2.698 -2.1425 -1.5257 -0.4288
  339MOL0     O45631   8.668  11.506   9.239  0.0124 -1.2257 -0.0323
  339MOL0     C45632   8.692  11.438   9.136 -0.5000 -0.4102  0.9115
  339MOL0     O45633   8.607  11.407   9.041 -0.3062 -0.0426  0.3110
  339MOL0     C45634   8.477  11.449   9.047 -0.2875 -0.5735 -0.0661
  339MOL0     C45635   8.396  11.399   9.143  0.8248 -0.0851  0.1985
  339MOL0     C45636   8.283  11.471   9.174  0.6749  0.9568 -0.7834
  339MOL0     C45637   8.238  11.580   9.109 -0.2850  0.0036 -0.4259
  339MOL0     O45638   8.125  11.657   9.142  0.3438  0.6922 -0.2764
  339MOL0     C45639   8.023  11.590   9.217 -0.9616  0.3404  0.7239
  339MOL0     C45640   7.897  11.674   9.190 -1.6703 -0.6861 -0.3604
  339MOL0     C45641   7.841  11.656   9.044 -0.1429 -0.1611 -0.2837
  339MOL0     C45642   7.687  11.691   9.031 -0.0151  0.6193 -0.2854
  339MOL0     C45643   7.642  11.705   8.890 -0.8211  0.3698  0.1525
  339MOL0     C45644   7.561  11.831   8.872  0.1606 -0.0196 -0.4905
  339MOL0     C45645   7.528  11.878   8.735  0.4722  0.3352 -0.4833
  339MOL0     C45646   7.411  11.797   8.684 -0.0927  0.1956 -0.4629
  339MOL0     N45647   7.362  11.875   8.569 -0.5774 -1.1147 -0.6777
  339MOL0     C45648   7.231  11.898   8.549  1.2835 -0.4549 -0.2888
  339MOL0     C45649   7.220  11.936   8.418  1.1101 -0.3311  0.3363
  339MOL0     C45650   7.086  11.962   8.361 -0.5666 -0.9722  0.6174
  339MOL0     C45651   7.020  11.835   8.340 -0.1484  0.9788 -0.5838
  339MOL0     C45652   6.884  11.850   8.269  1.2066  0.2949 -0.5497
  339MOL0     C45653   6.807  11.728   8.228  0.4622  0.0366  0.0599
  339MOL0     O45654   6.839  11.617   8.312  0.0719 -1.1228  0.0978
  339MOL0     C45655   6.864  11.488   8.274  0.5574 -0.5281 -0.1603
  339MOL0     C45656   6.781  11.417   8.192 -0.1950 -0.3464 -1.3555
  339MOL0     C45657   6.810  11.281   8.154 -0.4163  0.0954 -1.2619
  339MOL0     C45658   6.711  11.212   8.071  0.0141  0.0725 -0.1751
  339MOL0     C45659   6.929  11.216   8.205  0.5120 -0.8120 -1.0162
  339MOL0     C45660   6.975  11.073   8.176  1.0602 -0.2781  0.6588
  339MOL0     O45661   6.914  11.014   8.064 -0.7743  0.2557  0.4129
  339MOL0     C45662   6.893  10.878   8.051 -1.3523 -0.2415 -0.7699
  339MOL0     C45663   6.776  10.828   8.001 -0.0129  0.4342 -0.4274
  339MOL0     C45664   6.774  10.695   7.964  0.1399 -0.5567  1.0154
  339MOL0     C45665   6.879  10.607   7.978 -0.8938  0.6707 -0.1763
  339MOL0     O45666   6.872  10.489   7.922  1.1319  0.4331  0.6402
  339MOL0     C45667   6.956  10.388   7.967 -0.9266  0.7897 -0.5505
  339MOL0     C45668   6.921  10.259   7.928  0.1992 -0.1868  0.7431
  339MOL0     C45669   6.982  10.154   8.013  0.1867  0.1384 -0.4168
  339MOL0     C45670   6.944  10.014   7.946 -0.5030 -0.5421 -0.5275
  339MOL0     C45671   7.010   9.902   8.019  0.0605 -0.2373  0.0954
  339MOL0     C45672   6.925   9.864   8.140  0.7533 -1.0709  0.6409
  339MOL0     C45673   6.977   9.752   8.227 -0.0354 -0.5176  0.0995
  339MOL0     C45674   6.857   9.687   8.301 -0.2474  1.3665  0.6919
  339MOL0    Cl45675   6.908   9.581   8.429 -0.2053 -0.0083 -0.0733
  339MOL0     C45676   6.994  10.657   8.042  0.7313 -0.3483 -0.5573
  339MOL0     C45677   7.005  10.789   8.072 -0.2521 -0.3568  0.0357
  339MOL0     O45678   7.063  11.021   8.245 -0.5560  0.0219 -0.2971
  339MOL0     C45679   7.000  11.283   8.309 -0.4435  0.1721 -0.3782
  339MOL0     C45680   6.975  11.417   8.335  0.8532 -0.7191 -0.3471
  339MOL0     N45681   7.347  11.941   8.369  0.3969  0.4466 -0.4699
  339MOL0     N45682   7.430  11.903   8.462 -0.3549  0.3142 -0.9151
  339MOL0     C45683   8.325  11.634   9.001  0.4263 -0.4529  0.6885
  339MOL0     C45684   8.446  11.568   8.975 -0.8178  0.8271 -0.4750
  339MOL0     C45685   8.836  11.406   9.112 -0.6580 -1.1158  0.5503
  339MOL0     C45686   8.872  11.337   8.993 -0.1002  0.3357  0.1218
  339MOL0     C45687   9.015  11.319   8.962  0.1942  1.0401  1.6165
  339MOL0     C45688   9.115  11.363   9.052 -0.4216  0.0912  0.2828
  339MOL0     O45689   9.249  11.333   9.049  0.0223 -0.8096 -0.4672
  339MOL0     C45690   9.315  11.359   8.923  0.4734  0.1078 -0.5104
  339MOL0     C45691   9.468  11.341   8.926  0.2550 -0.6020 -0.4302
  339MOL0     C45692   9.532  11.429   8.809 -0.5866 -0.3405  1.1148
  339MOL0     C45693   9.676  11.373   8.766  0.4983  0.7883 -0.3436
  339MOL0     C45694   9.645  11.259   8.674 -0.0590 -0.8929 -0.5521
  339MOL0     C45695   9.629  11.157   8.611  0.1947  1.1112 -0.1001
  339MOL0     C45696   9.072  11.420   9.166 -0.4595  0.1116 -0.3550
  339MOL0     C45697   8.938  11.443   9.204 -0.0780  0.5019  1.1965
  339MOL0     H45698   8.424  11.316   9.207  1.0433 -0.7202 -0.7009
  339MOL0     H45699   8.226  11.443   9.262  2.9470  0.6227  0.6828
  339MOL0     H45700   8.021  11.491   9.171  1.9621  1.3563 -1.9633
  339MOL0     H45701   8.047  11.582   9.323 -0.2273 -2.1457  0.4176
  339MOL0     H45702   7.825  11.633   9.263 -0.5222 -1.5844  0.3087
  339MOL0     H45703   7.918  11.778   9.217 -0.2830 -1.0289 -0.0379
  339MOL0     H45704   7.906  11.724   8.989 -0.9336 -1.0864 -2.5250
  339MOL0     H45705   7.860  11.552   9.015 -1.6429  0.0298 -2.1916
  339MOL0     H45706   7.624  11.611   9.073 -0.7123 -0.8225 -3.7224
  339MOL0     H45707   7.663  11.783   9.086  0.9054  2.3803 -2.6573
  339MOL0     H45708   7.729  11.705   8.824 -0.0466 -0.7856  1.1262
  339MOL0     H45709   7.580  11.620   8.862  0.5855 -0.3671 -0.8563
  339MOL0     H45710   7.467  11.825   8.929 -0.1946  1.8015 -0.8197
  339MOL0     H45711   7.621  11.908   8.922 -0.7922  0.1586  0.4204
  339MOL0     H45712   7.486  11.979   8.741 -0.3980 -0.0910  2.9008
  339MOL0     H45713   7.609  11.874   8.662  0.2771  0.4846 -0.7108
  339MOL0     H45714   7.332  11.759   8.749  1.4398 -3.5562 -0.5297
  339MOL0     H45715   7.444  11.700   8.646  0.8463  0.8066 -1.2387
  339MOL0     H45716   7.149  11.884   8.620  0.4971  3.1981 -0.2671
  339MOL0     H45717   7.029  12.021   8.434  1.5860  0.9539  0.8665
  339MOL0     H45718   7.097  12.020   8.268  1.6784  0.0782  1.4547
  339MOL0     H45719   7.010  11.779   8.434 -1.8922 -2.6189 -2.6623
  339MOL0     H45720   7.081  11.765   8.282 -1.9120 -1.4156  0.2760
  339MOL0     H45721   6.888  11.915   8.182 -2.9113  1.3391 -0.1420
  339MOL0     H45722   6.827  11.905   8.344 -0.1304  1.4786 -2.3556
  339MOL0     H45723   6.834  11.709   8.124  0.7288  0.7180 -0.0012
  339MOL0     H45724   6.701  11.751   8.237  0.5759  2.0339 -2.4646
  339MOL0     H45725   6.690  11.468   8.162 -0.5777 -1.6709 -2.5790
  339MOL0     H45726   6.632  11.269   8.021 -0.7847 -0.0703  0.8900
  339MOL0     H45727   6.762  11.162   7.987  0.8715  1.2129 -0.3670
  339MOL0     H45728   6.657  11.134   8.125  0.3446 -0.0199  0.0235
  339MOL0     H45729   6.687  10.889   7.992  0.9211  1.9620  0.3040
  339MOL0     H45730   6.680  10.678   7.911  1.2223  0.1248 -1.2579
  339MOL0     H45731   7.051  10.409   7.916 -0.8507  3.6347  0.5738
  339MOL0     H45732   6.987  10.395   8.072 -0.7594 -1.0563 -0.4410
  339MOL0     H45733   6.813  10.252   7.944  0.0872 -0.7296 -0.1831
  339MOL0     H45734   6.931  10.236   7.822 -0.7253 -2.0908  1.0239
  339MOL0     H45735   6.948  10.175   8.115  0.5954  4.2031 -0.9617
  339MOL0     H45736   7.091  10.163   8.019  0.4380 -2.1603 -0.6405
  339MOL0     H45737   6.838  10.011   7.922  0.1621 -0.0918 -4.0240
  339MOL0     H45738   6.995  10.025   7.850  0.0994  3.2303  0.1030
  339MOL0     H45739   7.107   9.945   8.046 -0.3262  0.6646  0.0845
  339MOL0     H45740   7.020   9.823   7.943  0.7123  0.4265 -0.5248
  339MOL0     H45741   6.898   9.949   8.204 -0.7534 -0.5639 -0.5793
  339MOL0     H45742   6.832   9.825   8.098 -0.1193  0.4912  1.0281
  339MOL0     H45743   7.065   9.780   8.284 -0.6596 -0.4528  1.0606
  339MOL0     H45744   7.004   9.677   8.152 -0.1433  0.9797 -1.5011
  339MOL0     H45745   6.795   9.622   8.238 -0.8745  1.2883  1.3807
  339MOL0     H45746   6.799   9.768   8.347  0.3222  2.8701 -1.1027
  339MOL0     H45747   7.084  10.597   8.037  1.8014  1.0517  0.6814
  339MOL0     H45748   7.101  10.815   8.116  0.1133 -1.7235  0.0927
  339MOL0     H45749   7.083  11.236   8.360 -1.6273  2.3443  4.0805
  339MOL0     H45750   7.046  11.458   8.407 -0.6775 -0.4440  1.0627
  339MOL0     H45751   8.308  11.729   8.952  2.8243  0.7581  2.0242
  339MOL0     H45752   8.517  11.605   8.902  2.2895  0.7633  2.3260
  339MOL0     H45753   8.791  11.312   8.926 -3.3417  1.3191  3.3407
  339MOL0     H45754   9.044  11.264   8.873  0.4862 -2.0868  3.5119
  339MOL0     H45755   9.272  11.283   8.857 -0.8805  1.9894 -1.8994
  339MOL0     H45756   9.295  11.464   8.898  2.2997  0.5728 -0.1946
  339MOL0     H45757   9.484  11.233   8.921 -1.6163 -0.9571  0.4653
  339MOL0     H45758   9.506  11.382   9.020 -0.3384  1.7608 -1.1659
  339MOL0     H45759   9.549  11.526   8.856 -0.5061 -1.2218  2.9964
  339MOL0     H45760   9.463  11.442   8.725  1.4547 -0.3515 -0.6481
  339MOL0     H45761   9.736  11.356   8.856 -0.2621 -0.0572  0.0192
  339MOL0     H45762   9.734  11.453   8.719  2.8538 -1.7164 -1.9806
  339MOL0     H45763   9.658  11.079   8.543  0.3276  0.9817  0.1030
  339MOL0     H45764   9.141  11.441   9.248 -0.1521  0.7188 -0.7703
  339MOL0     H45765   8.918  11.507   9.289  1.2697  1.7194  0.6339
  340MOL0     O45766  10.021   4.479   6.972 -0.0130  0.1391 -0.2559
  340MOL0     C45767   9.961   4.583   6.952  0.7693  0.7352  0.7356
  340MOL0     O45768   9.942   4.641   6.830 -0.0680 -0.4529  0.5322
  340MOL0     C45769   9.994   4.579   6.717  0.9821  0.3039  0.2797
  340MOL0     C45770  10.062   4.654   6.623  0.4016  1.0614  0.3078
  340MOL0     C45771  10.097   4.598   6.505 -0.0665  0.1297  0.7553
  340MOL0     C45772  10.075   4.462   6.476  0.0802  0.2762 -0.1991
  340MOL0     O45773  10.108   4.392   6.368 -0.7253  0.1331 -1.1042
  340MOL0     C45774  10.143   4.467   6.245 -1.4741  0.2604 -0.8274
  340MOL0     C45775  10.238   4.385   6.162 -0.1272  0.4093  0.3116
  340MOL0     C45776  10.355   4.304   6.228 -0.6207 -0.5060 -0.3432
  340MOL0     C45777  10.425   4.213   6.130 -0.2007 -0.0926  0.4778
  340MOL0     C45778  10.503   4.111   6.209 -0.4908  0.4554  1.1270
  340MOL0     C45779  10.547   3.980   6.145  0.3395 -0.1356 -0.7101
  340MOL0     C45780  10.624   3.984   6.019  0.0642  0.0857  0.4921
  340MOL0     C45781  10.634   3.844   5.960 -0.0573  1.2341 -0.0739
  340MOL0     N45782  10.728   3.845   5.850 -0.3008 -0.3538 -0.1883
  340MOL0     C45783  10.856   3.849   5.861 -0.3357  0.0311 -0.3529
  340MOL0     C45784  10.899   3.812   5.738 -0.6756 -0.7366 -1.1217
  340MOL0     C45785  11.039   3.775   5.697 -0.1782 -1.4325 -0.2962
  340MOL0     C45786  11.088   3.640   5.725 -0.0555  0.7508 -0.9630
  340MOL0     C45787  11.006   3.539   5.641  0.3753  0.0760 -0.0772
  340MOL0     C45788  11.077   3.407   5.594  0.4347 -0.5899  0.2508
  340MOL0     O45789  11.083   3.320   5.710 -0.4057  0.5802 -0.1941
  340MOL0     C45790  11.121   3.193   5.678 -0.0775 -0.1748 -0.8611
  340MOL0     C45791  11.196   3.124   5.780  0.4069 -0.0429  0.0847
  340MOL0     C45792  11.234   2.988   5.784  0.4710  0.2257  0.4695
  340MOL0     C45793  11.284   2.925   5.908 -0.1523  0.0491  0.2746
  340MOL0     C45794  11.216   2.923   5.655  0.4175 -1.1388  0.7746
  340MOL0     C45795  11.252   2.780   5.630  0.1356 -0.7628 -1.3913
  340MOL0     O45796  11.349   2.722   5.714 -0.2956  0.2760  0.6339
  340MOL0     C45797  11.383   2.591   5.679  0.4343 -0.3529 -0.3437
  340MOL0     C45798  11.344   2.488   5.763  0.4897 -0.5871 -0.3329
  340MOL0     C45799  11.395   2.366   5.744 -0.0978 -0.0049 -1.2265
  340MOL0     C45800  11.492   2.334   5.645 -0.3261 -0.1511  0.1856
  340MOL0     O45801  11.553   2.208   5.648 -0.0967 -0.2600 -0.3519
  340MOL0     C45802  11.640   2.163   5.535  0.5998 -0.3175  0.3064
  340MOL0     C45803  11.712   2.036   5.575 -0.4408 -0.7844  0.6850
  340MOL0     C45804  11.842   2.075   5.644  0.0144 -0.1864  0.2330
  340MOL0     C45805  11.906   1.941   5.692  0.0716 -0.3409  0.3400
  340MOL0     C45806  12.035   1.982   5.761  0.0950 -0.4165  0.3246
  340MOL0     C45807  12.080   1.852   5.822  0.3240  0.0305  0.0498
  340MOL0     C45808  12.228   1.834   5.804 -0.4300 -0.5355  0.2893
  340MOL0     C45809  12.279   1.706   5.865  0.6244 -0.5907  0.6031
  340MOL0    Cl45810  12.184   1.574   5.794 -0.4537 -0.3771 -0.2247
  340MOL0     C45811  11.538   2.442   5.564  0.8643 -0.4519 -0.4368
  340MOL0     C45812  11.476   2.572   5.581  0.4469  0.2989  0.5707
  340MOL0     O45813  11.189   2.725   5.541  0.7550 -0.5933 -0.6475
  340MOL0     C45814  11.147   2.987   5.551 -0.0228  0.5202  0.9535
  340MOL0     C45815  11.100   3.118   5.557 -0.1339  0.1130  0.3820
  340MOL0     N45816  10.795   3.801   5.652 -0.6047 -1.3341 -0.4802
  340MOL0     N45817  10.690   3.809   5.724  0.0628 -0.6498 -0.2410
  340MOL0     C45818  10.009   4.387   6.572  0.6956 -0.0879  0.5050
  340MOL0     C45819   9.965   4.439   6.690 -0.1320 -0.7677  0.4045
  340MOL0     C45820   9.907   4.655   7.071 -0.2330 -0.6452  1.1410
  340MOL0     C45821   9.913   4.599   7.198 -0.1795  0.3549  0.1409
  340MOL0     C45822   9.870   4.664   7.314 -0.0570  0.0152 -0.4929
  340MOL0     C45823   9.816   4.792   7.305  0.2280 -0.2805  0.7440
  340MOL0     O45824   9.761   4.875   7.392  0.8865 -0.4742 -0.2130
  340MOL0     C45825   9.748   4.821   7.529 -0.3340 -1.3450  0.2721
  340MOL0     C45826   9.870   4.859   7.608  0.1025  0.4579  0.4730
  340MOL0     C45827   9.888   4.793   7.749 -0.0752 -0.4878  0.2774
  340MOL0     C45828  10.032   4.806   7.802  0.2252  0.0481 -0.3207
  340MOL0     C45829  10.043   4.712   7.919 -0.5482 -0.1780 -0.7292
  340MOL0     C45830  10.070   4.633   7.999 -1.0590 -0.5999 -0.6401
  340MOL0     C45831   9.805   4.848   7.174  0.8936  0.2760 -0.1814
  340MOL0     C45832   9.856   4.783   7.071  0.6069 -0.4878  0.7210
  340MOL0     H45833  10.088   4.753   6.660  0.9883 -0.4742  4.6856
  340MOL0     H45834  10.151   4.658   6.433 -0.8651  0.5712  0.5146
  340MOL0     H45835  10.052   4.489   6.188 -2.0786  1.0780  0.4064
  340MOL0     H45836  10.189   4.565   6.256  0.1479 -0.4016 -1.4886
  340MOL0     H45837  10.171   4.318   6.107  0.2708 -0.4353  0.8432
  340MOL0     H45838  10.298   4.453   6.100  2.0919  0.3758  2.2894
  340MOL0     H45839  10.423   4.379   6.271 -2.2023 -0.3765  2.1253
  340MOL0     H45840  10.314   4.240   6.306 -3.1417  0.4234 -0.8221
  340MOL0     H45841  10.345   4.166   6.073 -1.7690  1.4942  1.2606
  340MOL0     H45842  10.477   4.283   6.063 -0.9170 -3.1270 -3.6070
  340MOL0     H45843  10.589   4.157   6.258 -1.0109  2.9854 -0.1453
  340MOL0     H45844  10.444   4.066   6.289  1.2168 -0.2411  2.0414
  340MOL0     H45845  10.601   3.937   6.230 -3.0036  4.7093  4.6348
  340MOL0     H45846  10.458   3.918   6.132  1.0766 -1.9356  2.0559
  340MOL0     H45847  10.567   4.049   5.953  0.1847 -1.3969 -1.1317
  340MOL0     H45848  10.724   4.023   6.043  2.8811 -4.5892 -2.0615
  340MOL0     H45849  10.540   3.806   5.919  1.4360 -1.8043 -0.9869
  340MOL0     H45850  10.664   3.772   6.037 -0.1934  1.2244 -0.0291
  340MOL0     H45851  10.901   3.864   5.959  0.7396 -1.3572 -0.5902
  340MOL0     H45852  11.050   3.781   5.588  1.7532  1.9343 -0.0787
  340MOL0     H45853  11.113   3.851   5.725  0.4528 -2.1331 -0.0524
  340MOL0     H45854  11.070   3.617   5.831 -0.8474  0.2698 -1.1946
  340MOL0     H45855  11.197   3.637   5.711  0.2068 -6.7098 -1.4417
  340MOL0     H45856  10.988   3.589   5.546 -0.4051 -4.2956 -2.4742
  340MOL0     H45857  10.912   3.508   5.688  0.5234  1.2189  1.0632
  340MOL0     H45858  11.176   3.436   5.559  0.3271  1.2002  1.2906
  340MOL0     H45859  11.023   3.368   5.507  1.4700 -1.5619  0.0225
  340MOL0     H45860  11.210   3.187   5.868 -1.2073  1.1031 -0.4253
  340MOL0     H45861  11.357   2.843   5.907  0.4052  0.5358 -0.3905
  340MOL0     H45862  11.332   3.011   5.956  0.6072  3.2561 -5.3382
  340MOL0     H45863  11.193   2.894   5.961  0.5812  0.3119  1.7346
  340MOL0     H45864  11.288   2.508   5.853  0.1475 -3.6443  0.2259
  340MOL0     H45865  11.359   2.296   5.818  1.4547  1.2808  0.8512
  340MOL0     H45866  11.585   2.135   5.445 -1.2414 -0.3085  1.3987
  340MOL0     H45867  11.709   2.239   5.496 -2.1641  0.3406 -3.8612
  340MOL0     H45868  11.651   1.988   5.652 -0.7160  0.1586  1.0718
  340MOL0     H45869  11.741   1.977   5.487  0.2313 -0.6928  0.8402
  340MOL0     H45870  11.825   2.143   5.728  1.0661  0.1456  0.1854
  340MOL0     H45871  11.910   2.117   5.569 -0.9957 -0.1511 -0.6883
  340MOL0     H45872  11.834   1.887   5.754  1.1515 -3.8145 -1.1753
  340MOL0     H45873  11.909   1.871   5.608  0.9138 -1.4044  1.2166
  340MOL0     H45874  12.015   2.051   5.844  5.8192 -0.3078  2.0510
  340MOL0     H45875  12.107   2.023   5.689 -2.2655  1.0563 -1.3251
  340MOL0     H45876  12.048   1.853   5.926 -0.5326 -1.5350 -0.1581
  340MOL0     H45877  12.025   1.763   5.790  0.0575  0.0938  0.3309
  340MOL0     H45878  12.281   1.921   5.843  1.9653 -2.4730  1.6480
  340MOL0     H45879  12.242   1.813   5.697  0.0277 -2.3023  0.6571
  340MOL0     H45880  12.264   1.716   5.973 -0.1197 -3.7908  0.9057
  340MOL0     H45881  12.386   1.685   5.861  0.8235  0.3939  0.7174
  340MOL0     H45882  11.589   2.414   5.473  1.4272  1.1823 -0.6698
  340MOL0     H45883  11.495   2.647   5.505  0.6686  1.4314  1.7171
  340MOL0     H45884  11.144   2.940   5.453  3.6550  3.0017 -0.5773
  340MOL0     H45885  11.057   3.152   5.463 -0.2616 -3.0648 -0.8622
  340MOL0     H45886   9.998   4.280   6.555  0.4389  0.3787 -2.9385
  340MOL0     H45887   9.920   4.373   6.763 -0.3346 -2.0509 -0.8314
  340MOL0     H45888   9.958   4.502   7.220 -5.9298 -1.6967  7.1012
  340MOL0     H45889   9.877   4.612   7.409 -0.8237  0.8426  0.0376
  340MOL0     H45890   9.670   4.881   7.577  1.1052 -0.0821  1.1667
  340MOL0     H45891   9.729   4.714   7.531 -1.0499 -1.2141  1.0110
  340MOL0     H45892   9.870   4.968   7.617  4.8216  0.5107  2.9465
  340MOL0     H45893   9.952   4.833   7.540  0.1048 -2.6600  1.5332
  340MOL0     H45894   9.883   4.687   7.720  0.9361 -0.4566 -0.0629
  340MOL0     H45895   9.807   4.811   7.819 -0.4538 -2.0449  0.2780
  340MOL0     H45896  10.029   4.912   7.827  0.1107  0.2241 -1.0506
  340MOL0     H45897  10.101   4.784   7.720 -0.0561  2.9517 -1.4352
  340MOL0     H45898  10.097   4.559   8.071 -0.4630  0.2630  0.0534
  340MOL0     H45899   9.754   4.943   7.179  2.1866  0.9605  0.4492
  340MOL0     H45900   9.851   4.836   6.977  1.6466 -0.6869  0.5456
  341MOL0     O45901  10.533   3.605   3.448  0.0398 -0.3378 -0.4518
  341MOL0     C45902  10.545   3.514   3.359 -0.6778  0.2833  0.2979
  341MOL0     O45903  10.433   3.435   3.314 -0.6583 -1.1777  1.2241
  341MOL0     C45904  10.349   3.380   3.404  0.4107  0.3723  1.1472
  341MOL0     C45905  10.379   3.336   3.527  0.5419 -0.9821  0.4352
  341MOL0     C45906  10.275   3.292   3.624 -0.1074 -0.8980  0.4125
  341MOL0     C45907  10.145   3.266   3.588 -0.6102  0.5446 -0.2520
  341MOL0     O45908  10.050   3.208   3.678  0.0035  0.2959  0.0850
  341MOL0     C45909   9.910   3.226   3.623  0.5610  0.1310 -0.3795
  341MOL0     C45910   9.815   3.197   3.742  0.6507 -0.4365  0.0979
  341MOL0     C45911   9.840   3.059   3.800 -0.7853 -0.0022  0.0482
  341MOL0     C45912   9.719   2.996   3.884  0.5389 -0.3404 -0.2135
  341MOL0     C45913   9.668   3.072   4.012  0.0515 -0.2281  0.5560
  341MOL0     C45914   9.553   2.999   4.071 -0.0882  0.3276 -0.3517
  341MOL0     C45915   9.446   3.091   4.137  0.0994  0.1666  0.2993
  341MOL0     C45916   9.485   3.152   4.270 -0.7937 -0.8835  0.6363
  341MOL0     N45917   9.574   3.276   4.254  0.0008  0.2625 -0.2041
  341MOL0     C45918   9.717   3.275   4.266  0.1795 -0.2791  0.4941
  341MOL0     C45919   9.751   3.398   4.212  1.0099 -0.4589  0.0630
  341MOL0     C45920   9.888   3.443   4.217 -0.2490 -0.1109 -0.1040
  341MOL0     C45921   9.906   3.513   4.347 -0.5719  0.4784 -0.6227
  341MOL0     C45922  10.060   3.532   4.369 -0.3672  0.3540  0.6674
  341MOL0     C45923  10.087   3.641   4.476  0.1477 -0.3000 -0.2330
  341MOL0     O45924  10.226   3.676   4.493  0.4372  0.2775 -0.0976
  341MOL0     C45925  10.294   3.729   4.383 -0.2491  1.0133 -1.0694
  341MOL0     C45926  10.266   3.861   4.353 -0.2212 -0.5714  0.3446
  341MOL0     C45927  10.330   3.931   4.242 -0.1313  0.7374 -1.5096
  341MOL0     C45928  10.283   4.081   4.234  0.6526  0.5610  0.8072
  341MOL0     C45929  10.411   3.845   4.160 -0.8467 -0.0227 -0.0893
  341MOL0     C45930  10.499   3.904   4.047  1.0907 -0.0259 -0.8569
  341MOL0     O45931  10.585   3.825   3.979  0.1930  0.2234 -0.4041
  341MOL0     C45932  10.651   3.886   3.880 -0.2015 -0.9707  0.1293
  341MOL0     C45933  10.777   3.938   3.900 -0.2122  0.7571 -0.5336
  341MOL0     C45934  10.853   3.992   3.795 -0.2876  1.0241  0.6579
  341MOL0     C45935  10.805   3.984   3.662 -0.8172 -0.0449 -0.9740
  341MOL0     O45936  10.857   4.019   3.542 -0.6404 -0.2574  0.6725
  341MOL0     C45937  10.978   4.090   3.530 -0.7174  0.5496  0.7889
  341MOL0     C45938  11.059   4.028   3.414 -0.4915 -0.2287 -0.2689
  341MOL0     C45939  11.205   4.085   3.407 -0.2115  0.5797 -0.0044
  341MOL0     C45940  11.273   4.054   3.277  0.7078 -0.6833  0.7504
  341MOL0     C45941  11.424   4.082   3.272  0.3602  0.1276 -0.4712
  341MOL0     C45942  11.460   4.234   3.284  0.1679 -0.5286  0.9307
  341MOL0     C45943  11.603   4.262   3.338  0.2592  0.1813 -0.2120
  341MOL0     C45944  11.706   4.243   3.225  1.0237 -0.4533  0.4047
  341MOL0    Cl45945  11.689   4.379   3.113  0.2242  0.3451 -0.1221
  341MOL0     C45946  10.673   3.942   3.647 -0.7775  0.2013  0.7259
  341MOL0     C45947  10.596   3.889   3.756 -0.1950 -0.0064 -0.6947
  341MOL0     O45948  10.482   4.026   4.022 -0.1628 -0.4069  0.7396
  341MOL0     C45949  10.430   3.707   4.182 -0.5445  0.2008 -0.0736
  341MOL0     C45950  10.374   3.652   4.296  0.5829 -1.2360  0.2190
  341MOL0     N45951   9.639   3.466   4.171  0.0450  0.1272 -0.2890
  341MOL0     N45952   9.533   3.399   4.205  0.6529  0.1102 -0.3661
  341MOL0     C45953  10.119   3.311   3.463 -0.2053 -0.5849  0.7465
  341MOL0     C45954  10.216   3.365   3.367 -0.0506  0.4877 -0.7279
  341MOL0     C45955  10.667   3.517   3.282 -0.5427 -0.1283  0.0272
  341MOL0     C45956  10.784   3.585   3.327 -0.0248  0.0975  0.1296
  341MOL0     C45957  10.900   3.571   3.253  0.0172 -0.2857  0.5697
  341MOL0     C45958  10.895   3.519   3.123  0.3531  0.4187  0.2743
  341MOL0     O45959  10.998   3.507   3.037  0.3068  0.5188 -0.4384
  341MOL0     C45960  11.132   3.546   3.071 -0.5667  0.0695  1.4480
  341MOL0     C45961  11.143   3.695   3.035  0.3909 -0.2504  0.3475
  341MOL0     C45962  11.093   3.741   2.889  0.1085 -0.3817 -0.6088
  341MOL0     C45963  11.154   3.656   2.777 -0.3285 -0.8479  0.0767
  341MOL0     C45964  11.303   3.667   2.768 -0.0980 -0.0274  0.1179
  341MOL0     C45965  11.424   3.670   2.770 -0.5300 -0.0678  0.4612
  341MOL0     C45966  10.779   3.455   3.074 -0.0588 -0.1872  0.4103
  341MOL0     C45967  10.669   3.449   3.158 -1.0533 -0.1359 -0.4058
  341MOL0     H45968  10.483   3.335   3.560  1.3355 -1.6880 -1.8528
  341MOL0     H45969  10.301   3.278   3.729  1.4390  2.8658  0.6776
  341MOL0     H45970   9.885   3.325   3.585 -4.4358 -1.1284 -1.1338
  341MOL0     H45971   9.893   3.149   3.547 -1.6450  0.7212 -0.5582
  341MOL0     H45972   9.829   3.268   3.825 -0.4090 -0.7907  0.5861
  341MOL0     H45973   9.712   3.211   3.711  1.5702  1.0220 -2.6591
  341MOL0     H45974   9.854   2.987   3.718 -1.6687  1.3757 -1.3838
  341MOL0     H45975   9.922   3.071   3.870 -1.0642 -0.6936  0.5059
  341MOL0     H45976   9.642   2.989   3.807  1.6475  2.5105 -1.7510
  341MOL0     H45977   9.748   2.895   3.913  2.5141  0.9530  2.9172
  341MOL0     H45978   9.747   3.089   4.085  1.5732  1.7282 -1.4228
  341MOL0     H45979   9.645   3.174   3.981  1.8955 -0.5839 -2.3496
  341MOL0     H45980   9.500   2.951   3.988  1.6358 -3.8426  0.7114
  341MOL0     H45981   9.589   2.924   4.142  0.0104  0.6823 -0.0238
  341MOL0     H45982   9.423   3.177   4.074 -1.7727  0.3084  1.1394
  341MOL0     H45983   9.354   3.034   4.154  0.7227 -0.0459  3.7366
  341MOL0     H45984   9.532   3.083   4.340  0.9974 -0.5010 -0.1269
  341MOL0     H45985   9.387   3.186   4.303 -1.8011 -1.8383 -1.1962
  341MOL0     H45986   9.778   3.192   4.301 -1.4712 -0.8575  2.1518
  341MOL0     H45987   9.951   3.354   4.213  0.5523  0.4569 -0.4093
  341MOL0     H45988   9.907   3.506   4.130  0.0324  2.2577  1.5837
  341MOL0     H45989   9.866   3.458   4.433 -2.6481  2.3849 -0.2777
  341MOL0     H45990   9.861   3.613   4.341  1.8733  1.8487  1.7308
  341MOL0     H45991  10.090   3.584   4.278 -0.4414  0.7438  0.8636
  341MOL0     H45992  10.120   3.443   4.389  0.8609  0.6978 -1.2531
  341MOL0     H45993  10.064   3.605   4.576  2.5254 -0.6411  0.2586
  341MOL0     H45994  10.025   3.725   4.445  1.4024  0.2002 -1.5146
  341MOL0     H45995  10.190   3.913   4.411 -0.4255  0.1481 -0.5304
  341MOL0     H45996  10.317   4.127   4.141 -0.5669  0.2080  0.1678
  341MOL0     H45997  10.175   4.067   4.231  0.6539  0.4990  1.0704
  341MOL0     H45998  10.325   4.141   4.316  0.4803 -0.3332  1.5656
  341MOL0     H45999  10.825   3.951   3.996 -0.0411  1.1717 -0.6706
  341MOL0     H46000  10.946   4.046   3.810 -0.5075  1.5456  0.1744
  341MOL0     H46001  10.963   4.196   3.511  3.0672  0.8479 -1.6127
  341MOL0     H46002  11.034   4.080   3.623 -0.2003  0.6257  0.4912
  341MOL0     H46003  11.056   3.919   3.417 -0.3515 -0.2624 -1.1273
  341MOL0     H46004  11.001   4.048   3.323  1.4639  0.3277 -1.4578
  341MOL0     H46005  11.256   4.042   3.494 -2.5929 -2.7089 -0.0635
  341MOL0     H46006  11.211   4.193   3.418  1.4364  0.4163  1.1417
  341MOL0     H46007  11.261   3.948   3.255  1.3494 -0.1787 -2.5257
  341MOL0     H46008  11.220   4.108   3.198  0.5084  1.6812  2.3997
  341MOL0     H46009  11.465   4.036   3.182  1.7674  1.0342 -0.3184
  341MOL0     H46010  11.473   4.026   3.352 -0.1269  0.7630  0.2956
  341MOL0     H46011  11.441   4.283   3.188  1.9670  1.3529  1.4588
  341MOL0     H46012  11.395   4.278   3.360 -2.2704 -2.3717  0.0608
  341MOL0     H46013  11.637   4.190   3.412  0.0030  0.5742  0.2912
  341MOL0     H46014  11.608   4.358   3.390  0.0312  0.6373 -1.0130
  341MOL0     H46015  11.684   4.150   3.172 -0.4237  0.5292 -0.8401
  341MOL0     H46016  11.803   4.235   3.274  0.0333 -0.6059  2.4559
  341MOL0     H46017  10.628   3.944   3.548  0.5103  0.3984  0.1101
  341MOL0     H46018  10.494   3.857   3.738 -0.9946  1.3193  1.1651
  341MOL0     H46019  10.486   3.656   4.104  4.6838 -0.7173  3.7168
  341MOL0     H46020  10.380   3.546   4.318  1.0740 -1.3396 -0.3712
  341MOL0     H46021  10.023   3.315   3.412 -0.0361 -2.4517  0.2017
  341MOL0     H46022  10.198   3.385   3.262  2.0058  2.9800 -0.6959
  341MOL0     H46023  10.786   3.626   3.428 -2.4365  0.7352 -0.0148
  341MOL0     H46024  11.001   3.597   3.283  1.4545 -1.3426 -2.7957
  341MOL0     H46025  11.162   3.529   3.175 -1.4606  0.4522  1.7760
  341MOL0     H46026  11.200   3.487   3.008 -2.9440 -2.2603  0.8514
  341MOL0     H46027  11.245   3.730   3.054 -0.0353  0.3322  1.7430
  341MOL0     H46028  11.085   3.754   3.107  1.5078 -1.1984  2.0946
  341MOL0     H46029  11.127   3.840   2.856 -0.6355 -0.3067 -1.1844
  341MOL0     H46030  10.986   3.725   2.903  0.0210  2.2673  3.5384
  341MOL0     H46031  11.113   3.701   2.686 -0.9103  0.0147  0.7541
  341MOL0     H46032  11.125   3.551   2.783  1.6111 -1.3102  3.2236
  341MOL0     H46033  11.528   3.693   2.774 -0.8325  1.2451  1.6836
  341MOL0     H46034  10.788   3.404   2.979 -0.0509 -4.8801  2.6648
  341MOL0     H46035  10.575   3.404   3.129  0.9895 -2.8662 -3.5288
  342MOL0     O46036   2.102   3.858   6.162 -1.5872 -0.8330 -0.4219
  342MOL0     C46037   2.038   3.883   6.058 -0.6336 -0.6890  0.9654
  342MOL0     O46038   1.903   3.871   6.040  0.0144 -0.5955  0.0467
  342MOL0     C46039   1.821   3.837   6.143 -0.8766 -0.3508  0.5430
  342MOL0     C46040   1.739   3.731   6.109 -0.0411  0.5094  0.1407
  342MOL0     C46041   1.657   3.676   6.207  1.0601 -0.3199 -0.7452
  342MOL0     C46042   1.657   3.713   6.340  0.0278 -0.3047  0.1489
  342MOL0     O46043   1.574   3.640   6.418  1.1507  0.4316 -0.7963
  342MOL0     C46044   1.623   3.621   6.547  0.9226  0.2110 -0.7673
  342MOL0     C46045   1.529   3.544   6.639  1.5168 -0.1321 -0.2643
  342MOL0     C46046   1.533   3.593   6.787  0.3810  0.4426  0.8001
  342MOL0     C46047   1.495   3.732   6.827 -0.4508 -0.8600 -0.2206
  342MOL0     C46048   1.340   3.764   6.807  0.8627  0.2253 -0.1433
  342MOL0     C46049   1.241   3.673   6.881 -0.1987 -0.2864  0.3372
  342MOL0     C46050   1.119   3.746   6.898  0.5707 -1.0942 -0.2221
  342MOL0     C46051   1.012   3.655   6.955 -0.3039  0.6888  0.2577
  342MOL0     N46052   0.881   3.717   6.970  0.4873  1.3210 -0.5468
  342MOL0     C46053   0.780   3.676   7.058 -1.1015 -0.0336 -0.5627
  342MOL0     C46054   0.669   3.751   7.016 -0.8262 -0.6685  0.5658
  342MOL0     C46055   0.524   3.744   7.059 -0.6537 -0.7923  0.6494
  342MOL0     C46056   0.443   3.878   7.097 -0.1725 -0.2238  0.0303
  342MOL0     C46057   0.296   3.854   7.110  0.6153  0.6142  0.1006
  342MOL0     C46058   0.226   3.981   7.136  0.7860  0.0535  0.5378
  342MOL0     O46059   0.086   3.948   7.130 -0.1111 -0.2961  0.6030
  342MOL0     C46060  -0.001   3.988   7.228  0.6368 -0.4273 -1.4446
  342MOL0     C46061  -0.137   3.955   7.209  0.1388  0.4889  0.0219
  342MOL0     C46062  -0.228   4.000   7.299  0.3391 -0.0407  0.3662
  342MOL0     C46063  -0.364   3.956   7.259  0.4998  0.3776  1.1078
  342MOL0     C46064  -0.197   4.086   7.398 -0.2814  0.0063 -0.0975
  342MOL0     C46065  -0.300   4.157   7.477  0.7041 -0.0422  0.3630
  342MOL0     O46066  -0.290   4.159   7.607  0.6415  0.1215 -0.4412
  342MOL0     C46067  -0.408   4.161   7.681  0.7490  0.4314 -0.5766
  342MOL0     C46068  -0.479   4.040   7.695 -0.2183  0.0256 -0.2072
  342MOL0     C46069  -0.595   4.033   7.779 -0.7465 -0.1568 -0.7369
  342MOL0     C46070  -0.643   4.142   7.842 -0.4877 -0.2929 -0.5559
  342MOL0     O46071  -0.758   4.141   7.923 -0.3467  0.1602  0.3933
  342MOL0     C46072  -0.842   4.025   7.939 -0.4150  0.0415  0.4345
  342MOL0     C46073  -0.956   4.057   8.021 -0.1371  0.5027 -0.3823
  342MOL0     C46074  -1.074   3.959   7.982  0.1101  0.2255 -0.1691
  342MOL0     C46075  -1.048   3.809   8.026 -0.7407  0.5264  0.1878
  342MOL0     C46076  -1.169   3.719   8.033  0.4267  0.5747  0.2775
  342MOL0     C46077  -1.144   3.582   8.093  0.3685 -0.1727 -0.0174
  342MOL0     C46078  -1.240   3.480   8.040 -0.1795 -0.2346  0.5650
  342MOL0     C46079  -1.219   3.357   8.122 -0.6158  0.5773  0.4751
  342MOL0    Cl46080  -1.350   3.232   8.111 -0.1426  0.1481 -0.1222
  342MOL0     C46081  -0.578   4.266   7.829  0.1146 -0.5787  0.4146
  342MOL0     C46082  -0.463   4.276   7.748 -0.1259  0.2422  0.5049
  342MOL0     O46083  -0.391   4.219   7.421 -0.0683  0.6829  0.8524
  342MOL0     C46084  -0.061   4.123   7.415 -0.2996  0.3932  0.4122
  342MOL0     C46085   0.039   4.077   7.329  0.8058 -1.3802  0.5289
  342MOL0     N46086   0.715   3.840   6.921 -0.0795  0.2750 -0.8229
  342MOL0     N46087   0.831   3.810   6.888 -0.3990 -0.3517  0.6140
  342MOL0     C46088   1.752   3.820   6.372  0.3858 -0.0100  0.4463
  342MOL0     C46089   1.836   3.882   6.276 -0.1804  0.7917 -0.1526
  342MOL0     C46090   2.111   3.906   5.931  0.3471 -0.6025  0.7534
  342MOL0     C46091   2.044   3.924   5.814  0.6763  0.3598  0.1384
  342MOL0     C46092   2.105   3.953   5.689  0.5845  0.0118 -0.0646
  342MOL0     C46093   2.234   3.997   5.693 -0.0218  0.3702  0.6713
  342MOL0     O46094   2.293   4.050   5.579 -0.2339  0.3421  0.3025
  342MOL0     C46095   2.413   4.130   5.591 -1.2777  0.6301  0.2542
  342MOL0     C46096   2.420   4.235   5.482 -0.5070  0.0230  0.7478
  342MOL0     C46097   2.288   4.314   5.445  0.6602 -0.5904  0.4167
  342MOL0     C46098   2.289   4.390   5.313 -0.0050  0.2154 -0.3424
  342MOL0     C46099   2.388   4.497   5.300  0.7760  0.2851 -0.6267
  342MOL0     C46100   2.474   4.579   5.298 -0.2159  0.1169 -0.1184
  342MOL0     C46101   2.309   3.987   5.813 -0.1995 -0.9728 -1.1438
  342MOL0     C46102   2.249   3.939   5.930  0.3487  0.5496  0.6309
  342MOL0     H46103   1.750   3.688   6.010  2.4627  2.0782 -0.3407
  342MOL0     H46104   1.586   3.595   6.197 -0.1955  0.5519  0.5742
  342MOL0     H46105   1.723   3.577   6.548  1.5086  1.5043 -0.8110
  342MOL0     H46106   1.639   3.719   6.592  0.1521 -0.9525  2.2731
  342MOL0     H46107   1.426   3.568   6.613  1.3112  0.1414  0.7779
  342MOL0     H46108   1.530   3.435   6.625  0.8107 -0.0911 -0.6643
  342MOL0     H46109   1.456   3.527   6.826  0.7262 -1.3283 -1.3121
  342MOL0     H46110   1.620   3.569   6.849 -2.8344 -1.9736  4.9137
  342MOL0     H46111   1.534   3.752   6.927  4.3000 -0.5343 -1.8756
  342MOL0     H46112   1.541   3.806   6.761 -2.4578  0.0701 -0.6495
  342MOL0     H46113   1.309   3.863   6.841 -2.8021 -0.7114 -0.3419
  342MOL0     H46114   1.325   3.762   6.698  1.3996 -1.6846 -0.2286
  342MOL0     H46115   1.228   3.590   6.811 -0.6227  1.0294 -1.1924
  342MOL0     H46116   1.289   3.631   6.970  2.9667  2.7014  0.2319
  342MOL0     H46117   1.130   3.829   6.968 -4.0400  2.0083 -2.6733
  342MOL0     H46118   1.087   3.782   6.800  2.9600  0.1515 -0.6191
  342MOL0     H46119   1.056   3.623   7.050  1.0909  0.8145 -0.3128
  342MOL0     H46120   0.996   3.567   6.893 -0.4343  2.4196 -2.3562
  342MOL0     H46121   0.784   3.597   7.133 -0.2494 -0.3519 -0.9242
  342MOL0     H46122   0.468   3.709   6.972  3.1706 -3.6206 -0.9736
  342MOL0     H46123   0.519   3.673   7.142 -0.1575 -2.2601 -0.5334
  342MOL0     H46124   0.454   3.953   7.018 -2.6768 -0.0282 -0.2034
  342MOL0     H46125   0.479   3.918   7.192  0.2783  2.3643 -1.1352
  342MOL0     H46126   0.281   3.784   7.193  2.6197  0.6047  0.5132
  342MOL0     H46127   0.258   3.800   7.023 -2.0184  0.9129  0.9900
  342MOL0     H46128   0.249   4.050   7.054 -1.0571  0.3367  0.1957
  342MOL0     H46129   0.259   4.016   7.234  0.9941 -2.1888  1.3224
  342MOL0     H46130  -0.159   3.885   7.129 -0.4312  0.2788  0.3574
  342MOL0     H46131  -0.411   4.014   7.180 -1.4480 -0.4423  1.6012
  342MOL0     H46132  -0.368   3.850   7.229 -2.6599  0.6875  0.0222
  342MOL0     H46133  -0.434   3.957   7.343  0.1397  1.9895  0.8173
  342MOL0     H46134  -0.453   3.951   7.639  1.2122  2.8136 -4.4513
  342MOL0     H46135  -0.638   3.934   7.795 -0.1255 -0.3858 -0.4617
  342MOL0     H46136  -0.885   3.995   7.844 -0.9492 -2.4728  1.3943
  342MOL0     H46137  -0.780   3.950   7.988  1.5776  1.9595  1.0311
  342MOL0     H46138  -0.926   4.050   8.126 -2.8001  0.0609  0.4250
  342MOL0     H46139  -0.981   4.161   7.996  3.2203  1.4089 -0.4778
  342MOL0     H46140  -1.100   3.955   7.876 -1.4401 -0.1207  0.2009
  342MOL0     H46141  -1.156   3.997   8.043  0.3075  0.8940 -0.3126
  342MOL0     H46142  -0.976   3.774   7.952  1.6157  0.2922  2.4710
  342MOL0     H46143  -0.991   3.800   8.119 -0.1073  0.9271 -0.1529
  342MOL0     H46144  -1.184   3.704   7.925 -1.3748 -1.2746  0.7257
  342MOL0     H46145  -1.259   3.772   8.066 -0.0745 -0.2039  0.1771
  342MOL0     H46146  -1.049   3.540   8.059 -0.8529 -1.1058 -2.5229
  342MOL0     H46147  -1.150   3.600   8.200  0.3612 -1.0276  0.1290
  342MOL0     H46148  -1.220   3.454   7.936 -0.7046 -0.2143  0.4577
  342MOL0     H46149  -1.341   3.519   8.050 -0.2458 -0.0785 -0.6152
  342MOL0     H46150  -1.220   3.371   8.230 -3.3192 -2.0116  0.8879
  342MOL0     H46151  -1.122   3.307   8.107 -0.4039  0.1600  2.9135
  342MOL0     H46152  -0.618   4.356   7.874 -0.3993 -0.3590 -0.4518
  342MOL0     H46153  -0.400   4.364   7.746 -1.1460  1.0165  1.2140
  342MOL0     H46154  -0.048   4.202   7.488  1.0343 -0.1966  0.8442
  342MOL0     H46155   0.136   4.114   7.361 -0.5246  0.3177  2.9864
  342MOL0     H46156   1.765   3.857   6.473  2.7714  0.6398 -0.0467
  342MOL0     H46157   1.917   3.949   6.303  0.3444 -0.0457  0.4041
  342MOL0     H46158   1.937   3.908   5.820  1.0848 -3.4376 -0.2314
  342MOL0     H46159   2.051   3.977   5.598 -0.6275 -0.3981  0.5241
  342MOL0     H46160   2.419   4.176   5.690  1.4637  0.3232  0.3163
  342MOL0     H46161   2.504   4.069   5.589 -1.2758  0.4752  2.7363
  342MOL0     H46162   2.441   4.185   5.387 -1.7165 -0.4247  0.6923
  342MOL0     H46163   2.512   4.293   5.495 -1.4450  2.4857 -2.2539
  342MOL0     H46164   2.264   4.392   5.517  0.3391  0.3944 -0.7262
  342MOL0     H46165   2.215   4.234   5.433  0.2090 -0.1433  0.1680
  342MOL0     H46166   2.195   4.444   5.295  0.9525  1.7401 -1.0208
  342MOL0     H46167   2.300   4.318   5.231  1.0936  0.8838 -0.7932
  342MOL0     H46168   2.550   4.654   5.283 -1.9681  2.1013  0.3992
  342MOL0     H46169   2.410   4.024   5.824 -1.3189  2.4159 -1.2622
  342MOL0     H46170   2.291   3.958   6.028 -1.2583  1.5537  1.1600
  343MOL0     O46171   3.832   8.334   6.853 -0.6288 -0.7359 -0.1341
  343MOL0     C46172   3.721   8.304   6.876  1.0229 -0.2930  0.4898
  343MOL0     O46173   3.614   8.371   6.824  1.0161  0.0820  0.1023
  343MOL0     C46174   3.607   8.498   6.775 -0.2042 -0.8828 -0.0669
  343MOL0     C46175   3.490   8.533   6.704 -0.2444 -0.6180 -0.6004
  343MOL0     C46176   3.461   8.663   6.664  0.4877  0.1395 -0.1800
  343MOL0     C46177   3.544   8.769   6.692 -0.8739  0.7336  0.4568
  343MOL0     O46178   3.508   8.895   6.641  0.3360  0.1776 -0.3028
  343MOL0     C46179   3.615   8.991   6.632 -0.0880  0.5176  0.0085
  343MOL0     C46180   3.588   9.085   6.514  0.2239 -0.1756  0.0740
  343MOL0     C46181   3.667   9.219   6.519 -0.5072  0.9560  0.0019
  343MOL0     C46182   3.690   9.286   6.379  0.4560  0.2514 -0.0795
  343MOL0     C46183   3.715   9.437   6.398 -0.7620  0.2892 -0.7374
  343MOL0     C46184   3.746   9.514   6.269  0.0415 -0.4417 -0.9371
  343MOL0     C46185   3.728   9.665   6.287 -0.5981  1.6047  0.0363
  343MOL0     C46186   3.749   9.744   6.158 -0.7196  0.0345  0.9188
  343MOL0     N46187   3.885   9.718   6.113 -1.1045 -0.0782  0.1541
  343MOL0     C46188   3.932   9.612   6.042  0.3414  0.3968 -0.7329
  343MOL0     C46189   4.060   9.642   6.015  0.3575 -0.3479 -0.4153
  343MOL0     C46190   4.165   9.562   5.943 -0.1916 -0.5516  1.0389
  343MOL0     C46191   4.226   9.650   5.830 -0.2007 -0.0811 -0.2395
  343MOL0     C46192   4.237   9.572   5.698  0.3291  0.3857  0.4032
  343MOL0     C46193   4.281   9.655   5.579 -0.4833 -0.0153 -0.9610
  343MOL0     O46194   4.425   9.691   5.571 -0.1323 -0.4695 -0.4276
  343MOL0     C46195   4.479   9.758   5.669 -0.7160 -0.2115 -0.4976
  343MOL0     C46196   4.448   9.886   5.719 -0.2077  0.6009 -0.0500
  343MOL0     C46197   4.523   9.940   5.816  0.0097 -0.0843  0.7200
  343MOL0     C46198   4.490  10.083   5.850  0.1622  0.6363 -0.2819
  343MOL0     C46199   4.638   9.878   5.873  0.4008  0.1325  0.7635
  343MOL0     C46200   4.717   9.926   5.986 -0.6393 -0.7699 -0.1053
  343MOL0     O46201   4.848   9.944   5.960  0.2132 -0.4005 -0.0432
  343MOL0     C46202   4.917  10.053   6.008 -0.1528  0.6033 -0.5972
  343MOL0     C46203   4.859  10.185   6.018  0.1659  1.1753 -0.2803
  343MOL0     C46204   4.938  10.292   6.050  0.5296  0.8042 -0.3399
  343MOL0     C46205   5.075  10.271   6.087 -0.2477  0.3874  0.0207
  343MOL0     O46206   5.142  10.382   6.119  0.5956 -1.1541 -0.3149
  343MOL0     C46207   5.248  10.365   6.210 -0.2565  0.5206 -0.1465
  343MOL0     C46208   5.308  10.501   6.238 -0.0375  0.1612 -0.3865
  343MOL0     C46209   5.380  10.566   6.116 -0.1601  0.0095  1.4924
  343MOL0     C46210   5.296  10.669   6.035  0.5229 -0.6761 -0.1104
  343MOL0     C46211   5.368  10.752   5.932  0.5881  0.1361  0.5991
  343MOL0     C46212   5.451  10.849   6.005  0.2261 -0.3905 -0.5146
  343MOL0     C46213   5.534  10.933   5.906  0.9291  0.1194  0.5889
  343MOL0     C46214   5.618  11.047   5.970 -0.5878 -0.1220  0.2138
  343MOL0    Cl46215   5.502  11.180   5.988 -0.2297 -0.1601  0.4587
  343MOL0     C46216   5.125  10.147   6.064  0.0423  0.5355 -0.3608
  343MOL0     C46217   5.053  10.039   6.022  0.5176 -0.3086 -0.1046
  343MOL0     O46218   4.663   9.959   6.092  0.2036 -0.7963 -0.2397
  343MOL0     C46219   4.676   9.750   5.820  1.3808  1.0145  0.6908
  343MOL0     C46220   4.592   9.696   5.718 -0.1355 -0.3833  0.6131
  343MOL0     N46221   4.088   9.768   6.061 -0.0339  0.0403 -0.4101
  343MOL0     N46222   3.980   9.808   6.123 -0.0464  0.1843  0.6128
  343MOL0     C46223   3.660   8.739   6.767  0.2321  0.7304  0.4326
  343MOL0     C46224   3.696   8.610   6.802  0.0097 -0.8612  0.0973
  343MOL0     C46225   3.690   8.212   6.977  0.0972  0.5783 -0.3397
  343MOL0     C46226   3.781   8.169   7.068 -0.1387  0.6013  0.7333
  343MOL0     C46227   3.755   8.087   7.180  0.0891 -0.7526  0.1999
  343MOL0     C46228   3.620   8.060   7.203  0.7287  0.0494  0.1799
  343MOL0     O46229   3.574   7.992   7.318 -0.2186 -0.3100  0.1301
  343MOL0     C46230   3.666   7.942   7.413  0.1207  0.4792  0.4930
  343MOL0     C46231   3.601   7.846   7.509 -0.3738 -0.2823 -0.9996
  343MOL0     C46232   3.582   7.711   7.456  0.5687 -0.0230  0.8620
  343MOL0     C46233   3.697   7.634   7.380  0.2150  0.5270  0.2984
  343MOL0     C46234   3.811   7.633   7.471  0.1385  0.5027  0.0583
  343MOL0     C46235   3.904   7.604   7.548  0.8033  0.2159  1.0878
  343MOL0     C46236   3.514   8.097   7.109 -0.3046  0.8342  0.0599
  343MOL0     C46237   3.553   8.170   7.003 -0.0893 -0.6659  0.1934
  343MOL0     H46238   3.410   8.459   6.704 -1.0789 -0.1835  5.4491
  343MOL0     H46239   3.367   8.687   6.615 -0.7008 -1.2472  1.3231
  343MOL0     H46240   3.632   9.051   6.722  2.3660  1.0845 -0.7553
  343MOL0     H46241   3.701   8.934   6.598 -0.1246  1.0332 -0.9855
  343MOL0     H46242   3.613   9.029   6.424  1.1148 -2.7288  1.7948
  343MOL0     H46243   3.482   9.104   6.495  0.3542 -1.3388 -2.1476
  343MOL0     H46244   3.604   9.289   6.573  0.7299  0.2352  2.5318
  343MOL0     H46245   3.766   9.211   6.565  0.8182 -0.1189 -2.7617
  343MOL0     H46246   3.768   9.239   6.319  0.0597 -1.3218  0.5926
  343MOL0     H46247   3.596   9.277   6.323 -0.6844 -2.4626  2.0633
  343MOL0     H46248   3.619   9.472   6.438 -0.3520  0.9843 -0.3431
  343MOL0     H46249   3.797   9.463   6.466 -0.9559  2.3590 -1.2257
  343MOL0     H46250   3.849   9.487   6.244  0.0725 -0.9177 -0.3492
  343MOL0     H46251   3.684   9.486   6.184  3.0070 -2.2320 -2.6558
  343MOL0     H46252   3.625   9.682   6.318 -0.9753 -1.3836  0.7819
  343MOL0     H46253   3.796   9.695   6.367 -0.4335  2.6577 -0.4903
  343MOL0     H46254   3.721   9.850   6.151  0.4987  0.2400 -1.8413
  343MOL0     H46255   3.681   9.716   6.078  0.8193 -0.2513 -0.3549
  343MOL0     H46256   3.892   9.511   6.034  0.0227  0.2334  2.0735
  343MOL0     H46257   4.237   9.538   6.023 -0.3378 -2.2686  0.6890
  343MOL0     H46258   4.120   9.473   5.899 -1.9443  1.7302 -2.1524
  343MOL0     H46259   4.319   9.694   5.868 -0.5967 -0.7784  1.6557
  343MOL0     H46260   4.157   9.732   5.805 -0.3230 -0.3006 -0.6219
  343MOL0     H46261   4.138   9.530   5.674  1.1499 -0.9705 -0.7446
  343MOL0     H46262   4.309   9.490   5.707 -0.7988 -0.8634 -1.2463
  343MOL0     H46263   4.223   9.747   5.576 -0.5448  0.3706  3.9788
  343MOL0     H46264   4.269   9.597   5.487  2.1637 -2.3638  0.0225
  343MOL0     H46265   4.357   9.936   5.687 -1.2225 -0.3519  1.2402
  343MOL0     H46266   4.580  10.136   5.883 -0.0850 -1.1128  3.7492
  343MOL0     H46267   4.429  10.142   5.781 -0.7437 -0.5709 -0.5518
  343MOL0     H46268   4.433  10.069   5.942  1.5326  1.1003  0.6773
  343MOL0     H46269   4.754  10.210   6.009  0.8167  4.0502 -0.6436
  343MOL0     H46270   4.888  10.387   6.065 -2.0892 -0.6020  0.4134
  343MOL0     H46271   5.219  10.319   6.305  0.8153 -2.6661 -1.2418
  343MOL0     H46272   5.328  10.299   6.174 -0.2105  0.3965  0.1808
  343MOL0     H46273   5.228  10.574   6.255  0.6788  0.8844 -0.0172
  343MOL0     H46274   5.376  10.502   6.324  2.0997 -0.9352 -1.9546
  343MOL0     H46275   5.427  10.494   6.048 -2.6699  0.8170 -1.3459
  343MOL0     H46276   5.461  10.627   6.156  1.2170  0.0317 -1.1240
  343MOL0     H46277   5.210  10.626   5.983 -2.5423  0.9925  3.1226
  343MOL0     H46278   5.263  10.746   6.106  2.5462  3.7418 -3.4201
  343MOL0     H46279   5.287  10.796   5.872  2.6701  2.4579 -0.7120
  343MOL0     H46280   5.432  10.687   5.872  0.0914 -0.5201  0.7701
  343MOL0     H46281   5.405  10.928   6.065 -1.2576  0.4030 -2.5802
  343MOL0     H46282   5.515  10.794   6.074 -1.7849  0.6168  2.3498
  343MOL0     H46283   5.477  10.971   5.821  2.8354  1.0497 -0.3317
  343MOL0     H46284   5.610  10.869   5.861 -0.6217 -1.5918  0.3127
  343MOL0     H46285   5.697  11.083   5.902 -0.7626 -2.6937 -1.4869
  343MOL0     H46286   5.656  11.022   6.070 -1.1055 -2.1414 -0.0616
  343MOL0     H46287   5.232  10.137   6.078 -0.0376 -2.0339 -1.1562
  343MOL0     H46288   5.104   9.943   6.015  4.4279  1.6408 -2.0698
  343MOL0     H46289   4.759   9.689   5.854 -0.0445 -1.3190  0.2552
  343MOL0     H46290   4.608   9.595   5.682  0.8987 -0.7291  1.9662
  343MOL0     H46291   3.736   8.813   6.790  2.3455 -0.9735 -0.6971
  343MOL0     H46292   3.782   8.590   6.865  1.6079  0.7829 -1.4437
  343MOL0     H46293   3.882   8.209   7.064 -0.9642  2.6887 -0.8902
  343MOL0     H46294   3.821   8.048   7.257 -2.8113 -1.7768  2.3552
  343MOL0     H46295   3.756   7.899   7.367  0.9389 -0.5847  2.9093
  343MOL0     H46296   3.691   8.029   7.473 -3.2068  1.7898  0.1790
  343MOL0     H46297   3.507   7.898   7.530  1.0786  2.2698 -0.3679
  343MOL0     H46298   3.658   7.850   7.602 -0.7658  0.8636 -0.7905
  343MOL0     H46299   3.494   7.709   7.390  0.9489  0.2011  0.3405
  343MOL0     H46300   3.555   7.654   7.545  1.6368 -0.8482  0.6668
  343MOL0     H46301   3.730   7.683   7.288  0.1678  0.5879  0.3141
  343MOL0     H46302   3.668   7.531   7.360 -1.5087  1.5897 -3.5481
  343MOL0     H46303   3.974   7.590   7.627  0.0059 -2.4558  1.4167
  343MOL0     H46304   3.409   8.069   7.115 -0.2851 -0.0562 -2.4951
  343MOL0     H46305   3.464   8.202   6.949 -0.9984  1.2160  2.6424
  344MOL0     O46306   3.677   3.431   4.759 -0.0294  1.1915  0.4039
  344MOL0     C46307   3.775   3.458   4.691 -0.1407  0.4202 -0.0843
  344MOL0     O46308   3.760   3.524   4.570 -0.0319 -0.1822  0.7842
  344MOL0     C46309   3.628   3.550   4.531  0.1387  0.7550  0.6682
  344MOL0     C46310   3.563   3.463   4.439 -0.0979 -0.1452 -0.1937
  344MOL0     C46311   3.442   3.494   4.380  0.1385  0.1961 -1.2722
  344MOL0     C46312   3.364   3.606   4.412  0.0506 -0.8201  1.0456
  344MOL0     O46313   3.233   3.600   4.375 -0.2222 -0.0362 -0.4788
  344MOL0     C46314   3.136   3.666   4.454  0.0549 -0.6914 -0.6915
  344MOL0     C46315   2.998   3.642   4.395 -0.7782 -0.4852 -0.5347
  344MOL0     C46316   2.957   3.499   4.397  0.9253  0.7280 -0.1789
  344MOL0     C46317   2.816   3.478   4.373 -0.5458 -1.1200  0.3041
  344MOL0     C46318   2.794   3.337   4.313  0.7281 -0.5999  0.1853
  344MOL0     C46319   2.643   3.306   4.329 -0.6128  0.0866  0.1441
  344MOL0     C46320   2.612   3.173   4.268  0.6644  0.5486 -0.5875
  344MOL0     C46321   2.461   3.157   4.219 -0.7568 -0.0097  0.3577
  344MOL0     N46322   2.428   3.211   4.085  0.5520  0.1458 -0.3510
  344MOL0     C46323   2.303   3.246   4.039  0.1564  0.4067  0.5828
  344MOL0     C46324   2.322   3.257   3.902  1.0379 -1.1582  1.2206
  344MOL0     C46325   2.206   3.294   3.805 -0.6840 -0.4496  0.1843
  344MOL0     C46326   2.232   3.443   3.760 -0.6421 -0.6972 -0.1620
  344MOL0     C46327   2.240   3.566   3.855 -1.2097  0.7830  1.0005
  344MOL0     C46328   2.237   3.683   3.765 -0.6498 -0.8909  0.7450
  344MOL0     O46329   2.351   3.705   3.681 -0.3519  0.1237 -0.0840
  344MOL0     C46330   2.348   3.804   3.588 -0.5646  0.0932  0.8087
  344MOL0     C46331   2.428   3.915   3.601  0.1169 -0.3597 -0.3230
  344MOL0     C46332   2.439   4.009   3.500 -0.4594 -0.5907  0.3019
  344MOL0     C46333   2.549   4.117   3.517  0.5588 -0.4560  0.6708
  344MOL0     C46334   2.368   4.007   3.383  0.3319 -0.5209  0.2816
  344MOL0     C46335   2.373   4.113   3.279 -0.1270 -0.3622  0.0665
  344MOL0     O46336   2.270   4.194   3.265  0.1122 -0.1446 -0.1403
  344MOL0     C46337   2.277   4.276   3.161 -1.2777 -0.0998 -0.8894
  344MOL0     C46338   2.355   4.392   3.160 -0.8465 -0.2095 -0.0785
  344MOL0     C46339   2.354   4.464   3.043 -0.9014  0.3626 -0.2254
  344MOL0     C46340   2.274   4.434   2.935 -0.5757  0.5749 -0.2408
  344MOL0     O46341   2.297   4.516   2.824  1.1651  0.0290 -0.4167
  344MOL0     C46342   2.186   4.527   2.745  0.5050  0.0209 -0.0870
  344MOL0     C46343   2.205   4.655   2.649 -0.3521 -0.4177  1.1565
  344MOL0     C46344   2.337   4.655   2.578 -0.6992 -0.3112 -0.7982
  344MOL0     C46345   2.323   4.692   2.428 -0.3709  0.1926  0.7300
  344MOL0     C46346   2.455   4.699   2.354  0.4282  0.9512 -0.5377
  344MOL0     C46347   2.444   4.724   2.211 -0.1197  0.2620  0.2411
  344MOL0     C46348   2.575   4.760   2.156 -0.0022 -0.1762  0.4241
  344MOL0     C46349   2.560   4.783   2.008 -0.1878  0.4709 -0.0641
  344MOL0    Cl46350   2.445   4.903   1.967  0.2331  0.5689 -0.4679
  344MOL0     C46351   2.190   4.323   2.937  0.4178  1.2169 -0.5245
  344MOL0     C46352   2.207   4.239   3.048  0.5212  0.0576  1.0294
  344MOL0     O46353   2.473   4.104   3.209 -0.7229 -0.4974 -0.5142
  344MOL0     C46354   2.290   3.891   3.366 -0.1665 -0.1415  0.1525
  344MOL0     C46355   2.284   3.792   3.463  0.1943  0.0396 -0.0627
  344MOL0     N46356   2.448   3.227   3.870  0.5104  0.1403 -0.1579
  344MOL0     N46357   2.508   3.200   3.978  1.2441  0.4188  0.1117
  344MOL0     C46358   3.429   3.695   4.496  0.8845 -0.3442  0.0791
  344MOL0     C46359   3.552   3.671   4.566  0.5281 -0.3330  0.0054
  344MOL0     C46360   3.912   3.416   4.728  1.0949 -0.6499 -0.5091
  344MOL0     C46361   3.935   3.359   4.852  0.1607 -0.2880  0.3509
  344MOL0     C46362   4.061   3.310   4.885  0.2304  0.3013 -0.5745
  344MOL0     C46363   4.176   3.336   4.808 -0.0986 -0.8478  0.5196
  344MOL0     O46364   4.301   3.292   4.846  0.6916 -0.2158  0.5068
  344MOL0     C46365   4.408   3.305   4.745  0.1485  0.5855 -0.1506
  344MOL0     C46366   4.520   3.214   4.793 -0.4624 -0.2555  0.4768
  344MOL0     C46367   4.659   3.268   4.760  0.0893 -0.2754 -0.3865
  344MOL0     C46368   4.759   3.156   4.706 -0.1910  0.2386 -0.5812
  344MOL0     C46369   4.894   3.192   4.689 -1.2574 -0.0595  0.6186
  344MOL0     C46370   5.013   3.203   4.678 -0.5411 -0.2656 -0.0945
  344MOL0     C46371   4.151   3.403   4.687 -0.6932  0.6222 -0.4198
  344MOL0     C46372   4.026   3.430   4.646  0.9321  0.1748 -0.1871
  344MOL0     H46373   3.608   3.365   4.427 -0.1223 -0.3312  1.1605
  344MOL0     H46374   3.401   3.425   4.306 -2.3044  1.8114 -1.5384
  344MOL0     H46375   3.131   3.628   4.556  0.2211 -1.9139 -1.1214
  344MOL0     H46376   3.146   3.775   4.448  2.9193 -0.9101 -1.1662
  344MOL0     H46377   2.925   3.681   4.466 -0.1704  0.2219 -0.2838
  344MOL0     H46378   2.978   3.683   4.295 -0.9507  1.1232  0.1329
  344MOL0     H46379   3.028   3.447   4.331  0.2388  0.1494 -0.4783
  344MOL0     H46380   2.985   3.457   4.494  3.2826 -1.0169 -1.4962
  344MOL0     H46381   2.761   3.491   4.466 -2.3897  0.7218 -0.9342
  344MOL0     H46382   2.774   3.561   4.314  2.1267 -1.1085 -1.7614
  344MOL0     H46383   2.820   3.332   4.207  1.4408 -1.0426  0.3733
  344MOL0     H46384   2.854   3.272   4.377  0.8165  0.8372  1.6369
  344MOL0     H46385   2.612   3.306   4.434 -3.2385 -2.0542 -0.5250
  344MOL0     H46386   2.579   3.376   4.275  0.9094 -0.8018 -3.0479
  344MOL0     H46387   2.676   3.145   4.184 -1.8375 -1.7970 -1.8670
  344MOL0     H46388   2.630   3.099   4.346  2.6101 -2.2030 -3.3949
  344MOL0     H46389   2.400   3.202   4.299  3.1679  2.6707  2.1883
  344MOL0     H46390   2.448   3.049   4.226  2.2698 -0.3397  3.2167
  344MOL0     H46391   2.209   3.250   4.093 -2.0769 -2.4086 -2.6192
  344MOL0     H46392   2.191   3.216   3.731 -0.5040 -1.1684  0.8927
  344MOL0     H46393   2.115   3.296   3.866  1.3251 -3.1784  3.6391
  344MOL0     H46394   2.159   3.466   3.682  0.5461  0.9941 -0.8499
  344MOL0     H46395   2.329   3.433   3.709  0.3927 -0.1300  1.6054
  344MOL0     H46396   2.331   3.566   3.917  1.5056  4.2754 -2.4496
  344MOL0     H46397   2.151   3.574   3.917 -1.1868  0.8304  1.0272
  344MOL0     H46398   2.229   3.780   3.814 -3.6258 -0.5163 -0.2958
  344MOL0     H46399   2.147   3.683   3.703  0.0830  0.3051 -0.3719
  344MOL0     H46400   2.481   3.912   3.696  0.3252  0.8267 -0.3795
  344MOL0     H46401   2.514   4.217   3.491  4.6922  1.7033  2.4544
  344MOL0     H46402   2.591   4.100   3.617  0.2090 -0.1945  0.8654
  344MOL0     H46403   2.627   4.096   3.444 -0.6350  0.0952 -0.8003
  344MOL0     H46404   2.425   4.432   3.234  0.7116 -0.4007 -1.3850
  344MOL0     H46405   2.411   4.555   3.029 -0.8688  0.4028  0.1685
  344MOL0     H46406   2.167   4.438   2.684  2.6867  0.0295 -0.8798
  344MOL0     H46407   2.095   4.548   2.801 -0.6185 -0.8437 -1.5199
  344MOL0     H46408   2.122   4.661   2.578  0.6004  2.6556  0.1607
  344MOL0     H46409   2.197   4.743   2.713 -1.8756 -1.2189  2.1482
  344MOL0     H46410   2.393   4.562   2.595  2.2779  1.7631  1.7216
  344MOL0     H46411   2.400   4.734   2.620 -0.3108 -0.6540 -0.7288
  344MOL0     H46412   2.271   4.612   2.374 -0.2852 -0.5907  1.7749
  344MOL0     H46413   2.274   4.788   2.412  1.3459  0.9116 -0.4615
  344MOL0     H46414   2.517   4.609   2.361 -0.7791  0.1735  1.2651
  344MOL0     H46415   2.510   4.786   2.390 -2.0647  1.5629  2.2868
  344MOL0     H46416   2.404   4.636   2.161 -0.1381  1.0044 -1.1239
  344MOL0     H46417   2.375   4.807   2.189  1.6708  1.6162 -0.6027
  344MOL0     H46418   2.656   4.687   2.156  0.9577  0.8516 -0.1873
  344MOL0     H46419   2.592   4.860   2.199 -2.5869  1.6427 -2.3143
  344MOL0     H46420   2.531   4.689   1.960  2.5889 -0.1807 -0.6921
  344MOL0     H46421   2.654   4.806   1.957  1.8826  0.3534  3.3888
  344MOL0     H46422   2.116   4.307   2.859 -0.0899 -2.6238  0.5212
  344MOL0     H46423   2.141   4.153   3.049  1.2907 -0.5967 -0.4002
  344MOL0     H46424   2.243   3.866   3.272  0.5128  3.1458 -1.1693
  344MOL0     H46425   2.224   3.703   3.449  2.6049 -1.5730 -0.6282
  344MOL0     H46426   3.381   3.781   4.542  1.4794 -1.0581  2.1272
  344MOL0     H46427   3.584   3.728   4.653  0.6010 -0.1537 -0.1395
  344MOL0     H46428   3.849   3.338   4.916 -0.6569 -0.7901 -0.8750
  344MOL0     H46429   4.073   3.249   4.974  2.0348  2.1209  0.5275
  344MOL0     H46430   4.371   3.260   4.653 -0.6406 -0.4624  0.6502
  344MOL0     H46431   4.441   3.409   4.739 -0.8470  0.8063 -3.4600
  344MOL0     H46432   4.508   3.118   4.740 -0.2543 -0.4069  0.6995
  344MOL0     H46433   4.515   3.199   4.901 -1.4912  3.0343  0.9789
  344MOL0     H46434   4.702   3.312   4.851  0.5665  1.6061 -1.4729
  344MOL0     H46435   4.647   3.342   4.681  0.5622  1.7719  1.3793
  344MOL0     H46436   4.710   3.115   4.617 -0.5002 -0.4823 -0.0989
  344MOL0     H46437   4.750   3.072   4.776 -1.0977 -0.5695 -1.6210
  344MOL0     H46438   5.120   3.206   4.677 -0.5249 -0.8067 -0.0657
  344MOL0     H46439   4.224   3.446   4.620 -0.6032 -0.0047 -0.7327
  344MOL0     H46440   4.013   3.478   4.549  0.1387  1.7895  0.6966
  345MOL0     O46441   4.706   6.482   6.209  0.8560 -0.1187  0.0334
  345MOL0     C46442   4.820   6.441   6.232 -0.3217  0.6346  0.5545
  345MOL0     O46443   4.857   6.316   6.221 -0.4951  0.7670 -0.2708
  345MOL0     C46444   4.767   6.209   6.214 -0.5149 -1.2430 -0.9582
  345MOL0     C46445   4.654   6.203   6.301 -0.1697  0.6309  0.1139
  345MOL0     C46446   4.564   6.101   6.285  0.6990 -0.6678  0.2876
  345MOL0     C46447   4.570   6.012   6.179 -0.2260  0.6067 -0.8123
  345MOL0     O46448   4.484   5.908   6.174  0.8684 -0.4868  1.0249
  345MOL0     C46449   4.344   5.925   6.158  0.4115  0.8130 -1.1314
  345MOL0     C46450   4.303   5.918   6.003 -0.2557  0.4524  0.2160
  345MOL0     C46451   4.310   5.766   5.957 -0.3472  0.3886  0.0785
  345MOL0     C46452   4.252   5.756   5.813 -1.1656 -1.3721  0.5801
  345MOL0     C46453   4.238   5.611   5.765 -0.0109  0.4023 -0.6901
  345MOL0     C46454   4.163   5.606   5.634  0.0034  0.9081  0.1734
  345MOL0     C46455   4.158   5.462   5.584  0.5649 -0.0431 -0.0196
  345MOL0     C46456   4.089   5.449   5.443  0.0633  0.2325 -0.3074
  345MOL0     N46457   4.148   5.334   5.368 -0.0468 -0.4958  0.2111
  345MOL0     C46458   4.152   5.217   5.425 -0.6602 -0.8461 -0.9137
  345MOL0     C46459   4.221   5.149   5.336  0.5381 -0.2768  1.1200
  345MOL0     C46460   4.274   5.016   5.350 -0.1162  0.3861 -0.5891
  345MOL0     C46461   4.153   4.925   5.377  0.0800 -0.3538  1.2109
  345MOL0     C46462   4.203   4.791   5.416  0.6256  1.2179  0.1711
  345MOL0     C46463   4.106   4.669   5.401  0.4685 -1.2945 -0.4070
  345MOL0     O46464   4.177   4.568   5.466  0.6111  0.3141  0.0743
  345MOL0     C46465   4.160   4.441   5.425  0.3609 -0.0394  0.3940
  345MOL0     C46466   4.046   4.395   5.364 -0.2314  0.8585  0.4904
  345MOL0     C46467   4.025   4.262   5.332  0.9944  0.2475  0.9732
  345MOL0     C46468   3.895   4.234   5.255  0.9473  0.4955 -0.0958
  345MOL0     C46469   4.126   4.164   5.381 -0.0664 -0.3459 -0.8040
  345MOL0     C46470   4.111   4.023   5.366  0.6907 -0.3203  0.1223
  345MOL0     O46471   4.223   3.942   5.393  0.5210  0.8829  0.0543
  345MOL0     C46472   4.200   3.818   5.446 -0.1090 -0.3338 -0.2594
  345MOL0     C46473   4.312   3.729   5.433  0.5088 -0.6577 -0.0261
  345MOL0     C46474   4.307   3.602   5.485 -0.6809 -0.8930  0.1973
  345MOL0     C46475   4.212   3.567   5.576  0.0109 -0.6124  0.0146
  345MOL0     O46476   4.207   3.463   5.665  0.2035 -0.7217 -0.2233
  345MOL0     C46477   4.328   3.397   5.721 -0.5110 -0.2378 -0.5161
  345MOL0     C46478   4.284   3.307   5.835  0.0396 -0.4612 -0.5912
  345MOL0     C46479   4.196   3.184   5.807  0.1195  1.0522 -0.1980
  345MOL0     C46480   4.177   3.131   5.663  0.8802  0.7245  0.7636
  345MOL0     C46481   4.141   2.984   5.654  0.2508  0.9438 -0.0601
  345MOL0     C46482   4.134   2.945   5.504  0.8446 -0.5827  0.1897
  345MOL0     C46483   4.270   2.933   5.441 -0.5272 -0.1114 -0.3429
  345MOL0     C46484   4.260   2.849   5.319 -0.7373 -0.6385 -0.1431
  345MOL0    Cl46485   4.244   2.669   5.361 -0.0659 -0.0526  0.5431
  345MOL0     C46486   4.106   3.654   5.601  0.3107 -0.1975 -0.3187
  345MOL0     C46487   4.091   3.773   5.524  0.0491 -0.7266 -1.2449
  345MOL0     O46488   3.993   3.982   5.345  0.4660 -0.7319  0.1703
  345MOL0     C46489   4.224   4.213   5.457  0.1934 -0.4279 -0.0109
  345MOL0     C46490   4.251   4.346   5.477 -0.1540 -0.3923  0.4305
  345MOL0     N46491   4.253   5.225   5.226  0.1417 -0.2715  1.4725
  345MOL0     N46492   4.204   5.342   5.248 -0.5428  0.0035  0.3796
  345MOL0     C46493   4.683   6.028   6.091  0.7713  1.1254  0.0449
  345MOL0     C46494   4.787   6.121   6.110 -0.6861 -0.2628  1.0010
  345MOL0     C46495   4.918   6.521   6.310  0.2971 -0.4596  0.2374
  345MOL0     C46496   5.052   6.484   6.306 -0.1489  0.6119  1.1332
  345MOL0     C46497   5.147   6.564   6.364 -0.5059  0.3357  0.4701
  345MOL0     C46498   5.106   6.671   6.444  0.2928  0.1774  0.6583
  345MOL0     O46499   5.203   6.754   6.489 -0.5783 -0.2278 -0.4509
  345MOL0     C46500   5.171   6.882   6.543  0.3393 -1.1568 -0.7948
  345MOL0     C46501   5.121   6.879   6.688  0.3368 -0.4430 -0.4378
  345MOL0     C46502   5.228   6.809   6.769 -0.5734  0.3248  0.3629
  345MOL0     C46503   5.332   6.897   6.834  0.2942 -0.8948  0.3614
  345MOL0     C46504   5.295   6.981   6.950 -0.7887  0.1567  0.4531
  345MOL0     C46505   5.258   7.044   7.053  0.0343  0.1118 -0.3205
  345MOL0     C46506   4.967   6.704   6.455 -0.2506  0.8476  0.3815
  345MOL0     C46507   4.872   6.624   6.394  0.6999 -0.0994 -0.3300
  345MOL0     H46508   4.640   6.261   6.391  0.0053  2.2918 -0.8684
  345MOL0     H46509   4.488   6.073   6.357 -1.4719 -1.5261 -2.1656
  345MOL0     H46510   4.287   5.852   6.216  0.7855  0.6619 -0.9514
  345MOL0     H46511   4.320   6.022   6.202 -0.8064  0.6464 -1.3881
  345MOL0     H46512   4.196   5.943   5.998 -0.8679 -2.1293 -2.2932
  345MOL0     H46513   4.374   5.984   5.952  1.8513 -3.6658 -2.7390
  345MOL0     H46514   4.411   5.726   5.970 -1.1133 -1.1061  2.1467
  345MOL0     H46515   4.258   5.707   6.034  2.7698 -0.6627  1.5394
  345MOL0     H46516   4.153   5.801   5.815 -0.5998 -0.0866  0.3341
  345MOL0     H46517   4.308   5.804   5.732 -3.0242 -1.7184 -0.9953
  345MOL0     H46518   4.337   5.566   5.775 -0.0089  0.8466  2.4739
  345MOL0     H46519   4.175   5.568   5.844  3.1370 -0.8388  1.3954
  345MOL0     H46520   4.060   5.645   5.637 -0.6286 -0.7450  0.7909
  345MOL0     H46521   4.221   5.654   5.554  0.0683 -0.9730 -0.9649
  345MOL0     H46522   4.263   5.433   5.584  0.8715  0.9749  0.9578
  345MOL0     H46523   4.107   5.405   5.662 -0.5425  0.6744 -0.1884
  345MOL0     H46524   4.103   5.539   5.383 -0.4473  1.3660  1.2143
  345MOL0     H46525   3.981   5.432   5.444 -0.5966  3.2177 -3.7508
  345MOL0     H46526   4.105   5.185   5.517 -3.9202  1.7695 -1.4486
  345MOL0     H46527   4.341   4.980   5.271 -0.7326 -0.3272 -0.7928
  345MOL0     H46528   4.336   5.010   5.440  2.1779 -0.4956 -2.1452
  345MOL0     H46529   4.095   4.896   5.289  0.5413 -0.6181  0.9950
  345MOL0     H46530   4.096   4.963   5.463  0.6567  2.6113  0.4034
  345MOL0     H46531   4.234   4.805   5.520  0.0468 -1.8507  0.8469
  345MOL0     H46532   4.283   4.775   5.344  0.1379  2.4289 -0.6799
  345MOL0     H46533   4.071   4.653   5.299 -1.7479  1.6709 -0.2759
  345MOL0     H46534   4.014   4.695   5.456 -0.3340 -2.4102 -1.1922
  345MOL0     H46535   3.964   4.460   5.336 -2.9455 -0.9458  3.5995
  345MOL0     H46536   3.908   4.184   5.158  2.3634 -0.4403  0.5368
  345MOL0     H46537   3.819   4.187   5.318  0.8813 -1.2206 -1.3722
  345MOL0     H46538   3.847   4.328   5.230  1.2922 -0.0817 -3.4235
  345MOL0     H46539   4.398   3.754   5.372 -0.6531  0.7219 -1.1775
  345MOL0     H46540   4.394   3.541   5.462  2.3566  2.6554  1.3956
  345MOL0     H46541   4.382   3.337   5.647 -0.0152 -1.2596  0.6360
  345MOL0     H46542   4.394   3.476   5.756  0.2569  0.3832 -3.1770
  345MOL0     H46543   4.382   3.289   5.879  0.3930  1.9960 -0.1835
  345MOL0     H46544   4.230   3.363   5.912  1.3159 -2.6755  2.0490
  345MOL0     H46545   4.095   3.189   5.849 -1.2691 -2.3494 -2.7010
  345MOL0     H46546   4.256   3.105   5.852 -2.4168 -0.1428  1.2983
  345MOL0     H46547   4.100   3.185   5.608  0.9707  0.3002  0.2143
  345MOL0     H46548   4.273   3.156   5.617  1.6118  1.1514  2.4176
  345MOL0     H46549   4.043   2.983   5.703 -1.8292 -2.7680 -3.7242
  345MOL0     H46550   4.201   2.916   5.716  2.2437  2.2498 -0.4791
  345MOL0     H46551   4.082   2.849   5.495 -1.6360  0.1875  4.2190
  345MOL0     H46552   4.073   3.023   5.459 -0.0542  0.6450  3.3000
  345MOL0     H46553   4.334   2.885   5.516 -1.7742 -0.2135  0.6882
  345MOL0     H46554   4.313   3.033   5.425 -1.7419  0.5145  0.2081
  345MOL0     H46555   4.339   2.867   5.246 -0.1649 -2.8495 -0.1548
  345MOL0     H46556   4.176   2.892   5.264 -1.6603  0.5920  2.0924
  345MOL0     H46557   4.042   3.646   5.688  2.3941  3.0531  1.7408
  345MOL0     H46558   4.011   3.845   5.543  0.5469 -1.0550  3.0151
  345MOL0     H46559   4.303   4.150   5.497  0.5609  0.3049  0.4318
  345MOL0     H46560   4.337   4.389   5.527 -0.2827 -1.4161  1.5893
  345MOL0     H46561   4.699   5.951   6.017 -0.1667  1.7601 -0.8480
  345MOL0     H46562   4.877   6.141   6.052  0.3681 -1.4639  2.1630
  345MOL0     H46563   5.081   6.399   6.245 -1.7300  1.5573 -1.0492
  345MOL0     H46564   5.255   6.559   6.349  0.2020  0.2999  4.4321
  345MOL0     H46565   5.269   6.929   6.555  0.7415 -2.1130 -0.1884
  345MOL0     H46566   5.097   6.942   6.490 -1.6635 -2.6785  0.1662
  345MOL0     H46567   5.017   6.850   6.706  0.5758 -0.2304  1.4476
  345MOL0     H46568   5.130   6.979   6.731 -1.4733  0.0953 -1.2087
  345MOL0     H46569   5.279   6.739   6.703 -1.3278  2.1093 -2.2654
  345MOL0     H46570   5.175   6.746   6.841  0.9302 -2.2148 -0.6381
  345MOL0     H46571   5.365   6.964   6.754  0.0176  0.9087  1.6861
  345MOL0     H46572   5.411   6.825   6.859  0.0062 -1.9460 -1.5912
  345MOL0     H46573   5.237   7.097   7.144  4.0942  0.7510  0.4493
  345MOL0     H46574   4.938   6.779   6.529 -1.7100 -2.0623  3.0151
  345MOL0     H46575   4.766   6.646   6.408  0.4324  0.9350 -3.2332
  346MOL0     O46576  11.011   8.531   0.903 -0.8639 -0.2937  0.5552
  346MOL0     C46577  11.064   8.543   0.790  0.4341 -0.6373 -0.0287
  346MOL0     O46578  11.003   8.617   0.690  0.4807 -0.3484 -0.0426
  346MOL0     C46579  10.876   8.681   0.706 -0.5619  1.0286 -0.4057
  346MOL0     C46580  10.870   8.818   0.671  0.4227  0.1949  0.0381
  346MOL0     C46581  10.746   8.878   0.669  0.2333 -0.2954  0.9835
  346MOL0     C46582  10.629   8.823   0.724 -0.5352  0.3195 -0.0136
  346MOL0     O46583  10.518   8.898   0.706 -0.0444  0.2780  0.7157
  346MOL0     C46584  10.387   8.840   0.737 -0.1248  0.4751 -0.0105
  346MOL0     C46585  10.273   8.928   0.697  0.5554  0.2881 -0.4917
  346MOL0     C46586  10.275   9.062   0.782  0.0709  0.3566  0.4294
  346MOL0     C46587  10.217   9.038   0.925 -0.0316  0.6858  1.3909
  346MOL0     C46588  10.273   9.117   1.036  0.5246 -0.8374 -0.3086
  346MOL0     C46589  10.203   9.082   1.168  0.2366 -0.4450 -0.3787
  346MOL0     C46590  10.205   9.201   1.271  0.0510 -0.7485 -0.1221
  346MOL0     C46591  10.339   9.263   1.290  0.0597  1.1890  0.6163
  346MOL0     N46592  10.372   9.286   1.435 -0.5542  1.5017 -0.2707
  346MOL0     C46593  10.477   9.229   1.502  0.6221  0.5143  0.4007
  346MOL0     C46594  10.455   9.268   1.630 -0.1758  0.1297  0.2822
  346MOL0     C46595  10.545   9.256   1.753  0.6418  0.2134  1.4846
  346MOL0     C46596  10.641   9.127   1.735 -0.1459 -0.1920 -0.0370
  346MOL0     C46597  10.581   8.987   1.700 -0.4185  0.7775  0.0111
  346MOL0     C46598  10.490   8.929   1.805  0.7248  0.7265 -0.2191
  346MOL0     O46599  10.515   8.791   1.843  0.4576  0.2090  0.1499
  346MOL0     C46600  10.455   8.740   1.954  0.6580  0.7764 -0.3516
  346MOL0     C46601  10.362   8.813   2.025  1.1500 -0.2990 -0.0559
  346MOL0     C46602  10.302   8.761   2.144 -0.2183  1.4163  0.0985
  346MOL0     C46603  10.226   8.842   2.240  0.1965 -1.2735  0.4216
  346MOL0     C46604  10.340   8.630   2.180  0.5487 -0.0666 -0.9249
  346MOL0     C46605  10.298   8.569   2.310  0.2216  0.0400  0.4380
  346MOL0     O46606  10.203   8.485   2.324  0.2000 -0.5939 -0.6154
  346MOL0     C46607  10.101   8.478   2.225 -0.0553  0.4990 -0.2863
  346MOL0     C46608  10.104   8.381   2.128  0.8906  0.0559 -1.2179
  346MOL0     C46609  10.031   8.391   2.012 -0.1309  0.2259  0.5290
  346MOL0     C46610   9.917   8.472   2.017 -0.3222  0.5892 -0.2936
  346MOL0     O46611   9.821   8.459   1.916 -0.5324 -0.2058 -0.9225
  346MOL0     C46612   9.687   8.464   1.953  0.0554  0.0114  0.2575
  346MOL0     C46613   9.589   8.444   1.835 -0.5157  0.4465 -0.2520
  346MOL0     C46614   9.521   8.570   1.780 -0.5250 -0.8843  0.1196
  346MOL0     C46615   9.632   8.656   1.722  0.6478  0.5456 -1.2044
  346MOL0     C46616   9.596   8.788   1.650 -1.0837  0.0284  0.0369
  346MOL0     C46617   9.726   8.871   1.617 -0.6466  0.8546  0.3079
  346MOL0     C46618   9.700   8.984   1.506 -0.7788  0.4436 -0.6503
  346MOL0     C46619   9.818   9.065   1.496 -0.6328 -0.6017  0.6961
  346MOL0    Cl46620   9.918   9.005   1.359 -0.5457  0.2990 -0.1279
  346MOL0     C46621   9.903   8.562   2.121  0.8604  0.4425  0.6904
  346MOL0     C46622   9.988   8.560   2.229 -0.2661  0.1318 -0.2637
  346MOL0     O46623  10.381   8.597   2.401 -0.6377  0.1391  0.2448
  346MOL0     C46624  10.420   8.556   2.095 -0.3863 -0.5774 -0.0913
  346MOL0     C46625  10.477   8.606   1.983  1.3084  1.0564 -0.6008
  346MOL0     N46626  10.341   9.342   1.636 -0.4498 -0.3380  0.6253
  346MOL0     N46627  10.295   9.364   1.513  0.1852  0.8271 -1.0155
  346MOL0     C46628  10.641   8.687   0.763  0.4357 -0.1703 -0.3118
  346MOL0     C46629  10.758   8.618   0.754 -1.3625  0.6554  0.5315
  346MOL0     C46630  11.189   8.483   0.747 -1.1535 -0.4522  0.3805
  346MOL0     C46631  11.256   8.507   0.624 -0.0700 -0.4533 -0.0377
  346MOL0     C46632  11.383   8.452   0.604 -1.2224  0.2669 -0.2597
  346MOL0     C46633  11.446   8.375   0.694 -0.2408  0.6551 -0.6981
  346MOL0     O46634  11.565   8.319   0.659 -0.4404 -0.6179  0.1262
  346MOL0     C46635  11.626   8.227   0.754 -0.0372  0.1649 -0.7785
  346MOL0     C46636  11.739   8.158   0.685  0.1081 -0.1315  0.3298
  346MOL0     C46637  11.693   8.082   0.558  0.3755  0.3153 -0.3777
  346MOL0     C46638  11.566   8.001   0.568 -0.4813  0.4817 -0.3349
  346MOL0     C46639  11.594   7.871   0.640 -0.3855 -1.1945 -0.7378
  346MOL0     C46640  11.595   7.765   0.695  0.4726  0.7135  0.2371
  346MOL0     C46641  11.381   8.359   0.820  0.1423  0.2794 -0.1453
  346MOL0     C46642  11.261   8.414   0.839 -0.3080 -1.0929 -1.0456
  346MOL0     H46643  10.958   8.866   0.630 -1.2447  0.9751 -3.0066
  346MOL0     H46644  10.746   8.981   0.633 -1.5802  0.1426  2.0973
  346MOL0     H46645  10.379   8.746   0.682 -3.5845  1.5340 -1.5738
  346MOL0     H46646  10.369   8.804   0.839  0.0877  2.5441  0.8026
  346MOL0     H46647  10.268   8.944   0.589  0.8990  0.1989 -0.5225
  346MOL0     H46648  10.180   8.872   0.712 -0.4359  1.4462 -2.0151
  346MOL0     H46649  10.380   9.093   0.771  0.2993 -0.7719 -0.9350
  346MOL0     H46650  10.212   9.138   0.734  1.1612 -0.7346 -3.0605
  346MOL0     H46651  10.110   9.061   0.918 -0.1331 -0.0390  0.2128
  346MOL0     H46652  10.222   8.931   0.947 -2.4664  0.0790 -0.4664
  346MOL0     H46653  10.379   9.092   1.042  0.1615 -2.2480  1.1740
  346MOL0     H46654  10.261   9.219   1.000  1.4658 -1.2118 -1.7906
  346MOL0     H46655  10.098   9.068   1.138 -0.7365  4.1394  0.1172
  346MOL0     H46656  10.248   8.992   1.210 -1.5063 -1.0082  0.3655
  346MOL0     H46657  10.148   9.283   1.225  1.2946  0.3021  0.1489
  346MOL0     H46658  10.152   9.171   1.361 -3.4109 -1.0698 -2.0758
  346MOL0     H46659  10.336   9.350   1.223  2.9671  0.1073 -1.0971
  346MOL0     H46660  10.420   9.196   1.260 -1.2294 -0.3856  0.4955
  346MOL0     H46661  10.548   9.158   1.462 -2.0078 -1.6087 -0.8303
  346MOL0     H46662  10.602   9.349   1.760 -1.1458  2.0421 -3.6598
  346MOL0     H46663  10.474   9.244   1.836 -2.5564 -1.3467 -1.2193
  346MOL0     H46664  10.684   9.118   1.835 -2.1145 -0.9443  0.7870
  346MOL0     H46665  10.721   9.167   1.672  0.7112 -1.1782  0.4048
  346MOL0     H46666  10.670   8.925   1.702 -0.3329  0.8403  2.8890
  346MOL0     H46667  10.532   8.980   1.602 -0.7618  1.8635  0.0921
  346MOL0     H46668  10.387   8.957   1.782  0.0741  0.0392  1.6522
  346MOL0     H46669  10.517   8.977   1.900  0.3070  0.5889 -0.0272
  346MOL0     H46670  10.333   8.912   1.991 -0.0697 -0.5996  0.0600
  346MOL0     H46671  10.215   8.945   2.206  1.5928 -0.0359  3.3524
  346MOL0     H46672  10.125   8.804   2.259  0.2356 -1.8138 -0.3904
  346MOL0     H46673  10.283   8.858   2.332 -1.6559  3.0656  1.0661
  346MOL0     H46674  10.187   8.313   2.148 -0.6450 -1.6141 -0.1722
  346MOL0     H46675  10.038   8.328   1.925 -1.4543  1.2004 -0.3246
  346MOL0     H46676   9.677   8.378   2.020  4.3909 -1.2753 -0.4213
  346MOL0     H46677   9.646   8.556   1.996 -2.1261  0.9452 -3.4052
  346MOL0     H46678   9.645   8.397   1.754 -2.7834  1.6575 -2.6842
  346MOL0     H46679   9.519   8.365   1.865  0.2711  0.3756  1.5323
  346MOL0     H46680   9.473   8.617   1.867  0.9732  1.4458 -0.2239
  346MOL0     H46681   9.444   8.547   1.706 -2.3669  2.4466  0.8142
  346MOL0     H46682   9.702   8.668   1.804 -2.0681 -0.1898  1.4059
  346MOL0     H46683   9.678   8.593   1.645  0.7362 -0.1841 -0.5621
  346MOL0     H46684   9.536   8.843   1.724 -3.6624 -1.4068 -0.8307
  346MOL0     H46685   9.544   8.765   1.557  0.0608 -2.6230 -0.0309
  346MOL0     H46686   9.773   8.922   1.701 -1.1612  4.2960 -1.3111
  346MOL0     H46687   9.805   8.808   1.574 -0.8780  1.1731 -0.6200
  346MOL0     H46688   9.620   9.048   1.545  2.1571  3.0289  1.6965
  346MOL0     H46689   9.669   8.947   1.408  5.9374  1.9260 -3.9188
  346MOL0     H46690   9.874   9.076   1.589 -1.4071 -3.3268  1.5925
  346MOL0     H46691   9.787   9.166   1.469 -0.3709 -0.5427  0.6072
  346MOL0     H46692   9.817   8.628   2.129  1.1385  0.6809  2.0379
  346MOL0     H46693   9.971   8.638   2.303 -5.6380 -1.3776  0.4823
  346MOL0     H46694  10.435   8.455   2.132  0.3696  0.5615  2.9487
  346MOL0     H46695  10.539   8.555   1.911 -1.1611 -1.8243 -0.8967
  346MOL0     H46696  10.552   8.636   0.799 -0.3453  2.9790  2.7042
  346MOL0     H46697  10.757   8.510   0.768 -3.6674  0.4318 -0.8226
  346MOL0     H46698  11.211   8.572   0.549 -0.0807  1.0591  1.2215
  346MOL0     H46699  11.437   8.471   0.512 -1.2183  1.3210 -0.0495
  346MOL0     H46700  11.664   8.284   0.840  1.3569  2.5548 -2.8220
  346MOL0     H46701  11.550   8.163   0.800  1.6693 -0.1438  1.8537
  346MOL0     H46702  11.772   8.075   0.749 -2.0536 -1.2926  0.0229
  346MOL0     H46703  11.830   8.215   0.664  1.5885 -2.0141  1.2575
  346MOL0     H46704  11.785   8.030   0.531  0.4587  1.7937 -3.2901
  346MOL0     H46705  11.674   8.162   0.486 -1.4150  0.1340 -0.1446
  346MOL0     H46706  11.544   7.977   0.463  1.2444  0.7326 -0.7947
  346MOL0     H46707  11.483   8.052   0.617  0.3212  1.4906  0.0071
  346MOL0     H46708  11.590   7.673   0.750  1.2240  2.2349  3.0385
  346MOL0     H46709  11.428   8.288   0.887  0.4048 -0.4383 -1.0674
  346MOL0     H46710  11.220   8.399   0.939  1.5751  0.7920  0.0865
  347MOL0     O46711   8.741   9.729   2.235  0.1867  0.4307  0.0860
  347MOL0     C46712   8.774   9.826   2.311 -0.5832  1.2354 -0.5214
  347MOL0     O46713   8.836   9.933   2.270  0.0015 -0.1652 -0.1374
  347MOL0     C46714   8.872   9.952   2.136  0.5995 -0.0611 -1.0498
  347MOL0     C46715   8.835  10.066   2.073  0.4919 -0.5716 -0.1224
  347MOL0     C46716   8.879  10.114   1.954  0.0610 -0.2703 -0.7340
  347MOL0     C46717   8.973  10.026   1.885  0.1900  0.5186  0.0501
  347MOL0     O46718   9.030  10.051   1.768  0.0321  0.5837 -0.4435
  347MOL0     C46719   9.043  10.186   1.722 -0.1998  0.6707 -1.1143
  347MOL0     C46720   9.125  10.195   1.603  0.2582 -0.0483  0.5298
  347MOL0     C46721   9.274  10.201   1.641 -0.4588 -0.4344 -0.5045
  347MOL0     C46722   9.357  10.234   1.516  0.1617  0.5115 -0.0346
  347MOL0     C46723   9.506  10.246   1.539 -0.2004  0.0751  0.3199
  347MOL0     C46724   9.550  10.327   1.663 -1.1077 -0.8795 -1.2770
  347MOL0     C46725   9.705  10.340   1.659  0.1051 -0.3488 -0.3418
  347MOL0     C46726   9.752  10.429   1.771 -1.2710  0.5082  1.1000
  347MOL0     N46727   9.893  10.472   1.764  0.7772 -0.7064  0.5949
  347MOL0     C46728   9.997  10.389   1.737 -0.4611 -0.0625  0.0870
  347MOL0     C46729  10.104  10.457   1.796  0.4721  0.6796  0.7682
  347MOL0     C46730  10.249  10.404   1.769 -0.7378 -0.4931 -0.4809
  347MOL0     C46731  10.310  10.464   1.644 -0.5291  0.2930  1.5534
  347MOL0     C46732  10.422  10.360   1.598  0.5192 -0.2873  0.3976
  347MOL0     C46733  10.551  10.439   1.540  0.2967  0.6124  0.8920
  347MOL0     O46734  10.528  10.441   1.401  0.0715  0.6567 -0.5957
  347MOL0     C46735  10.625  10.412   1.310 -0.0314  0.4283  0.5550
  347MOL0     C46736  10.752  10.451   1.333 -0.3829 -0.4060  0.7546
  347MOL0     C46737  10.857  10.423   1.239  0.0648  0.5753 -0.4861
  347MOL0     C46738  10.994  10.469   1.281 -0.0674  0.3689  0.7249
  347MOL0     C46739  10.828  10.340   1.126 -0.5635 -0.2309 -0.4528
  347MOL0     C46740  10.936  10.316   1.022  0.4050 -0.0448 -0.1817
  347MOL0     O46741  11.044  10.389   1.007 -0.3336 -0.2588 -0.4940
  347MOL0     C46742  11.148  10.338   0.927 -1.2602  0.3289 -1.2604
  347MOL0     C46743  11.179  10.375   0.793  0.0164  0.6047 -0.4028
  347MOL0     C46744  11.290  10.327   0.721 -0.0938 -0.9244  0.2110
  347MOL0     C46745  11.384  10.242   0.782 -0.0438 -0.3653  0.5954
  347MOL0     O46746  11.482  10.185   0.711 -0.2221  0.3635  1.2341
  347MOL0     C46747  11.530  10.053   0.732  0.8644 -0.2820 -0.5241
  347MOL0     C46748  11.636  10.030   0.626 -0.2971  0.6051 -0.2105
  347MOL0     C46749  11.692   9.895   0.651 -0.6718 -0.6056 -0.3866
  347MOL0     C46750  11.814   9.895   0.749 -0.8321 -1.1916 -0.5019
  347MOL0     C46751  11.871   9.754   0.799 -0.3653 -0.6253  0.4236
  347MOL0     C46752  11.983   9.686   0.727  0.4278 -0.4430 -0.2038
  347MOL0     C46753  12.109   9.703   0.809 -1.0656  0.2669  0.1518
  347MOL0     C46754  12.166   9.847   0.814  0.2446  0.4527  0.2601
  347MOL0    Cl46755  12.223   9.911   0.652  0.1610 -0.0368  0.2836
  347MOL0     C46756  11.351  10.198   0.907 -0.2067  0.1439  0.7947
  347MOL0     C46757  11.235  10.246   0.979  0.5683 -0.6596 -0.0040
  347MOL0     O46758  10.914  10.214   0.962 -0.6656  0.7682  0.6140
  347MOL0     C46759  10.700  10.300   1.098  0.0065  0.4684 -0.6594
  347MOL0     C46760  10.597  10.329   1.195  0.4341  0.0559 -0.2598
  347MOL0     N46761  10.065  10.579   1.857  1.0123 -0.3787 -0.2569
  347MOL0     N46762   9.935  10.582   1.835 -0.3181 -0.5779  0.4973
  347MOL0     C46763   9.004   9.897   1.936  0.5962  0.7757 -0.2440
  347MOL0     C46764   8.961   9.862   2.068 -0.0074  0.2261 -1.5601
  347MOL0     C46765   8.750   9.810   2.452  0.9109  0.7785 -1.0310
  347MOL0     C46766   8.672   9.702   2.507  0.4437  0.1757  0.9961
  347MOL0     C46767   8.644   9.697   2.646 -0.0289  0.4761 -0.7202
  347MOL0     C46768   8.707   9.795   2.725  0.7135  0.2089  0.6882
  347MOL0     O46769   8.701   9.795   2.859  0.2835 -1.0784  0.3236
  347MOL0     C46770   8.603   9.719   2.926  0.4709  0.0147 -1.2634
  347MOL0     C46771   8.575   9.749   3.074 -0.6630 -0.5119  0.5904
  347MOL0     C46772   8.556   9.893   3.115 -0.0226 -0.2142 -0.7606
  347MOL0     C46773   8.463   9.911   3.234  0.4183 -0.5506  0.1160
  347MOL0     C46774   8.414  10.055   3.241 -0.5135  0.1312  0.3488
  347MOL0     C46775   8.408  10.168   3.256  0.1957 -0.7721 -0.5415
  347MOL0     C46776   8.773   9.898   2.673  0.3442 -0.6715  0.6964
  347MOL0     C46777   8.792   9.909   2.542  0.0132  0.2534  0.1839
  347MOL0     H46778   8.768  10.131   2.127  2.5763  0.4625  1.3535
  347MOL0     H46779   8.838  10.210   1.924 -3.9354 -1.4098  0.4962
  347MOL0     H46780   8.943  10.229   1.715 -1.2990 -0.8384  2.7197
  347MOL0     H46781   9.082  10.244   1.807  1.9167  0.4512 -1.8646
  347MOL0     H46782   9.087  10.113   1.541 -3.4366  1.5855  0.4085
  347MOL0     H46783   9.111  10.291   1.552  2.1434  0.2915  0.5717
  347MOL0     H46784   9.291  10.284   1.710  5.4946 -1.7453  0.1033
  347MOL0     H46785   9.304  10.110   1.693  2.3507 -1.0642 -2.9593
  347MOL0     H46786   9.344  10.148   1.448  1.2800 -0.0420  0.4289
  347MOL0     H46787   9.300  10.320   1.480 -0.9174  0.3107  1.1255
  347MOL0     H46788   9.552  10.147   1.539  1.8066  0.9573 -0.0867
  347MOL0     H46789   9.558  10.291   1.454 -0.3668 -0.4627 -0.0730
  347MOL0     H46790   9.510  10.429   1.658  1.4793  0.4778  1.8816
  347MOL0     H46791   9.526  10.291   1.764 -0.3162  4.4100  1.1758
  347MOL0     H46792   9.741  10.237   1.664 -3.9954 -2.0325 -1.2549
  347MOL0     H46793   9.732  10.380   1.561 -1.9302 -1.6176 -1.5257
  347MOL0     H46794   9.736  10.367   1.860  1.8150 -0.7892  0.9016
  347MOL0     H46795   9.683  10.513   1.777 -0.8904  1.1100 -1.8576
  347MOL0     H46796  10.007  10.293   1.686  3.1381  1.0731 -1.7514
  347MOL0     H46797  10.308  10.429   1.858  0.4827 -2.8266 -0.5505
  347MOL0     H46798  10.242  10.295   1.759 -1.3957 -0.5571  0.5239
  347MOL0     H46799  10.340  10.565   1.672  2.7431  0.3159 -1.3825
  347MOL0     H46800  10.233  10.476   1.568 -0.8045  0.2320  1.8201
  347MOL0     H46801  10.376  10.293   1.525 -1.1264  0.8532  0.3419
  347MOL0     H46802  10.471  10.299   1.675 -0.2149 -1.1265  0.2121
  347MOL0     H46803  10.642  10.385   1.569  0.6331  1.1101  0.7889
  347MOL0     H46804  10.566  10.542   1.574  0.6006  0.3472  1.5909
  347MOL0     H46805  10.758  10.511   1.423 -2.2583 -1.6571  1.7906
  347MOL0     H46806  11.074  10.401   1.249  0.3516 -0.4877  3.3115
  347MOL0     H46807  11.012  10.567   1.234 -2.2276  1.4999  2.1101
  347MOL0     H46808  10.998  10.458   1.390 -0.2462 -0.0400  0.6912
  347MOL0     H46809  11.104  10.444   0.755  0.1065  1.1732  0.4239
  347MOL0     H46810  11.306  10.371   0.624  2.4535  1.0514  1.4014
  347MOL0     H46811  11.568  10.043   0.834 -2.1803 -0.7377  0.6721
  347MOL0     H46812  11.454   9.975   0.718 -0.1476  0.5680  0.0719
  347MOL0     H46813  11.592  10.029   0.526 -3.8936  0.5803  1.2061
  347MOL0     H46814  11.725  10.092   0.640  0.6931 -0.8238  0.0385
  347MOL0     H46815  11.712   9.832   0.564 -0.4233 -0.4053 -0.4727
  347MOL0     H46816  11.612   9.830   0.687 -3.6874  2.1771 -1.5489
  347MOL0     H46817  11.892   9.954   0.701 -1.8049  0.6470  0.1004
  347MOL0     H46818  11.784   9.950   0.839 -1.9076 -0.7553 -1.1097
  347MOL0     H46819  11.784   9.695   0.827 -1.4056  0.9925  0.7722
  347MOL0     H46820  11.918   9.776   0.895  0.3781  0.5762 -0.1884
  347MOL0     H46821  11.961   9.579   0.731  1.8995 -0.8680 -2.0776
  347MOL0     H46822  11.989   9.719   0.623  0.8513  0.5831  0.1305
  347MOL0     H46823  12.181   9.638   0.759 -2.1252 -1.6349  0.9940
  347MOL0     H46824  12.092   9.658   0.907 -0.4035 -3.5583 -1.3191
  347MOL0     H46825  12.251   9.843   0.882  1.6659  1.9818 -1.3219
  347MOL0     H46826  12.088   9.906   0.864 -1.0044 -0.2321 -0.8127
  347MOL0     H46827  11.413  10.121   0.953 -0.5868 -0.8380 -0.3097
  347MOL0     H46828  11.225  10.215   1.082  2.4201 -1.3081  0.0161
  347MOL0     H46829  10.684  10.243   1.007  0.4743 -0.6958 -0.0303
  347MOL0     H46830  10.495  10.293   1.201  0.3830  0.4116  1.2513
  347MOL0     H46831   9.085   9.837   1.896  0.3169  1.0635 -1.2648
  347MOL0     H46832   9.006   9.778   2.119  0.6855 -0.0158 -2.5453
  347MOL0     H46833   8.609   9.641   2.443  0.1349  1.8948 -0.4193
  347MOL0     H46834   8.583   9.613   2.678  0.5261 -0.4859 -2.0676
  347MOL0     H46835   8.514   9.716   2.863  2.8411 -1.6286 -4.8471
  347MOL0     H46836   8.630   9.613   2.917  2.0252  0.4961 -2.9230
  347MOL0     H46837   8.650   9.705   3.141  3.8748  2.3847 -2.0109
  347MOL0     H46838   8.480   9.700   3.098  0.2438 -2.5764  0.2147
  347MOL0     H46839   8.498   9.944   3.037 -3.2847  0.7160  2.0236
  347MOL0     H46840   8.651   9.946   3.128 -1.3211  1.6735  1.7591
  347MOL0     H46841   8.500   9.887   3.335 -0.2094 -0.7465  0.3096
  347MOL0     H46842   8.366   9.863   3.221 -0.2888  0.7956  0.2584
  347MOL0     H46843   8.414  10.275   3.250 -2.2563 -0.6494 -2.4421
  347MOL0     H46844   8.817   9.970   2.742  3.5939 -0.0888 -1.7459
  347MOL0     H46845   8.842   9.994   2.495 -1.8224  1.3829  0.1860
  348MOL0     O46846   1.050   5.571  10.344 -1.1634  0.6528 -0.2369
  348MOL0     C46847   0.998   5.663  10.406  0.5153  0.6195  0.0510
  348MOL0     O46848   1.055   5.779  10.447  0.0375  0.1701  0.5774
  348MOL0     C46849   1.195   5.793  10.443  1.1971  0.1987 -0.2736
  348MOL0     C46850   1.272   5.744  10.337 -0.0458  0.3127  1.0451
  348MOL0     C46851   1.415   5.725  10.342  1.0064 -0.7541  0.2280
  348MOL0     C46852   1.488   5.779  10.456  0.3224  0.1002  1.2266
  348MOL0     O46853   1.625   5.771  10.469 -0.4048 -0.1543 -0.6794
  348MOL0     C46854   1.685   5.659  10.402 -0.2370  0.0583  0.8002
  348MOL0     C46855   1.835   5.651  10.427 -0.5744  0.0025  0.4444
  348MOL0     C46856   1.926   5.570  10.337 -0.9328 -0.4716  0.4384
  348MOL0     C46857   2.059   5.522  10.410  0.2996 -0.8516  0.1613
  348MOL0     C46858   2.147   5.437  10.322 -0.1040  1.3163  0.0228
  348MOL0     C46859   2.082   5.305  10.282  0.2046 -0.4662 -0.4261
  348MOL0     C46860   2.022   5.201  10.382 -0.1248 -1.0485 -0.0423
  348MOL0     C46861   1.964   5.072  10.318 -0.6156 -0.0573 -0.1711
  348MOL0     N46862   1.859   5.014  10.410  0.0767 -0.1738 -0.4371
  348MOL0     C46863   1.729   4.975  10.385 -0.3103 -0.0728  1.1860
  348MOL0     C46864   1.695   4.916  10.498  0.8270 -0.0440  0.4202
  348MOL0     C46865   1.561   4.850  10.510 -0.6278 -0.0857 -0.0122
  348MOL0     C46866   1.574   4.698  10.500 -0.6967  0.1811  0.3692
  348MOL0     C46867   1.446   4.622  10.506  1.0011  0.2620 -0.8718
  348MOL0     C46868   1.465   4.480  10.458  0.1575 -0.1148 -0.1501
  348MOL0     O46869   1.527   4.419  10.576  0.8476 -0.6833  0.0976
  348MOL0     C46870   1.596   4.302  10.557 -0.4847 -0.0809  0.2292
  348MOL0     C46871   1.691   4.281  10.453 -0.6237  0.2342 -0.1401
  348MOL0     C46872   1.767   4.163  10.448  0.0322  0.1860  0.3679
  348MOL0     C46873   1.874   4.160  10.343 -0.2173 -0.4846 -0.7614
  348MOL0     C46874   1.739   4.056  10.544  0.1018  0.3301  1.0991
  348MOL0     C46875   1.820   3.929  10.554  0.6614 -0.1622 -0.8401
  348MOL0     O46876   1.816   3.865  10.669 -0.7694 -0.3507  0.1730
  348MOL0     C46877   1.895   3.753  10.689  0.0689  0.5431  0.7944
  348MOL0     C46878   2.023   3.759  10.747 -0.4080  0.1434 -0.1178
  348MOL0     C46879   2.088   3.633  10.775 -0.0339  0.6818  0.6904
  348MOL0     C46880   2.037   3.509  10.743 -0.6726  1.1956  0.0736
  348MOL0     O46881   2.105   3.382  10.749  0.2998 -0.1964  0.2450
  348MOL0     C46882   2.249   3.376  10.770  0.0164  0.2914  0.3425
  348MOL0     C46883   2.247   3.345  10.912  0.2690  0.3906  0.0877
  348MOL0     C46884   2.367   3.267  10.971 -0.4213 -0.5905  0.8694
  348MOL0     C46885   2.486   3.376  10.973  0.6288 -0.4308  0.4930
  348MOL0     C46886   2.589   3.315  11.063  1.1635  1.0284  0.7821
  348MOL0     C46887   2.684   3.211  10.981  0.1142  0.8344  0.7706
  348MOL0     C46888   2.781   3.289  10.893 -1.2897  0.5029  0.5620
  348MOL0     C46889   2.927   3.232  10.910 -0.2252  0.4160 -0.4677
  348MOL0    Cl46890   2.938   3.066  10.856 -0.2017  0.1160  0.7746
  348MOL0     C46891   1.908   3.507  10.696 -0.0420 -0.9409 -0.0909
  348MOL0     C46892   1.836   3.625  10.667  0.9344 -0.2096 -0.1978
  348MOL0     O46893   1.888   3.888  10.462 -0.0658  0.1896 -0.4610
  348MOL0     C46894   1.642   4.086  10.643 -0.0890 -0.4148  0.1537
  348MOL0     C46895   1.572   4.209  10.648  0.2811 -0.4108  1.1039
  348MOL0     N46896   1.792   4.912  10.588 -0.4413 -0.6502 -0.3726
  348MOL0     N46897   1.892   4.985  10.537  0.2154  0.0559 -1.2197
  348MOL0     C46898   1.412   5.830  10.559  0.4352  0.6188  0.5087
  348MOL0     C46899   1.274   5.833  10.552 -0.0247  0.0087 -0.5142
  348MOL0     C46900   0.853   5.649  10.436  0.7046 -0.0693  0.1692
  348MOL0     C46901   0.783   5.751  10.514  0.3574  0.6152  1.3671
  348MOL0     C46902   0.650   5.735  10.531 -0.7559  0.1049 -0.3169
  348MOL0     C46903   0.581   5.616  10.502 -0.0004 -0.3685  0.4841
  348MOL0     O46904   0.448   5.605  10.539 -0.9807 -0.0063  0.3810
  348MOL0     C46905   0.366   5.490  10.514 -0.0305  0.1989 -0.5078
  348MOL0     C46906   0.233   5.492  10.592 -0.3673  1.1350 -0.1209
  348MOL0     C46907   0.126   5.583  10.537  0.4568 -0.5962  0.1599
  348MOL0     C46908  -0.000   5.558  10.624 -0.4031  0.1409  0.1720
  348MOL0     C46909  -0.125   5.611  10.575 -0.1169 -0.8684 -0.5562
  348MOL0     C46910  -0.224   5.674  10.558 -0.1050 -0.1647  1.0994
  348MOL0     C46911   0.650   5.517  10.440  0.0013  0.0235  0.2453
  348MOL0     C46912   0.780   5.534  10.402 -0.2531 -0.2699 -0.2231
  348MOL0     H46913   1.213   5.714  10.251 -1.0630 -0.0607  1.8545
  348MOL0     H46914   1.468   5.676  10.262 -1.1317  0.3448 -1.9827
  348MOL0     H46915   1.637   5.568  10.438  2.3495 -1.9089 -0.3608
  348MOL0     H46916   1.681   5.671  10.293  3.4367 -6.4010 -0.5724
  348MOL0     H46917   1.866   5.755  10.414  3.0511 -1.1679 -1.7951
  348MOL0     H46918   1.854   5.620  10.531 -2.1601 -3.4523 -0.1836
  348MOL0     H46919   1.863   5.484  10.314 -0.0128 -0.8872 -0.6310
  348MOL0     H46920   1.962   5.619  10.246  1.8960 -3.0632 -0.0230
  348MOL0     H46921   2.108   5.614  10.440 -1.0016 -0.2010  0.3745
  348MOL0     H46922   2.039   5.465  10.501  4.0957  0.7238  2.1916
  348MOL0     H46923   2.190   5.482  10.233  0.3086  1.2902  0.2075
  348MOL0     H46924   2.225   5.400  10.389 -4.1757 -2.4128  3.3975
  348MOL0     H46925   1.998   5.330  10.216 -2.3855 -0.2917  2.7281
  348MOL0     H46926   2.158   5.257  10.219 -1.7701  0.5268 -3.8282
  348MOL0     H46927   2.093   5.172  10.461  1.2471  0.2854 -0.7390
  348MOL0     H46928   1.938   5.257  10.424  1.0133 -0.9321  2.2476
  348MOL0     H46929   2.048   5.005  10.304  1.2270  2.2252 -0.6054
  348MOL0     H46930   1.913   5.091  10.222  0.3641 -0.3052 -0.7462
  348MOL0     H46931   1.673   4.998  10.295  1.0757  0.2815  0.3758
  348MOL0     H46932   1.524   4.880  10.609  1.7892  0.8931  0.6664
  348MOL0     H46933   1.497   4.884  10.428 -0.4698 -2.4168 -1.1882
  348MOL0     H46934   1.630   4.665  10.588 -1.8203 -0.5660  0.8268
  348MOL0     H46935   1.619   4.670  10.404 -4.7175 -0.8148 -1.4564
  348MOL0     H46936   1.368   4.667  10.444  0.1675 -0.9215 -0.7154
  348MOL0     H46937   1.416   4.609  10.611  3.4217 -4.5564 -0.4986
  348MOL0     H46938   1.516   4.487  10.361 -2.3732  0.7346 -1.4935
  348MOL0     H46939   1.371   4.432  10.430  0.8124  0.3216 -3.6082
  348MOL0     H46940   1.694   4.350  10.369 -0.3525 -0.1666 -0.4657
  348MOL0     H46941   1.967   4.113  10.378 -0.8265 -0.2744  1.2663
  348MOL0     H46942   1.852   4.091  10.260 -1.8395  1.3059 -1.8977
  348MOL0     H46943   1.899   4.259  10.304  2.8485 -0.6580  0.5195
  348MOL0     H46944   2.057   3.856  10.781 -1.1409  0.2905  0.2111
  348MOL0     H46945   2.186   3.647  10.820 -1.4878  0.3569  4.2299
  348MOL0     H46946   2.283   3.291  10.709 -4.0426  0.6878 -2.9040
  348MOL0     H46947   2.313   3.460  10.742  0.7002 -0.0384  0.8614
  348MOL0     H46948   2.220   3.438  10.962  0.5463  1.6961 -2.0942
  348MOL0     H46949   2.167   3.277  10.942  0.6903 -0.6226 -1.0037
  348MOL0     H46950   2.385   3.189  10.896 -1.4088 -0.3035  0.3116
  348MOL0     H46951   2.354   3.229  11.073 -0.1321  1.1307  1.5686
  348MOL0     H46952   2.532   3.397  10.875 -0.7464 -0.8087 -0.2649
  348MOL0     H46953   2.441   3.470  11.007 -0.8077  0.7545 -3.8958
  348MOL0     H46954   2.536   3.263  11.143  0.2515 -2.7957 -1.9900
  348MOL0     H46955   2.647   3.392  11.114  0.9358  0.7360  1.4946
  348MOL0     H46956   2.738   3.154  11.057 -0.8621 -1.0187  0.1326
  348MOL0     H46957   2.616   3.144  10.926  0.0817  1.1109  0.4717
  348MOL0     H46958   2.777   3.389  10.938 -0.5693  0.4262  0.8077
  348MOL0     H46959   2.737   3.289  10.793 -1.3929 -0.3122  0.5994
  348MOL0     H46960   2.951   3.252  11.015 -0.3339  3.2572 -0.8994
  348MOL0     H46961   2.994   3.298  10.854 -3.0918  3.7933 -0.2534
  348MOL0     H46962   1.855   3.413  10.684 -3.4783  1.1681 -4.3090
  348MOL0     H46963   1.747   3.601  10.610  2.1100  1.0726 -2.7542
  348MOL0     H46964   1.641   4.009  10.720  3.2612  1.1096  1.9035
  348MOL0     H46965   1.492   4.223  10.720 -0.6071  1.3247 -0.1387
  348MOL0     H46966   1.455   5.853  10.656 -0.7312 -2.1293  1.7979
  348MOL0     H46967   1.205   5.871  10.626 -1.2991 -1.5698 -0.8504
  348MOL0     H46968   0.844   5.832  10.553  1.3416 -0.8094  2.9231
  348MOL0     H46969   0.599   5.808  10.592 -1.9691  0.3242 -1.5301
  348MOL0     H46970   0.340   5.495  10.408 -2.4858  2.4101  0.0970
  348MOL0     H46971   0.412   5.396  10.546  1.1701  1.3598  1.4041
  348MOL0     H46972   0.251   5.505  10.699  1.1113 -0.2837 -0.1584
  348MOL0     H46973   0.198   5.393  10.560  1.8446  0.4574 -0.6039
  348MOL0     H46974   0.104   5.567  10.431  0.9000  0.1815 -0.0617
  348MOL0     H46975   0.143   5.691  10.546 -0.6694 -0.1132 -2.5549
  348MOL0     H46976   0.014   5.595  10.726  1.3364 -1.8902  0.7451
  348MOL0     H46977  -0.014   5.450  10.639 -1.0877 -0.0652 -1.7159
  348MOL0     H46978  -0.320   5.722  10.551 -1.4090 -2.2956  2.9363
  348MOL0     H46979   0.599   5.424  10.418  0.6745  0.3978 -3.6419
  348MOL0     H46980   0.835   5.462  10.343  0.8966 -0.0548  0.5556
  349MOL0     O46981   0.928  11.031   9.819 -0.1543 -0.4092 -0.9612
  349MOL0     C46982   0.893  11.072   9.933 -0.3832 -0.8531 -0.0604
  349MOL0     O46983   0.977  11.115  10.027  0.4201 -0.7362 -1.1223
  349MOL0     C46984   1.111  11.104  10.018 -0.2994 -0.5855  0.1928
  349MOL0     C46985   1.174  10.984   9.974  0.1488  0.3904 -0.9981
  349MOL0     C46986   1.314  10.978   9.954 -0.2655  0.4844  0.2308
  349MOL0     C46987   1.382  11.093   9.968 -0.5710 -0.2730  0.8652
  349MOL0     O46988   1.519  11.103   9.958 -0.3737  0.2877 -0.1293
  349MOL0     C46989   1.593  10.990   9.913  0.4234 -0.6500  0.2682
  349MOL0     C46990   1.727  11.051   9.880  0.5544  0.7755 -0.3724
  349MOL0     C46991   1.839  10.945   9.837  0.4427 -0.6883 -0.1095
  349MOL0     C46992   1.984  10.988   9.826  0.7256 -0.0808 -0.8247
  349MOL0     C46993   2.003  11.118   9.748 -0.4015 -0.3712  0.7494
  349MOL0     C46994   2.151  11.114   9.701 -0.0514  0.2476 -0.9679
  349MOL0     C46995   2.198  11.222   9.603 -0.9999 -0.6661 -0.7582
  349MOL0     C46996   2.344  11.204   9.561  1.0275 -0.2935 -0.5439
  349MOL0     N46997   2.374  11.309   9.461  0.9328 -0.2221  0.3338
  349MOL0     C46998   2.434  11.429   9.480  0.0313 -0.0514 -0.4679
  349MOL0     C46999   2.448  11.490   9.360  0.3418 -0.9813 -0.1173
  349MOL0     C47000   2.506  11.631   9.338  0.0479 -0.1912  0.7600
  349MOL0     C47001   2.417  11.718   9.252  0.5757 -0.0509  0.5339
  349MOL0     C47002   2.468  11.865   9.234  0.6786 -0.6597  0.6858
  349MOL0     C47003   2.369  11.947   9.155 -0.5097  0.0708 -0.3864
  349MOL0     O47004   2.416  12.081   9.155  0.5219 -0.2547  0.0780
  349MOL0     C47005   2.375  12.166   9.057 -0.4751 -0.5006 -0.3550
  349MOL0     C47006   2.454  12.275   9.030 -0.0353 -0.3234  0.1763
  349MOL0     C47007   2.428  12.379   8.939 -0.0834  0.1347  1.1034
  349MOL0     C47008   2.523  12.488   8.921 -1.0199  0.4389 -0.3575
  349MOL0     C47009   2.304  12.368   8.864  0.4014  0.7817 -1.2186
  349MOL0     C47010   2.251  12.457   8.759 -0.2121 -1.0518 -0.5210
  349MOL0     O47011   2.126  12.447   8.728 -0.1740 -0.2841 -0.5459
  349MOL0     C47012   2.056  12.538   8.654 -0.8243 -0.2174 -0.1569
  349MOL0     C47013   2.090  12.663   8.601  0.5855 -0.1315 -0.1420
  349MOL0     C47014   2.012  12.730   8.508  0.1326  0.0323  0.5137
  349MOL0     C47015   1.889  12.682   8.460 -0.0434 -0.1280  0.0786
  349MOL0     O47016   1.828  12.738   8.351 -0.0021  0.4529  0.5940
  349MOL0     C47017   1.749  12.645   8.261  0.5387  0.2247 -1.0458
  349MOL0     C47018   1.754  12.708   8.122 -0.1407  0.3634 -0.0841
  349MOL0     C47019   1.653  12.831   8.098  0.0256 -0.0039  0.3160
  349MOL0     C47020   1.713  12.944   8.023 -0.1185  0.0350 -1.0130
  349MOL0     C47021   1.809  13.027   8.116 -0.3124 -0.0553 -0.0853
  349MOL0     C47022   1.746  13.069   8.248 -0.0938 -0.0006  0.4792
  349MOL0     C47023   1.820  13.182   8.323  0.2828  1.2638 -0.2108
  349MOL0     C47024   1.786  13.167   8.464  0.7478 -1.0565 -1.6420
  349MOL0    Cl47025   1.874  13.292   8.564  0.5802  0.0317  0.2961
  349MOL0     C47026   1.855  12.560   8.518  0.5251 -0.2391  0.0051
  349MOL0     C47027   1.937  12.485   8.612  0.0435  0.2997  0.9716
  349MOL0     O47028   2.328  12.543   8.728  0.4788 -0.0922  0.2220
  349MOL0     C47029   2.220  12.250   8.894 -1.5923  0.3415  0.9238
  349MOL0     C47030   2.257  12.162   8.991 -0.3500  0.5979  0.1295
  349MOL0     N47031   2.418  11.399   9.263 -0.3645 -0.4185  1.1470
  349MOL0     N47032   2.363  11.292   9.319  0.3532 -0.0005 -0.5272
  349MOL0     C47033   1.323  11.207  10.008 -0.1551  0.2163 -0.2355
  349MOL0     C47034   1.189  11.214  10.041  0.5233 -0.0199 -0.0819
  349MOL0     C47035   0.751  11.087   9.944  0.3444  0.1952  0.3679
  349MOL0     C47036   0.695  11.178  10.037 -0.6931 -1.0096  0.2542
  349MOL0     C47037   0.557  11.185  10.053  0.5036  0.3854 -0.5027
  349MOL0     C47038   0.468  11.117   9.976 -0.5060  0.2291  0.1659
  349MOL0     O47039   0.327  11.147   9.980 -0.1997  0.5621  0.2651
  349MOL0     C47040   0.269  11.096  10.096 -0.6748 -0.0243 -0.8748
  349MOL0     C47041   0.114  11.109  10.076 -0.1975 -0.0347  0.2062
  349MOL0     C47042   0.049  11.033  10.188 -1.5097  0.0765  0.2719
  349MOL0     C47043   0.047  11.099  10.327 -0.9365 -0.1543  0.7216
  349MOL0     C47044   0.172  11.076  10.403  0.4128  0.5969 -0.1168
  349MOL0     C47045   0.283  11.085  10.453 -0.0264 -1.2214  0.2138
  349MOL0     C47046   0.518  11.044   9.874 -0.7735 -0.3461  0.1934
  349MOL0     C47047   0.661  11.030   9.853 -0.2185  0.4361 -0.0641
  349MOL0     H47048   1.107  10.899   9.978 -1.0161  1.2990 -0.3055
  349MOL0     H47049   1.364  10.889   9.917 -1.9100  0.4790 -2.2198
  349MOL0     H47050   1.603  10.918   9.995  0.7929 -0.3112  0.5301
  349MOL0     H47051   1.554  10.939   9.825  1.6493 -3.1580  1.0663
  349MOL0     H47052   1.712  11.121   9.797 -0.9653 -0.0234 -0.8151
  349MOL0     H47053   1.762  11.099   9.972 -0.3769  0.5186  0.1269
  349MOL0     H47054   1.828  10.864   9.910 -1.1711  0.1988  0.6938
  349MOL0     H47055   1.801  10.911   9.740 -5.6289  0.5508  1.3979
  349MOL0     H47056   2.040  10.980   9.919 -0.4155 -3.8853 -0.2962
  349MOL0     H47057   2.012  10.902   9.763  1.8859  1.3548 -2.3635
  349MOL0     H47058   1.943  11.121   9.656 -0.9019  2.3808  1.0811
  349MOL0     H47059   1.976  11.210   9.801 -1.0622  1.7059 -2.8641
  349MOL0     H47060   2.207  11.120   9.795 -1.8741 -0.6765  0.2500
  349MOL0     H47061   2.175  11.019   9.653  0.1800  0.1340 -0.6365
  349MOL0     H47062   2.140  11.212   9.511  1.3050  1.7523 -2.6339
  349MOL0     H47063   2.180  11.320   9.646 -3.5956 -1.7859  0.9243
  349MOL0     H47064   2.358  11.102   9.526  1.6712 -0.5215  0.3568
  349MOL0     H47065   2.413  11.223   9.643  1.2956  1.5009 -1.1337
  349MOL0     H47066   2.445  11.478   9.575  1.2015  1.9036 -1.5612
  349MOL0     H47067   2.545  11.671   9.433  2.3353 -2.9327  1.1038
  349MOL0     H47068   2.596  11.624   9.276 -1.1665 -1.8442 -0.8985
  349MOL0     H47069   2.326  11.717   9.313 -2.2189  0.7664 -3.2094
  349MOL0     H47070   2.394  11.677   9.153  2.8011  1.1850 -0.5581
  349MOL0     H47071   2.561  11.855   9.178 -0.6362 -0.1130 -1.7147
  349MOL0     H47072   2.500  11.925   9.320  3.9991  2.3019 -2.3278
  349MOL0     H47073   2.265  11.946   9.189 -0.7328 -0.2434 -1.0570
  349MOL0     H47074   2.359  11.897   9.058  1.7666 -0.2034 -0.5376
  349MOL0     H47075   2.545  12.291   9.088 -0.9998  2.2857  1.1107
  349MOL0     H47076   2.603  12.474   8.995 -1.5518  1.3317  0.3964
  349MOL0     H47077   2.568  12.478   8.821  0.3483 -1.5653  0.3842
  349MOL0     H47078   2.466  12.579   8.939 -0.3752  0.8692 -0.4591
  349MOL0     H47079   2.186  12.708   8.629 -0.4280  0.0139  3.6886
  349MOL0     H47080   2.043  12.824   8.463 -1.3092 -0.6708 -2.1779
  349MOL0     H47081   1.798  12.548   8.247  1.0673 -0.0670  1.9465
  349MOL0     H47082   1.651  12.632   8.308  1.4617 -1.3264  0.5939
  349MOL0     H47083   1.850  12.755   8.100 -1.3840  1.6881 -3.3392
  349MOL0     H47084   1.726  12.633   8.047  1.7088 -0.2436 -0.2149
  349MOL0     H47085   1.604  12.873   8.186 -3.5867  0.5320 -1.7743
  349MOL0     H47086   1.570  12.798   8.036  1.3350  0.3217 -1.7188
  349MOL0     H47087   1.778  12.903   7.945  1.0638  1.0265 -0.5968
  349MOL0     H47088   1.645  13.015   7.976  1.9497  3.9850  1.3469
  349MOL0     H47089   1.847  13.116   8.064  0.1814 -0.8295 -1.0779
  349MOL0     H47090   1.894  12.959   8.125  0.1226  0.1826 -1.9577
  349MOL0     H47091   1.644  13.104   8.232 -0.4515 -1.8481 -1.8637
  349MOL0     H47092   1.731  12.983   8.314  1.4107  0.3886  1.3891
  349MOL0     H47093   1.793  13.283   8.289  0.2597  1.7513  1.1648
  349MOL0     H47094   1.927  13.166   8.312 -0.0961 -0.5103 -1.6421
  349MOL0     H47095   1.812  13.069   8.505 -1.2089 -1.5286 -1.3848
  349MOL0     H47096   1.680  13.192   8.476  1.0135 -0.5779 -0.0121
  349MOL0     H47097   1.766  12.510   8.480 -2.1607  3.1288  1.2796
  349MOL0     H47098   1.914  12.380   8.628  1.4864 -0.6368 -2.3816
  349MOL0     H47099   2.122  12.232   8.852 -0.3898 -1.7358 -1.2209
  349MOL0     H47100   2.189  12.080   9.012  0.0648  0.2431  0.0770
  349MOL0     H47101   1.394  11.285  10.031  0.0321  0.3569 -1.2645
  349MOL0     H47102   1.149  11.310  10.073 -0.1431  0.0432 -1.0804
  349MOL0     H47103   0.763  11.237  10.097 -0.5286 -2.8875  2.0362
  349MOL0     H47104   0.531  11.251  10.135 -1.0499 -0.8173  0.0083
  349MOL0     H47105   0.301  10.996  10.128 -0.0568 -0.7603 -3.5294
  349MOL0     H47106   0.305  11.153  10.182  2.0378 -2.1238 -0.4605
  349MOL0     H47107   0.096  11.064   9.978 -2.7505 -1.1231  1.0936
  349MOL0     H47108   0.088  11.215  10.068  0.8126  0.1294 -1.6017
  349MOL0     H47109   0.108  10.942  10.206  1.1234  2.0862  2.8334
  349MOL0     H47110  -0.043  10.987  10.151  0.5240 -2.7161 -1.7730
  349MOL0     H47111  -0.033  11.045  10.379 -0.6377  0.3777  1.7807
  349MOL0     H47112   0.018  11.205  10.323 -0.5228 -0.0832 -0.9509
  349MOL0     H47113   0.372  11.090  10.512 -1.2313  0.6251  2.0439
  349MOL0     H47114   0.450  10.997   9.803 -1.6393  0.7931  0.2432
  349MOL0     H47115   0.694  10.970   9.769 -0.9130 -2.5443  1.6180
  350MOL0     O47116   8.857   6.123  10.396  0.6681 -0.4861 -0.9162
  350MOL0     C47117   8.787   6.185  10.472  0.4025 -0.3036 -0.7014
  350MOL0     O47118   8.817   6.227  10.597 -0.4959  0.0906 -0.0026
  350MOL0     C47119   8.939   6.208  10.658  0.4718  0.2811 -0.4376
  350MOL0     C47120   8.944   6.246  10.797 -0.8886  1.1886 -1.1118
  350MOL0     C47121   9.066   6.228  10.874  0.8099 -0.9668  0.1338
  350MOL0     C47122   9.181   6.169  10.821  0.7309 -0.0393  0.2694
  350MOL0     O47123   9.289   6.149  10.894  0.3754 -0.6067  0.1435
  350MOL0     C47124   9.287   6.015  10.948 -0.1638 -0.1666  0.8186
  350MOL0     C47125   9.371   5.904  10.863 -0.3369  0.4343  1.0714
  350MOL0     C47126   9.518   5.920  10.841 -0.3898  0.0725 -0.4129
  350MOL0     C47127   9.571   5.805  10.766  0.1202  0.4196  0.3588
  350MOL0     C47128   9.727   5.800  10.763  0.5527  0.2158  0.6180
  350MOL0     C47129   9.761   5.683  10.674  0.3004  0.4582  0.3371
  350MOL0     C47130   9.918   5.676  10.640 -1.2048 -0.1044  0.7157
  350MOL0     C47131   9.945   5.546  10.573 -0.2763  0.3787  0.7905
  350MOL0     N47132  10.081   5.552  10.517  0.2424  0.1484 -0.1870
  350MOL0     C47133  10.116   5.626  10.409 -0.3493  0.2809  0.2057
  350MOL0     C47134  10.251   5.625  10.403  0.1679 -0.3688  0.7396
  350MOL0     C47135  10.344   5.687  10.310 -0.1519 -0.0890  1.3016
  350MOL0     C47136  10.429   5.573  10.248 -0.2401 -0.9491 -0.7542
  350MOL0     C47137  10.495   5.630  10.121 -0.2554 -0.2192  0.0017
  350MOL0     C47138  10.634   5.584  10.084  0.1203 -0.5196 -0.8982
  350MOL0     O47139  10.715   5.622  10.198 -0.2611 -0.2524  0.7721
  350MOL0     C47140  10.825   5.542  10.214  1.0131 -0.3855 -0.2040
  350MOL0     C47141  10.935   5.563  10.126  0.3123  0.2886 -0.0977
  350MOL0     C47142  11.056   5.491  10.156 -0.3304  0.4363 -0.1669
  350MOL0     C47143  11.165   5.502  10.055  0.4199 -0.6398 -0.1062
  350MOL0     C47144  11.060   5.402  10.272 -0.0019 -0.1331  0.8406
  350MOL0     C47145  11.169   5.314  10.303  0.6644 -0.4294 -0.4450
  350MOL0     O47146  11.283   5.369  10.341  0.2700  0.7253 -0.5641
  350MOL0     C47147  11.401   5.296  10.357 -0.3039 -1.1854 -0.6155
  350MOL0     C47148  11.416   5.170  10.418 -0.0853 -0.4075 -0.2145
  350MOL0     C47149  11.536   5.090  10.422 -0.4211 -0.8456 -1.5828
  350MOL0     C47150  11.644   5.139  10.363  0.0113  0.4760  1.3637
  350MOL0     O47151  11.759   5.066  10.383  0.3821 -0.9834  0.7989
  350MOL0     C47152  11.874   5.119  10.320 -0.8966 -0.4836  1.3846
  350MOL0     C47153  11.989   5.035  10.367  0.4493  0.1625  0.2081
  350MOL0     C47154  12.088   5.002  10.261 -0.0941  0.5417  0.3693
  350MOL0     C47155  12.153   5.124  10.195  0.2014  1.4133 -0.8919
  350MOL0     C47156  12.280   5.092  10.133  0.1190  0.5365  0.2360
  350MOL0     C47157  12.358   5.216  10.086  0.5232  0.5510 -0.1093
  350MOL0     C47158  12.412   5.219   9.934  0.9536 -0.3035  0.1068
  350MOL0     C47159  12.311   5.297   9.847  0.2291  1.1709 -0.1713
  350MOL0    Cl47160  12.374   5.322   9.683  0.3105  0.2673 -0.2490
  350MOL0     C47161  11.636   5.269  10.294  0.0564 -0.5107 -0.1762
  350MOL0     C47162  11.521   5.358  10.310 -0.1115 -0.6421 -0.7174
  350MOL0     O47163  11.147   5.195  10.288 -0.3922 -0.4557 -0.0390
  350MOL0     C47164  10.945   5.388  10.352  0.1909 -0.2686 -0.5328
  350MOL0     C47165  10.830   5.453  10.320  0.6177 -0.2266  0.4280
  350MOL0     N47166  10.302   5.544  10.508  0.0065 -0.7264 -0.6896
  350MOL0     N47167  10.201   5.509  10.571  0.0578  0.1053  0.0244
  350MOL0     C47168   9.170   6.118  10.685 -0.8537  0.3768 -0.0826
  350MOL0     C47169   9.058   6.149  10.610 -0.3476 -1.1617 -0.3968
  350MOL0     C47170   8.651   6.196  10.429  1.3732 -0.0701 -0.1447
  350MOL0     C47171   8.572   6.104  10.347 -0.7046  1.1256  0.8235
  350MOL0     C47172   8.437   6.117  10.314  1.1439  0.8541 -1.0330
  350MOL0     C47173   8.367   6.211  10.388  1.4463 -0.1257  0.4251
  350MOL0     O47174   8.226   6.232  10.398  0.0758  0.0681 -0.1920
  350MOL0     C47175   8.141   6.122  10.353  0.2652  0.4310  0.6107
  350MOL0     C47176   8.134   6.133  10.197  0.0087 -0.1037 -1.7933
  350MOL0     C47177   8.100   6.000  10.118  0.0943  0.3444 -1.1339
  350MOL0     C47178   8.118   5.999   9.968 -0.5197  0.0493 -0.3377
  350MOL0     C47179   7.994   5.989   9.899 -0.1909 -0.5156  0.0198
  350MOL0     C47180   7.889   5.983   9.836  0.6216 -0.3271 -0.3359
  350MOL0     C47181   8.435   6.296  10.468 -0.3874 -0.2397  0.6246
  350MOL0     C47182   8.571   6.290  10.498  0.1793 -0.3379 -0.5934
  350MOL0     H47183   8.868   6.297  10.855  0.4540 -1.1358  3.0937
  350MOL0     H47184   9.073   6.263  10.976 -0.5527 -0.0150 -0.0717
  350MOL0     H47185   9.327   6.034  11.048 -3.1808  2.8001  1.6406
  350MOL0     H47186   9.183   5.983  10.962  0.5222 -2.5449  0.9546
  350MOL0     H47187   9.372   5.811  10.921 -0.1786 -1.1445 -1.3307
  350MOL0     H47188   9.307   5.884  10.777 -1.0247 -1.6397  1.9903
  350MOL0     H47189   9.542   6.017  10.798 -0.3519  0.9539  1.4846
  350MOL0     H47190   9.579   5.922  10.932  1.1020 -1.1197 -1.3436
  350MOL0     H47191   9.543   5.706  10.804  1.1412 -0.6288 -1.4390
  350MOL0     H47192   9.532   5.815  10.664 -0.9459 -3.9210  0.1243
  350MOL0     H47193   9.754   5.894  10.715 -0.2468 -0.2035 -0.6834
  350MOL0     H47194   9.775   5.799  10.861 -1.3978 -1.3680  1.6409
  350MOL0     H47195   9.733   5.593  10.730  3.2819 -2.0656 -1.8647
  350MOL0     H47196   9.712   5.694  10.577 -0.8858  1.2315  1.0076
  350MOL0     H47197   9.946   5.759  10.574 -1.0363 -0.9452 -0.2955
  350MOL0     H47198   9.958   5.679  10.742  2.4406 -1.0214 -0.5368
  350MOL0     H47199   9.880   5.518  10.490  0.2634  0.0954  0.4562
  350MOL0     H47200   9.928   5.462  10.641  3.8467  1.0274  2.9573
  350MOL0     H47201  10.050   5.688  10.348 -0.0297 -1.2307 -1.7884
  350MOL0     H47202  10.294   5.729  10.222 -0.2653 -3.5836 -0.4654
  350MOL0     H47203  10.400   5.760  10.369  0.2346  1.0070 -0.3730
  350MOL0     H47204  10.371   5.484  10.223 -3.3158  0.5905  0.4114
  350MOL0     H47205  10.504   5.552  10.325 -1.7077  1.3224  1.4418
  350MOL0     H47206  10.510   5.738  10.133  3.1874 -0.6745  0.7303
  350MOL0     H47207  10.435   5.593  10.037  0.1021  0.4630 -0.5598
  350MOL0     H47208  10.665   5.637   9.993 -2.0027 -0.8255 -1.8606
  350MOL0     H47209  10.630   5.475  10.074 -3.5438 -0.7272  0.9868
  350MOL0     H47210  10.931   5.635  10.046  0.5742 -0.0803 -0.4449
  350MOL0     H47211  11.124   5.454   9.966 -1.2434  0.9304 -0.2573
  350MOL0     H47212  11.169   5.608  10.027  0.0621 -0.5262  0.2490
  350MOL0     H47213  11.257   5.448  10.079  1.3819  0.8363 -0.3127
  350MOL0     H47214  11.331   5.130  10.473 -1.0093  0.1557 -1.1865
  350MOL0     H47215  11.532   4.997  10.479  0.5528 -1.2730 -2.1763
  350MOL0     H47216  11.859   5.106  10.212 -0.4999  6.6541  0.0218
  350MOL0     H47217  11.892   5.225  10.336 -0.2847 -0.2644 -0.5564
  350MOL0     H47218  12.039   5.087  10.449  2.4398  0.4495 -1.1209
  350MOL0     H47219  11.950   4.944  10.413  2.6401 -0.6883  0.4851
  350MOL0     H47220  12.044   4.938  10.184  0.9060  2.5782 -2.0561
  350MOL0     H47221  12.169   4.939  10.298  1.4767  2.4671  0.4471
  350MOL0     H47222  12.085   5.173  10.124 -0.8558  0.5464 -0.4913
  350MOL0     H47223  12.180   5.192  10.277 -0.7673 -2.2453  2.7658
  350MOL0     H47224  12.265   5.018  10.054 -0.6608  1.2767 -0.3166
  350MOL0     H47225  12.348   5.039  10.201  2.6208  1.9354 -1.0609
  350MOL0     H47226  12.299   5.308  10.083  1.6778  1.2770 -1.9882
  350MOL0     H47227  12.447   5.244  10.143 -1.0132  0.5153  2.5033
  350MOL0     H47228  12.433   5.121   9.890  1.1897 -0.2863  0.1803
  350MOL0     H47229  12.506   5.275   9.935  0.8900 -0.1958  0.5479
  350MOL0     H47230  12.276   5.390   9.893 -0.0985  0.4407  1.0931
  350MOL0     H47231  12.227   5.228   9.837  2.4464 -1.4814 -2.1636
  350MOL0     H47232  11.725   5.317  10.256 -0.7976 -0.8040 -2.7533
  350MOL0     H47233  11.504   5.459  10.275 -6.0742 -1.0757 -0.2107
  350MOL0     H47234  10.950   5.322  10.438 -0.5596  0.7577  0.3161
  350MOL0     H47235  10.745   5.438  10.386 -1.7924 -3.7775 -3.0720
  350MOL0     H47236   9.255   6.080  10.628  0.2278  0.0742  1.6664
  350MOL0     H47237   9.062   6.125  10.504  1.5885 -0.5188 -0.5074
  350MOL0     H47238   8.617   6.027  10.285 -2.6860  1.5658 -1.3075
  350MOL0     H47239   8.385   6.037  10.261 -0.5793 -0.0318  1.7293
  350MOL0     H47240   8.182   6.022  10.368 -3.1441 -1.2836 -0.4995
  350MOL0     H47241   8.045   6.114  10.406  1.0450  3.1784  2.6875
  350MOL0     H47242   8.235   6.162  10.167  1.4969 -1.4732  1.4039
  350MOL0     H47243   8.068   6.218  10.183 -0.5796  0.1801  1.8729
  350MOL0     H47244   8.003   5.962  10.152  0.9507  1.1695  2.6500
  350MOL0     H47245   8.176   5.926  10.145 -3.0776 -2.2714  1.4938
  350MOL0     H47246   8.187   5.915   9.953  1.4295  1.7331 -1.2808
  350MOL0     H47247   8.181   6.087   9.950 -1.3871  0.9989  1.0755
  350MOL0     H47248   7.790   5.980   9.794  0.8378 -0.7423 -0.8241
  350MOL0     H47249   8.375   6.359  10.533  0.0633  0.6996  0.1453
  350MOL0     H47250   8.612   6.365  10.565  2.1753 -0.6196 -1.4150
  351MOL0     O47251   0.748   8.264   8.787  0.4095 -0.3664  0.2439
  351MOL0     C47252   0.865   8.246   8.760  0.8723 -0.3040 -0.7343
  351MOL0     O47253   0.953   8.165   8.827  0.0676 -0.4553 -0.1477
  351MOL0     C47254   0.930   8.101   8.950  0.1557 -0.2198 -0.1605
  351MOL0     C47255   0.823   8.123   9.036  0.4475  0.7567 -0.1059
  351MOL0     C47256   0.814   8.049   9.151  0.4082  0.3894  0.2045
  351MOL0     C47257   0.909   7.958   9.175 -1.0024 -0.2516 -0.6351
  351MOL0     O47258   0.908   7.879   9.289  0.5021 -0.4528  0.7534
  351MOL0     C47259   0.806   7.887   9.395 -0.0226  0.4479 -0.3532
  351MOL0     C47260   0.865   7.814   9.506  0.3046 -0.1964  0.3380
  351MOL0     C47261   0.765   7.816   9.628  1.3824 -0.2676  0.3480
  351MOL0     C47262   0.834   7.803   9.760 -0.2729  0.0827  0.0089
  351MOL0     C47263   0.742   7.776   9.873  0.0757  0.2326 -0.4484
  351MOL0     C47264   0.806   7.747  10.006 -0.5955  1.1432  0.7187
  351MOL0     C47265   0.696   7.725  10.118  0.7030 -0.6148 -0.6963
  351MOL0     C47266   0.585   7.615  10.097 -0.0091  0.4285 -1.0638
  351MOL0     N47267   0.529   7.584  10.226 -0.1110  0.5227 -0.0384
  351MOL0     C47268   0.400   7.627  10.258  0.9490 -0.1515 -0.4812
  351MOL0     C47269   0.388   7.603  10.392  0.1685 -0.2702 -0.0111
  351MOL0     C47270   0.264   7.640  10.481  0.0633  0.1248 -0.7578
  351MOL0     C47271   0.208   7.783  10.460  0.3154 -0.6521  0.0248
  351MOL0     C47272   0.317   7.885  10.420  0.2537 -0.2630  0.4168
  351MOL0     C47273   0.427   7.902  10.526 -0.0828  0.9045 -0.1414
  351MOL0     O47274   0.384   7.978  10.642  0.7111  0.1359  1.1634
  351MOL0     C47275   0.445   8.095  10.678 -0.3316 -0.7993 -0.7793
  351MOL0     C47276   0.394   8.161  10.784  1.2817 -0.7211 -0.4698
  351MOL0     C47277   0.440   8.283  10.841 -0.6897 -0.0944  0.1986
  351MOL0     C47278   0.372   8.336  10.967 -0.5417  0.7306  0.7592
  351MOL0     C47279   0.551   8.346  10.776 -0.5889 -0.0288  1.1142
  351MOL0     C47280   0.612   8.476  10.811 -0.6484 -0.4711 -0.4555
  351MOL0     O47281   0.717   8.518  10.736 -0.2493  0.0836  0.0431
  351MOL0     C47282   0.774   8.636  10.772  0.6662 -0.2421  0.1360
  351MOL0     C47283   0.768   8.752  10.689 -0.0233 -0.1121  1.1671
  351MOL0     C47284   0.841   8.861  10.725  0.7117 -0.2361 -0.0733
  351MOL0     C47285   0.929   8.865  10.840  0.6142  0.2727  0.7021
  351MOL0     O47286   0.987   8.988  10.872 -0.2661  0.1620 -0.6510
  351MOL0     C47287   1.070   8.992  10.991  0.0546 -0.6592 -0.7452
  351MOL0     C47288   1.218   8.963  10.970 -0.5247 -0.3236  0.7210
  351MOL0     C47289   1.312   9.070  10.916  0.2594 -0.7752 -0.4282
  351MOL0     C47290   1.387   9.156  11.031 -0.0610  0.4494  0.6709
  351MOL0     C47291   1.419   9.288  10.960 -0.3073 -0.3051  0.1935
  351MOL0     C47292   1.494   9.382  11.056 -0.6707 -0.3627 -0.7595
  351MOL0     C47293   1.389   9.473  11.141 -0.6680  0.5842 -0.2464
  351MOL0     C47294   1.461   9.558  11.244  0.3010 -0.0721  0.0041
  351MOL0    Cl47295   1.574   9.674  11.164 -0.3075 -0.4468  0.2919
  351MOL0     C47296   0.944   8.746  10.911  0.7769 -0.6046  0.6722
  351MOL0     C47297   0.863   8.643  10.881 -0.5361  1.0223  0.6027
  351MOL0     O47298   0.561   8.537  10.905 -0.2349  0.0338 -0.3067
  351MOL0     C47299   0.611   8.279  10.665 -0.2568 -0.7750 -0.0456
  351MOL0     C47300   0.555   8.158  10.608  0.3126 -0.2139  0.2083
  351MOL0     N47301   0.505   7.548  10.439  0.0786 -0.3610  0.2714
  351MOL0     N47302   0.592   7.535  10.340 -0.1967 -0.1211 -0.3290
  351MOL0     C47303   1.026   7.944   9.096 -0.2874  0.4088  0.9009
  351MOL0     C47304   1.034   8.013   8.978  0.3466 -0.7560  0.2493
  351MOL0     C47305   0.909   8.317   8.636  0.4013 -0.2920 -0.4750
  351MOL0     C47306   0.834   8.412   8.578  0.0178  0.5836 -0.2040
  351MOL0     C47307   0.881   8.480   8.471 -0.1860  0.2709  0.7751
  351MOL0     C47308   0.994   8.436   8.397 -0.0072 -0.5982  0.8263
  351MOL0     O47309   1.024   8.459   8.264  0.0305 -0.8596  0.4349
  351MOL0     C47310   0.943   8.548   8.186  0.4184 -0.6590 -0.6905
  351MOL0     C47311   0.988   8.555   8.041 -0.6757 -0.2786 -1.1806
  351MOL0     C47312   0.944   8.436   7.955 -0.1520 -0.5960  0.0673
  351MOL0     C47313   1.021   8.302   7.977 -0.8150 -0.8081  0.0650
  351MOL0     C47314   0.999   8.203   7.872 -1.4956  0.1566  0.0880
  351MOL0     C47315   0.988   8.113   7.791 -0.0136 -0.4684  0.1470
  351MOL0     C47316   1.068   8.335   8.451 -0.4465  1.2448 -0.0417
  351MOL0     C47317   1.022   8.274   8.567  0.8817  0.2050 -0.1812
  351MOL0     H47318   0.740   8.191   9.021 -2.8288 -3.2429 -2.1714
  351MOL0     H47319   0.731   8.058   9.221 -0.6831  0.6507 -1.0941
  351MOL0     H47320   0.787   7.993   9.414  1.1187  0.4047  1.3001
  351MOL0     H47321   0.710   7.846   9.364 -0.6775 -0.8595  2.9679
  351MOL0     H47322   0.881   7.711   9.471  0.5283 -0.2055  0.4680
  351MOL0     H47323   0.964   7.846   9.540  1.3546 -1.5458 -1.2595
  351MOL0     H47324   0.712   7.912   9.628 -1.9887 -1.9456 -1.3215
  351MOL0     H47325   0.695   7.733   9.615  0.3309  0.9998 -3.4838
  351MOL0     H47326   0.903   7.719   9.743 -0.0189  0.1893  0.5004
  351MOL0     H47327   0.899   7.889   9.778  0.6451 -1.2686  4.0576
  351MOL0     H47328   0.690   7.871   9.882  0.4699  0.3968  0.1392
  351MOL0     H47329   0.683   7.691   9.837  1.6282 -0.6735 -0.9922
  351MOL0     H47330   0.863   7.656   9.985  0.5600  2.0948 -0.4257
  351MOL0     H47331   0.878   7.825  10.029  0.3091 -0.4728  3.9901
  351MOL0     H47332   0.750   7.700  10.209  1.7496  1.0612 -0.8162
  351MOL0     H47333   0.638   7.817  10.131 -0.7733 -1.4320 -1.2889
  351MOL0     H47334   0.630   7.518  10.074 -0.8384 -0.7123  1.7627
  351MOL0     H47335   0.503   7.644  10.031 -0.8179 -2.4266 -1.4192
  351MOL0     H47336   0.329   7.680  10.194  1.8790  2.2112  0.3334
  351MOL0     H47337   0.181   7.573  10.454 -1.9722  2.5168 -0.8381
  351MOL0     H47338   0.289   7.621  10.586 -1.3415 -2.1873 -0.7584
  351MOL0     H47339   0.154   7.811  10.551  1.0001  1.8320 -0.2583
  351MOL0     H47340   0.135   7.781  10.379  2.7516  1.8438 -2.4702
  351MOL0     H47341   0.266   7.982  10.415 -2.6428 -1.7387 -1.9082
  351MOL0     H47342   0.377   7.863  10.332 -0.9222 -2.1687  0.0406
  351MOL0     H47343   0.524   7.934  10.487  0.9307 -3.9225 -2.3343
  351MOL0     H47344   0.464   7.804  10.557  1.0278  0.5636 -2.3111
  351MOL0     H47345   0.307   8.125  10.838  2.1237 -0.1129  1.3895
  351MOL0     H47346   0.282   8.280  10.995 -1.3333  1.1019 -0.8572
  351MOL0     H47347   0.448   8.337  11.045 -0.3883  0.8046  0.6082
  351MOL0     H47348   0.336   8.439  10.955  1.5050  1.4655  0.5680
  351MOL0     H47349   0.725   8.743  10.590 -0.2385 -2.9288  1.4217
  351MOL0     H47350   0.830   8.955  10.672 -2.9344 -0.3625  0.2111
  351MOL0     H47351   1.061   9.090  11.039 -0.3734 -0.3263 -1.4981
  351MOL0     H47352   1.035   8.926  11.071  0.5297 -1.9821 -1.6111
  351MOL0     H47353   1.257   8.930  11.067  0.3437  6.1334  3.0662
  351MOL0     H47354   1.220   8.886  10.893  3.7199  3.2304 -3.3315
  351MOL0     H47355   1.269   9.135  10.839  3.0503 -0.9790 -2.3230
  351MOL0     H47356   1.395   9.024  10.861 -0.7108 -2.1601 -0.7712
  351MOL0     H47357   1.314   9.176  11.110 -4.9665 -2.3650 -2.6145
  351MOL0     H47358   1.469   9.089  11.057 -1.2622 -1.1430  0.5504
  351MOL0     H47359   1.341   9.342  10.905  1.6378  1.5282 -0.9188
  351MOL0     H47360   1.483   9.278  10.871  1.4723  1.6692  1.1522
  351MOL0     H47361   1.558   9.321  11.121 -3.5667 -2.7507  0.0687
  351MOL0     H47362   1.563   9.451  11.008 -0.8343  0.9699  0.8277
  351MOL0     H47363   1.309   9.414  11.187 -0.3369 -0.3307 -0.8023
  351MOL0     H47364   1.348   9.540  11.065  1.4195  1.1066 -0.9652
  351MOL0     H47365   1.518   9.494  11.312  1.7260 -0.7245 -1.7207
  351MOL0     H47366   1.387   9.602  11.312 -0.5989 -3.4951  1.4408
  351MOL0     H47367   1.002   8.733  11.001  0.8820 -4.2437  0.2307
  351MOL0     H47368   0.892   8.548  10.926  2.4330  0.6130 -1.8361
  351MOL0     H47369   0.699   8.321  10.616 -2.0791  2.8846 -0.5625
  351MOL0     H47370   0.613   8.101  10.536 -1.0231 -0.6813 -0.5423
  351MOL0     H47371   1.101   7.868   9.115  0.1857  1.0258  1.5761
  351MOL0     H47372   1.130   8.003   8.928 -1.1156  0.2023 -3.0127
  351MOL0     H47373   0.735   8.430   8.618 -1.2951 -1.1413 -2.4709
  351MOL0     H47374   0.822   8.556   8.422 -0.0087 -0.8943 -1.3286
  351MOL0     H47375   0.838   8.518   8.192  1.1103 -3.1488  0.5785
  351MOL0     H47376   0.962   8.648   8.225  1.2937 -0.3178 -1.9509
  351MOL0     H47377   1.096   8.567   8.029 -0.5183 -1.0800 -0.6349
  351MOL0     H47378   0.933   8.642   8.005  0.3768 -0.6231 -3.8404
  351MOL0     H47379   0.954   8.471   7.853  1.0900 -1.2435 -0.0520
  351MOL0     H47380   0.840   8.406   7.976  0.9243 -3.6140  1.8657
  351MOL0     H47381   0.981   8.259   8.069  0.4556  0.0661  1.0693
  351MOL0     H47382   1.127   8.331   7.979 -1.7507  3.4480 -0.8025
  351MOL0     H47383   0.982   8.031   7.722 -1.7183  1.0076 -1.5708
  351MOL0     H47384   1.145   8.283   8.395 -1.5165 -2.5010  1.6414
  351MOL0     H47385   1.064   8.180   8.600 -1.4438 -0.8651 -0.0419
  352MOL0     O47386  10.391   4.184   3.113  0.9605  0.6928 -0.4773
  352MOL0     C47387  10.424   4.095   3.187 -1.4977 -0.1091 -0.1961
  352MOL0     O47388  10.559   4.073   3.220  0.0455 -0.0523  0.0350
  352MOL0     C47389  10.653   4.127   3.146 -0.6796 -0.2482  0.4746
  352MOL0     C47390  10.757   4.038   3.116  0.4954 -0.6682  1.1736
  352MOL0     C47391  10.873   4.081   3.052  0.1594 -0.2431  0.3291
  352MOL0     C47392  10.883   4.220   3.002  0.3922 -0.5782  0.2221
  352MOL0     O47393  10.994   4.272   2.932 -0.3268 -0.1117  0.2011
  352MOL0     C47394  11.059   4.375   3.015 -0.6530 -0.1701 -0.0475
  352MOL0     C47395  11.169   4.435   2.938 -0.3979 -0.2857 -0.9618
  352MOL0     C47396  11.249   4.528   3.031  0.1105 -0.4390 -0.0206
  352MOL0     C47397  11.370   4.568   2.952 -1.1339  0.1372  1.0666
  352MOL0     C47398  11.430   4.689   3.018 -0.0410  0.0226  0.1517
  352MOL0     C47399  11.570   4.714   2.972 -0.1575  0.1909  0.4177
  352MOL0     C47400  11.622   4.827   3.051 -0.4896 -0.0574 -0.9233
  352MOL0     C47401  11.768   4.860   3.035  0.2642 -0.9090 -0.7405
  352MOL0     N47402  11.798   4.998   2.995 -0.7709 -0.7835  0.5603
  352MOL0     C47403  11.805   5.039   2.856 -0.4062  0.4179 -0.3848
  352MOL0     C47404  11.857   5.165   2.859 -0.3382  0.1037  1.0232
  352MOL0     C47405  11.873   5.263   2.747 -1.3621 -0.3648  0.1844
  352MOL0     C47406  11.737   5.290   2.691 -0.1324  0.3873  0.3535
  352MOL0     C47407  11.745   5.375   2.565  0.9288  0.8255  0.2779
  352MOL0     C47408  11.625   5.460   2.524 -0.1767 -0.1124 -0.4812
  352MOL0     O47409  11.581   5.559   2.620  0.1367 -0.0250  0.0400
  352MOL0     C47410  11.504   5.646   2.550 -0.0354  0.0933  0.1102
  352MOL0     C47411  11.564   5.741   2.471  0.3560 -0.1694  0.0392
  352MOL0     C47412  11.494   5.842   2.396 -0.7285 -0.8494 -0.3486
  352MOL0     C47413  11.584   5.946   2.325  0.0766 -0.1673 -0.2534
  352MOL0     C47414  11.352   5.852   2.416 -0.4075  0.4663 -0.7751
  352MOL0     C47415  11.266   5.957   2.358 -0.8855  0.4618  0.9272
  352MOL0     O47416  11.139   5.914   2.338 -0.0498  0.5759  0.3887
  352MOL0     C47417  11.031   6.008   2.312 -0.2096 -1.6746 -0.1801
  352MOL0     C47418  10.924   5.969   2.239 -0.4252  0.0420 -0.3293
  352MOL0     C47419  10.807   6.051   2.230 -0.5275  0.3000 -1.2160
  352MOL0     C47420  10.794   6.166   2.316 -0.0200  0.0381 -0.3510
  352MOL0     O47421  10.686   6.251   2.320 -0.7495 -0.8506  0.5800
  352MOL0     C47422  10.582   6.206   2.402 -0.2570  0.1363  1.1409
  352MOL0     C47423  10.466   6.152   2.320 -1.1514 -0.2221 -0.6173
  352MOL0     C47424  10.352   6.080   2.412  0.0817 -0.5532  1.0790
  352MOL0     C47425  10.348   5.930   2.372  0.1508  0.5483 -0.0654
  352MOL0     C47426  10.265   5.849   2.469  0.0685  1.0405  0.8279
  352MOL0     C47427  10.341   5.813   2.605  0.3016 -0.3735  0.6936
  352MOL0     C47428  10.244   5.733   2.689 -0.0821 -0.9114  0.3524
  352MOL0     C47429  10.313   5.650   2.807  0.6763  0.3856  0.4678
  352MOL0    Cl47430  10.187   5.541   2.900 -0.5979 -0.3027 -0.3006
  352MOL0     C47431  10.904   6.206   2.387 -0.3431  0.3766  0.6831
  352MOL0     C47432  11.017   6.126   2.389 -0.1149 -0.1436 -0.2373
  352MOL0     O47433  11.310   6.070   2.326  0.3967 -0.2841 -0.4427
  352MOL0     C47434  11.296   5.755   2.493  0.6993  0.3936 -0.5396
  352MOL0     C47435  11.367   5.661   2.564 -0.3595 -0.4157  0.3827
  352MOL0     N47436  11.882   5.191   2.989 -0.5524 -0.1803  0.1471
  352MOL0     N47437  11.844   5.104   3.071 -0.6573 -0.4487  0.4681
  352MOL0     C47438  10.771   4.307   3.028  0.4896  0.3202 -0.3756
  352MOL0     C47439  10.661   4.260   3.101  0.1719  0.7592  0.9338
  352MOL0     C47440  10.325   4.018   3.254  0.2606  0.3298 -0.3812
  352MOL0     C47441  10.185   4.067   3.241 -0.6774 -0.1846  0.4105
  352MOL0     C47442  10.080   3.992   3.285  0.0626  0.1326 -0.6951
  352MOL0     C47443  10.109   3.868   3.355  1.0500  0.1317 -0.1869
  352MOL0     O47444  10.012   3.784   3.416 -0.3971  0.2989 -0.2756
  352MOL0     C47445   9.880   3.776   3.348 -0.7563 -0.1752  0.2391
  352MOL0     C47446   9.879   3.670   3.240  0.5522  0.1264 -0.0651
  352MOL0     C47447   9.739   3.647   3.195  0.6356  0.0243  0.3118
  352MOL0     C47448   9.725   3.515   3.106 -0.1668 -0.6877 -0.3391
  352MOL0     C47449   9.603   3.516   3.033  0.5628 -0.5180 -0.2033
  352MOL0     C47450   9.496   3.512   2.983  0.0211 -0.7018  0.2627
  352MOL0     C47451  10.243   3.830   3.375 -0.1130 -0.0909 -0.3728
  352MOL0     C47452  10.349   3.900   3.322  1.2838 -0.2362  0.6089
  352MOL0     H47453  10.749   3.933   3.140 -2.0824 -1.0580 -1.0058
  352MOL0     H47454  10.943   4.010   3.009  3.1934  3.3367 -1.2457
  352MOL0     H47455  10.989   4.454   3.045 -3.7614 -1.8963 -2.1962
  352MOL0     H47456  11.099   4.328   3.105  0.8313 -2.5986 -1.8649
  352MOL0     H47457  11.230   4.347   2.914 -1.2555 -0.5264 -2.4048
  352MOL0     H47458  11.112   4.485   2.859 -0.5693  0.6400 -0.2617
  352MOL0     H47459  11.195   4.616   3.069  1.7549  1.4184 -1.7550
  352MOL0     H47460  11.276   4.467   3.118 -1.2908 -0.8999  0.1135
  352MOL0     H47461  11.447   4.490   2.954  0.3254  1.5214  0.6533
  352MOL0     H47462  11.347   4.608   2.853  1.4482  3.6323  1.7155
  352MOL0     H47463  11.368   4.777   3.002  1.7534  1.0970 -1.3163
  352MOL0     H47464  11.435   4.667   3.125  2.6285 -0.5926 -0.0228
  352MOL0     H47465  11.620   4.619   2.992 -0.3674 -0.6876 -2.6626
  352MOL0     H47466  11.575   4.725   2.863  3.2146 -2.6992  0.1082
  352MOL0     H47467  11.559   4.916   3.036  0.3530  0.4600 -1.4694
  352MOL0     H47468  11.616   4.797   3.156  0.6731 -1.3602 -1.2056
  352MOL0     H47469  11.811   4.794   2.959 -0.4342 -0.0129 -1.9556
  352MOL0     H47470  11.811   4.840   3.134 -0.7421  1.5751  0.2787
  352MOL0     H47471  11.775   4.971   2.777 -0.8698  0.1033  0.0507
  352MOL0     H47472  11.915   5.354   2.792  0.0524 -1.6143  1.5138
  352MOL0     H47473  11.952   5.238   2.675 -1.9541  2.6335 -1.6824
  352MOL0     H47474  11.674   5.336   2.768  0.9759  0.6643  1.1136
  352MOL0     H47475  11.693   5.194   2.664  1.2836  0.2592 -1.8053
  352MOL0     H47476  11.773   5.313   2.480  2.4471  1.9505 -0.0823
  352MOL0     H47477  11.835   5.436   2.573  2.5685 -1.3331 -0.8033
  352MOL0     H47478  11.550   5.385   2.496 -1.3571  1.2176 -1.0024
  352MOL0     H47479  11.659   5.511   2.433  0.4015  3.9154  1.7822
  352MOL0     H47480  11.673   5.740   2.480  0.7858 -0.0210 -3.6667
  352MOL0     H47481  11.613   6.018   2.402 -2.1579  0.4602  0.0693
  352MOL0     H47482  11.677   5.899   2.291  1.9777  2.5549  0.8183
  352MOL0     H47483  11.534   5.996   2.242  0.1253  1.3177  0.5629
  352MOL0     H47484  10.926   5.876   2.184  0.2255  0.1152 -0.4272
  352MOL0     H47485  10.729   6.010   2.167  0.4870 -3.3078 -0.3690
  352MOL0     H47486  10.624   6.118   2.451  1.2245 -2.1175 -3.5273
  352MOL0     H47487  10.544   6.288   2.464 -0.7514 -1.0922  2.5201
  352MOL0     H47488  10.420   6.229   2.258  0.2135  0.1693 -1.1684
  352MOL0     H47489  10.510   6.081   2.249 -2.2140 -2.2780  0.6874
  352MOL0     H47490  10.258   6.128   2.383  1.4280  0.3229 -2.3833
  352MOL0     H47491  10.366   6.090   2.520  0.0981 -1.8974  1.2132
  352MOL0     H47492  10.285   5.917   2.284  1.0816 -3.2737 -0.3611
  352MOL0     H47493  10.451   5.900   2.349  0.5373  1.2164  0.7021
  352MOL0     H47494  10.235   5.755   2.421 -1.7405  2.4651 -1.0004
  352MOL0     H47495  10.168   5.897   2.484  0.2812  1.2120  1.6851
  352MOL0     H47496  10.433   5.757   2.587 -0.2772 -1.5296  1.2520
  352MOL0     H47497  10.373   5.909   2.647  4.1252 -1.1446 -0.0388
  352MOL0     H47498  10.197   5.663   2.619 -2.8432  0.1899  0.9485
  352MOL0     H47499  10.183   5.811   2.736  1.9635  1.7180 -1.1254
  352MOL0     H47500  10.363   5.718   2.877  2.1182  3.5796 -3.3220
  352MOL0     H47501  10.390   5.586   2.765  2.0395  3.2194 -1.7171
  352MOL0     H47502  10.876   6.293   2.445  0.7113  1.1116  0.1350
  352MOL0     H47503  11.097   6.142   2.461  1.2233 -4.5004 -0.4438
  352MOL0     H47504  11.188   5.757   2.501  0.5450  1.2810 -2.2319
  352MOL0     H47505  11.301   5.590   2.613 -2.2292 -1.6254 -3.4842
  352MOL0     H47506  10.785   4.410   2.998  1.4724 -0.0924 -1.3633
  352MOL0     H47507  10.570   4.318   3.116 -1.9985 -1.9541 -0.6959
  352MOL0     H47508  10.171   4.162   3.190  0.0682 -0.5192 -0.4504
  352MOL0     H47509   9.978   4.027   3.276 -0.6317 -1.9489 -1.5584
  352MOL0     H47510   9.805   3.749   3.423  1.5061 -1.3828  2.2032
  352MOL0     H47511   9.842   3.872   3.313  0.1844 -0.9016 -3.0703
  352MOL0     H47512   9.906   3.575   3.286 -2.0497 -0.0950  1.2250
  352MOL0     H47513   9.947   3.694   3.159  0.9383 -1.5866 -0.2753
  352MOL0     H47514   9.714   3.739   3.142  1.0269 -0.2731 -0.4080
  352MOL0     H47515   9.665   3.650   3.275  2.5079 -0.2945  2.1700
  352MOL0     H47516   9.734   3.426   3.169 -0.9635 -1.8323 -1.7690
  352MOL0     H47517   9.808   3.505   3.035  0.0827 -0.4834 -0.0783
  352MOL0     H47518   9.394   3.499   2.956  0.1608 -2.5406  0.5217
  352MOL0     H47519  10.250   3.738   3.433 -2.4575 -1.2350 -1.7412
  352MOL0     H47520  10.444   3.848   3.331  2.6273  2.0926  0.6254
  353MOL0     O47521   4.173   5.940   6.582  0.5821 -0.5816 -0.1529
  353MOL0     C47522   4.258   6.020   6.621 -0.5463  0.5452 -0.2220
  353MOL0     O47523   4.366   5.991   6.702  0.9806 -0.0919 -0.4353
  353MOL0     C47524   4.343   5.888   6.787 -0.4298 -0.4909 -0.1356
  353MOL0     C47525   4.287   5.911   6.919 -0.2416 -0.5044  0.6866
  353MOL0     C47526   4.299   5.817   7.018 -0.2638  0.9190 -0.1874
  353MOL0     C47527   4.354   5.692   6.985 -0.0896  0.2438 -0.8620
  353MOL0     O47528   4.363   5.611   7.093 -0.5693 -0.3968 -0.2026
  353MOL0     C47529   4.441   5.491   7.089 -0.2000 -0.4971  0.5456
  353MOL0     C47530   4.593   5.517   7.083 -0.4655 -0.4691 -0.0721
  353MOL0     C47531   4.637   5.547   7.227 -0.4618  0.0347 -0.2842
  353MOL0     C47532   4.577   5.678   7.285 -0.4379  0.5699  0.9240
  353MOL0     C47533   4.658   5.729   7.410  0.6114  0.7356 -0.2555
  353MOL0     C47534   4.691   5.625   7.517  0.1545  1.0910 -0.6436
  353MOL0     C47535   4.741   5.680   7.646  0.3444  0.0773  0.3794
  353MOL0     C47536   4.800   5.574   7.737  0.9201  0.9208 -0.2533
  353MOL0     N47537   4.754   5.434   7.705 -0.5044 -0.1617  0.1816
  353MOL0     C47538   4.624   5.377   7.724  0.0121 -0.3520  0.3929
  353MOL0     C47539   4.648   5.246   7.703 -0.3415  0.0617  0.2761
  353MOL0     C47540   4.546   5.138   7.718 -0.2135 -0.1650  0.8328
  353MOL0     C47541   4.431   5.148   7.616 -0.2524 -0.5189  1.1303
  353MOL0     C47542   4.490   5.140   7.473  0.1135 -0.1804  0.0430
  353MOL0     C47543   4.405   5.128   7.351 -0.5707 -0.8528 -0.1880
  353MOL0     O47544   4.379   4.989   7.314 -1.2437 -0.0253  0.2795
  353MOL0     C47545   4.277   4.972   7.231 -0.3456  1.2777 -0.4058
  353MOL0     C47546   4.147   4.924   7.263  0.7619  0.5453 -0.5117
  353MOL0     C47547   4.042   4.903   7.174  0.3179 -0.0469 -0.2380
  353MOL0     C47548   3.912   4.868   7.227  0.5871 -0.2119 -0.0351
  353MOL0     C47549   4.060   4.959   7.045  0.3457 -0.1645 -0.4848
  353MOL0     C47550   3.957   4.941   6.935  0.8196  0.0181  0.2907
  353MOL0     O47551   3.851   4.848   6.944  0.3521  0.3413 -0.2971
  353MOL0     C47552   3.758   4.845   6.844  0.5359  0.0737 -0.2260
  353MOL0     C47553   3.811   4.821   6.714  0.1584  1.1149 -0.2088
  353MOL0     C47554   3.729   4.843   6.599 -0.1949 -0.4289  0.1004
  353MOL0     C47555   3.604   4.897   6.613  0.4420 -1.0096  1.2395
  353MOL0     O47556   3.531   4.920   6.493  0.5717  0.1214 -0.5140
  353MOL0     C47557   3.591   4.956   6.366 -0.7114 -0.6937 -0.1876
  353MOL0     C47558   3.678   5.082   6.368  0.7527  0.7623  0.2172
  353MOL0     C47559   3.589   5.202   6.419  0.2557 -0.0151  0.1608
  353MOL0     C47560   3.683   5.313   6.441  0.1512 -1.1152 -0.1905
  353MOL0     C47561   3.780   5.345   6.327 -0.6390  0.1341  1.0101
  353MOL0     C47562   3.838   5.486   6.330  1.6533 -0.3525  0.4997
  353MOL0     C47563   3.923   5.536   6.214 -0.7175  0.8981  0.9427
  353MOL0     C47564   3.946   5.683   6.215  0.0442 -0.5863  0.9191
  353MOL0    Cl47565   4.011   5.739   6.061  0.1041  0.2855  0.4804
  353MOL0     C47566   3.547   4.913   6.737  0.1006  1.1124 -1.0012
  353MOL0     C47567   3.631   4.884   6.858  0.5550  0.3367 -0.0897
  353MOL0     O47568   3.963   5.024   6.836  0.1453  0.0751  0.1190
  353MOL0     C47569   4.178   5.029   7.011 -0.4438 -0.6253  0.5094
  353MOL0     C47570   4.281   5.021   7.097 -1.9030  1.0018 -0.0408
  353MOL0     N47571   4.779   5.225   7.663  0.0693 -0.4793  0.5480
  353MOL0     N47572   4.839   5.341   7.651  0.1836 -0.3037 -0.0561
  353MOL0     C47573   4.409   5.672   6.860 -0.8041  0.1148  0.1657
  353MOL0     C47574   4.402   5.767   6.758  0.2939 -0.4934  0.3408
  353MOL0     C47575   4.267   6.159   6.567 -0.9869  0.0971  0.3106
  353MOL0     C47576   4.360   6.259   6.613 -0.4185 -0.2493 -0.1064
  353MOL0     C47577   4.359   6.393   6.568  0.0334 -0.1401  0.2164
  353MOL0     C47578   4.263   6.418   6.465 -0.0247  0.3985 -0.0738
  353MOL0     O47579   4.250   6.544   6.414 -0.0619 -0.0363  1.2463
  353MOL0     C47580   4.331   6.648   6.459  0.1700 -1.1105 -0.3971
  353MOL0     C47581   4.303   6.782   6.379 -0.7379  0.4169  0.2558
  353MOL0     C47582   4.347   6.775   6.231 -0.1190  0.5837 -0.1177
  353MOL0     C47583   4.502   6.759   6.213  0.1030 -0.5564 -0.1765
  353MOL0     C47584   4.573   6.872   6.272 -0.3499 -1.2525  1.2857
  353MOL0     C47585   4.624   6.965   6.339 -0.2088 -0.1945  0.4804
  353MOL0     C47586   4.178   6.322   6.406  0.1405  0.7040 -0.8199
  353MOL0     C47587   4.182   6.187   6.455 -0.6481 -0.1208 -0.4490
  353MOL0     H47588   4.221   5.998   6.917 -1.9991 -1.7886 -0.3867
  353MOL0     H47589   4.258   5.845   7.114  1.1630 -1.2372  1.1107
  353MOL0     H47590   4.408   5.426   7.171 -1.1874 -0.4806  0.1842
  353MOL0     H47591   4.410   5.439   6.997  1.2100 -3.3824  1.5644
  353MOL0     H47592   4.640   5.427   7.044  2.6577  1.2698 -0.5927
  353MOL0     H47593   4.626   5.599   7.020  0.8677 -0.5711  0.4680
  353MOL0     H47594   4.622   5.465   7.297 -0.9472  1.1460  0.9526
  353MOL0     H47595   4.746   5.546   7.225 -0.3347  3.4738 -2.0945
  353MOL0     H47596   4.572   5.753   7.205  1.0120 -0.0795  0.1893
  353MOL0     H47597   4.479   5.650   7.326 -1.6258 -0.1108 -2.1312
  353MOL0     H47598   4.755   5.766   7.374  0.6576  0.7161 -0.1499
  353MOL0     H47599   4.596   5.800   7.465 -2.2882 -1.4283 -0.5067
  353MOL0     H47600   4.610   5.553   7.529  2.5881 -1.7827 -0.2369
  353MOL0     H47601   4.773   5.563   7.480 -0.0007  1.3043 -1.3657
  353MOL0     H47602   4.826   5.744   7.622 -0.7511  1.7090  0.7171
  353MOL0     H47603   4.660   5.725   7.704  0.4281 -2.2665  2.4786
  353MOL0     H47604   4.777   5.613   7.837  0.1406  2.1802 -0.9011
  353MOL0     H47605   4.908   5.578   7.725  1.3631 -1.3307  1.8696
  353MOL0     H47606   4.531   5.430   7.737 -0.7025 -1.9764  2.4298
  353MOL0     H47607   4.588   5.040   7.696 -2.4288 -0.9536 -0.2467
  353MOL0     H47608   4.500   5.137   7.817  0.8965  1.6477  1.4122
  353MOL0     H47609   4.367   5.235   7.634  1.0142  0.6770  0.0547
  353MOL0     H47610   4.370   5.063   7.647  0.2430 -0.3003  2.7934
  353MOL0     H47611   4.559   5.057   7.461  0.2834  0.0419 -0.5376
  353MOL0     H47612   4.561   5.220   7.450  3.1457 -3.3201 -2.6121
  353MOL0     H47613   4.457   5.176   7.268 -0.5398 -1.4456 -0.5176
  353MOL0     H47614   4.312   5.184   7.368  1.7434  3.1847  0.4634
  353MOL0     H47615   4.147   4.891   7.366 -0.2310  0.5756 -0.4913
  353MOL0     H47616   3.859   4.956   7.265 -0.1181  0.0475 -1.5393
  353MOL0     H47617   3.841   4.808   7.169 -0.4922  4.6192 -4.4279
  353MOL0     H47618   3.934   4.812   7.319 -1.5283  0.5027  0.9750
  353MOL0     H47619   3.908   4.774   6.699  0.5654  2.0767 -0.7167
  353MOL0     H47620   3.763   4.805   6.504  1.3188 -3.8614  1.8470
  353MOL0     H47621   3.647   4.870   6.327  2.0736  1.3627 -0.9874
  353MOL0     H47622   3.520   4.962   6.283  1.9811  0.1135 -2.5961
  353MOL0     H47623   3.764   5.077   6.435  0.5115  2.2431  0.6781
  353MOL0     H47624   3.707   5.102   6.264  2.2576  2.4508  0.9035
  353MOL0     H47625   3.531   5.179   6.510 -3.1887  3.2887 -0.8979
  353MOL0     H47626   3.528   5.231   6.334 -0.5022  0.5881  0.8885
  353MOL0     H47627   3.624   5.405   6.445  3.3204  1.1818 -1.2092
  353MOL0     H47628   3.739   5.302   6.535 -2.7947  3.8753  2.5674
  353MOL0     H47629   3.737   5.326   6.229  1.7828 -1.1761  0.1108
  353MOL0     H47630   3.872   5.285   6.334 -0.1299  0.5861 -1.0930
  353MOL0     H47631   3.746   5.545   6.326  1.3174 -0.9354 -0.8171
  353MOL0     H47632   3.882   5.491   6.430 -0.0641  1.6225  1.2353
  353MOL0     H47633   3.865   5.514   6.124  0.9369 -2.5210  0.5649
  353MOL0     H47634   4.018   5.484   6.201 -0.6255  1.5690 -1.4239
  353MOL0     H47635   4.020   5.715   6.288  1.4250  1.9111 -1.4080
  353MOL0     H47636   3.851   5.733   6.236 -0.9116 -2.2017  0.5987
  353MOL0     H47637   3.447   4.948   6.762 -0.7708 -1.7440 -0.0168
  353MOL0     H47638   3.597   4.906   6.959 -1.7830  0.1025 -0.7604
  353MOL0     H47639   4.194   5.065   6.910 -2.5866 -1.9311 -0.3539
  353MOL0     H47640   4.374   5.061   7.058  0.0623 -0.0628  3.1753
  353MOL0     H47641   4.453   5.578   6.828 -2.3364 -0.5797  0.0427
  353MOL0     H47642   4.459   5.759   6.666 -0.0896  2.9487 -0.3461
  353MOL0     H47643   4.429   6.244   6.695  0.0463  4.6106  0.6954
  353MOL0     H47644   4.414   6.477   6.609  0.7239 -0.8653  0.8130
  353MOL0     H47645   4.286   6.671   6.556 -1.7985  1.6695 -1.8482
  353MOL0     H47646   4.440   6.636   6.460  0.4425  0.8764 -1.4709
  353MOL0     H47647   4.361   6.861   6.427 -0.6644  2.3658 -2.8255
  353MOL0     H47648   4.195   6.800   6.377 -1.3412 -1.8165 -5.0577
  353MOL0     H47649   4.297   6.852   6.172 -4.3009 -1.6664  0.0852
  353MOL0     H47650   4.301   6.688   6.182 -1.3565  2.5769 -2.7183
  353MOL0     H47651   4.534   6.747   6.109 -0.7221 -1.9071 -0.3065
  353MOL0     H47652   4.519   6.660   6.258 -2.6462 -1.9303 -1.9395
  353MOL0     H47653   4.677   7.035   6.402  1.7030 -0.4890 -0.7140
  353MOL0     H47654   4.102   6.334   6.330 -1.0811 -1.0480  0.0427
  353MOL0     H47655   4.113   6.117   6.409 -1.2815 -0.2006  0.5864
  354MOL0     O47656   0.671  11.458   9.709  0.3338  0.5431  0.1813
  354MOL0     C47657   0.684  11.556   9.786  0.3566  0.0768 -0.8309
  354MOL0     O47658   0.794  11.634   9.791 -0.6362 -0.4568 -0.8825
  354MOL0     C47659   0.916  11.594   9.761  1.0695  0.3535  1.1627
  354MOL0     C47660   0.983  11.477   9.813  0.1306  0.1517 -1.3238
  354MOL0     C47661   1.112  11.439   9.780 -0.4041 -0.5885  0.2302
  354MOL0     C47662   1.180  11.514   9.682  0.0331  0.2125  1.3280
  354MOL0     O47663   1.298  11.484   9.624  0.1262 -0.3972  0.1478
  354MOL0     C47664   1.326  11.335   9.612 -0.0973 -0.3651  0.4807
  354MOL0     C47665   1.446  11.315   9.526  0.6579 -1.0663 -0.0062
  354MOL0     C47666   1.416  11.354   9.375  0.2494  0.1772  0.0917
  354MOL0     C47667   1.544  11.326   9.294  0.9161  0.9334 -0.0380
  354MOL0     C47668   1.525  11.337   9.141  0.0595 -0.6665  0.0424
  354MOL0     C47669   1.605  11.455   9.088  0.7811  0.9149 -0.3914
  354MOL0     C47670   1.617  11.445   8.940 -0.6848 -0.1558  0.2473
  354MOL0     C47671   1.677  11.579   8.897 -0.5488 -0.3918 -0.0814
  354MOL0     N47672   1.691  11.600   8.748 -0.3623  0.4080  0.5979
  354MOL0     C47673   1.808  11.585   8.687  0.2255 -0.2824  0.4446
  354MOL0     C47674   1.810  11.651   8.572 -0.5250 -0.1582 -0.7012
  354MOL0     C47675   1.931  11.666   8.482  0.5909  0.1000 -0.4318
  354MOL0     C47676   1.903  11.573   8.356  1.5927 -0.0006  1.3160
  354MOL0     C47677   1.806  11.646   8.258  0.3572  0.2320  0.1456
  354MOL0     C47678   1.799  11.572   8.129 -0.8837 -0.3416 -0.0059
  354MOL0     O47679   1.740  11.447   8.148 -0.8004  0.1634 -0.9237
  354MOL0     C47680   1.659  11.406   8.045  1.2217  0.5595  0.8510
  354MOL0     C47681   1.554  11.489   8.009 -1.7488 -0.2655 -0.7864
  354MOL0     C47682   1.452  11.446   7.918 -0.5824 -0.0698  0.3039
  354MOL0     C47683   1.342  11.549   7.886  0.0208  0.7529 -0.1405
  354MOL0     C47684   1.463  11.320   7.853  0.2266  0.1462 -0.1166
  354MOL0     C47685   1.360  11.265   7.753  0.3770  0.1867  1.2791
  354MOL0     O47686   1.426  11.223   7.642  1.0400  0.5517  0.0024
  354MOL0     C47687   1.374  11.132   7.548  0.6535 -0.4104  0.0766
  354MOL0     C47688   1.373  11.163   7.412  0.4510  1.1946 -0.1094
  354MOL0     C47689   1.289  11.094   7.323 -0.5274  1.0629 -0.1949
  354MOL0     C47690   1.216  10.985   7.364  0.1497 -0.1816  0.2542
  354MOL0     O47691   1.142  10.913   7.272 -1.2297 -1.1200  0.2757
  354MOL0     C47692   1.027  10.838   7.321 -0.1120  1.2623  0.6358
  354MOL0     C47693   0.933  10.801   7.210  0.3544 -0.1754  0.6384
  354MOL0     C47694   0.855  10.910   7.152 -0.9898  0.6758  0.2269
  354MOL0     C47695   0.745  10.970   7.244 -0.5351  0.0781 -0.3039
  354MOL0     C47696   0.668  11.092   7.183 -0.8125  0.0080  0.0016
  354MOL0     C47697   0.541  11.113   7.269 -0.1782 -0.4538 -0.8936
  354MOL0     C47698   0.427  11.184   7.203 -0.0052  0.1083 -0.2674
  354MOL0     C47699   0.326  11.093   7.126  1.2869  1.3245 -0.3619
  354MOL0    Cl47700   0.173  11.112   7.221  0.3877  0.0201 -0.3501
  354MOL0     C47701   1.225  10.948   7.502  0.6682  0.5864  0.0847
  354MOL0     C47702   1.303  11.021   7.591  0.0777  0.5682  0.2646
  354MOL0     O47703   1.241  11.249   7.775  0.3116  0.3240 -0.6100
  354MOL0     C47704   1.565  11.239   7.898 -0.6271  0.0931  0.1811
  354MOL0     C47705   1.663  11.279   7.991 -0.0163  0.1468  0.4641
  354MOL0     N47706   1.684  11.706   8.555  0.2096  0.8713  0.1968
  354MOL0     N47707   1.619  11.667   8.664  0.4679  0.1974 -0.5787
  354MOL0     C47708   1.113  11.625   9.632 -0.6572  0.9315  0.3337
  354MOL0     C47709   0.987  11.671   9.669 -0.0769 -0.4175 -0.8548
  354MOL0     C47710   0.567  11.580   9.873  0.1901  0.7176  0.4601
  354MOL0     C47711   0.540  11.705   9.935 -0.2424  0.2342 -0.1412
  354MOL0     C47712   0.428  11.726  10.013  0.7472  0.2364 -0.5671
  354MOL0     C47713   0.329  11.625  10.029  0.5369  0.5173  0.3864
  354MOL0     O47714   0.221  11.649  10.108  0.7996 -0.2505 -1.3608
  354MOL0     C47715   0.102  11.573  10.100 -0.4321  0.6339 -0.6560
  354MOL0     C47716  -0.012  11.649  10.165  0.4944 -0.6935  0.4759
  354MOL0     C47717  -0.062  11.583  10.291  0.0444 -0.4532  0.8675
  354MOL0     C47718  -0.135  11.681  10.389  0.7323  0.1204 -0.6331
  354MOL0     C47719  -0.254  11.741  10.329  0.7920  0.1396  1.1630
  354MOL0     C47720  -0.362  11.789  10.286  0.6898  0.1757 -0.5342
  354MOL0     C47721   0.344  11.508   9.956  0.4827  0.7981  0.8464
  354MOL0     C47722   0.458  11.482   9.885  0.1103  0.4112  1.0729
  354MOL0     H47723   0.927  11.412   9.879 -1.0559  0.0837 -2.3579
  354MOL0     H47724   1.167  11.356   9.822  0.8968  1.7257  3.4833
  354MOL0     H47725   1.323  11.265   9.696  1.6135 -1.9752 -0.7255
  354MOL0     H47726   1.243  11.292   9.555 -0.0971  0.8240 -0.4575
  354MOL0     H47727   1.509  11.394   9.567 -0.7240  0.7996 -1.2940
  354MOL0     H47728   1.485  11.213   9.522  0.8509 -0.9853 -3.3100
  354MOL0     H47729   1.331  11.302   9.329  0.3810  0.4980 -0.5195
  354MOL0     H47730   1.399  11.462   9.372  0.4703  0.3109  2.0661
  354MOL0     H47731   1.626  11.389   9.330  0.4867  1.3855  0.1659
  354MOL0     H47732   1.574  11.223   9.315  0.6929  1.0824  1.0892
  354MOL0     H47733   1.576  11.250   9.100 -1.9010 -0.7585 -2.4181
  354MOL0     H47734   1.422  11.345   9.105  0.2558 -0.4864 -0.4846
  354MOL0     H47735   1.533  11.534   9.110 -3.4882 -2.0530 -2.4305
  354MOL0     H47736   1.704  11.466   9.134  0.5882 -1.0910  0.6449
  354MOL0     H47737   1.670  11.359   8.898  0.5611 -0.0300  1.4627
  354MOL0     H47738   1.520  11.444   8.889 -0.4363 -1.0118 -0.2164
  354MOL0     H47739   1.768  11.607   8.951  0.1733 -2.0838 -0.3658
  354MOL0     H47740   1.601  11.654   8.922 -1.0224 -1.1986  0.9799
  354MOL0     H47741   1.889  11.528   8.730  1.3085 -1.1127 -2.4072
  354MOL0     H47742   1.948  11.772   8.459  0.1234  0.2000 -0.3296
  354MOL0     H47743   2.018  11.640   8.543 -0.2516  1.3667  1.4142
  354MOL0     H47744   1.869  11.474   8.389  0.5013  0.1975  0.8402
  354MOL0     H47745   2.002  11.562   8.311  2.5921  0.8182  3.1713
  354MOL0     H47746   1.838  11.748   8.234 -1.4903  0.2619 -2.8104
  354MOL0     H47747   1.708  11.665   8.304  0.1171  2.1511 -1.0300
  354MOL0     H47748   1.899  11.542   8.098 -1.2266 -0.2077 -1.2937
  354MOL0     H47749   1.756  11.640   8.055 -1.8291  2.0089  2.5295
  354MOL0     H47750   1.544  11.587   8.054  0.4391 -0.8760  1.2502
  354MOL0     H47751   1.273  11.503   7.815  1.7004  0.4558 -1.6569
  354MOL0     H47752   1.285  11.580   7.974 -2.0550 -4.3983  0.6919
  354MOL0     H47753   1.386  11.639   7.842 -2.1716  0.4538 -3.3090
  354MOL0     H47754   1.429  11.249   7.374  0.7595  0.9339 -0.2503
  354MOL0     H47755   1.275  11.117   7.218  2.6111  1.1806 -0.7032
  354MOL0     H47756   1.061  10.746   7.370 -0.1628  1.8222  1.7624
  354MOL0     H47757   0.972  10.887   7.402 -4.7768 -0.2228 -1.2626
  354MOL0     H47758   0.991  10.746   7.135  0.8236  2.3990 -1.0463
  354MOL0     H47759   0.866  10.727   7.253 -1.3267  0.1879 -1.2220
  354MOL0     H47760   0.813  10.868   7.060  0.3576  0.6841 -0.4033
  354MOL0     H47761   0.923  10.988   7.117 -2.1653  1.1343 -1.1240
  354MOL0     H47762   0.676  10.889   7.268  0.4587 -0.4735  0.8289
  354MOL0     H47763   0.800  11.003   7.333  0.1600  0.0438 -0.7156
  354MOL0     H47764   0.646  11.067   7.079 -1.0531 -0.3008  0.1227
  354MOL0     H47765   0.735  11.178   7.183  0.8516 -1.1691 -2.2043
  354MOL0     H47766   0.509  11.015   7.307 -0.9186  0.7672  1.8626
  354MOL0     H47767   0.579  11.168   7.355 -3.3366 -1.6106  1.4249
  354MOL0     H47768   0.460  11.265   7.136 -0.9002  1.4335  0.8339
  354MOL0     H47769   0.362  11.222   7.282 -1.9622 -0.0531 -1.7307
  354MOL0     H47770   0.367  10.992   7.122  0.7170  1.0204  0.8792
  354MOL0     H47771   0.298  11.145   7.034 -3.2848  1.5917  0.9308
  354MOL0     H47772   1.162  10.869   7.541 -0.1303  0.1620 -1.9341
  354MOL0     H47773   1.305  11.002   7.698 -0.9744 -2.3679 -0.1536
  354MOL0     H47774   1.577  11.139   7.858  0.4287 -1.4542  3.8788
  354MOL0     H47775   1.737  11.209   8.029 -0.8058 -0.6713  0.5220
  354MOL0     H47776   1.165  11.676   9.552 -2.8619  2.9323  0.0445
  354MOL0     H47777   0.930  11.746   9.615 -3.1058 -2.9281 -1.4631
  354MOL0     H47778   0.621  11.773   9.913 -0.1746  0.2380  0.1187
  354MOL0     H47779   0.425  11.827  10.052  2.7612 -0.3726  1.3917
  354MOL0     H47780   0.068  11.554   9.997  3.9677 -1.0019 -2.0360
  354MOL0     H47781   0.103  11.485  10.165 -2.1134  1.3651  0.4279
  354MOL0     H47782  -0.096  11.664  10.097 -0.0629 -1.7322  0.9244
  354MOL0     H47783   0.014  11.752  10.194 -1.5088  0.1823 -0.6199
  354MOL0     H47784   0.010  11.523  10.348 -1.8234 -2.7919  0.9027
  354MOL0     H47785  -0.129  11.503  10.257  1.8199 -0.0924 -4.3628
  354MOL0     H47786  -0.072  11.764  10.424 -0.3687  0.1037  1.6335
  354MOL0     H47787  -0.179  11.627  10.474 -0.5226  1.3553 -0.4526
  354MOL0     H47788  -0.449  11.832  10.239  1.1027 -1.0601 -2.5646
  354MOL0     H47789   0.267  11.431   9.951  0.3981  0.9051 -3.6799
  354MOL0     H47790   0.457  11.385   9.836  0.1000  1.5097 -1.2778
  355MOL0     O47791   3.050   0.562   4.701 -0.3610 -0.4196  0.2713
  355MOL0     C47792   2.988   0.472   4.739  0.5406 -0.6025  0.6293
  355MOL0     O47793   2.893   0.408   4.670 -1.2207  0.3189  0.0670
  355MOL0     C47794   2.873   0.446   4.534 -0.3928  0.0227 -0.3615
  355MOL0     C47795   2.961   0.397   4.435  0.7446 -0.1865 -0.2893
  355MOL0     C47796   2.936   0.429   4.300  0.4476 -0.0621  0.1143
  355MOL0     C47797   2.842   0.525   4.265  0.4651 -0.3869  0.4758
  355MOL0     O47798   2.830   0.559   4.129 -1.0680  0.2918  0.2919
  355MOL0     C47799   2.703   0.586   4.068  0.2609  0.0024 -0.5490
  355MOL0     C47800   2.670   0.488   3.951 -0.1648  0.1284 -0.1399
  355MOL0     C47801   2.533   0.518   3.886  0.1398  0.0436  0.5702
  355MOL0     C47802   2.517   0.418   3.767 -0.2286 -0.2395  0.1840
  355MOL0     C47803   2.531   0.489   3.634  0.9204 -0.3862 -0.1242
  355MOL0     C47804   2.394   0.551   3.596 -0.0143 -0.6255 -0.3115
  355MOL0     C47805   2.394   0.640   3.470  0.2979 -0.0134 -0.2257
  355MOL0     C47806   2.261   0.617   3.395 -0.4148 -0.0373  0.3856
  355MOL0     N47807   2.278   0.684   3.264  0.5955  0.1546 -0.0114
  355MOL0     C47808   2.360   0.640   3.160 -0.3594 -0.2905 -0.0747
  355MOL0     C47809   2.369   0.752   3.087  0.1285  0.0755  0.2390
  355MOL0     C47810   2.449   0.760   2.961 -0.3140 -0.0729  0.4718
  355MOL0     C47811   2.380   0.792   2.828 -0.5429  0.5606 -0.7256
  355MOL0     C47812   2.245   0.719   2.806 -0.2605 -0.5125 -0.1493
  355MOL0     C47813   2.246   0.596   2.732  0.3237 -0.6450  0.2763
  355MOL0     O47814   2.136   0.519   2.757 -0.0573  0.0238  0.5013
  355MOL0     C47815   2.130   0.417   2.667  0.2094  0.5200 -0.1724
  355MOL0     C47816   2.167   0.420   2.538 -0.0109 -0.2052  0.1745
  355MOL0     C47817   2.141   0.304   2.452 -0.6713 -0.0341 -0.3595
  355MOL0     C47818   2.137   0.331   2.305  0.8250  0.4227 -0.5912
  355MOL0     C47819   2.102   0.183   2.516  0.1627 -0.1760  0.4385
  355MOL0     C47820   2.087   0.057   2.438 -1.4293  0.5815  0.2433
  355MOL0     O47821   2.191   0.032   2.351  0.2755 -0.6444 -0.7079
  355MOL0     C47822   2.206  -0.080   2.278  0.1950 -0.3658 -0.0061
  355MOL0     C47823   2.313  -0.066   2.189 -1.4199 -0.6640  0.2652
  355MOL0     C47824   2.340  -0.164   2.100 -0.1652 -1.1243  0.4454
  355MOL0     C47825   2.286  -0.283   2.106 -0.3542  1.0242  0.0966
  355MOL0     O47826   2.334  -0.388   2.030  0.1088 -0.5587  1.2920
  355MOL0     C47827   2.476  -0.411   2.047 -0.0752 -0.1791 -0.6748
  355MOL0     C47828   2.499  -0.554   2.003  0.3030  0.5926 -0.5613
  355MOL0     C47829   2.500  -0.583   1.853 -0.3461 -0.0505  0.5768
  355MOL0     C47830   2.531  -0.724   1.818 -0.0447  0.1544 -0.3228
  355MOL0     C47831   2.485  -0.747   1.672 -0.1346 -0.8853 -0.0689
  355MOL0     C47832   2.500  -0.891   1.632  0.4678  0.6427 -0.1296
  355MOL0     C47833   2.451  -0.934   1.487  0.1049  0.6825 -0.4055
  355MOL0     C47834   2.388  -1.075   1.493 -0.5763  0.5501 -0.3658
  355MOL0    Cl47835   2.492  -1.203   1.567  0.2975  0.1942  0.8788
  355MOL0     C47836   2.186  -0.309   2.195 -0.4360 -0.6164 -0.1544
  355MOL0     C47837   2.144  -0.205   2.280  0.2520 -0.2341  0.0630
  355MOL0     O47838   1.994  -0.017   2.464 -0.3767  0.7887 -0.9454
  355MOL0     C47839   2.056   0.192   2.646  0.0761  0.9341 -0.5917
  355MOL0     C47840   2.071   0.303   2.721  0.2438  0.5174 -0.2709
  355MOL0     N47841   2.302   0.857   3.133  0.8363  0.2485 -0.5968
  355MOL0     N47842   2.238   0.815   3.235 -0.8058  0.5995 -0.2957
  355MOL0     C47843   2.760   0.584   4.362 -0.7261  0.2883  0.6572
  355MOL0     C47844   2.768   0.535   4.497  0.0025  0.8377 -0.0396
  355MOL0     C47845   3.012   0.419   4.876 -0.0416 -0.6116  0.4354
  355MOL0     C47846   3.044   0.499   4.984 -0.2291 -0.1709 -0.5168
  355MOL0     C47847   3.057   0.456   5.121 -0.2520 -0.0165  0.7515
  355MOL0     C47848   3.031   0.320   5.152 -0.0613  0.4608  0.7385
  355MOL0     O47849   3.031   0.266   5.279  0.9560  1.1429 -0.1121
  355MOL0     C47850   3.060   0.354   5.388 -0.1866  0.1364 -0.3324
  355MOL0     C47851   3.027   0.294   5.525  0.2732  0.3402  0.6651
  355MOL0     C47852   3.002   0.402   5.624  0.0589 -0.2023 -0.6212
  355MOL0     C47853   2.994   0.344   5.764  1.1488  0.4447 -0.5243
  355MOL0     C47854   2.869   0.267   5.767  0.3902  0.5995 -0.7815
  355MOL0     C47855   2.759   0.206   5.760  0.2885  0.1246  0.0633
  355MOL0     C47856   3.005   0.230   5.039 -0.2368 -0.8503 -0.4284
  355MOL0     C47857   2.996   0.286   4.905  0.1823 -0.8012  0.2889
  355MOL0     H47858   3.036   0.322   4.457  0.9050 -0.9793 -3.1722
  355MOL0     H47859   2.992   0.380   4.221 -1.8765  0.1417 -1.7612
  355MOL0     H47860   2.628   0.577   4.147  4.4627 -0.0523  3.9060
  355MOL0     H47861   2.707   0.690   4.035  2.7215  0.8664  2.0719
  355MOL0     H47862   2.744   0.483   3.870 -0.4700  0.3627 -0.4393
  355MOL0     H47863   2.672   0.386   3.989  3.5615 -0.0163 -0.3426
  355MOL0     H47864   2.453   0.490   3.955  0.3695  0.8929  1.1981
  355MOL0     H47865   2.533   0.624   3.858  4.0938 -0.3664 -1.7548
  355MOL0     H47866   2.595   0.341   3.773  0.5963  0.5763  0.1644
  355MOL0     H47867   2.419   0.371   3.784 -0.2913 -0.2479 -0.1733
  355MOL0     H47868   2.610   0.564   3.621  0.6327 -0.1400 -0.4860
  355MOL0     H47869   2.564   0.410   3.566 -2.3154  0.2580 -2.7051
  355MOL0     H47870   2.329   0.464   3.578  1.5380 -2.4083  1.9979
  355MOL0     H47871   2.352   0.601   3.684  1.9405 -1.6302  1.2740
  355MOL0     H47872   2.404   0.746   3.494 -2.9793  0.9438 -2.3529
  355MOL0     H47873   2.477   0.604   3.408  1.4623  0.5508  0.9696
  355MOL0     H47874   2.184   0.671   3.451  1.0624 -0.8084  3.3243
  355MOL0     H47875   2.235   0.513   3.372  1.5373 -0.0217 -2.3632
  355MOL0     H47876   2.407   0.542   3.148 -2.6495 -1.5754  0.8403
  355MOL0     H47877   2.522   0.841   2.971 -0.5515 -0.0535  2.5720
  355MOL0     H47878   2.486   0.659   2.942 -3.3495 -1.1924  0.0456
  355MOL0     H47879   2.448   0.787   2.742  3.5826 -1.5813  2.3225
  355MOL0     H47880   2.369   0.901   2.826 -1.9345  0.4337 -0.5936
  355MOL0     H47881   2.178   0.792   2.758 -0.8469 -0.4606  0.7204
  355MOL0     H47882   2.204   0.710   2.907  2.1427  0.5060  1.0043
  355MOL0     H47883   2.334   0.538   2.759 -1.3827 -3.0080  1.0317
  355MOL0     H47884   2.248   0.629   2.628  0.4934  0.2379  0.5481
  355MOL0     H47885   2.202   0.508   2.486 -0.4787 -0.2227 -0.1810
  355MOL0     H47886   2.039   0.310   2.262  1.0042  5.1436 -4.0120
  355MOL0     H47887   2.155   0.436   2.281 -2.5566  0.8996 -1.4578
  355MOL0     H47888   2.215   0.277   2.250 -1.3718 -0.2302 -3.2553
  355MOL0     H47889   2.382   0.017   2.180 -0.3511 -1.5988 -0.3953
  355MOL0     H47890   2.405  -0.149   2.015 -3.3547  1.6820 -1.7679
  355MOL0     H47891   2.529  -0.352   1.972 -0.9395  0.3437 -0.8933
  355MOL0     H47892   2.504  -0.401   2.153 -1.9002  0.2530 -0.1894
  355MOL0     H47893   2.589  -0.605   2.041 -0.6451 -0.9439 -0.3111
  355MOL0     H47894   2.422  -0.615   2.050 -0.4197  2.4959  0.8398
  355MOL0     H47895   2.569  -0.518   1.798  1.4649 -0.7006  1.9727
  355MOL0     H47896   2.403  -0.560   1.808  0.8098 -2.5148 -3.7125
  355MOL0     H47897   2.640  -0.728   1.821 -0.0875 -1.2728 -0.2313
  355MOL0     H47898   2.484  -0.788   1.893  0.7632  0.8051  0.7796
  355MOL0     H47899   2.541  -0.683   1.603  0.7001  0.9161  2.1431
  355MOL0     H47900   2.382  -0.714   1.653 -0.1602 -1.3716 -0.8006
  355MOL0     H47901   2.609  -0.905   1.632  0.3789 -0.0969 -0.2275
  355MOL0     H47902   2.460  -0.962   1.705 -2.1815 -0.5641 -2.5975
  355MOL0     H47903   2.533  -0.938   1.415  0.7646 -1.0996  0.3788
  355MOL0     H47904   2.383  -0.858   1.448  3.0795  3.7564 -0.1196
  355MOL0     H47905   2.354  -1.106   1.393 -2.6084 -0.7962  0.6564
  355MOL0     H47906   2.298  -1.073   1.556  1.5695  1.6005  2.8961
  355MOL0     H47907   2.153  -0.412   2.207  3.1785 -1.5844  3.7690
  355MOL0     H47908   2.057  -0.206   2.345 -0.8216  0.4250 -1.3293
  355MOL0     H47909   2.032   0.100   2.699  5.8990  0.3272  1.7192
  355MOL0     H47910   2.042   0.306   2.825 -3.2281 -2.4670 -0.9307
  355MOL0     H47911   2.700   0.671   4.338  2.6647  2.5627 -0.1657
  355MOL0     H47912   2.694   0.579   4.563 -0.7909  2.0786 -1.6740
  355MOL0     H47913   3.069   0.604   4.974 -2.1955  0.5183  1.1381
  355MOL0     H47914   3.094   0.522   5.198  2.3259 -3.1340  2.4554
  355MOL0     H47915   3.162   0.394   5.387 -1.3111  3.2637 -0.4138
  355MOL0     H47916   2.994   0.441   5.379  0.4757  0.7954  0.8778
  355MOL0     H47917   3.106   0.227   5.563  1.0918  1.7062  1.4558
  355MOL0     H47918   2.942   0.227   5.512  1.4339 -0.7867 -1.6832
  355MOL0     H47919   2.910   0.456   5.597 -0.1082 -0.5554 -0.7586
  355MOL0     H47920   3.092   0.465   5.631  1.2489 -1.9453  0.3125
  355MOL0     H47921   2.992   0.421   5.841 -0.6490 -0.6211  0.5642
  355MOL0     H47922   3.081   0.287   5.798  0.1879  0.5552  2.3513
  355MOL0     H47923   2.668   0.151   5.756 -0.6253  1.0003  4.2485
  355MOL0     H47924   2.990   0.125   5.063 -2.8035 -0.6378 -0.8119
  355MOL0     H47925   2.983   0.218   4.821  0.7935  1.3986 -1.6868
  356MOL0     O47926   0.750   7.492   3.810 -0.4924  0.8338 -0.2300
  356MOL0     C47927   0.843   7.530   3.733 -0.1513 -0.0903  0.0552
  356MOL0     O47928   0.942   7.457   3.700 -0.6981  0.0776 -0.7856
  356MOL0     C47929   0.939   7.320   3.728 -0.8472 -0.3735 -0.0793
  356MOL0     C47930   1.043   7.255   3.800  0.9410  0.6411 -0.5793
  356MOL0     C47931   1.036   7.118   3.826 -0.7012  0.8837  0.4355
  356MOL0     C47932   0.932   7.040   3.770 -0.4225  0.3984 -0.2622
  356MOL0     O47933   0.949   6.905   3.787  0.0018 -0.8246 -0.5927
  356MOL0     C47934   1.055   6.854   3.704 -1.1405 -0.2973  0.3475
  356MOL0     C47935   1.097   6.706   3.748  0.7686 -0.1398  0.4817
  356MOL0     C47936   0.973   6.614   3.752  0.4267 -0.5042 -0.2878
  356MOL0     C47937   1.006   6.469   3.795  1.4025  0.6587 -0.2678
  356MOL0     C47938   0.883   6.377   3.777 -0.3780 -0.5505  0.0486
  356MOL0     C47939   0.927   6.232   3.785  1.0188  0.1921 -0.2277
  356MOL0     C47940   0.829   6.132   3.856 -0.2919 -0.7336 -0.2451
  356MOL0     C47941   0.892   5.993   3.869  0.1483  0.0462 -0.4335
  356MOL0     N47942   0.786   5.908   3.938 -0.3077 -0.1744 -0.1187
  356MOL0     C47943   0.774   5.894   4.074  1.1418 -0.8778  0.2958
  356MOL0     C47944   0.666   5.822   4.085  0.3310 -0.5823  0.1721
  356MOL0     C47945   0.596   5.784   4.214  0.5561  0.0039 -0.1877
  356MOL0     C47946   0.553   5.909   4.303  0.3237 -0.6190  0.0710
  356MOL0     C47947   0.659   5.932   4.416  0.3840 -0.1298 -0.3758
  356MOL0     C47948   0.596   5.911   4.562 -0.1362  0.1538 -0.5625
  356MOL0     O47949   0.698   5.914   4.660 -0.2703  0.1432 -0.5722
  356MOL0     C47950   0.657   5.940   4.790  0.2191  0.2697 -0.4182
  356MOL0     C47951   0.747   5.993   4.883 -0.0276  0.5439 -0.5827
  356MOL0     C47952   0.712   6.013   5.013 -0.4064 -0.1436  0.2546
  356MOL0     C47953   0.815   6.081   5.102  0.8046 -0.3101  0.2324
  356MOL0     C47954   0.578   5.990   5.066  0.1480  0.5827  0.9530
  356MOL0     C47955   0.542   6.003   5.208  0.1992  0.8726  0.4972
  356MOL0     O47956   0.412   6.042   5.240 -0.8692 -0.0179 -0.0989
  356MOL0     C47957   0.373   6.066   5.367  0.2637 -0.6945  0.3008
  356MOL0     C47958   0.455   6.134   5.461 -0.0691  0.3527 -1.0143
  356MOL0     C47959   0.415   6.154   5.595 -0.0807 -0.3749  0.3380
  356MOL0     C47960   0.279   6.134   5.639 -0.5842  0.5842 -0.9742
  356MOL0     O47961   0.224   6.149   5.764 -0.1223  0.2071 -0.7899
  356MOL0     C47962   0.197   6.289   5.798 -0.6860  0.4311  0.5778
  356MOL0     C47963   0.308   6.361   5.870 -0.5988 -0.4747 -1.0248
  356MOL0     C47964   0.305   6.518   5.861 -0.2149  0.5117 -0.5761
  356MOL0     C47965   0.429   6.586   5.936  0.4698 -0.1353 -0.1305
  356MOL0     C47966   0.413   6.580   6.091 -0.6828  1.0748 -0.5561
  356MOL0     C47967   0.546   6.607   6.171  0.1305 -0.2564  0.1893
  356MOL0     C47968   0.564   6.755   6.194 -0.1400  0.0054 -0.2441
  356MOL0     C47969   0.702   6.800   6.169 -0.2779 -0.0941  0.0710
  356MOL0    Cl47970   0.809   6.710   6.265 -0.4207  0.1502 -0.1348
  356MOL0     C47971   0.206   6.068   5.537  0.1367  0.0406 -0.0932
  356MOL0     C47972   0.242   6.043   5.410  0.1658  0.5700 -0.2595
  356MOL0     O47973   0.630   5.986   5.290 -0.8625 -0.1354  0.0956
  356MOL0     C47974   0.484   5.947   4.968  0.2431 -0.0041  0.2267
  356MOL0     C47975   0.524   5.919   4.838 -0.0144 -0.5035  0.1192
  356MOL0     N47976   0.618   5.784   3.961  0.9594  0.1215 -0.3202
  356MOL0     N47977   0.694   5.837   3.870 -0.1758  0.9388  0.1680
  356MOL0     C47978   0.819   7.105   3.722 -0.5939  0.0340 -0.3732
  356MOL0     C47979   0.825   7.245   3.696  1.1191 -0.6313  0.1488
  356MOL0     C47980   0.841   7.672   3.689 -0.0273  0.0326  0.1551
  356MOL0     C47981   0.736   7.754   3.720  0.8184 -0.3596 -0.3006
  356MOL0     C47982   0.732   7.886   3.663 -0.5593 -1.2104  0.1906
  356MOL0     C47983   0.835   7.935   3.583  0.0855 -0.4828 -0.5473
  356MOL0     O47984   0.817   8.066   3.541 -0.1791  0.9701  0.5974
  356MOL0     C47985   0.910   8.119   3.442 -0.1444 -0.1559  0.5561
  356MOL0     C47986   0.892   8.270   3.428 -0.8090 -0.5498 -0.0199
  356MOL0     C47987   1.011   8.328   3.349  0.4801 -0.0849 -0.8993
  356MOL0     C47988   0.997   8.288   3.200  0.0011  0.0918 -0.5670
  356MOL0     C47989   1.100   8.360   3.129 -1.3280 -0.8801  0.8251
  356MOL0     C47990   1.188   8.419   3.065 -0.0006  0.1781  0.4475
  356MOL0     C47991   0.944   7.849   3.553  0.6217 -0.0375 -1.1773
  356MOL0     C47992   0.951   7.717   3.606 -0.7125 -1.0677  1.4182
  356MOL0     H47993   1.125   7.313   3.841  2.8630 -1.3016 -1.4332
  356MOL0     H47994   1.123   7.077   3.875  1.5743  1.9771 -2.3760
  356MOL0     H47995   1.002   6.854   3.609  0.0493  3.3740 -0.4907
  356MOL0     H47996   1.139   6.924   3.707 -1.9037  0.6261  2.1290
  356MOL0     H47997   1.176   6.680   3.677  3.8225  0.0602  3.5282
  356MOL0     H47998   1.142   6.707   3.848 -1.2874  0.7853  1.4595
  356MOL0     H47999   0.895   6.646   3.821  1.7895 -2.8381  2.5360
  356MOL0     H48000   0.942   6.619   3.647  1.5456 -0.8848 -0.6555
  356MOL0     H48001   1.090   6.428   3.737  1.5128  0.9185 -0.2903
  356MOL0     H48002   1.025   6.479   3.902 -1.8187  1.9337  0.2870
  356MOL0     H48003   0.814   6.401   3.859  1.9620  0.6376  1.8096
  356MOL0     H48004   0.832   6.398   3.682 -2.1609 -0.9772  0.8724
  356MOL0     H48005   0.929   6.197   3.681 -2.2757 -0.3148 -0.2362
  356MOL0     H48006   1.024   6.217   3.833  1.7792  0.5772 -1.5942
  356MOL0     H48007   0.825   6.170   3.958 -0.9468  3.3451 -1.6146
  356MOL0     H48008   0.730   6.128   3.810 -0.4269 -2.1042  0.1284
  356MOL0     H48009   0.984   5.982   3.927  1.0417  0.0832 -1.8144
  356MOL0     H48010   0.900   5.957   3.766 -1.0164  1.3504 -1.0121
  356MOL0     H48011   0.834   5.941   4.151  1.8811 -2.0650  0.4774
  356MOL0     H48012   0.522   5.707   4.189  1.7837 -2.4658  3.0806
  356MOL0     H48013   0.663   5.724   4.275  2.8230  2.3799 -0.1758
  356MOL0     H48014   0.458   5.883   4.349  0.0953 -0.3822 -0.2645
  356MOL0     H48015   0.543   6.001   4.245  2.3611 -0.5892 -0.3175
  356MOL0     H48016   0.680   6.039   4.406  1.0026 -0.3138 -1.1182
  356MOL0     H48017   0.749   5.870   4.410 -0.2868 -1.0614 -0.9671
  356MOL0     H48018   0.556   5.810   4.564  1.5296 -0.5706 -1.5297
  356MOL0     H48019   0.523   5.991   4.578 -1.7885 -1.5617  1.1141
  356MOL0     H48020   0.848   6.008   4.845 -0.8453 -0.2613 -3.3421
  356MOL0     H48021   0.761   6.152   5.166 -0.6256 -0.4754 -0.7482
  356MOL0     H48022   0.863   6.007   5.167 -0.2252 -0.6063  0.6803
  356MOL0     H48023   0.893   6.126   5.040 -0.6581  1.1155 -0.6746
  356MOL0     H48024   0.546   6.174   5.417 -0.4856 -0.2074 -2.4331
  356MOL0     H48025   0.502   6.177   5.656 -0.7080 -1.5612  1.7267
  356MOL0     H48026   0.190   6.347   5.705  1.6205 -0.2584 -0.0902
  356MOL0     H48027   0.103   6.307   5.852  0.2378  0.2448  2.3111
  356MOL0     H48028   0.304   6.337   5.977 -0.3027  2.8341 -0.1815
  356MOL0     H48029   0.405   6.334   5.826 -0.0617  0.6555 -0.5778
  356MOL0     H48030   0.208   6.546   5.903 -0.8334 -0.1967 -1.4618
  356MOL0     H48031   0.303   6.553   5.757 -3.0788 -2.1154 -1.5800
  356MOL0     H48032   0.522   6.551   5.890  0.2839  1.0930 -1.5162
  356MOL0     H48033   0.427   6.694   5.917 -2.9081  0.8074  4.0316
  356MOL0     H48034   0.392   6.477   6.122  0.3992  1.8673  3.4268
  356MOL0     H48035   0.327   6.645   6.110  1.0044  3.5563 -0.9287
  356MOL0     H48036   0.538   6.563   6.271  0.9111 -0.3117  0.2301
  356MOL0     H48037   0.622   6.559   6.108  1.0753 -1.0806  1.8998
  356MOL0     H48038   0.536   6.784   6.296  1.8467  3.5390 -0.5257
  356MOL0     H48039   0.493   6.810   6.131  0.5364 -1.1961 -2.1531
  356MOL0     H48040   0.713   6.907   6.190  0.0619 -0.4097  1.6435
  356MOL0     H48041   0.743   6.792   6.068 -0.2813  0.4494  0.0225
  356MOL0     H48042   0.112   6.017   5.560  1.2378 -0.7527  3.2388
  356MOL0     H48043   0.163   5.998   5.351  0.0630 -1.4222  1.2943
  356MOL0     H48044   0.379   5.938   4.991  0.2796 -3.5469 -0.3972
  356MOL0     H48045   0.445   5.872   4.781  0.0796  0.6742 -1.0343
  356MOL0     H48046   0.733   7.046   3.690 -0.4671 -0.2104 -0.2649
  356MOL0     H48047   0.740   7.293   3.647  1.3016 -0.5810 -0.1235
  356MOL0     H48048   0.657   7.724   3.788 -0.2410  1.2103 -0.7991
  356MOL0     H48049   0.648   7.952   3.680  1.9038  2.1116  0.5158
  356MOL0     H48050   1.009   8.092   3.478 -0.6017  0.2690  2.2363
  356MOL0     H48051   0.895   8.063   3.350 -3.5481  3.4162 -1.3817
  356MOL0     H48052   0.886   8.319   3.526  1.4848  0.6220 -0.3851
  356MOL0     H48053   0.805   8.291   3.366  0.8715 -2.6600 -3.3733
  356MOL0     H48054   1.109   8.305   3.392 -0.8859  0.8026  3.0899
  356MOL0     H48055   1.006   8.437   3.357  1.5717  0.0291 -1.5316
  356MOL0     H48056   0.903   8.319   3.153  0.0678 -0.0090 -0.7674
  356MOL0     H48057   1.021   8.182   3.191  0.1527 -0.0757  1.3640
  356MOL0     H48058   1.251   8.487   3.012  3.3085 -1.1487  2.3666
  356MOL0     H48059   1.017   7.880   3.479  0.2913  1.4561 -0.9061
  356MOL0     H48060   1.043   7.662   3.594 -0.2460  0.0024 -0.4076
  357MOL0     O48061   2.176   6.748  11.350 -0.0646 -0.5854  0.7126
  357MOL0     C48062   2.138   6.738  11.232 -0.4602 -0.4702  0.1601
  357MOL0     O48063   2.028   6.668  11.189 -0.0976  0.5367 -0.8149
  357MOL0     C48064   1.944   6.622  11.285  0.1603 -0.2928  0.1325
  357MOL0     C48065   1.837   6.699  11.340 -0.0587 -0.8036 -0.0197
  357MOL0     C48066   1.756   6.640  11.440  0.4242  0.6087  0.1767
  357MOL0     C48067   1.770   6.514  11.483 -0.7627 -0.1680  0.6554
  357MOL0     O48068   1.680   6.461  11.571  0.3909 -0.0862 -0.3808
  357MOL0     C48069   1.733   6.444  11.700 -0.3907 -1.0218  0.3272
  357MOL0     C48070   1.715   6.579  11.777 -0.3433 -0.1373 -0.0763
  357MOL0     C48071   1.566   6.637  11.755 -1.2833  0.0824 -0.4448
  357MOL0     C48072   1.540   6.740  11.861  0.8134 -0.0485  1.0210
  357MOL0     C48073   1.408   6.805  11.811 -0.1145  0.3382 -0.7370
  357MOL0     C48074   1.370   6.936  11.875 -0.4901 -0.1942  0.0901
  357MOL0     C48075   1.478   7.049  11.843  0.0989 -0.7230 -0.1118
  357MOL0     C48076   1.419   7.182  11.833  0.0262 -0.0786 -0.7151
  357MOL0     N48077   1.328   7.216  11.944  1.4211 -0.9406  0.1703
  357MOL0     C48078   1.342   7.342  12.006 -0.2498 -0.7451  0.2542
  357MOL0     C48079   1.227   7.355  12.071 -0.4864  0.1298 -0.0136
  357MOL0     C48080   1.183   7.477  12.148 -0.2878  0.0377 -1.5989
  357MOL0     C48081   1.267   7.603  12.112 -1.0269 -0.1978 -0.4449
  357MOL0     C48082   1.230   7.740  12.165 -0.3421 -0.2511 -0.7682
  357MOL0     C48083   1.116   7.787  12.079 -0.5584  0.1965  0.2171
  357MOL0     O48084   1.048   7.892  12.157  0.4454  0.4287 -0.7409
  357MOL0     C48085   0.920   7.934  12.114 -0.7081  1.2325 -0.3046
  357MOL0     C48086   0.842   7.991  12.220  0.4229  0.9011  0.5343
  357MOL0     C48087   0.710   8.029  12.192  0.0363 -0.4697  0.4183
  357MOL0     C48088   0.625   8.072  12.304 -0.0869 -0.5040 -0.0668
  357MOL0     C48089   0.653   8.011  12.061 -0.2269  0.3764  0.2213
  357MOL0     C48090   0.514   8.050  12.024  0.0099 -1.0217 -0.9453
  357MOL0     O48091   0.460   7.983  11.913  0.1759  0.1496 -0.6084
  357MOL0     C48092   0.418   8.072  11.818 -0.5778 -0.9638  0.2474
  357MOL0     C48093   0.290   8.053  11.765 -1.7387  0.2943  0.1094
  357MOL0     C48094   0.245   8.113  11.647 -0.6646 -0.0433  0.1995
  357MOL0     C48095   0.342   8.197  11.581  1.5685  0.7367  0.4646
  357MOL0     O48096   0.316   8.262  11.461 -0.5618  0.3440  0.1136
  357MOL0     C48097   0.196   8.222  11.397 -0.1880  0.2997  0.1658
  357MOL0     C48098   0.069   8.304  11.418  0.0473 -0.9754 -1.0085
  357MOL0     C48099   0.083   8.461  11.413  0.4167 -0.1073  0.6683
  357MOL0     C48100   0.146   8.509  11.277  0.7348 -0.4922  0.4606
  357MOL0     C48101   0.269   8.609  11.298 -0.4160 -0.8220 -0.6207
  357MOL0     C48102   0.223   8.738  11.365 -1.0458 -0.2351 -0.3342
  357MOL0     C48103   0.340   8.790  11.449 -0.3074  0.6708  0.0789
  357MOL0     C48104   0.462   8.847  11.369  0.6302  0.3087 -0.8989
  357MOL0    Cl48105   0.416   8.967  11.250  0.3307 -0.2571 -0.1719
  357MOL0     C48106   0.471   8.220  11.639 -0.3563 -0.2265 -0.5225
  357MOL0     C48107   0.504   8.166  11.762 -0.8760  0.8143  0.0101
  357MOL0     O48108   0.468   8.154  12.078 -0.6454 -0.2446 -0.3545
  357MOL0     C48109   0.737   7.972  11.953 -0.2556  1.0857 -0.0571
  357MOL0     C48110   0.872   7.921  11.983  0.5648 -0.9377 -0.1748
  357MOL0     N48111   1.140   7.251  12.041  0.5665 -1.3068 -0.0389
  357MOL0     N48112   1.202   7.166  11.965  0.6403  0.9643 -0.0780
  357MOL0     C48113   1.882   6.442  11.438 -0.5919  0.1360  0.0844
  357MOL0     C48114   1.970   6.497  11.335 -0.8076 -0.3496 -0.7171
  357MOL0     C48115   2.223   6.782  11.124 -0.0701 -1.2508  0.8456
  357MOL0     C48116   2.330   6.872  11.145  0.1386  0.0883 -0.2228
  357MOL0     C48117   2.417   6.908  11.042 -0.0106  0.3457 -0.2046
  357MOL0     C48118   2.400   6.867  10.908 -0.1874  0.2413  0.1907
  357MOL0     O48119   2.491   6.922  10.823 -0.1778  0.2837  0.3526
  357MOL0     C48120   2.451   6.907  10.683  0.1516  0.0700 -0.4929
  357MOL0     C48121   2.539   6.992  10.585 -0.8334 -0.2958  0.4666
  357MOL0     C48122   2.697   6.971  10.598 -0.2738  0.5992 -0.5921
  357MOL0     C48123   2.741   6.834  10.548 -0.0229 -0.2367 -1.4808
  357MOL0     C48124   2.694   6.815  10.407  0.9759  0.1372 -0.2872
  357MOL0     C48125   2.644   6.784  10.304 -0.2907  0.4504  0.3894
  357MOL0     C48126   2.296   6.784  10.884  0.4190  0.7766 -0.5639
  357MOL0     C48127   2.211   6.738  10.988 -0.4752  0.2710  0.3005
  357MOL0     H48128   1.816   6.800  11.308 -3.0767 -0.3507  2.8532
  357MOL0     H48129   1.666   6.697  11.463 -0.0410  0.6637 -1.6037
  357MOL0     H48130   1.684   6.371  11.764  0.7167 -2.0936 -0.0058
  357MOL0     H48131   1.834   6.401  11.697 -1.1465 -2.9434 -3.6059
  357MOL0     H48132   1.731   6.553  11.882 -1.2608  1.4214  0.4917
  357MOL0     H48133   1.793   6.649  11.748 -0.1213  2.3875  5.4092
  357MOL0     H48134   1.559   6.688  11.658 -0.6671 -0.7867 -0.9557
  357MOL0     H48135   1.486   6.563  11.755  1.5740 -3.4912 -4.7950
  357MOL0     H48136   1.535   6.694  11.960  2.9064  0.6874  1.5157
  357MOL0     H48137   1.619   6.816  11.858  0.3792  0.4601  1.8158
  357MOL0     H48138   1.424   6.833  11.707  0.5578 -0.2985 -0.8170
  357MOL0     H48139   1.318   6.744  11.825 -1.5742  1.1226 -5.2782
  357MOL0     H48140   1.275   6.973  11.834 -1.0029 -2.0870 -0.5247
  357MOL0     H48141   1.363   6.925  11.984  0.0791  3.1287  0.5859
  357MOL0     H48142   1.548   7.047  11.927 -1.3530 -1.5783  1.1373
  357MOL0     H48143   1.528   7.044  11.746 -1.9363  1.8685 -1.4131
  357MOL0     H48144   1.368   7.198  11.738  1.3937  0.2586 -1.4287
  357MOL0     H48145   1.499   7.256  11.817 -1.0474  1.3771  0.3235
  357MOL0     H48146   1.430   7.405  12.001 -1.3529  1.1076  2.4113
  357MOL0     H48147   1.075   7.491  12.151 -0.5167 -1.5649 -1.6525
  357MOL0     H48148   1.216   7.459  12.250 -0.0573  3.9968 -0.8064
  357MOL0     H48149   1.286   7.610  12.005 -1.8763 -0.2759 -0.6119
  357MOL0     H48150   1.361   7.580  12.163 -2.9474 -0.6596  3.3000
  357MOL0     H48151   1.310   7.811  12.140  1.3664 -2.7140 -2.8546
  357MOL0     H48152   1.209   7.736  12.272 -1.9639  0.1007 -1.0549
  357MOL0     H48153   1.042   7.708  12.061  1.7233 -1.9343 -0.4361
  357MOL0     H48154   1.138   7.823  11.978 -2.7672  0.2223 -0.3111
  357MOL0     H48155   0.876   8.016  12.320 -0.8752  0.2821  1.1469
  357MOL0     H48156   0.522   8.039  12.288 -1.2934  2.2045  1.2656
  357MOL0     H48157   0.658   8.029  12.399 -2.3739 -0.9404  0.6081
  357MOL0     H48158   0.631   8.181  12.319 -0.2519 -0.1647 -2.2489
  357MOL0     H48159   0.222   7.979  11.806 -0.2378 -1.2740 -0.1066
  357MOL0     H48160   0.142   8.089  11.621 -1.3603  1.4292  1.4772
  357MOL0     H48161   0.228   8.230  11.292  2.9124 -0.3068  0.9633
  357MOL0     H48162   0.170   8.117  11.412 -5.0126  0.7316 -2.9890
  357MOL0     H48163  -0.005   8.266  11.348 -2.9704  5.2985 -1.8894
  357MOL0     H48164   0.027   8.287  11.517 -1.8615  3.1414 -0.9427
  357MOL0     H48165   0.143   8.504  11.495 -0.9567  0.5611  1.3571
  357MOL0     H48166  -0.021   8.495  11.418  0.0343 -0.7008 -2.0430
  357MOL0     H48167   0.185   8.420  11.226  1.5147 -0.2266  0.5836
  357MOL0     H48168   0.075   8.541  11.200 -0.0268 -1.3972  0.7640
  357MOL0     H48169   0.313   8.630  11.200  1.4014  2.2565  0.7212
  357MOL0     H48170   0.338   8.548  11.357 -1.9116 -0.8017  1.2688
  357MOL0     H48171   0.195   8.812  11.290  0.3513  0.6471 -0.0252
  357MOL0     H48172   0.153   8.728  11.448  1.0969 -1.4067  1.4417
  357MOL0     H48173   0.358   8.721  11.532 -3.1490  1.6641  1.6672
  357MOL0     H48174   0.301   8.878  11.501 -0.1979 -0.2543  1.7958
  357MOL0     H48175   0.491   8.759  11.311 -1.3075 -0.8473 -0.2206
  357MOL0     H48176   0.529   8.894  11.442 -2.8100  3.8684  0.3470
  357MOL0     H48177   0.540   8.282  11.582  3.0820 -2.5873  0.7917
  357MOL0     H48178   0.594   8.191  11.817 -0.3829 -4.1087  1.8878
  357MOL0     H48179   0.687   7.955  11.858 -0.7645 -0.0629  0.4045
  357MOL0     H48180   0.933   7.873  11.907  3.1240 -0.2035  1.3028
  357MOL0     H48181   1.896   6.349  11.493 -2.7960  0.4082  1.1880
  357MOL0     H48182   2.057   6.450  11.289 -1.2022  1.1040 -3.0987
  357MOL0     H48183   2.344   6.905  11.248  4.7398 -1.7334 -0.0441
  357MOL0     H48184   2.504   6.965  11.072 -0.2737 -0.5714  2.5139
  357MOL0     H48185   2.453   6.807  10.639  1.6044 -1.5172  2.7771
  357MOL0     H48186   2.348   6.942  10.682 -0.1634 -0.7181 -3.3696
  357MOL0     H48187   2.520   7.098  10.605 -0.6587  0.4826 -2.9520
  357MOL0     H48188   2.512   6.986  10.479 -0.8835  1.4510  0.3456
  357MOL0     H48189   2.723   6.986  10.703  0.7106  2.2737 -1.0450
  357MOL0     H48190   2.755   7.053  10.555 -1.3458  1.6678 -0.0662
  357MOL0     H48191   2.714   6.752  10.615 -1.6680  1.9648  0.7572
  357MOL0     H48192   2.850   6.838  10.555 -0.0022 -2.1282  0.0302
  357MOL0     H48193   2.603   6.768  10.207 -0.3635 -0.2646  0.5321
  357MOL0     H48194   2.256   6.761  10.786  3.8319 -1.7627 -1.5244
  357MOL0     H48195   2.139   6.662  10.957  0.7984 -0.5034 -0.8812
  358MOL0     O48196   4.320   0.151   8.592 -0.0222 -0.6472  0.3158
  358MOL0     C48197   4.218   0.113   8.548  1.4455 -0.5240 -0.3912
  358MOL0     O48198   4.197  -0.015   8.507  0.1933  0.4489  0.4409
  358MOL0     C48199   4.295  -0.113   8.545  0.2521 -0.5020 -0.8418
  358MOL0     C48200   4.295  -0.140   8.685  0.5915 -0.1792  0.2319
  358MOL0     C48201   4.372  -0.246   8.724 -0.1743  0.4483 -0.1005
  358MOL0     C48202   4.458  -0.305   8.628 -0.6655  0.8527 -0.0008
  358MOL0     O48203   4.555  -0.397   8.664  0.0771 -0.3077  0.7585
  358MOL0     C48204   4.544  -0.487   8.789  0.4691  0.7640 -0.4405
  358MOL0     C48205   4.590  -0.623   8.733  0.5594 -0.2691  1.5502
  358MOL0     C48206   4.464  -0.692   8.673 -0.0649  0.4019  0.9714
  358MOL0     C48207   4.476  -0.718   8.513  0.3318  0.2250  0.2271
  358MOL0     C48208   4.339  -0.766   8.460 -0.6597 -0.3072 -0.6290
  358MOL0     C48209   4.347  -0.920   8.478  0.1142 -0.0479 -1.7405
  358MOL0     C48210   4.218  -0.974   8.432  0.5357 -0.0964  0.3471
  358MOL0     C48211   4.096  -0.943   8.524 -0.4096 -0.1909  0.0074
  358MOL0     N48212   4.103  -0.991   8.663 -0.6270  1.2558  0.6335
  358MOL0     C48213   4.160  -0.928   8.767 -0.6871 -0.3209 -0.5381
  358MOL0     C48214   4.136  -1.014   8.878 -0.0164 -0.3447 -0.4745
  358MOL0     C48215   4.183  -0.977   9.021 -0.5622 -1.2912  0.2122
  358MOL0     C48216   4.115  -0.841   9.051  0.0901 -0.0153 -0.1207
  358MOL0     C48217   4.170  -0.780   9.177 -0.7266 -0.3385 -0.2498
  358MOL0     C48218   4.139  -0.863   9.302  0.8493 -0.1204 -0.1858
  358MOL0     O48219   3.999  -0.879   9.322  0.4837 -0.5882  0.5383
  358MOL0     C48220   3.942  -0.904   9.444  1.3679 -1.2283 -0.6045
  358MOL0     C48221   3.999  -0.991   9.533  0.7440 -1.1662 -0.0953
  358MOL0     C48222   3.948  -1.001   9.668  0.0668 -0.1080  0.4179
  358MOL0     C48223   4.025  -1.088   9.766 -1.1067  0.1992  0.6364
  358MOL0     C48224   3.821  -0.945   9.691 -0.6303 -0.7763 -1.1891
  358MOL0     C48225   3.749  -0.966   9.822 -0.1788  0.4961  1.0521
  358MOL0     O48226   3.612  -0.921   9.823 -0.1834  0.5668  0.6785
  358MOL0     C48227   3.514  -0.960   9.907  0.4109  0.8935  0.7758
  358MOL0     C48228   3.533  -1.058  10.003  0.1684  0.9005  0.3182
  358MOL0     C48229   3.424  -1.102  10.080 -0.4819  0.4781  1.0584
  358MOL0     C48230   3.304  -1.027  10.075  0.3056  0.0624 -0.1118
  358MOL0     O48231   3.208  -1.052  10.166  0.2157  0.2614  0.5454
  358MOL0     C48232   3.178  -1.194  10.191  0.1969  0.7914 -1.0172
  358MOL0     C48233   3.031  -1.197  10.237  0.2443  1.0747  0.1222
  358MOL0     C48234   2.939  -1.180  10.116  0.6201 -0.2405  0.6523
  358MOL0     C48235   2.794  -1.153  10.156 -0.1176  0.3838 -0.4343
  358MOL0     C48236   2.717  -1.071  10.051 -0.8138  0.1497 -0.3962
  358MOL0     C48237   2.572  -1.016  10.074 -0.1683 -0.2078 -0.0311
  358MOL0     C48238   2.462  -1.120  10.114 -0.4645 -0.8844 -1.2381
  358MOL0     C48239   2.420  -1.205   9.993 -0.5925 -1.2284 -0.0430
  358MOL0    Cl48240   2.265  -1.292  10.007 -0.1706 -0.5444 -0.1283
  358MOL0     C48241   3.290  -0.929   9.982 -0.6990  0.1994  0.9900
  358MOL0     C48242   3.402  -0.886   9.903 -0.4425  0.5935 -0.2184
  358MOL0     O48243   3.809  -1.012   9.912  0.2046  0.1684 -0.4941
  358MOL0     C48244   3.760  -0.871   9.592 -0.9347  0.0098 -0.1833
  358MOL0     C48245   3.823  -0.844   9.472  0.8623  0.5147 -0.3376
  358MOL0     N48246   4.052  -1.117   8.837 -0.5103  0.6391 -0.3006
  358MOL0     N48247   4.037  -1.110   8.710 -0.6231  0.0851  1.0109
  358MOL0     C48248   4.455  -0.285   8.488  0.7417 -0.6147 -0.7387
  358MOL0     C48249   4.365  -0.190   8.449  0.8000 -0.6497 -0.6603
  358MOL0     C48250   4.120   0.217   8.530 -0.0062  1.5260 -0.8606
  358MOL0     C48251   3.996   0.191   8.461 -0.6578  0.0051  0.4137
  358MOL0     C48252   3.900   0.284   8.441 -0.0875  0.0943 -0.1758
  358MOL0     C48253   3.914   0.409   8.497 -0.0703  1.4758  0.4378
  358MOL0     O48254   3.809   0.493   8.465 -0.6872  0.0903  0.5321
  358MOL0     C48255   3.812   0.637   8.508  1.0111 -1.1640  0.6857
  358MOL0     C48256   3.880   0.715   8.391 -0.2570 -0.6272  0.2347
  358MOL0     C48257   3.884   0.871   8.407  0.0352  0.2288 -0.2385
  358MOL0     C48258   3.813   0.947   8.521 -0.4559 -0.4283  0.8419
  358MOL0     C48259   3.845   1.086   8.508 -1.3120  0.8469 -0.0004
  358MOL0     C48260   3.886   1.202   8.501 -0.0830  0.8696  0.2420
  358MOL0     C48261   4.024   0.438   8.579 -0.8519  0.3743  0.4231
  358MOL0     C48262   4.128   0.343   8.593 -0.5010  0.9273 -0.6338
  358MOL0     H48263   4.238  -0.077   8.753 -1.4565  0.4612 -1.9541
  358MOL0     H48264   4.385  -0.273   8.829  0.2628  0.0034 -0.2702
  358MOL0     H48265   4.622  -0.470   8.864  2.4202 -3.1579 -1.2833
  358MOL0     H48266   4.447  -0.500   8.836  1.8351 -3.5370  1.7012
  358MOL0     H48267   4.664  -0.607   8.653  0.2196 -0.3711  1.2126
  358MOL0     H48268   4.625  -0.691   8.811  0.7398  0.5460  2.1799
  358MOL0     H48269   4.440  -0.781   8.732  3.0650 -0.9658  0.3966
  358MOL0     H48270   4.386  -0.617   8.686  0.0318  0.7303 -0.2257
  358MOL0     H48271   4.491  -0.613   8.486 -2.6660  0.4799 -0.7258
  358MOL0     H48272   4.565  -0.775   8.483  3.1206  2.8789  2.7794
  358MOL0     H48273   4.250  -0.726   8.510 -1.4122 -2.9003  0.2682
  358MOL0     H48274   4.339  -0.747   8.353  0.7941  2.4183 -0.2372
  358MOL0     H48275   4.420  -0.973   8.416 -0.5534 -1.9944 -0.9343
  358MOL0     H48276   4.363  -0.927   8.586 -1.9428 -1.6036 -1.4664
  358MOL0     H48277   4.193  -0.939   8.331 -1.7184 -0.0490  0.8662
  358MOL0     H48278   4.231  -1.082   8.422 -2.2303 -0.6397  1.5585
  358MOL0     H48279   4.003  -0.982   8.481  1.0868 -2.4814 -1.3946
  358MOL0     H48280   4.082  -0.835   8.528  0.4591 -0.0981  0.6654
  358MOL0     H48281   4.216  -0.835   8.769  5.0229 -3.1705 -3.2628
  358MOL0     H48282   4.140  -1.047   9.093 -1.2032 -0.3077  0.8260
  358MOL0     H48283   4.291  -0.975   9.033 -0.5226  2.6414  0.7633
  358MOL0     H48284   4.009  -0.863   9.058  0.0561 -1.5532 -3.3434
  358MOL0     H48285   4.128  -0.777   8.963  0.9069 -0.7342 -0.5447
  358MOL0     H48286   4.140  -0.678   9.203  0.7636  0.1017 -0.1386
  358MOL0     H48287   4.279  -0.779   9.169 -0.7298 -2.8960 -2.1073
  358MOL0     H48288   4.178  -0.805   9.385 -3.2813  4.1482 -0.8521
  358MOL0     H48289   4.184  -0.963   9.307 -2.8570 -1.9353  0.3267
  358MOL0     H48290   4.094  -1.037   9.506  0.0536 -1.9925 -1.1852
  358MOL0     H48291   4.036  -1.032   9.859 -1.4463  1.1526  0.1118
  358MOL0     H48292   3.968  -1.181   9.774  3.3567 -2.7209  2.6705
  358MOL0     H48293   4.120  -1.121   9.724 -0.9703  0.4538  0.7439
  358MOL0     H48294   3.629  -1.104  10.026 -0.4374 -0.7683 -0.2996
  358MOL0     H48295   3.447  -1.185  10.147  2.4365  0.1765 -0.1608
  358MOL0     H48296   3.179  -1.260  10.103 -5.4002 -2.4377  0.8435
  358MOL0     H48297   3.240  -1.237  10.270  0.6099 -0.0345 -1.7684
  358MOL0     H48298   3.014  -1.291  10.291 -0.0496  1.2052  0.2592
  358MOL0     H48299   3.010  -1.117  10.308 -2.9772  2.6738 -2.3552
  358MOL0     H48300   2.940  -1.270  10.054 -0.8190  0.5576 -0.6128
  358MOL0     H48301   2.978  -1.089  10.070  2.8728 -2.3378 -1.9428
  358MOL0     H48302   2.734  -1.243  10.172 -1.8410  1.6997  0.9421
  358MOL0     H48303   2.797  -1.094  10.247 -1.9866 -1.3968  0.8702
  358MOL0     H48304   2.700  -1.138   9.965  1.0921  2.0812 -2.4194
  358MOL0     H48305   2.776  -0.981  10.030 -1.8393  1.8030  3.1509
  358MOL0     H48306   2.577  -0.946  10.158 -0.6923  2.4134 -2.0385
  358MOL0     H48307   2.550  -0.962   9.981  1.5930 -1.2553 -1.1168
  358MOL0     H48308   2.375  -1.076  10.163 -0.7322 -2.4878 -0.1987
  358MOL0     H48309   2.498  -1.193  10.187 -0.9622  0.0241 -0.0547
  358MOL0     H48310   2.502  -1.269   9.961  1.5182  0.5797  1.4574
  358MOL0     H48311   2.404  -1.135   9.910  0.6056 -0.9491 -0.0468
  358MOL0     H48312   3.201  -0.868   9.994 -0.7046  0.1927  0.9807
  358MOL0     H48313   3.414  -0.806   9.830  0.5634  1.0395  0.4236
  358MOL0     H48314   3.663  -0.824   9.603 -1.6217 -1.3371 -0.2538
  358MOL0     H48315   3.772  -0.789   9.394 -1.5751 -1.0434  0.0621
  358MOL0     H48316   4.525  -0.348   8.434 -0.0238 -2.4524  0.3660
  358MOL0     H48317   4.353  -0.164   8.344 -1.3689  0.4072 -0.2040
  358MOL0     H48318   3.997   0.093   8.413  1.8843 -0.1953  0.7061
  358MOL0     H48319   3.805   0.262   8.394 -1.3674  0.1132  2.2240
  358MOL0     H48320   3.713   0.677   8.532  1.7879  0.4396  1.3125
  358MOL0     H48321   3.876   0.645   8.596  2.3849  0.5191 -0.4119
  358MOL0     H48322   3.841   0.688   8.292  2.1605  2.2835 -1.6806
  358MOL0     H48323   3.986   0.688   8.396  0.0440  0.7363  3.6356
  358MOL0     H48324   3.825   0.896   8.318 -0.8888  1.1829  0.6282
  358MOL0     H48325   3.990   0.897   8.407 -0.0957  0.9525  1.9457
  358MOL0     H48326   3.850   0.909   8.617 -0.5603 -2.7526  0.0332
  358MOL0     H48327   3.706   0.927   8.509 -1.3939  3.3972  1.6166
  358MOL0     H48328   3.928   1.301   8.502 -0.5994  1.0827  1.1623
  358MOL0     H48329   4.054   0.536   8.615  1.1937  0.9560 -2.4928
  358MOL0     H48330   4.213   0.358   8.659  0.3719 -3.8305 -0.3483
  359MOL0     O48331   2.442   8.551  10.692  0.1228 -0.2406  0.6823
  359MOL0     C48332   2.550   8.492  10.686 -0.2011 -0.6812  1.0046
  359MOL0     O48333   2.583   8.403  10.591  0.6654  1.1812 -0.7840
  359MOL0     C48334   2.524   8.393  10.466  1.6569  0.2128  0.8575
  359MOL0     C48335   2.560   8.284  10.379 -0.5491  0.1875  0.2451
  359MOL0     C48336   2.532   8.284  10.243  0.1009 -0.6084 -0.2683
  359MOL0     C48337   2.462   8.385  10.185 -0.9763  0.8078  0.7951
  359MOL0     O48338   2.430   8.363  10.055 -0.5657 -0.9567  0.2353
  359MOL0     C48339   2.299   8.396  10.007  0.2685  0.9351  1.1506
  359MOL0     C48340   2.218   8.258   9.998  1.0275 -0.2646  0.5388
  359MOL0     C48341   2.113   8.244   9.883  0.6418 -0.1485  0.8939
  359MOL0     C48342   2.012   8.364   9.890 -0.2154  1.6040 -0.2962
  359MOL0     C48343   1.920   8.334   9.780  0.4088  0.3028 -0.6764
  359MOL0     C48344   1.817   8.444   9.772  0.1016 -0.3371 -0.3832
  359MOL0     C48345   1.697   8.387   9.694 -0.8373  0.1580  0.6854
  359MOL0     C48346   1.741   8.379   9.546  0.1291 -0.7656  0.4214
  359MOL0     N48347   1.620   8.327   9.475 -0.6571  1.3097 -0.2306
  359MOL0     C48348   1.520   8.387   9.410 -0.2670 -0.4365 -0.8259
  359MOL0     C48349   1.463   8.288   9.337  0.8606  0.5168 -1.6996
  359MOL0     C48350   1.341   8.315   9.247 -0.0392  0.4277  0.8925
  359MOL0     C48351   1.380   8.347   9.108 -0.1561  1.4389  0.8650
  359MOL0     C48352   1.253   8.367   9.013  0.4260  0.2576 -0.0486
  359MOL0     C48353   1.299   8.366   8.868  0.2892  0.2444  0.0582
  359MOL0     O48354   1.414   8.450   8.826  0.1315 -0.0023 -0.1889
  359MOL0     C48355   1.459   8.446   8.693  0.7864 -0.8470 -0.5288
  359MOL0     C48356   1.472   8.332   8.619 -0.4399  0.4982 -0.3655
  359MOL0     C48357   1.526   8.331   8.491  0.1694 -0.4782  1.1214
  359MOL0     C48358   1.515   8.197   8.409  0.5304  0.9247  0.0886
  359MOL0     C48359   1.569   8.449   8.427  0.2613 -0.0502  0.2211
  359MOL0     C48360   1.627   8.465   8.287 -0.5128 -0.3315 -0.0626
  359MOL0     O48361   1.688   8.363   8.223  0.4106  0.0175 -0.8364
  359MOL0     C48362   1.729   8.384   8.088 -0.5004  0.5846 -0.2500
  359MOL0     C48363   1.820   8.486   8.058  0.3289  0.1162 -0.6496
  359MOL0     C48364   1.864   8.496   7.928  0.5069  0.3660 -0.7687
  359MOL0     C48365   1.834   8.406   7.832 -0.3748 -0.4299 -0.9982
  359MOL0     O48366   1.893   8.416   7.712  0.2746 -0.7706 -0.3557
  359MOL0     C48367   1.857   8.323   7.605 -0.9100 -0.3863 -0.4856
  359MOL0     C48368   1.922   8.354   7.469 -0.6028 -0.3140  0.0209
  359MOL0     C48369   1.976   8.497   7.438  0.4654  1.4960 -0.0435
  359MOL0     C48370   1.970   8.530   7.287  0.4631  0.0376 -0.4322
  359MOL0     C48371   2.078   8.452   7.219  0.6486  0.1051 -0.4738
  359MOL0     C48372   2.013   8.407   7.094  0.0809  1.0683  0.3138
  359MOL0     C48373   2.117   8.328   7.017  0.6268  0.0442 -0.0748
  359MOL0     C48374   2.072   8.298   6.872  0.5099  0.4636  0.5173
  359MOL0    Cl48375   2.104   8.450   6.777  0.8172  0.1529  0.2468
  359MOL0     C48376   1.747   8.299   7.867  0.1895  0.0182  0.7216
  359MOL0     C48377   1.692   8.282   7.991 -1.0175 -0.5002 -0.2473
  359MOL0     O48378   1.611   8.575   8.233  0.8727 -0.3612 -0.1635
  359MOL0     C48379   1.547   8.575   8.498  0.4668  0.4644  0.1428
  359MOL0     C48380   1.494   8.569   8.628 -0.5917  1.1285 -0.5483
  359MOL0     N48381   1.526   8.167   9.373 -0.1704 -0.1507  0.6019
  359MOL0     N48382   1.616   8.188   9.463 -0.0375 -0.8908 -0.9073
  359MOL0     C48383   2.431   8.499  10.256 -0.2427 -0.2591 -0.4149
  359MOL0     C48384   2.463   8.503  10.395 -0.0423  0.1803  0.3254
  359MOL0     C48385   2.652   8.507  10.795 -0.6667 -0.1822 -0.1152
  359MOL0     C48386   2.630   8.574  10.914 -0.1375 -0.0215 -0.3415
  359MOL0     C48387   2.732   8.598  11.012 -0.0037 -0.5879 -0.0801
  359MOL0     C48388   2.861   8.550  10.996  0.2455 -0.4780  0.3564
  359MOL0     O48389   2.964   8.544  11.088 -0.9341 -0.6561 -0.4738
  359MOL0     C48390   2.967   8.651  11.186  0.8008 -0.1822 -0.2787
  359MOL0     C48391   3.021   8.780  11.126  1.3212 -0.0568  0.1068
  359MOL0     C48392   3.145   8.759  11.042 -0.9586 -0.0307 -0.0785
  359MOL0     C48393   3.262   8.687  11.107  0.4084 -0.1449  0.4680
  359MOL0     C48394   3.316   8.769  11.217  0.0243  1.0351 -1.2130
  359MOL0     C48395   3.377   8.824  11.309  1.2977 -0.2710 -0.4887
  359MOL0     C48396   2.881   8.477  10.880  1.6322 -0.1346  0.6082
  359MOL0     C48397   2.784   8.456  10.780 -0.7121  0.5794  0.1056
  359MOL0     H48398   2.604   8.191  10.413  1.0902  0.1225 -1.8689
  359MOL0     H48399   2.557   8.190  10.195  1.5921 -1.4396  1.9455
  359MOL0     H48400   2.245   8.467  10.070 -2.2448 -0.1311  0.3632
  359MOL0     H48401   2.307   8.446   9.910  2.3914 -0.9590  0.2613
  359MOL0     H48402   2.276   8.166   9.995 -0.2292 -1.0798  0.1123
  359MOL0     H48403   2.157   8.243  10.087  1.1262 -2.9186  0.2528
  359MOL0     H48404   2.165   8.250   9.786  0.2129  2.4820  0.7447
  359MOL0     H48405   2.074   8.142   9.880 -1.3178  0.5622  0.9995
  359MOL0     H48406   1.971   8.382   9.990  0.3951  0.2444  0.2183
  359MOL0     H48407   2.061   8.458   9.863  0.1520  1.0967 -1.4309
  359MOL0     H48408   1.977   8.330   9.687  0.6138  0.6872 -0.5685
  359MOL0     H48409   1.871   8.239   9.802 -0.4284  1.3829  2.7469
  359MOL0     H48410   1.772   8.467   9.869 -3.5900 -2.8610 -1.2932
  359MOL0     H48411   1.850   8.540   9.732  3.1041 -2.5745 -3.9058
  359MOL0     H48412   1.680   8.283   9.724  1.8934  0.2218  2.8567
  359MOL0     H48413   1.605   8.444   9.709 -1.1309 -0.6744  2.2129
  359MOL0     H48414   1.827   8.313   9.527  2.4914  2.6077 -1.8819
  359MOL0     H48415   1.768   8.480   9.513 -0.9406  0.3426  2.7308
  359MOL0     H48416   1.484   8.489   9.403  2.4768  0.7522  0.9812
  359MOL0     H48417   1.272   8.230   9.259 -0.6724  0.9955  1.3026
  359MOL0     H48418   1.285   8.402   9.283 -3.0862  0.2679 -2.8252
  359MOL0     H48419   1.438   8.259   9.077 -0.4202  1.1416  1.2021
  359MOL0     H48420   1.430   8.443   9.097 -3.1036  2.8532 -1.5983
  359MOL0     H48421   1.225   8.472   9.031 -0.3756  0.6312 -2.9691
  359MOL0     H48422   1.181   8.288   9.034  2.1275 -0.8527  2.1143
  359MOL0     H48423   1.214   8.374   8.801 -0.0145 -2.4213 -0.0099
  359MOL0     H48424   1.329   8.261   8.859 -1.1492 -0.3425  1.6707
  359MOL0     H48425   1.467   8.238   8.672  0.4476  0.3671 -0.5114
  359MOL0     H48426   1.617   8.175   8.376  0.1215  1.6912 -1.8112
  359MOL0     H48427   1.467   8.115   8.463  0.0224  0.1185 -1.5419
  359MOL0     H48428   1.449   8.207   8.322  2.1092 -2.0264 -1.5992
  359MOL0     H48429   1.855   8.550   8.139 -1.4205  1.0754 -0.6127
  359MOL0     H48430   1.913   8.587   7.896  1.0759 -0.6276 -2.9282
  359MOL0     H48431   1.901   8.227   7.635  0.0402  0.9544  2.8386
  359MOL0     H48432   1.749   8.314   7.591 -0.7220 -0.1906 -2.3356
  359MOL0     H48433   2.009   8.287   7.461 -0.3488  0.0782 -0.5587
  359MOL0     H48434   1.859   8.320   7.386  0.2035 -1.3542 -0.2015
  359MOL0     H48435   2.077   8.508   7.478  0.1076  0.4515  1.2425
  359MOL0     H48436   1.924   8.578   7.490  0.5644  0.7071  1.3601
  359MOL0     H48437   1.875   8.509   7.238  0.1581 -1.1789  0.6208
  359MOL0     H48438   1.984   8.638   7.276 -1.3174  0.6435  2.2688
  359MOL0     H48439   2.096   8.362   7.279  2.1207  1.4161  1.1996
  359MOL0     H48440   2.170   8.510   7.207  0.1530  1.4928  1.7350
  359MOL0     H48441   1.929   8.340   7.116 -1.3818  2.4205 -0.8918
  359MOL0     H48442   1.977   8.491   7.034 -2.4028  0.4897  0.8487
  359MOL0     H48443   2.124   8.230   7.065 -0.4051 -1.6642 -3.1099
  359MOL0     H48444   2.216   8.373   7.010  0.5830 -0.0364 -1.3835
  359MOL0     H48445   1.969   8.263   6.863  1.5971 -3.7309  2.2826
  359MOL0     H48446   2.133   8.213   6.840  0.0371  0.7829 -1.3372
  359MOL0     H48447   1.731   8.221   7.793  0.2950  0.0003  0.7154
  359MOL0     H48448   1.635   8.192   8.015 -3.2688  1.2056  1.2202
  359MOL0     H48449   1.591   8.667   8.460  0.7406 -0.7949 -2.8813
  359MOL0     H48450   1.486   8.654   8.695  0.8788 -0.7038  2.1175
  359MOL0     H48451   2.388   8.586  10.205 -4.4714 -2.5730 -1.3033
  359MOL0     H48452   2.441   8.595  10.448  1.5508  2.3071 -2.4226
  359MOL0     H48453   2.534   8.614  10.945 -0.3193 -0.2568 -0.5970
  359MOL0     H48454   2.703   8.662  11.094  4.4438 -0.5333  1.7800
  359MOL0     H48455   2.864   8.651  11.223  0.4689  3.2885 -0.8939
  359MOL0     H48456   3.039   8.631  11.265  3.2242  2.0767 -1.7498
  359MOL0     H48457   3.053   8.828  11.219  5.1579 -1.7930 -0.1284
  359MOL0     H48458   2.948   8.838  11.069  0.6593  0.0730  1.0668
  359MOL0     H48459   3.180   8.857  11.007 -1.3819  0.8480  1.8231
  359MOL0     H48460   3.112   8.700  10.955  1.4629 -0.3413 -0.8674
  359MOL0     H48461   3.345   8.690  11.037 -0.1439 -0.3244 -0.2078
  359MOL0     H48462   3.227   8.585  11.122 -2.7908  0.1844 -3.0624
  359MOL0     H48463   3.422   8.881  11.388  0.1644  2.2194 -1.5058
  359MOL0     H48464   2.970   8.420  10.856 -0.3367 -3.0149 -0.4892
  359MOL0     H48465   2.810   8.411  10.685 -4.5907  2.1212 -1.9404
  360MOL0     O48466   3.764   5.118   1.689 -0.3707  0.0650 -0.4011
  360MOL0     C48467   3.810   5.051   1.599 -0.0661 -0.0352 -0.5022
  360MOL0     O48468   3.883   5.100   1.487 -0.1887  0.2411 -0.3510
  360MOL0     C48469   3.911   5.231   1.477  0.3844 -0.5166 -1.3817
  360MOL0     C48470   3.830   5.346   1.510  0.3286 -0.2730  0.1960
  360MOL0     C48471   3.873   5.479   1.488  1.0055 -0.6245  0.6148
  360MOL0     C48472   3.992   5.505   1.420  0.4905 -0.0996  0.6295
  360MOL0     O48473   4.038   5.636   1.389 -0.5823  0.0174 -0.6583
  360MOL0     C48474   3.930   5.739   1.364 -0.0643 -0.6792  0.1471
  360MOL0     C48475   3.997   5.843   1.268 -0.6364  0.8069 -0.7173
  360MOL0     C48476   3.899   5.963   1.247 -0.0453  0.4309  0.3973
  360MOL0     C48477   3.763   5.934   1.194  0.0186 -0.1280  0.2572
  360MOL0     C48478   3.751   5.843   1.066 -0.4229  0.5721  0.3677
  360MOL0     C48479   3.818   5.894   0.947  0.3174 -0.0910  0.6287
  360MOL0     C48480   3.777   5.809   0.821  0.8371 -0.1679 -0.1852
  360MOL0     C48481   3.834   5.862   0.685  0.4589  0.7136 -0.8294
  360MOL0     N48482   3.977   5.888   0.691  0.4732 -0.4550  0.2051
  360MOL0     C48483   4.025   6.014   0.734  0.0142  0.1491  0.1783
  360MOL0     C48484   4.159   6.008   0.719  1.1186 -0.0368 -1.0526
  360MOL0     C48485   4.258   6.120   0.758  0.7565  0.5541  0.3190
  360MOL0     C48486   4.394   6.080   0.690 -0.3345  0.5095  0.7682
  360MOL0     C48487   4.494   6.190   0.727  0.7020 -0.2706 -0.4766
  360MOL0     C48488   4.476   6.328   0.649 -0.3232  0.0133  0.0515
  360MOL0     O48489   4.508   6.299   0.505  0.6745  0.8140 -0.3060
  360MOL0     C48490   4.498   6.405   0.422  0.3471 -0.2870  0.4972
  360MOL0     C48491   4.463   6.388   0.289 -0.5369 -0.1880  0.3297
  360MOL0     C48492   4.428   6.495   0.210  0.4673  0.4196 -0.8786
  360MOL0     C48493   4.391   6.449   0.063  1.1562 -1.0518  0.4106
  360MOL0     C48494   4.443   6.630   0.252 -0.0304 -0.4159  0.7093
  360MOL0     C48495   4.428   6.735   0.162 -0.4018  0.3736  0.8795
  360MOL0     O48496   4.362   6.833   0.220 -0.1389 -0.1670  0.3014
  360MOL0     C48497   4.328   6.951   0.153 -0.5848  1.3087  1.0620
  360MOL0     C48498   4.303   7.049   0.245 -0.2066 -0.4205  1.3105
  360MOL0     C48499   4.278   7.178   0.200  1.1263 -1.5796 -0.1059
  360MOL0     C48500   4.260   7.212   0.070  0.2908  0.0262  0.1169
  360MOL0     O48501   4.209   7.328   0.014 -0.4008 -0.2291 -0.7001
  360MOL0     C48502   4.135   7.415   0.098 -0.7456 -0.3546 -0.6896
  360MOL0     C48503   4.222   7.536   0.147  0.1681  0.0768 -0.2712
  360MOL0     C48504   4.241   7.637   0.035 -0.6812  0.0537 -0.1876
  360MOL0     C48505   4.112   7.713   0.011  0.4268 -0.8145 -0.1738
  360MOL0     C48506   4.140   7.847  -0.059 -0.1574 -0.0143 -0.6728
  360MOL0     C48507   4.025   7.921  -0.142 -1.0069  0.0152  0.6753
  360MOL0     C48508   3.889   7.930  -0.060 -0.3076 -0.6658 -0.0319
  360MOL0     C48509   3.772   8.003  -0.141  0.8031 -0.6185 -0.3564
  360MOL0    Cl48510   3.685   7.879  -0.225 -0.0821 -0.0560  0.1858
  360MOL0     C48511   4.285   7.114  -0.028  0.0169 -0.2083  0.1078
  360MOL0     C48512   4.324   6.986   0.015 -0.0563  0.7445 -0.2822
  360MOL0     O48513   4.484   6.735   0.047  0.4240 -0.6164 -0.0784
  360MOL0     C48514   4.486   6.654   0.388 -0.9626 -0.6935 -0.4974
  360MOL0     C48515   4.508   6.538   0.472  0.3298  1.3735 -0.0470
  360MOL0     N48516   4.187   5.882   0.665 -0.0256  0.3848 -0.0293
  360MOL0     N48517   4.077   5.810   0.652  0.1910  0.3690 -0.3326
  360MOL0     C48518   4.076   5.401   1.388  0.8704  0.2091 -0.2475
  360MOL0     C48519   4.035   5.265   1.419 -0.3606 -0.0949 -0.1067
  360MOL0     C48520   3.793   4.910   1.605 -0.5325 -0.2868  0.2501
  360MOL0     C48521   3.755   4.843   1.722 -0.4560  0.3899 -0.0280
  360MOL0     C48522   3.748   4.705   1.734  0.7038 -0.4293 -0.1958
  360MOL0     C48523   3.758   4.628   1.621  0.5753  0.3367 -0.3510
  360MOL0     O48524   3.750   4.490   1.622 -0.1730  0.4204  0.4761
  360MOL0     C48525   3.852   4.416   1.693 -0.9261  0.0093  0.1400
  360MOL0     C48526   3.818   4.275   1.675 -0.1048  0.4265  0.2403
  360MOL0     C48527   3.859   4.214   1.536 -0.0512  0.7641  0.1927
  360MOL0     C48528   3.805   4.071   1.518 -0.9673 -1.3117  0.3444
  360MOL0     C48529   3.769   3.997   1.642  0.3340  1.4312 -0.1803
  360MOL0     C48530   3.731   3.943   1.747  0.1426 -0.0045 -0.1282
  360MOL0     C48531   3.764   4.694   1.496 -0.1198 -0.6390  0.0978
  360MOL0     C48532   3.798   4.831   1.485  0.3722  0.4433 -0.8319
  360MOL0     H48533   3.728   5.350   1.547  0.7065 -2.1071  1.6007
  360MOL0     H48534   3.811   5.563   1.520  0.2076 -0.5153 -1.1001
  360MOL0     H48535   3.844   5.695   1.313  0.2088  2.0326 -2.9534
  360MOL0     H48536   3.890   5.778   1.458 -0.0059  2.2959 -0.9543
  360MOL0     H48537   4.079   5.887   1.325  0.2411 -1.4120 -0.1750
  360MOL0     H48538   4.034   5.792   1.179 -1.1470  0.4864 -0.7549
  360MOL0     H48539   3.878   6.023   1.336 -0.3251  0.9268  0.0065
  360MOL0     H48540   3.955   6.031   1.182  0.7596 -3.1846 -3.1119
  360MOL0     H48541   3.707   5.904   1.283 -1.0338  2.0781  0.4114
  360MOL0     H48542   3.730   6.035   1.169  0.9525  0.7003  2.2071
  360MOL0     H48543   3.795   5.747   1.093  1.1728  0.7616 -1.3729
  360MOL0     H48544   3.649   5.813   1.040  0.4416  0.4267 -3.3451
  360MOL0     H48545   3.816   6.003   0.934  3.9799  0.3587  2.4950
  360MOL0     H48546   3.924   5.878   0.970  0.7743  1.1472 -0.4443
  360MOL0     H48547   3.807   5.704   0.820  1.8523  0.0209  2.5487
  360MOL0     H48548   3.670   5.822   0.801  0.0016 -3.7046  1.1979
  360MOL0     H48549   3.774   5.950   0.660 -1.4412 -0.6001 -1.0627
  360MOL0     H48550   3.804   5.786   0.612 -1.8591 -0.4868  1.2147
  360MOL0     H48551   3.965   6.100   0.764 -2.5337 -0.6252 -2.2503
  360MOL0     H48552   4.224   6.219   0.727 -0.1177  0.0019 -0.5291
  360MOL0     H48553   4.277   6.118   0.866  1.8153  0.1155  0.1362
  360MOL0     H48554   4.387   6.068   0.581  1.5223 -1.9764  0.8446
  360MOL0     H48555   4.428   5.986   0.733 -0.1251 -1.1902 -2.7689
  360MOL0     H48556   4.587   6.143   0.692 -0.8016 -2.3187 -1.9255
  360MOL0     H48557   4.498   6.207   0.835  3.8863  0.8825 -0.6560
  360MOL0     H48558   4.553   6.395   0.689  1.4836 -2.2172  0.5322
  360MOL0     H48559   4.379   6.377   0.664  1.0117  2.5346  1.0772
  360MOL0     H48560   4.442   6.288   0.251  0.3916 -0.5667  0.7566
  360MOL0     H48561   4.317   6.521   0.026 -0.5348 -1.2494  3.1392
  360MOL0     H48562   4.489   6.460   0.015  0.9171 -0.3606  0.0670
  360MOL0     H48563   4.360   6.347   0.040  0.0953 -0.6240 -0.1320
  360MOL0     H48564   4.312   7.030   0.351  0.1307 -1.0076  1.1872
  360MOL0     H48565   4.246   7.249   0.276  4.2974 -0.1376  0.0085
  360MOL0     H48566   4.042   7.463   0.065 -0.5490 -0.0807 -0.8383
  360MOL0     H48567   4.103   7.357   0.185  2.9640 -1.8918 -0.1551
  360MOL0     H48568   4.180   7.579   0.239  3.0403 -2.0054  2.1913
  360MOL0     H48569   4.312   7.486   0.182 -1.6369 -1.5678  2.3890
  360MOL0     H48570   4.278   7.591  -0.057 -0.0167 -0.2951  0.2489
  360MOL0     H48571   4.322   7.698   0.075 -0.5934 -0.7693  0.9596
  360MOL0     H48572   4.043   7.654  -0.049  0.3317 -0.7609 -0.1184
  360MOL0     H48573   4.074   7.739   0.111  0.6491  1.9769 -0.7389
  360MOL0     H48574   4.228   7.834  -0.124 -1.5130  3.7221 -3.6272
  360MOL0     H48575   4.188   7.918   0.009 -0.5847 -3.0725  3.1685
  360MOL0     H48576   4.057   8.025  -0.151  0.4511 -0.5762 -2.0382
  360MOL0     H48577   4.010   7.870  -0.237  1.7021  0.9274 -0.3276
  360MOL0     H48578   3.897   7.995   0.028 -3.3359 -0.5584  0.2600
  360MOL0     H48579   3.855   7.834  -0.020 -4.0496 -0.4101 -2.1296
  360MOL0     H48580   3.805   8.075  -0.216 -0.5949 -0.8404 -1.2147
  360MOL0     H48581   3.701   8.057  -0.077 -1.2636 -2.6135 -0.8335
  360MOL0     H48582   4.274   7.135  -0.134  2.2805 -0.9195 -0.3251
  360MOL0     H48583   4.362   6.919  -0.061  1.8732  1.5684 -0.1006
  360MOL0     H48584   4.501   6.757   0.420 -0.6055 -0.9350  0.1224
  360MOL0     H48585   4.542   6.559   0.573  1.5140 -0.0688 -0.1084
  360MOL0     H48586   4.175   5.426   1.352  1.5399  3.3049  3.2027
  360MOL0     H48587   4.092   5.180   1.384 -0.3914  1.2325 -3.8659
  360MOL0     H48588   3.762   4.904   1.811 -0.1999 -0.4410  0.5363
  360MOL0     H48589   3.746   4.645   1.825  2.3039 -2.1061 -1.2096
  360MOL0     H48590   3.947   4.433   1.642 -1.5558  2.2533 -0.4230
  360MOL0     H48591   3.864   4.458   1.794  4.2460  1.8222 -0.9418
  360MOL0     H48592   3.715   4.261   1.706 -0.3206  2.6802  0.6883
  360MOL0     H48593   3.884   4.230   1.750  0.6611  3.5401  1.5872
  360MOL0     H48594   3.968   4.206   1.545 -0.0926  2.1960  2.9454
  360MOL0     H48595   3.826   4.285   1.459 -1.6083  3.3063  2.9912
  360MOL0     H48596   3.875   4.013   1.458 -0.1305  0.6147 -0.6241
  360MOL0     H48597   3.715   4.078   1.456  0.0680  1.8549 -1.0040
  360MOL0     H48598   3.692   3.898   1.836 -1.9674  1.8697 -0.0225
  360MOL0     H48599   3.749   4.630   1.409  0.9393  0.2844 -0.7925
  360MOL0     H48600   3.831   4.878   1.393  0.8765 -0.7674 -1.2851
  361MOL0     O48601   7.222   5.205   9.147  0.4829  0.3784 -0.0799
  361MOL0     C48602   7.176   5.096   9.139  1.4016  0.7053 -0.5590
  361MOL0     O48603   7.192   4.994   9.230 -0.9507 -0.1580  0.6204
  361MOL0     C48604   7.278   5.003   9.336  0.3607 -0.0063 -0.4807
  361MOL0     C48605   7.412   5.026   9.320 -0.2832  0.8463  0.2440
  361MOL0     C48606   7.507   5.019   9.426 -0.0707  0.2212 -0.7696
  361MOL0     C48607   7.460   4.999   9.556  0.7359  0.1166 -0.1204
  361MOL0     O48608   7.538   5.001   9.664 -0.0321  0.4481 -0.1802
  361MOL0     C48609   7.624   5.117   9.682 -0.3676 -0.0493 -0.5065
  361MOL0     C48610   7.674   5.113   9.825  0.3444 -0.2652 -0.0987
  361MOL0     C48611   7.562   5.105   9.935 -0.7336 -0.1845 -1.3938
  361MOL0     C48612   7.601   5.158  10.065  0.7896 -0.2811 -0.6402
  361MOL0     C48613   7.491   5.237  10.132  0.3463 -0.1538 -1.1501
  361MOL0     C48614   7.527   5.279  10.273  1.1277  0.3637  0.8021
  361MOL0     C48615   7.409   5.371  10.332 -0.7837 -0.1768 -0.3156
  361MOL0     C48616   7.402   5.372  10.482  1.0473 -0.4511  0.8093
  361MOL0     N48617   7.323   5.256  10.531 -0.1525  0.1014 -0.3225
  361MOL0     C48618   7.258   5.245  10.656 -0.4954 -0.3702  1.0062
  361MOL0     C48619   7.218   5.122  10.659  0.5462  0.3362  0.7248
  361MOL0     C48620   7.155   5.062  10.781 -0.4815  0.4373  0.7401
  361MOL0     C48621   7.020   4.989  10.752 -0.4816 -0.0016  0.8447
  361MOL0     C48622   6.922   5.053  10.645 -0.3318  1.0785  0.1480
  361MOL0     C48623   6.802   4.966  10.641 -0.7197 -0.1408  0.2683
  361MOL0     O48624   6.708   5.052  10.565  0.5720  1.4655 -0.5569
  361MOL0     C48625   6.590   4.989  10.525 -0.1652  0.6538 -0.0791
  361MOL0     C48626   6.549   4.858  10.555  0.2226  0.6307  0.5469
  361MOL0     C48627   6.424   4.809  10.495 -0.8727  0.9778  0.5140
  361MOL0     C48628   6.373   4.673  10.551 -0.1618  0.9328  0.0435
  361MOL0     C48629   6.360   4.884  10.396  0.5269 -0.3322  0.1173
  361MOL0     C48630   6.237   4.838  10.339 -0.0152 -0.2691 -0.3859
  361MOL0     O48631   6.227   4.706  10.285  0.4414 -0.1076  0.3309
  361MOL0     C48632   6.098   4.676  10.234  0.8648  0.6488  0.7070
  361MOL0     C48633   6.070   4.699  10.095  0.2744 -0.6360 -0.5958
  361MOL0     C48634   5.947   4.645  10.046  0.0685 -0.2955  0.6927
  361MOL0     C48635   5.849   4.594  10.130 -0.8337 -0.1525  0.6686
  361MOL0     O48636   5.724   4.552  10.087 -1.0837 -0.1854 -0.5352
  361MOL0     C48637   5.703   4.495   9.960 -0.5120  0.5151  0.0240
  361MOL0     C48638   5.771   4.361   9.974  0.0367 -0.2826  0.7495
  361MOL0     C48639   5.738   4.262   9.849 -0.2437 -0.6224  0.1956
  361MOL0     C48640   5.766   4.109   9.879 -0.3801  0.1029  0.6611
  361MOL0     C48641   5.723   4.042  10.017 -0.2435 -0.2498  0.6613
  361MOL0     C48642   5.576   4.056  10.033 -0.5690 -0.3936 -0.6679
  361MOL0     C48643   5.488   4.001   9.919  0.5042 -0.1343  0.1742
  361MOL0     C48644   5.338   4.010   9.958 -1.0394 -0.6268  0.4758
  361MOL0    Cl48645   5.288   4.187   9.968  0.1582  0.3522 -0.2692
  361MOL0     C48646   5.878   4.577  10.261 -0.1271 -0.6327 -0.5169
  361MOL0     C48647   6.001   4.614  10.316 -0.2232 -0.7343 -0.3498
  361MOL0     O48648   6.142   4.913  10.340 -1.4978 -0.0526 -0.2686
  361MOL0     C48649   6.407   5.014  10.375  0.1837 -0.2929 -0.0378
  361MOL0     C48650   6.518   5.068  10.446 -1.0083 -0.5934  0.3024
  361MOL0     N48651   7.243   5.058  10.538  0.4942 -0.9187  0.0723
  361MOL0     N48652   7.308   5.140  10.461  0.2605  0.1842  0.0432
  361MOL0     C48653   7.324   4.978   9.580  1.7174 -0.3458  0.3253
  361MOL0     C48654   7.236   4.973   9.466  0.2481  0.5097  0.2270
  361MOL0     C48655   7.039   5.081   9.074  0.1861 -0.3743 -0.4107
  361MOL0     C48656   6.972   5.186   9.008  0.2689 -0.2041  0.1192
  361MOL0     C48657   6.841   5.170   8.963 -1.0061  0.2178  0.0803
  361MOL0     C48658   6.779   5.045   8.988 -0.4635 -0.0574  0.4202
  361MOL0     O48659   6.659   5.012   8.945 -0.7623 -0.4242  0.2138
  361MOL0     C48660   6.605   5.107   8.848  0.4202  0.1089 -0.2762
  361MOL0     C48661   6.487   5.031   8.788 -0.6517  0.1029 -0.2548
  361MOL0     C48662   6.518   4.895   8.721  0.4311  0.4018  0.1421
  361MOL0     C48663   6.602   4.892   8.590 -0.5297 -0.5314  0.3548
  361MOL0     C48664   6.545   4.995   8.496  0.1724 -0.6117  0.4462
  361MOL0     C48665   6.503   5.075   8.418 -0.0591 -0.1848  0.2341
  361MOL0     C48666   6.846   4.946   9.052 -0.4355 -0.3462 -0.1848
  361MOL0     C48667   6.965   4.959   9.098 -0.3795 -0.1300  0.8833
  361MOL0     H48668   7.454   5.045   9.222 -1.9664 -0.5135 -0.7963
  361MOL0     H48669   7.606   5.039   9.387  1.0408 -3.4783 -0.2043
  361MOL0     H48670   7.707   5.088   9.618  2.0885  1.5282  1.7858
  361MOL0     H48671   7.575   5.210   9.653 -0.3180 -0.1629 -0.9656
  361MOL0     H48672   7.731   5.020   9.833 -0.9451 -1.0158  0.7699
  361MOL0     H48673   7.739   5.199   9.843 -0.2241  0.0566  0.4742
  361MOL0     H48674   7.473   5.162   9.911 -1.7514 -1.4855 -0.8616
  361MOL0     H48675   7.536   4.999   9.948  0.6006 -0.2667  1.7749
  361MOL0     H48676   7.636   5.074  10.127  0.5831  0.3900  0.3978
  361MOL0     H48677   7.680   5.233  10.061  1.0004 -0.4853 -0.3795
  361MOL0     H48678   7.473   5.328  10.073  3.9260  1.4672 -0.0200
  361MOL0     H48679   7.394   5.186  10.122  0.6614 -0.7673 -1.1318
  361MOL0     H48680   7.524   5.192  10.340  1.9380 -0.4515 -0.1763
  361MOL0     H48681   7.624   5.328  10.261  2.2907 -1.4955  2.0176
  361MOL0     H48682   7.438   5.467  10.288  1.1801 -1.1727 -1.3117
  361MOL0     H48683   7.313   5.338  10.291 -1.4187 -1.3961  2.0163
  361MOL0     H48684   7.343   5.461  10.505 -0.6884 -0.0653 -3.9313
  361MOL0     H48685   7.505   5.382  10.515  0.9653  1.6467  0.5480
  361MOL0     H48686   7.272   5.321  10.733  0.0795  1.4092 -0.7497
  361MOL0     H48687   7.223   4.996  10.836  0.5078 -0.9622 -1.9936
  361MOL0     H48688   7.138   5.156  10.834 -3.5410  0.3236  0.1268
  361MOL0     H48689   6.968   4.970  10.847 -0.3917 -3.8185  0.2897
  361MOL0     H48690   7.056   4.889  10.726 -1.9233 -1.0481  2.5781
  361MOL0     H48691   6.965   5.049  10.544 -0.6274 -1.0666  0.0682
  361MOL0     H48692   6.906   5.160  10.664 -0.8178  1.1165 -0.4586
  361MOL0     H48693   6.770   4.935  10.740  1.7980  3.3824  2.4152
  361MOL0     H48694   6.840   4.881  10.582 -1.3182 -1.4108  1.6462
  361MOL0     H48695   6.612   4.796  10.618  1.9666  1.9303  0.1811
  361MOL0     H48696   6.433   4.633  10.633 -1.2024  2.2574  1.5230
  361MOL0     H48697   6.276   4.696  10.596  0.9158  0.4478  2.8627
  361MOL0     H48698   6.353   4.598  10.474  2.7028 -2.7585  2.5098
  361MOL0     H48699   6.129   4.767  10.035 -1.3014  0.6617 -0.7329
  361MOL0     H48700   5.930   4.653   9.940 -1.6655  0.1839  0.9702
  361MOL0     H48701   5.597   4.485   9.935 -0.2463 -1.4483 -0.5018
  361MOL0     H48702   5.748   4.569   9.893  0.7430  0.6170  0.9369
  361MOL0     H48703   5.880   4.370   9.974  0.0345 -0.2351  0.5779
  361MOL0     H48704   5.748   4.330  10.076 -0.3217  2.1290  1.4489
  361MOL0     H48705   5.789   4.296   9.758 -0.8370  3.8925  1.3164
  361MOL0     H48706   5.635   4.271   9.814  0.1128  0.3875 -0.6435
  361MOL0     H48707   5.728   4.052   9.793  2.3446 -1.4045  0.3313
  361MOL0     H48708   5.873   4.086   9.882 -0.4266 -0.0144  1.8261
  361MOL0     H48709   5.777   4.088  10.100 -4.1913  2.5207  1.9725
  361MOL0     H48710   5.745   3.935  10.010 -0.7880 -0.4582  2.0149
  361MOL0     H48711   5.546   4.009  10.128 -1.3109 -0.9301 -1.1589
  361MOL0     H48712   5.560   4.163  10.044  1.2102 -0.2483  1.0864
  361MOL0     H48713   5.508   3.895   9.899  1.7457 -0.3092  2.0745
  361MOL0     H48714   5.498   4.065   9.831  3.7432  1.4450  1.5461
  361MOL0     H48715   5.316   3.956  10.050 -3.2436  3.1661  2.4260
  361MOL0     H48716   5.280   3.973   9.873 -0.8862  1.5386 -0.6617
  361MOL0     H48717   5.807   4.522  10.322  0.0702 -2.1412 -1.5709
  361MOL0     H48718   6.018   4.592  10.421  1.4968  1.1445 -0.1646
  361MOL0     H48719   6.360   5.078  10.301 -1.2289 -0.3837  0.7460
  361MOL0     H48720   6.558   5.167  10.428 -2.1740  0.7732  4.2013
  361MOL0     H48721   7.299   4.970   9.685 -3.1728  2.0899 -0.4122
  361MOL0     H48722   7.133   4.949   9.489  1.1247 -1.9519  1.9412
  361MOL0     H48723   7.022   5.280   8.986  1.7979 -0.8937  0.4751
  361MOL0     H48724   6.797   5.258   8.917 -0.6316  1.8905  2.7179
  361MOL0     H48725   6.558   5.198   8.886  2.5561  1.3146 -0.3572
  361MOL0     H48726   6.667   5.110   8.758 -1.0888 -3.9489 -1.6752
  361MOL0     H48727   6.434   5.107   8.730 -1.1351  2.3329  2.8807
  361MOL0     H48728   6.419   5.008   8.870  3.0836  1.2021  3.4830
  361MOL0     H48729   6.429   4.835   8.703  2.5326 -3.4701  1.5170
  361MOL0     H48730   6.572   4.838   8.797 -2.4120 -3.4319 -0.4119
  361MOL0     H48731   6.598   4.793   8.544 -1.7419 -1.4199  2.2345
  361MOL0     H48732   6.708   4.914   8.609 -0.6945  0.3399  0.2850
  361MOL0     H48733   6.454   5.148   8.356 -1.8278 -0.4872  1.2166
  361MOL0     H48734   6.800   4.851   9.075  1.1135 -1.0752  0.0521
  361MOL0     H48735   7.008   4.875   9.152 -2.3920 -0.8842  1.4094
  362MOL0     O48736  10.397   2.139   8.383 -0.6535 -0.8795 -0.1881
  362MOL0     C48737  10.427   2.065   8.480 -1.1418 -0.8938  0.1803
  362MOL0     O48738  10.421   2.107   8.615  0.2336 -0.3174 -0.2348
  362MOL0     C48739  10.381   2.245   8.638  0.3054 -0.6080  0.1662
  362MOL0     C48740  10.443   2.304   8.755  0.0161 -0.2049 -0.0641
  362MOL0     C48741  10.391   2.430   8.791 -0.3340 -1.0381 -0.7661
  362MOL0     C48742  10.282   2.490   8.727 -1.3151  0.4379  1.2903
  362MOL0     O48743  10.255   2.615   8.773  0.9073  0.0831  0.3666
  362MOL0     C48744  10.163   2.692   8.692 -0.4397  0.4275 -1.3415
  362MOL0     C48745  10.126   2.826   8.742 -0.6633 -1.0916 -0.8523
  362MOL0     C48746  10.021   2.904   8.660  0.4825  0.3260 -0.3771
  362MOL0     C48747   9.913   2.976   8.743 -0.0181  0.0927 -0.3764
  362MOL0     C48748   9.957   3.105   8.825 -0.1988 -0.3359  1.1053
  362MOL0     C48749   9.862   3.108   8.942 -0.3411  1.0527  0.3125
  362MOL0     C48750   9.853   3.252   8.993  0.2939 -0.2311 -0.3905
  362MOL0     C48751   9.717   3.325   8.955  0.6277 -0.7243  0.3069
  362MOL0     N48752   9.704   3.342   8.809  0.0159 -0.3033  0.6028
  362MOL0     C48753   9.631   3.269   8.722  0.0295  0.2109 -0.4932
  362MOL0     C48754   9.669   3.317   8.596 -0.1655  0.4088 -0.1323
  362MOL0     C48755   9.628   3.249   8.457 -0.1912 -0.9768 -0.3463
  362MOL0     C48756   9.708   3.115   8.430 -0.2646  0.0688  0.0456
  362MOL0     C48757   9.860   3.133   8.400 -0.7638 -0.1837 -0.4886
  362MOL0     C48758   9.895   3.200   8.268  0.2978 -0.3016  0.1948
  362MOL0     O48759   9.811   3.143   8.163 -0.5180  0.8896  1.0487
  362MOL0     C48760   9.821   3.185   8.035 -0.6452 -0.2101 -0.2270
  362MOL0     C48761   9.802   3.101   7.931 -0.1440 -0.2149  0.4289
  362MOL0     C48762   9.839   3.123   7.793 -0.2081  0.7771 -0.0402
  362MOL0     C48763   9.823   3.011   7.700 -0.7129  0.3373  0.2848
  362MOL0     C48764   9.880   3.260   7.756 -0.7035  0.1840  0.6256
  362MOL0     C48765   9.919   3.308   7.617 -0.2965 -0.5497 -0.5669
  362MOL0     O48766   9.898   3.225   7.509 -0.4668 -0.0024 -0.4375
  362MOL0     C48767   9.914   3.273   7.377  1.1140  0.8043 -0.1183
  362MOL0     C48768  10.013   3.203   7.309 -0.2867  0.1366 -0.3996
  362MOL0     C48769  10.034   3.242   7.178 -0.0171 -0.3152  0.1248
  362MOL0     C48770   9.986   3.364   7.128 -0.8064  0.2572  0.6096
  362MOL0     O48771  10.053   3.404   7.014 -0.1512  0.1997  0.3036
  362MOL0     C48772  10.002   3.522   6.948  0.2116  0.1325 -1.2293
  362MOL0     C48773  10.069   3.553   6.817  0.0217  0.4835  1.3666
  362MOL0     C48774   9.971   3.649   6.747 -0.3196  0.2674 -0.3210
  362MOL0     C48775   9.851   3.573   6.681 -0.0028 -0.1871 -0.4953
  362MOL0     C48776   9.757   3.679   6.614 -0.2256  0.2542  0.1446
  362MOL0     C48777   9.612   3.629   6.570 -0.2619  0.5103  0.1220
  362MOL0     C48778   9.613   3.518   6.460  0.7964 -0.1274 -0.5257
  362MOL0     C48779   9.466   3.476   6.425 -0.5725  0.0343 -0.8392
  362MOL0    Cl48780   9.470   3.377   6.280  0.4742  0.1388  0.2239
  362MOL0     C48781   9.902   3.438   7.205  0.0208  0.4718 -0.5238
  362MOL0     C48782   9.864   3.389   7.330  0.7209  0.3841 -0.5451
  362MOL0     O48783   9.944   3.426   7.609  0.1309  0.7363 -0.8932
  362MOL0     C48784   9.891   3.351   7.867  0.1586  0.0952 -0.1765
  362MOL0     C48785   9.871   3.316   8.002 -0.1532 -0.3851 -0.1333
  362MOL0     N48786   9.746   3.430   8.614  0.8575  0.5005 -0.4347
  362MOL0     N48787   9.764   3.442   8.744 -1.1538  0.2694  0.5598
  362MOL0     C48788  10.226   2.427   8.614 -0.0206  0.0555  0.0004
  362MOL0     C48789  10.267   2.300   8.580  0.4701 -0.2411 -0.6160
  362MOL0     C48790  10.473   1.920   8.463 -0.5849  0.5231  0.3411
  362MOL0     C48791  10.516   1.839   8.573 -0.7330 -0.5590 -0.1471
  362MOL0     C48792  10.548   1.707   8.564  0.1441  0.5093  0.1610
  362MOL0     C48793  10.569   1.651   8.428  0.2991 -0.5555  0.6954
  362MOL0     O48794  10.591   1.516   8.412  0.8155 -0.3706  0.8297
  362MOL0     C48795  10.697   1.449   8.476 -0.7347  0.6379  0.0407
  362MOL0     C48796  10.767   1.359   8.383  0.3251 -0.8035 -0.3443
  362MOL0     C48797  10.837   1.248   8.449 -0.5210  0.5195  0.6549
  362MOL0     C48798  10.954   1.196   8.364 -0.1632  0.3808 -0.2315
  362MOL0     C48799  10.924   1.153   8.226 -0.9063 -0.3192 -0.5261
  362MOL0     C48800  10.915   1.108   8.114  1.2175 -0.5192  0.4881
  362MOL0     C48801  10.534   1.739   8.320  0.9171  0.8071 -0.2455
  362MOL0     C48802  10.478   1.866   8.339 -0.5086 -0.1649  1.3609
  362MOL0     H48803  10.531   2.262   8.805  1.4611  0.5186 -1.8853
  362MOL0     H48804  10.442   2.489   8.866 -0.2990  0.3294 -1.8348
  362MOL0     H48805  10.206   2.700   8.592  0.2484  2.5095 -0.9299
  362MOL0     H48806  10.075   2.627   8.689  0.8599 -1.3645 -2.5142
  362MOL0     H48807  10.100   2.821   8.849  4.0629 -1.2703  0.4927
  362MOL0     H48808  10.224   2.874   8.739 -0.9752 -0.4894 -2.6210
  362MOL0     H48809  10.063   2.984   8.599 -0.9854  1.0059 -0.5488
  362MOL0     H48810   9.959   2.832   8.605 -0.8743 -0.6438  2.2242
  362MOL0     H48811   9.822   3.007   8.691 -0.1071 -1.8173 -1.4232
  362MOL0     H48812   9.866   2.901   8.808 -1.1071  2.2497  1.4836
  362MOL0     H48813  10.062   3.112   8.856 -0.5003  0.7728  1.9465
  362MOL0     H48814   9.942   3.185   8.753  1.3510 -0.9134  0.0854
  362MOL0     H48815   9.765   3.072   8.908  0.8852 -2.6267  0.2563
  362MOL0     H48816   9.900   3.033   9.012 -1.4108 -0.9584 -1.1647
  362MOL0     H48817   9.886   3.251   9.097 -2.5431  0.6607  0.6053
  362MOL0     H48818   9.928   3.295   8.925  1.8639 -3.5545 -0.9924
  362MOL0     H48819   9.716   3.425   9.001  3.3166 -0.7521  0.5901
  362MOL0     H48820   9.625   3.279   8.991 -2.3543  2.4105 -2.5869
  362MOL0     H48821   9.560   3.189   8.740  1.2559 -1.0480 -1.0520
  362MOL0     H48822   9.520   3.235   8.464  0.0877 -3.7303 -0.6122
  362MOL0     H48823   9.662   3.312   8.373  0.5583 -2.6327 -1.3378
  362MOL0     H48824   9.664   3.066   8.342 -1.3111 -0.2698  0.7372
  362MOL0     H48825   9.696   3.052   8.518 -0.6880  1.6628  1.1677
  362MOL0     H48826   9.916   3.039   8.403  2.9435  1.8235  0.1868
  362MOL0     H48827   9.891   3.192   8.486  1.7768 -3.0945  0.8108
  362MOL0     H48828  10.003   3.191   8.259  0.6199  3.0571 -0.5930
  362MOL0     H48829   9.876   3.308   8.266 -3.0163 -0.7568  0.7714
  362MOL0     H48830   9.781   2.999   7.961  3.4179 -1.1211  0.3346
  362MOL0     H48831   9.919   2.989   7.652 -0.8521 -1.2213  0.6752
  362MOL0     H48832   9.788   2.919   7.747 -2.5627  0.8260 -0.0462
  362MOL0     H48833   9.749   3.043   7.625 -1.1233 -2.2919 -0.5114
  362MOL0     H48834  10.063   3.115   7.349  1.7397  0.5125 -1.9310
  362MOL0     H48835  10.089   3.173   7.114 -1.2806 -1.4205  0.1633
  362MOL0     H48836   9.895   3.512   6.926 -0.3504  1.8947  0.4172
  362MOL0     H48837  10.034   3.600   7.018  2.4977  0.0782 -2.1346
  362MOL0     H48838  10.163   3.609   6.827 -0.0880  1.0582 -0.5351
  362MOL0     H48839  10.086   3.465   6.754  0.3790 -0.0579  2.1967
  362MOL0     H48840  10.022   3.690   6.660  2.6956  0.4643  1.4026
  362MOL0     H48841   9.933   3.737   6.800  2.5470  1.8241 -0.6680
  362MOL0     H48842   9.893   3.492   6.620  1.2967 -0.2832  0.4937
  362MOL0     H48843   9.782   3.528   6.753 -2.5191  0.3459 -2.4331
  362MOL0     H48844   9.806   3.720   6.525 -1.0045  3.2205  0.9725
  362MOL0     H48845   9.735   3.759   6.686 -2.9000 -0.4987  0.2884
  362MOL0     H48846   9.559   3.594   6.659 -2.0296  2.4236 -0.1049
  362MOL0     H48847   9.547   3.703   6.524 -3.1831 -2.6221 -1.2767
  362MOL0     H48848   9.673   3.431   6.487  0.7635 -0.3556 -1.1790
  362MOL0     H48849   9.653   3.573   6.374  1.5794 -0.3204 -0.2927
  362MOL0     H48850   9.403   3.563   6.405  0.4301  0.8855 -0.3686
  362MOL0     H48851   9.424   3.422   6.510  0.3760  0.0306 -0.3613
  362MOL0     H48852   9.869   3.532   7.162 -1.7891  0.6575  1.1355
  362MOL0     H48853   9.809   3.455   7.397  2.6455 -1.0774  2.6875
  362MOL0     H48854   9.941   3.447   7.856 -2.2919  1.4320 -0.2234
  362MOL0     H48855   9.887   3.398   8.071  0.0963 -1.7339  1.4929
  362MOL0     H48856  10.130   2.468   8.583  1.1796  4.1977  1.0626
  362MOL0     H48857  10.221   2.231   8.510 -0.7277  1.3695 -1.4877
  362MOL0     H48858  10.505   1.877   8.674 -2.5593 -0.4331 -0.3443
  362MOL0     H48859  10.573   1.645   8.649 -1.0906 -0.7293 -0.3412
  362MOL0     H48860  10.761   1.536   8.497 -0.3992  0.8833 -1.8389
  362MOL0     H48861  10.672   1.385   8.561  2.1974 -3.3333 -1.7726
  362MOL0     H48862  10.837   1.426   8.331  0.0926  0.2017  0.5978
  362MOL0     H48863  10.700   1.317   8.308 -1.0976  0.2564  0.2789
  362MOL0     H48864  10.780   1.158   8.473  0.3640  0.1093  1.2804
  362MOL0     H48865  10.884   1.277   8.543  4.3067 -3.4016 -0.1619
  362MOL0     H48866  11.003   1.113   8.414 -0.4828 -1.5280 -2.8506
  362MOL0     H48867  11.034   1.270   8.358 -1.3149  1.8148  1.3015
  362MOL0     H48868  10.898   1.057   8.022 -0.4159  1.2375 -0.2520
  362MOL0     H48869  10.517   1.697   8.222  0.4968  1.8633 -0.6382
  362MOL0     H48870  10.448   1.921   8.250  0.4648 -0.6096  0.7389
  363MOL0     O48871  10.781   4.905   8.463 -0.4174  0.1770 -0.0470
  363MOL0     C48872  10.769   5.028   8.493  0.0942  0.7283  0.2273
  363MOL0     O48873  10.819   5.127   8.419 -0.1037  0.0091 -0.7068
  363MOL0     C48874  10.902   5.094   8.309 -0.6282 -0.3786  0.5593
  363MOL0     C48875  10.851   5.079   8.181 -0.1913 -0.1305  0.3223
  363MOL0     C48876  10.927   5.021   8.074 -0.5200  0.6095 -0.7167
  363MOL0     C48877  11.064   5.005   8.092  0.5256  0.0575  0.0888
  363MOL0     O48878  11.134   4.988   7.977  0.8274  0.2032  0.3319
  363MOL0     C48879  11.183   4.848   7.971 -0.2105  0.0806  0.5278
  363MOL0     C48880  11.119   4.773   7.843 -0.8677  0.8607 -0.4193
  363MOL0     C48881  11.137   4.849   7.708  0.5373  0.0015 -0.3696
  363MOL0     C48882  11.080   4.752   7.592 -0.3850  0.6182  0.0761
  363MOL0     C48883  11.102   4.820   7.463 -0.7220 -0.0481 -0.1180
  363MOL0     C48884  11.096   4.708   7.358  0.2342  0.3094 -1.3051
  363MOL0     C48885  10.977   4.623   7.334  0.6497  0.3738  0.3610
  363MOL0     C48886  10.870   4.688   7.245  0.5998 -0.6580  0.3505
  363MOL0     N48887  10.901   4.686   7.101  0.0904  0.6918  0.7063
  363MOL0     C48888  10.836   4.609   7.000 -0.3627  0.9695 -0.0972
  363MOL0     C48889  10.919   4.619   6.894  0.1163  0.4083  0.6969
  363MOL0     C48890  10.913   4.524   6.779 -0.4987 -0.8719  0.0066
  363MOL0     C48891  11.001   4.560   6.659  0.6960  0.4673 -0.0346
  363MOL0     C48892  10.947   4.515   6.518  0.2657 -0.8473 -0.2242
  363MOL0     C48893  10.905   4.369   6.513 -0.4437  0.2835  1.1790
  363MOL0     O48894  11.024   4.303   6.557 -0.0971 -0.4687  0.4570
  363MOL0     C48895  11.060   4.214   6.459 -0.6014 -0.8354  0.2561
  363MOL0     C48896  10.975   4.113   6.413 -0.0651  0.0989 -1.1285
  363MOL0     C48897  11.014   4.014   6.335 -0.1245 -0.3589  1.4342
  363MOL0     C48898  10.913   3.910   6.303  0.8574 -0.3835  0.7455
  363MOL0     C48899  11.137   4.033   6.265  0.0159 -0.0226 -0.6260
  363MOL0     C48900  11.188   3.911   6.181 -1.3415 -0.3980 -0.1799
  363MOL0     O48901  11.238   3.928   6.055  0.1024 -0.1006 -0.4937
  363MOL0     C48902  11.301   3.826   5.989 -1.3212  0.0810  0.0918
  363MOL0     C48903  11.369   3.859   5.873  0.2540 -0.3544 -0.2506
  363MOL0     C48904  11.427   3.763   5.792  0.1684 -0.1340  0.0894
  363MOL0     C48905  11.434   3.629   5.825  0.9187 -0.1345  0.5261
  363MOL0     O48906  11.485   3.541   5.725  0.2574 -0.3491  0.1941
  363MOL0     C48907  11.625   3.541   5.734 -0.8062  0.2072  0.5102
  363MOL0     C48908  11.668   3.393   5.732 -0.5947 -0.3258  0.4096
  363MOL0     C48909  11.643   3.304   5.863  0.3127 -0.8844  0.2746
  363MOL0     C48910  11.687   3.161   5.860 -0.4197 -0.3520  0.6300
  363MOL0     C48911  11.703   3.096   5.719 -0.4755  0.4125  1.0131
  363MOL0     C48912  11.770   2.956   5.722 -1.0970 -0.7571 -0.5700
  363MOL0     C48913  11.741   2.878   5.595 -0.0654 -0.6405  1.3510
  363MOL0     C48914  11.813   2.742   5.588  0.3148  0.9146 -0.0523
  363MOL0    Cl48915  11.844   2.711   5.401 -0.2809  0.3782 -0.5808
  363MOL0     C48916  11.370   3.586   5.936 -0.3053 -0.5641 -0.4176
  363MOL0     C48917  11.307   3.680   6.020 -0.5997  0.9207  0.3028
  363MOL0     O48918  11.195   3.814   6.250 -0.4139 -0.6425  0.3462
  363MOL0     C48919  11.216   4.151   6.285 -0.1288  0.7986 -0.7663
  363MOL0     C48920  11.180   4.237   6.388  0.3905 -0.1364 -0.3354
  363MOL0     N48921  11.018   4.709   6.922  0.0279 -0.7006  0.6596
  363MOL0     N48922  11.003   4.758   7.040  0.7107 -0.8975 -0.6748
  363MOL0     C48923  11.124   5.038   8.220 -0.2822  0.1667 -0.1232
  363MOL0     C48924  11.040   5.071   8.324  0.4919  0.2630  0.1119
  363MOL0     C48925  10.709   5.064   8.628 -0.5736 -0.6422  0.2314
  363MOL0     C48926  10.673   4.972   8.726  0.5767 -0.8230 -0.1048
  363MOL0     C48927  10.646   5.005   8.857  0.1386 -0.6379 -0.7047
  363MOL0     C48928  10.638   5.136   8.892 -0.1343  0.0465  0.7351
  363MOL0     O48929  10.620   5.165   9.028 -0.3006  0.0982 -0.0829
  363MOL0     C48930  10.534   5.276   9.061  0.0389  0.4273  0.9064
  363MOL0     C48931  10.509   5.251   9.205  0.9621 -0.1241 -0.8243
  363MOL0     C48932  10.380   5.325   9.241  0.1427  0.4054 -0.3692
  363MOL0     C48933  10.364   5.340   9.393 -0.3293 -0.3365  0.2932
  363MOL0     C48934  10.246   5.411   9.419 -0.1636  0.8622  0.4173
  363MOL0     C48935  10.143   5.458   9.449  0.0701  0.5323  1.0681
  363MOL0     C48936  10.684   5.232   8.799  0.5143 -0.5840 -1.3437
  363MOL0     C48937  10.717   5.197   8.671 -0.5087 -0.7175 -0.8098
  363MOL0     H48938  10.743   5.091   8.176 -0.4947 -2.0841  1.4671
  363MOL0     H48939  10.889   4.994   7.976 -1.1705  2.9945 -1.1866
  363MOL0     H48940  11.292   4.842   7.960  0.0401 -0.9252  2.9038
  363MOL0     H48941  11.173   4.790   8.063  6.3285 -1.8787  0.5099
  363MOL0     H48942  11.159   4.672   7.838 -1.7962  0.4432  0.2980
  363MOL0     H48943  11.012   4.761   7.862 -0.4863  2.0726  3.0950
  363MOL0     H48944  11.081   4.942   7.706 -0.7612 -0.7693 -0.5933
  363MOL0     H48945  11.243   4.878   7.710  0.0489  2.0470 -1.2688
  363MOL0     H48946  11.136   4.658   7.588 -1.1853  0.1918 -2.1500
  363MOL0     H48947  10.978   4.718   7.612 -0.5580  0.9485 -0.2477
  363MOL0     H48948  11.026   4.896   7.442 -0.8109  0.3465  1.5164
  363MOL0     H48949  11.198   4.872   7.454 -1.3516  1.8211  2.6485
  363MOL0     H48950  11.108   4.766   7.266  0.8988 -0.3501 -1.6448
  363MOL0     H48951  11.180   4.641   7.383 -0.8855  0.5109  4.1310
  363MOL0     H48952  11.014   4.527   7.295  0.5439 -0.2037  1.6292
  363MOL0     H48953  10.926   4.586   7.424  0.0301 -1.0118 -0.5197
  363MOL0     H48954  10.871   4.795   7.268 -2.8637 -0.8251  1.9898
  363MOL0     H48955  10.772   4.646   7.270 -0.7387  1.3272 -1.2469
  363MOL0     H48956  10.749   4.545   7.005 -0.1006  0.0622 -4.0566
  363MOL0     H48957  10.938   4.424   6.814  2.1072  0.1664  1.4510
  363MOL0     H48958  10.808   4.532   6.749 -0.0980 -0.5148 -1.4062
  363MOL0     H48959  11.107   4.540   6.673  0.8783  1.3878 -0.0266
  363MOL0     H48960  10.988   4.669   6.656  3.3329  0.8273 -1.5185
  363MOL0     H48961  11.034   4.524   6.453  0.8585 -0.4313  0.6117
  363MOL0     H48962  10.876   4.582   6.468  0.6297 -1.7888 -2.0558
  363MOL0     H48963  10.868   4.334   6.416  0.4160 -3.4302  2.0553
  363MOL0     H48964  10.830   4.350   6.590  0.0751  0.1460  1.6581
  363MOL0     H48965  10.881   4.103   6.467  0.3912 -2.8716 -0.7217
  363MOL0     H48966  10.878   3.857   6.392  1.7580 -1.1220  0.6722
  363MOL0     H48967  10.823   3.956   6.262  2.1276 -0.7752 -2.8476
  363MOL0     H48968  10.947   3.835   6.232  0.1956  1.0182 -1.1361
  363MOL0     H48969  11.381   3.960   5.835 -0.8082  0.1583  0.7103
  363MOL0     H48970  11.480   3.805   5.707 -0.8293  3.9226  1.2537
  363MOL0     H48971  11.666   3.580   5.641 -2.4336  1.3513  0.2185
  363MOL0     H48972  11.665   3.585   5.826  1.3400 -2.7150  1.1174
  363MOL0     H48973  11.606   3.344   5.657 -2.3709  1.3665  0.6852
  363MOL0     H48974  11.773   3.392   5.702 -1.6827  0.0763 -4.2045
  363MOL0     H48975  11.536   3.320   5.873  0.8397  3.4063  0.6733
  363MOL0     H48976  11.681   3.355   5.953 -0.8184 -1.0731  0.8739
  363MOL0     H48977  11.769   3.161   5.933 -1.0105  2.7595  1.4316
  363MOL0     H48978  11.622   3.091   5.913  0.0744  1.6694  4.2432
  363MOL0     H48979  11.766   3.157   5.654  0.2147 -0.2805  1.0088
  363MOL0     H48980  11.602   3.093   5.677 -1.0426  2.7845  2.0618
  363MOL0     H48981  11.879   2.954   5.731 -1.1311  0.9809  0.9063
  363MOL0     H48982  11.730   2.890   5.800 -4.4512  1.9347  0.2305
  363MOL0     H48983  11.771   2.949   5.517  0.7698 -0.6902  1.6135
  363MOL0     H48984  11.635   2.854   5.584  0.1666 -1.3451  0.5926
  363MOL0     H48985  11.758   2.656   5.626 -0.7437  1.1018 -1.0844
  363MOL0     H48986  11.909   2.745   5.640 -0.8067 -0.0046  2.1661
  363MOL0     H48987  11.369   3.477   5.937 -0.8779 -0.5835 -1.6025
  363MOL0     H48988  11.264   3.630   6.106  2.0974 -0.3366  1.0100
  363MOL0     H48989  11.301   4.180   6.225 -0.8060  3.0505 -0.7517
  363MOL0     H48990  11.247   4.322   6.401  1.0565 -0.3331 -2.1018
  363MOL0     H48991  11.231   5.054   8.215 -0.0482 -0.1120  2.5167
  363MOL0     H48992  11.072   5.106   8.422  1.7439  2.0713 -0.8908
  363MOL0     H48993  10.690   4.870   8.692  0.3088 -0.2248 -2.2136
  363MOL0     H48994  10.631   4.924   8.927  1.8862 -0.2940  0.1222
  363MOL0     H48995  10.587   5.371   9.051 -1.6138  1.1135 -3.5835
  363MOL0     H48996  10.445   5.275   8.998  1.9439 -2.5938 -2.1407
  363MOL0     H48997  10.596   5.280   9.264 -0.6679  1.1622  1.0481
  363MOL0     H48998  10.497   5.143   9.222  0.6827  0.0357  0.0299
  363MOL0     H48999  10.296   5.270   9.198  0.6451  0.6729 -1.7323
  363MOL0     H49000  10.368   5.420   9.189 -2.3671 -0.5430 -1.7287
  363MOL0     H49001  10.445   5.406   9.425 -0.6706  0.0564  0.3543
  363MOL0     H49002  10.372   5.249   9.452  0.3900 -0.7598 -0.4336
  363MOL0     H49003  10.061   5.519   9.479  0.4789  1.7611 -0.1480
  363MOL0     H49004  10.683   5.338   8.824 -1.4371 -0.2758 -2.4810
  363MOL0     H49005  10.728   5.279   8.601 -1.4282  3.3860  3.4027
  364MOL0     O49006   2.875   3.774   0.734 -0.0825 -0.7492 -0.3056
  364MOL0     C49007   2.904   3.766   0.616  0.5535  0.7134 -0.6607
  364MOL0     O49008   2.878   3.862   0.531 -0.1098 -0.4744  0.9822
  364MOL0     C49009   2.757   3.932   0.531  0.3354 -0.0105 -0.6788
  364MOL0     C49010   2.752   4.040   0.452 -0.2319 -0.1868 -0.2111
  364MOL0     C49011   2.644   4.133   0.460  0.8973  1.4554  0.6104
  364MOL0     C49012   2.537   4.106   0.540  0.1099  0.5985 -0.0834
  364MOL0     O49013   2.443   4.204   0.530  0.3445 -0.4012  0.5586
  364MOL0     C49014   2.411   4.264   0.649  0.3602  0.4022 -0.2636
  364MOL0     C49015   2.532   4.323   0.717  0.0183  0.3132 -0.1698
  364MOL0     C49016   2.498   4.357   0.868  0.9067  0.5769  0.5646
  364MOL0     C49017   2.609   4.423   0.936  0.3134  0.1500 -0.4515
  364MOL0     C49018   2.586   4.413   1.085  0.3841  0.2611  0.3528
  364MOL0     C49019   2.677   4.490   1.178  0.1789 -0.1778  0.5205
  364MOL0     C49020   2.662   4.451   1.322 -0.0391  0.2988  0.0427
  364MOL0     C49021   2.710   4.313   1.348 -0.3486  0.3854 -0.2215
  364MOL0     N49022   2.622   4.230   1.428 -0.3183 -0.5058  0.6527
  364MOL0     C49023   2.521   4.154   1.377  0.4345  0.3757  1.4861
  364MOL0     C49024   2.477   4.077   1.476  0.0776  0.8309  0.7067
  364MOL0     C49025   2.374   3.960   1.466 -0.3434 -0.8328 -0.0003
  364MOL0     C49026   2.228   4.001   1.440 -0.5118 -0.3925  0.1603
  364MOL0     C49027   2.175   4.096   1.546 -0.4449  0.7439  0.6804
  364MOL0     C49028   2.154   4.044   1.684 -0.1418  0.2604  0.0487
  364MOL0     O49029   2.082   3.917   1.684 -0.2104  0.3207 -1.1431
  364MOL0     C49030   2.097   3.840   1.797  0.3320 -0.7242 -0.6883
  364MOL0     C49031   2.058   3.709   1.778  0.3239 -1.0869 -0.9667
  364MOL0     C49032   2.064   3.613   1.880  0.3237  0.2786 -0.3078
  364MOL0     C49033   2.015   3.477   1.845  0.1513  0.0402 -0.4862
  364MOL0     C49034   2.120   3.642   2.010  1.7839  1.0375  0.3296
  364MOL0     C49035   2.105   3.546   2.128 -0.4899 -0.2392  0.6252
  364MOL0     O49036   2.011   3.446   2.121  0.2995  0.3461 -0.0316
  364MOL0     C49037   1.998   3.359   2.229 -0.3752  0.0680  0.5740
  364MOL0     C49038   1.990   3.406   2.361 -0.4475  0.2255 -0.1155
  364MOL0     C49039   1.971   3.331   2.476 -0.7540  0.7297 -0.7238
  364MOL0     C49040   1.958   3.188   2.464 -0.7617 -0.1855  0.7430
  364MOL0     O49041   1.957   3.088   2.559 -0.0301 -0.4626  0.4157
  364MOL0     C49042   1.992   3.119   2.690  0.2014  0.0563 -0.8381
  364MOL0     C49043   1.914   3.019   2.785  0.2298  0.3467 -0.1501
  364MOL0     C49044   1.751   3.009   2.775  1.0682  0.1289 -0.7591
  364MOL0     C49045   1.677   2.915   2.876 -0.2476  0.4337 -0.5977
  364MOL0     C49046   1.685   2.777   2.838 -0.4153 -0.7988  0.0749
  364MOL0     C49047   1.630   2.669   2.925  0.1616  0.3286  0.0972
  364MOL0     C49048   1.721   2.631   3.042  0.4726 -0.5649 -0.3974
  364MOL0     C49049   1.671   2.534   3.157  0.6874  0.4799 -0.0702
  364MOL0    Cl49050   1.643   2.375   3.091 -0.0633  0.0654  0.2513
  364MOL0     C49051   1.950   3.146   2.328  0.8230 -0.2341  0.7019
  364MOL0     C49052   1.964   3.223   2.215 -0.8481  0.1977  0.3045
  364MOL0     O49053   2.180   3.570   2.232 -0.2277 -0.2786  0.1487
  364MOL0     C49054   2.163   3.775   2.026  0.2364 -0.9959 -0.2463
  364MOL0     C49055   2.164   3.865   1.914  0.0998 -0.7379  0.1661
  364MOL0     N49056   2.549   4.103   1.591  1.0622  0.3519  0.6689
  364MOL0     N49057   2.642   4.195   1.556  0.5331 -0.3266 -0.1813
  364MOL0     C49058   2.537   3.993   0.626 -0.1693 -0.1702 -0.0790
  364MOL0     C49059   2.654   3.914   0.623  0.4965 -0.6095 -0.6498
  364MOL0     C49060   2.957   3.632   0.577  0.8711 -0.7715  0.1529
  364MOL0     C49061   3.033   3.619   0.464  0.8944 -0.4906  0.3470
  364MOL0     C49062   3.081   3.488   0.420 -0.3222 -0.0100  0.1804
  364MOL0     C49063   3.031   3.376   0.481  0.0799  0.5419 -0.5973
  364MOL0     O49064   3.075   3.255   0.435  0.6303 -0.6672  0.6018
  364MOL0     C49065   3.027   3.133   0.490 -0.0369  0.0806 -1.4552
  364MOL0     C49066   3.045   3.017   0.402 -0.0919  0.2196  0.0153
  364MOL0     C49067   3.211   2.991   0.407  0.3151 -0.5005 -0.0606
  364MOL0     C49068   3.276   3.049   0.269  0.2598  0.5267  0.2367
  364MOL0     C49069   3.421   3.020   0.284  1.1184 -0.7655  0.0785
  364MOL0     C49070   3.534   2.976   0.296  0.1498  0.5550  0.1143
  364MOL0     C49071   2.945   3.392   0.599 -0.0891  0.1037  0.3494
  364MOL0     C49072   2.909   3.519   0.644 -1.0772 -0.3179  0.1293
  364MOL0     H49073   2.819   4.055   0.368 -1.2205  1.5450 -0.7425
  364MOL0     H49074   2.661   4.225   0.405  0.1801  2.5598  2.1933
  364MOL0     H49075   2.339   4.345   0.637 -0.2343  0.0249  0.5990
  364MOL0     H49076   2.366   4.186   0.712  1.7744 -1.5775 -1.5882
  364MOL0     H49077   2.628   4.270   0.717  0.1947  0.6139  0.5675
  364MOL0     H49078   2.556   4.413   0.659  0.2025  0.2166 -0.2452
  364MOL0     H49079   2.417   4.430   0.878  2.6820  2.5042  1.7390
  364MOL0     H49080   2.475   4.258   0.910  0.6690 -0.6761 -2.2515
  364MOL0     H49081   2.700   4.371   0.903  1.5918  1.6318  0.6010
  364MOL0     H49082   2.624   4.527   0.908 -2.0572  0.5231 -0.4788
  364MOL0     H49083   2.483   4.439   1.110 -0.4272 -3.3441  1.1808
  364MOL0     H49084   2.593   4.308   1.114 -0.1628  0.1086 -0.0543
  364MOL0     H49085   2.777   4.490   1.134  0.3420  2.5258  0.7639
  364MOL0     H49086   2.646   4.594   1.190  2.0347  0.2044  2.7939
  364MOL0     H49087   2.723   4.514   1.387  2.2258  1.9652 -3.3482
  364MOL0     H49088   2.560   4.453   1.359 -0.3617  1.5842 -0.8395
  364MOL0     H49089   2.807   4.313   1.397  0.0478 -2.8337 -0.7592
  364MOL0     H49090   2.737   4.270   1.251 -1.2272  0.0764 -0.3445
  364MOL0     H49091   2.480   4.171   1.278 -1.0346  2.3668  2.3761
  364MOL0     H49092   2.386   3.898   1.376 -3.1101 -0.8563 -0.4474
  364MOL0     H49093   2.380   3.890   1.549 -0.0849 -0.7372  0.0627
  364MOL0     H49094   2.171   3.908   1.448  3.7341 -3.2148  0.6946
  364MOL0     H49095   2.225   4.049   1.341 -1.9169  0.3595  0.5354
  364MOL0     H49096   2.075   4.130   1.519 -0.6545 -0.6072 -0.3462
  364MOL0     H49097   2.240   4.184   1.552 -1.1807  1.3426  0.0715
  364MOL0     H49098   2.100   4.118   1.743 -1.3569 -0.4604 -0.1165
  364MOL0     H49099   2.258   4.039   1.715  0.3265 -0.6124 -1.5783
  364MOL0     H49100   2.031   3.668   1.681  3.3420 -1.4762 -1.7260
  364MOL0     H49101   1.923   3.454   1.900  0.2162 -1.5786 -1.0061
  364MOL0     H49102   1.993   3.476   1.738  0.7490  0.7016 -0.6238
  364MOL0     H49103   2.094   3.402   1.854 -0.3391 -0.3642  0.6877
  364MOL0     H49104   1.989   3.514   2.369  0.4146  0.4552 -2.3293
  364MOL0     H49105   1.982   3.390   2.566  0.4617 -1.9142  1.0140
  364MOL0     H49106   2.099   3.123   2.713  0.3487 -0.6803 -1.3535
  364MOL0     H49107   1.950   3.216   2.718  1.4846 -0.0331  1.6588
  364MOL0     H49108   1.956   2.920   2.767  0.8330  0.1703  1.8836
  364MOL0     H49109   1.935   3.064   2.883 -0.2597 -0.7262  0.4621
  364MOL0     H49110   1.738   2.973   2.673  0.7348 -0.2953 -0.5668
  364MOL0     H49111   1.716   3.111   2.792 -2.1901 -0.3103 -3.7315
  364MOL0     H49112   1.727   2.922   2.973 -1.9990 -3.0039  0.7393
  364MOL0     H49113   1.571   2.942   2.877  0.0869  1.9490  1.2602
  364MOL0     H49114   1.791   2.756   2.817 -0.8694 -3.4909  0.0501
  364MOL0     H49115   1.631   2.761   2.744 -1.2644  0.1174  0.3912
  364MOL0     H49116   1.535   2.709   2.962  0.4871  1.4151 -0.2226
  364MOL0     H49117   1.612   2.581   2.862  2.1788  0.5462 -0.8576
  364MOL0     H49118   1.754   2.724   3.090 -0.3384 -0.0082 -0.8995
  364MOL0     H49119   1.808   2.585   2.995  0.6877  0.1036 -0.6775
  364MOL0     H49120   1.569   2.561   3.187 -0.2522  0.5260 -2.9562
  364MOL0     H49121   1.742   2.520   3.239  1.5119 -0.0764 -0.8626
  364MOL0     H49122   1.931   3.041   2.306 -1.9475  0.3216  0.1216
  364MOL0     H49123   1.961   3.181   2.115  1.6886  2.9868 -1.0888
  364MOL0     H49124   2.184   3.822   2.121 -1.6083 -0.1338 -0.2316
  364MOL0     H49125   2.194   3.967   1.939 -0.5501  0.0081 -1.8366
  364MOL0     H49126   2.445   3.966   0.676 -1.3391 -1.7948 -2.8517
  364MOL0     H49127   2.648   3.835   0.697  2.1320 -1.8110 -1.7232
  364MOL0     H49128   3.064   3.707   0.408 -0.6649 -1.6989 -2.6398
  364MOL0     H49129   3.140   3.493   0.329  0.6704  0.4862  0.8361
  364MOL0     H49130   3.069   3.119   0.590 -1.2769  1.7837 -0.6508
  364MOL0     H49131   2.920   3.148   0.507  0.6556  2.4888  1.6638
  364MOL0     H49132   3.025   3.049   0.300 -2.8580  0.6253  0.6019
  364MOL0     H49133   2.990   2.929   0.437  0.8463  0.3864  2.0819
  364MOL0     H49134   3.226   2.883   0.416  3.1314 -0.3935 -2.1157
  364MOL0     H49135   3.261   3.045   0.488 -1.5733  3.1366 -1.1043
  364MOL0     H49136   3.248   3.154   0.255 -0.7117  0.2474  0.0508
  364MOL0     H49137   3.226   2.985   0.196 -1.7981  0.0514  1.9586
  364MOL0     H49138   3.639   2.956   0.301  0.2121  1.0744  1.0914
  364MOL0     H49139   2.904   3.303   0.645 -0.5491 -0.9951 -2.0521
  364MOL0     H49140   2.846   3.527   0.732 -0.9778  0.2288  0.1519
  365MOL0     O49141  10.383   6.113   1.729  0.1252 -1.0951 -0.0277
  365MOL0     C49142  10.401   6.149   1.845  0.0223 -0.1991  0.1428
  365MOL0     O49143  10.507   6.099   1.920  0.5723 -0.0455 -0.0719
  365MOL0     C49144  10.567   5.987   1.880 -0.9397  0.8286  0.6497
  365MOL0     C49145  10.500   5.860   1.861 -0.1900 -1.0289 -0.2691
  365MOL0     C49146  10.573   5.753   1.806 -0.5545 -0.5935 -1.4505
  365MOL0     C49147  10.707   5.766   1.766 -0.2703 -0.9334  0.5132
  365MOL0     O49148  10.781   5.670   1.696  0.2334 -0.6457  0.0708
  365MOL0     C49149  10.716   5.574   1.618 -0.2231  0.2129 -0.5055
  365MOL0     C49150  10.804   5.515   1.511 -0.0259 -0.2692  0.5969
  365MOL0     C49151  10.823   5.609   1.387 -0.7143  0.0442 -0.6259
  365MOL0     C49152  10.866   5.529   1.267 -0.5975 -0.1227 -0.2503
  365MOL0     C49153  10.889   5.618   1.147 -1.1326 -0.9488 -0.1193
  365MOL0     C49154  10.934   5.536   1.013 -0.3349  0.3994  0.0188
  365MOL0     C49155  10.937   5.615   0.887  0.2509  0.9015 -0.2725
  365MOL0     C49156  11.059   5.705   0.880  0.1810  0.5350  0.4100
  365MOL0     N49157  11.187   5.633   0.884  0.1443 -0.1022 -0.0421
  365MOL0     C49158  11.284   5.639   0.974  0.0096  0.0091  0.2653
  365MOL0     C49159  11.383   5.571   0.923 -0.2352  0.7032 -0.7966
  365MOL0     C49160  11.524   5.556   0.976 -0.2499 -0.6447  0.6882
  365MOL0     C49161  11.538   5.453   1.092 -1.4579  0.4549  0.4673
  365MOL0     C49162  11.681   5.393   1.095  0.9940  0.8464 -0.5391
  365MOL0     C49163  11.788   5.499   1.141 -0.2218  0.4562  0.1540
  365MOL0     O49164  11.775   5.533   1.277  0.1057 -0.5578  0.1925
  365MOL0     C49165  11.836   5.639   1.342 -0.8305 -0.1879  0.0419
  365MOL0     C49166  11.917   5.734   1.281  0.7279  0.0464  0.8680
  365MOL0     C49167  11.968   5.852   1.341  0.1546 -0.1018  0.1285
  365MOL0     C49168  12.054   5.951   1.257  1.4984 -0.6232  0.8281
  365MOL0     C49169  11.946   5.871   1.479 -0.6315  0.5427 -0.5759
  365MOL0     C49170  11.995   5.979   1.568 -0.1785 -1.2607  0.2635
  365MOL0     O49171  11.937   5.981   1.698 -0.0821 -0.1875 -0.1140
  365MOL0     C49172  11.938   6.086   1.788  0.5750  0.2556  0.6600
  365MOL0     C49173  11.901   6.052   1.919  0.5053  0.3432  0.2308
  365MOL0     C49174  11.892   6.148   2.019  0.0430  0.3308  0.9248
  365MOL0     C49175  11.934   6.286   1.989  0.9487  0.3440 -0.6603
  365MOL0     O49176  11.896   6.390   2.075 -0.7881 -0.0260 -0.2778
  365MOL0     C49177  12.013   6.471   2.098  0.9662 -0.2109 -0.4108
  365MOL0     C49178  12.141   6.409   2.156  0.3234 -0.0018  1.0768
  365MOL0     C49179  12.272   6.496   2.135 -0.1932 -0.3527 -0.2431
  365MOL0     C49180  12.392   6.421   2.181 -0.6946 -0.5677 -0.1769
  365MOL0     C49181  12.520   6.506   2.207 -0.1129 -0.0832  0.4687
  365MOL0     C49182  12.578   6.572   2.075 -0.0445 -0.6064 -1.1995
  365MOL0     C49183  12.703   6.642   2.114 -0.2224 -0.5593 -0.1309
  365MOL0     C49184  12.742   6.739   2.006  0.9018 -0.3785 -0.1926
  365MOL0    Cl49185  12.841   6.859   2.091 -0.1803 -0.1242  0.4929
  365MOL0     C49186  11.980   6.313   1.855 -0.1479  0.3047 -0.6029
  365MOL0     C49187  11.977   6.214   1.759  0.9037 -0.2442  0.5351
  365MOL0     O49188  12.076   6.064   1.528  0.0909 -0.1586  0.2731
  365MOL0     C49189  11.874   5.767   1.550  0.6545 -0.8103  0.1708
  365MOL0     C49190  11.811   5.657   1.474 -0.7071 -0.5395 -0.4752
  365MOL0     N49191  11.354   5.513   0.811  1.0591  0.1697  0.6647
  365MOL0     N49192  11.230   5.551   0.781  0.4974 -0.5394  0.4116
  365MOL0     C49193  10.770   5.886   1.799  0.2546  0.2644 -0.1535
  365MOL0     C49194  10.704   5.990   1.861  0.4132  0.5567 -0.1414
  365MOL0     C49195  10.316   6.255   1.894  0.3979 -0.9635 -0.2754
  365MOL0     C49196  10.181   6.268   1.849  0.8561  0.0753  0.0704
  365MOL0     C49197  10.098   6.376   1.904 -0.6955  0.3099 -0.7189
  365MOL0     C49198  10.151   6.478   1.976  0.1537  0.2841 -0.3090
  365MOL0     O49199  10.065   6.587   1.993  0.6593  0.0036  0.1987
  365MOL0     C49200  10.130   6.716   2.008  0.2290  0.7046  0.3197
  365MOL0     C49201  10.046   6.844   1.964  0.6526 -0.3944  0.5849
  365MOL0     C49202  10.088   6.924   1.838  0.3367 -0.7409 -0.5375
  365MOL0     C49203  10.035   7.074   1.840  0.5467  1.1328  0.3231
  365MOL0     C49204   9.888   7.061   1.861 -0.3197  0.2355 -0.8237
  365MOL0     C49205   9.773   7.063   1.899 -0.2704 -0.4465 -0.0633
  365MOL0     C49206  10.285   6.479   2.004 -0.5586 -0.5808 -0.3582
  365MOL0     C49207  10.361   6.364   1.985  0.4219  0.2144  0.2923
  365MOL0     H49208  10.394   5.851   1.882 -0.7449  1.9524 -1.2403
  365MOL0     H49209  10.523   5.656   1.808 -2.3778  0.3013  1.0637
  365MOL0     H49210  10.689   5.488   1.680 -2.2628 -0.5147 -2.2854
  365MOL0     H49211  10.621   5.610   1.577  0.3671 -0.5511 -2.6760
  365MOL0     H49212  10.898   5.493   1.561  0.7445 -0.7719 -1.0156
  365MOL0     H49213  10.760   5.421   1.477  3.2419 -2.7286  2.6066
  365MOL0     H49214  10.725   5.655   1.368 -1.3073 -0.6732  0.5566
  365MOL0     H49215  10.897   5.686   1.410 -0.6878 -0.0186 -0.5020
  365MOL0     H49216  10.969   5.496   1.286 -0.2539  1.6922  1.4959
  365MOL0     H49217  10.801   5.445   1.240 -0.2566  0.2668 -2.4616
  365MOL0     H49218  10.795   5.670   1.127 -0.7770 -1.6774 -4.7515
  365MOL0     H49219  10.970   5.687   1.170 -1.7419 -0.3358  0.2325
  365MOL0     H49220  11.024   5.474   1.016  0.9735  2.2527  0.6878
  365MOL0     H49221  10.844   5.474   1.001 -0.9662  1.5266 -1.2753
  365MOL0     H49222  10.943   5.545   0.804 -1.3335 -1.5633  1.5419
  365MOL0     H49223  10.852   5.684   0.879  1.5326  2.5687 -0.0603
  365MOL0     H49224  11.048   5.780   0.960  1.1195  2.0077 -0.7969
  365MOL0     H49225  11.055   5.767   0.790  1.6416  1.2726  0.8309
  365MOL0     H49226  11.298   5.699   1.063 -2.5497  2.4470 -0.8322
  365MOL0     H49227  11.582   5.506   0.898  0.1327 -0.8631  1.1062
  365MOL0     H49228  11.568   5.652   1.006 -1.0346 -1.1562  3.8451
  365MOL0     H49229  11.473   5.367   1.072  0.3480 -1.1664  1.2811
  365MOL0     H49230  11.526   5.493   1.193  1.2855  0.4183  0.8721
  365MOL0     H49231  11.709   5.347   0.999  2.2858  0.3641  0.0455
  365MOL0     H49232  11.685   5.311   1.167  1.3780  2.1947  1.0419
  365MOL0     H49233  11.790   5.585   1.073 -0.5508  1.4606  1.3725
  365MOL0     H49234  11.891   5.463   1.129  0.0754  1.9746 -3.1827
  365MOL0     H49235  11.956   5.700   1.185  1.0195 -0.5030  1.1810
  365MOL0     H49236  12.002   6.047   1.249  3.2279  0.1892 -2.2365
  365MOL0     H49237  12.151   5.975   1.300  0.9827  2.4222  0.5059
  365MOL0     H49238  12.066   5.907   1.157 -0.5250  0.2303  0.1505
  365MOL0     H49239  11.876   5.952   1.951 -1.4677  1.3484  2.1320
  365MOL0     H49240  11.858   6.120   2.118  0.2097 -0.8879  0.6422
  365MOL0     H49241  12.042   6.531   2.012  1.6895  1.4159  0.9064
  365MOL0     H49242  11.977   6.539   2.176 -1.4970 -2.9894  1.0914
  365MOL0     H49243  12.145   6.382   2.262  1.5444 -1.9823  0.5891
  365MOL0     H49244  12.171   6.315   2.109  0.0121 -0.7821  2.3593
  365MOL0     H49245  12.271   6.589   2.192  1.8463 -0.6387  0.3236
  365MOL0     H49246  12.267   6.522   2.029 -1.3780 -1.7735 -0.5591
  365MOL0     H49247  12.369   6.375   2.278  0.5899 -0.5780  0.1397
  365MOL0     H49248  12.429   6.351   2.105  2.9715  3.7405 -2.8365
  365MOL0     H49249  12.588   6.428   2.244 -0.6446  0.5045  2.8585
  365MOL0     H49250  12.500   6.577   2.288 -0.3332 -2.6289  2.7972
  365MOL0     H49251  12.606   6.492   2.005  2.3177 -1.6953  0.8314
  365MOL0     H49252  12.505   6.646   2.040  0.2092  0.2399  0.0130
  365MOL0     H49253  12.784   6.572   2.134  0.9096  0.5256 -0.7680
  365MOL0     H49254  12.709   6.704   2.204  3.6580  0.6444 -1.0101
  365MOL0     H49255  12.657   6.801   1.974 -0.8543 -2.5598  0.0551
  365MOL0     H49256  12.782   6.681   1.922  1.1634  1.3631 -1.3479
  365MOL0     H49257  11.997   6.417   1.827 -0.5700  0.7156  0.5838
  365MOL0     H49258  12.008   6.244   1.659  1.6241 -1.4610  0.3651
  365MOL0     H49259  11.874   5.774   1.658  2.4960  0.5886  0.1177
  365MOL0     H49260  11.768   5.570   1.522  0.0222 -0.8059 -0.3006
  365MOL0     H49261  10.869   5.898   1.757  0.0244 -1.0495 -1.1430
  365MOL0     H49262  10.766   6.079   1.863  1.0177  0.1297  1.4894
  365MOL0     H49263  10.135   6.198   1.781  0.6737 -1.9002  2.1283
  365MOL0     H49264   9.996   6.408   1.882  0.1490  2.9047 -1.2120
  365MOL0     H49265  10.161   6.721   2.112  0.5646 -1.3497  0.3501
  365MOL0     H49266  10.214   6.720   1.937  0.4025 -0.1418  0.4762
  365MOL0     H49267  10.043   6.916   2.046  1.8466  0.2484  0.0961
  365MOL0     H49268   9.943   6.814   1.943 -1.4258  3.2383  4.1404
  365MOL0     H49269  10.033   6.879   1.755 -2.7950  3.4036 -0.9843
  365MOL0     H49270  10.196   6.919   1.820  0.5180  0.9677 -0.0914
  365MOL0     H49271  10.046   7.118   1.741  1.6737 -3.5879 -1.9262
  365MOL0     H49272  10.101   7.124   1.911  1.4687 -2.3439  2.1588
  365MOL0     H49273   9.677   7.063   1.946  0.4015  0.7672  1.3956
  365MOL0     H49274  10.328   6.546   2.078 -1.1263  0.3597 -0.8552
  365MOL0     H49275  10.464   6.352   2.019  0.6511  3.1199  0.8622
  366MOL0     O49276   4.885   4.214   3.629  0.7070  0.1605  0.5382
  366MOL0     C49277   4.846   4.124   3.555 -0.1764 -0.3458  0.2403
  366MOL0     O49278   4.839   4.137   3.423 -0.0299 -0.2318  0.1974
  366MOL0     C49279   4.819   4.263   3.365  0.4261  0.4685 -0.1763
  366MOL0     C49280   4.919   4.359   3.365 -0.1134 -0.3627  0.9643
  366MOL0     C49281   4.897   4.485   3.305 -0.1678  0.9941  0.2712
  366MOL0     C49282   4.771   4.511   3.245  0.8100  0.2899 -0.1506
  366MOL0     O49283   4.746   4.632   3.189 -0.3567 -0.6362 -0.2102
  366MOL0     C49284   4.824   4.745   3.233  0.3673  0.1606 -0.0935
  366MOL0     C49285   4.768   4.875   3.171  0.1886  0.5004 -0.0823
  366MOL0     C49286   4.839   5.005   3.216 -0.5232  0.4731  0.0046
  366MOL0     C49287   4.761   5.127   3.169 -0.1646  0.5067  0.6917
  366MOL0     C49288   4.840   5.258   3.205  0.1364 -0.7553  0.2964
  366MOL0     C49289   4.774   5.386   3.161  0.3796 -0.6776  0.8033
  366MOL0     C49290   4.831   5.509   3.239  0.9497 -0.3638 -0.9366
  366MOL0     C49291   4.978   5.551   3.225 -0.1536 -0.3318 -0.7330
  366MOL0     N49292   5.018   5.608   3.104 -0.4076 -0.8354 -0.1102
  366MOL0     C49293   4.995   5.563   2.977 -0.6175  0.2987  0.2380
  366MOL0     C49294   5.065   5.643   2.889 -0.5916  0.5556 -0.9630
  366MOL0     C49295   5.053   5.629   2.740 -0.4848 -0.5222 -0.3450
  366MOL0     C49296   4.989   5.757   2.676  0.4646 -0.2797  0.4173
  366MOL0     C49297   4.831   5.738   2.645 -0.2666 -0.0714  0.3212
  366MOL0     C49298   4.815   5.768   2.490 -0.2276 -0.0194  0.1264
  366MOL0     O49299   4.884   5.671   2.399 -0.0762 -0.1994 -0.1172
  366MOL0     C49300   4.873   5.711   2.266 -0.3756  0.1757 -0.3248
  366MOL0     C49301   4.909   5.620   2.169  0.5781  0.0490  0.1559
  366MOL0     C49302   4.912   5.645   2.037 -0.4982 -0.1752 -0.0426
  366MOL0     C49303   4.955   5.521   1.955  0.0327  0.1558 -0.0208
  366MOL0     C49304   4.898   5.775   1.989 -0.1882 -1.1305  1.1980
  366MOL0     C49305   4.899   5.808   1.839  1.1557 -0.0542  0.4724
  366MOL0     O49306   4.850   5.931   1.810 -0.2441  0.1522  0.7652
  366MOL0     C49307   4.867   5.975   1.681  1.1641 -0.4777 -0.7880
  366MOL0     C49308   4.755   5.967   1.599  0.3089  0.4318  0.2961
  366MOL0     C49309   4.772   5.999   1.466  0.4323  0.1429 -0.2824
  366MOL0     C49310   4.890   6.054   1.413  0.2137  0.4228 -0.0167
  366MOL0     O49311   4.907   6.080   1.282  0.1842  0.4536  0.0116
  366MOL0     C49312   4.816   6.032   1.176 -0.3820  0.2935 -0.7939
  366MOL0     C49313   4.826   5.876   1.151 -0.0994  1.1376  0.3803
  366MOL0     C49314   4.698   5.831   1.066 -0.8934  0.0806 -0.3241
  366MOL0     C49315   4.701   5.696   1.012  0.2512  0.2990 -1.1446
  366MOL0     C49316   4.594   5.687   0.909 -0.2008 -0.1642  0.3782
  366MOL0     C49317   4.454   5.703   0.962 -0.4280  0.0040  0.2374
  366MOL0     C49318   4.393   5.579   1.036  1.0276  0.4256  0.0759
  366MOL0     C49319   4.246   5.586   1.073 -0.1706 -0.6479  0.3393
  366MOL0    Cl49320   4.178   5.419   1.081  0.2543  0.0551  0.2374
  366MOL0     C49321   4.996   6.069   1.501 -0.4484 -0.5156 -0.1084
  366MOL0     C49322   4.986   6.021   1.636  0.2281 -0.7659  0.4230
  366MOL0     O49323   4.950   5.726   1.763  0.8591  1.2446 -0.6841
  366MOL0     C49324   4.847   5.870   2.080 -1.0407  0.4364  0.6288
  366MOL0     C49325   4.842   5.844   2.224  0.9538  0.6792 -0.0181
  366MOL0     N49326   5.128   5.737   2.962  0.0383 -0.5604 -0.4146
  366MOL0     N49327   5.107   5.714   3.095 -0.0007 -1.5359  0.9237
  366MOL0     C49328   4.670   4.415   3.265 -0.1619 -0.2970  1.0283
  366MOL0     C49329   4.693   4.284   3.324 -0.5060 -0.5555 -0.0479
  366MOL0     C49330   4.775   4.011   3.615 -0.1108 -0.2810  0.4570
  366MOL0     C49331   4.678   3.943   3.534  0.6289 -0.4246 -0.0680
  366MOL0     C49332   4.594   3.851   3.597 -0.0354 -1.0314 -0.2346
  366MOL0     C49333   4.601   3.811   3.730 -0.4687 -1.9247  1.0206
  366MOL0     O49334   4.519   3.721   3.790 -0.6638  0.0727 -0.5997
  366MOL0     C49335   4.423   3.638   3.709  0.2340 -0.9770 -0.0683
  366MOL0     C49336   4.298   3.723   3.671  0.6347  0.2949  0.2020
  366MOL0     C49337   4.235   3.648   3.548  0.4546  0.6037 -0.1467
  366MOL0     C49338   4.171   3.505   3.594 -0.0081  0.1873 -0.1882
  366MOL0     C49339   4.051   3.475   3.523  1.0176  0.7219 -0.5584
  366MOL0     C49340   3.944   3.437   3.471  0.0382  0.1604  0.4502
  366MOL0     C49341   4.699   3.874   3.800 -0.2430  1.2439  0.0642
  366MOL0     C49342   4.781   3.976   3.750  0.7937  0.1875 -0.0162
  366MOL0     H49343   5.011   4.344   3.421 -0.5986  3.5884  3.1332
  366MOL0     H49344   4.988   4.545   3.298  0.7458 -0.2894  0.8048
  366MOL0     H49345   4.813   4.756   3.341  0.7066 -2.2265  0.2487
  366MOL0     H49346   4.930   4.732   3.206  0.1355 -0.2800 -0.8443
  366MOL0     H49347   4.768   4.866   3.062  4.3631  0.2190 -0.1984
  366MOL0     H49348   4.666   4.886   3.209  1.0268  0.5845  2.3220
  366MOL0     H49349   4.850   4.997   3.324 -2.7488  1.7051  0.4007
  366MOL0     H49350   4.942   5.004   3.179 -0.3783 -1.4947  0.3831
  366MOL0     H49351   4.747   5.123   3.060 -0.7833 -3.7242  0.7696
  366MOL0     H49352   4.664   5.126   3.218  0.0918  1.7267  1.2660
  366MOL0     H49353   4.866   5.270   3.310 -0.7883  2.3400  0.2749
  366MOL0     H49354   4.938   5.237   3.161  0.0074  2.2780 -1.7525
  366MOL0     H49355   4.791   5.405   3.054 -3.3230 -0.2102  0.1781
  366MOL0     H49356   4.666   5.390   3.176 -0.1659 -1.9742 -2.1066
  366MOL0     H49357   4.774   5.601   3.221  2.2324  0.6942  0.1191
  366MOL0     H49358   4.811   5.465   3.337 -1.2270  0.1240 -1.1024
  366MOL0     H49359   5.036   5.459   3.236 -1.8533 -1.2084  1.6176
  366MOL0     H49360   4.998   5.619   3.308  3.0797 -1.8009 -0.1514
  366MOL0     H49361   4.938   5.476   2.945  0.0097 -0.7654  1.8689
  366MOL0     H49362   5.159   5.623   2.717  0.1780 -2.1451  2.6266
  366MOL0     H49363   5.000   5.538   2.711  0.3118 -1.7449  1.7806
  366MOL0     H49364   5.039   5.784   2.582 -1.2028  3.4819  0.4090
  366MOL0     H49365   4.998   5.850   2.733 -0.3454 -1.8043  3.1673
  366MOL0     H49366   4.778   5.808   2.710  3.0464  3.1785 -0.0738
  366MOL0     H49367   4.806   5.636   2.673 -1.6863  0.6430  1.8134
  366MOL0     H49368   4.865   5.865   2.477  0.8240 -0.8491 -2.8663
  366MOL0     H49369   4.706   5.761   2.482 -0.0883 -3.7317 -0.1514
  366MOL0     H49370   4.918   5.521   2.213 -2.8332 -0.7018 -0.5426
  366MOL0     H49371   4.952   5.435   2.023 -2.6548  0.2049  0.0485
  366MOL0     H49372   4.896   5.494   1.867  0.0711  0.6407 -0.1994
  366MOL0     H49373   5.057   5.545   1.926  0.6439 -1.8598  0.2930
  366MOL0     H49374   4.663   5.928   1.641 -0.3060  1.5824  0.0506
  366MOL0     H49375   4.689   5.980   1.399  1.0659  0.8504 -1.2817
  366MOL0     H49376   4.716   6.070   1.196 -0.1922 -0.3183  1.6476
  366MOL0     H49377   4.852   6.079   1.084  2.7507 -1.3781 -0.5593
  366MOL0     H49378   4.918   5.858   1.094 -0.7999 -2.0679  0.0778
  366MOL0     H49379   4.834   5.809   1.237  1.5358 -0.0061 -0.6067
  366MOL0     H49380   4.669   5.908   0.994 -1.8283  0.6396  0.6221
  366MOL0     H49381   4.614   5.841   1.135 -0.6140 -0.8392  0.1542
  366MOL0     H49382   4.794   5.678   0.957  0.9525  0.8372 -0.1549
  366MOL0     H49383   4.694   5.624   1.095 -4.2428  1.6411 -0.0794
  366MOL0     H49384   4.599   5.588   0.862 -2.5140 -0.5164  0.7692
  366MOL0     H49385   4.612   5.761   0.830  0.7200 -0.7076  0.0596
  366MOL0     H49386   4.437   5.795   1.018 -1.0543 -0.1577  0.3187
  366MOL0     H49387   4.396   5.710   0.869  2.1543  0.9768 -1.4203
  366MOL0     H49388   4.458   5.580   1.124  0.1085  1.5433  0.7670
  366MOL0     H49389   4.409   5.481   0.989  0.1550  0.4098 -0.2060
  366MOL0     H49390   4.188   5.648   1.004 -0.0785 -1.1920 -0.2336
  366MOL0     H49391   4.243   5.639   1.168  2.7049 -0.3665  0.3391
  366MOL0     H49392   5.083   6.118   1.461 -1.3140  0.5034 -0.7795
  366MOL0     H49393   5.070   6.017   1.704 -0.1301  3.3023  1.4097
  366MOL0     H49394   4.831   5.969   2.036  1.9227  0.4478 -0.6816
  366MOL0     H49395   4.800   5.927   2.280  0.9045  1.4875 -1.2026
  366MOL0     H49396   4.572   4.449   3.234  1.1685  3.3945  0.4075
  366MOL0     H49397   4.612   4.215   3.345  0.3405 -2.2049 -1.9917
  366MOL0     H49398   4.671   3.950   3.426 -2.3297 -0.1007  0.0447
  366MOL0     H49399   4.536   3.794   3.525  2.2921 -2.1012 -1.3484
  366MOL0     H49400   4.481   3.608   3.621  3.2355  0.6384  1.2069
  366MOL0     H49401   4.400   3.551   3.771  0.5808 -1.6719 -0.9093
  366MOL0     H49402   4.316   3.829   3.650  0.9442  0.4265  1.0745
  366MOL0     H49403   4.235   3.718   3.760  0.3838  0.7484  0.0505
  366MOL0     H49404   4.307   3.623   3.470 -0.0865 -1.4297 -0.0651
  366MOL0     H49405   4.156   3.707   3.502  0.3572  3.1462  2.9121
  366MOL0     H49406   4.153   3.515   3.701  0.0906  3.9541 -0.4009
  366MOL0     H49407   4.251   3.432   3.575  0.8497  1.3590 -1.2916
  366MOL0     H49408   3.853   3.404   3.426  0.8577 -2.8509  0.7293
  366MOL0     H49409   4.705   3.839   3.902 -2.3150 -1.5913 -0.6682
  366MOL0     H49410   4.862   4.006   3.816  2.8288 -1.3348 -1.6840
  367MOL0     O49411   6.831   8.279   9.951  0.1205 -0.0235 -0.1583
  367MOL0     C49412   6.889   8.314  10.054 -0.9696 -0.3382 -0.5957
  367MOL0     O49413   6.829   8.362  10.162 -0.2342  0.0561 -0.2128
  367MOL0     C49414   6.685   8.379  10.147  0.1651 -0.0336 -0.2657
  367MOL0     C49415   6.591   8.271  10.157  0.9799 -0.1076 -0.4830
  367MOL0     C49416   6.448   8.292  10.149 -0.7862  0.5017  0.2281
  367MOL0     C49417   6.407   8.423  10.104 -0.5412 -0.1769  0.2404
  367MOL0     O49418   6.270   8.454  10.092 -0.1259 -0.0261 -0.1179
  367MOL0     C49419   6.241   8.450   9.954  0.4163  0.3009 -1.3518
  367MOL0     C49420   6.089   8.471   9.939  0.3905 -0.0676  0.0883
  367MOL0     C49421   6.032   8.401   9.810  0.3242  0.8208  0.1434
  367MOL0     C49422   5.875   8.421   9.801  0.7777  1.6739  0.6832
  367MOL0     C49423   5.805   8.359   9.678 -0.4990  0.8486 -0.3690
  367MOL0     C49424   5.666   8.416   9.654 -0.4472  0.0301 -0.8823
  367MOL0     C49425   5.636   8.403   9.511  0.5869 -0.5577 -0.1968
  367MOL0     C49426   5.640   8.251   9.458  0.1673 -0.5466 -1.1468
  367MOL0     N49427   5.516   8.170   9.485  1.4214  0.4813  0.6341
  367MOL0     C49428   5.424   8.130   9.389 -1.1808  0.6689 -0.6716
  367MOL0     C49429   5.317   8.073   9.459  0.4483 -0.5770  0.0838
  367MOL0     C49430   5.214   8.023   9.369  0.2909 -0.0974 -0.2419
  367MOL0     C49431   5.196   7.874   9.398 -0.8846  1.4253  0.7079
  367MOL0     C49432   5.080   7.794   9.336 -0.2452 -0.4481  0.4844
  367MOL0     C49433   4.986   7.873   9.257 -0.8252  0.6255  0.0981
  367MOL0     O49434   4.864   7.811   9.265 -0.3310  0.0250 -0.4529
  367MOL0     C49435   4.816   7.725   9.165  0.0835 -0.2118 -0.1222
  367MOL0     C49436   4.761   7.607   9.209 -0.5194  0.1436  0.0962
  367MOL0     C49437   4.694   7.526   9.115  0.9838  0.5397 -0.4448
  367MOL0     C49438   4.595   7.420   9.172  0.3225  0.1451  0.2386
  367MOL0     C49439   4.685   7.553   8.976 -0.2270 -0.5188 -0.1560
  367MOL0     C49440   4.609   7.476   8.860  0.3399 -0.7151 -0.4302
  367MOL0     O49441   4.553   7.556   8.766  0.0782 -0.0026 -0.0936
  367MOL0     C49442   4.496   7.492   8.657  0.0563  0.4686  0.4254
  367MOL0     C49443   4.376   7.408   8.680 -0.6003  1.0069  0.6247
  367MOL0     C49444   4.311   7.352   8.569  0.1123  0.8953  0.2850
  367MOL0     C49445   4.363   7.365   8.439  0.0110 -0.1014 -0.6093
  367MOL0     O49446   4.304   7.287   8.344  0.0627  0.9213 -0.6155
  367MOL0     C49447   4.172   7.239   8.366 -0.9132  0.6314  0.0276
  367MOL0     C49448   4.094   7.214   8.243 -0.1342  0.2795  0.7410
  367MOL0     C49449   3.942   7.218   8.279  0.3077  0.8343 -0.1624
  367MOL0     C49450   3.897   7.077   8.330  1.0760  0.4179 -0.8137
  367MOL0     C49451   3.750   7.084   8.365  0.4476 -0.1647 -0.4722
  367MOL0     C49452   3.689   6.956   8.412 -0.2617 -0.2447  0.3298
  367MOL0     C49453   3.545   6.970   8.437  0.0455  1.5848 -0.8507
  367MOL0     C49454   3.472   6.872   8.538 -0.5973 -1.3603 -0.2811
  367MOL0    Cl49455   3.476   6.707   8.495 -0.5525 -0.1103  0.4322
  367MOL0     C49456   4.478   7.442   8.416  0.5071  0.7786  0.1664
  367MOL0     C49457   4.544   7.508   8.525  0.2363  0.6360  0.1318
  367MOL0     O49458   4.576   7.362   8.879 -0.1504  0.6353  0.5702
  367MOL0     C49459   4.749   7.672   8.938  0.5301  0.3072 -0.1709
  367MOL0     C49460   4.802   7.767   9.027  0.1124  0.2563  0.4949
  367MOL0     N49461   5.342   8.084   9.597  1.2203 -0.2421  0.0462
  367MOL0     N49462   5.449   8.156   9.603  0.1490  0.2828 -0.0257
  367MOL0     C49463   6.500   8.525  10.099  0.7881 -0.7385  0.2740
  367MOL0     C49464   6.635   8.505  10.124  0.4486  0.1423 -0.6075
  367MOL0     C49465   7.037   8.291  10.055  0.5801  0.8542  0.1706
  367MOL0     C49466   7.103   8.196   9.966 -0.4931  0.6015 -0.9216
  367MOL0     C49467   7.236   8.170   9.985  0.7893 -0.0005 -0.3840
  367MOL0     C49468   7.320   8.254  10.068  0.1479 -0.0428  0.0588
  367MOL0     O49469   7.446   8.224  10.096 -0.6097  0.3221 -0.3301
  367MOL0     C49470   7.463   8.100  10.170  0.4137 -0.2476 -0.3712
  367MOL0     C49471   7.511   8.132  10.314 -0.3496 -0.1223  0.6792
  367MOL0     C49472   7.405   8.113  10.420 -0.4484 -0.1306  0.1283
  367MOL0     C49473   7.459   8.125  10.564  0.1906 -0.6876  0.1504
  367MOL0     C49474   7.493   7.989  10.615 -0.4357  0.2126 -0.5192
  367MOL0     C49475   7.538   7.882  10.657  0.6166 -1.1340  0.2592
  367MOL0     C49476   7.258   8.354  10.128 -0.0506 -0.7877 -1.0841
  367MOL0     C49477   7.123   8.371  10.138  0.4614  0.1056  0.2808
  367MOL0     H49478   6.632   8.173  10.180  3.7022  1.0352 -0.0464
  367MOL0     H49479   6.372   8.220  10.175 -2.3925  2.7443  2.2786
  367MOL0     H49480   6.287   8.534   9.902  0.3714  0.8905 -0.4630
  367MOL0     H49481   6.263   8.355   9.904 -1.1546 -0.3203 -0.9272
  367MOL0     H49482   6.043   8.429  10.028  1.6837 -0.4330  0.6114
  367MOL0     H49483   6.066   8.578   9.933 -1.7220 -0.4411  0.6681
  367MOL0     H49484   6.101   8.431   9.731  1.6747 -1.2693  0.4495
  367MOL0     H49485   6.032   8.292   9.801 -1.9044  0.9582 -3.0403
  367MOL0     H49486   5.844   8.368   9.892  2.8635 -0.8256  0.0607
  367MOL0     H49487   5.859   8.528   9.813  0.2661  1.5649  1.0315
  367MOL0     H49488   5.863   8.385   9.588 -2.3854  0.8811 -1.6303
  367MOL0     H49489   5.806   8.250   9.692 -2.2979  0.8991  0.3528
  367MOL0     H49490   5.592   8.362   9.713  0.9105 -1.9863 -0.9406
  367MOL0     H49491   5.666   8.523   9.675 -0.5130  0.1862 -1.6328
  367MOL0     H49492   5.532   8.435   9.499  0.4070 -1.5887 -1.5569
  367MOL0     H49493   5.690   8.467   9.440  0.0044  1.4154  1.0231
  367MOL0     H49494   5.716   8.185   9.502 -2.3670 -2.7914  0.2087
  367MOL0     H49495   5.657   8.263   9.351  3.7069 -0.0095 -0.6709
  367MOL0     H49496   5.443   8.145   9.283  1.3470  2.1863 -0.0895
  367MOL0     H49497   5.119   8.076   9.384 -0.2861  1.0418 -5.7551
  367MOL0     H49498   5.256   8.030   9.268 -0.9784  1.0702 -0.7171
  367MOL0     H49499   5.190   7.866   9.506  0.9550 -0.4382  0.7427
  367MOL0     H49500   5.292   7.821   9.392 -0.1914  2.5225  1.7644
  367MOL0     H49501   5.029   7.752   9.422 -1.8426 -0.9323 -0.6554
  367MOL0     H49502   5.109   7.709   9.274 -1.6650  0.2893 -1.3057
  367MOL0     H49503   5.016   7.876   9.152 -0.7743 -0.4879  0.0697
  367MOL0     H49504   4.970   7.974   9.295  5.4215  1.7639  0.8063
  367MOL0     H49505   4.778   7.592   9.316 -0.4442  0.0179  0.0660
  367MOL0     H49506   4.495   7.452   9.141 -0.1596 -1.3545  0.1183
  367MOL0     H49507   4.622   7.321   9.134  0.9538 -0.0965  1.2749
  367MOL0     H49508   4.589   7.410   9.281 -1.4316 -2.5621 -0.0038
  367MOL0     H49509   4.334   7.387   8.778 -1.1300  2.4821  0.7320
  367MOL0     H49510   4.236   7.284   8.608 -0.8448  0.8305 -1.5553
  367MOL0     H49511   4.179   7.149   8.428 -0.9384 -0.0656 -0.9714
  367MOL0     H49512   4.112   7.309   8.425  2.1770  1.9381  1.9184
  367MOL0     H49513   4.109   7.292   8.169  3.3622 -1.9123 -1.1407
  367MOL0     H49514   4.121   7.124   8.187  1.9317  2.9251 -2.9656
  367MOL0     H49515   3.885   7.244   8.189 -0.5979 -0.2065  0.0791
  367MOL0     H49516   3.926   7.297   8.352 -0.3116 -0.6084  1.3403
  367MOL0     H49517   3.924   6.999   8.258  3.0685 -2.7545  2.9633
  367MOL0     H49518   3.948   7.051   8.422  0.5378 -0.8806 -0.8599
  367MOL0     H49519   3.696   7.128   8.280  0.0570 -0.5403 -0.4205
  367MOL0     H49520   3.739   7.157   8.446  0.2600  0.5407 -1.1131
  367MOL0     H49521   3.706   6.875   8.340 -0.6365  1.1394 -1.3729
  367MOL0     H49522   3.732   6.932   8.510 -1.9896 -0.2688  1.1229
  367MOL0     H49523   3.491   6.964   8.342  1.2064  0.5801 -1.4767
  367MOL0     H49524   3.526   7.067   8.483 -1.6366  0.1660  1.7487
  367MOL0     H49525   3.366   6.895   8.550 -0.0444  1.2090  0.4265
  367MOL0     H49526   3.519   6.891   8.635 -0.9817 -3.2241  0.3037
  367MOL0     H49527   4.519   7.442   8.315 -0.3062 -2.1290 -0.2806
  367MOL0     H49528   4.630   7.574   8.519  2.9618 -2.7210 -0.6613
  367MOL0     H49529   4.753   7.690   8.831  1.7760  1.7573  0.0867
  367MOL0     H49530   4.871   7.843   8.991 -0.1153  0.0347 -0.4324
  367MOL0     H49531   6.458   8.623  10.078  2.2470 -0.7500 -3.2653
  367MOL0     H49532   6.692   8.596  10.112 -0.4941  0.8102 -0.1792
  367MOL0     H49533   7.041   8.124   9.913 -0.4210  0.2568 -0.5457
  367MOL0     H49534   7.271   8.077   9.940  4.3309  0.9929 -0.0536
  367MOL0     H49535   7.377   8.034  10.166  0.0584  0.2425 -0.9654
  367MOL0     H49536   7.537   8.044  10.112  0.1713 -0.3338 -0.5987
  367MOL0     H49537   7.524   8.240  10.320 -0.0491 -0.0268 -1.1523
  367MOL0     H49538   7.599   8.081  10.353 -1.2777 -0.9134  1.8448
  367MOL0     H49539   7.370   8.012  10.399  0.1482 -0.0227 -1.4855
  367MOL0     H49540   7.312   8.171  10.408 -2.5889 -3.4645 -0.7138
  367MOL0     H49541   7.379   8.159  10.630  1.7978  0.1430  1.7535
  367MOL0     H49542   7.541   8.197  10.573  1.1059 -0.9488 -3.9492
  367MOL0     H49543   7.567   7.780  10.668  2.1467 -0.5645  2.1278
  367MOL0     H49544   7.318   8.432  10.174 -1.4588 -0.2098 -0.1891
  367MOL0     H49545   7.074   8.453  10.189 -1.6948 -2.1103  2.0718
  368MOL0     O49546   3.855   0.311   5.787  0.4388  0.2302  0.5411
  368MOL0     C49547   3.801   0.232   5.712 -0.7492  0.8715  0.3886
  368MOL0     O49548   3.820   0.225   5.573 -0.1532 -0.1643 -0.9426
  368MOL0     C49549   3.876   0.340   5.520  0.6364  0.2419 -0.2696
  368MOL0     C49550   4.013   0.366   5.514 -0.3298  0.6854 -0.9817
  368MOL0     C49551   4.062   0.474   5.441  0.5817  0.6046  0.7967
  368MOL0     C49552   3.964   0.573   5.391 -0.3248  0.0517 -0.0556
  368MOL0     O49553   3.998   0.692   5.334 -0.3923  0.1985  0.6739
  368MOL0     C49554   4.085   0.702   5.221 -0.2566  0.7556 -0.1490
  368MOL0     C49555   3.999   0.685   5.093  0.1071  0.1851 -2.0456
  368MOL0     C49556   4.065   0.734   4.966 -0.0476 -0.1303  0.1456
  368MOL0     C49557   4.191   0.650   4.934  0.3068 -0.4430 -0.3879
  368MOL0     C49558   4.250   0.712   4.796  0.5693 -0.3356 -0.9782
  368MOL0     C49559   4.154   0.689   4.679 -0.4433 -0.6977  0.9462
  368MOL0     C49560   4.231   0.694   4.541  0.7862 -0.3589 -1.1641
  368MOL0     C49561   4.253   0.844   4.502 -0.1271  0.3652 -0.4904
  368MOL0     N49562   4.347   0.852   4.388  0.6873  0.7585 -0.8035
  368MOL0     C49563   4.356   0.786   4.272  0.0304  0.1307 -0.3471
  368MOL0     C49564   4.484   0.809   4.215  0.8632  0.9864 -0.1682
  368MOL0     C49565   4.525   0.764   4.078  0.3379  0.0891 -0.7293
  368MOL0     C49566   4.672   0.779   4.033  0.4092 -0.6604 -0.2596
  368MOL0     C49567   4.766   0.711   4.133  0.3336  0.6327  0.3164
  368MOL0     C49568   4.764   0.562   4.111 -0.5110  0.1085 -0.4549
  368MOL0     O49569   4.639   0.510   4.174  0.1178  0.4198  0.7290
  368MOL0     C49570   4.623   0.488   4.305 -0.8615 -0.1195 -0.0802
  368MOL0     C49571   4.699   0.531   4.408 -1.1676  0.0279  0.3081
  368MOL0     C49572   4.683   0.495   4.538  0.7380 -0.5620  0.5871
  368MOL0     C49573   4.786   0.540   4.644 -0.7814  0.2819  0.1824
  368MOL0     C49574   4.570   0.407   4.565 -0.3963 -0.3054 -0.5476
  368MOL0     C49575   4.534   0.361   4.704  0.2214  0.3336  0.0297
  368MOL0     O49576   4.414   0.299   4.718  0.6287  0.5811 -0.0004
  368MOL0     C49577   4.381   0.248   4.849 -0.2737  0.4704  0.7026
  368MOL0     C49578   4.401   0.323   4.969  0.0561  0.0761  0.1951
  368MOL0     C49579   4.380   0.274   5.097 -0.0284  0.5822 -0.1816
  368MOL0     C49580   4.300   0.158   5.114  0.0298 -0.4222 -0.3357
  368MOL0     O49581   4.283   0.126   5.244  0.2839 -0.0982  0.9278
  368MOL0     C49582   4.231  -0.011   5.275  0.4200  0.7932  0.4818
  368MOL0     C49583   4.183  -0.031   5.426 -1.0802  0.6684 -0.0352
  368MOL0     C49584   4.305   0.009   5.520  0.7291 -0.2678  0.0463
  368MOL0     C49585   4.284  -0.037   5.673 -0.1519 -0.6845  0.5202
  368MOL0     C49586   4.167   0.024   5.737 -0.2887  0.1641  0.3764
  368MOL0     C49587   4.167   0.002   5.885  0.5490 -0.5352 -0.1170
  368MOL0     C49588   4.032   0.034   5.956 -0.2600  1.3508 -0.0073
  368MOL0     C49589   4.049  -0.002   6.097  0.2966 -0.9695  0.4292
  368MOL0    Cl49590   3.894   0.010   6.177 -0.2172 -0.1497  0.0741
  368MOL0     C49591   4.273   0.084   5.002  1.0519  0.4287  0.1279
  368MOL0     C49592   4.313   0.126   4.875 -0.9339  0.2121  0.6083
  368MOL0     O49593   4.614   0.370   4.797 -0.2190 -0.1498  0.1239
  368MOL0     C49594   4.492   0.361   4.462  0.7886 -0.1158 -0.3816
  368MOL0     C49595   4.514   0.402   4.333  0.4408 -0.5285 -0.1831
  368MOL0     N49596   4.545   0.898   4.298 -0.3172  1.0100 -0.8687
  368MOL0     N49597   4.473   0.914   4.404  0.0549  0.2453  0.2936
  368MOL0     C49598   3.828   0.556   5.416 -0.0590 -0.1449  0.5327
  368MOL0     C49599   3.786   0.440   5.477 -0.3238  0.0390 -0.4800
  368MOL0     C49600   3.720   0.114   5.775 -0.4085 -0.6682 -1.0531
  368MOL0     C49601   3.667   0.130   5.903 -0.3591  0.2486  0.0844
  368MOL0     C49602   3.591   0.030   5.959 -1.2451 -0.2231  0.4793
  368MOL0     C49603   3.558  -0.087   5.898  0.1602  0.8719 -0.6200
  368MOL0     O49604   3.476  -0.181   5.969  0.3142  0.2947  0.4492
  368MOL0     C49605   3.388  -0.253   5.888 -0.4066  0.4888  0.4273
  368MOL0     C49606   3.266  -0.163   5.865  0.0758 -0.8023  0.1019
  368MOL0     C49607   3.140  -0.233   5.917  0.2768 -0.8630  0.1610
  368MOL0     C49608   3.021  -0.130   5.913  0.0714 -0.1367 -0.1065
  368MOL0     C49609   2.978  -0.098   5.779  0.3442 -0.3709 -0.3738
  368MOL0     C49610   2.944  -0.078   5.666  0.6287 -1.1589 -0.3281
  368MOL0     C49611   3.619  -0.106   5.773  0.0361 -0.3602  1.3787
  368MOL0     C49612   3.702  -0.002   5.707  0.2027 -0.2304 -0.6977
  368MOL0     H49613   4.065   0.274   5.540  0.2550  1.9026  2.7427
  368MOL0     H49614   4.166   0.485   5.411 -0.4350  1.2017 -3.0456
  368MOL0     H49615   4.133   0.799   5.210  2.0275 -0.4865 -2.0956
  368MOL0     H49616   4.160   0.622   5.225  0.8815  1.7985 -0.1430
  368MOL0     H49617   3.969   0.580   5.092 -2.0584  0.5901  1.4399
  368MOL0     H49618   3.905   0.740   5.105 -0.0741 -0.6028  0.8643
  368MOL0     H49619   3.988   0.732   4.889 -1.1221 -5.3832  0.9721
  368MOL0     H49620   4.102   0.834   4.990 -0.1727  0.1388 -0.7573
  368MOL0     H49621   4.265   0.653   5.015 -0.1808  1.1414  0.0231
  368MOL0     H49622   4.166   0.544   4.919 -1.0742  0.0455 -1.7853
  368MOL0     H49623   4.259   0.821   4.802 -0.6438 -0.3145  1.3380
  368MOL0     H49624   4.341   0.661   4.764  0.7110 -1.9416  1.6963
  368MOL0     H49625   4.100   0.595   4.696 -4.0982  0.6909 -1.7635
  368MOL0     H49626   4.082   0.772   4.680 -0.2812 -0.5361 -0.2208
  368MOL0     H49627   4.328   0.644   4.549  0.0275 -1.6324  1.6683
  368MOL0     H49628   4.167   0.637   4.473  0.7298 -2.8035  0.7606
  368MOL0     H49629   4.285   0.896   4.592  1.5548  0.5595 -1.1662
  368MOL0     H49630   4.161   0.894   4.471  0.4030  2.7941  1.5719
  368MOL0     H49631   4.282   0.716   4.234  1.4113 -1.7356  0.2146
  368MOL0     H49632   4.496   0.659   4.067 -2.0574  0.2027  2.8832
  368MOL0     H49633   4.472   0.835   4.015 -1.5703 -1.4078 -0.8891
  368MOL0     H49634   4.696   0.886   4.031  0.3950 -0.5934  1.7045
  368MOL0     H49635   4.683   0.740   3.931 -3.8979 -5.2124  0.6181
  368MOL0     H49636   4.734   0.724   4.236 -0.9200 -1.8654  0.3169
  368MOL0     H49637   4.866   0.756   4.130 -0.0305  1.6266 -3.8140
  368MOL0     H49638   4.847   0.514   4.164  0.6737 -0.8524 -2.9674
  368MOL0     H49639   4.779   0.546   4.004  1.3587  0.1733 -0.2240
  368MOL0     H49640   4.776   0.603   4.382  0.5013 -2.5301 -2.5484
  368MOL0     H49641   4.848   0.453   4.670 -0.9140 -0.1571 -0.9383
  368MOL0     H49642   4.857   0.615   4.608 -0.2195 -0.0708  0.5337
  368MOL0     H49643   4.730   0.583   4.728 -4.9390  0.1481 -2.2681
  368MOL0     H49644   4.427   0.429   4.967 -1.6987  0.5556  0.7981
  368MOL0     H49645   4.421   0.329   5.182  2.6387 -2.6379  0.8387
  368MOL0     H49646   4.151  -0.049   5.210  1.0370  0.2057  0.0514
  368MOL0     H49647   4.318  -0.075   5.257 -1.0866 -1.3134  0.2484
  368MOL0     H49648   4.091   0.025   5.444 -0.6005  0.9270  1.8196
  368MOL0     H49649   4.163  -0.136   5.450  2.2267 -0.5516 -1.9140
  368MOL0     H49650   4.307   0.119   5.519 -3.8914  0.0247  1.4611
  368MOL0     H49651   4.401  -0.028   5.483  1.4251  3.1214 -1.9269
  368MOL0     H49652   4.283  -0.147   5.677  2.7768 -0.8541 -0.8000
  368MOL0     H49653   4.368  -0.011   5.737  0.4758 -2.4478  0.4771
  368MOL0     H49654   4.072   0.003   5.689  0.9660  0.3144 -2.3182
  368MOL0     H49655   4.183   0.130   5.716 -1.4486  0.0957 -0.9462
  368MOL0     H49656   4.195  -0.102   5.901 -2.9458 -1.4123  1.3041
  368MOL0     H49657   4.244   0.061   5.936  0.7101 -2.3344  1.8663
  368MOL0     H49658   3.957  -0.020   5.898  0.4113  1.0721 -0.6168
  368MOL0     H49659   3.998   0.138   5.960 -1.2029  1.0657 -0.2814
  368MOL0     H49660   4.125   0.059   6.147  1.8558 -2.3787 -0.1060
  368MOL0     H49661   4.070  -0.110   6.103 -0.2476 -1.0584  0.8010
  368MOL0     H49662   4.220  -0.009   4.993  2.2815 -0.1568 -1.4187
  368MOL0     H49663   4.292   0.061   4.791  2.4176  0.3106 -0.4778
  368MOL0     H49664   4.417   0.283   4.468  1.1340 -0.3581  1.3188
  368MOL0     H49665   4.445   0.365   4.257 -0.5924  2.1192 -0.6477
  368MOL0     H49666   3.746   0.619   5.384  0.1257  0.0241  0.3983
  368MOL0     H49667   3.677   0.440   5.475 -0.3167  0.8741 -1.0590
  368MOL0     H49668   3.681   0.223   5.957  1.6188  0.8269 -1.3144
  368MOL0     H49669   3.541   0.071   6.047  0.1977 -0.4826  1.4515
  368MOL0     H49670   3.423  -0.296   5.794 -2.5329  0.7973 -0.5756
  368MOL0     H49671   3.366  -0.347   5.941  1.3651 -1.1550 -1.5865
  368MOL0     H49672   3.248  -0.132   5.762 -4.4946 -0.2945  0.8342
  368MOL0     H49673   3.282  -0.063   5.909  1.7334 -0.2670 -1.5740
  368MOL0     H49674   3.151  -0.260   6.022 -1.5388  1.4418  1.0475
  368MOL0     H49675   3.116  -0.322   5.858 -0.7271  0.1182 -0.9873
  368MOL0     H49676   3.053  -0.030   5.945 -3.0201  0.4826  1.4798
  368MOL0     H49677   2.938  -0.153   5.980  0.1024 -0.5034 -0.1905
  368MOL0     H49678   2.907  -0.077   5.565 -1.3838  0.7069  0.3718
  368MOL0     H49679   3.600  -0.186   5.702 -1.0573  1.4086 -0.4345
  368MOL0     H49680   3.748   0.004   5.609  0.7819 -2.4611 -0.6157
  369MOL0     O49681   1.823   9.245   7.315 -0.6644 -0.3116  0.0479
  369MOL0     C49682   1.816   9.277   7.434 -0.4248 -0.0606  0.1448
  369MOL0     O49683   1.885   9.222   7.531  0.0990 -0.0372 -0.1812
  369MOL0     C49684   1.993   9.135   7.515  0.5940 -0.5961  0.1672
  369MOL0     C49685   2.029   9.065   7.629 -0.3177 -0.1258  0.5060
  369MOL0     C49686   2.140   8.981   7.623  0.3780  0.6706  0.4484
  369MOL0     C49687   2.208   8.950   7.511 -0.1186 -0.4146  0.2382
  369MOL0     O49688   2.299   8.847   7.501  0.2185 -0.3687  0.1248
  369MOL0     C49689   2.396   8.862   7.404 -0.3206  0.1850 -0.5278
  369MOL0     C49690   2.509   8.767   7.437 -1.5060  0.6002 -0.5677
  369MOL0     C49691   2.538   8.746   7.586  0.7989 -0.3362 -0.2440
  369MOL0     C49692   2.681   8.713   7.623  0.3399 -0.6604  0.2680
  369MOL0     C49693   2.691   8.701   7.778 -0.3395  0.0614  0.2198
  369MOL0     C49694   2.834   8.656   7.804 -0.1555 -0.5620  0.9120
  369MOL0     C49695   2.861   8.610   7.941 -0.0117  0.5490  0.8418
  369MOL0     C49696   2.874   8.727   8.031  0.3379  0.0079  0.8147
  369MOL0     N49697   2.876   8.671   8.173 -0.0032  0.1562 -1.2821
  369MOL0     C49698   2.958   8.719   8.262 -0.7522 -1.2976  0.0832
  369MOL0     C49699   2.913   8.682   8.381 -0.4657 -0.6796  0.6891
  369MOL0     C49700   2.964   8.713   8.519 -0.3094  0.0937 -1.1244
  369MOL0     C49701   3.122   8.727   8.519  0.0551 -0.1831 -0.0446
  369MOL0     C49702   3.201   8.598   8.481  0.1022 -0.8674  0.5634
  369MOL0     C49703   3.339   8.591   8.536  0.6175  0.8630 -0.0028
  369MOL0     O49704   3.412   8.717   8.531  0.2169  0.5313  0.0586
  369MOL0     C49705   3.544   8.727   8.564  0.3829 -0.4310 -0.3209
  369MOL0     C49706   3.598   8.848   8.558  0.3592 -0.9567  0.2061
  369MOL0     C49707   3.735   8.877   8.592 -0.2643  0.0803  0.4946
  369MOL0     C49708   3.767   9.028   8.605 -0.2508  0.4698  0.0895
  369MOL0     C49709   3.815   8.771   8.629 -0.6509 -0.7241  1.5124
  369MOL0     C49710   3.965   8.785   8.635  0.7304 -0.8947  0.1723
  369MOL0     O49711   4.037   8.711   8.726 -0.0711  0.2656 -0.4988
  369MOL0     C49712   4.175   8.706   8.724  1.1593 -0.8418  0.3277
  369MOL0     C49713   4.246   8.819   8.736 -1.4198  0.4472  0.7873
  369MOL0     C49714   4.384   8.811   8.767  0.7067 -1.2131  0.0856
  369MOL0     C49715   4.458   8.690   8.776  0.1585 -0.2349  0.1622
  369MOL0     O49716   4.592   8.666   8.808  0.6285  0.1772 -0.4759
  369MOL0     C49717   4.671   8.787   8.809 -0.6200  1.5328  0.1783
  369MOL0     C49718   4.815   8.754   8.829 -0.9554  1.2408 -0.1085
  369MOL0     C49719   4.878   8.712   8.676  0.8809 -0.6634 -0.6617
  369MOL0     C49720   4.972   8.593   8.713  0.8589  0.2733  0.5003
  369MOL0     C49721   5.033   8.528   8.584 -0.2261 -0.2270  0.2627
  369MOL0     C49722   5.158   8.442   8.610  1.0106  0.5511 -0.7216
  369MOL0     C49723   5.194   8.362   8.489  0.7215 -0.4659  0.3530
  369MOL0     C49724   5.286   8.244   8.513 -0.9698  0.1981  0.4832
  369MOL0    Cl49725   5.344   8.175   8.360  0.1769 -0.0150  0.1265
  369MOL0     C49726   4.380   8.572   8.750  0.3680  0.5238  0.0479
  369MOL0     C49727   4.246   8.577   8.727  0.1203 -0.3820  0.4974
  369MOL0     O49728   4.003   8.861   8.551  0.1365  1.0746  0.0770
  369MOL0     C49729   3.769   8.638   8.628 -1.4823  0.5304 -0.0270
  369MOL0     C49730   3.630   8.618   8.604 -0.2730 -0.4595  0.1089
  369MOL0     N49731   2.807   8.594   8.362 -0.3086 -0.6358 -0.4915
  369MOL0     N49732   2.788   8.584   8.235  0.2782  0.1139 -0.3706
  369MOL0     C49733   2.163   9.029   7.399 -0.1701  0.2353  0.5467
  369MOL0     C49734   2.057   9.113   7.400  0.0783 -0.3898 -0.2013
  369MOL0     C49735   1.729   9.396   7.472 -0.7089 -0.7501  0.3617
  369MOL0     C49736   1.683   9.424   7.606 -0.3614  0.5511  0.0344
  369MOL0     C49737   1.602   9.536   7.634 -0.2610  1.3655 -0.9890
  369MOL0     C49738   1.574   9.629   7.540  0.0257  0.3612  0.7111
  369MOL0     O49739   1.480   9.731   7.572 -0.2621  0.1549  0.4906
  369MOL0     C49740   1.445   9.821   7.472  0.1285  1.0815  0.0895
  369MOL0     C49741   1.343   9.746   7.376  0.4983 -0.1422 -0.6616
  369MOL0     C49742   1.203   9.773   7.418  0.0341  0.6575  0.2316
  369MOL0     C49743   1.159   9.721   7.557 -0.0178  0.8522  0.8102
  369MOL0     C49744   1.029   9.783   7.592 -0.9235  0.7672 -0.9269
  369MOL0     C49745   0.912   9.800   7.608 -0.7694  1.0572 -0.5426
  369MOL0     C49746   1.635   9.610   7.419  1.1621 -0.2929  0.4196
  369MOL0     C49747   1.710   9.498   7.384  0.4870 -0.0883  0.8314
  369MOL0     H49748   1.973   9.075   7.722 -4.8103  0.2909 -1.9652
  369MOL0     H49749   2.172   8.914   7.702 -0.2345 -1.7241 -1.2043
  369MOL0     H49750   2.335   8.838   7.317 -1.6276  0.5845  0.2642
  369MOL0     H49751   2.443   8.961   7.396  3.5268 -1.4445 -0.5239
  369MOL0     H49752   2.489   8.663   7.407  2.9991 -0.4308 -0.5929
  369MOL0     H49753   2.604   8.794   7.391  0.6256  1.7656  3.9925
  369MOL0     H49754   2.506   8.839   7.634  0.6607 -0.9486  0.8976
  369MOL0     H49755   2.471   8.678   7.640  2.1065 -1.9377 -0.5755
  369MOL0     H49756   2.704   8.613   7.585 -1.2690 -1.0846  0.3372
  369MOL0     H49757   2.752   8.785   7.580  0.9575 -3.4632 -4.0316
  369MOL0     H49758   2.681   8.803   7.816  1.6281  1.0232 -1.5802
  369MOL0     H49759   2.618   8.628   7.813 -1.3701  1.7190  1.6454
  369MOL0     H49760   2.866   8.577   7.735 -0.1743 -1.5201  1.9620
  369MOL0     H49761   2.899   8.742   7.786 -0.6564 -0.2820  0.4301
  369MOL0     H49762   2.780   8.542   7.967  0.1349  0.5013  1.1764
  369MOL0     H49763   2.957   8.558   7.936  0.3247  1.2047  0.3407
  369MOL0     H49764   2.784   8.785   8.007  1.7301  1.2871 -1.6614
  369MOL0     H49765   2.957   8.796   8.016 -0.0065  1.3199  4.0273
  369MOL0     H49766   3.042   8.785   8.238 -0.2955 -1.4380  1.2323
  369MOL0     H49767   2.918   8.808   8.548  2.4830  1.0657  0.4987
  369MOL0     H49768   2.928   8.628   8.578 -0.6011 -0.5085 -2.1368
  369MOL0     H49769   3.155   8.761   8.617 -1.4320 -0.6742  0.6575
  369MOL0     H49770   3.153   8.808   8.452 -1.7695  0.0426 -0.6859
  369MOL0     H49771   3.206   8.600   8.372  3.7519 -1.5864  0.6039
  369MOL0     H49772   3.149   8.505   8.506  1.5042 -1.4523  1.4146
  369MOL0     H49773   3.393   8.512   8.484  0.8773  1.9881 -1.5206
  369MOL0     H49774   3.335   8.563   8.642  2.1747 -0.6552 -0.2987
  369MOL0     H49775   3.532   8.923   8.516  3.3946  1.7326 -0.1156
  369MOL0     H49776   3.676   9.087   8.621 -1.2613 -0.7456 -0.9116
  369MOL0     H49777   3.830   9.041   8.694  0.7617 -0.9945 -0.3762
  369MOL0     H49778   3.823   9.069   8.521  1.8740 -2.9550 -0.3988
  369MOL0     H49779   4.196   8.915   8.745  0.7674  1.8116 -0.4947
  369MOL0     H49780   4.441   8.902   8.782 -2.0745  0.9077 -1.2741
  369MOL0     H49781   4.653   8.821   8.707  0.2097  3.0734  0.5081
  369MOL0     H49782   4.645   8.865   8.881 -2.9632  2.4829 -1.5893
  369MOL0     H49783   4.869   8.840   8.870  4.3601 -0.1163 -3.1704
  369MOL0     H49784   4.831   8.678   8.906 -0.6796  1.3501 -0.0574
  369MOL0     H49785   4.924   8.798   8.625 -0.2349 -0.6806 -1.7486
  369MOL0     H49786   4.794   8.685   8.611  0.3953  0.0105 -0.3332
  369MOL0     H49787   5.049   8.608   8.790  0.9016  0.4699  0.4202
  369MOL0     H49788   4.912   8.512   8.756 -0.3887  0.4356 -0.8660
  369MOL0     H49789   5.072   8.610   8.522 -0.2529 -1.0890 -0.9338
  369MOL0     H49790   4.956   8.486   8.519 -1.6024 -1.1688  2.3815
  369MOL0     H49791   5.252   8.494   8.631  0.4271  1.9751 -1.5360
  369MOL0     H49792   5.140   8.376   8.695 -1.0967 -3.3127 -3.8298
  369MOL0     H49793   5.251   8.436   8.431 -0.8308  2.1065  1.8953
  369MOL0     H49794   5.115   8.325   8.422  2.3029 -1.4655 -1.0405
  369MOL0     H49795   5.246   8.167   8.580 -0.2235  0.3987  1.1802
  369MOL0     H49796   5.370   8.280   8.575 -1.5946  1.6618  0.5203
  369MOL0     H49797   4.423   8.473   8.758 -1.8649 -0.7542 -2.2864
  369MOL0     H49798   4.182   8.490   8.722 -0.8935  0.3330  0.7637
  369MOL0     H49799   3.842   8.560   8.646  0.1184  1.2874 -2.6771
  369MOL0     H49800   3.601   8.516   8.625 -0.5175 -0.8301 -1.8059
  369MOL0     H49801   2.212   9.014   7.304 -0.7291  2.2352 -0.1144
  369MOL0     H49802   2.045   9.145   7.297  2.2661 -0.2680 -0.4741
  369MOL0     H49803   1.709   9.346   7.677  1.4015 -1.4359 -2.5874
  369MOL0     H49804   1.579   9.540   7.740 -0.5132 -1.7207 -0.8483
  369MOL0     H49805   1.407   9.915   7.514  2.4900  1.3908  1.7063
  369MOL0     H49806   1.542   9.842   7.425 -0.3948  0.3709 -1.3777
  369MOL0     H49807   1.361   9.640   7.396 -0.3588 -0.4273 -1.3698
  369MOL0     H49808   1.371   9.759   7.271 -0.2795 -1.7629 -1.1092
  369MOL0     H49809   1.132   9.729   7.347  1.3273 -3.0603  0.9853
  369MOL0     H49810   1.190   9.881   7.426  1.7375  1.0561 -1.6989
  369MOL0     H49811   1.225   9.748   7.640  0.7630 -2.8400  1.5752
  369MOL0     H49812   1.148   9.612   7.561  2.9482  0.4192  0.0933
  369MOL0     H49813   0.805   9.800   7.620 -0.8658 -0.8581 -1.1264
  369MOL0     H49814   1.623   9.689   7.345 -0.8729  1.7346  2.7117
  369MOL0     H49815   1.751   9.489   7.283  0.8183 -0.5694  1.0069
  370MOL0     O49816   4.439   6.972  11.137  0.2086 -0.2259 -0.0130
  370MOL0     C49817   4.416   6.880  11.061  0.1833 -0.0966 -0.6862
  370MOL0     O49818   4.407   6.891  10.927  0.8125  0.6520  0.6275
  370MOL0     C49819   4.436   7.013  10.867 -0.6478 -0.3332 -0.1343
  370MOL0     C49820   4.341   7.119  10.871  0.5318  0.8645 -0.2548
  370MOL0     C49821   4.379   7.238  10.821  0.5033 -0.7093 -0.0138
  370MOL0     C49822   4.505   7.265  10.767  0.0702  0.1472  0.3080
  370MOL0     O49823   4.505   7.390  10.714  0.2270  0.5326 -0.7144
  370MOL0     C49824   4.619   7.455  10.778  0.3558 -0.8122 -0.1329
  370MOL0     C49825   4.641   7.597  10.728 -0.6139  0.7903 -0.6399
  370MOL0     C49826   4.756   7.677  10.797 -0.3498 -0.3951  0.1838
  370MOL0     C49827   4.774   7.811  10.714 -1.0771 -0.4199  0.5173
  370MOL0     C49828   4.834   7.927  10.796 -0.5921  0.1885 -0.4155
  370MOL0     C49829   4.876   8.051  10.716  0.2841  0.6286 -1.2883
  370MOL0     C49830   4.938   8.177  10.790  0.6084 -0.9008  0.5747
  370MOL0     C49831   5.045   8.139  10.890  0.8385  0.5604 -0.2193
  370MOL0     N49832   5.057   8.254  10.982 -0.2537 -0.0123  1.6784
  370MOL0     C49833   5.146   8.356  10.978  0.3586  0.3518  0.5664
  370MOL0     C49834   5.140   8.414  11.101  0.0819 -0.4294  1.3344
  370MOL0     C49835   5.212   8.520  11.151 -0.9989  0.2149 -0.5475
  370MOL0     C49836   5.357   8.473  11.160 -0.3681 -0.3141 -0.0731
  370MOL0     C49837   5.434   8.579  11.236  1.1702  1.1918 -0.1960
  370MOL0     C49838   5.573   8.549  11.244 -0.1396  0.3229  0.0726
  370MOL0     O49839   5.612   8.427  11.308 -0.3460 -0.0791  0.4423
  370MOL0     C49840   5.741   8.397  11.343  0.9482 -0.7555  1.1149
  370MOL0     C49841   5.842   8.498  11.350 -0.4069  0.1086 -0.7511
  370MOL0     C49842   5.974   8.458  11.393 -0.3683 -0.6489 -0.4164
  370MOL0     C49843   6.066   8.574  11.419 -1.0001 -0.7381  0.0688
  370MOL0     C49844   6.014   8.328  11.426  0.4028  0.7540  0.7122
  370MOL0     C49845   6.150   8.275  11.450 -0.4406  0.1415 -0.0397
  370MOL0     O49846   6.151   8.149  11.516  0.1643 -0.4666  0.6340
  370MOL0     C49847   6.270   8.117  11.572  0.6439 -0.4564  0.5374
  370MOL0     C49848   6.269   8.108  11.707 -0.5693  1.0844 -0.0925
  370MOL0     C49849   6.392   8.082  11.779 -0.5501 -0.1559  1.3490
  370MOL0     C49850   6.519   8.073  11.704  0.0587 -0.8123  0.0271
  370MOL0     O49851   6.636   8.064  11.762 -0.3841 -0.6072 -0.2922
  370MOL0     C49852   6.656   8.123  11.889  0.0034 -1.4516  0.4111
  370MOL0     C49853   6.702   8.268  11.859 -0.2310  0.2104 -0.5724
  370MOL0     C49854   6.724   8.353  11.987  0.3259 -0.0152  0.9652
  370MOL0     C49855   6.865   8.354  12.038 -0.5245  1.0004 -0.0755
  370MOL0     C49856   6.870   8.439  12.167  0.2485 -0.8262  1.2600
  370MOL0     C49857   7.021   8.445  12.216 -0.4048 -0.1435  0.7898
  370MOL0     C49858   7.020   8.510  12.352  1.0158 -0.6784  0.7698
  370MOL0     C49859   7.139   8.580  12.404  0.4723 -0.6487 -0.5860
  370MOL0    Cl49860   7.126   8.632  12.574  0.0029 -0.0854  0.2253
  370MOL0     C49861   6.510   8.090  11.567 -0.0283 -0.2031  0.7297
  370MOL0     C49862   6.393   8.101  11.495 -0.0062 -0.8514 -0.3848
  370MOL0     O49863   6.247   8.334  11.409 -0.0645 -0.7371  0.5683
  370MOL0     C49864   5.903   8.236  11.422 -1.0687 -0.1542  0.0708
  370MOL0     C49865   5.768   8.266  11.377 -0.3379 -0.8678 -0.4814
  370MOL0     N49866   5.045   8.348  11.180  0.1496  0.0168 -0.5522
  370MOL0     N49867   4.999   8.250  11.111  0.1936  0.2940 -0.0745
  370MOL0     C49868   4.606   7.167  10.763 -0.2499 -0.6976  0.0018
  370MOL0     C49869   4.567   7.039  10.820  0.7451  0.0572  0.5035
  370MOL0     C49870   4.401   6.751  11.123 -0.3789  0.0762  0.6228
  370MOL0     C49871   4.477   6.718  11.235 -1.1516  0.0209 -0.3147
  370MOL0     C49872   4.465   6.602  11.304 -0.1858  0.0787 -0.9238
  370MOL0     C49873   4.373   6.506  11.254  1.0137  0.1089 -0.1584
  370MOL0     O49874   4.342   6.386  11.315  0.0934  0.0165 -0.0313
  370MOL0     C49875   4.430   6.276  11.282  0.2243 -0.3118  0.1086
  370MOL0     C49876   4.384   6.179  11.165 -0.3493 -0.8135 -0.6617
  370MOL0     C49877   4.466   6.046  11.169 -0.0595  0.2097  0.2823
  370MOL0     C49878   4.589   6.050  11.082 -0.3236 -0.4926  0.6225
  370MOL0     C49879   4.698   6.126  11.126  0.4781  0.0091 -0.4028
  370MOL0     C49880   4.790   6.184  11.182 -0.6031 -0.3545  0.2893
  370MOL0     C49881   4.311   6.528  11.127 -0.6367  0.4353 -0.9646
  370MOL0     C49882   4.324   6.657  11.071  0.3517 -0.3249  0.0928
  370MOL0     H49883   4.245   7.101  10.918  1.6998 -3.0236  1.0550
  370MOL0     H49884   4.302   7.313  10.833  1.2157  0.0846 -0.3328
  370MOL0     H49885   4.612   7.465  10.887  1.2872  0.0916 -0.1374
  370MOL0     H49886   4.713   7.408  10.748  1.5649  2.2942 -1.6188
  370MOL0     H49887   4.655   7.585  10.620 -2.7199 -0.8455 -0.7994
  370MOL0     H49888   4.546   7.647  10.749 -0.7249  0.0390  0.7175
  370MOL0     H49889   4.709   7.708  10.890 -0.2505  1.1127 -0.2567
  370MOL0     H49890   4.854   7.630  10.811 -0.5768 -0.8669  0.2063
  370MOL0     H49891   4.839   7.787  10.630 -2.1747 -1.4504 -0.0715
  370MOL0     H49892   4.678   7.833  10.666  0.3761  1.0718 -1.9136
  370MOL0     H49893   4.747   7.947  10.859 -1.5900 -1.0342 -1.3640
  370MOL0     H49894   4.922   7.889  10.848 -0.5614  0.8329  0.0158
  370MOL0     H49895   4.954   8.008  10.653  2.1032 -2.3550  2.5487
  370MOL0     H49896   4.789   8.063  10.650 -0.5063 -2.7440 -1.0640
  370MOL0     H49897   4.983   8.230  10.706 -0.8941 -0.1458  0.2155
  370MOL0     H49898   4.864   8.248  10.828 -0.1824 -1.1018 -0.5226
  370MOL0     H49899   5.138   8.113  10.839  0.5369 -0.7035 -0.1707
  370MOL0     H49900   5.004   8.047  10.933  0.2947 -0.0616 -1.9600
  370MOL0     H49901   5.221   8.368  10.901 -0.8144 -2.3009 -1.1641
  370MOL0     H49902   5.198   8.607  11.086 -2.0271  0.2189 -0.3349
  370MOL0     H49903   5.161   8.540  11.246 -3.2582 -1.5119 -1.3000
  370MOL0     H49904   5.409   8.455  11.066  1.6236  0.7954  0.7526
  370MOL0     H49905   5.355   8.380  11.218  0.3957 -0.9743 -1.0711
  370MOL0     H49906   5.394   8.570  11.337 -4.5879 -3.9412 -2.3032
  370MOL0     H49907   5.407   8.680  11.204  1.5395  1.0535 -0.9779
  370MOL0     H49908   5.619   8.640  11.285 -2.2578  1.6005 -0.2707
  370MOL0     H49909   5.615   8.554  11.143 -0.4375 -0.6246 -0.1005
  370MOL0     H49910   5.823   8.604  11.337 -1.2394  0.1591  0.6532
  370MOL0     H49911   6.057   8.611  11.522  0.7751 -1.2150  0.4293
  370MOL0     H49912   6.173   8.555  11.413  0.0846  3.8067  1.0610
  370MOL0     H49913   6.050   8.652  11.344 -0.0671  0.1994  0.8085
  370MOL0     H49914   6.173   8.106  11.756  1.3691 -2.3436  4.3868
  370MOL0     H49915   6.392   8.065  11.886  1.9612 -1.4900  1.2069
  370MOL0     H49916   6.571   8.131  11.957 -0.4806 -2.6920 -0.0234
  370MOL0     H49917   6.737   8.070  11.940  0.6386 -1.2199 -0.3316
  370MOL0     H49918   6.797   8.268  11.806  2.5088  2.7137  3.6969
  370MOL0     H49919   6.632   8.322  11.795  1.8018  1.8351 -1.5593
  370MOL0     H49920   6.656   8.323  12.066  0.4397 -2.6144  0.1685
  370MOL0     H49921   6.687   8.453  11.963 -3.7303 -1.3081  1.2308
  370MOL0     H49922   6.879   8.247  12.056 -4.0712  0.5685  1.0462
  370MOL0     H49923   6.937   8.382  11.961  1.4702 -0.8661  1.0169
  370MOL0     H49924   6.807   8.393  12.244  0.0073  2.2994  3.0869
  370MOL0     H49925   6.819   8.533  12.146 -0.4525 -1.7546 -1.7715
  370MOL0     H49926   7.065   8.345  12.221  0.6668  0.1580 -1.2920
  370MOL0     H49927   7.087   8.507  12.153 -2.0197  1.2841  0.4275
  370MOL0     H49928   6.991   8.437  12.427  1.9680 -2.7320 -0.7796
  370MOL0     H49929   6.941   8.586  12.349 -0.0912 -1.8071  0.5035
  370MOL0     H49930   7.162   8.653  12.326  0.9001 -0.5270 -0.3439
  370MOL0     H49931   7.225   8.513  12.412  1.0943  0.2534  0.3624
  370MOL0     H49932   6.603   8.089  11.511 -1.1576  3.5277 -1.6032
  370MOL0     H49933   6.393   8.114  11.387  0.0818  1.3266 -0.1626
  370MOL0     H49934   5.917   8.134  11.455 -0.2002 -0.3988 -0.9787
  370MOL0     H49935   5.686   8.195  11.379  0.8689 -2.3300  1.8923
  370MOL0     H49936   4.704   7.185  10.721  1.3551 -3.0040  2.4015
  370MOL0     H49937   4.623   6.947  10.820 -0.8898 -0.9825  1.4557
  370MOL0     H49938   4.540   6.797  11.275 -0.0405 -0.2044 -1.5451
  370MOL0     H49939   4.526   6.591  11.393  1.2965  0.2908 -1.8775
  370MOL0     H49940   4.528   6.317  11.255  1.7464 -2.8620  1.3636
  370MOL0     H49941   4.453   6.229  11.379  1.0800  1.0706  0.6137
  370MOL0     H49942   4.388   6.234  11.070  0.1174  1.3083  0.5143
  370MOL0     H49943   4.280   6.152  11.185 -0.7820  1.7472  0.9713
  370MOL0     H49944   4.418   5.958  11.126 -2.5159  0.4979  2.1753
  370MOL0     H49945   4.485   6.015  11.272 -1.1086 -1.5052  0.0063
  370MOL0     H49946   4.555   6.088  10.985 -0.3745 -0.6700  0.5700
  370MOL0     H49947   4.623   5.947  11.079 -1.6024 -0.9207 -0.3730
  370MOL0     H49948   4.880   6.225  11.224  1.1378 -3.4182 -0.1377
  370MOL0     H49949   4.254   6.444  11.090 -1.7327 -0.9066  3.2435
  370MOL0     H49950   4.268   6.666  10.978 -0.4568 -1.9638  0.3863
  371MOL0     O49951   2.598   3.328   0.805 -0.0511 -0.2646  0.2237
  371MOL0     C49952   2.613   3.210   0.781  0.7536 -0.4373 -0.4317
  371MOL0     O49953   2.631   3.112   0.880 -0.6365 -0.1576  0.3499
  371MOL0     C49954   2.605   3.143   1.009  0.7298 -0.0124  0.6811
  371MOL0     C49955   2.683   3.069   1.109 -0.0693  0.2625 -1.0412
  371MOL0     C49956   2.652   3.070   1.250 -1.2105 -0.4514  0.0170
  371MOL0     C49957   2.546   3.143   1.287  0.6918 -0.1373 -0.7473
  371MOL0     O49958   2.525   3.153   1.423 -0.0177 -0.1317  0.3344
  371MOL0     C49959   2.381   3.149   1.465 -0.8913  0.0745 -0.6125
  371MOL0     C49960   2.287   3.053   1.387  0.7897 -0.1793 -0.1443
  371MOL0     C49961   2.145   3.053   1.451  0.1702 -0.2193  0.0208
  371MOL0     C49962   2.124   3.000   1.587 -0.4446  0.0285 -0.0133
  371MOL0     C49963   2.041   3.088   1.680 -0.3252  0.2343  0.3528
  371MOL0     C49964   2.048   3.016   1.816  0.1605  0.2636  0.0432
  371MOL0     C49965   2.167   3.030   1.908  0.2345 -0.0396 -0.4095
  371MOL0     C49966   2.161   2.929   2.027 -0.0342  0.3598 -0.6797
  371MOL0     N49967   2.290   2.888   2.070  0.4134  0.1335  0.9393
  371MOL0     C49968   2.342   2.928   2.192  1.0922 -0.0319  0.0299
  371MOL0     C49969   2.455   2.855   2.212  0.0897  0.9092  0.9566
  371MOL0     C49970   2.553   2.865   2.324  0.3665  0.5717  0.4920
  371MOL0     C49971   2.687   2.910   2.271  0.3750 -0.7301  0.8971
  371MOL0     C49972   2.804   2.868   2.355 -0.5449  0.0436  0.5203
  371MOL0     C49973   2.932   2.914   2.291 -0.0368 -0.0297 -0.1830
  371MOL0     O49974   2.965   2.840   2.171  0.4759  0.0672 -0.7568
  371MOL0     C49975   3.084   2.851   2.105  0.8592  0.1997 -0.0093
  371MOL0     C49976   3.078   2.815   1.972  0.7338 -0.1623 -0.0864
  371MOL0     C49977   3.185   2.833   1.887 -0.0630  0.6354  0.6847
  371MOL0     C49978   3.159   2.801   1.738 -0.7191 -0.2156  0.5712
  371MOL0     C49979   3.313   2.872   1.939  1.1111 -0.4502  0.4672
  371MOL0     C49980   3.439   2.883   1.855  0.2445  0.3985 -0.5179
  371MOL0     O49981   3.522   2.992   1.873  0.0975 -0.9835  1.1755
  371MOL0     C49982   3.641   2.992   1.796  0.1887 -0.8478  0.2520
  371MOL0     C49983   3.686   3.106   1.725  0.9376 -0.1028  0.4702
  371MOL0     C49984   3.811   3.105   1.673  0.3377  0.0686  0.0531
  371MOL0     C49985   3.899   2.988   1.693 -0.3625  0.2534  0.1149
  371MOL0     O49986   4.025   2.995   1.646 -0.1515  0.3117 -0.2248
  371MOL0     C49987   4.132   3.005   1.748  0.0038  0.5319  1.2213
  371MOL0     C49988   4.115   3.106   1.864  0.5285  0.3999 -0.5932
  371MOL0     C49989   4.136   3.249   1.821 -1.4796  0.2037  0.3848
  371MOL0     C49990   4.146   3.335   1.945 -0.6160 -0.0783  0.4686
  371MOL0     C49991   4.184   3.476   1.903  0.0944  0.3169  1.7883
  371MOL0     C49992   4.097   3.547   1.794  0.4465 -0.0733  1.0536
  371MOL0     C49993   3.948   3.544   1.846  0.6299  0.1864  1.1454
  371MOL0     C49994   3.860   3.598   1.729  0.4363  0.2234 -0.5192
  371MOL0    Cl49995   3.813   3.490   1.604  0.2368 -0.4198 -0.1940
  371MOL0     C49996   3.870   2.887   1.787  0.0194 -0.5791  0.3758
  371MOL0     C49997   3.738   2.901   1.833  0.0233 -0.8855 -0.5104
  371MOL0     O49998   3.457   2.800   1.775 -0.2057  0.8343  0.4163
  371MOL0     C49999   3.322   2.908   2.072  0.1050 -0.2775 -0.1605
  371MOL0     C50000   3.206   2.901   2.149  0.3122 -0.7478 -0.6084
  371MOL0     N50001   2.452   2.757   2.119 -0.2088  0.1502  0.9132
  371MOL0     N50002   2.363   2.779   2.034 -1.0377  0.1427 -0.4398
  371MOL0     C50003   2.473   3.222   1.194  0.3230  0.8350  0.4223
  371MOL0     C50004   2.504   3.227   1.052 -0.1752 -0.9978 -0.5184
  371MOL0     C50005   2.622   3.179   0.637  0.7059  0.3778  0.6711
  371MOL0     C50006   2.638   3.047   0.592 -0.0579  0.8317  0.2444
  371MOL0     C50007   2.655   3.032   0.454  0.4812  0.6933 -1.0744
  371MOL0     C50008   2.645   3.129   0.355  0.3323  0.0273 -0.2409
  371MOL0     O50009   2.651   3.095   0.224 -0.0770 -0.3446  0.8154
  371MOL0     C50010   2.697   3.209   0.143 -0.0235 -0.3179  0.6333
  371MOL0     C50011   2.773   3.166   0.016 -0.3209 -0.0214  0.2183
  371MOL0     C50012   2.914   3.111   0.043  0.6150  1.4426 -0.5030
  371MOL0     C50013   2.996   3.107  -0.087 -0.5797 -0.2550  0.5909
  371MOL0     C50014   3.002   3.230  -0.168 -0.5153 -0.1370 -0.4634
  371MOL0     C50015   2.997   3.337  -0.230  0.3334  0.1119 -0.8720
  371MOL0     C50016   2.621   3.253   0.401  0.2075 -0.0530 -0.1960
  371MOL0     C50017   2.604   3.282   0.537  0.1332 -0.6186  0.3629
  371MOL0     H50018   2.773   3.017   1.080  0.9785  2.5016 -2.0412
  371MOL0     H50019   2.719   3.009   1.310 -0.9246 -1.6563 -1.4640
  371MOL0     H50020   2.406   3.113   1.565  3.1585 -2.3046 -2.2094
  371MOL0     H50021   2.331   3.246   1.460 -1.9777 -0.3907  0.6469
  371MOL0     H50022   2.281   3.082   1.282 -0.2568 -0.3207 -0.1278
  371MOL0     H50023   2.343   2.959   1.399  2.8459  0.9158 -0.7582
  371MOL0     H50024   2.098   3.151   1.440  0.9232 -0.0472 -2.1856
  371MOL0     H50025   2.075   2.988   1.397  0.0085 -1.2458  1.3987
  371MOL0     H50026   2.061   2.911   1.579 -0.9853  0.0972  2.4487
  371MOL0     H50027   2.222   2.979   1.630 -1.4238 -4.8172  0.4340
  371MOL0     H50028   2.086   3.188   1.685 -0.8739  0.4271  3.2551
  371MOL0     H50029   1.941   3.107   1.639  0.2655  1.2008 -0.7022
  371MOL0     H50030   1.970   3.061   1.878 -1.3266 -1.3974 -0.5442
  371MOL0     H50031   2.015   2.913   1.800  0.3589  0.2032  0.0262
  371MOL0     H50032   2.255   3.008   1.847  0.0616  0.2173 -0.7517
  371MOL0     H50033   2.184   3.133   1.941  1.2887 -0.6630  1.1339
  371MOL0     H50034   2.107   2.837   2.003 -3.2262  2.0133 -0.4916
  371MOL0     H50035   2.098   2.980   2.102  0.3321 -3.5758  2.6387
  371MOL0     H50036   2.297   3.013   2.244 -0.0430 -0.6409  0.0661
  371MOL0     H50037   2.526   2.937   2.402 -1.6577 -1.9907  2.3394
  371MOL0     H50038   2.566   2.767   2.370 -0.4546  1.4499  2.7197
  371MOL0     H50039   2.679   3.019   2.261 -0.8969 -0.8459  0.5509
  371MOL0     H50040   2.699   2.854   2.178  0.3745 -0.3388  0.6546
  371MOL0     H50041   2.803   2.759   2.360 -1.2323 -0.0564 -1.1305
  371MOL0     H50042   2.793   2.908   2.456 -1.6524 -1.3655  0.9904
  371MOL0     H50043   3.007   2.898   2.368 -0.2969  2.2972  0.6407
  371MOL0     H50044   2.926   3.019   2.263  3.4861 -0.2087 -2.2123
  371MOL0     H50045   2.981   2.781   1.937  0.4240 -0.0084  0.6131
  371MOL0     H50046   3.228   2.866   1.684  1.3904 -1.7001  1.3489
  371MOL0     H50047   3.192   2.697   1.722  2.7179  0.9920 -1.2869
  371MOL0     H50048   3.055   2.819   1.712 -0.7314 -1.7613 -0.6340
  371MOL0     H50049   3.617   3.183   1.693 -1.1360 -2.3289 -0.7144
  371MOL0     H50050   3.845   3.178   1.600  4.1500  0.0300  1.5288
  371MOL0     H50051   4.143   2.906   1.795 -0.4885 -0.1739 -0.1028
  371MOL0     H50052   4.221   3.033   1.690 -1.0713 -0.3722 -0.9975
  371MOL0     H50053   4.027   3.092   1.927  1.5957 -1.8335  0.5204
  371MOL0     H50054   4.193   3.071   1.933 -2.5704 -3.0912  1.4975
  371MOL0     H50055   4.063   3.288   1.750  1.6627  1.2174 -2.5647
  371MOL0     H50056   4.229   3.265   1.767 -2.3709 -2.0888 -2.0629
  371MOL0     H50057   4.052   3.342   2.000 -1.6471  2.1427 -1.4281
  371MOL0     H50058   4.223   3.299   2.014 -1.6196  3.4279  3.7605
  371MOL0     H50059   4.286   3.464   1.866 -0.4830 -0.8878  0.4879
  371MOL0     H50060   4.193   3.539   1.992  0.3456 -0.9207  2.6491
  371MOL0     H50061   4.132   3.648   1.772 -2.6743  1.1188  1.1046
  371MOL0     H50062   4.099   3.481   1.707 -0.1829 -0.6720  1.4741
  371MOL0     H50063   3.927   3.611   1.930  0.1000  1.0024  0.3839
  371MOL0     H50064   3.904   3.448   1.876 -1.2539  0.5279 -0.3409
  371MOL0     H50065   3.915   3.678   1.678  0.5055  1.1951  1.0151
  371MOL0     H50066   3.766   3.634   1.772 -0.4577 -2.0008 -0.5086
  371MOL0     H50067   3.937   2.807   1.816  1.4081  0.8598  1.3295
  371MOL0     H50068   3.705   2.825   1.903  2.4591 -2.3401 -0.8447
  371MOL0     H50069   3.415   2.935   2.121 -0.8687 -0.6385  2.0364
  371MOL0     H50070   3.220   2.924   2.254 -2.0978  2.6349 -0.8894
  371MOL0     H50071   2.400   3.294   1.232  2.3480  3.0845  0.2842
  371MOL0     H50072   2.451   3.301   0.993 -1.8185 -2.7918 -1.4178
  371MOL0     H50073   2.633   2.963   0.660 -1.1525  0.6905  0.0148
  371MOL0     H50074   2.664   2.929   0.419 -2.4379  0.7991 -2.4609
  371MOL0     H50075   2.606   3.268   0.122 -0.0130 -0.3203  0.5804
  371MOL0     H50076   2.771   3.267   0.199  2.5217 -3.2546  0.5678
  371MOL0     H50077   2.783   3.259  -0.041  0.2653 -0.5038 -0.4765
  371MOL0     H50078   2.711   3.094  -0.038  0.8420  1.3691 -3.2375
  371MOL0     H50079   2.915   3.009   0.083 -0.9123  1.6384  0.1264
  371MOL0     H50080   2.965   3.176   0.114 -0.7909 -0.6113  2.6385
  371MOL0     H50081   2.936   3.049  -0.158 -0.4482 -0.5096  0.6874
  371MOL0     H50082   3.088   3.055  -0.061  0.6140  1.9691  1.1093
  371MOL0     H50083   3.006   3.429  -0.283 -1.7416 -0.3472 -2.1424
  371MOL0     H50084   2.616   3.334   0.329  0.4962 -0.5623 -0.7965
  371MOL0     H50085   2.610   3.385   0.569  1.3204  0.3436 -2.7060
  372MOL0     O50086  11.257   7.307   1.228  0.1761 -0.5433 -0.3779
  372MOL0     C50087  11.320   7.369   1.313  1.5819  0.8280  0.5924
  372MOL0     O50088  11.450   7.413   1.306 -0.6590  0.5219  0.1559
  372MOL0     C50089  11.516   7.419   1.189 -0.2860  0.1918  1.6021
  372MOL0     C50090  11.454   7.472   1.072  0.3569 -1.1525  0.4151
  372MOL0     C50091  11.517   7.477   0.955 -0.1793 -0.7194  0.5351
  372MOL0     C50092  11.645   7.437   0.944  0.3637  0.3581  0.9639
  372MOL0     O50093  11.710   7.435   0.815 -0.4837 -0.5123  0.0379
  372MOL0     C50094  11.645   7.376   0.698 -0.1858  0.3488 -0.3164
  372MOL0     C50095  11.746   7.364   0.587  0.3741  0.0057  0.1940
  372MOL0     C50096  11.742   7.488   0.497  0.7762  0.8513  1.1102
  372MOL0     C50097  11.692   7.461   0.351  0.7578 -0.2300  0.2276
  372MOL0     C50098  11.680   7.593   0.269  0.0617  0.3509  0.9120
  372MOL0     C50099  11.621   7.559   0.130  0.7781  0.2262  0.0198
  372MOL0     C50100  11.533   7.676   0.066 -0.7999  0.0835 -1.1925
  372MOL0     C50101  11.582   7.817   0.079 -0.4770 -0.6165 -0.2213
  372MOL0     N50102  11.481   7.905   0.031 -0.2163  0.0399  0.0677
  372MOL0     C50103  11.355   7.934   0.084  0.5641 -0.3575  0.7174
  372MOL0     C50104  11.315   8.045   0.015 -0.5352  0.5331 -0.5690
  372MOL0     C50105  11.205   8.136   0.036  0.2285 -0.5632  0.8981
  372MOL0     C50106  11.067   8.084   0.026 -0.3776  0.7960  0.9261
  372MOL0     C50107  11.008   8.096  -0.114  0.5209 -0.9220 -0.4386
  372MOL0     C50108  10.970   8.242  -0.155 -0.0841 -0.1155  0.4824
  372MOL0     O50109  10.838   8.282  -0.110 -0.0937  0.7917 -0.8949
  372MOL0     C50110  10.815   8.400  -0.042  0.2809  0.1171  0.2602
  372MOL0     C50111  10.898   8.460   0.052  0.5785 -0.1670 -0.4151
  372MOL0     C50112  10.866   8.567   0.133 -0.7149  0.4460 -0.3578
  372MOL0     C50113  10.966   8.591   0.239 -0.0710  0.6488  0.9220
  372MOL0     C50114  10.752   8.632   0.103 -0.4299  0.1778  0.1416
  372MOL0     C50115  10.706   8.754   0.174 -0.3611 -0.5870  0.2840
  372MOL0     O50116  10.565   8.778   0.175  0.4008 -0.7719 -0.6082
  372MOL0     C50117  10.522   8.897   0.220  0.0559 -0.3951 -0.0418
  372MOL0     C50118  10.498   9.001   0.125  0.7512 -0.2389 -0.4098
  372MOL0     C50119  10.457   9.128   0.183  0.3022 -0.1005 -0.2265
  372MOL0     C50120  10.456   9.154   0.313 -0.7413  0.1153 -0.4448
  372MOL0     O50121  10.441   9.280   0.364 -0.3529  0.2374 -0.5389
  372MOL0     C50122  10.316   9.321   0.376  0.4969  0.2012 -0.6881
  372MOL0     C50123  10.316   9.462   0.420 -0.5156  0.8084 -0.1036
  372MOL0     C50124  10.400   9.566   0.335  0.8315  0.7276  0.2282
  372MOL0     C50125  10.373   9.565   0.190  1.0982 -0.0394  0.8790
  372MOL0     C50126  10.456   9.670   0.105  0.1041  0.8632 -0.6888
  372MOL0     C50127  10.403   9.815   0.097  0.2540 -0.4896 -0.8870
  372MOL0     C50128  10.504   9.916   0.093 -1.2263 -0.2208 -0.3570
  372MOL0     C50129  10.440  10.053   0.093  0.1771  0.0974  0.4486
  372MOL0    Cl50130  10.360  10.084   0.248 -0.0246 -0.3685  0.1194
  372MOL0     C50131  10.477   9.049   0.408 -0.0009 -0.1185 -0.1128
  372MOL0     C50132  10.530   8.927   0.360 -0.0893  0.2589 -0.2145
  372MOL0     O50133  10.791   8.832   0.215  0.1043 -0.2632  0.1748
  372MOL0     C50134  10.656   8.575   0.011  0.6456 -0.0534 -0.5840
  372MOL0     C50135  10.690   8.451  -0.050 -0.6958 -0.3513 -0.8789
  372MOL0     N50136  11.412   8.060  -0.087 -0.1335 -0.6325  0.1379
  372MOL0     N50137  11.511   7.979  -0.078  0.1192 -0.6048  0.5787
  372MOL0     C50138  11.717   7.404   1.059 -0.9765 -0.5083  1.2778
  372MOL0     C50139  11.657   7.389   1.178  0.5016 -0.2801  0.1101
  372MOL0     C50140  11.254   7.382   1.437  0.0336  0.3931 -0.4329
  372MOL0     C50141  11.115   7.338   1.465  0.0264 -0.0136  0.4840
  372MOL0     C50142  11.043   7.348   1.584 -0.8779  0.5969 -0.8950
  372MOL0     C50143  11.108   7.416   1.694 -0.4980 -0.3626 -0.0306
  372MOL0     O50144  11.053   7.434   1.816  0.6675 -0.7752  0.5404
  372MOL0     C50145  11.127   7.429   1.940 -0.3680  1.3020  0.3372
  372MOL0     C50146  11.155   7.566   2.004 -0.3698  0.3328 -0.6281
  372MOL0     C50147  11.020   7.609   2.064  0.0032 -0.1857 -0.1505
  372MOL0     C50148  11.026   7.768   2.054  1.5941  0.0371  0.2256
  372MOL0     C50149  10.890   7.830   2.088 -1.4860 -0.9209  0.3967
  372MOL0     C50150  10.787   7.874   2.109  0.1387 -0.4606  0.7032
  372MOL0     C50151  11.248   7.455   1.668  0.6793 -0.3053  0.3482
  372MOL0     C50152  11.314   7.446   1.546  0.1152 -0.4539 -0.0560
  372MOL0     H50153  11.350   7.502   1.064 -0.1824 -3.0647 -0.4123
  372MOL0     H50154  11.469   7.529   0.872 -1.9338  0.8431  2.4151
  372MOL0     H50155  11.597   7.279   0.717 -1.5791  1.2789  1.3236
  372MOL0     H50156  11.563   7.446   0.681 -0.7825  0.3682  2.2011
  372MOL0     H50157  11.846   7.367   0.631 -0.6039  1.0448  2.5143
  372MOL0     H50158  11.731   7.264   0.546 -1.9398  0.4258 -0.0875
  372MOL0     H50159  11.684   7.575   0.529 -1.2852  0.1863 -0.5496
  372MOL0     H50160  11.847   7.518   0.500  0.4047  2.4641 -0.0917
  372MOL0     H50161  11.765   7.399   0.298  0.5268 -0.1972 -0.1360
  372MOL0     H50162  11.593   7.419   0.370 -0.7276  3.3507  1.1829
  372MOL0     H50163  11.615   7.669   0.315 -0.2743  0.0630  0.9143
  372MOL0     H50164  11.778   7.639   0.256 -0.1802  0.0549 -3.5009
  372MOL0     H50165  11.699   7.520   0.064  0.9533 -1.6049  1.2370
  372MOL0     H50166  11.549   7.476   0.129 -0.1614  1.0020  0.6370
  372MOL0     H50167  11.520   7.659  -0.042 -0.6163  1.3004 -1.4115
  372MOL0     H50168  11.429   7.671   0.099  0.0169 -1.8668  1.3736
  372MOL0     H50169  11.678   7.821   0.026  0.0942  4.0761  0.7417
  372MOL0     H50170  11.609   7.844   0.181 -2.5429  3.1588 -0.5077
  372MOL0     H50171  11.290   7.905   0.166  0.2593 -1.5331  0.0952
  372MOL0     H50172  11.211   8.180   0.136 -2.8470 -1.4281  1.5700
  372MOL0     H50173  11.228   8.227  -0.020  2.0191 -0.2005  2.1413
  372MOL0     H50174  10.992   8.139   0.085 -1.4747  0.2695  0.0448
  372MOL0     H50175  11.065   7.982   0.066  1.0664 -0.0869 -1.0977
  372MOL0     H50176  10.918   8.034  -0.122 -0.5545  0.7074 -1.5651
  372MOL0     H50177  11.076   8.060  -0.192  3.7649 -0.4478  1.9759
  372MOL0     H50178  10.964   8.237  -0.264 -1.2943  0.7098  0.4935
  372MOL0     H50179  11.044   8.315  -0.121  0.4963 -1.1106  1.4047
  372MOL0     H50180  10.988   8.400   0.064  0.8070 -0.1794 -1.9785
  372MOL0     H50181  11.018   8.504   0.279 -2.8324 -1.1127  0.8883
  372MOL0     H50182  11.044   8.651   0.191  1.4156  0.4026  2.8821
  372MOL0     H50183  10.915   8.653   0.314 -1.8547 -2.1498  2.1877
  372MOL0     H50184  10.507   8.999   0.016  1.6087 -0.0207 -0.3521
  372MOL0     H50185  10.443   9.207   0.110  0.5301 -1.6081 -1.9761
  372MOL0     H50186  10.269   9.313   0.277 -1.7930 -1.0306  0.4215
  372MOL0     H50187  10.249   9.271   0.445  1.1029 -0.5622 -0.6466
  372MOL0     H50188  10.215   9.502   0.428 -1.0211 -0.1123 -1.5005
  372MOL0     H50189  10.354   9.468   0.523  0.9974 -0.2077 -0.5750
  372MOL0     H50190  10.505   9.536   0.341  0.8441 -0.1931 -2.9583
  372MOL0     H50191  10.386   9.665   0.381  0.9123  0.1019  1.6429
  372MOL0     H50192  10.395   9.466   0.150 -2.4343 -1.1232  1.3267
  372MOL0     H50193  10.266   9.586   0.190  0.6908 -1.9124  1.6710
  372MOL0     H50194  10.464   9.620   0.008 -2.0447  0.2268 -0.5916
  372MOL0     H50195  10.543   9.687   0.170 -0.7532  3.1300 -0.0261
  372MOL0     H50196  10.328   9.833   0.020 -0.3221 -0.5538 -0.3494
  372MOL0     H50197  10.350   9.827   0.192 -0.1075 -1.2779 -0.9862
  372MOL0     H50198  10.577   9.898   0.013 -0.1770  0.5845  0.3854
  372MOL0     H50199  10.563   9.898   0.183  1.0545 -2.7101 -2.1989
  372MOL0     H50200  10.357  10.066   0.023 -2.3121 -0.4032  3.1236
  372MOL0     H50201  10.518  10.126   0.067  0.7148  0.9218  3.8790
  372MOL0     H50202  10.479   9.068   0.515 -3.6147  0.4860 -0.0296
  372MOL0     H50203  10.550   8.845   0.428 -0.4868  1.3180  1.2347
  372MOL0     H50204  10.560   8.625   0.001  1.1374  0.8390 -0.9715
  372MOL0     H50205  10.616   8.397  -0.107  0.8485  0.3932 -3.7720
  372MOL0     H50206  11.826   7.402   1.058 -0.9757 -0.2917  0.7191
  372MOL0     H50207  11.722   7.356   1.259  1.0724 -2.2425 -1.0706
  372MOL0     H50208  11.056   7.305   1.380 -0.6512  0.6441  0.6961
  372MOL0     H50209  10.948   7.300   1.606  0.9052 -2.0230  2.0283
  372MOL0     H50210  11.080   7.357   2.007  0.1960 -0.7483 -1.3589
  372MOL0     H50211  11.226   7.388   1.923 -1.1582 -0.2345 -0.8118
  372MOL0     H50212  11.194   7.639   1.933 -1.2090 -1.1050 -2.6648
  372MOL0     H50213  11.234   7.546   2.077  1.8262 -2.0662 -3.3848
  372MOL0     H50214  11.016   7.585   2.171  2.6765 -0.0181  0.0687
  372MOL0     H50215  10.939   7.574   1.999 -1.7789 -1.0444  2.4040
  372MOL0     H50216  11.037   7.785   1.947  0.9561  0.9750  0.2998
  372MOL0     H50217  11.105   7.814   2.115 -1.3068  1.4704  3.1919
  372MOL0     H50218  10.696   7.920   2.143  1.3905  1.0084  2.1832
  372MOL0     H50219  11.313   7.496   1.744  0.0112 -0.0468  0.7888
  372MOL0     H50220  11.414   7.488   1.536 -0.5556  0.5337 -3.9969
  373MOL0     O50221   0.331   0.387   6.947 -0.2628 -0.9525  0.0593
  373MOL0     C50222   0.298   0.338   6.840 -0.2166 -0.8263 -0.9910
  373MOL0     O50223   0.213   0.241   6.829  0.1361 -0.1174  0.2708
  373MOL0     C50224   0.137   0.185   6.934  0.6741  0.0741 -0.2832
  373MOL0     C50225   0.181   0.161   7.068 -0.5976  0.3151 -0.0432
  373MOL0     C50226   0.115   0.082   7.154 -0.0295  0.0861 -0.9068
  373MOL0     C50227  -0.007   0.022   7.118  0.0927 -0.9534  0.2169
  373MOL0     O50228  -0.096  -0.042   7.200  0.5502  0.5966 -0.2266
  373MOL0     C50229  -0.035  -0.112   7.312 -0.2456  0.7578  0.8077
  373MOL0     C50230  -0.133  -0.209   7.377 -0.9067  0.4421  0.1274
  373MOL0     C50231  -0.260  -0.130   7.417 -0.7330  0.7893  0.1149
  373MOL0     C50232  -0.240  -0.026   7.536 -0.8065  0.0631  0.8882
  373MOL0     C50233  -0.373   0.056   7.572 -0.0802  0.2819  0.6673
  373MOL0     C50234  -0.389   0.184   7.480 -0.7856 -0.1278  0.3935
  373MOL0     C50235  -0.499   0.283   7.517  0.5370 -1.1444  0.0814
  373MOL0     C50236  -0.436   0.419   7.552 -0.0665 -0.2872  0.2323
  373MOL0     N50237  -0.537   0.506   7.618 -1.1806 -0.2820 -0.2538
  373MOL0     C50238  -0.594   0.477   7.742  0.3160  0.5091  0.1875
  373MOL0     C50239  -0.681   0.580   7.767 -0.8054 -1.4492 -1.4085
  373MOL0     C50240  -0.743   0.598   7.906 -0.5218 -0.4170 -0.2062
  373MOL0     C50241  -0.658   0.678   8.010 -1.1107 -1.2213  0.3920
  373MOL0     C50242  -0.667   0.649   8.164  0.2290 -0.2820  0.2908
  373MOL0     C50243  -0.788   0.568   8.223 -0.2356  1.2592  0.0104
  373MOL0     O50244  -0.784   0.577   8.366 -0.1373 -0.0087  0.0663
  373MOL0     C50245  -0.827   0.697   8.423  0.0915  0.2313 -0.4193
  373MOL0     C50246  -0.895   0.799   8.363  0.0577 -0.6053 -0.4992
  373MOL0     C50247  -0.935   0.924   8.415  0.4555  1.2315 -0.1204
  373MOL0     C50248  -0.990   1.027   8.328 -0.1403 -0.7616  0.2242
  373MOL0     C50249  -0.926   0.929   8.558  0.1297 -0.2250 -0.0523
  373MOL0     C50250  -0.971   1.038   8.638  0.0414  0.4762 -0.9753
  373MOL0     O50251  -1.097   1.079   8.623 -0.4610 -0.0848  0.1717
  373MOL0     C50252  -1.151   1.173   8.704 -0.6927 -0.1173 -0.1911
  373MOL0     C50253  -1.170   1.294   8.645 -0.4434 -0.0192 -0.7300
  373MOL0     C50254  -1.223   1.398   8.718  0.8298  0.1286  0.1327
  373MOL0     C50255  -1.280   1.379   8.851 -0.8080  0.7138 -0.1968
  373MOL0     O50256  -1.325   1.476   8.932 -0.2585 -0.3573  0.4160
  373MOL0     C50257  -1.360   1.606   8.880 -0.5522  0.0850 -0.1985
  373MOL0     C50258  -1.464   1.667   8.977 -0.5883 -0.2029 -0.8676
  373MOL0     C50259  -1.402   1.717   9.104  0.0467  0.9593 -0.4594
  373MOL0     C50260  -1.363   1.864   9.107  0.2429  0.0479 -0.2566
  373MOL0     C50261  -1.332   1.916   9.258 -0.3753 -0.3064  0.5174
  373MOL0     C50262  -1.307   2.071   9.279 -0.5844 -0.2330 -0.4771
  373MOL0     C50263  -1.188   2.132   9.191  0.1255  0.0167 -1.1382
  373MOL0     C50264  -1.123   2.262   9.251 -0.1505  0.0091  0.2443
  373MOL0    Cl50265  -1.223   2.394   9.202  0.0542 -0.5407 -0.3802
  373MOL0     C50266  -1.257   1.249   8.908  0.0133  0.0843  0.2016
  373MOL0     C50267  -1.188   1.146   8.838  0.2394 -0.8359 -0.5512
  373MOL0     O50268  -0.888   1.094   8.702 -0.5629 -0.8922 -0.6758
  373MOL0     C50269  -0.871   0.826   8.633 -0.4854 -0.3901  0.1578
  373MOL0     C50270  -0.816   0.715   8.561 -0.4714 -0.7768 -0.4020
  373MOL0     N50271  -0.669   0.671   7.658 -0.0018  0.9319 -0.2725
  373MOL0     N50272  -0.580   0.630   7.572  0.0948  0.6877 -0.8459
  373MOL0     C50273  -0.055   0.042   6.988 -0.2322  1.8732 -0.1518
  373MOL0     C50274   0.016   0.128   6.903 -0.0956 -0.2503 -0.3073
  373MOL0     C50275   0.346   0.387   6.706  0.3391 -0.5534  0.9414
  373MOL0     C50276   0.266   0.363   6.595 -0.3009 -0.6853 -0.5300
  373MOL0     C50277   0.305   0.421   6.475 -0.8980  0.9361  0.2207
  373MOL0     C50278   0.433   0.475   6.459 -0.0662 -0.0878  0.7623
  373MOL0     O50279   0.472   0.525   6.334 -0.5904  0.6559  0.0940
  373MOL0     C50280   0.412   0.492   6.214 -0.2107 -0.1024  0.4031
  373MOL0     C50281   0.502   0.541   6.095  0.1566  0.0735 -0.2094
  373MOL0     C50282   0.545   0.683   6.111 -0.9242 -1.5720 -1.2293
  373MOL0     C50283   0.628   0.740   5.988 -0.1545  0.5400 -0.1519
  373MOL0     C50284   0.728   0.642   5.937  0.8163  0.3675  0.4352
  373MOL0     C50285   0.797   0.544   5.913 -0.0673 -0.8448 -0.4202
  373MOL0     C50286   0.512   0.500   6.569 -0.1600 -0.4702 -0.7924
  373MOL0     C50287   0.470   0.455   6.694  0.2569  0.1065 -0.5399
  373MOL0     H50288   0.275   0.210   7.092 -2.1213  3.3484  0.2015
  373MOL0     H50289   0.151   0.074   7.256  1.2639  4.0696 -0.8603
  373MOL0     H50290   0.058  -0.161   7.282  2.1132  4.0486  2.1433
  373MOL0     H50291  -0.011  -0.033   7.384 -0.7462  0.2993  1.4892
  373MOL0     H50292  -0.171  -0.276   7.300  2.6935  0.0813 -1.5093
  373MOL0     H50293  -0.084  -0.261   7.460 -2.5106 -3.4111 -1.1291
  373MOL0     H50294  -0.296  -0.082   7.325  1.7188 -2.7039 -2.9655
  373MOL0     H50295  -0.337  -0.197   7.455  0.4666 -1.4738 -1.1972
  373MOL0     H50296  -0.225  -0.089   7.624 -1.5887 -1.7434 -0.2138
  373MOL0     H50297  -0.154   0.039   7.520  0.3486 -1.2820  1.4604
  373MOL0     H50298  -0.464  -0.002   7.550  1.0561 -0.7515 -1.8064
  373MOL0     H50299  -0.362   0.077   7.678  2.9379 -2.0277  0.9521
  373MOL0     H50300  -0.290   0.229   7.481 -0.7531 -0.1309 -1.1830
  373MOL0     H50301  -0.395   0.143   7.379  0.0349  1.3400 -0.2767
  373MOL0     H50302  -0.572   0.287   7.436  0.6835  1.2081  0.0079
  373MOL0     H50303  -0.556   0.252   7.605 -0.6953  0.3989 -0.1365
  373MOL0     H50304  -0.411   0.474   7.461 -3.6955  0.5102 -0.4425
  373MOL0     H50305  -0.348   0.392   7.611  0.1320 -2.3097 -0.8926
  373MOL0     H50306  -0.567   0.397   7.810  0.4664  1.2283  0.9986
  373MOL0     H50307  -0.838   0.651   7.897  0.0496  0.3191 -2.9384
  373MOL0     H50308  -0.761   0.502   7.956 -0.1976 -0.3780 -0.0074
  373MOL0     H50309  -0.685   0.783   7.996 -0.2139 -1.0038  0.2221
  373MOL0     H50310  -0.555   0.674   7.974 -0.1712  5.1262  1.2475
  373MOL0     H50311  -0.664   0.746   8.213  0.6570  0.1778 -0.6325
  373MOL0     H50312  -0.573   0.604   8.197 -1.3710 -1.6076  3.4860
  373MOL0     H50313  -0.785   0.468   8.179  3.3734  2.6551 -3.5450
  373MOL0     H50314  -0.883   0.602   8.179  0.3225 -1.3671 -3.7045
  373MOL0     H50315  -0.925   0.779   8.261  1.7620 -0.3940 -1.0762
  373MOL0     H50316  -0.953   1.129   8.328 -1.2206 -0.1572 -4.0859
  373MOL0     H50317  -0.986   1.011   8.220 -1.2703 -0.7228  0.1688
  373MOL0     H50318  -1.096   1.031   8.354  0.2112  1.7735  1.5658
  373MOL0     H50319  -1.152   1.315   8.540 -0.4734 -1.0933 -0.9608
  373MOL0     H50320  -1.246   1.486   8.659 -2.0932 -1.2752 -1.0489
  373MOL0     H50321  -1.273   1.672   8.871  2.6981 -3.9083 -0.9263
  373MOL0     H50322  -1.404   1.605   8.780 -0.0074  2.2481 -0.5060
  373MOL0     H50323  -1.513   1.748   8.923 -0.9046 -3.6980 -6.7709
  373MOL0     H50324  -1.545   1.594   8.984 -1.2388  0.4798 -1.1247
  373MOL0     H50325  -1.328   1.652   9.151  1.0339  3.3877  1.6050
  373MOL0     H50326  -1.477   1.721   9.185  0.2861  3.2660 -0.2737
  373MOL0     H50327  -1.281   1.865   9.034  0.6377 -1.8005  0.0987
  373MOL0     H50328  -1.442   1.918   9.056 -1.9306 -2.5827  0.0756
  373MOL0     H50329  -1.245   1.876   9.311  0.2102  0.5125  0.1891
  373MOL0     H50330  -1.421   1.885   9.314  0.3392 -3.3420  0.1230
  373MOL0     H50331  -1.405   2.108   9.249 -1.9095 -3.3342 -0.3197
  373MOL0     H50332  -1.282   2.085   9.385 -1.2989 -0.3062 -0.2934
  373MOL0     H50333  -1.226   2.149   9.090 -1.1344  1.1917 -0.4996
  373MOL0     H50334  -1.114   2.052   9.180 -1.2654 -1.1337 -2.6941
  373MOL0     H50335  -1.021   2.273   9.214  1.2689 -1.1268  3.4290
  373MOL0     H50336  -1.116   2.253   9.360 -2.0949  3.9582  0.9130
  373MOL0     H50337  -1.307   1.222   9.001 -0.0677 -6.7476 -1.2985
  373MOL0     H50338  -1.165   1.053   8.889 -0.5102 -1.5364 -1.4527
  373MOL0     H50339  -0.878   0.811   8.740 -1.1701  0.9473  0.3161
  373MOL0     H50340  -0.763   0.638   8.615  1.8409 -0.4095 -1.9827
  373MOL0     H50341  -0.131  -0.018   6.940  2.2019 -1.8992  0.2788
  373MOL0     H50342  -0.015   0.134   6.799  1.1787 -2.0629 -0.8374
  373MOL0     H50343   0.171   0.311   6.593 -0.9486  0.3931  0.6487
  373MOL0     H50344   0.247   0.401   6.386 -2.7718  0.8431  1.4244
  373MOL0     H50345   0.399   0.384   6.210  1.2846 -0.5172  3.5725
  373MOL0     H50346   0.324   0.555   6.198  1.9224  2.7389 -1.0366
  373MOL0     H50347   0.456   0.524   5.997  1.5102 -1.0151 -0.7019
  373MOL0     H50348   0.592   0.479   6.107 -1.2625 -1.6123  2.8735
  373MOL0     H50349   0.602   0.702   6.203 -2.9740 -0.3917 -0.1279
  373MOL0     H50350   0.457   0.749   6.116 -0.4667 -0.3042 -5.6745
  373MOL0     H50351   0.683   0.829   6.021 -1.4929  1.5120 -0.4608
  373MOL0     H50352   0.566   0.772   5.904  1.7129 -0.3407 -1.9694
  373MOL0     H50353   0.851   0.454   5.891  0.7097 -0.5774  0.3510
  373MOL0     H50354   0.610   0.544   6.560  0.2501 -1.1167  0.2062
  373MOL0     H50355   0.517   0.474   6.790 -0.7872 -0.0536  0.0181
  374MOL0     O50356   4.400   1.848   4.444 -0.4913  0.5554 -0.1941
  374MOL0     C50357   4.318   1.930   4.459  0.4399  0.3562 -0.9795
  374MOL0     O50358   4.310   2.043   4.375  0.2088 -0.1549 -0.0065
  374MOL0     C50359   4.382   2.041   4.258 -0.8899  0.1352 -0.3581
  374MOL0     C50360   4.333   1.951   4.167 -0.6805 -0.0627 -0.4575
  374MOL0     C50361   4.394   1.945   4.049  0.3524  0.2893  0.4282
  374MOL0     C50362   4.490   2.030   4.006 -1.3465 -0.2062  0.2158
  374MOL0     O50363   4.546   2.007   3.885  0.1681  0.1106 -0.7492
  374MOL0     C50364   4.455   2.010   3.770  0.9876  0.2602  0.3522
  374MOL0     C50365   4.536   2.054   3.639  0.7111 -0.0163 -0.0715
  374MOL0     C50366   4.620   1.935   3.597  0.0400 -0.5184 -1.0307
  374MOL0     C50367   4.743   1.978   3.513  0.7633  0.6205 -0.0759
  374MOL0     C50368   4.716   2.048   3.385 -0.0553  0.5641  0.4576
  374MOL0     C50369   4.842   2.057   3.287  0.4084 -0.6089 -0.1570
  374MOL0     C50370   4.827   2.183   3.199 -0.5190 -0.3871  0.3418
  374MOL0     C50371   4.953   2.223   3.146  0.4515 -0.5665 -0.0948
  374MOL0     N50372   4.955   2.343   3.053  0.1369 -0.5452  0.2790
  374MOL0     C50373   4.876   2.455   3.056 -0.5056  0.1563  0.4133
  374MOL0     C50374   4.911   2.531   2.955  0.3051  0.2990  0.0922
  374MOL0     C50375   4.838   2.652   2.908  0.2865  0.6718  0.1377
  374MOL0     C50376   4.692   2.635   2.866 -0.3940  0.3207 -0.1949
  374MOL0     C50377   4.613   2.748   2.831  0.6661 -0.7870 -0.4283
  374MOL0     C50378   4.671   2.829   2.717 -0.1625  1.3031  0.0338
  374MOL0     O50379   4.596   2.920   2.635  0.5180  0.7312  0.3886
  374MOL0     C50380   4.591   3.057   2.676  0.2827 -0.7576 -0.3085
  374MOL0     C50381   4.473   3.105   2.754  1.3022  0.0366  0.0167
  374MOL0     C50382   4.461   3.231   2.793  0.8690 -0.2175 -1.5096
  374MOL0     C50383   4.325   3.261   2.852  0.0728  0.6366 -0.1006
  374MOL0     C50384   4.571   3.322   2.775  0.1856 -0.2200  0.8601
  374MOL0     C50385   4.576   3.461   2.821 -0.1504  0.6125  0.9107
  374MOL0     O50386   4.462   3.529   2.839 -0.1320  0.7271  1.4333
  374MOL0     C50387   4.465   3.661   2.875 -0.1975  0.5232  0.9873
  374MOL0     C50388   4.475   3.766   2.785  0.2612 -0.1972  1.1449
  374MOL0     C50389   4.460   3.897   2.825  0.0541 -0.6241 -0.3738
  374MOL0     C50390   4.427   3.930   2.960 -0.1782 -0.3011 -0.5872
  374MOL0     O50391   4.426   4.069   2.990  0.3485  0.0338  0.6188
  374MOL0     C50392   4.319   4.137   2.925  0.1254 -0.0795 -0.6099
  374MOL0     C50393   4.300   4.272   2.994  0.2174  1.1670 -0.0374
  374MOL0     C50394   4.179   4.350   2.932  0.0512  0.5185  0.5130
  374MOL0     C50395   4.151   4.474   3.023  0.2017 -0.7268  0.4268
  374MOL0     C50396   4.032   4.547   2.965 -0.0715 -0.4485  0.3779
  374MOL0     C50397   4.017   4.686   3.033 -0.5258  0.0223 -0.7407
  374MOL0     C50398   3.945   4.793   2.946 -0.5506  0.4253 -0.8330
  374MOL0     C50399   3.835   4.873   3.023 -0.5728  0.7858 -0.0386
  374MOL0    Cl50400   3.711   4.761   3.071 -0.1999 -0.0002 -0.2863
  374MOL0     C50401   4.436   3.825   3.049 -0.0401  0.4963  0.6265
  374MOL0     C50402   4.451   3.695   3.011  0.2872 -0.2411  0.4604
  374MOL0     O50403   4.691   3.508   2.840 -0.1403  0.1966 -0.1907
  374MOL0     C50404   4.677   3.275   2.687 -0.4584  1.1732 -0.7207
  374MOL0     C50405   4.693   3.142   2.642  0.3258 -0.9660 -0.3837
  374MOL0     N50406   5.023   2.478   2.891  0.1423 -0.3947  0.3473
  374MOL0     N50407   5.054   2.370   2.960 -0.6963  0.4435 -0.8607
  374MOL0     C50408   4.539   2.131   4.092 -0.1299 -0.9742  0.2649
  374MOL0     C50409   4.488   2.131   4.226  0.3145  0.0924 -0.1289
  374MOL0     C50410   4.226   1.935   4.572 -0.3917 -0.9659  0.9530
  374MOL0     C50411   4.208   1.817   4.643  0.4226 -0.5868 -0.7440
  374MOL0     C50412   4.102   1.800   4.731 -0.6719  0.0109  0.7860
  374MOL0     C50413   4.014   1.904   4.748 -0.2984  0.2928  0.0154
  374MOL0     O50414   3.919   1.885   4.835 -0.7578  0.0777 -0.6596
  374MOL0     C50415   3.945   1.932   4.966  0.2839  0.4488  0.0707
  374MOL0     C50416   3.828   1.900   5.053 -0.1474  0.6817 -0.4293
  374MOL0     C50417   3.690   1.944   4.983 -0.3652  0.0925 -0.5025
  374MOL0     C50418   3.624   1.835   4.899 -0.7065 -0.1293  0.2358
  374MOL0     C50419   3.536   1.888   4.793 -0.7294 -0.7368 -0.3008
  374MOL0     C50420   3.470   1.963   4.722 -1.3070  0.9217  0.3559
  374MOL0     C50421   4.030   2.024   4.678 -0.2995  0.2901  0.8939
  374MOL0     C50422   4.132   2.037   4.590  0.2695 -0.2031 -0.0083
  374MOL0     H50423   4.268   1.872   4.201 -1.1265  1.6785  3.2475
  374MOL0     H50424   4.370   1.866   3.979  2.4025  1.5977 -1.9136
  374MOL0     H50425   4.419   1.910   3.747  1.6567  0.4480 -1.6735
  374MOL0     H50426   4.366   2.070   3.790 -1.5325 -3.4773  1.4476
  374MOL0     H50427   4.462   2.072   3.559 -0.1257  1.7666  1.0326
  374MOL0     H50428   4.595   2.141   3.670 -2.5949  2.0692  0.9681
  374MOL0     H50429   4.642   1.879   3.688  1.5753  2.5645  0.6958
  374MOL0     H50430   4.560   1.865   3.539 -0.5387 -2.7460  2.0315
  374MOL0     H50431   4.817   2.034   3.571  6.0145 -2.7343 -2.7413
  374MOL0     H50432   4.787   1.882   3.486 -2.4771 -1.2289  0.6197
  374MOL0     H50433   4.641   1.997   3.325  1.8611  0.1580 -1.7066
  374MOL0     H50434   4.687   2.151   3.409 -1.0362  0.3033  0.4037
  374MOL0     H50435   4.930   2.072   3.351 -1.0972  1.7424  1.5480
  374MOL0     H50436   4.849   1.968   3.224  4.1300  1.1143 -2.6304
  374MOL0     H50437   4.751   2.162   3.123 -1.2454 -1.1346  1.2493
  374MOL0     H50438   4.778   2.265   3.252  2.3447  2.6857 -1.3609
  374MOL0     H50439   4.995   2.136   3.095  0.4125 -1.3172  1.1289
  374MOL0     H50440   5.021   2.246   3.228  1.4555 -0.5199 -0.9261
  374MOL0     H50441   4.788   2.478   3.115 -1.6446 -0.4776 -0.9744
  374MOL0     H50442   4.851   2.725   2.988 -0.1376  1.2875 -0.3463
  374MOL0     H50443   4.903   2.687   2.827  0.8790 -3.0406 -1.1877
  374MOL0     H50444   4.650   2.591   2.957 -0.0559 -3.4198 -1.6619
  374MOL0     H50445   4.683   2.564   2.784 -1.3270  2.9012 -2.5016
  374MOL0     H50446   4.593   2.818   2.913  2.3410  2.2225 -2.3871
  374MOL0     H50447   4.520   2.708   2.789 -1.9793  3.7889  0.3266
  374MOL0     H50448   4.726   2.760   2.652 -0.5111 -0.4686  1.5194
  374MOL0     H50449   4.747   2.889   2.768  1.3741  2.4480 -3.3439
  374MOL0     H50450   4.391   3.040   2.782  0.4593  1.0743  0.0488
  374MOL0     H50451   4.335   3.336   2.930 -0.6192  1.5498 -0.8598
  374MOL0     H50452   4.259   3.315   2.783  0.6494  1.4491 -0.0288
  374MOL0     H50453   4.267   3.176   2.892 -0.6362  2.3145  2.6975
  374MOL0     H50454   4.493   3.747   2.680 -0.7966 -0.3607  0.9790
  374MOL0     H50455   4.480   3.984   2.763 -3.7253  0.7266  0.0521
  374MOL0     H50456   4.347   4.146   2.819 -1.1285  1.9355 -0.8136
  374MOL0     H50457   4.224   4.084   2.934  0.6819 -1.4454 -2.1176
  374MOL0     H50458   4.272   4.253   3.098  2.1017 -1.1636  0.1276
  374MOL0     H50459   4.395   4.325   2.991  0.6905  0.2907 -2.3755
  374MOL0     H50460   4.090   4.288   2.920 -0.2385  1.3120 -2.2402
  374MOL0     H50461   4.209   4.376   2.830  1.4987  0.9283  1.0067
  374MOL0     H50462   4.121   4.439   3.122  0.0820  2.4937  1.6640
  374MOL0     H50463   4.242   4.535   3.029  0.2450 -0.8050  0.5648
  374MOL0     H50464   3.939   4.495   2.986 -0.9087  0.5799 -0.6319
  374MOL0     H50465   4.042   4.555   2.856  0.6379  0.9042  0.5129
  374MOL0     H50466   3.964   4.668   3.127 -0.5667  1.7800 -0.4038
  374MOL0     H50467   4.117   4.713   3.067 -0.8664 -0.4625  0.6886
  374MOL0     H50468   3.903   4.743   2.858 -1.6287  0.9504 -0.6302
  374MOL0     H50469   4.018   4.862   2.902 -0.3299  1.6966  1.3991
  374MOL0     H50470   3.798   4.950   2.955  2.3596  0.3800 -2.2959
  374MOL0     H50471   3.880   4.926   3.108  0.3144 -0.2620  0.1695
  374MOL0     H50472   4.425   3.854   3.153 -0.3122 -0.7330  0.9554
  374MOL0     H50473   4.438   3.622   3.090 -2.4690  1.0341  1.3039
  374MOL0     H50474   4.753   3.350   2.667 -2.0413  3.8922  2.4954
  374MOL0     H50475   4.779   3.104   2.589  0.7194 -0.2146 -0.2971
  374MOL0     H50476   4.608   2.213   4.075 -1.4815  0.5958  1.9629
  374MOL0     H50477   4.525   2.201   4.300  1.0071 -0.3166 -0.0807
  374MOL0     H50478   4.273   1.731   4.636  3.0998  0.7249  3.9477
  374MOL0     H50479   4.087   1.702   4.775 -0.3294 -0.2010  0.4358
  374MOL0     H50480   4.041   1.892   4.999  0.2040  0.1814 -0.0206
  374MOL0     H50481   3.939   2.041   4.960 -6.1070  0.4474  0.1722
  374MOL0     H50482   3.841   1.958   5.145 -1.0435  0.9280 -0.4429
  374MOL0     H50483   3.814   1.793   5.072  2.0925 -0.2585 -3.4292
  374MOL0     H50484   3.701   2.031   4.918 -1.2455  0.8312  0.3110
  374MOL0     H50485   3.604   1.957   5.049 -3.0549 -4.4559 -2.5910
  374MOL0     H50486   3.570   1.767   4.965 -1.8776  1.3290  0.8337
  374MOL0     H50487   3.698   1.762   4.863  0.6225  0.5969  1.3908
  374MOL0     H50488   3.415   2.014   4.645 -1.2800 -0.7390 -0.8124
  374MOL0     H50489   3.963   2.106   4.705 -2.2942 -0.1014 -2.3102
  374MOL0     H50490   4.138   2.127   4.530  0.6550 -0.6531 -0.6592
  375MOL0     O50491   0.065   1.762   3.044  0.0992  0.5838  1.1824
  375MOL0     C50492  -0.008   1.668   3.069  0.5217  0.6775  0.0726
  375MOL0     O50493   0.024   1.537   3.112 -0.8693 -0.4455 -0.6510
  375MOL0     C50494   0.161   1.503   3.122 -0.9345 -0.7280 -0.5528
  375MOL0     C50495   0.233   1.432   3.023 -0.5378 -0.1715  0.4800
  375MOL0     C50496   0.371   1.425   3.029  0.0709  0.4571  0.1894
  375MOL0     C50497   0.444   1.489   3.135  0.2851 -1.0647 -0.0094
  375MOL0     O50498   0.584   1.497   3.122  1.2393  0.4009  0.1017
  375MOL0     C50499   0.656   1.491   3.240 -0.5202  0.2519 -0.0292
  375MOL0     C50500   0.804   1.479   3.189  0.8329 -0.8111 -1.4179
  375MOL0     C50501   0.831   1.606   3.113 -0.0883  0.2162 -0.5458
  375MOL0     C50502   0.982   1.615   3.095  1.3569  0.2549 -0.6806
  375MOL0     C50503   1.006   1.706   2.977 -0.1456 -0.3257 -0.1235
  375MOL0     C50504   0.979   1.847   3.025 -0.4096 -0.2516 -0.0924
  375MOL0     C50505   0.994   1.935   2.905 -1.0490 -0.2396  0.2369
  375MOL0     C50506   1.030   2.081   2.940  0.4390  0.7740  1.0196
  375MOL0     N50507   0.918   2.154   3.006  0.4184  0.9528 -0.4460
  375MOL0     C50508   0.827   2.222   2.936  0.1909 -0.6809 -0.1319
  375MOL0     C50509   0.789   2.330   3.007 -0.5950  0.9003  0.0852
  375MOL0     C50510   0.696   2.431   2.963  1.0368 -0.1201 -0.7670
  375MOL0     C50511   0.599   2.408   2.841 -1.4935  1.0384 -0.0457
  375MOL0     C50512   0.545   2.542   2.804  1.2742 -0.7195  0.6303
  375MOL0     C50513   0.622   2.634   2.698 -0.5656  1.2245  0.9576
  375MOL0     O50514   0.748   2.704   2.751 -0.2985  0.3621 -0.1571
  375MOL0     C50515   0.822   2.774   2.661 -0.3613  0.0862  0.9553
  375MOL0     C50516   0.954   2.736   2.654 -0.4947  0.9298  0.2606
  375MOL0     C50517   1.042   2.798   2.569 -0.5624 -0.2635  0.5615
  375MOL0     C50518   1.195   2.753   2.574 -0.0146 -0.1523  0.9641
  375MOL0     C50519   1.001   2.908   2.496 -0.3038 -0.5799 -0.2179
  375MOL0     C50520   1.094   2.983   2.408 -0.6161 -0.0580 -0.6966
  375MOL0     O50521   1.042   3.037   2.294 -0.4097 -0.4829  0.4445
  375MOL0     C50522   1.032   2.964   2.182 -0.0965 -0.4720  0.4514
  375MOL0     C50523   0.963   3.029   2.071  0.1517  0.5291  0.1001
  375MOL0     C50524   0.974   2.972   1.950 -0.5846  0.0158  0.5242
  375MOL0     C50525   1.023   2.846   1.930 -0.1476  0.0200  0.6386
  375MOL0     O50526   1.017   2.797   1.799 -0.5380 -0.5345  0.3142
  375MOL0     C50527   1.034   2.663   1.775  0.5275  0.2644 -0.2699
  375MOL0     C50528   1.024   2.637   1.632  0.3104 -0.3020  0.0733
  375MOL0     C50529   0.974   2.490   1.603 -0.5101 -0.2521  0.0015
  375MOL0     C50530   1.092   2.403   1.568 -0.9394  0.3499 -0.7244
  375MOL0     C50531   1.048   2.254   1.549  0.7038 -0.4466  0.5012
  375MOL0     C50532   1.126   2.175   1.439  0.6669  0.1397  0.0520
  375MOL0     C50533   1.273   2.178   1.471  0.3637  0.5753  0.2268
  375MOL0     C50534   1.334   2.044   1.501  0.0346  0.3197  0.7221
  375MOL0    Cl50535   1.251   1.953   1.629 -0.1849 -0.5552 -0.5324
  375MOL0     C50536   1.079   2.777   2.040  1.3028  0.1005  1.4341
  375MOL0     C50537   1.096   2.845   2.161 -0.1977 -0.1219 -0.4761
  375MOL0     O50538   1.192   3.024   2.469 -0.1869 -0.2934  0.8488
  375MOL0     C50539   0.870   2.950   2.503  0.1282  0.8413 -0.0994
  375MOL0     C50540   0.779   2.880   2.581  0.2666 -0.5298  0.6104
  375MOL0     N50541   0.848   2.326   3.127 -0.4970 -0.0432 -0.1513
  375MOL0     N50542   0.931   2.229   3.127 -0.3463  0.3839  0.9098
  375MOL0     C50543   0.374   1.558   3.234 -0.7267  0.5087  0.2857
  375MOL0     C50544   0.230   1.573   3.226  0.5217  0.7631 -0.2762
  375MOL0     C50545  -0.155   1.678   3.024 -0.0486 -0.3415 -0.2888
  375MOL0     C50546  -0.250   1.575   3.042 -1.3808  0.3208  0.1919
  375MOL0     C50547  -0.390   1.590   3.022 -0.4506 -0.1357  1.6443
  375MOL0     C50548  -0.431   1.714   2.954  0.4880 -0.3411  0.2362
  375MOL0     O50549  -0.566   1.743   2.937 -0.1250 -0.2969  0.7482
  375MOL0     C50550  -0.651   1.638   2.885 -0.3529  0.1771  0.4913
  375MOL0     C50551  -0.591   1.554   2.763 -0.2996  0.7300  0.8456
  375MOL0     C50552  -0.550   1.638   2.643 -0.2616 -0.0656  0.5370
  375MOL0     C50553  -0.516   1.545   2.524 -0.4231 -0.8919 -0.2845
  375MOL0     C50554  -0.470   1.611   2.402  1.1805 -1.3876  0.6603
  375MOL0     C50555  -0.434   1.666   2.302 -0.2768 -0.2122  0.9337
  375MOL0     C50556  -0.325   1.813   2.928 -0.0281 -0.3823  0.3427
  375MOL0     C50557  -0.194   1.793   2.966  0.5764  1.1360  0.5646
  375MOL0     H50558   0.175   1.380   2.946 -0.3265 -0.1923  0.3341
  375MOL0     H50559   0.419   1.361   2.956  0.9146  0.5724  0.6388
  375MOL0     H50560   0.636   1.582   3.297 -0.8803  1.0821 -1.4443
  375MOL0     H50561   0.629   1.406   3.303  1.3671 -0.5003 -0.1717
  375MOL0     H50562   0.870   1.496   3.275 -3.0905 -0.3498  1.7960
  375MOL0     H50563   0.801   1.382   3.140 -0.5179 -2.3022  1.3878
  375MOL0     H50564   0.776   1.594   3.018  2.2170  0.5443 -1.9993
  375MOL0     H50565   0.795   1.698   3.160  1.8055  0.1156  1.2249
  375MOL0     H50566   1.014   1.662   3.188  1.7120 -1.7862  0.2822
  375MOL0     H50567   1.017   1.512   3.088  0.9329 -0.2517  2.8307
  375MOL0     H50568   1.110   1.700   2.942  0.2520  3.5940 -0.0178
  375MOL0     H50569   0.937   1.684   2.896 -0.7049  5.3240 -1.5446
  375MOL0     H50570   0.881   1.870   3.069 -0.1028  1.7784 -0.3758
  375MOL0     H50571   1.058   1.871   3.097  3.0172 -3.1090 -2.5971
  375MOL0     H50572   1.068   1.894   2.836 -2.2998  0.1810 -1.4242
  375MOL0     H50573   0.907   1.942   2.839 -2.0100 -1.7112  1.2865
  375MOL0     H50574   1.059   2.128   2.846 -3.3471  0.2086 -0.6240
  375MOL0     H50575   1.118   2.075   3.005  0.8484 -0.9547  0.3558
  375MOL0     H50576   0.797   2.201   2.834  0.8881 -1.2491 -0.2262
  375MOL0     H50577   0.633   2.452   3.050  0.9447 -2.4625 -0.2044
  375MOL0     H50578   0.745   2.528   2.953  0.5304  0.6976  3.2467
  375MOL0     H50579   0.533   2.321   2.851 -1.2310  0.8468  0.0581
  375MOL0     H50580   0.667   2.373   2.763  0.9003 -0.2955  2.4435
  375MOL0     H50581   0.519   2.603   2.891  1.5863 -1.9375  1.6196
  375MOL0     H50582   0.453   2.529   2.746 -0.0493  2.9227  1.6600
  375MOL0     H50583   0.561   2.715   2.659  1.5398  1.4685 -2.2307
  375MOL0     H50584   0.662   2.569   2.620 -0.1400  1.6159  0.8431
  375MOL0     H50585   0.983   2.654   2.719 -0.4930  3.8444  4.3290
  375MOL0     H50586   1.250   2.826   2.634  1.8839 -1.4654  0.9235
  375MOL0     H50587   1.199   2.655   2.624  0.5717  0.4157  2.0559
  375MOL0     H50588   1.231   2.743   2.471 -3.1232  2.6528 -0.5587
  375MOL0     H50589   0.930   3.131   2.089  2.5540  1.6053 -1.1371
  375MOL0     H50590   0.937   3.033   1.868  1.2519  1.5934  0.8240
  375MOL0     H50591   1.138   2.635   1.797  1.1474  1.7176 -1.2099
  375MOL0     H50592   0.976   2.605   1.847  0.7379  0.6928  0.2520
  375MOL0     H50593   0.943   2.701   1.596  1.1713  0.7150 -0.0742
  375MOL0     H50594   1.113   2.649   1.570  0.0669 -3.1514 -0.9878
  375MOL0     H50595   0.916   2.510   1.512  0.0764 -2.6817 -0.9909
  375MOL0     H50596   0.920   2.435   1.680  1.9715 -3.3001 -0.2411
  375MOL0     H50597   1.138   2.450   1.481  1.1767 -0.5997 -0.1697
  375MOL0     H50598   1.165   2.397   1.649 -0.9163 -1.2647 -0.8385
  375MOL0     H50599   0.941   2.246   1.525  0.6990  1.4723 -0.2608
  375MOL0     H50600   1.044   2.203   1.646 -1.1890 -3.8713 -1.1903
  375MOL0     H50601   1.084   2.074   1.443 -1.5430  1.0046  0.2003
  375MOL0     H50602   1.108   2.222   1.342  0.0962  3.5296  1.6634
  375MOL0     H50603   1.295   2.230   1.564  0.2581  1.0273 -0.0004
  375MOL0     H50604   1.325   2.235   1.393 -0.0585 -1.2421 -1.4632
  375MOL0     H50605   1.441   2.049   1.524 -0.2183 -1.0117  2.4249
  375MOL0     H50606   1.323   1.980   1.413  0.2167  2.6533 -1.0900
  375MOL0     H50607   1.129   2.682   2.023  1.6260  0.5341 -0.2416
  375MOL0     H50608   1.150   2.791   2.238 -1.6949  0.6469  1.1667
  375MOL0     H50609   0.829   3.023   2.434 -2.8775 -1.2429 -0.6897
  375MOL0     H50610   0.679   2.921   2.585  0.9958  1.2526  2.1813
  375MOL0     H50611   0.427   1.616   3.309  0.4344 -1.9048  1.4545
  375MOL0     H50612   0.169   1.625   3.299 -1.0643  0.8739 -1.6174
  375MOL0     H50613  -0.232   1.491   3.108 -3.7714  0.5758  1.2686
  375MOL0     H50614  -0.447   1.513   3.072 -0.1408 -0.5589  1.3541
  375MOL0     H50615  -0.673   1.560   2.959 -1.2122 -0.3507 -0.2945
  375MOL0     H50616  -0.737   1.691   2.843 -1.1414 -0.0572  1.7646
  375MOL0     H50617  -0.655   1.471   2.732  0.3643  1.1453 -1.8551
  375MOL0     H50618  -0.498   1.515   2.806  2.1256  5.7479  0.7904
  375MOL0     H50619  -0.458   1.698   2.649 -1.1362  1.8063 -2.4525
  375MOL0     H50620  -0.620   1.709   2.599 -1.4743 -1.8034 -0.4611
  375MOL0     H50621  -0.603   1.489   2.490 -0.1891 -0.5854 -1.4315
  375MOL0     H50622  -0.439   1.472   2.551 -0.6485 -2.4310 -3.4398
  375MOL0     H50623  -0.408   1.699   2.203 -0.1964  2.3269  1.7371
  375MOL0     H50624  -0.352   1.904   2.875 -0.4284  1.3414  3.2857
  375MOL0     H50625  -0.139   1.879   2.930  0.9712 -0.3611 -2.7634
  376MOL0     O50626   0.278   3.635   6.132 -0.0728 -0.4645 -0.2584
  376MOL0     C50627   0.304   3.724   6.052  0.3130  0.9956 -0.1102
  376MOL0     O50628   0.249   3.844   6.056  0.0802  0.2315  0.1874
  376MOL0     C50629   0.181   3.871   6.170  0.0893  0.0348 -0.4134
  376MOL0     C50630   0.044   3.863   6.157 -0.4205 -0.2048  0.2327
  376MOL0     C50631  -0.033   3.893   6.275 -0.4278 -0.7706  0.2400
  376MOL0     C50632   0.029   3.922   6.397 -0.6254 -0.6002  0.6043
  376MOL0     O50633  -0.037   3.948   6.512 -0.1216 -0.1524  0.1024
  376MOL0     C50634  -0.176   3.921   6.529 -0.2673 -0.3268  0.7644
  376MOL0     C50635  -0.209   3.956   6.674 -1.0614 -0.3700  0.0075
  376MOL0     C50636  -0.357   3.944   6.707  0.0762 -0.4274  0.3896
  376MOL0     C50637  -0.372   3.971   6.857 -0.4640 -0.2122 -0.0822
  376MOL0     C50638  -0.522   3.997   6.897 -0.4944 -0.3183 -0.4180
  376MOL0     C50639  -0.545   4.149   6.878 -0.7492 -0.5789 -1.1418
  376MOL0     C50640  -0.693   4.176   6.899 -0.2627 -0.4557 -0.6089
  376MOL0     C50641  -0.749   4.134   7.039 -0.0804 -0.0251  0.1253
  376MOL0     N50642  -0.901   4.150   7.048 -0.5136  0.1745  0.5434
  376MOL0     C50643  -0.996   4.079   6.984  0.4289  1.1896 -0.1688
  376MOL0     C50644  -1.107   4.125   7.047  0.4605  0.4196  0.6906
  376MOL0     C50645  -1.245   4.075   7.020  0.5189 -0.7682 -0.1132
  376MOL0     C50646  -1.343   4.136   7.113 -0.9347 -0.3104 -0.2624
  376MOL0     C50647  -1.489   4.112   7.089  0.3078 -0.5052 -0.8104
  376MOL0     C50648  -1.532   3.975   7.056 -0.7837  0.0075 -0.4783
  376MOL0     O50649  -1.672   3.979   7.020 -0.5841 -0.2690 -0.5249
  376MOL0     C50650  -1.750   3.881   7.081 -0.9098 -0.1556  0.6331
  376MOL0     C50651  -1.821   3.794   6.996  0.0250  0.4717  0.2290
  376MOL0     C50652  -1.912   3.691   7.039 -0.3948 -0.3046  0.2659
  376MOL0     C50653  -2.011   3.648   6.934  0.1658  0.3690 -0.5029
  376MOL0     C50654  -1.915   3.657   7.172 -0.2951 -0.0649 -0.2856
  376MOL0     C50655  -1.990   3.542   7.228  0.5322  0.2295 -1.3698
  376MOL0     O50656  -2.013   3.540   7.358 -0.5860  0.1816 -0.0821
  376MOL0     C50657  -2.073   3.434   7.418 -0.0072  0.5733  0.4424
  376MOL0     C50658  -2.006   3.331   7.490  0.1352  0.1942 -0.5470
  376MOL0     C50659  -2.079   3.223   7.555  0.0068 -0.5960  0.0576
  376MOL0     C50660  -2.221   3.208   7.540  0.0367 -0.1427  0.5448
  376MOL0     O50661  -2.286   3.125   7.622  0.0419  0.0186  0.3358
  376MOL0     C50662  -2.408   3.067   7.582 -0.3744  0.2366  0.3644
  376MOL0     C50663  -2.465   2.950   7.665 -0.1811 -0.3123 -0.4174
  376MOL0     C50664  -2.450   2.803   7.617  0.3295  0.5462  0.1058
  376MOL0     C50665  -2.296   2.760   7.618  0.2207  0.4277 -0.1121
  376MOL0     C50666  -2.254   2.742   7.765 -0.5249  0.3470 -0.1057
  376MOL0     C50667  -2.100   2.698   7.768 -0.7522  0.0877 -0.3951
  376MOL0     C50668  -2.031   2.649   7.900  0.2352 -0.7105 -0.0917
  376MOL0     C50669  -2.040   2.497   7.912  0.4606  0.0916 -0.6399
  376MOL0    Cl50670  -1.910   2.435   7.802 -0.3099 -0.2448  0.1473
  376MOL0     C50671  -2.282   3.310   7.458  0.3195  0.1569  0.0362
  376MOL0     C50672  -2.211   3.411   7.399  0.4224 -0.7699 -0.3885
  376MOL0     O50673  -2.013   3.450   7.155 -0.1515 -0.2369  0.4625
  376MOL0     C50674  -1.825   3.729   7.260  1.7201 -0.1534  0.0464
  376MOL0     C50675  -1.758   3.844   7.215 -0.3924 -1.5583  0.1605
  376MOL0     N50676  -1.071   4.227   7.139  0.6085 -0.2375 -0.1231
  376MOL0     N50677  -0.950   4.239   7.131  0.0305 -1.3850  0.9213
  376MOL0     C50678   0.172   3.927   6.399 -0.0793  0.2083 -0.3793
  376MOL0     C50679   0.248   3.915   6.289 -0.8730  0.4483  0.0268
  376MOL0     C50680   0.385   3.697   5.933 -0.5943 -0.0138 -0.4481
  376MOL0     C50681   0.355   3.767   5.812 -0.3194  0.4864 -0.0895
  376MOL0     C50682   0.442   3.766   5.705  0.7265 -0.1000 -0.3480
  376MOL0     C50683   0.571   3.704   5.710  0.9833 -0.0813  0.3089
  376MOL0     O50684   0.643   3.724   5.595  0.1507  0.2440  0.1596
  376MOL0     C50685   0.782   3.669   5.612  0.6054 -0.4570 -0.2470
  376MOL0     C50686   0.866   3.732   5.730  0.4582  0.2840  0.2093
  376MOL0     C50687   0.839   3.880   5.732 -0.8539 -0.4533 -0.8924
  376MOL0     C50688   0.930   3.967   5.821  1.1273 -0.1432  0.5971
  376MOL0     C50689   0.943   3.958   5.968 -0.5386  0.5382 -0.2682
  376MOL0     C50690   0.965   3.953   6.090  0.4996  0.1776  0.0915
  376MOL0     C50691   0.593   3.620   5.822 -0.1991  0.0891  0.0336
  376MOL0     C50692   0.500   3.613   5.932  0.2823  0.2113  0.5448
  376MOL0     H50693  -0.001   3.844   6.060 -3.0851 -1.0502  1.5421
  376MOL0     H50694  -0.140   3.874   6.269 -0.2308 -1.3493 -2.7895
  376MOL0     H50695  -0.232   3.987   6.461 -0.6410 -0.4267  0.9728
  376MOL0     H50696  -0.205   3.821   6.497 -1.0704  0.7661 -2.2924
  376MOL0     H50697  -0.156   3.899   6.751 -0.0730 -0.9895 -1.1146
  376MOL0     H50698  -0.183   4.063   6.676  1.3735 -0.9205  1.7302
  376MOL0     H50699  -0.403   4.025   6.650 -0.5631 -1.5824 -0.7937
  376MOL0     H50700  -0.398   3.849   6.673 -1.6286  1.2868 -2.8035
  376MOL0     H50701  -0.338   3.886   6.917  2.5694 -1.5576 -3.2980
  376MOL0     H50702  -0.311   4.060   6.872  1.2012 -0.8680 -2.3523
  376MOL0     H50703  -0.582   3.938   6.826 -3.0674  0.3366  1.0751
  376MOL0     H50704  -0.536   3.975   7.004 -0.9015 -1.3727 -0.6747
  376MOL0     H50705  -0.489   4.218   6.942 -0.3311  0.4324 -2.5460
  376MOL0     H50706  -0.511   4.173   6.777  1.8455  1.7808  0.1595
  376MOL0     H50707  -0.716   4.283   6.905  0.1042 -0.4681  1.8494
  376MOL0     H50708  -0.743   4.123   6.817 -0.8326 -3.7994  1.7180
  376MOL0     H50709  -0.702   4.193   7.117  0.2886 -2.8585  2.2057
  376MOL0     H50710  -0.733   4.027   7.057  2.2267  0.4231  1.0337
  376MOL0     H50711  -0.999   3.993   6.918  0.3938 -0.1591  1.5251
  376MOL0     H50712  -1.277   4.102   6.919 -1.3339  1.5131  0.9747
  376MOL0     H50713  -1.252   3.966   7.024  1.6191 -0.8653 -0.3492
  376MOL0     H50714  -1.322   4.243   7.120 -1.3810 -0.2064 -0.5208
  376MOL0     H50715  -1.308   4.080   7.201 -0.5960 -1.3362 -1.0298
  376MOL0     H50716  -1.530   4.188   7.021  2.6232  0.7556 -0.8981
  376MOL0     H50717  -1.536   4.125   7.187 -0.6455 -0.1923 -1.2925
  376MOL0     H50718  -1.528   3.911   7.145 -2.0989 -1.2798 -1.2917
  376MOL0     H50719  -1.481   3.938   6.967 -0.1440  3.1207 -1.5164
  376MOL0     H50720  -1.829   3.822   6.891 -0.2871 -0.3762  0.0197
  376MOL0     H50721  -2.107   3.633   6.983  0.6084 -2.1464 -0.2644
  376MOL0     H50722  -2.011   3.719   6.851 -1.1319 -0.6042 -1.3615
  376MOL0     H50723  -1.988   3.551   6.891 -1.2700  0.9775 -2.7860
  376MOL0     H50724  -1.899   3.340   7.506  0.8763 -2.6654 -3.0117
  376MOL0     H50725  -2.018   3.165   7.623 -1.4205 -2.7645 -0.4411
  376MOL0     H50726  -2.493   3.135   7.573  0.1600  0.8198 -0.3064
  376MOL0     H50727  -2.386   3.032   7.481  0.4265  1.6419  0.0262
  376MOL0     H50728  -2.427   2.972   7.766  1.3887 -1.9485 -0.5993
  376MOL0     H50729  -2.573   2.967   7.665 -0.4838 -1.9317  1.3346
  376MOL0     H50730  -2.499   2.795   7.520  0.4373 -2.8211  0.2143
  376MOL0     H50731  -2.502   2.731   7.680  0.0456  0.5909 -0.0756
  376MOL0     H50732  -2.286   2.662   7.570 -1.2598 -0.5789  1.5166
  376MOL0     H50733  -2.229   2.827   7.563 -0.2298  0.1905 -0.9826
  376MOL0     H50734  -2.310   2.664   7.817 -0.7223  1.7218  1.8060
  376MOL0     H50735  -2.264   2.833   7.824 -0.7101  0.2726 -0.0223
  376MOL0     H50736  -2.070   2.633   7.685 -5.2829 -0.6132 -1.7456
  376MOL0     H50737  -2.044   2.791   7.755 -1.8511  0.9310  0.6701
  376MOL0     H50738  -2.085   2.689   7.986  1.5709 -0.0551  0.4771
  376MOL0     H50739  -1.926   2.680   7.905  0.2113 -0.6459  0.0121
  376MOL0     H50740  -2.137   2.448   7.901 -1.0740  2.4181  1.2790
  376MOL0     H50741  -2.032   2.478   8.020 -1.7640  1.2955 -0.1891
  376MOL0     H50742  -2.390   3.312   7.441  0.2372 -2.5195 -0.1382
  376MOL0     H50743  -2.257   3.480   7.329  1.0986  0.1336  0.0464
  376MOL0     H50744  -1.832   3.699   7.364  1.0925 -2.0885 -0.5151
  376MOL0     H50745  -1.701   3.900   7.288 -0.3006 -2.6278  0.9326
  376MOL0     H50746   0.216   3.938   6.497 -0.2757  0.0277 -0.2708
  376MOL0     H50747   0.356   3.918   6.300 -0.6233 -2.7642 -0.7023
  376MOL0     H50748   0.272   3.837   5.821  1.6920  2.9269  0.8614
  376MOL0     H50749   0.409   3.826   5.621 -2.1593  0.0067  0.7429
  376MOL0     H50750   0.769   3.561   5.610 -0.8986 -0.2827 -0.7954
  376MOL0     H50751   0.843   3.703   5.527  0.7144  1.0239  0.3947
  376MOL0     H50752   0.974   3.723   5.715  0.6408 -0.3891  1.7787
  376MOL0     H50753   0.834   3.693   5.827 -1.3293  0.7079 -0.1606
  376MOL0     H50754   0.740   3.904   5.772 -1.4038  0.2180 -2.5604
  376MOL0     H50755   0.838   3.928   5.634 -2.2488  0.5575 -0.4190
  376MOL0     H50756   0.898   4.071   5.809 -2.9560 -1.5379 -3.5277
  376MOL0     H50757   1.028   3.947   5.779  2.1337 -2.5204  3.7036
  376MOL0     H50758   0.983   3.964   6.195  0.5555  1.4561 -0.0425
  376MOL0     H50759   0.679   3.555   5.836 -1.3342 -2.3860 -3.2601
  376MOL0     H50760   0.510   3.539   6.012  1.1772 -2.6075 -2.0030
  377MOL0     O50761  11.041  10.349   4.314  0.8302  0.6472 -0.4081
  377MOL0     C50762  10.935  10.304   4.357  0.0325  0.6826 -0.3375
  377MOL0     O50763  10.823  10.376   4.397  0.1418  0.1174 -0.3560
  377MOL0     C50764  10.804  10.508   4.387 -0.8788  0.6449 -0.8069
  377MOL0     C50765  10.689  10.556   4.437 -0.2543 -0.1266  0.2925
  377MOL0     C50766  10.651  10.682   4.411 -0.5068 -0.1167  0.0435
  377MOL0     C50767  10.747  10.781   4.369 -0.2549 -0.2160  0.1977
  377MOL0     O50768  10.715  10.911   4.354 -1.1150 -0.4380 -0.5891
  377MOL0     C50769  10.625  10.976   4.450  0.0064  1.0008  0.0851
  377MOL0     C50770  10.609  11.114   4.407  0.0401 -0.4483  1.5248
  377MOL0     C50771  10.526  11.205   4.493  0.5589 -0.8871 -0.2250
  377MOL0     C50772  10.526  11.342   4.438  0.0313 -0.3896  0.5434
  377MOL0     C50773  10.450  11.436   4.533 -0.4362 -0.3851 -0.0480
  377MOL0     C50774  10.539  11.498   4.639 -0.1078 -1.0969 -0.2239
  377MOL0     C50775  10.480  11.631   4.684 -0.1948 -0.4894 -1.0456
  377MOL0     C50776  10.512  11.757   4.601  0.7872  0.8932  0.3146
  377MOL0     N50777  10.429  11.880   4.629 -0.6360 -0.8742 -0.0264
  377MOL0     C50778  10.291  11.882   4.603 -0.0878 -0.9029  0.5881
  377MOL0     C50779  10.250  12.008   4.618 -0.9449  0.5104  0.4330
  377MOL0     C50780  10.108  12.066   4.621  0.0069  0.2091 -0.8026
  377MOL0     C50781  10.067  12.081   4.765 -1.0526  0.6065 -1.0737
  377MOL0     C50782  10.067  11.959   4.855  0.9292  0.1076  0.1832
  377MOL0     C50783  10.003  11.983   4.994 -0.1636  1.2117  0.2131
  377MOL0     O50784   9.977  11.856   5.069  0.0583  0.2902  0.0154
  377MOL0     C50785   9.861  11.785   5.030 -0.5190 -0.0954  0.7274
  377MOL0     C50786   9.835  11.664   5.098 -0.9917  0.0257 -1.3264
  377MOL0     C50787   9.727  11.574   5.066 -0.6134  0.3366 -0.7942
  377MOL0     C50788   9.718  11.436   5.131 -0.3361 -0.4696 -0.0113
  377MOL0     C50789   9.633  11.619   4.984 -0.1143 -1.2511 -0.1973
  377MOL0     C50790   9.502  11.547   4.964  1.2116  1.0596  0.4239
  377MOL0     O50791   9.460  11.445   5.057  0.5225 -0.2506  0.1075
  377MOL0     C50792   9.331  11.390   5.051 -0.8663 -0.6240 -0.2160
  377MOL0     C50793   9.336  11.262   5.112  0.9101  0.9812  0.5648
  377MOL0     C50794   9.217  11.186   5.127 -0.5233 -1.0828 -0.3402
  377MOL0     C50795   9.093  11.240   5.082  0.6463  0.3763 -0.2725
  377MOL0     O50796   8.986  11.164   5.104 -0.0312 -0.5492 -0.1203
  377MOL0     C50797   8.904  11.213   5.208  0.8519 -1.0124  0.9953
  377MOL0     C50798   8.832  11.104   5.285 -0.7776  0.9734  0.6183
  377MOL0     C50799   8.954  11.014   5.339  0.1247 -0.1345  0.9087
  377MOL0     C50800   8.887  10.905   5.426 -0.0242 -1.3409  0.6421
  377MOL0     C50801   8.984  10.797   5.460 -0.9392  0.5504 -0.5075
  377MOL0     C50802   8.913  10.697   5.547 -0.4708 -0.0398  0.2058
  377MOL0     C50803   8.930  10.724   5.693  0.2318  0.1837 -0.1316
  377MOL0     C50804   8.811  10.681   5.778  0.5362  0.3075 -0.4399
  377MOL0    Cl50805   8.641  10.743   5.736 -0.4740 -0.4308  0.6945
  377MOL0     C50806   9.088  11.373   5.035 -0.8074 -0.3547  1.0180
  377MOL0     C50807   9.211  11.447   5.016  1.2647  0.7287  0.1565
  377MOL0     O50808   9.435  11.592   4.877 -0.1071 -0.2778  0.2115
  377MOL0     C50809   9.662  11.737   4.900  0.3836 -0.3117  0.2458
  377MOL0     C50810   9.773  11.818   4.924 -0.7921  0.2819 -0.3814
  377MOL0     N50811  10.368  12.081   4.641  0.1062 -1.0440  0.4244
  377MOL0     N50812  10.479  12.006   4.634  0.4791 -0.0462  0.6057
  377MOL0     C50813  10.873  10.731   4.333  0.0141  0.4655 -0.3887
  377MOL0     C50814  10.897  10.597   4.333  0.7165 -0.5007  0.9862
  377MOL0     C50815  10.926  10.164   4.382 -0.2572  0.5765 -0.1733
  377MOL0     C50816  10.824  10.111   4.456 -0.3239 -0.5277  0.9447
  377MOL0     C50817  10.806   9.972   4.466 -0.2033  0.4052 -0.3357
  377MOL0     C50818  10.895   9.879   4.404 -0.4229 -0.3835  0.9642
  377MOL0     O50819  10.882   9.739   4.409  0.2499  0.2679 -0.8189
  377MOL0     C50820  10.776   9.686   4.498 -0.9480 -0.3533 -0.0149
  377MOL0     C50821  10.630   9.680   4.429 -0.0831  0.7291 -0.1739
  377MOL0     C50822  10.533   9.604   4.514  0.2726 -0.5587 -0.1069
  377MOL0     C50823  10.399   9.679   4.536  0.3328 -0.5859 -0.0691
  377MOL0     C50824  10.316   9.630   4.421 -0.2917  0.5743  0.7323
  377MOL0     C50825  10.245   9.595   4.326  0.3478  0.0155  0.6882
  377MOL0     C50826  10.998   9.933   4.319  0.4787  0.1608 -0.3556
  377MOL0     C50827  11.015  10.070   4.323  0.4284 -0.8211 -0.3207
  377MOL0     H50828  10.622  10.480   4.476  1.6911 -1.3534  1.4680
  377MOL0     H50829  10.550  10.706   4.442  0.3472  2.7953  0.9135
  377MOL0     H50830  10.534  10.915   4.444 -0.7720  2.0400  0.9813
  377MOL0     H50831  10.659  10.986   4.553 -0.3309  1.7437  0.1298
  377MOL0     H50832  10.710  11.156   4.403 -1.6522  4.2525  0.9521
  377MOL0     H50833  10.562  11.105   4.308  0.4853 -0.9927  1.3614
  377MOL0     H50834  10.424  11.170   4.475 -0.1481  1.4815 -1.2761
  377MOL0     H50835  10.551  11.196   4.599  0.8271  1.8498  0.0111
  377MOL0     H50836  10.631  11.373   4.428  0.2285 -1.6058 -2.3340
  377MOL0     H50837  10.480  11.352   4.340 -1.1750  0.6916  1.1945
  377MOL0     H50838  10.406  11.513   4.470  1.6700  1.6379  0.8231
  377MOL0     H50839  10.369  11.393   4.593 -0.2533 -0.6718  0.0020
  377MOL0     H50840  10.555  11.438   4.729 -1.9170 -0.5256  0.5183
  377MOL0     H50841  10.637  11.518   4.595  0.7843 -1.5309  1.4953
  377MOL0     H50842  10.372  11.615   4.690 -0.0872 -1.2194 -0.9682
  377MOL0     H50843  10.520  11.662   4.781 -0.7063 -1.6270 -0.4563
  377MOL0     H50844  10.494  11.739   4.495  1.5101 -2.4676  0.6406
  377MOL0     H50845  10.617  11.780   4.619  2.1028 -4.8877  2.3576
  377MOL0     H50846  10.230  11.798   4.571 -0.6668  0.0773 -0.9412
  377MOL0     H50847  10.091  12.162   4.572 -6.3725 -0.1979 -0.1729
  377MOL0     H50848  10.029  12.013   4.567 -2.2161  1.1278  1.3489
  377MOL0     H50849   9.964  12.116   4.758 -1.4695 -0.6583 -1.6056
  377MOL0     H50850  10.128  12.144   4.830 -1.5718  0.7374 -0.7073
  377MOL0     H50851  10.166  11.913   4.862  1.1570 -0.0093 -2.5970
  377MOL0     H50852  10.013  11.875   4.810  4.9676 -2.5246 -0.2354
  377MOL0     H50853   9.912  12.043   4.984 -2.4768 -2.1320 -0.9988
  377MOL0     H50854  10.080  12.044   5.041  1.0561 -1.5995  2.1466
  377MOL0     H50855   9.905  11.643   5.177 -1.3550 -2.1270 -1.5203
  377MOL0     H50856   9.649  11.435   5.216 -3.6138  0.6608 -2.4329
  377MOL0     H50857   9.689  11.361   5.057  1.9337 -0.1769 -1.2971
  377MOL0     H50858   9.821  11.409   5.156  0.4660  1.1291 -1.3583
  377MOL0     H50859   9.428  11.226   5.157 -0.1854  0.3700  2.4119
  377MOL0     H50860   9.216  11.095   5.185 -2.3320 -0.9031 -0.0297
  377MOL0     H50861   8.961  11.283   5.271  0.2899  1.8476 -1.4530
  377MOL0     H50862   8.830  11.275   5.157  0.6916 -2.2584 -0.3262
  377MOL0     H50863   8.775  11.143   5.370 -0.1483 -1.9949  2.5921
  377MOL0     H50864   8.774  11.050   5.210 -0.8658  4.1949 -1.8448
  377MOL0     H50865   9.020  11.075   5.402  0.1174 -0.9424  1.7190
  377MOL0     H50866   9.013  10.971   5.259  0.4355  1.6087  0.1541
  377MOL0     H50867   8.851  10.958   5.514 -3.3851  3.3542 -3.0697
  377MOL0     H50868   8.805  10.860   5.370 -0.4327  0.9490 -0.7103
  377MOL0     H50869   9.072  10.836   5.512 -3.2589  3.2279  1.7076
  377MOL0     H50870   9.025  10.761   5.365 -2.8817  0.5265 -1.3703
  377MOL0     H50871   8.815  10.665   5.511  1.1260 -5.3232 -0.3022
  377MOL0     H50872   8.962  10.603   5.520 -0.5511  0.2670 -1.1122
  377MOL0     H50873   8.945  10.832   5.700  0.4322  0.4492 -3.2273
  377MOL0     H50874   9.022  10.675   5.725  0.9520 -0.4789 -2.9233
  377MOL0     H50875   8.835  10.707   5.882 -0.8657 -0.8816  0.2373
  377MOL0     H50876   8.799  10.573   5.762 -1.0955  0.5960 -1.4891
  377MOL0     H50877   8.994  11.426   5.025  0.7879  3.1332  2.7341
  377MOL0     H50878   9.203  11.549   4.978 -0.1667 -0.8061 -4.3243
  377MOL0     H50879   9.594  11.776   4.825 -1.6396 -0.3904  1.9600
  377MOL0     H50880   9.787  11.910   4.868  1.5827  0.3461  0.2210
  377MOL0     H50881  10.955  10.792   4.296  0.4802 -0.5576 -1.0828
  377MOL0     H50882  10.990  10.565   4.287  0.3594 -0.0093 -0.1227
  377MOL0     H50883  10.761  10.182   4.509  1.0991  1.7586 -0.3234
  377MOL0     H50884  10.730   9.940   4.538 -0.5966 -0.6874 -1.2028
  377MOL0     H50885  10.802   9.586   4.534  0.4834 -0.3349 -0.9306
  377MOL0     H50886  10.786   9.738   4.593  1.5158  1.0944 -0.9767
  377MOL0     H50887  10.642   9.612   4.344  3.4351  0.0504  0.7319
  377MOL0     H50888  10.597   9.780   4.398  1.3634  1.5933  0.9188
  377MOL0     H50889  10.579   9.582   4.611  1.6926  3.7414  0.4132
  377MOL0     H50890  10.522   9.506   4.468  4.6485 -0.8445 -1.0176
  377MOL0     H50891  10.412   9.785   4.512  0.7616 -0.5978  0.1026
  377MOL0     H50892  10.357   9.673   4.637 -2.0966  1.0466 -0.8736
  377MOL0     H50893  10.206   9.550   4.237  2.7337 -2.5255  0.7780
  377MOL0     H50894  11.066   9.860   4.278  1.6389  2.8150 -3.5706
  377MOL0     H50895  11.089  10.108   4.253 -2.5307  1.1757 -2.6472
  378MOL0     O50896   2.442   6.168   6.758  0.9835  0.7762  0.8487
  378MOL0     C50897   2.324   6.136   6.765 -0.7667 -0.2722  0.0116
  378MOL0     O50898   2.272   6.039   6.842  0.4543 -0.1786 -0.5706
  378MOL0     C50899   2.354   5.969   6.928  0.6336 -0.1917 -0.0701
  378MOL0     C50900   2.405   6.013   7.056  0.1099 -0.1130 -0.2590
  378MOL0     C50901   2.497   5.939   7.132  0.2031 -0.8965 -0.4625
  378MOL0     C50902   2.542   5.817   7.090  0.8590  0.0111  0.4504
  378MOL0     O50903   2.651   5.754   7.150  0.6381 -0.2872  0.7323
  378MOL0     C50904   2.707   5.629   7.098  0.1072 -0.8088  0.4681
  378MOL0     C50905   2.824   5.581   7.188  0.1192  1.1641 -0.7195
  378MOL0     C50906   2.950   5.675   7.200  0.8588  0.2233 -0.4673
  378MOL0     C50907   3.069   5.628   7.288 -0.6428 -1.1010 -0.6741
  378MOL0     C50908   3.207   5.706   7.274  0.9158  0.2049 -0.7395
  378MOL0     C50909   3.313   5.625   7.352  0.1392  1.0143 -0.6860
  378MOL0     C50910   3.443   5.697   7.357 -1.4552  0.0365  0.5883
  378MOL0     C50911   3.538   5.650   7.251  0.1256  0.1487  0.3895
  378MOL0     N50912   3.658   5.735   7.254 -1.0123  0.4910 -0.3899
  378MOL0     C50913   3.774   5.710   7.333  0.9952  0.4509  0.9203
  378MOL0     C50914   3.816   5.834   7.367 -0.1466 -1.0610 -0.7773
  378MOL0     C50915   3.942   5.860   7.451 -0.9362  0.2302  0.3704
  378MOL0     C50916   4.072   5.833   7.373  0.8719  0.8303  0.7335
  378MOL0     C50917   4.184   5.921   7.415  1.0891 -0.9623 -0.4039
  378MOL0     C50918   4.306   5.838   7.405 -0.2401 -0.1675  0.3828
  378MOL0     O50919   4.315   5.747   7.510 -0.4906 -0.2272  0.1218
  378MOL0     C50920   4.359   5.794   7.629 -0.2441  0.0268 -0.0015
  378MOL0     C50921   4.382   5.682   7.721 -0.1625 -0.3606 -0.2439
  378MOL0     C50922   4.435   5.707   7.847  0.7180  0.1695  0.3333
  378MOL0     C50923   4.428   5.600   7.945 -0.2111  0.3871 -0.3408
  378MOL0     C50924   4.484   5.836   7.876 -1.2296  0.6912 -0.5894
  378MOL0     C50925   4.561   5.871   7.999 -0.0979 -0.5844 -0.6500
  378MOL0     O50926   4.665   5.962   7.988  0.1690  0.4046 -0.4054
  378MOL0     C50927   4.744   5.975   8.102 -0.0441  0.1938  0.5482
  378MOL0     C50928   4.876   6.000   8.078 -0.9780 -0.8978  0.0358
  378MOL0     C50929   4.964   6.019   8.188 -0.8484  0.1529  0.4105
  378MOL0     C50930   4.924   6.012   8.316 -0.0068  0.3852 -1.1463
  378MOL0     O50931   5.012   6.031   8.415  0.3783 -0.5326 -0.0910
  378MOL0     C50932   5.144   6.089   8.401 -0.4008 -0.9050 -0.4095
  378MOL0     C50933   5.200   6.130   8.529 -0.4508  0.0315  0.7184
  378MOL0     C50934   5.120   6.253   8.582 -0.2038 -0.2006  0.5376
  378MOL0     C50935   5.200   6.330   8.696 -1.0358  0.1984 -0.2009
  378MOL0     C50936   5.104   6.408   8.781 -0.1874  0.2587 -0.4977
  378MOL0     C50937   5.177   6.509   8.860 -1.2126 -0.3025 -0.3390
  378MOL0     C50938   5.094   6.587   8.952  0.7423  0.5251  0.4935
  378MOL0     C50939   5.183   6.662   9.054  0.7102  0.0618 -0.1183
  378MOL0    Cl50940   5.075   6.755   9.162 -0.1848 -0.1286 -0.0622
  378MOL0     C50941   4.786   6.008   8.337 -0.7746  1.3700 -0.3434
  378MOL0     C50942   4.695   5.990   8.235 -0.2446  1.0093 -0.7828
  378MOL0     O50943   4.537   5.799   8.098 -0.6556  0.0951  0.2042
  378MOL0     C50944   4.476   5.946   7.784  0.2758 -0.1986 -0.3377
  378MOL0     C50945   4.401   5.926   7.667 -0.6282 -0.7575 -0.2228
  378MOL0     N50946   3.745   5.929   7.308  0.2039  0.3306  0.5545
  378MOL0     N50947   3.646   5.868   7.235  0.5725 -0.5199  0.4147
  378MOL0     C50948   2.485   5.769   6.967  0.2536 -0.8901 -0.0386
  378MOL0     C50949   2.394   5.848   6.885  0.4291 -0.2339  0.6290
  378MOL0     C50950   2.223   6.217   6.713  0.2682 -1.2258  1.0822
  378MOL0     C50951   2.250   6.334   6.644  0.5943  1.0394  0.5602
  378MOL0     C50952   2.147   6.421   6.603 -0.1692  0.0121 -1.0917
  378MOL0     C50953   2.018   6.396   6.626 -0.5725  0.3031 -0.2001
  378MOL0     O50954   1.925   6.481   6.573  0.1367 -0.7300  0.2888
  378MOL0     C50955   1.792   6.450   6.602  0.2526 -0.1987 -0.5353
  378MOL0     C50956   1.697   6.568   6.568 -0.1993  0.4485  0.4342
  378MOL0     C50957   1.562   6.551   6.636  0.6977  0.0328 -0.0676
  378MOL0     C50958   1.571   6.602   6.783  0.5454 -0.2881 -0.2691
  378MOL0     C50959   1.450   6.687   6.826 -0.4985 -0.2209  0.3860
  378MOL0     C50960   1.357   6.758   6.865 -0.1286  0.5179 -0.7937
  378MOL0     C50961   1.981   6.279   6.696 -0.2319  1.4609  0.5051
  378MOL0     C50962   2.083   6.184   6.730 -0.7222 -0.0924  0.2753
  378MOL0     H50963   2.369   6.106   7.097 -1.2980 -0.6456 -0.2348
  378MOL0     H50964   2.548   5.982   7.218  0.2388 -0.4836 -0.6884
  378MOL0     H50965   2.631   5.550   7.100 -0.8862  0.1184  2.7506
  378MOL0     H50966   2.747   5.639   6.997 -1.7682  1.3771 -0.1349
  378MOL0     H50967   2.786   5.580   7.290 -0.5094 -1.6473 -0.8877
  378MOL0     H50968   2.853   5.481   7.155  1.4585  1.6535 -1.1315
  378MOL0     H50969   3.002   5.675   7.104  0.1123 -0.9282 -0.9046
  378MOL0     H50970   2.913   5.771   7.237 -1.8676 -1.7276  2.4003
  378MOL0     H50971   3.037   5.631   7.392  2.9763  0.0003  0.5540
  378MOL0     H50972   3.081   5.528   7.245 -2.4631 -0.8531 -1.8572
  378MOL0     H50973   3.225   5.720   7.167  2.7972  1.1853 -0.3446
  378MOL0     H50974   3.194   5.808   7.313 -0.7552 -0.9833  2.2132
  378MOL0     H50975   3.273   5.615   7.453  0.0685  0.5586 -0.7580
  378MOL0     H50976   3.328   5.527   7.305  0.3117  1.5634 -1.8015
  378MOL0     H50977   3.433   5.806   7.357  2.1765  0.5065  1.6231
  378MOL0     H50978   3.485   5.676   7.456 -0.3371  2.2040  0.6382
  378MOL0     H50979   3.496   5.665   7.151 -2.6030 -2.0606  1.0860
  378MOL0     H50980   3.562   5.544   7.263 -0.9307 -0.3646 -1.4962
  378MOL0     H50981   3.812   5.613   7.359 -0.4771 -0.0924  1.1371
  378MOL0     H50982   3.938   5.969   7.467 -4.3649  0.8738 -3.4199
  378MOL0     H50983   3.949   5.800   7.542 -0.2599 -1.1565 -0.5618
  378MOL0     H50984   4.056   5.864   7.269  2.1144 -1.6075 -0.2906
  378MOL0     H50985   4.095   5.727   7.383  2.8601  0.9318 -1.6337
  378MOL0     H50986   4.171   5.957   7.518  2.3664  0.5305 -0.7150
  378MOL0     H50987   4.192   6.014   7.357 -1.6425  0.2162  0.9480
  378MOL0     H50988   4.389   5.906   7.425 -0.4996 -0.0952  1.2318
  378MOL0     H50989   4.309   5.791   7.306  1.9227  1.3515 -0.3287
  378MOL0     H50990   4.329   5.593   7.688 -0.9337 -2.2467  5.0422
  378MOL0     H50991   4.381   5.635   8.037  1.0272  2.4200 -0.4215
  378MOL0     H50992   4.373   5.516   7.900  1.3315 -1.0491  0.3233
  378MOL0     H50993   4.527   5.556   7.962 -0.2444  1.1025  2.0278
  378MOL0     H50994   4.927   6.015   7.983 -1.5698 -2.2250 -0.5085
  378MOL0     H50995   5.071   6.026   8.169 -0.8236  0.7591  0.7298
  378MOL0     H50996   5.212   6.026   8.343  0.4438 -0.8435  0.4931
  378MOL0     H50997   5.128   6.175   8.335 -2.6320  0.2150  1.4248
  378MOL0     H50998   5.211   6.051   8.604  1.7671  0.7504  1.1987
  378MOL0     H50999   5.304   6.151   8.504 -0.8752  0.0385 -1.2297
  378MOL0     H51000   5.033   6.213   8.634  0.9319  1.0956  3.6536
  378MOL0     H51001   5.093   6.319   8.499 -2.1740 -1.9876 -0.3143
  378MOL0     H51002   5.257   6.260   8.758  0.3279  0.1172 -1.4634
  378MOL0     H51003   5.267   6.402   8.647  0.8529 -0.2979  1.4920
  378MOL0     H51004   5.050   6.349   8.855  0.3506  1.7275  1.1344
  378MOL0     H51005   5.032   6.450   8.710 -0.3433 -0.5308 -0.8133
  378MOL0     H51006   5.257   6.468   8.923 -0.7097  1.8317  0.5039
  378MOL0     H51007   5.241   6.568   8.794 -1.2214  1.2225  0.9365
  378MOL0     H51008   5.031   6.519   9.011  1.1117 -1.7628 -1.5865
  378MOL0     H51009   5.024   6.654   8.902 -0.7409 -1.0497  0.3607
  378MOL0     H51010   5.241   6.749   9.023 -0.0676  0.2127 -1.2127
  378MOL0     H51011   5.240   6.589   9.111  2.7411 -2.4607 -4.8439
  378MOL0     H51012   4.746   6.008   8.438  0.9710  2.0049  0.3970
  378MOL0     H51013   4.590   5.994   8.262 -0.7668  2.9210 -2.7863
  378MOL0     H51014   4.524   6.041   7.805 -0.9629  0.6432 -1.1685
  378MOL0     H51015   4.400   6.011   7.599 -1.1745  1.5028  2.4091
  378MOL0     H51016   2.524   5.673   6.935 -1.1990 -1.3502 -0.5156
  378MOL0     H51017   2.353   5.812   6.791  2.6191  1.8123 -1.2255
  378MOL0     H51018   2.351   6.369   6.631  2.4066 -2.7324  2.7205
  378MOL0     H51019   2.170   6.516   6.554  0.7016  0.9071  0.9203
  378MOL0     H51020   1.772   6.354   6.554  2.2814 -0.6034 -0.6728
  378MOL0     H51021   1.786   6.430   6.709  2.1341  0.8346 -0.1929
  378MOL0     H51022   1.683   6.566   6.460 -1.0523 -0.8017  0.5420
  378MOL0     H51023   1.752   6.656   6.603  3.0068 -0.6668 -1.3419
  378MOL0     H51024   1.516   6.453   6.622 -2.7715  1.3963  0.7196
  378MOL0     H51025   1.490   6.611   6.578  2.1485 -0.2600 -2.3131
  378MOL0     H51026   1.661   6.658   6.810 -0.3215 -0.9431  5.0050
  378MOL0     H51027   1.578   6.522   6.856  0.1279  2.2537  2.7568
  378MOL0     H51028   1.280   6.808   6.919  0.4083 -0.2994  0.7832
  378MOL0     H51029   1.879   6.253   6.721 -0.3544 -0.6484 -1.8114
  378MOL0     H51030   2.054   6.094   6.783  0.5238 -0.3689  0.5302
  379MOL0     O51031  11.157   8.463   9.051  0.4043  0.6204 -1.0111
  379MOL0     C51032  11.061   8.463   8.967  0.4268 -0.3137 -0.9191
  379MOL0     O51033  10.958   8.368   8.948  0.7265 -0.5047  0.1029
  379MOL0     C51034  10.959   8.240   9.011 -0.8658 -0.4695 -0.8369
  379MOL0     C51035  11.045   8.134   8.970 -0.3729 -0.6779  0.0266
  379MOL0     C51036  11.031   8.012   9.032  0.3137  0.9242 -0.9905
  379MOL0     C51037  10.940   8.001   9.141  0.4999 -0.5728 -0.1664
  379MOL0     O51038  10.939   7.881   9.205  0.3470 -0.0277 -1.4930
  379MOL0     C51039  10.940   7.877   9.351  0.3005  0.1917 -0.3914
  379MOL0     C51040  10.942   7.728   9.384  0.1297 -0.0081 -0.1103
  379MOL0     C51041  10.900   7.705   9.531 -1.2692 -0.8993 -0.5061
  379MOL0     C51042  10.977   7.780   9.634  0.3407  0.2765  0.4532
  379MOL0     C51043  11.120   7.717   9.641 -0.9366  0.2438  0.6267
  379MOL0     C51044  11.193   7.777   9.765 -0.1964 -0.0452 -0.1372
  379MOL0     C51045  11.216   7.927   9.764 -0.9710  0.7526 -0.0162
  379MOL0     C51046  11.105   8.001   9.839  0.2475 -0.0618 -0.6178
  379MOL0     N51047  11.114   8.149   9.821 -0.5012 -0.1139 -0.7372
  379MOL0     C51048  11.228   8.208   9.778 -0.2826 -1.3709 -1.1010
  379MOL0     C51049  11.191   8.344   9.772 -0.5074 -0.2759  0.1441
  379MOL0     C51050  11.281   8.460   9.744  0.2401 -0.2506 -0.9431
  379MOL0     C51051  11.347   8.509   9.865 -0.0030 -0.2321 -0.0748
  379MOL0     C51052  11.472   8.597   9.837  0.2419  0.1117  0.6230
  379MOL0     C51053  11.477   8.692   9.719 -0.0049  0.1101 -0.2964
  379MOL0     O51054  11.518   8.625   9.604 -0.1786 -0.4519  0.1216
  379MOL0     C51055  11.524   8.692   9.481 -0.1960 -0.1978 -1.0859
  379MOL0     C51056  11.637   8.768   9.447 -1.0102  0.2656  0.3496
  379MOL0     C51057  11.635   8.840   9.324 -1.0371 -0.0803  0.6055
  379MOL0     C51058  11.757   8.929   9.303 -0.0248  0.3719 -0.6298
  379MOL0     C51059  11.525   8.834   9.240  0.1921 -0.3864 -0.2471
  379MOL0     C51060  11.506   8.919   9.117 -0.0180 -0.0361 -0.6046
  379MOL0     O51061  11.383   8.913   9.050 -0.5185  0.1461  0.3341
  379MOL0     C51062  11.359   9.016   8.962 -0.4694 -0.7192  0.0094
  379MOL0     C51063  11.428   9.015   8.842  0.7249  0.6575  0.6812
  379MOL0     C51064  11.432   9.126   8.760 -0.0411 -0.5798  0.1508
  379MOL0     C51065  11.354   9.242   8.796 -0.5922 -0.9987  0.5161
  379MOL0     O51066  11.356   9.348   8.699  0.1150  0.4991 -0.0825
  379MOL0     C51067  11.265   9.456   8.703  0.1393 -0.7754 -0.4215
  379MOL0     C51068  11.351   9.575   8.697 -0.1553 -0.0131 -0.9799
  379MOL0     C51069  11.453   9.588   8.812  0.4553  0.5550 -0.5545
  379MOL0     C51070  11.596   9.543   8.756  0.9708 -0.9270  0.0468
  379MOL0     C51071  11.706   9.567   8.864  1.0754 -0.5042 -0.1653
  379MOL0     C51072  11.706   9.468   8.978 -0.2396  0.2284  1.0551
  379MOL0     C51073  11.829   9.472   9.072  0.5289  0.2520 -0.8438
  379MOL0     C51074  11.785   9.452   9.217 -0.1082 -0.5011 -0.1987
  379MOL0    Cl51075  11.719   9.280   9.235  0.2257 -0.2550  0.2442
  379MOL0     C51076  11.266   9.228   8.903  0.0167  0.0765  0.5006
  379MOL0     C51077  11.277   9.122   8.988 -0.2988 -0.1808 -0.2335
  379MOL0     O51078  11.603   8.986   9.088  0.5075  0.6258 -0.2892
  379MOL0     C51079  11.422   8.748   9.271  0.3036 -0.0077 -0.7962
  379MOL0     C51080  11.419   8.674   9.391 -0.6321  0.1497  0.4275
  379MOL0     N51081  11.061   8.347   9.809 -0.3186 -0.1145 -0.1647
  379MOL0     N51082  11.014   8.232   9.840 -0.0378 -0.3415  0.6787
  379MOL0     C51083  10.879   8.117   9.199 -0.0929 -0.0335  0.9932
  379MOL0     C51084  10.891   8.242   9.131 -0.2587 -0.0899  0.4569
  379MOL0     C51085  11.055   8.565   8.863 -1.1342 -0.0536 -0.1587
  379MOL0     C51086  10.996   8.548   8.737 -1.5824  0.7802  0.2595
  379MOL0     C51087  11.020   8.647   8.637  0.2836  0.2973  0.4095
  379MOL0     C51088  11.094   8.766   8.670 -0.0811  0.6930  0.2675
  379MOL0     O51089  11.108   8.881   8.598 -0.2664 -0.1230 -0.5859
  379MOL0     C51090  11.023   8.905   8.485 -0.3871  0.4957  0.0321
  379MOL0     C51091  11.033   9.050   8.432  0.2982 -0.1934  0.1903
  379MOL0     C51092  11.177   9.073   8.392  0.6914  0.7495 -0.7579
  379MOL0     C51093  11.198   9.216   8.339 -1.2559  0.1035  0.6681
  379MOL0     C51094  11.332   9.222   8.261  0.6898 -0.9915 -0.7038
  379MOL0     C51095  11.431   9.239   8.202 -0.5723 -0.1842  0.0999
  379MOL0     C51096  11.152   8.776   8.787  0.1560  0.7092 -0.1263
  379MOL0     C51097  11.132   8.683   8.885 -0.0378 -0.0088  0.0814
  379MOL0     H51098  11.110   8.140   8.883  0.9510 -0.5329  0.9915
  379MOL0     H51099  11.075   7.919   8.997 -1.9601  0.1101 -1.9445
  379MOL0     H51100  11.022   7.934   9.396  0.2980  0.2458 -0.4564
  379MOL0     H51101  10.852   7.930   9.388  2.3862  4.8819 -1.3931
  379MOL0     H51102  10.874   7.681   9.313  0.8382 -0.2911 -0.6081
  379MOL0     H51103  11.046   7.700   9.364 -0.1047 -0.9533 -0.0386
  379MOL0     H51104  10.802   7.740   9.564  0.0331  1.2797  1.3141
  379MOL0     H51105  10.925   7.602   9.559  0.7718 -0.0454  1.1143
  379MOL0     H51106  10.978   7.887   9.610 -3.8999  0.6233  1.1980
  379MOL0     H51107  10.937   7.771   9.736 -0.3864 -2.1629  0.0119
  379MOL0     H51108  11.112   7.608   9.650  0.8682  0.2260  2.9702
  379MOL0     H51109  11.189   7.731   9.557  3.2577 -3.6685  2.9848
  379MOL0     H51110  11.126   7.759   9.850 -0.2739  2.2806  0.3609
  379MOL0     H51111  11.294   7.735   9.770  1.0322  2.7611  3.0132
  379MOL0     H51112  11.310   7.954   9.813 -0.0899 -0.6963 -0.8347
  379MOL0     H51113  11.221   7.956   9.658  2.1786  0.4757 -0.0385
  379MOL0     H51114  11.099   7.967   9.943 -0.0641  2.3807  0.2229
  379MOL0     H51115  11.009   7.982   9.791  0.3393 -1.8884 -0.1451
  379MOL0     H51116  11.323   8.167   9.745  0.7222  1.7352 -2.3850
  379MOL0     H51117  11.361   8.420   9.680 -0.1723  2.6128 -3.5063
  379MOL0     H51118  11.225   8.540   9.695 -0.5969  2.8283  4.2725
  379MOL0     H51119  11.379   8.439   9.943 -0.4447 -2.1308 -1.5210
  379MOL0     H51120  11.270   8.558   9.924  1.0775 -0.2911  1.4373
  379MOL0     H51121  11.554   8.527   9.822  0.4653  0.4675  0.1813
  379MOL0     H51122  11.497   8.650   9.929  2.3509  0.5244 -0.1360
  379MOL0     H51123  11.551   8.770   9.742  1.0315 -0.2199 -2.2613
  379MOL0     H51124  11.381   8.738   9.695  0.8358  2.4864  0.5556
  379MOL0     H51125  11.708   8.769   9.530 -2.2207 -3.8455  1.7239
  379MOL0     H51126  11.715   9.028   9.321  0.9957  1.0911 -1.9890
  379MOL0     H51127  11.845   8.911   9.366 -0.3481  1.6008  0.2242
  379MOL0     H51128  11.791   8.948   9.200 -1.3145  0.9773 -0.9660
  379MOL0     H51129  11.489   8.926   8.827 -0.7867 -0.6691  1.9785
  379MOL0     H51130  11.488   9.124   8.667 -0.6195  0.4452 -0.2327
  379MOL0     H51131  11.217   9.463   8.605 -0.3197 -0.8497 -0.2056
  379MOL0     H51132  11.194   9.464   8.786 -1.5306  3.4103 -1.9499
  379MOL0     H51133  11.417   9.579   8.610  0.5514  1.4996 -0.4008
  379MOL0     H51134  11.289   9.664   8.683 -0.2944 -0.1087 -0.9774
  379MOL0     H51135  11.426   9.514   8.888  1.1084  1.8007  0.9385
  379MOL0     H51136  11.448   9.680   8.870 -0.3559  2.0281 -2.8444
  379MOL0     H51137  11.586   9.439   8.723 -3.4695 -0.6826  0.0372
  379MOL0     H51138  11.630   9.610   8.677  0.6702 -2.7904 -1.7564
  379MOL0     H51139  11.689   9.664   8.911 -0.5606  0.2791 -2.2094
  379MOL0     H51140  11.806   9.566   8.818  0.7816  0.2887 -0.8476
  379MOL0     H51141  11.605   9.474   9.020 -3.0593 -2.3251 -4.2914
  379MOL0     H51142  11.694   9.366   8.940  0.4438  0.8479 -0.9785
  379MOL0     H51143  11.879   9.567   9.050 -0.8972  0.3599 -4.2919
  379MOL0     H51144  11.901   9.394   9.044  2.6953  0.3818  3.5531
  379MOL0     H51145  11.705   9.520   9.248 -1.2656 -2.7877  2.2043
  379MOL0     H51146  11.875   9.467   9.277 -0.6183 -0.3315  0.5322
  379MOL0     H51147  11.195   9.303   8.938  3.2813  3.3799  0.6961
  379MOL0     H51148  11.219   9.104   9.078  4.1599 -0.6700  2.8749
  379MOL0     H51149  11.340   8.743   9.200 -0.2935  3.9505 -0.6041
  379MOL0     H51150  11.343   8.602   9.419  1.1645 -2.5111 -1.0269
  379MOL0     H51151  10.824   8.111   9.292  0.4002  1.2462  1.3894
  379MOL0     H51152  10.845   8.339   9.150  0.2940  0.2808 -0.0423
  379MOL0     H51153  10.946   8.453   8.723 -2.2151  1.1342  0.0707
  379MOL0     H51154  10.984   8.633   8.536  1.7170 -3.2686  0.2593
  379MOL0     H51155  11.043   8.833   8.405 -0.7844 -3.2940  3.1077
  379MOL0     H51156  10.919   8.886   8.511 -0.3658  0.4546  0.0866
  379MOL0     H51157  10.996   9.128   8.499 -3.7125  0.5987 -2.6477
  379MOL0     H51158  10.979   9.062   8.338  0.3564  0.0874  0.1930
  379MOL0     H51159  11.201   9.003   8.311 -1.8138  1.7382 -2.4925
  379MOL0     H51160  11.234   9.063   8.485 -2.2268  2.0964  1.3442
  379MOL0     H51161  11.197   9.291   8.418 -1.9202 -0.2574  1.0068
  379MOL0     H51162  11.127   9.243   8.260 -1.7463 -1.7200  0.4283
  379MOL0     H51163  11.524   9.235   8.150 -0.7240  1.2039 -0.3173
  379MOL0     H51164  11.218   8.858   8.811  0.7346 -0.0420  0.9091
  379MOL0     H51165  11.172   8.690   8.986  0.3704 -1.8147  0.0786
  380MOL0     O51166  10.144   5.027   9.622  0.3464  0.1742 -0.0235
  380MOL0     C51167  10.095   4.936   9.548  0.3053 -0.5696  0.0842
  380MOL0     O51168  10.040   4.828   9.593 -1.2918  0.1564  0.3135
  380MOL0     C51169  10.011   4.820   9.727  0.4341 -0.5819 -0.0151
  380MOL0     C51170   9.884   4.859   9.776  0.1064 -0.4567 -0.3662
  380MOL0     C51171   9.855   4.845   9.908  1.0077 -0.3223 -0.6838
  380MOL0     C51172   9.950   4.784   9.999 -0.0705 -1.6012 -0.2047
  380MOL0     O51173   9.921   4.771  10.126 -0.5818  0.7000 -0.5182
  380MOL0     C51174   9.788   4.712  10.161 -0.0305  0.4508  0.7226
  380MOL0     C51175   9.796   4.567  10.223  0.8218 -0.2767 -0.5212
  380MOL0     C51176   9.865   4.557  10.365  0.3931 -0.3256  0.0351
  380MOL0     C51177  10.020   4.547  10.349  0.3318  0.2293 -0.1437
  380MOL0     C51178  10.096   4.517  10.477  0.2095  0.1412  0.9557
  380MOL0     C51179  10.075   4.609  10.597  0.1901 -0.0869 -0.2563
  380MOL0     C51180  10.076   4.512  10.723 -0.7115  0.7712  0.5733
  380MOL0     C51181   9.942   4.454  10.747 -0.4275 -0.2378 -0.5293
  380MOL0     N51182   9.841   4.559  10.769  0.8328 -0.2522 -0.0193
  380MOL0     C51183   9.838   4.652  10.870  0.1859 -0.4992 -0.5085
  380MOL0     C51184   9.714   4.700  10.893 -0.8777 -0.1372  0.0763
  380MOL0     C51185   9.684   4.824  10.966  0.7258 -0.8701 -0.0995
  380MOL0     C51186   9.751   4.844  11.103  0.3197  0.7469 -0.7426
  380MOL0     C51187   9.666   4.772  11.219  1.0423  0.2565  0.3166
  380MOL0     C51188   9.651   4.861  11.348 -0.0784 -0.4579 -0.0046
  380MOL0     O51189   9.774   4.884  11.403  0.2815 -0.8372  0.7295
  380MOL0     C51190   9.806   5.013  11.413  0.2427  0.8619 -0.5554
  380MOL0     C51191   9.935   5.052  11.389 -0.7006 -0.3725  0.3580
  380MOL0     C51192   9.992   5.180  11.428  1.1161  0.8678  0.3550
  380MOL0     C51193  10.144   5.195  11.418  0.8020  0.6663  0.3186
  380MOL0     C51194   9.901   5.275  11.484  0.2213 -0.4646 -0.2930
  380MOL0     C51195   9.934   5.420  11.534 -0.4236  0.4917  0.0062
  380MOL0     O51196  10.048   5.476  11.492 -0.1382 -1.0919 -0.5542
  380MOL0     C51197  10.086   5.607  11.529  0.7157 -0.0030 -0.3887
  380MOL0     C51198  10.212   5.623  11.596 -0.2383  0.2588  0.7050
  380MOL0     C51199  10.241   5.754  11.637  0.1242 -0.2084 -0.1881
  380MOL0     C51200  10.168   5.864  11.587  0.7086  0.8012 -0.5337
  380MOL0     O51201  10.194   6.003  11.608  0.5420  0.0997  0.9370
  380MOL0     C51202  10.294   6.037  11.699 -0.0472  0.0429 -0.4244
  380MOL0     C51203  10.230   6.012  11.842  1.2313  0.3993  0.5294
  380MOL0     C51204  10.311   6.075  11.949 -1.0117 -0.3944  0.0461
  380MOL0     C51205  10.276   6.217  11.982  0.0030  0.5626 -0.1319
  380MOL0     C51206  10.366   6.308  12.057  0.3837  0.4920 -0.0359
  380MOL0     C51207  10.466   6.243  12.158  0.3569 -0.0873 -0.1464
  380MOL0     C51208  10.540   6.341  12.258 -0.7539  0.1770 -1.0458
  380MOL0     C51209  10.441   6.391  12.369 -0.0081  0.0282  0.1296
  380MOL0    Cl51210  10.392   6.565  12.355 -0.1948 -0.8746 -0.4608
  380MOL0     C51211  10.046   5.841  11.522  0.2488 -0.1031 -0.6117
  380MOL0     C51212  10.006   5.714  11.476  0.4909 -0.3824  0.2744
  380MOL0     O51213   9.861   5.471  11.614  0.0545 -0.0977 -0.5550
  380MOL0     C51214   9.770   5.234  11.506  0.7087  0.0853  0.2208
  380MOL0     C51215   9.724   5.101  11.479 -1.2827 -0.1470  0.2074
  380MOL0     N51216   9.640   4.628  10.794  0.5773  0.4581  0.7631
  380MOL0     N51217   9.711   4.537  10.743  0.8485  1.0813 -0.2476
  380MOL0     C51218  10.080   4.762   9.954  0.6707 -1.0564 -0.9308
  380MOL0     C51219  10.110   4.784   9.822 -0.4610 -0.0183 -0.9646
  380MOL0     C51220  10.111   4.940   9.409  0.2029  0.1956 -0.3285
  380MOL0     C51221  10.140   4.830   9.326 -0.1034  0.1047  0.0700
  380MOL0     C51222  10.154   4.842   9.187 -0.7590 -0.8620  0.3900
  380MOL0     C51223  10.142   4.962   9.129 -0.4538  0.2949  0.5071
  380MOL0     O51224  10.156   4.999   9.001 -0.0099  1.0372  1.1207
  380MOL0     C51225  10.161   4.885   8.904 -0.2609  0.1116 -0.3408
  380MOL0     C51226  10.138   4.956   8.766 -0.7705  1.2824  0.8823
  380MOL0     C51227  10.092   4.854   8.657 -0.6342 -0.2882  0.1383
  380MOL0     C51228  10.208   4.761   8.617  0.6147  0.6345  0.0351
  380MOL0     C51229  10.309   4.842   8.540  0.7281 -0.2995  1.1409
  380MOL0     C51230  10.401   4.889   8.469 -0.1762  0.3443 -0.4397
  380MOL0     C51231  10.126   5.076   9.211  0.3649 -0.6557 -0.5705
  380MOL0     C51232  10.108   5.062   9.347 -0.2696 -0.0814  0.3249
  380MOL0     H51233   9.804   4.902   9.717 -1.7677 -1.5193  1.2780
  380MOL0     H51234   9.753   4.870   9.934 -0.0613  0.0412 -4.5638
  380MOL0     H51235   9.742   4.779  10.234 -2.5941  2.0766 -2.1309
  380MOL0     H51236   9.720   4.719  10.075  1.0175  1.8942 -0.0362
  380MOL0     H51237   9.692   4.538  10.242  1.5708 -0.4172  5.1351
  380MOL0     H51238   9.822   4.492  10.148 -1.0021 -0.1588 -1.3126
  380MOL0     H51239   9.836   4.646  10.420  3.1719  1.6925 -1.5386
  380MOL0     H51240   9.823   4.475  10.425 -0.2570 -1.1108 -1.4184
  380MOL0     H51241  10.051   4.473  10.276  1.1049 -1.6404  1.9537
  380MOL0     H51242  10.054   4.644  10.311  0.0404 -0.6586 -2.8523
  380MOL0     H51243  10.066   4.414  10.500 -1.2404 -0.2500 -2.1729
  380MOL0     H51244  10.201   4.526  10.449 -0.6418  0.9231 -2.4478
  380MOL0     H51245  10.160   4.677  10.610  0.7579 -1.2168  2.9923
  380MOL0     H51246   9.980   4.661  10.605  1.3127  1.9802  0.3884
  380MOL0     H51247  10.156   4.438  10.726 -2.5599 -1.3465  0.9142
  380MOL0     H51248  10.113   4.573  10.806  0.3905 -0.8402  1.2981
  380MOL0     H51249   9.936   4.391  10.836  1.7827 -0.6452 -0.6242
  380MOL0     H51250   9.917   4.394  10.658  1.3733  0.4125 -1.5340
  380MOL0     H51251   9.921   4.691  10.928 -0.9310 -0.1570  0.9277
  380MOL0     H51252   9.712   4.904  10.897 -1.8317  0.9426  0.7960
  380MOL0     H51253   9.580   4.851  10.986  1.9011  2.4371  2.6845
  380MOL0     H51254   9.754   4.950  11.127  4.0336  0.4981  0.5415
  380MOL0     H51255   9.851   4.799  11.105  1.6912  3.5048 -1.6190
  380MOL0     H51256   9.710   4.676  11.246 -0.3487 -0.4389  0.1866
  380MOL0     H51257   9.563   4.754  11.185 -0.3247  2.2673  3.0127
  380MOL0     H51258   9.586   4.804  11.416 -0.6778  0.6704  0.3884
  380MOL0     H51259   9.593   4.952  11.328  1.6364  0.4142 -1.1564
  380MOL0     H51260   9.999   4.984  11.333  0.6249 -0.4661  1.9395
  380MOL0     H51261  10.200   5.149  11.500 -1.2254 -1.2837  0.7121
  380MOL0     H51262  10.171   5.135  11.330  1.9346 -2.5256  2.6470
  380MOL0     H51263  10.172   5.297  11.391  0.7237  0.8454  0.9147
  380MOL0     H51264  10.274   5.536  11.615  1.8190  1.6328  0.6561
  380MOL0     H51265  10.336   5.764  11.689  1.4051 -1.6849 -2.1131
  380MOL0     H51266  10.387   5.984  11.680  1.0445  1.2748  1.2014
  380MOL0     H51267  10.306   6.145  11.684 -2.3469  0.0182 -3.6237
  380MOL0     H51268  10.125   6.044  11.836  1.0600  0.0101  1.3077
  380MOL0     H51269  10.225   5.906  11.867  1.0059  0.7386  2.0009
  380MOL0     H51270  10.413   6.066  11.910 -0.7754  2.4051 -0.1929
  380MOL0     H51271  10.307   6.013  12.039  2.0241 -1.1370 -0.2162
  380MOL0     H51272  10.243   6.274  11.894 -3.0860  0.1812  0.6676
  380MOL0     H51273  10.183   6.205  12.037 -0.7425 -0.0372 -1.4769
  380MOL0     H51274  10.299   6.377  12.109 -0.7397  2.2533 -3.5230
  380MOL0     H51275  10.427   6.357  11.980  0.1991  0.0410 -0.4720
  380MOL0     H51276  10.412   6.172  12.220  0.7195  0.2341  0.5511
  380MOL0     H51277  10.542   6.188  12.101  1.3744  1.3525 -0.2590
  380MOL0     H51278  10.572   6.431  12.204  0.3508  1.2754  1.2797
  380MOL0     H51279  10.630   6.291  12.293  0.2776 -0.3326 -4.0991
  380MOL0     H51280  10.493   6.370  12.464 -0.3695 -1.1015  0.0854
  380MOL0     H51281  10.346   6.338  12.367 -0.2700  0.4202 -2.8376
  380MOL0     H51282  10.005   5.928  11.472  3.1499 -0.1332 -3.3767
  380MOL0     H51283   9.922   5.712  11.407 -1.1913  1.7752  2.0912
  380MOL0     H51284   9.690   5.298  11.542 -1.7129 -1.0136 -2.7689
  380MOL0     H51285   9.622   5.073  11.504 -1.2885  0.9465  1.5515
  380MOL0     H51286  10.155   4.720  10.021  1.1523  2.4723  0.9769
  380MOL0     H51287  10.209   4.752   9.792 -0.3339  0.8043 -1.4746
  380MOL0     H51288  10.159   4.727   9.357  1.4418  0.2011 -0.4838
  380MOL0     H51289  10.173   4.763   9.115 -2.9349  0.4074 -1.7335
  380MOL0     H51290  10.256   4.831   8.915 -1.0743 -0.9542  2.3410
  380MOL0     H51291  10.084   4.811   8.927  0.6973 -0.7894  0.0618
  380MOL0     H51292  10.231   5.004   8.738 -0.3059  0.0171  0.1839
  380MOL0     H51293  10.060   5.031   8.780  1.7868  3.8232  2.4067
  380MOL0     H51294  10.063   4.915   8.571  1.5869  2.2389  1.0542
  380MOL0     H51295  10.006   4.800   8.698 -1.1457  0.6369  0.3229
  380MOL0     H51296  10.174   4.677   8.556 -1.9942 -1.2976  3.7563
  380MOL0     H51297  10.263   4.727   8.705  2.8777  1.4700 -0.9688
  380MOL0     H51298  10.487   4.935   8.423 -1.3789  2.8696 -0.3081
  380MOL0     H51299  10.121   5.177   9.172 -0.4605  1.5610  4.4736
  380MOL0     H51300  10.079   5.154   9.397  1.5454  2.0763 -2.3016
  381MOL0     O51301   3.099  10.970   1.256 -0.0960  0.1069  0.1132
  381MOL0     C51302   3.085  11.077   1.318 -0.2463 -0.3325  0.3679
  381MOL0     O51303   3.189  11.161   1.344 -0.0001  0.1061 -0.1721
  381MOL0     C51304   3.305  11.119   1.293 -0.0880  0.3810  0.2067
  381MOL0     C51305   3.398  11.046   1.368 -0.3620 -0.0818 -0.6156
  381MOL0     C51306   3.510  11.008   1.303 -0.3096  0.6273 -0.1581
  381MOL0     C51307   3.545  11.044   1.174 -0.5505 -0.3980  0.2618
  381MOL0     O51308   3.667  11.001   1.135  0.4845 -0.5741 -0.0225
  381MOL0     C51309   3.686  10.964   0.997 -1.8259  0.5660 -1.1601
  381MOL0     C51310   3.764  11.086   0.919 -0.1371  0.1067 -1.1991
  381MOL0     C51311   3.914  11.083   0.954  0.3524 -0.4138 -0.4516
  381MOL0     C51312   4.009  11.181   0.875  0.3150  0.0578 -0.2025
  381MOL0     C51313   4.152  11.186   0.924 -0.6861 -0.1062 -0.5652
  381MOL0     C51314   4.165  11.243   1.067  0.1663  0.3781 -0.3917
  381MOL0     C51315   4.305  11.302   1.091  0.1921  0.3102  0.4194
  381MOL0     C51316   4.340  11.312   1.236 -0.4464 -0.4697 -0.5722
  381MOL0     N51317   4.469  11.364   1.271 -1.6206  0.1718  0.5125
  381MOL0     C51318   4.583  11.325   1.208 -0.4655  1.0460 -0.0815
  381MOL0     C51319   4.680  11.398   1.259  0.0001 -0.4076  0.2156
  381MOL0     C51320   4.828  11.374   1.218  0.4466 -0.2227 -0.1664
  381MOL0     C51321   4.925  11.462   1.298  0.6602  0.6527 -0.1630
  381MOL0     C51322   4.948  11.405   1.442  0.5981 -0.1716 -0.6047
  381MOL0     C51323   5.050  11.488   1.518  0.0073 -0.4869  0.3302
  381MOL0     O51324   5.064  11.464   1.656  0.5642 -1.0032  0.0840
  381MOL0     C51325   5.147  11.364   1.707 -0.3424  0.0425  0.4136
  381MOL0     C51326   5.103  11.251   1.781  0.4738 -0.1798  0.1127
  381MOL0     C51327   5.191  11.154   1.822 -1.0460  0.8611 -0.5773
  381MOL0     C51328   5.150  11.037   1.919  0.4928  1.1154 -0.1536
  381MOL0     C51329   5.335  11.162   1.780 -0.0660 -0.6363  0.6746
  381MOL0     C51330   5.424  11.049   1.802 -0.2411  0.3176 -0.4206
  381MOL0     O51331   5.552  11.077   1.760  0.1612 -0.2552 -0.1655
  381MOL0     C51332   5.642  10.975   1.768  0.2742 -0.3951  0.3760
  381MOL0     C51333   5.730  10.971   1.878 -1.1060  0.6672 -0.0337
  381MOL0     C51334   5.834  10.866   1.884 -0.0012  0.3800  0.5151
  381MOL0     C51335   5.858  10.778   1.771 -0.3133 -0.3276 -0.6153
  381MOL0     O51336   5.960  10.685   1.770  0.2131 -0.0045  0.0782
  381MOL0     C51337   5.978  10.594   1.667 -0.5636 -0.8860  0.4558
  381MOL0     C51338   6.066  10.483   1.714 -0.2346 -0.0302 -0.4600
  381MOL0     C51339   6.209  10.517   1.710  0.0201 -0.3699  0.6459
  381MOL0     C51340   6.310  10.409   1.763 -0.8636  0.8048  0.5344
  381MOL0     C51341   6.455  10.435   1.700  0.8646  0.2708  0.0984
  381MOL0     C51342   6.512  10.574   1.717 -0.0713 -0.0798  0.2955
  381MOL0     C51343   6.545  10.595   1.870  0.3994  0.7984  0.1011
  381MOL0     C51344   6.637  10.704   1.901  0.3036 -0.7400  0.0783
  381MOL0    Cl51345   6.592  10.857   1.806 -0.1129  0.3700 -0.2729
  381MOL0     C51346   5.767  10.787   1.665  0.5553 -0.5566  0.9185
  381MOL0     C51347   5.660  10.891   1.661  0.5299 -0.3306 -0.1976
  381MOL0     O51348   5.397  10.942   1.845  0.3407  0.7188 -0.1331
  381MOL0     C51349   5.373  11.276   1.713 -0.9149 -0.4023 -0.3921
  381MOL0     C51350   5.281  11.376   1.677  0.6028 -0.1708 -0.2372
  381MOL0     N51351   4.625  11.484   1.349  0.7056  0.2190  0.0445
  381MOL0     N51352   4.498  11.467   1.353 -0.4575 -0.3655 -0.3512
  381MOL0     C51353   3.452  11.112   1.099  0.6307 -0.2971 -1.1222
  381MOL0     C51354   3.331  11.150   1.164  0.0544 -0.0975  0.1185
  381MOL0     C51355   2.941  11.124   1.326  0.0929  0.1973 -0.4926
  381MOL0     C51356   2.824  11.041   1.333  0.2224  0.6012 -0.3353
  381MOL0     C51357   2.696  11.103   1.345 -0.1775  0.3671  0.2974
  381MOL0     C51358   2.687  11.244   1.339 -1.0892 -0.8462 -0.2551
  381MOL0     O51359   2.578  11.319   1.317 -0.1852 -0.1010  0.3103
  381MOL0     C51360   2.453  11.264   1.293  0.7297  0.3732 -0.3977
  381MOL0     C51361   2.381  11.314   1.169  0.6173  0.6842  0.7362
  381MOL0     C51362   2.370  11.468   1.192  0.4914  0.5082  0.5336
  381MOL0     C51363   2.269  11.501   1.308 -0.5727 -0.0178  1.0648
  381MOL0     C51364   2.281  11.636   1.353 -0.2288 -0.8303 -0.6905
  381MOL0     C51365   2.291  11.753   1.367 -0.1561 -0.5119 -0.4660
  381MOL0     C51366   2.799  11.316   1.365  0.1695 -0.0869 -0.6484
  381MOL0     C51367   2.927  11.260   1.366  0.4381  0.0512  0.0020
  381MOL0     H51368   3.389  11.015   1.471 -4.1076  3.1802  0.3144
  381MOL0     H51369   3.590  10.954   1.353 -0.8018  1.5810  1.7559
  381MOL0     H51370   3.747  10.873   0.995 -2.1429  0.3257 -0.4896
  381MOL0     H51371   3.595  10.935   0.944 -3.5097  0.8874  1.3923
  381MOL0     H51372   3.733  11.081   0.815 -1.8546  1.4423 -0.8012
  381MOL0     H51373   3.723  11.177   0.963  0.8110 -0.0995  0.1808
  381MOL0     H51374   3.921  11.116   1.059 -1.0835 -1.5146  0.0217
  381MOL0     H51375   3.959  10.984   0.949 -0.9812 -0.9872 -1.9078
  381MOL0     H51376   4.012  11.145   0.772 -1.8275  4.2639 -1.9771
  381MOL0     H51377   3.962  11.279   0.866 -1.0017 -0.7088 -2.0207
  381MOL0     H51378   4.201  11.088   0.919  0.8097  0.5678  0.1324
  381MOL0     H51379   4.200  11.260   0.858 -1.1723 -2.2004 -3.4692
  381MOL0     H51380   4.096  11.325   1.090  2.2297  1.7274  1.4772
  381MOL0     H51381   4.147  11.162   1.138 -3.5912  1.9064  0.6840
  381MOL0     H51382   4.372  11.242   1.029 -2.8754 -2.1969 -0.7395
  381MOL0     H51383   4.301  11.402   1.045 -0.5678 -0.6811 -1.8389
  381MOL0     H51384   4.342  11.214   1.285  1.6463 -0.0787  0.2533
  381MOL0     H51385   4.267  11.365   1.298  2.2918  2.9291  0.0871
  381MOL0     H51386   4.591  11.238   1.144  0.0327  0.6891  0.4551
  381MOL0     H51387   4.845  11.270   1.247 -2.0472 -0.6889 -0.1683
  381MOL0     H51388   4.855  11.373   1.112  1.3002 -1.0586  0.0466
  381MOL0     H51389   4.885  11.564   1.301  0.8258  0.6874  1.3478
  381MOL0     H51390   5.027  11.462   1.258  0.9479 -0.1889  0.5589
  381MOL0     H51391   4.990  11.304   1.432 -2.6460 -1.6278 -1.0171
  381MOL0     H51392   4.861  11.403   1.509  1.8977  0.1653  1.1640
  381MOL0     H51393   5.022  11.593   1.507  0.8930 -0.3030 -0.2728
  381MOL0     H51394   5.148  11.478   1.470  2.3272 -0.4431  4.5961
  381MOL0     H51395   5.002  11.251   1.819  0.8563 -1.9018  1.2812
  381MOL0     H51396   5.056  11.070   1.962  0.9103  1.0563  0.8260
  381MOL0     H51397   5.141  10.941   1.866 -0.6252 -0.3949  2.5528
  381MOL0     H51398   5.211  11.015   2.007 -1.4790 -0.1886  0.9616
  381MOL0     H51399   5.726  11.032   1.968  0.2193 -1.2145  1.3980
  381MOL0     H51400   5.905  10.856   1.965  0.9833  0.8335 -0.2791
  381MOL0     H51401   5.880  10.557   1.637 -0.0094 -0.7132 -1.7283
  381MOL0     H51402   6.015  10.636   1.573 -0.1543  1.8205  1.7061
  381MOL0     H51403   6.043  10.475   1.821  2.0659  0.4115  0.1318
  381MOL0     H51404   6.026  10.395   1.663 -2.2088  1.3614 -1.4475
  381MOL0     H51405   6.213  10.611   1.766  2.2123  1.3186 -2.0916
  381MOL0     H51406   6.237  10.539   1.607 -1.0581 -0.4267  0.3293
  381MOL0     H51407   6.317  10.418   1.871  1.9104 -0.5137  0.5403
  381MOL0     H51408   6.274  10.310   1.732 -0.1797  0.4722  0.7742
  381MOL0     H51409   6.454  10.420   1.592 -0.7992 -0.3066  0.1717
  381MOL0     H51410   6.523  10.358   1.738  1.0302  1.3565  2.1121
  381MOL0     H51411   6.606  10.576   1.662 -1.8870 -0.3286 -3.1018
  381MOL0     H51412   6.444  10.648   1.674 -1.1577 -2.0176 -1.5284
  381MOL0     H51413   6.587  10.506   1.916  3.1512  2.0168  0.1060
  381MOL0     H51414   6.452  10.618   1.924 -1.5421 -0.4272 -2.4765
  381MOL0     H51415   6.734  10.664   1.871 -0.9579 -4.3842  0.3501
  381MOL0     H51416   6.650  10.726   2.008 -2.3067 -1.5616  0.6396
  381MOL0     H51417   5.771  10.728   1.574 -1.4118 -1.5115  1.4045
  381MOL0     H51418   5.587  10.887   1.581 -0.6852 -5.4049  0.7941
  381MOL0     H51419   5.474  11.303   1.684 -0.2744 -2.8984 -0.6946
  381MOL0     H51420   5.312  11.460   1.616  3.8655 -0.5369  0.7088
  381MOL0     H51421   3.455  11.143   0.995 -2.4153  0.7057 -1.0077
  381MOL0     H51422   3.262  11.219   1.116 -0.8328 -1.2467 -0.3071
  381MOL0     H51423   2.841  10.933   1.334  2.0965  0.8466  2.1808
  381MOL0     H51424   2.613  11.038   1.368 -0.3993  0.2184 -0.8824
  381MOL0     H51425   2.453  11.156   1.278 -0.4167  0.1050  1.3419
  381MOL0     H51426   2.404  11.273   1.390 -1.7144  0.6965 -1.6039
  381MOL0     H51427   2.282  11.269   1.166  1.3152 -0.9502  0.8159
  381MOL0     H51428   2.444  11.293   1.081  0.1101  0.2582  0.4679
  381MOL0     H51429   2.340  11.513   1.097 -1.8078  1.0044  1.4306
  381MOL0     H51430   2.469  11.509   1.213  0.1061  0.8703  1.6850
  381MOL0     H51431   2.275  11.439   1.398 -0.2204 -1.5932  0.0220
  381MOL0     H51432   2.167  11.485   1.272  0.5815  0.0511 -2.7976
  381MOL0     H51433   2.324  11.850   1.397 -1.7368  0.2918 -1.1960
  381MOL0     H51434   2.795  11.424   1.372  0.4110 -0.0947 -0.3699
  381MOL0     H51435   3.018  11.319   1.376  1.6010 -1.6385 -0.1926
  382MOL0     O51436  10.072   5.227  10.185  0.2081 -0.4374 -0.1814
  382MOL0     C51437   9.988   5.154  10.228 -0.4501  0.5272 -0.0211
  382MOL0     O51438   9.876   5.114  10.167 -0.0274 -0.3726 -0.2097
  382MOL0     C51439   9.860   5.151  10.031  0.8992  0.1653 -0.5755
  382MOL0     C51440   9.731   5.199  10.002  0.3954 -0.2248 -0.7897
  382MOL0     C51441   9.704   5.249   9.872 -0.4843 -0.9260 -0.0882
  382MOL0     C51442   9.799   5.247   9.768  0.7467  0.7463  0.7812
  382MOL0     O51443   9.775   5.306   9.645  0.8919 -0.2643  0.1034
  382MOL0     C51444   9.684   5.223   9.575  0.1764  0.1634 -0.3946
  382MOL0     C51445   9.764   5.124   9.496 -1.0548 -0.5456 -0.0024
  382MOL0     C51446   9.672   5.022   9.433 -0.0455  0.3110  0.3174
  382MOL0     C51447   9.707   4.992   9.278 -0.2092 -0.4936 -0.1472
  382MOL0     C51448   9.602   4.893   9.238 -1.0561 -0.0769 -1.0665
  382MOL0     C51449   9.620   4.837   9.090 -1.3963  0.3632  0.3000
  382MOL0     C51450   9.755   4.771   9.077  0.3040 -0.4643  0.4170
  382MOL0     C51451   9.759   4.709   8.928  0.3474  0.4115 -0.8221
  382MOL0     N51452   9.724   4.803   8.817 -0.3200 -0.3482 -0.4405
  382MOL0     C51453   9.782   4.924   8.791 -0.0936 -0.3414 -0.4245
  382MOL0     C51454   9.729   4.966   8.670  0.5943  0.6601 -0.4104
  382MOL0     C51455   9.790   5.086   8.594  0.2721 -0.0992  0.7780
  382MOL0     C51456   9.682   5.163   8.527 -0.2597 -0.0537 -0.5127
  382MOL0     C51457   9.659   5.135   8.377  0.0184  0.1733 -1.4811
  382MOL0     C51458   9.611   4.997   8.334  0.0600  0.0937  0.3051
  382MOL0     O51459   9.575   5.006   8.198 -0.3478 -0.2256 -0.2902
  382MOL0     C51460   9.473   4.924   8.150 -0.6754 -0.1899 -0.3187
  382MOL0     C51461   9.414   4.815   8.215 -1.2369 -0.6854  0.7974
  382MOL0     C51462   9.303   4.754   8.153 -0.6401  0.3850 -1.0412
  382MOL0     C51463   9.252   4.621   8.210 -0.3958 -0.4114 -0.1768
  382MOL0     C51464   9.252   4.804   8.029 -0.9684 -0.6011  0.0749
  382MOL0     C51465   9.127   4.760   7.955  0.2776  1.0788 -0.8520
  382MOL0     O51466   9.114   4.784   7.826  0.4885  0.5403  0.3980
  382MOL0     C51467   9.017   4.738   7.744  0.2766  0.7437  0.0727
  382MOL0     C51468   8.886   4.768   7.790  0.0291 -0.2380  0.0478
  382MOL0     C51469   8.773   4.725   7.727 -0.5080 -0.5848 -0.2711
  382MOL0     C51470   8.787   4.645   7.615  1.0999 -0.1743  0.2503
  382MOL0     O51471   8.667   4.612   7.553  0.4038  0.5431  1.2430
  382MOL0     C51472   8.658   4.472   7.534  0.1870  0.1160 -0.0458
  382MOL0     C51473   8.518   4.447   7.475  1.2187 -0.7778  0.5546
  382MOL0     C51474   8.498   4.295   7.445 -0.1010 -0.0982  0.8200
  382MOL0     C51475   8.399   4.257   7.329 -0.2788  0.4962 -0.0559
  382MOL0     C51476   8.451   4.314   7.198  0.1826 -0.2191  0.2320
  382MOL0     C51477   8.366   4.284   7.074  0.0764 -0.0820  0.5073
  382MOL0     C51478   8.342   4.127   7.055 -0.3452 -0.4288 -0.4789
  382MOL0     C51479   8.282   4.075   6.918 -0.7061  0.3821 -0.3475
  382MOL0    Cl51480   8.117   4.118   6.887 -0.0873  0.4843 -0.1791
  382MOL0     C51481   8.911   4.607   7.576 -1.3317 -0.3805 -1.5556
  382MOL0     C51482   9.032   4.661   7.631  0.8116 -0.7011  0.0128
  382MOL0     O51483   9.042   4.698   8.025 -0.2098 -0.5008  0.0029
  382MOL0     C51484   9.320   4.907   7.959 -0.8487 -0.1731  0.5887
  382MOL0     C51485   9.431   4.966   8.020 -0.7095  0.1226 -0.1620
  382MOL0     N51486   9.631   4.876   8.638  0.7215  0.5577 -0.0532
  382MOL0     N51487   9.626   4.784   8.729 -0.3930 -0.2330  0.4373
  382MOL0     C51488   9.925   5.196   9.807 -0.6207 -1.3557  0.7757
  382MOL0     C51489   9.954   5.138   9.924  0.6686 -0.2752 -0.6082
  382MOL0     C51490  10.005   5.107  10.363 -0.3406 -0.0158 -1.2835
  382MOL0     C51491  10.080   5.194  10.449  0.5330 -0.1624 -0.6089
  382MOL0     C51492  10.090   5.182  10.587 -0.0342  0.4629  0.8133
  382MOL0     C51493  10.039   5.069  10.648  0.0987 -0.2711  0.4398
  382MOL0     O51494  10.061   5.051  10.779 -0.7935 -0.5361  0.1519
  382MOL0     C51495  10.197   5.019  10.821  0.4151  0.0736  0.5857
  382MOL0     C51496  10.194   4.881  10.888  0.0841  0.4923 -0.0069
  382MOL0     C51497  10.315   4.858  10.979  0.0309 -0.0281  0.2440
  382MOL0     C51498  10.446   4.832  10.901 -0.3215  0.2187  0.3379
  382MOL0     C51499  10.453   4.714  10.812  0.1042 -0.1253 -0.4302
  382MOL0     C51500  10.431   4.610  10.745  0.7998 -0.4270 -0.1055
  382MOL0     C51501   9.955   4.975  10.573 -0.8186 -0.2344  0.2627
  382MOL0     C51502   9.945   5.001  10.425  0.3017 -0.0985 -0.2894
  382MOL0     H51503   9.658   5.195  10.082 -0.6283 -0.8092 -1.7307
  382MOL0     H51504   9.612   5.304   9.855 -0.7003  0.1710  3.6860
  382MOL0     H51505   9.602   5.171   9.627  2.9275 -2.5985  1.5298
  382MOL0     H51506   9.632   5.294   9.509  3.7886  4.4034  0.8621
  382MOL0     H51507   9.832   5.180   9.432 -2.4375  1.3174  0.0743
  382MOL0     H51508   9.831   5.076   9.568  1.3551  1.6736 -0.6062
  382MOL0     H51509   9.664   4.928   9.488  1.4961 -0.6828 -1.0352
  382MOL0     H51510   9.568   5.055   9.432  0.6880  2.9380 -2.0045
  382MOL0     H51511   9.692   5.090   9.233 -4.8187  0.1949  2.2849
  382MOL0     H51512   9.810   4.956   9.273 -0.3661 -1.3087  1.6068
  382MOL0     H51513   9.597   4.801   9.298  2.7961 -0.1538 -0.5936
  382MOL0     H51514   9.510   4.949   9.255 -2.7083 -2.0118 -3.0921
  382MOL0     H51515   9.540   4.767   9.064 -1.9127  0.8928  0.4390
  382MOL0     H51516   9.617   4.927   9.027 -0.5480  0.1859 -0.0095
  382MOL0     H51517   9.840   4.837   9.096 -1.1936  0.5421  4.9424
  382MOL0     H51518   9.755   4.680   9.138 -2.2245  0.8923  2.6386
  382MOL0     H51519   9.688   4.626   8.916 -1.3187  1.5155  0.8871
  382MOL0     H51520   9.859   4.665   8.915  1.4119  2.7167 -0.9511
  382MOL0     H51521   9.860   4.977   8.844  0.2852  0.4040 -1.6735
  382MOL0     H51522   9.860   5.151   8.647  1.2410  0.1973 -0.8215
  382MOL0     H51523   9.848   5.033   8.518  0.0361 -1.3720  1.4377
  382MOL0     H51524   9.705   5.270   8.536 -2.9622  0.5612 -0.2347
  382MOL0     H51525   9.588   5.132   8.572  0.1363 -1.1497 -0.4161
  382MOL0     H51526   9.752   5.154   8.323  0.2848 -1.1809 -1.5356
  382MOL0     H51527   9.577   5.204   8.354  1.0199  3.1744  2.7333
  382MOL0     H51528   9.530   4.980   8.406  0.5169 -0.6244  0.6601
  382MOL0     H51529   9.687   4.919   8.344  0.1432  0.0163 -0.8536
  382MOL0     H51530   9.448   4.787   8.314  0.9275 -1.0611 -0.0163
  382MOL0     H51531   9.320   4.585   8.287  0.5109  1.8252  0.1527
  382MOL0     H51532   9.152   4.630   8.254 -0.5641 -2.3890 -0.0894
  382MOL0     H51533   9.257   4.550   8.127 -0.5582 -3.1828  2.0629
  382MOL0     H51534   8.883   4.803   7.892  2.9978 -1.5443  0.6904
  382MOL0     H51535   8.671   4.745   7.760 -1.9388  0.4185 -4.5977
  382MOL0     H51536   8.739   4.450   7.464  2.2357  0.4053  2.1035
  382MOL0     H51537   8.661   4.425   7.633 -0.7078  1.8845  0.8595
  382MOL0     H51538   8.439   4.479   7.543 -2.2639 -3.1401 -2.0153
  382MOL0     H51539   8.506   4.494   7.377  0.7788 -0.3385  0.8200
  382MOL0     H51540   8.467   4.240   7.535 -0.9683 -0.1692  0.4894
  382MOL0     H51541   8.600   4.265   7.423  0.2831  3.2632 -3.0488
  382MOL0     H51542   8.415   4.149   7.336  3.8350  1.0294  1.6262
  382MOL0     H51543   8.297   4.289   7.350 -1.5158 -3.5189  0.8581
  382MOL0     H51544   8.554   4.283   7.180 -0.3279  0.2529 -4.6949
  382MOL0     H51545   8.454   4.423   7.207 -2.1897 -0.0471 -0.4019
  382MOL0     H51546   8.263   4.320   7.085 -0.4501 -1.2616 -0.3333
  382MOL0     H51547   8.402   4.347   6.992 -0.6659 -0.8022 -0.3948
  382MOL0     H51548   8.272   4.109   7.136 -0.4419  3.7350  0.6227
  382MOL0     H51549   8.441   4.084   7.072  0.2117  1.4511  1.4978
  382MOL0     H51550   8.298   3.967   6.909 -0.8533  0.1692  1.5484
  382MOL0     H51551   8.338   4.118   6.834  1.2726 -0.2831  0.5753
  382MOL0     H51552   8.921   4.537   7.494 -1.4158  1.0366 -2.8277
  382MOL0     H51553   9.126   4.621   7.594 -0.0480 -0.3591 -2.7028
  382MOL0     H51554   9.296   4.950   7.863 -0.0892  1.5498  1.1352
  382MOL0     H51555   9.473   5.059   7.983 -2.9939  0.6072 -1.8126
  382MOL0     H51556  10.006   5.217   9.738 -0.7976 -2.5409  0.1800
  382MOL0     H51557  10.058   5.114   9.942  0.1788 -0.8355  1.8996
  382MOL0     H51558  10.118   5.286  10.406 -3.0109  1.6095 -0.3086
  382MOL0     H51559  10.147   5.248  10.653 -0.7796  2.5343 -0.5094
  382MOL0     H51560  10.281   5.013  10.750  0.5738 -0.7652  0.8355
  382MOL0     H51561  10.210   5.098  10.895 -0.0529 -0.3134  1.0825
  382MOL0     H51562  10.196   4.794  10.821 -0.2728  1.9062 -1.9572
  382MOL0     H51563  10.104   4.858  10.945 -0.9815  0.2551 -1.7081
  382MOL0     H51564  10.300   4.768  11.038  3.5524 -1.9261 -1.4697
  382MOL0     H51565  10.331   4.945  11.043 -1.8779  1.1862 -0.7940
  382MOL0     H51566  10.518   4.813  10.981 -2.1958 -0.2997  1.9948
  382MOL0     H51567  10.478   4.914  10.836  3.7807 -2.1871 -1.0485
  382MOL0     H51568  10.418   4.515  10.696 -1.1276  0.5967 -1.6737
  382MOL0     H51569   9.923   4.884  10.622  0.5391  0.3337  2.3628
  382MOL0     H51570   9.884   4.929  10.371 -1.5101  0.4962  0.8559
  383MOL0     O51571  10.182   9.752   7.509  0.7093 -0.3232  0.7108
  383MOL0     C51572  10.101   9.704   7.582  0.1379  0.8126 -0.2074
  383MOL0     O51573   9.998   9.763   7.644 -0.7193  0.0150  0.3109
  383MOL0     C51574   9.973   9.885   7.589 -0.4800 -0.6630 -0.3299
  383MOL0     C51575  10.010   9.998   7.664  0.8336  0.1102  0.1924
  383MOL0     C51576   9.978  10.135   7.626  0.8006 -0.1704  0.2287
  383MOL0     C51577   9.899  10.152   7.505 -0.1617  0.5365 -0.4258
  383MOL0     O51578   9.843  10.272   7.483 -0.0385  0.1442 -0.1301
  383MOL0     C51579   9.930  10.380   7.431 -0.3650  0.1759 -0.3816
  383MOL0     C51580   9.836  10.490   7.379  0.5922 -0.4441  0.1261
  383MOL0     C51581   9.796  10.462   7.228 -0.3320 -0.5279  0.2489
  383MOL0     C51582   9.708  10.579   7.176 -0.0560  0.1953 -0.4452
  383MOL0     C51583   9.709  10.606   7.021 -0.4636  0.5663 -0.3304
  383MOL0     C51584   9.619  10.720   6.993 -0.2169  0.2544 -0.0286
  383MOL0     C51585   9.616  10.734   6.845  0.1831 -0.3444  1.0628
  383MOL0     C51586   9.574  10.874   6.803  0.1420  0.8000  0.1354
  383MOL0     N51587   9.445  10.899   6.864  0.0814 -0.4021 -0.0307
  383MOL0     C51588   9.327  10.840   6.828 -0.5794  0.2037  0.0848
  383MOL0     C51589   9.238  10.876   6.926 -1.0600 -0.1637 -0.4714
  383MOL0     C51590   9.094  10.825   6.949  0.2071 -0.4385 -0.0881
  383MOL0     C51591   8.979  10.898   6.872 -1.1626  0.9059  0.0957
  383MOL0     C51592   8.955  11.038   6.920  0.0753  0.4118 -0.9260
  383MOL0     C51593   8.849  11.114   6.851  0.8101  0.9256  0.2401
  383MOL0     O51594   8.858  11.129   6.711 -0.3648  0.7605 -0.6255
  383MOL0     C51595   8.740  11.140   6.645 -0.6103  1.6732  0.0983
  383MOL0     C51596   8.687  11.021   6.574 -0.5792 -0.1294 -0.2234
  383MOL0     C51597   8.570  11.038   6.504  0.6258  0.3917  1.0772
  383MOL0     C51598   8.521  10.908   6.425 -0.2164  0.4906  1.5264
  383MOL0     C51599   8.509  11.165   6.492  0.7921 -0.4499  0.4637
  383MOL0     C51600   8.384  11.186   6.416 -0.3637  0.4275 -0.7225
  383MOL0     O51601   8.281  11.098   6.456 -0.0359  0.0924  0.6325
  383MOL0     C51602   8.169  11.101   6.374 -0.3099 -0.5990  0.1918
  383MOL0     C51603   8.158  11.009   6.268 -0.3388  0.4129 -0.0021
  383MOL0     C51604   8.054  11.014   6.181  0.1806  1.2563 -0.1908
  383MOL0     C51605   7.960  11.119   6.194  0.0420 -0.7320 -0.3137
  383MOL0     O51606   7.848  11.143   6.116 -0.1442  0.6874  0.8460
  383MOL0     C51607   7.780  11.025   6.058 -0.0289 -0.2843  0.5092
  383MOL0     C51608   7.712  10.930   6.171 -0.4309  0.4243  0.3313
  383MOL0     C51609   7.631  11.007   6.270 -0.4920 -0.6950 -0.2365
  383MOL0     C51610   7.610  10.929   6.394  0.5039  0.6366 -0.3984
  383MOL0     C51611   7.612  11.015   6.518  0.4128  0.6071  0.8577
  383MOL0     C51612   7.754  11.033   6.566  1.2151 -0.5864 -0.4167
  383MOL0     C51613   7.745  11.142   6.676  0.5812  0.0068  0.4744
  383MOL0     C51614   7.825  11.268   6.644  0.2156  0.0518  0.8604
  383MOL0    Cl51615   7.751  11.378   6.764 -0.0479 -0.2171 -0.0972
  383MOL0     C51616   7.976  11.220   6.291  0.1710 -1.7489  0.0645
  383MOL0     C51617   8.086  11.215   6.370  0.0340 -0.3211 -0.3636
  383MOL0     O51618   8.376  11.282   6.341 -0.3325  0.0854  0.2265
  383MOL0     C51619   8.566  11.273   6.545 -0.1218  0.1825 -0.4304
  383MOL0     C51620   8.685  11.260   6.624  0.5437 -0.2046  0.7139
  383MOL0     N51621   9.304  10.963   7.010 -0.2336  0.2483 -1.2651
  383MOL0     N51622   9.426  10.970   6.982 -0.2736 -0.9001  0.2935
  383MOL0     C51623   9.868  10.037   7.423 -0.3625 -0.0392 -0.7966
  383MOL0     C51624   9.892   9.904   7.468  0.0619  0.8282 -0.5727
  383MOL0     C51625  10.126   9.570   7.623 -0.2171  0.5949 -0.4897
  383MOL0     C51626  10.036   9.497   7.695  0.1316 -0.2671 -0.1676
  383MOL0     C51627  10.065   9.367   7.729 -0.2141  0.3274  0.0777
  383MOL0     C51628  10.192   9.313   7.715 -0.4686 -0.9022  1.5610
  383MOL0     O51629  10.226   9.197   7.765 -0.3321  0.1158  0.3962
  383MOL0     C51630  10.336   9.180   7.848  1.0471 -0.4931  0.1133
  383MOL0     C51631  10.437   9.085   7.782  0.0992  0.2479 -0.0377
  383MOL0     C51632  10.541   9.027   7.883 -0.3623 -0.4819 -0.1286
  383MOL0     C51633  10.646   8.949   7.809 -0.1933  0.4184  0.7900
  383MOL0     C51634  10.591   8.813   7.777 -0.7399 -0.5795  0.3689
  383MOL0     C51635  10.541   8.711   7.741 -0.6361 -0.3449 -0.9231
  383MOL0     C51636  10.290   9.394   7.649  0.1661  0.4748 -0.7318
  383MOL0     C51637  10.256   9.517   7.598  0.6274  0.1260  0.9962
  383MOL0     H51638  10.050   9.973   7.762  1.1209 -2.3431 -0.5011
  383MOL0     H51639   9.974  10.222   7.691  0.7679  2.0534 -2.5381
  383MOL0     H51640   9.993  10.421   7.511 -1.0105  2.1453 -0.8165
  383MOL0     H51641   9.995  10.337   7.355 -1.3771 -2.7085  0.2863
  383MOL0     H51642   9.745  10.507   7.438  0.9660  3.0571 -0.0954
  383MOL0     H51643   9.894  10.582   7.385 -2.5859  2.0833 -3.0428
  383MOL0     H51644   9.890  10.453   7.173  0.3872 -4.0233  1.7730
  383MOL0     H51645   9.737  10.370   7.224 -0.2241 -0.7647  2.6602
  383MOL0     H51646   9.605  10.553   7.200 -0.7281  2.3705 -0.7142
  383MOL0     H51647   9.732  10.666   7.238 -1.4918 -2.3537  4.1632
  383MOL0     H51648   9.811  10.641   7.004 -0.5344  0.2753 -1.4386
  383MOL0     H51649   9.700  10.519   6.955 -0.8040  0.0333  0.4137
  383MOL0     H51650   9.519  10.698   7.031  0.5773 -2.0072  0.9303
  383MOL0     H51651   9.644  10.809   7.052 -6.0872  1.2124  1.6533
  383MOL0     H51652   9.715  10.705   6.806 -0.7493  0.1005 -1.9222
  383MOL0     H51653   9.543  10.664   6.803 -0.7226  2.2787 -2.1439
  383MOL0     H51654   9.577  10.865   6.694 -0.8023 -4.4737  0.2859
  383MOL0     H51655   9.641  10.955   6.832 -0.4967  0.4961  2.7858
  383MOL0     H51656   9.294  10.771   6.751 -1.2769  1.0799 -0.4219
  383MOL0     H51657   9.085  10.718   6.929 -1.8425 -0.2977 -0.1230
  383MOL0     H51658   9.072  10.832   7.056 -2.4444 -0.1681 -0.5825
  383MOL0     H51659   8.886  10.842   6.878  0.6887 -2.3262  1.0567
  383MOL0     H51660   9.018  10.895   6.770  2.1866  3.7128  1.0655
  383MOL0     H51661   9.049  11.093   6.931 -1.3942  2.5470  5.7527
  383MOL0     H51662   8.911  11.047   7.020 -2.0505  4.6626 -1.9852
  383MOL0     H51663   8.827  11.210   6.898 -0.2907  0.3917  0.8467
  383MOL0     H51664   8.764  11.047   6.869  2.3863 -0.3389  4.0065
  383MOL0     H51665   8.735  10.924   6.580 -3.0339 -1.3506  0.9817
  383MOL0     H51666   8.572  10.817   6.456  2.9325 -0.1328 -4.1881
  383MOL0     H51667   8.413  10.892   6.432  0.1430 -1.5593  3.6014
  383MOL0     H51668   8.562  10.921   6.325  0.4410 -0.1328  1.7069
  383MOL0     H51669   8.219  10.920   6.270  1.1485  1.3411 -1.0514
  383MOL0     H51670   8.035  10.932   6.113  2.7207 -1.2668  1.8645
  383MOL0     H51671   7.700  11.063   5.995 -0.6290  0.2815  1.5862
  383MOL0     H51672   7.847  10.969   5.992  1.4115 -1.5897  2.9113
  383MOL0     H51673   7.639  10.854   6.143  1.3821 -0.8364 -1.2712
  383MOL0     H51674   7.800  10.895   6.226  1.0767  2.1288 -0.8774
  383MOL0     H51675   7.529  11.023   6.234 -0.8104  0.5064  1.0933
  383MOL0     H51676   7.665  11.110   6.287  0.6616 -0.9540 -0.9318
  383MOL0     H51677   7.522  10.866   6.386  0.6375  0.5777 -1.7065
  383MOL0     H51678   7.694  10.861   6.412  0.0673 -0.3899 -2.0510
  383MOL0     H51679   7.543  10.967   6.588  0.2859 -0.6252 -0.0694
  383MOL0     H51680   7.571  11.112   6.486 -0.7310 -0.0142  0.3927
  383MOL0     H51681   7.793  10.940   6.609 -0.1303  0.0766  2.4243
  383MOL0     H51682   7.821  11.065   6.485 -0.2641 -0.2381 -1.5458
  383MOL0     H51683   7.767  11.111   6.778 -0.2482 -0.9542  0.3796
  383MOL0     H51684   7.643  11.183   6.677  0.0865 -1.0983 -1.1186
  383MOL0     H51685   7.813  11.305   6.541  0.9862  3.5343  1.8794
  383MOL0     H51686   7.931  11.261   6.668  0.4622  1.4941  0.3335
  383MOL0     H51687   7.899  11.297   6.300  0.7990 -1.2941  2.1539
  383MOL0     H51688   8.106  11.293   6.444 -4.4428 -0.4631  1.3253
  383MOL0     H51689   8.531  11.374   6.531  2.3012  0.8875 -2.2114
  383MOL0     H51690   8.721  11.351   6.671 -3.3756  0.5700  2.6029
  383MOL0     H51691   9.809  10.046   7.333 -4.3213 -1.0125  1.4111
  383MOL0     H51692   9.849   9.818   7.418 -0.7928 -0.9410  2.8966
  383MOL0     H51693   9.936   9.538   7.706  0.7650  1.2118  0.4824
  383MOL0     H51694   9.997   9.306   7.787  0.8129 -0.3766  0.5927
  383MOL0     H51695  10.380   9.273   7.883 -0.6081 -0.2992  1.8831
  383MOL0     H51696  10.285   9.133   7.933  3.6563  0.6074  2.4280
  383MOL0     H51697  10.498   9.139   7.708 -1.8141  0.1488 -1.7924
  383MOL0     H51698  10.380   9.004   7.736 -0.0282  1.0135 -1.2912
  383MOL0     H51699  10.489   8.954   7.946 -1.7476 -0.2862 -0.9787
  383MOL0     H51700  10.589   9.097   7.951 -1.4417  0.3877 -0.2266
  383MOL0     H51701  10.732   8.944   7.876  1.4813 -0.6224 -1.3510
  383MOL0     H51702  10.696   8.996   7.725  2.0551 -0.3687  1.6237
  383MOL0     H51703  10.508   8.620   7.696  1.2781 -2.3915  1.5041
  383MOL0     H51704  10.390   9.352   7.639 -1.0193 -2.8282 -0.1259
  383MOL0     H51705  10.334   9.564   7.539 -0.8148 -0.2761 -1.3705
  384MOL0     O51706   8.759   4.257  10.311 -0.5301  0.4206  0.0057
  384MOL0     C51707   8.844   4.167  10.308  1.2908  0.0429 -0.1934
  384MOL0     O51708   8.850   4.068  10.221 -0.1802  0.3871 -0.3019
  384MOL0     C51709   8.767   4.049  10.110 -0.5240  0.4569  0.3498
  384MOL0     C51710   8.696   4.152  10.049 -0.1573  0.9744  0.9028
  384MOL0     C51711   8.607   4.117   9.953  0.6205  0.6505 -0.0967
  384MOL0     C51712   8.594   3.986   9.905  0.2027 -0.2228 -0.5736
  384MOL0     O51713   8.510   3.954   9.796  0.4046  0.2785  0.0705
  384MOL0     C51714   8.532   4.030   9.674  0.0918 -0.6782  0.3127
  384MOL0     C51715   8.580   3.938   9.562 -0.1264 -0.7781  0.3785
  384MOL0     C51716   8.731   3.909   9.571 -0.1790 -0.5548 -0.0317
  384MOL0     C51717   8.785   3.799   9.485 -0.0097  0.7756  0.2270
  384MOL0     C51718   8.774   3.810   9.335  0.9277  0.2863  0.2336
  384MOL0     C51719   8.866   3.901   9.263  0.3715  0.7892 -0.0629
  384MOL0     C51720   8.841   3.906   9.112  0.8532 -0.2618  1.1743
  384MOL0     C51721   8.701   3.941   9.071 -0.1280 -1.3021 -0.1383
  384MOL0     N51722   8.700   3.991   8.931 -0.1246  0.3959 -0.3116
  384MOL0     C51723   8.607   3.968   8.840  0.7617  0.6050  0.2104
  384MOL0     C51724   8.617   4.062   8.741 -1.4909  0.3118 -0.7529
  384MOL0     C51725   8.527   4.102   8.629 -0.0124  0.1443  0.0725
  384MOL0     C51726   8.555   4.019   8.504  0.3695  0.0990 -0.0777
  384MOL0     C51727   8.688   4.053   8.436  0.4154  0.5920 -0.7893
  384MOL0     C51728   8.702   3.975   8.308  0.7338 -0.0609  0.1410
  384MOL0     O51729   8.634   4.039   8.199  0.7646 -0.1040  0.0438
  384MOL0     C51730   8.619   3.979   8.077 -0.4106  0.1123  0.6038
  384MOL0     C51731   8.529   4.037   7.977 -0.0264  0.7286  0.3792
  384MOL0     C51732   8.493   3.969   7.860  0.0616 -0.2326  0.4387
  384MOL0     C51733   8.379   4.018   7.775 -0.1989 -0.5373 -0.8036
  384MOL0     C51734   8.562   3.848   7.830 -0.6732 -0.1956 -0.7044
  384MOL0     C51735   8.522   3.756   7.722  0.4559  0.4690  1.0468
  384MOL0     O51736   8.486   3.627   7.764 -0.9915  0.0661 -0.0261
  384MOL0     C51737   8.466   3.535   7.668 -0.8944  1.3299  0.0205
  384MOL0     C51738   8.567   3.501   7.583 -0.4571 -0.5876  0.3615
  384MOL0     C51739   8.561   3.386   7.502  0.7127  0.3748 -0.1549
  384MOL0     C51740   8.442   3.310   7.497  0.5449  1.0295 -0.4770
  384MOL0     O51741   8.433   3.197   7.413  0.0234  0.8648  0.0221
  384MOL0     C51742   8.326   3.196   7.314 -0.2960 -0.7984  0.4571
  384MOL0     C51743   8.345   3.287   7.199 -1.5813  0.9850  0.4525
  384MOL0     C51744   8.406   3.207   7.079 -0.1174  0.4450 -0.1383
  384MOL0     C51745   8.306   3.102   7.004 -0.0997  0.7043 -0.3094
  384MOL0     C51746   8.156   3.153   7.018 -0.0256  0.6474  0.1129
  384MOL0     C51747   8.065   3.079   6.916 -0.3205 -0.4206 -0.4283
  384MOL0     C51748   8.089   2.929   6.918  0.5814  0.8514  0.3047
  384MOL0     C51749   8.007   2.861   6.814  0.9098 -0.2435 -1.1970
  384MOL0    Cl51750   8.076   2.907   6.651  0.4209 -0.2178  0.2148
  384MOL0     C51751   8.327   3.355   7.572  0.3055 -0.2389  0.1063
  384MOL0     C51752   8.349   3.456   7.667  0.0392  0.7289 -0.3706
  384MOL0     O51753   8.523   3.797   7.604 -0.2201  0.4010  0.3904
  384MOL0     C51754   8.661   3.792   7.921  0.1696  0.5836  1.2953
  384MOL0     C51755   8.684   3.854   8.040  0.1371  1.3988 -0.3432
  384MOL0     N51756   8.738   4.135   8.776  0.6107  0.5042 -0.0637
  384MOL0     N51757   8.777   4.089   8.885 -0.3058 -0.0423  0.0302
  384MOL0     C51758   8.671   3.887   9.969 -0.8809 -0.4882 -0.7288
  384MOL0     C51759   8.752   3.919  10.067  0.0088  0.5151 -0.5396
  384MOL0     C51760   8.932   4.163  10.426 -0.2039  0.6404  0.1468
  384MOL0     C51761   9.043   4.073  10.428 -0.2808  0.4039 -0.2942
  384MOL0     C51762   9.129   4.054  10.537  0.2397 -0.4202  0.4890
  384MOL0     C51763   9.117   4.140  10.651  0.3357  0.9528  1.2406
  384MOL0     O51764   9.199   4.142  10.757  0.2699 -0.6539 -0.5446
  384MOL0     C51765   9.329   4.091  10.752  0.0169 -0.0209  0.1164
  384MOL0     C51766   9.364   4.023  10.890  0.2881 -0.4901  0.4152
  384MOL0     C51767   9.317   3.873  10.899 -0.1746 -0.4054  1.3596
  384MOL0     C51768   9.174   3.851  10.962 -0.5502 -0.4479 -0.1718
  384MOL0     C51769   9.161   3.923  11.089  0.2890 -0.0031 -1.4456
  384MOL0     C51770   9.141   3.976  11.197  0.6246 -0.1688 -0.1185
  384MOL0     C51771   9.008   4.227  10.652  0.2421  0.0348  0.1999
  384MOL0     C51772   8.916   4.234  10.546 -0.1398  0.6707 -0.0839
  384MOL0     H51773   8.690   4.256  10.077 -1.1378  0.3429  3.2252
  384MOL0     H51774   8.544   4.194   9.911 -1.5340  0.6566  2.8345
  384MOL0     H51775   8.435   4.067   9.642 -0.3472 -1.8194  0.2818
  384MOL0     H51776   8.603   4.113   9.675 -1.5719  0.8010  0.4650
  384MOL0     H51777   8.532   3.839   9.559 -2.0270  0.0960  0.6095
  384MOL0     H51778   8.565   3.989   9.467 -0.6060  2.2994  1.9832
  384MOL0     H51779   8.786   4.002   9.552 -0.0861  0.3455  3.8010
  384MOL0     H51780   8.753   3.888   9.676  5.1442  2.1572 -0.2648
  384MOL0     H51781   8.892   3.782   9.503 -0.3911 -1.4889  0.7386
  384MOL0     H51782   8.736   3.708   9.522 -3.0211  2.2440  0.0837
  384MOL0     H51783   8.801   3.714   9.291  1.7506 -0.1084  1.5357
  384MOL0     H51784   8.668   3.832   9.323  0.5986 -1.5081 -0.4719
  384MOL0     H51785   8.847   4.000   9.306  0.3959  0.8883 -0.2796
  384MOL0     H51786   8.966   3.857   9.266 -1.1937 -3.1283 -0.3254
  384MOL0     H51787   8.905   3.975   9.056  0.2671  0.4506  1.3690
  384MOL0     H51788   8.844   3.810   9.060 -1.0372  0.6045 -0.7265
  384MOL0     H51789   8.661   4.021   9.133 -0.3377  0.8464 -2.8497
  384MOL0     H51790   8.644   3.848   9.068  2.3007 -2.8900 -0.1932
  384MOL0     H51791   8.525   3.898   8.846 -1.4686  3.0835  0.4436
  384MOL0     H51792   8.426   4.071   8.660  0.2355  0.1624  0.9096
  384MOL0     H51793   8.531   4.208   8.603 -4.1562  1.5605  3.8847
  384MOL0     H51794   8.473   4.025   8.431  1.7821 -2.0726 -1.9635
  384MOL0     H51795   8.549   3.915   8.537  0.0701 -0.4199 -1.6466
  384MOL0     H51796   8.770   4.030   8.505 -0.2806  0.0550 -0.1243
  384MOL0     H51797   8.678   4.160   8.416 -0.5784  0.5431 -0.5943
  384MOL0     H51798   8.669   3.871   8.318  0.6643  0.1721  2.9504
  384MOL0     H51799   8.810   3.962   8.298  0.9881 -0.9422  3.1235
  384MOL0     H51800   8.507   4.138   8.011  1.2048  0.4370  2.1364
  384MOL0     H51801   8.409   4.083   7.693  1.3258 -2.2499 -1.6501
  384MOL0     H51802   8.318   3.935   7.738  0.4399 -1.6863  0.6260
  384MOL0     H51803   8.312   4.053   7.855  0.6000 -1.6486  0.4030
  384MOL0     H51804   8.657   3.562   7.580  0.9567 -2.3259  3.0543
  384MOL0     H51805   8.643   3.348   7.442  0.2534 -3.2971  1.2643
  384MOL0     H51806   8.323   3.096   7.270  2.2693 -0.3322 -0.9544
  384MOL0     H51807   8.226   3.218   7.353 -0.9793 -2.5809 -0.1721
  384MOL0     H51808   8.257   3.347   7.173 -0.9362  1.2486 -1.2262
  384MOL0     H51809   8.422   3.362   7.222  3.3916 -3.1865 -0.7063
  384MOL0     H51810   8.502   3.164   7.109 -0.7641 -0.1346  1.1478
  384MOL0     H51811   8.423   3.278   6.997 -2.6378 -1.4739 -2.5089
  384MOL0     H51812   8.338   3.101   6.900  2.5349 -1.4418  0.4177
  384MOL0     H51813   8.307   3.008   7.059 -0.1363  0.7515 -0.2266
  384MOL0     H51814   8.158   3.261   7.002  2.6929  0.5627 -0.7156
  384MOL0     H51815   8.127   3.126   7.120  1.1084 -2.3748 -0.2526
  384MOL0     H51816   7.958   3.100   6.922  0.0056  1.1161  2.6468
  384MOL0     H51817   8.100   3.115   6.819 -0.7686  0.8265 -0.1468
  384MOL0     H51818   8.043   2.896   7.011 -0.3645 -2.7267 -1.2525
  384MOL0     H51819   8.189   2.886   6.923 -0.7503 -2.4045  1.6506
  384MOL0     H51820   7.907   2.901   6.831  2.1171  2.2017  0.8753
  384MOL0     H51821   8.003   2.752   6.826  1.9313 -0.2689 -1.0333
  384MOL0     H51822   8.231   3.304   7.577 -1.3230  2.7018  2.6399
  384MOL0     H51823   8.275   3.482   7.741  2.4862  0.1147  2.4589
  384MOL0     H51824   8.705   3.693   7.909  1.4101  1.0260  2.0409
  384MOL0     H51825   8.748   3.801   8.109 -0.8320  0.0062 -0.4616
  384MOL0     H51826   8.661   3.784   9.936  0.6225 -1.5315  1.8099
  384MOL0     H51827   8.811   3.842  10.117 -0.7963  0.4108  0.2858
  384MOL0     H51828   9.067   4.019  10.336  3.7438 -2.1597  1.9130
  384MOL0     H51829   9.208   3.979  10.536  0.2210 -0.4757  1.7613
  384MOL0     H51830   9.358   4.020  10.674 -2.2373  0.1949 -1.0044
  384MOL0     H51831   9.401   4.172  10.737 -1.1023  1.0890  0.5661
  384MOL0     H51832   9.337   4.075  10.982  1.5625  1.8138 -0.4456
  384MOL0     H51833   9.473   4.028  10.902  0.4217 -1.7684 -0.0249
  384MOL0     H51834   9.383   3.821  10.969 -1.3319  1.2595  3.8794
  384MOL0     H51835   9.312   3.823  10.802 -2.8759  0.2939  1.0374
  384MOL0     H51836   9.148   3.747  10.984 -2.1702  0.0474  0.4705
  384MOL0     H51837   9.093   3.901  10.908  0.4359  0.3475 -0.9594
  384MOL0     H51838   9.105   4.013  11.291 -0.2127 -3.7230  1.1041
  384MOL0     H51839   9.001   4.283  10.745  1.0030 -2.5560  1.9399
  384MOL0     H51840   8.838   4.309  10.556  1.2410  2.3113 -0.9648
  385MOL0     O51841  10.758  11.186  10.839 -0.2686 -0.7412  0.1135
  385MOL0     C51842  10.655  11.163  10.781  0.4069  0.4814 -0.6960
  385MOL0     O51843  10.653  11.134  10.649 -0.4901 -0.3425  0.4165
  385MOL0     C51844  10.764  11.095  10.583 -0.8072 -0.3224 -0.2467
  385MOL0     C51845  10.865  11.012  10.634 -0.0093  0.5861 -0.2278
  385MOL0     C51846  10.969  10.967  10.556  0.5261 -0.2145  0.3959
  385MOL0     C51847  10.979  11.006  10.416  0.0503 -0.0874 -0.8816
  385MOL0     O51848  11.072  10.976  10.318  0.5749 -0.5437  0.1755
  385MOL0     C51849  11.159  10.863  10.344 -0.2288 -0.7463 -1.0959
  385MOL0     C51850  11.287  10.874  10.274 -0.0953  0.3747  0.5110
  385MOL0     C51851  11.386  10.749  10.290 -0.8499  0.2885  0.4867
  385MOL0     C51852  11.396  10.708  10.429 -0.7792 -0.5980 -0.5688
  385MOL0     C51853  11.527  10.647  10.487  0.5146 -0.1591  1.0792
  385MOL0     C51854  11.639  10.755  10.513  0.3923 -0.7874 -0.6568
  385MOL0     C51855  11.771  10.700  10.559  0.3411  0.0476 -0.5926
  385MOL0     C51856  11.844  10.609  10.467 -0.4994  0.6145 -0.1683
  385MOL0     N51857  11.888  10.681  10.347  0.0498 -0.2380  0.5545
  385MOL0     C51858  11.852  10.639  10.217  0.1270 -0.9684  0.1245
  385MOL0     C51859  11.939  10.692  10.131 -0.5176  0.4005  0.2772
  385MOL0     C51860  11.925  10.671   9.977 -0.3617  0.3899 -0.1538
  385MOL0     C51861  11.962  10.526   9.949  0.7995  0.0370 -0.0290
  385MOL0     C51862  12.110  10.484   9.979  0.4220 -1.4109 -0.3176
  385MOL0     C51863  12.140  10.367   9.888 -0.2300 -0.1484 -1.4740
  385MOL0     O51864  12.044  10.257   9.916 -0.0034  0.7358 -0.2254
  385MOL0     C51865  12.089  10.145   9.972 -0.1157 -0.1951  0.0695
  385MOL0     C51866  12.177  10.147  10.078 -0.4443  0.5341 -0.0766
  385MOL0     C51867  12.211  10.023  10.135 -0.5281  0.4309 -0.0350
  385MOL0     C51868  12.322  10.017  10.241 -0.8750  0.4095 -0.4233
  385MOL0     C51869  12.153   9.899  10.087 -0.7325 -0.5236  0.2858
  385MOL0     C51870  12.193   9.757  10.118 -0.1316  0.3694 -0.0470
  385MOL0     O51871  12.101   9.659  10.073  0.3402  0.0155  0.4566
  385MOL0     C51872  12.113   9.523  10.099  0.0147 -0.7785 -0.5908
  385MOL0     C51873  12.219   9.453  10.173  0.5033 -0.7841  0.4032
  385MOL0     C51874  12.222   9.315  10.175 -0.6844 -0.4283  0.2655
  385MOL0     C51875  12.114   9.245  10.118 -0.3520 -0.4665  0.5971
  385MOL0     O51876  12.113   9.110  10.129  0.1282 -0.2261 -0.3949
  385MOL0     C51877  12.088   9.033  10.011 -0.8743  1.2073 -0.4245
  385MOL0     C51878  12.205   8.953   9.949 -0.2751  0.6036 -0.7405
  385MOL0     C51879  12.282   8.844  10.044  0.6131 -0.0937  0.5204
  385MOL0     C51880  12.345   8.907  10.180 -0.3105 -0.7407  0.2031
  385MOL0     C51881  12.476   8.844  10.232  0.3606  0.9715  0.1056
  385MOL0     C51882  12.476   8.795  10.372  0.8839 -0.1855 -0.2538
  385MOL0     C51883  12.605   8.730  10.412 -0.5360  0.5439  0.3814
  385MOL0     C51884  12.587   8.583  10.430  0.4656  0.4768 -0.2729
  385MOL0    Cl51885  12.541   8.506  10.275 -0.4483 -0.2980  0.7093
  385MOL0     C51886  12.012   9.314  10.052 -0.2059  0.7638  0.9105
  385MOL0     C51887  12.010   9.449  10.047  0.0452  0.4694 -0.2720
  385MOL0     O51888  12.298   9.735  10.170 -0.3282  0.4810 -0.6005
  385MOL0     C51889  12.059   9.909   9.988 -0.5595 -0.4634 -0.1878
  385MOL0     C51890  12.026  10.028   9.929  0.0533  0.4427 -0.3838
  385MOL0     N51891  12.029  10.772  10.210  0.8848 -0.0755  0.6282
  385MOL0     N51892  11.986  10.775  10.336 -0.0289 -0.2955  0.3823
  385MOL0     C51893  10.884  11.099  10.373  0.6721 -0.9785 -0.3987
  385MOL0     C51894  10.775  11.143  10.457  1.1707 -0.5505  0.2378
  385MOL0     C51895  10.533  11.185  10.874  0.4099  0.2693  0.1235
  385MOL0     C51896  10.541  11.201  11.006 -0.0760 -0.7224 -0.1774
  385MOL0     C51897  10.420  11.229  11.077  0.3951 -0.7857  0.0187
  385MOL0     C51898  10.294  11.219  11.021  0.3010  0.7947  0.0317
  385MOL0     O51899  10.182  11.221  11.099  0.7852  0.6344  0.4793
  385MOL0     C51900  10.188  11.184  11.232  0.3441 -0.6881  1.0693
  385MOL0     C51901  10.056  11.121  11.248  0.1190  0.1142 -0.9546
  385MOL0     C51902  10.079  10.997  11.345  0.2070  0.1351 -0.6612
  385MOL0     C51903   9.943  10.920  11.332  0.3485 -0.1613 -0.5267
  385MOL0     C51904   9.924  10.795  11.410 -0.7742  0.0863  0.1266
  385MOL0     C51905   9.896  10.717  11.496  0.2897  0.1667  0.2153
  385MOL0     C51906  10.286  11.190  10.889 -0.2083 -0.6126  0.6677
  385MOL0     C51907  10.402  11.186  10.819 -0.2766 -0.0528  0.7182
  385MOL0     H51908  10.856  10.958  10.728  5.0242  0.7944  0.6429
  385MOL0     H51909  11.046  10.898  10.586  1.8573  0.8122 -0.5190
  385MOL0     H51910  11.185  10.850  10.450 -1.9824 -5.6549 -1.0061
  385MOL0     H51911  11.111  10.772  10.307 -0.1727 -2.6952  3.0038
  385MOL0     H51912  11.269  10.907  10.171 -2.9044  2.0013  1.3866
  385MOL0     H51913  11.332  10.959  10.327  1.6523  0.6722 -1.3478
  385MOL0     H51914  11.342  10.666  10.233  1.7135 -1.5243  0.9897
  385MOL0     H51915  11.486  10.761  10.247 -0.4322  1.2479  1.6805
  385MOL0     H51916  11.375  10.794  10.493 -0.7398 -0.7276 -0.3792
  385MOL0     H51917  11.315  10.636  10.447 -1.1886 -0.1710 -0.6893
  385MOL0     H51918  11.519  10.596  10.584  1.8791  1.2035  1.9594
  385MOL0     H51919  11.569  10.584  10.408  2.2334  1.6280  0.4929
  385MOL0     H51920  11.667  10.817  10.427 -0.0827  1.3004  0.6250
  385MOL0     H51921  11.606  10.819  10.595 -0.1662 -1.6942 -0.1530
  385MOL0     H51922  11.846  10.772  10.592 -0.6212  0.5722  0.5031
  385MOL0     H51923  11.745  10.654  10.655  0.5683 -0.0885 -0.5966
  385MOL0     H51924  11.782  10.523  10.443  0.1450  0.5835 -1.8685
  385MOL0     H51925  11.937  10.568  10.507 -1.9508 -2.5552  0.2583
  385MOL0     H51926  11.777  10.564  10.195  0.7115 -2.1169  1.8148
  385MOL0     H51927  11.824  10.688   9.940 -0.4211 -0.9367 -0.6844
  385MOL0     H51928  11.991  10.730   9.913 -0.9685  0.8377 -0.3668
  385MOL0     H51929  11.916  10.502   9.853  2.1396  0.3037 -0.7584
  385MOL0     H51930  11.898  10.461  10.010  1.9415 -0.2120  0.9385
  385MOL0     H51931  12.113  10.461  10.086  2.7268 -1.6318 -0.3667
  385MOL0     H51932  12.185  10.561   9.957  2.0118 -2.7298  0.2032
  385MOL0     H51933  12.246  10.341   9.899  1.1011  3.4777 -3.8457
  385MOL0     H51934  12.134  10.390   9.781 -1.2485  2.0834 -0.9828
  385MOL0     H51935  12.233  10.233  10.114 -0.3710 -0.2517  1.8193
  385MOL0     H51936  12.320   9.935  10.314  2.0649  0.9725  0.3871
  385MOL0     H51937  12.414   9.999  10.185 -0.4981 -1.1532  0.6405
  385MOL0     H51938  12.327  10.108  10.300  2.1881  0.9240 -1.3033
  385MOL0     H51939  12.301   9.500  10.226 -2.2442  2.3311  2.2004
  385MOL0     H51940  12.303   9.258  10.218  2.5879  1.0265 -3.3834
  385MOL0     H51941  12.010   8.961  10.037  1.8032 -1.6527  0.2534
  385MOL0     H51942  12.039   9.094   9.934 -0.9322  1.1715 -0.4166
  385MOL0     H51943  12.166   8.900   9.861  1.0942  1.9878 -2.2393
  385MOL0     H51944  12.281   9.022   9.911  1.3143 -0.5577  0.1980
  385MOL0     H51945  12.357   8.796   9.981 -0.4352 -0.7991 -0.2253
  385MOL0     H51946  12.217   8.758  10.067 -2.6001  1.1616 -2.8846
  385MOL0     H51947  12.368   9.013  10.167  2.8376 -1.6573 -3.2095
  385MOL0     H51948  12.261   8.909  10.251 -0.8255  1.9137 -0.3584
  385MOL0     H51949  12.570   8.894  10.206  1.7336 -2.7467 -3.1244
  385MOL0     H51950  12.483   8.759  10.164 -1.6070 -0.7519  1.9521
  385MOL0     H51951  12.462   8.888  10.429  1.2396  0.2948 -0.9415
  385MOL0     H51952  12.386   8.734  10.388 -0.2747  1.2965 -0.8159
  385MOL0     H51953  12.649   8.776  10.501  4.0524 -0.0591 -1.2801
  385MOL0     H51954  12.677   8.745  10.331 -0.6979  1.5099  0.4014
  385MOL0     H51955  12.510   8.569  10.506  2.6850  2.8037  2.6468
  385MOL0     H51956  12.681   8.551  10.475  1.1536  1.8370 -0.6935
  385MOL0     H51957  11.931   9.253  10.013  0.5825  0.3508 -0.0879
  385MOL0     H51958  11.918   9.483  10.001  1.1413  5.0134  0.4269
  385MOL0     H51959  12.009   9.821   9.948 -0.6968 -0.5099  0.0891
  385MOL0     H51960  11.971  10.033   9.836  4.4737  2.2811 -3.1943
  385MOL0     H51961  10.886  11.137  10.272  3.8077  1.3307  0.3727
  385MOL0     H51962  10.700  11.212  10.421  0.3452 -3.1158 -3.6085
  385MOL0     H51963  10.639  11.203  11.053 -0.9972 -3.1009  2.1163
  385MOL0     H51964  10.424  11.263  11.180  0.3314  2.9666 -1.0831
  385MOL0     H51965  10.276  11.119  11.237  1.3515  0.3789 -1.3100
  385MOL0     H51966  10.217  11.278  11.281 -1.1084 -0.0074  0.6594
  385MOL0     H51967  10.014  11.073  11.159 -0.5046 -1.9024  0.3454
  385MOL0     H51968   9.993  11.198  11.292  0.9096  1.8960 -2.7824
  385MOL0     H51969  10.117  11.027  11.443  3.5464  0.3753 -1.8754
  385MOL0     H51970  10.150  10.926  11.301 -1.5621 -2.0808 -0.1270
  385MOL0     H51971   9.924  10.899  11.226 -1.7510  1.1864 -0.4905
  385MOL0     H51972   9.855  10.981  11.355 -0.5455 -1.2220 -1.0768
  385MOL0     H51973   9.862  10.646  11.569  0.4327  1.2831  1.4212
  385MOL0     H51974  10.185  11.189  10.850 -0.8401  2.4241  1.9885
  385MOL0     H51975  10.382  11.153  10.717 -1.3862 -0.1028  0.9437
  386MOL0     O51976  11.055   2.554   7.344  0.3606 -0.0997 -0.2168
  386MOL0     C51977  11.112   2.445   7.320  1.1252 -0.2000  0.4164
  386MOL0     O51978  11.100   2.362   7.207 -1.0655 -0.4521  0.0323
  386MOL0     C51979  11.040   2.397   7.099 -0.2047 -0.2482  0.0888
  386MOL0     C51980  10.949   2.507   7.064  0.0481  0.7964 -0.0103
  386MOL0     C51981  10.882   2.521   6.942 -1.1217 -0.0753 -0.3258
  386MOL0     C51982  10.897   2.431   6.841  0.2400 -0.6578 -0.1938
  386MOL0     O51983  10.838   2.427   6.712 -0.1726  0.1951  0.8129
  386MOL0     C51984  10.706   2.485   6.701  0.3243  0.7544 -0.2116
  386MOL0     C51985  10.596   2.374   6.745 -0.4950 -0.6752  0.0410
  386MOL0     C51986  10.561   2.287   6.635 -0.4382 -0.2260  0.3535
  386MOL0     C51987  10.687   2.203   6.590  0.4401  0.7065  0.8706
  386MOL0     C51988  10.647   2.065   6.532 -0.2182 -0.6330  0.6276
  386MOL0     C51989  10.568   2.063   6.400  0.2463  0.2776 -0.6024
  386MOL0     C51990  10.545   1.917   6.352  0.1666 -0.2806 -0.4080
  386MOL0     C51991  10.648   1.853   6.261  0.2211  0.6593 -0.6655
  386MOL0     N51992  10.628   1.704   6.263  0.6176 -0.0398 -0.5863
  386MOL0     C51993  10.513   1.637   6.298 -0.8105 -0.2979 -0.8416
  386MOL0     C51994  10.508   1.534   6.217 -0.7854 -1.5414 -0.0162
  386MOL0     C51995  10.399   1.438   6.219  0.3177 -0.2740  0.1275
  386MOL0     C51996  10.454   1.297   6.179  1.2402 -0.4176  0.5981
  386MOL0     C51997  10.530   1.219   6.295  0.3513  0.0498  0.1626
  386MOL0     C51998  10.480   1.239   6.439  0.5329  0.6650  0.0952
  386MOL0     O51999  10.551   1.152   6.534  0.2433  0.9528  0.9739
  386MOL0     C52000  10.666   1.189   6.591 -0.2268 -0.0040 -0.0879
  386MOL0     C52001  10.710   1.119   6.697 -0.5561 -1.1096  0.3075
  386MOL0     C52002  10.827   1.145   6.769 -0.6012  1.3039  0.4576
  386MOL0     C52003  10.860   1.047   6.873 -0.1144  0.3341 -0.2665
  386MOL0     C52004  10.908   1.254   6.720  0.4866  0.9740 -1.5997
  386MOL0     C52005  11.043   1.289   6.779  0.0785  0.3107 -0.2859
  386MOL0     O52006  11.086   1.409   6.740 -0.2489  0.4503  0.1699
  386MOL0     C52007  11.212   1.456   6.777 -0.6370  1.0628 -0.4096
  386MOL0     C52008  11.312   1.473   6.683 -0.4534  0.8147 -0.6759
  386MOL0     C52009  11.441   1.518   6.724 -0.5138  0.5983 -0.2367
  386MOL0     C52010  11.471   1.539   6.858 -0.8452 -1.0623  0.7850
  386MOL0     O52011  11.609   1.563   6.881  0.1554 -0.9281 -0.1929
  386MOL0     C52012  11.651   1.549   7.020 -0.5101 -0.3891 -0.9701
  386MOL0     C52013  11.795   1.600   7.037  0.3243  0.1894  0.4329
  386MOL0     C52014  11.829   1.745   6.979 -0.9942  0.7598  0.8484
  386MOL0     C52015  11.976   1.794   7.016  0.3511  1.5463 -0.3867
  386MOL0     C52016  11.997   1.937   6.973  0.3530  0.1909 -0.0490
  386MOL0     C52017  12.140   1.979   7.016  0.1609  0.5991 -0.7639
  386MOL0     C52018  12.221   1.914   7.130  0.8277  0.3412 -0.0970
  386MOL0     C52019  12.340   2.002   7.177 -0.0923  0.7806 -0.5700
  386MOL0    Cl52020  12.435   1.925   7.310  0.0360  0.3310 -0.1997
  386MOL0     C52021  11.360   1.541   6.956 -0.5074  0.9367 -0.6315
  386MOL0     C52022  11.235   1.498   6.911  0.1139 -0.1600  1.2294
  386MOL0     O52023  11.097   1.213   6.859  0.9499 -0.0431 -0.5490
  386MOL0     C52024  10.869   1.325   6.617  0.0171  0.2476  0.7058
  386MOL0     C52025  10.750   1.294   6.545 -0.4464 -0.1221 -0.1893
  386MOL0     N52026  10.623   1.536   6.140  0.0338  0.1865 -0.0081
  386MOL0     N52027  10.689   1.633   6.166 -0.0548  0.0935 -0.4251
  386MOL0     C52028  10.986   2.323   6.869 -0.2869 -0.1924 -0.2527
  386MOL0     C52029  11.043   2.304   6.997 -1.0032 -0.5265 -0.1747
  386MOL0     C52030  11.218   2.408   7.418 -0.0867 -0.6100 -0.6080
  386MOL0     C52031  11.237   2.487   7.537  1.2467 -0.0455 -0.5622
  386MOL0     C52032  11.351   2.472   7.607 -0.1640 -0.0485 -0.2376
  386MOL0     C52033  11.446   2.384   7.582  0.3510 -0.5905  0.3063
  386MOL0     O52034  11.556   2.367   7.667 -0.6723 -0.1478  0.0323
  386MOL0     C52035  11.667   2.277   7.635  0.8384 -0.6609  0.2028
  386MOL0     C52036  11.741   2.257   7.770  0.4262  0.5469 -0.1859
  386MOL0     C52037  11.651   2.174   7.880 -0.6205 -0.3166 -0.5222
  386MOL0     C52038  11.574   2.055   7.815  0.0893  0.2621 -0.4396
  386MOL0     C52039  11.539   1.958   7.914  0.2642  0.6004  0.4603
  386MOL0     C52040  11.498   1.872   7.995  0.6511  0.3878 -0.2819
  386MOL0     C52041  11.415   2.287   7.480  0.0244 -0.6581 -0.4182
  386MOL0     C52042  11.300   2.298   7.400 -0.2585 -1.0048 -0.5552
  386MOL0     H52043  10.912   2.568   7.146 -1.7574 -2.1190  1.5008
  386MOL0     H52044  10.820   2.609   6.927 -1.3191  0.1725  1.6351
  386MOL0     H52045  10.693   2.566   6.774 -2.4931 -0.3238  0.6158
  386MOL0     H52046  10.666   2.505   6.601 -3.4638 -1.2603  0.6927
  386MOL0     H52047  10.632   2.310   6.826 -1.6319 -2.1276 -0.5647
  386MOL0     H52048  10.510   2.429   6.784  0.0925  0.4575 -0.2093
  386MOL0     H52049  10.485   2.221   6.678 -0.9699 -0.9482 -1.5720
  386MOL0     H52050  10.499   2.324   6.553 -2.3304 -3.8679 -0.0634
  386MOL0     H52051  10.741   2.263   6.516 -3.2246  1.8019 -1.1764
  386MOL0     H52052  10.750   2.175   6.675  2.0699 -0.0528 -0.5290
  386MOL0     H52053  10.735   2.002   6.517  1.0324  0.7278  1.9201
  386MOL0     H52054  10.588   2.015   6.610  1.1610 -0.2480  1.9646
  386MOL0     H52055  10.478   2.118   6.429  1.9499  1.2555  3.6684
  386MOL0     H52056  10.627   2.112   6.322 -0.8807  0.4767 -1.3525
  386MOL0     H52057  10.534   1.854   6.440 -0.2017 -0.0573 -0.2933
  386MOL0     H52058  10.452   1.919   6.295 -0.0770  0.8300 -0.0119
  386MOL0     H52059  10.740   1.860   6.319 -1.8254 -2.1097  3.4186
  386MOL0     H52060  10.636   1.900   6.162 -0.6697  0.6988 -0.5509
  386MOL0     H52061  10.441   1.670   6.372 -0.4932 -1.6218  0.1000
  386MOL0     H52062  10.346   1.440   6.315  0.3560 -3.0295  0.2725
  386MOL0     H52063  10.329   1.476   6.144 -1.3258 -3.4675 -0.1126
  386MOL0     H52064  10.519   1.305   6.092  2.8264 -2.3101  1.5215
  386MOL0     H52065  10.371   1.234   6.143  1.8131  1.2277 -4.3505
  386MOL0     H52066  10.639   1.231   6.297  0.5210 -1.0112 -1.2099
  386MOL0     H52067  10.523   1.113   6.267  0.6819 -1.1843  4.0443
  386MOL0     H52068  10.376   1.205   6.441 -0.1527  2.5822 -0.4932
  386MOL0     H52069  10.481   1.344   6.470 -0.7079  0.2965  1.4788
  386MOL0     H52070  10.656   1.026   6.711 -1.1818 -1.1832 -2.1370
  386MOL0     H52071  10.924   0.965   6.839 -1.7862  0.1024 -3.3148
  386MOL0     H52072  10.897   1.105   6.958 -1.2537 -1.9271  1.8984
  386MOL0     H52073  10.765   0.995   6.890 -0.5216  0.8044 -1.0585
  386MOL0     H52074  11.303   1.451   6.578  5.0927 -0.3838 -1.1969
  386MOL0     H52075  11.524   1.517   6.655 -0.4625  2.5991 -0.2618
  386MOL0     H52076  11.583   1.604   7.086  0.9919  0.4730 -0.0798
  386MOL0     H52077  11.652   1.442   7.043  0.9318 -0.7111 -2.3912
  386MOL0     H52078  11.807   1.596   7.146  0.4412  1.6722  0.4862
  386MOL0     H52079  11.862   1.532   6.984 -0.5459 -0.8295  0.5949
  386MOL0     H52080  11.762   1.819   7.025 -0.5708  1.2553  0.6847
  386MOL0     H52081  11.821   1.756   6.871  1.6234  0.4428  0.5649
  386MOL0     H52082  11.971   1.794   7.125  1.5915  2.1857 -0.3160
  386MOL0     H52083  12.055   1.724   6.986 -0.8660 -0.1609  0.2195
  386MOL0     H52084  11.926   2.011   7.010  3.0966  3.1777 -0.2243
  386MOL0     H52085  11.987   1.948   6.864  1.8780  0.2699 -0.2075
  386MOL0     H52086  12.201   1.949   6.930 -0.0745 -1.4907 -0.2711
  386MOL0     H52087  12.140   2.086   7.038 -1.6900 -0.0204  3.0993
  386MOL0     H52088  12.260   1.817   7.097 -2.1822 -0.1538 -2.6895
  386MOL0     H52089  12.157   1.894   7.216  0.4356  1.5815 -0.0762
  386MOL0     H52090  12.295   2.097   7.208 -0.6133 -0.1404  1.6804
  386MOL0     H52091  12.407   2.008   7.091 -0.0365 -0.2873 -0.6158
  386MOL0     H52092  11.372   1.564   7.062 -0.5750 -1.3765 -0.0629
  386MOL0     H52093  11.142   1.497   6.967 -1.3520  3.1659 -0.8399
  386MOL0     H52094  10.923   1.405   6.566 -1.9039  1.5588  0.6134
  386MOL0     H52095  10.730   1.369   6.470 -1.9358  0.3560  0.6342
  386MOL0     H52096  10.967   2.237   6.806  0.2004 -0.7267  0.3075
  386MOL0     H52097  11.097   2.212   7.017  2.8974  1.3784 -1.0412
  386MOL0     H52098  11.169   2.569   7.560  0.4191 -1.0109  0.5343
  386MOL0     H52099  11.377   2.543   7.684  0.7123  1.2406 -1.6663
  386MOL0     H52100  11.634   2.183   7.591 -3.4297  0.8408 -0.2005
  386MOL0     H52101  11.736   2.334   7.571 -0.2504 -0.1734 -0.5667
  386MOL0     H52102  11.766   2.358   7.804 -2.1847  1.1381  0.1881
  386MOL0     H52103  11.825   2.189   7.751 -1.0950 -1.3577 -0.3805
  386MOL0     H52104  11.586   2.243   7.935  0.3510  1.7470 -1.8060
  386MOL0     H52105  11.712   2.148   7.967  1.6713  2.4221 -1.1265
  386MOL0     H52106  11.634   2.006   7.739  0.5896 -0.0773  0.1624
  386MOL0     H52107  11.480   2.091   7.772  0.0302  1.1653  0.4107
  386MOL0     H52108  11.472   1.801   8.071  0.2429  0.8018 -0.0248
  386MOL0     H52109  11.480   2.199   7.477  1.1345 -0.1802  3.5132
  386MOL0     H52110  11.278   2.220   7.329  0.8342 -0.8290 -1.1054
  387MOL0     O52111  10.214   6.446  10.407 -1.0591  0.0996  0.0810
  387MOL0     C52112  10.203   6.521  10.500 -0.7942  0.9745  0.3740
  387MOL0     O52113  10.292   6.547  10.588 -0.1395 -0.1040 -0.7774
  387MOL0     C52114  10.410   6.473  10.589 -0.1868  0.5696 -0.1661
  387MOL0     C52115  10.499   6.485  10.484  0.2247  0.2776  0.3985
  387MOL0     C52116  10.612   6.407  10.495 -0.3815 -0.2369 -0.7670
  387MOL0     C52117  10.629   6.318  10.598 -0.0470  0.6829  1.0479
  387MOL0     O52118  10.729   6.227  10.604 -0.0786  0.0195 -0.1125
  387MOL0     C52119  10.857   6.295  10.628  0.3926  0.6856  0.4624
  387MOL0     C52120  10.963   6.188  10.663 -0.1293 -1.3432  1.2064
  387MOL0     C52121  10.924   6.086  10.777 -0.0901  0.6089  0.2895
  387MOL0     C52122  10.893   6.159  10.909  0.3141  0.1150  0.1151
  387MOL0     C52123  10.837   6.063  11.011 -0.2032 -0.3051  0.0271
  387MOL0     C52124  10.938   5.973  11.093  0.5651  0.0939  0.0841
  387MOL0     C52125  11.039   6.055  11.181  0.4709 -0.7318  0.4955
  387MOL0     C52126  11.121   5.970  11.266 -0.0358  0.5468  0.1798
  387MOL0     N52127  11.194   5.868  11.195  0.5190 -0.8814  0.1514
  387MOL0     C52128  11.291   5.887  11.101  0.1416 -0.5135  0.2242
  387MOL0     C52129  11.334   5.770  11.061  0.8909 -0.8166 -0.2771
  387MOL0     C52130  11.432   5.728  10.949 -0.5864 -0.1599 -0.7980
  387MOL0     C52131  11.554   5.806  10.944 -0.1583  0.6907  0.3631
  387MOL0     C52132  11.639   5.794  11.080  0.4005 -0.1411  0.3785
  387MOL0     C52133  11.716   5.669  11.100 -0.0257 -0.5383  0.5552
  387MOL0     O52134  11.815   5.655  10.993 -0.4182  0.2545 -0.3849
  387MOL0     C52135  11.903   5.542  11.003 -0.7278 -0.5164  1.0975
  387MOL0     C52136  11.902   5.445  11.098 -0.4146  0.1537  0.0641
  387MOL0     C52137  12.002   5.347  11.100 -0.4986  0.3525  0.4999
  387MOL0     C52138  11.985   5.228  11.194 -0.7943  0.5069 -0.4710
  387MOL0     C52139  12.112   5.355  11.011  0.2232 -0.6619 -0.0674
  387MOL0     C52140  12.234   5.273  11.007 -0.0324 -0.6541  0.7118
  387MOL0     O52141  12.314   5.274  10.901  0.4065 -0.1520  0.5344
  387MOL0     C52142  12.444   5.217  10.895 -0.2028  0.3699  0.1750
  387MOL0     C52143  12.535   5.215  11.003 -0.4807 -0.4237  0.3986
  387MOL0     C52144  12.662   5.164  10.990  0.0451 -0.1731  0.1302
  387MOL0     C52145  12.706   5.105  10.868 -0.4976 -0.7176  0.1382
  387MOL0     O52146  12.831   5.050  10.852 -0.5111  0.4410 -0.5182
  387MOL0     C52147  12.934   5.122  10.925  0.6649  0.5556  0.3688
  387MOL0     C52148  13.061   5.038  10.918  0.2728  0.0094 -0.2389
  387MOL0     C52149  13.036   4.903  10.993  0.1762 -0.1413  0.3509
  387MOL0     C52150  12.985   4.794  10.889  0.5466 -0.0035  0.3255
  387MOL0     C52151  12.964   4.657  10.945 -1.3470  0.2349 -0.2370
  387MOL0     C52152  13.099   4.601  10.977 -0.3517  0.3048 -0.3762
  387MOL0     C52153  13.100   4.443  10.974  0.2031 -0.7822 -0.1784
  387MOL0     C52154  13.001   4.376  11.073  0.6440 -0.1003 -0.1534
  387MOL0    Cl52155  13.011   4.199  11.024 -0.5883  0.0780 -0.1874
  387MOL0     C52156  12.611   5.105  10.768 -0.3512 -0.1856  0.6555
  387MOL0     C52157  12.488   5.164  10.782  0.0446 -1.2034  0.0064
  387MOL0     O52158  12.265   5.209  11.112 -0.1274  0.2295 -0.1099
  387MOL0     C52159  12.102   5.452  10.907  0.1801  0.1883  0.4717
  387MOL0     C52160  12.000   5.544  10.904  1.1290  0.2845 -0.6703
  387MOL0     N52161  11.266   5.674  11.124  1.0202 -0.2627 -0.1213
  387MOL0     N52162  11.189   5.732  11.212  0.5554  0.3260 -0.7316
  387MOL0     C52163  10.537   6.303  10.700  0.2666  0.4835  0.0647
  387MOL0     C52164  10.428   6.386  10.702  0.5869 -0.1445  0.3034
  387MOL0     C52165  10.072   6.579  10.509 -0.0910  0.6962  0.4949
  387MOL0     C52166  10.052   6.689  10.591 -0.3438  0.5927  0.4775
  387MOL0     C52167   9.932   6.758  10.600 -0.3085  0.6542  1.3086
  387MOL0     C52168   9.825   6.724  10.509  0.2907 -0.0238 -0.3125
  387MOL0     O52169   9.710   6.795  10.513 -0.1582 -1.1124 -0.1454
  387MOL0     C52170   9.608   6.782  10.410 -0.5125  0.7367 -0.1907
  387MOL0     C52171   9.650   6.846  10.276 -0.7195  1.1062 -0.1275
  387MOL0     C52172   9.582   6.793  10.143  0.2738  0.0256 -0.4518
  387MOL0     C52173   9.428   6.804  10.143  0.5767  0.1621 -0.3498
  387MOL0     C52174   9.387   6.936  10.193  0.3387 -0.3779 -0.3169
  387MOL0     C52175   9.325   7.027  10.246 -0.5599 -0.5288 -0.1520
  387MOL0     C52176   9.841   6.612  10.428 -0.3200  0.9986 -0.6123
  387MOL0     C52177   9.958   6.538  10.424 -0.1668  0.2454 -0.4987
  387MOL0     H52178  10.484   6.549  10.398  1.9774  0.5822  0.2835
  387MOL0     H52179  10.697   6.396  10.428  0.2886 -0.1306  0.0428
  387MOL0     H52180  10.894   6.347  10.539 -0.5376 -0.1105 -0.4101
  387MOL0     H52181  10.859   6.361  10.716  1.0590  0.9389  0.2618
  387MOL0     H52182  10.983   6.138  10.567 -0.2484  1.6693 -0.5288
  387MOL0     H52183  11.057   6.236  10.693  0.3548 -2.3052  1.2482
  387MOL0     H52184  10.834   6.035  10.741  0.7405 -0.4498 -0.3442
  387MOL0     H52185  10.997   6.005  10.789 -3.4132 -3.1114 -2.0159
  387MOL0     H52186  10.992   6.199  10.935  0.9856  0.1415 -2.2545
  387MOL0     H52187  10.825   6.238  10.877  0.8930  0.9907  1.0060
  387MOL0     H52188  10.779   6.132  11.074 -0.5365  1.2787 -1.9145
  387MOL0     H52189  10.758   5.997  10.976  0.4141 -0.7784 -0.4939
  387MOL0     H52190  10.886   5.909  11.165 -2.4554  0.1439 -1.8921
  387MOL0     H52191  10.985   5.903  11.023 -0.2761  1.2480 -1.7113
  387MOL0     H52192  11.111   6.101  11.112  1.2955 -0.5947  1.4199
  387MOL0     H52193  10.999   6.131  11.248  0.0614 -0.3441 -0.1823
  387MOL0     H52194  11.052   5.916  11.331 -1.7730 -0.5484 -2.3979
  387MOL0     H52195  11.181   6.032  11.332 -1.4349  2.5516 -0.3406
  387MOL0     H52196  11.345   5.978  11.076  1.4181 -1.0447  0.9706
  387MOL0     H52197  11.461   5.626  10.975 -2.5032 -0.2589  1.3729
  387MOL0     H52198  11.386   5.721  10.850 -1.2912 -0.1121 -0.4879
  387MOL0     H52199  11.513   5.905  10.923 -1.2145 -0.0283 -1.1446
  387MOL0     H52200  11.625   5.772  10.867  1.4161  0.6261  1.7748
  387MOL0     H52201  11.569   5.801  11.165 -0.3036  2.9853 -0.3014
  387MOL0     H52202  11.715   5.872  11.068 -0.2261  0.4043 -0.1659
  387MOL0     H52203  11.652   5.583  11.080 -0.1574 -0.2146 -0.4738
  387MOL0     H52204  11.774   5.665  11.193 -0.2595 -1.8831  0.6544
  387MOL0     H52205  11.822   5.430  11.170 -0.3517 -2.0922 -0.2452
  387MOL0     H52206  11.881   5.209  11.222 -0.9459 -0.4449 -1.5688
  387MOL0     H52207  12.024   5.135  11.150 -0.6649  0.7632 -0.8983
  387MOL0     H52208  12.043   5.233  11.286  0.6689  1.6112 -1.3994
  387MOL0     H52209  12.507   5.253  11.101 -0.3858 -0.8584  0.5937
  387MOL0     H52210  12.717   5.147  11.082  1.2059 -3.4993 -1.0266
  387MOL0     H52211  12.957   5.222  10.888 -0.4380  2.2793  3.9045
  387MOL0     H52212  12.909   5.141  11.030 -1.2346  0.3194 -0.0058
  387MOL0     H52213  13.089   5.006  10.817 -0.6186 -0.7896 -0.2531
  387MOL0     H52214  13.133   5.096  10.976  2.1190 -1.3624 -1.0512
  387MOL0     H52215  12.975   4.912  11.083 -1.2994 -2.8143 -0.2775
  387MOL0     H52216  13.136   4.872  11.023  0.1554 -1.8700 -1.1697
  387MOL0     H52217  12.891   4.828  10.844  0.8998 -1.6742 -1.8527
  387MOL0     H52218  13.043   4.788  10.797 -1.7558  0.6779 -1.2536
  387MOL0     H52219  12.906   4.594  10.878  1.9841 -1.2219 -2.0146
  387MOL0     H52220  12.911   4.661  11.041  0.4354  0.2533  0.7918
  387MOL0     H52221  13.178   4.631  10.907  1.0616  1.0331  1.4410
  387MOL0     H52222  13.141   4.643  11.069  0.2487 -2.5223  0.7543
  387MOL0     H52223  13.200   4.400  10.982  0.7423 -0.0828 -2.5474
  387MOL0     H52224  13.067   4.422  10.872 -0.6976  0.7411 -0.2319
  387MOL0     H52225  12.898   4.414  11.063 -1.0411 -4.0257  0.4199
  387MOL0     H52226  13.029   4.392  11.177  2.0241 -0.1584 -0.5021
  387MOL0     H52227  12.632   5.049  10.677  0.8752  1.6383 -0.2282
  387MOL0     H52228  12.420   5.164  10.697 -1.5517  3.1611  1.0226
  387MOL0     H52229  12.164   5.489  10.826 -1.8321  4.6973  0.6822
  387MOL0     H52230  12.003   5.623  10.829  4.2673  1.5800  0.6559
  387MOL0     H52231  10.568   6.246  10.787  0.2279  0.3637 -0.0006
  387MOL0     H52232  10.357   6.389  10.784  1.2179  1.4949  0.8285
  387MOL0     H52233  10.139   6.720  10.648  0.0246  2.2682 -0.9197
  387MOL0     H52234   9.926   6.843  10.668  2.9472  3.8960 -2.0104
  387MOL0     H52235   9.585   6.676  10.400  2.4222 -0.2270  1.7728
  387MOL0     H52236   9.505   6.812  10.433 -1.7087 -2.5350 -0.6835
  387MOL0     H52237   9.758   6.829  10.285 -1.1097 -0.9979  1.3095
  387MOL0     H52238   9.622   6.951  10.282 -1.7894  0.8670 -0.7418
  387MOL0     H52239   9.610   6.695  10.104 -1.5255 -0.6408 -0.1785
  387MOL0     H52240   9.618   6.860  10.064  1.7836  2.8386  2.3763
  387MOL0     H52241   9.376   6.724  10.198 -1.9979  2.1060  0.2580
  387MOL0     H52242   9.391   6.797  10.040  2.6761  2.1512 -1.3116
  387MOL0     H52243   9.258   7.104  10.281 -0.6395 -1.2867  1.4443
  387MOL0     H52244   9.769   6.573  10.357 -0.7345  0.1775  0.2389
  387MOL0     H52245   9.958   6.462  10.347 -1.9043  0.4618 -0.7307
  388MOL0     O52246   5.494  10.375   0.973 -0.5709  0.5329 -0.3139
  388MOL0     C52247   5.499  10.264   1.036  0.1245 -1.3756  0.0462
  388MOL0     O52248   5.588  10.167   1.036 -0.4900  0.1543 -0.0050
  388MOL0     C52249   5.720  10.181   0.996 -0.1433 -0.2317 -0.1310
  388MOL0     C52250   5.811  10.084   1.039 -0.6661  0.3323 -0.1623
  388MOL0     C52251   5.940  10.097   1.007  0.2641 -0.4094  0.9221
  388MOL0     C52252   5.995  10.198   0.919  0.1487  0.3873  1.1464
  388MOL0     O52253   6.120  10.204   0.882  0.5233 -0.5641 -0.0983
  388MOL0     C52254   6.209  10.094   0.913  1.2493  0.3046 -0.4748
  388MOL0     C52255   6.351  10.140   0.902 -0.1458 -0.9245 -0.2606
  388MOL0     C52256   6.444  10.057   1.000 -0.5126  0.1585  0.4856
  388MOL0     C52257   6.590  10.090   0.971 -0.3642  0.5593 -0.6839
  388MOL0     C52258   6.662  10.005   1.081 -0.0717  0.0098 -0.4813
  388MOL0     C52259   6.815  10.014   1.063  0.4701  0.1007  0.2630
  388MOL0     C52260   6.901  10.033   1.193  0.1144  0.0943 -0.2350
  388MOL0     C52261   6.900   9.905   1.283  0.3286 -0.6609  0.4351
  388MOL0     N52262   7.009   9.810   1.254 -0.3613  0.3899 -0.8671
  388MOL0     C52263   7.032   9.745   1.125  0.1351 -0.8141 -0.3776
  388MOL0     C52264   7.133   9.660   1.148  0.0208  0.0068  0.4479
  388MOL0     C52265   7.198   9.584   1.040  0.2785 -0.4357  0.7445
  388MOL0     C52266   7.193   9.430   1.040 -0.5467 -2.2636 -0.2493
  388MOL0     C52267   7.315   9.366   1.111 -0.2590 -0.0195 -0.8209
  388MOL0     C52268   7.286   9.347   1.257 -0.5277  0.4233  0.4556
  388MOL0     O52269   7.400   9.287   1.326  0.3358 -0.1301  0.2375
  388MOL0     C52270   7.381   9.157   1.376  1.3906  1.3042  0.8937
  388MOL0     C52271   7.326   9.051   1.288  0.4478 -0.5585 -0.7827
  388MOL0     C52272   7.292   8.925   1.338  0.0396  0.2308  0.3616
  388MOL0     C52273   7.248   8.829   1.224  0.4629  0.0775  0.4276
  388MOL0     C52274   7.295   8.896   1.477  0.4933 -0.3024 -0.1831
  388MOL0     C52275   7.236   8.767   1.524 -0.6672  0.1372  0.0876
  388MOL0     O52276   7.166   8.699   1.447  0.1173  0.4534  0.5343
  388MOL0     C52277   7.107   8.582   1.491  0.8308  0.0739 -0.1287
  388MOL0     C52278   7.181   8.465   1.501  0.6210  0.6229 -0.0200
  388MOL0     C52279   7.120   8.346   1.543 -0.0047 -0.2078 -0.0704
  388MOL0     C52280   6.988   8.340   1.580 -0.2643  0.8754 -0.7210
  388MOL0     O52281   6.950   8.223   1.636  0.5710 -0.5902  0.1286
  388MOL0     C52282   6.920   8.232   1.778 -0.2439  0.1917 -1.3986
  388MOL0     C52283   6.817   8.118   1.825  0.3519 -0.4268  0.3207
  388MOL0     C52284   6.685   8.126   1.759 -0.0740  0.5434 -0.2247
  388MOL0     C52285   6.584   8.230   1.810  0.4277 -0.3587 -0.6543
  388MOL0     C52286   6.516   8.214   1.947 -0.3918 -0.4153  0.3272
  388MOL0     C52287   6.414   8.096   1.949 -0.7673 -0.3637 -0.3160
  388MOL0     C52288   6.320   8.135   2.065 -0.1396  0.8036  0.0757
  388MOL0     C52289   6.210   8.033   2.060 -0.0151  0.6028  0.9211
  388MOL0    Cl52290   6.282   7.870   2.033 -0.2603  0.3069 -0.1010
  388MOL0     C52291   6.911   8.453   1.564  0.1657 -0.7042 -0.2844
  388MOL0     C52292   6.969   8.576   1.511  1.2989 -0.0389  0.4833
  388MOL0     O52293   7.262   8.747   1.645  0.8888  0.6579 -0.2277
  388MOL0     C52294   7.362   8.996   1.553  0.3989  0.4832 -0.6800
  388MOL0     C52295   7.409   9.120   1.504 -0.9479  0.2947 -0.1641
  388MOL0     N52296   7.182   9.683   1.275 -0.1003  0.0313 -0.7202
  388MOL0     N52297   7.099   9.757   1.343  0.0767  0.4995 -0.1514
  388MOL0     C52298   5.906  10.303   0.887  0.4100 -0.0794  0.8660
  388MOL0     C52299   5.770  10.295   0.926 -0.8335  0.6590  0.4860
  388MOL0     C52300   5.375  10.225   1.109 -0.5995  0.6629  0.4218
  388MOL0     C52301   5.349  10.090   1.145 -0.3380  0.5349 -0.5421
  388MOL0     C52302   5.222  10.060   1.203 -0.8376 -0.2829  1.0538
  388MOL0     C52303   5.137  10.164   1.255  0.3301  0.8679  0.3795
  388MOL0     O52304   5.028  10.135   1.343 -0.0406 -1.2918 -0.9726
  388MOL0     C52305   5.010  10.010   1.413 -0.6763 -0.0693  0.4253
  388MOL0     C52306   5.104   9.981   1.532 -0.8091  0.6189  0.3662
  388MOL0     C52307   5.042   9.880   1.637  0.8098  0.2740  0.0876
  388MOL0     C52308   5.140   9.814   1.736  0.0718 -0.0894 -1.2216
  388MOL0     C52309   5.078   9.703   1.816  0.4655 -0.4889  0.1626
  388MOL0     C52310   5.029   9.612   1.868 -0.3359 -0.5648 -0.0010
  388MOL0     C52311   5.164  10.287   1.224  0.3148 -0.4979 -0.0686
  388MOL0     C52312   5.277  10.319   1.149 -0.3929 -0.9079 -0.1904
  388MOL0     H52313   5.777   9.999   1.097  1.0385  0.4299  1.0528
  388MOL0     H52314   6.000  10.011   1.036  1.9555 -0.3670 -2.1010
  388MOL0     H52315   6.179  10.057   1.012 -1.3065 -3.0427 -2.2684
  388MOL0     H52316   6.192  10.008   0.849 -0.0727  0.5292 -0.4662
  388MOL0     H52317   6.373  10.141   0.794 -4.4114 -1.9217 -1.3101
  388MOL0     H52318   6.371  10.237   0.947 -0.8933 -2.6756  4.3475
  388MOL0     H52319   6.414  10.081   1.102  3.2299  0.3325  1.7126
  388MOL0     H52320   6.436   9.949   0.987 -1.1497 -0.0856  2.5788
  388MOL0     H52321   6.616  10.049   0.873 -1.9812 -3.6025  0.4401
  388MOL0     H52322   6.611  10.197   0.982  1.6588  0.0609  0.8962
  388MOL0     H52323   6.623  10.050   1.173 -0.3513  1.0488 -1.0836
  388MOL0     H52324   6.628   9.901   1.081  0.8128 -0.2903 -0.0335
  388MOL0     H52325   6.855   9.941   0.992  3.4733  2.3812 -0.5976
  388MOL0     H52326   6.817  10.109   1.010  0.2331 -0.3598 -0.5771
  388MOL0     H52327   7.003  10.060   1.164 -0.4742  3.0978  0.2386
  388MOL0     H52328   6.858  10.121   1.240 -0.4126 -1.0908  1.6349
  388MOL0     H52329   6.804   9.856   1.265  1.8561 -4.7467  2.1292
  388MOL0     H52330   6.902   9.921   1.391 -0.6332  1.5936  0.1583
  388MOL0     H52331   6.984   9.766   1.030  1.4234  2.4163 -0.4611
  388MOL0     H52332   7.174   9.619   0.939 -0.4562  2.4409  1.8050
  388MOL0     H52333   7.302   9.616   1.046  1.2843 -2.1327 -3.7875
  388MOL0     H52334   7.174   9.408   0.935 -0.4473 -3.5675 -0.0089
  388MOL0     H52335   7.101   9.407   1.095 -1.0037 -2.8434 -1.2337
  388MOL0     H52336   7.398   9.438   1.114 -1.2948  1.1927 -0.1408
  388MOL0     H52337   7.340   9.269   1.068  0.6353 -0.9091  1.5142
  388MOL0     H52338   7.201   9.280   1.265  0.0226 -0.4131 -0.5904
  388MOL0     H52339   7.248   9.441   1.300 -0.0616  1.1281 -0.6174
  388MOL0     H52340   7.322   9.088   1.186  2.5496  1.1487 -0.3164
  388MOL0     H52341   7.140   8.816   1.215  0.4044 -0.0578  1.2417
  388MOL0     H52342   7.282   8.861   1.125  2.9054  0.8912  1.4548
  388MOL0     H52343   7.295   8.733   1.245 -1.2993 -0.8296  0.4068
  388MOL0     H52344   7.286   8.463   1.471 -0.0546  0.1387 -2.6474
  388MOL0     H52345   7.185   8.259   1.534  4.1081  2.7597 -2.6119
  388MOL0     H52346   7.012   8.223   1.835 -2.2393  1.8191  2.4671
  388MOL0     H52347   6.874   8.330   1.797  1.8125  1.0554 -0.5585
  388MOL0     H52348   6.861   8.018   1.817 -1.7077 -1.8602  4.1012
  388MOL0     H52349   6.792   8.129   1.931  0.9079 -2.2513  0.6835
  388MOL0     H52350   6.645   8.024   1.762  0.6631  0.0131 -3.7621
  388MOL0     H52351   6.701   8.152   1.654 -1.5692  1.8327 -0.1785
  388MOL0     H52352   6.654   8.312   1.824  1.7611 -1.9280  3.1155
  388MOL0     H52353   6.519   8.236   1.722  2.5109 -1.7314 -2.3920
  388MOL0     H52354   6.469   8.310   1.972  2.8051  1.7804 -1.4984
  388MOL0     H52355   6.594   8.197   2.022  3.7884 -0.3177 -3.6094
  388MOL0     H52356   6.347   8.091   1.863 -0.1381 -1.3367 -0.7739
  388MOL0     H52357   6.477   8.006   1.957  2.0343  1.5741  1.2083
  388MOL0     H52358   6.271   8.232   2.062  0.6354  1.1838 -0.5339
  388MOL0     H52359   6.372   8.129   2.161 -3.1877  1.2822  1.8498
  388MOL0     H52360   6.143   8.072   1.983  0.4771  2.6649  1.4912
  388MOL0     H52361   6.161   8.020   2.157  0.9535 -0.0941  1.3308
  388MOL0     H52362   6.804   8.457   1.581  0.5535  4.7464  3.4207
  388MOL0     H52363   6.906   8.664   1.501  1.9681  0.3218 -0.8437
  388MOL0     H52364   7.372   8.972   1.658 -0.0366 -0.4647 -0.8486
  388MOL0     H52365   7.468   9.190   1.561 -0.6278  1.0550 -1.3894
  388MOL0     H52366   5.929  10.392   0.830  2.3267 -1.5957 -0.8803
  388MOL0     H52367   5.704  10.380   0.909 -1.3700 -0.2777 -2.6416
  388MOL0     H52368   5.424  10.012   1.132  0.7736  1.3820  0.4930
  388MOL0     H52369   5.208   9.955   1.226 -0.6514 -0.4150  0.5743
  388MOL0     H52370   4.911  10.027   1.457 -1.6800 -0.7868 -1.4502
  388MOL0     H52371   5.001   9.931   1.338 -0.9077 -0.9679  1.3751
  388MOL0     H52372   5.123  10.079   1.578  1.5819  0.0273  0.7959
  388MOL0     H52373   5.198   9.938   1.496 -0.7460 -0.6240  1.9085
  388MOL0     H52374   4.973   9.809   1.590 -0.9175  1.3639  0.8492
  388MOL0     H52375   4.967   9.945   1.685  0.5544  1.6483 -2.0011
  388MOL0     H52376   5.162   9.888   1.814  0.5384 -0.7028 -0.7599
  388MOL0     H52377   5.237   9.780   1.699  0.4666 -1.6085  1.0009
  388MOL0     H52378   4.979   9.526   1.908  0.3593 -1.3079 -0.6994
  388MOL0     H52379   5.096  10.359   1.268 -0.9304 -2.5759  1.5749
  388MOL0     H52380   5.300  10.423   1.129 -0.0977 -0.7560  0.8836
  389MOL0     O52381   7.899   4.793   8.523  0.2195  0.9502  0.8797
  389MOL0     C52382   7.787   4.840   8.521  0.6242 -0.8072  0.9216
  389MOL0     O52383   7.750   4.956   8.578 -0.7994 -0.2879 -0.9899
  389MOL0     C52384   7.858   5.027   8.633 -0.0124 -0.4041 -0.1626
  389MOL0     C52385   7.862   5.072   8.765 -0.3755 -0.1590  0.4776
  389MOL0     C52386   7.963   5.148   8.818  0.0531 -0.6151 -0.3355
  389MOL0     C52387   8.073   5.190   8.731 -0.1535 -0.0938 -0.5176
  389MOL0     O52388   8.185   5.249   8.774 -1.0171  0.4773  0.5187
  389MOL0     C52389   8.178   5.393   8.769 -0.1496 -0.1862 -0.0063
  389MOL0     C52390   8.321   5.456   8.749 -0.5545  0.1078 -0.2875
  389MOL0     C52391   8.378   5.397   8.624  0.5229  0.5164 -0.0489
  389MOL0     C52392   8.516   5.438   8.590 -0.2635 -0.2421  0.1052
  389MOL0     C52393   8.621   5.354   8.657 -0.2695  0.0131  0.1043
  389MOL0     C52394   8.756   5.420   8.653 -0.0897  0.9286  0.7426
  389MOL0     C52395   8.870   5.326   8.710  0.6136 -1.4337  0.8238
  389MOL0     C52396   9.014   5.376   8.671 -0.0718  0.7365 -0.4251
  389MOL0     N52397   9.105   5.286   8.742 -0.5475 -0.4257  0.2025
  389MOL0     C52398   9.114   5.150   8.723 -0.6646  0.0977  0.5381
  389MOL0     C52399   9.222   5.117   8.787 -1.0270 -0.2631 -0.4232
  389MOL0     C52400   9.283   4.979   8.794 -0.2285  1.0078  0.3151
  389MOL0     C52401   9.177   4.894   8.875  0.6772  0.5619  0.0261
  389MOL0     C52402   9.225   4.762   8.926 -0.8873  0.1974  0.9946
  389MOL0     C52403   9.270   4.666   8.817  0.1912  0.2307  0.1501
  389MOL0     O52404   9.155   4.640   8.739  0.6756  0.2897  0.9136
  389MOL0     C52405   9.174   4.546   8.640 -0.3358 -0.5178 -0.6024
  389MOL0     C52406   9.049   4.497   8.611  0.7166  0.1585  0.7347
  389MOL0     C52407   9.018   4.404   8.502  0.2820  0.2281 -0.2128
  389MOL0     C52408   8.879   4.347   8.497 -0.1585 -0.1756 -0.8839
  389MOL0     C52409   9.128   4.351   8.441 -0.9988  0.3505  0.2935
  389MOL0     C52410   9.119   4.256   8.328 -0.4206 -1.0206 -0.2828
  389MOL0     O52411   8.991   4.241   8.268 -0.3714  0.2191 -0.4821
  389MOL0     C52412   8.977   4.220   8.128 -0.2461  0.5386  0.2930
  389MOL0     C52413   9.045   4.126   8.058 -0.0329  0.5816  1.0629
  389MOL0     C52414   9.000   4.078   7.931  1.0970  0.2689 -0.8412
  389MOL0     C52415   8.897   4.140   7.868 -0.8595  0.4145  0.4837
  389MOL0     O52416   8.867   4.135   7.735 -0.1281 -0.6147  0.0527
  389MOL0     C52417   8.891   4.003   7.662  0.8887  0.1674 -0.4579
  389MOL0     C52418   8.832   4.019   7.530  0.1311 -0.0961 -0.0908
  389MOL0     C52419   8.836   3.890   7.450  1.3405 -0.3765 -0.0930
  389MOL0     C52420   8.744   3.925   7.334  0.5288  0.3130  0.3577
  389MOL0     C52421   8.732   3.806   7.238  0.5354 -0.9597 -0.0814
  389MOL0     C52422   8.635   3.827   7.123 -0.7710 -0.3530 -0.4065
  389MOL0     C52423   8.655   3.732   7.010  0.2189 -0.9186 -0.3172
  389MOL0     C52424   8.621   3.595   7.050 -0.7372  0.7406  0.1719
  389MOL0    Cl52425   8.676   3.504   6.907  0.0373 -0.2768 -0.3213
  389MOL0     C52426   8.828   4.236   7.933  0.4008  0.4755  0.4245
  389MOL0     C52427   8.857   4.267   8.067  0.6003 -0.6324  0.7492
  389MOL0     O52428   9.226   4.214   8.286  0.7666 -0.4792  0.5425
  389MOL0     C52429   9.264   4.392   8.484  0.3087  0.9065  0.5090
  389MOL0     C52430   9.286   4.499   8.576 -0.2621 -0.0838 -0.5288
  389MOL0     N52431   9.274   5.225   8.857  0.2084 -0.4467 -0.2874
  389MOL0     N52432   9.196   5.327   8.831  0.2769  0.0290 -0.6295
  389MOL0     C52433   8.077   5.147   8.600  0.2254  0.2190  0.6720
  389MOL0     C52434   7.966   5.072   8.545  0.0977  0.5400 -0.0058
  389MOL0     C52435   7.685   4.785   8.430  0.2763 -0.5071 -0.7235
  389MOL0     C52436   7.704   4.658   8.366 -0.6321  0.6492  0.6015
  389MOL0     C52437   7.610   4.601   8.285  0.0738 -0.3007  0.7872
  389MOL0     C52438   7.484   4.665   8.263 -0.1101  1.1147  0.7368
  389MOL0     O52439   7.397   4.624   8.164  0.5502  0.6938 -0.4035
  389MOL0     C52440   7.433   4.517   8.066 -0.2916  0.8119 -0.3307
  389MOL0     C52441   7.330   4.498   7.962  0.0773 -0.1029  0.6562
  389MOL0     C52442   7.196   4.464   8.033 -0.2973  0.4843 -0.0452
  389MOL0     C52443   7.084   4.484   7.928 -0.2295 -0.0319  0.5890
  389MOL0     C52444   6.984   4.383   7.910 -0.7867 -0.8971 -0.0011
  389MOL0     C52445   6.899   4.296   7.909  0.6201 -0.3371 -0.1155
  389MOL0     C52446   7.469   4.784   8.334  0.1110 -0.3203 -0.1759
  389MOL0     C52447   7.563   4.844   8.410  0.5881 -0.7484  0.4427
  389MOL0     H52448   7.792   5.027   8.835  2.6755 -1.2007  3.0801
  389MOL0     H52449   7.976   5.187   8.918 -0.3535  0.6815 -0.7608
  389MOL0     H52450   8.107   5.422   8.691 -2.1776 -0.2762  1.7288
  389MOL0     H52451   8.143   5.431   8.866  0.3374 -2.7365  1.2504
  389MOL0     H52452   8.317   5.564   8.738  0.2164 -0.0365 -2.4258
  389MOL0     H52453   8.383   5.434   8.836  0.9311  3.7466 -0.2784
  389MOL0     H52454   8.385   5.289   8.611  1.2487  0.6129 -0.5623
  389MOL0     H52455   8.311   5.431   8.544  1.6423  1.3068 -0.6818
  389MOL0     H52456   8.530   5.419   8.483 -0.5423 -0.2042  0.0614
  389MOL0     H52457   8.535   5.543   8.614 -0.1361 -0.6313  1.8385
  389MOL0     H52458   8.597   5.313   8.756 -0.3818  0.3747  0.2258
  389MOL0     H52459   8.617   5.257   8.607  0.2449 -0.4498  0.9379
  389MOL0     H52460   8.790   5.439   8.551 -3.8726 -0.8471 -1.0323
  389MOL0     H52461   8.753   5.519   8.700 -2.0391  0.7975  0.9817
  389MOL0     H52462   8.858   5.334   8.819  0.3109 -2.1955  0.8524
  389MOL0     H52463   8.857   5.225   8.669  3.3964 -1.8177  0.6835
  389MOL0     H52464   9.030   5.482   8.694 -0.8174  0.7473  0.0698
  389MOL0     H52465   9.036   5.359   8.565  1.3507  1.9912 -0.3697
  389MOL0     H52466   9.049   5.087   8.664  3.3408 -2.7569 -1.3184
  389MOL0     H52467   9.301   4.953   8.689  3.0201  2.2564  0.4553
  389MOL0     H52468   9.370   4.976   8.860 -0.7367 -2.6134  1.0096
  389MOL0     H52469   9.089   4.883   8.811  2.1429  0.4993 -2.0796
  389MOL0     H52470   9.149   4.956   8.961  1.8742  0.3739  0.5677
  389MOL0     H52471   9.150   4.712   8.988 -1.2894  1.5035  1.6051
  389MOL0     H52472   9.311   4.791   8.986 -0.7415 -2.7195  2.3877
  389MOL0     H52473   9.297   4.569   8.861 -0.4516 -0.0104  0.0215
  389MOL0     H52474   9.338   4.717   8.749 -1.0546  2.9313  0.7802
  389MOL0     H52475   8.965   4.553   8.653  0.2938  0.5249 -0.5428
  389MOL0     H52476   8.829   4.393   8.583  2.7619 -1.0152  1.4307
  389MOL0     H52477   8.820   4.381   8.411 -2.0129  1.2062  0.8479
  389MOL0     H52478   8.879   4.239   8.513  2.7881  0.0319  1.4020
  389MOL0     H52479   9.129   4.071   8.101  1.3768 -0.2238 -2.3596
  389MOL0     H52480   9.058   4.002   7.880  0.0287 -0.9767 -0.2480
  389MOL0     H52481   8.998   3.981   7.657  1.3071  2.1522 -1.0374
  389MOL0     H52482   8.834   3.930   7.720 -2.7293  1.0519 -2.5651
  389MOL0     H52483   8.731   4.059   7.540  0.5117  2.0384 -3.4494
  389MOL0     H52484   8.897   4.089   7.477  1.8113 -0.5206  1.3254
  389MOL0     H52485   8.805   3.803   7.507 -1.1640  1.1794  1.0620
  389MOL0     H52486   8.938   3.877   7.411  0.6066 -0.6888 -2.0228
  389MOL0     H52487   8.640   3.932   7.369  0.7140 -0.7379  1.1489
  389MOL0     H52488   8.784   4.013   7.283 -0.7343  1.7513  1.7252
  389MOL0     H52489   8.703   3.716   7.294 -1.1097  0.1054  0.8906
  389MOL0     H52490   8.833   3.789   7.202  0.9437 -0.4728  0.7943
  389MOL0     H52491   8.533   3.830   7.161 -0.5082  2.7291  0.3715
  389MOL0     H52492   8.658   3.930   7.093 -1.0374  0.7261  2.7166
  389MOL0     H52493   8.759   3.737   6.976  1.2626  0.9708  2.7584
  389MOL0     H52494   8.587   3.769   6.933  0.6859  1.8549  0.4829
  389MOL0     H52495   8.516   3.585   7.079 -1.0949  0.7143 -1.0618
  389MOL0     H52496   8.692   3.567   7.128  2.3277  1.4287 -2.1617
  389MOL0     H52497   8.743   4.273   7.877  0.3044  0.4590  0.5606
  389MOL0     H52498   8.785   4.320   8.129  0.2810  2.5648 -2.0330
  389MOL0     H52499   9.345   4.328   8.450 -3.0602 -3.9805  0.6211
  389MOL0     H52500   9.379   4.544   8.611 -2.9109  3.4575  2.8070
  389MOL0     H52501   8.155   5.168   8.526 -2.3698  2.5462 -1.6248
  389MOL0     H52502   7.970   5.036   8.443 -1.0029  1.1819 -0.2877
  389MOL0     H52503   7.795   4.600   8.380  0.0819  1.4627 -0.4819
  389MOL0     H52504   7.640   4.507   8.240  2.2045  0.3645  0.7069
  389MOL0     H52505   7.536   4.529   8.032  1.0893 -0.8631  2.8570
  389MOL0     H52506   7.439   4.422   8.119 -3.3127  0.4422 -0.4885
  389MOL0     H52507   7.361   4.417   7.895 -0.4839 -0.3848  0.7357
  389MOL0     H52508   7.316   4.588   7.901  0.8243 -1.6688 -2.0240
  389MOL0     H52509   7.176   4.526   8.122  2.7635  2.5900 -0.6636
  389MOL0     H52510   7.206   4.357   8.055 -2.7817  0.2560  0.1955
  389MOL0     H52511   7.132   4.483   7.829 -2.9331  2.2422 -0.8824
  389MOL0     H52512   7.048   4.586   7.941  1.6247  0.5117  1.9065
  389MOL0     H52513   6.823   4.222   7.922  3.1915 -3.4665 -1.4340
  389MOL0     H52514   7.381   4.847   8.324  0.2854  0.8879  4.0379
  389MOL0     H52515   7.535   4.944   8.442  4.2194  1.0352 -1.2958
  390MOL0     O52516   8.087   2.294  10.415  1.0033 -0.2870  0.7978
  390MOL0     C52517   8.095   2.177  10.414  0.2036  0.6251  0.3329
  390MOL0     O52518   8.123   2.105  10.296  0.2852 -0.0194 -0.4692
  390MOL0     C52519   8.133   2.182  10.185 -1.2249 -0.6494 -0.9766
  390MOL0     C52520   8.254   2.258  10.172  1.0577  0.5935 -0.4119
  390MOL0     C52521   8.263   2.338  10.063  0.0251 -0.2896  0.9939
  390MOL0     C52522   8.169   2.350   9.968 -0.2759 -0.6126  0.7140
  390MOL0     O52523   8.213   2.453   9.878  1.3387  0.1776 -0.6833
  390MOL0     C52524   8.123   2.491   9.771 -0.5352 -0.6180  0.0434
  390MOL0     C52525   8.196   2.595   9.695 -0.3366  0.7383 -0.0956
  390MOL0     C52526   8.322   2.542   9.638 -0.5598  0.1173  0.1604
  390MOL0     C52527   8.308   2.520   9.486  0.4177  0.6036  0.0071
  390MOL0     C52528   8.420   2.419   9.432 -0.2771 -0.5957 -0.0603
  390MOL0     C52529   8.415   2.422   9.284 -0.6540  0.2713 -0.8553
  390MOL0     C52530   8.486   2.301   9.221 -0.2368 -0.4297 -0.7772
  390MOL0     C52531   8.549   2.336   9.084 -0.7289  0.5285 -0.8487
  390MOL0     N52532   8.681   2.391   9.112  0.2453  0.1027 -0.0881
  390MOL0     C52533   8.787   2.310   9.145 -1.1547 -1.1047  0.6235
  390MOL0     C52534   8.898   2.393   9.133  0.3773 -0.2985  0.8931
  390MOL0     C52535   9.041   2.365   9.181  0.5140 -0.7390 -0.2245
  390MOL0     C52536   9.137   2.338   9.069  0.1922  0.1142 -0.3899
  390MOL0     C52537   9.294   2.367   9.090  1.3126  0.6180 -0.4755
  390MOL0     C52538   9.354   2.396   8.953 -0.9561  0.0669 -0.4444
  390MOL0     O52539   9.499   2.403   8.949  0.5564 -0.1670  0.8286
  390MOL0     C52540   9.581   2.306   8.913  0.2434 -0.1907 -0.9969
  390MOL0     C52541   9.718   2.336   8.936  0.3329 -0.3122  0.0463
  390MOL0     C52542   9.815   2.245   8.905 -0.1156 -1.1251  0.0878
  390MOL0     C52543   9.960   2.265   8.942 -0.1780 -0.4514  0.5045
  390MOL0     C52544   9.786   2.133   8.823 -0.2319  0.8022 -0.5413
  390MOL0     C52545   9.867   2.026   8.785  0.8419  0.6874  0.2474
  390MOL0     O52546   9.872   1.992   8.648 -0.7377  0.4152 -0.2662
  390MOL0     C52547   9.941   1.876   8.622 -0.9220  0.0344  0.7634
  390MOL0     C52548   9.867   1.751   8.637  0.2224 -0.7477  0.1561
  390MOL0     C52549   9.932   1.636   8.590  0.3305  0.9324 -0.6050
  390MOL0     C52550  10.071   1.635   8.551  0.1903 -0.7082  0.0599
  390MOL0     O52551  10.140   1.523   8.516  0.5828  0.2303 -0.7305
  390MOL0     C52552  10.075   1.392   8.514  1.1482  1.1275 -0.3630
  390MOL0     C52553   9.996   1.367   8.379  0.8682  0.3850  0.4290
  390MOL0     C52554  10.085   1.296   8.281  0.3081  0.3149 -0.7585
  390MOL0     C52555  10.095   1.144   8.286  0.8633  0.2163  0.3386
  390MOL0     C52556  10.198   1.101   8.167  0.1416  0.1450 -0.2828
  390MOL0     C52557  10.197   0.953   8.146  0.1609 -0.2767 -1.1092
  390MOL0     C52558  10.285   0.904   8.031 -0.2070 -0.5603 -0.6542
  390MOL0     C52559  10.294   0.750   8.015  0.5616 -0.2019 -0.5951
  390MOL0    Cl52560  10.397   0.684   8.161  0.3847 -0.0095  0.2035
  390MOL0     C52561  10.139   1.759   8.557  0.5998  0.1598  0.1802
  390MOL0     C52562  10.073   1.880   8.588  0.5973  0.4729  1.1908
  390MOL0     O52563   9.933   1.973   8.872  0.1374  0.5426 -0.3602
  390MOL0     C52564   9.648   2.109   8.796 -0.2274 -0.0757 -0.6499
  390MOL0     C52565   9.545   2.194   8.844 -0.1576 -0.6601 -0.6312
  390MOL0     N52566   8.855   2.507   9.070 -0.2635  0.2093 -0.2163
  390MOL0     N52567   8.731   2.505   9.049 -0.4468 -1.2718  0.0672
  390MOL0     C52568   8.051   2.287   9.985  0.0703  0.8774  0.5095
  390MOL0     C52569   8.032   2.192  10.085  0.2564  0.5380 -0.4754
  390MOL0     C52570   8.132   2.101  10.541  0.7697  0.1347 -0.0741
  390MOL0     C52571   8.207   1.980  10.535  0.5712  1.3856 -0.1099
  390MOL0     C52572   8.258   1.922  10.649  0.0536  0.0023  0.0499
  390MOL0     C52573   8.244   1.989  10.773  0.0436  0.0225 -1.4673
  390MOL0     O52574   8.297   1.921  10.878  0.0772 -1.3582 -0.8255
  390MOL0     C52575   8.273   1.969  11.011  0.3313 -0.3547 -0.5336
  390MOL0     C52576   8.394   2.017  11.089  0.3116 -0.3131  1.2400
  390MOL0     C52577   8.497   1.909  11.115  0.5407  0.2595  0.2290
  390MOL0     C52578   8.608   1.972  11.202 -0.3346  0.5750  0.4212
  390MOL0     C52579   8.709   1.868  11.227 -1.1325 -1.0816 -0.2454
  390MOL0     C52580   8.793   1.790  11.264  1.0496  0.2322 -0.3390
  390MOL0     C52581   8.185   2.116  10.776 -0.0548  0.2348  0.9981
  390MOL0     C52582   8.120   2.160  10.664  0.7496  0.3977  0.7141
  390MOL0     H52583   8.329   2.270  10.250  3.0212 -0.8067 -1.9779
  390MOL0     H52584   8.352   2.400  10.055 -0.6173  0.6478  0.9321
  390MOL0     H52585   8.105   2.399   9.714  0.3967 -1.2514  0.7383
  390MOL0     H52586   8.034   2.538   9.814 -0.6616  1.5094 -2.3041
  390MOL0     H52587   8.145   2.628   9.605  2.3604  1.9389 -1.2822
  390MOL0     H52588   8.222   2.678   9.761 -2.0760 -0.3425  2.1070
  390MOL0     H52589   8.395   2.624   9.648  1.1832 -1.4556  1.0409
  390MOL0     H52590   8.356   2.456   9.695 -2.0157 -1.1738 -0.8524
  390MOL0     H52591   8.207   2.480   9.471  0.1284 -0.6737  4.0255
  390MOL0     H52592   8.301   2.618   9.438  0.6991  1.4083  1.5151
  390MOL0     H52593   8.518   2.454   9.466  0.3723 -2.6534  0.3528
  390MOL0     H52594   8.406   2.322   9.481 -0.5528 -0.0321  1.0214
  390MOL0     H52595   8.315   2.448   9.247 -0.4050  1.8920 -0.4442
  390MOL0     H52596   8.460   2.516   9.253 -1.5112  1.2713  0.8080
  390MOL0     H52597   8.577   2.270   9.273  2.8340  4.5984 -2.4294
  390MOL0     H52598   8.409   2.223   9.214  0.2068 -0.8556 -0.9677
  390MOL0     H52599   8.492   2.414   9.032 -1.6046  2.1848  2.3069
  390MOL0     H52600   8.563   2.245   9.026  0.9048 -1.3391  2.2653
  390MOL0     H52601   8.789   2.213   9.194 -5.3191 -1.7390 -0.0687
  390MOL0     H52602   9.083   2.450   9.235 -1.3115 -0.0193  0.1169
  390MOL0     H52603   9.035   2.288   9.259  1.9981 -0.4450  0.2182
  390MOL0     H52604   9.090   2.401   8.993 -1.1392  0.9012  1.0497
  390MOL0     H52605   9.136   2.235   9.031  1.7538 -0.8226  1.8969
  390MOL0     H52606   9.358   2.282   9.117  3.0103  1.5393 -1.3555
  390MOL0     H52607   9.314   2.448   9.160  2.7123 -0.0771 -0.0130
  390MOL0     H52608   9.326   2.496   8.916 -0.9859  0.2571  0.0871
  390MOL0     H52609   9.322   2.312   8.890  2.4122 -3.2066  1.8064
  390MOL0     H52610   9.742   2.434   8.978 -0.1528  0.4665 -1.4246
  390MOL0     H52611   9.978   2.340   9.020 -0.4863 -0.5070  0.6302
  390MOL0     H52612  10.008   2.174   8.979  2.8225  1.0242  0.5109
  390MOL0     H52613   9.997   2.311   8.850 -1.8754  2.3445  1.0888
  390MOL0     H52614   9.759   1.755   8.653 -0.2093  2.4710 -2.4895
  390MOL0     H52615   9.876   1.543   8.602 -0.4500  1.2235 -1.7764
  390MOL0     H52616  10.144   1.307   8.524  2.2549  1.9008 -1.2008
  390MOL0     H52617   9.998   1.378   8.591  1.6121  1.2836  0.1404
  390MOL0     H52618   9.907   1.312   8.409  0.6919 -0.9306 -2.2084
  390MOL0     H52619   9.953   1.455   8.329 -3.0981 -0.7759  1.3881
  390MOL0     H52620  10.190   1.325   8.289  0.2665  0.3583 -0.3373
  390MOL0     H52621  10.042   1.307   8.181  0.5496  0.1637 -0.8791
  390MOL0     H52622  10.116   1.104   8.386 -2.9706 -0.2978  1.0809
  390MOL0     H52623  10.001   1.091   8.267  1.6972 -1.2886  0.1592
  390MOL0     H52624  10.298   1.142   8.183  0.2362  1.2039 -3.1662
  390MOL0     H52625  10.161   1.144   8.074 -0.9183  4.3508  1.8479
  390MOL0     H52626  10.230   0.912   8.242  1.0540  1.6705 -0.5407
  390MOL0     H52627  10.095   0.916   8.130  0.7389 -2.0549 -0.9499
  390MOL0     H52628  10.389   0.935   8.042  0.3621 -2.6641  0.4028
  390MOL0     H52629  10.233   0.935   7.940 -3.4939 -1.2618  0.8550
  390MOL0     H52630  10.333   0.723   7.917 -0.5460 -0.6116 -0.9370
  390MOL0     H52631  10.197   0.704   8.036 -0.9066  3.3253  1.4691
  390MOL0     H52632  10.244   1.747   8.531  0.4648  0.3863 -0.4876
  390MOL0     H52633  10.115   1.981   8.584  0.4158  0.5440 -2.3020
  390MOL0     H52634   9.616   2.017   8.747  1.2980 -3.1726  3.4926
  390MOL0     H52635   9.440   2.169   8.832 -0.4203 -0.1471  0.4723
  390MOL0     H52636   7.977   2.289   9.906 -1.0797  0.1252  1.5286
  390MOL0     H52637   7.941   2.133  10.092  0.6578 -0.0028  0.3020
  390MOL0     H52638   8.213   1.925  10.442 -0.6684  0.9298  0.0473
  390MOL0     H52639   8.319   1.833  10.637  0.9918  0.7449 -0.9246
  390MOL0     H52640   8.200   2.051  11.008 -1.0439 -1.3787  2.0256
  390MOL0     H52641   8.223   1.887  11.064  1.5816  1.3240  3.6400
  390MOL0     H52642   8.367   2.036  11.194  1.8000  2.3297  1.2394
  390MOL0     H52643   8.433   2.110  11.048  0.8359  0.7097  3.8322
  390MOL0     H52644   8.545   1.867  11.026 -0.8588  0.0751 -0.4782
  390MOL0     H52645   8.456   1.828  11.176 -0.0634 -0.6007 -1.2537
  390MOL0     H52646   8.563   2.005  11.296 -0.2101 -1.2709  1.1689
  390MOL0     H52647   8.647   2.060  11.151  0.8308  0.0730  0.4111
  390MOL0     H52648   8.866   1.715  11.288 -0.0797 -0.7934 -0.0311
  390MOL0     H52649   8.159   2.174  10.864 -2.4364  1.2063 -0.2541
  390MOL0     H52650   8.059   2.248  10.681 -1.7054 -0.9228 -0.6221
  391MOL0     O52651  10.681   3.891  11.446  0.3226 -0.5382 -0.2598
  391MOL0     C52652  10.593   3.960  11.389 -0.3519 -0.0319 -0.0957
  391MOL0     O52653  10.606   4.009  11.271 -0.2963 -0.8741 -0.4394
  391MOL0     C52654  10.721   3.976  11.199 -0.4950 -0.2597  0.4630
  391MOL0     C52655  10.721   3.870  11.116  0.0455  0.3587  0.6361
  391MOL0     C52656  10.827   3.847  11.028 -0.2426 -0.5226  0.0473
  391MOL0     C52657  10.943   3.926  11.041  0.5809  0.0447  0.0535
  391MOL0     O52658  11.058   3.882  10.971 -0.4847  0.0130 -0.4010
  391MOL0     C52659  11.179   3.865  11.049 -0.3635 -0.5377  0.3518
  391MOL0     C52660  11.300   3.909  10.978  0.9630  0.6340  0.3299
  391MOL0     C52661  11.285   4.065  10.940  0.3652 -0.2822  0.1202
  391MOL0     C52662  11.412   4.152  10.917  0.3019 -0.0720  0.2091
  391MOL0     C52663  11.505   4.170  11.048  0.4539  0.6528  0.3762
  391MOL0     C52664  11.621   4.073  11.062  0.3724 -0.4105  0.0679
  391MOL0     C52665  11.732   4.147  11.144  0.3844 -0.1847  0.8536
  391MOL0     C52666  11.855   4.065  11.129 -0.0649 -0.1617  0.4243
  391MOL0     N52667  11.963   4.119  11.216 -0.2707  0.4578 -0.7499
  391MOL0     C52668  12.031   4.238  11.185  0.1336  0.9192 -0.7746
  391MOL0     C52669  12.103   4.268  11.295  0.5921  1.2415 -0.9211
  391MOL0     C52670  12.179   4.390  11.309 -0.2389 -0.1734 -0.5634
  391MOL0     C52671  12.204   4.413  11.463 -0.5312 -0.4469 -0.9255
  391MOL0     C52672  12.071   4.447  11.544 -1.6671  0.0899 -0.6864
  391MOL0     C52673  12.112   4.465  11.694  0.4574  0.2556  0.2310
  391MOL0     O52674  12.239   4.537  11.723 -0.7524 -1.0224  0.6310
  391MOL0     C52675  12.267   4.569  11.855  0.1480  0.0156  0.7136
  391MOL0     C52676  12.203   4.517  11.969 -0.1438  0.1537 -0.0469
  391MOL0     C52677  12.232   4.560  12.102  0.3908  0.2983 -0.3044
  391MOL0     C52678  12.148   4.492  12.215  0.2309  0.2050 -1.2775
  391MOL0     C52679  12.334   4.663  12.126 -0.3198 -0.0827 -0.0272
  391MOL0     C52680  12.360   4.741  12.256  0.3266 -0.1026  0.2885
  391MOL0     O52681  12.458   4.831  12.262 -0.0578 -0.0308  0.1484
  391MOL0     C52682  12.481   4.877  12.385 -0.5298 -0.7875 -0.7519
  391MOL0     C52683  12.425   5.001  12.420 -0.2052 -0.8437 -0.5964
  391MOL0     C52684  12.446   5.060  12.547 -0.0199 -0.1175  0.8441
  391MOL0     C52685  12.502   4.985  12.650  0.6901  0.1110 -1.2998
  391MOL0     O52686  12.513   5.022  12.784  0.2747  0.1514  0.0266
  391MOL0     C52687  12.384   5.049  12.845  0.4214  0.3157  0.2350
  391MOL0     C52688  12.375   4.967  12.982  0.2159  0.7267 -0.0552
  391MOL0     C52689  12.353   4.823  12.969  1.0938  0.0768  0.1439
  391MOL0     C52690  12.211   4.789  12.905 -1.0070 -0.2890  0.0378
  391MOL0     C52691  12.232   4.683  12.786  0.0202  0.2076  1.2824
  391MOL0     C52692  12.103   4.600  12.778  0.1496  0.1472  0.1667
  391MOL0     C52693  12.123   4.484  12.673 -0.9617  0.4718 -0.6521
  391MOL0     C52694  11.994   4.414  12.617 -0.1421 -0.0760 -0.0641
  391MOL0    Cl52695  11.882   4.377  12.763 -0.1987  0.4585 -0.1455
  391MOL0     C52696  12.563   4.870  12.607 -0.4517  0.7796 -0.7047
  391MOL0     C52697  12.555   4.807  12.484 -0.6869  0.2892  0.2125
  391MOL0     O52698  12.282   4.717  12.344  0.5943 -0.2343  0.4338
  391MOL0     C52699  12.405   4.707  12.009 -0.6305  0.0611 -0.3056
  391MOL0     C52700  12.365   4.667  11.876  0.8958  0.9541 -0.6293
  391MOL0     N52701  12.095   4.157  11.383 -0.2730 -0.1341 -0.2210
  391MOL0     N52702  12.005   4.072  11.335 -0.4452  0.0203  0.4869
  391MOL0     C52703  10.945   4.035  11.120  0.2269 -1.0876 -0.4534
  391MOL0     C52704  10.833   4.065  11.203 -0.7720  1.4795  0.4871
  391MOL0     C52705  10.458   3.976  11.444 -0.0579 -0.8718 -0.2867
  391MOL0     C52706  10.372   4.064  11.371  0.8245 -0.1574 -0.7698
  391MOL0     C52707  10.245   4.084  11.421  0.5709  0.4178 -1.0752
  391MOL0     C52708  10.193   4.018  11.534 -0.2572  0.1047  0.6228
  391MOL0     O52709  10.072   4.032  11.599 -0.3058 -0.1165  0.8257
  391MOL0     C52710   9.953   4.002  11.521  0.0237  0.3303 -0.0795
  391MOL0     C52711   9.925   3.857  11.551  0.3916 -0.1883  0.1378
  391MOL0     C52712   9.929   3.817  11.705 -0.6330  0.0943  0.2816
  391MOL0     C52713   9.812   3.723  11.744  0.3792 -0.7568  0.2007
  391MOL0     C52714   9.800   3.672  11.879 -0.0738 -0.6154 -0.0116
  391MOL0     C52715   9.780   3.633  11.990  0.5759  0.3183  1.1361
  391MOL0     C52716  10.285   3.937  11.610  1.0832 -0.6156  0.2583
  391MOL0     C52717  10.409   3.910  11.558 -0.3564 -1.1169  0.2285
  391MOL0     H52718  10.645   3.793  11.125  1.7174 -1.1673  2.7046
  391MOL0     H52719  10.824   3.768  10.954  0.3779  1.5981 -2.3712
  391MOL0     H52720  11.168   3.929  11.137 -3.7011 -0.7947  0.2548
  391MOL0     H52721  11.185   3.762  11.086 -0.8975 -0.9196 -0.5911
  391MOL0     H52722  11.389   3.887  11.037  0.4518  2.2709  1.8082
  391MOL0     H52723  11.307   3.855  10.883 -0.3050 -0.5921  0.8995
  391MOL0     H52724  11.230   4.078  10.846  0.8177  2.0524  0.1088
  391MOL0     H52725  11.233   4.118  11.020 -2.9656 -0.2664 -1.8498
  391MOL0     H52726  11.478   4.123  10.834 -1.6535 -1.5459 -0.9007
  391MOL0     H52727  11.363   4.247  10.893 -0.0541 -0.8305 -2.3964
  391MOL0     H52728  11.548   4.266  11.017  2.0886 -0.1955 -0.0410
  391MOL0     H52729  11.453   4.180  11.144 -0.0443  0.3865  0.1400
  391MOL0     H52730  11.591   3.975  11.099  0.5051 -0.5378 -0.1562
  391MOL0     H52731  11.662   4.044  10.965  3.2343 -1.6216  1.4974
  391MOL0     H52732  11.746   4.237  11.083 -2.9641 -0.3717 -0.4201
  391MOL0     H52733  11.704   4.162  11.248 -0.8197  0.1513  0.4953
  391MOL0     H52734  11.892   4.079  11.027  1.5469 -1.5725  0.7729
  391MOL0     H52735  11.826   3.963  11.155 -2.1623 -0.3747 -2.3384
  391MOL0     H52736  12.012   4.304  11.101 -1.7507 -1.4887 -2.3884
  391MOL0     H52737  12.276   4.387  11.260  0.3355  6.4212 -0.6849
  391MOL0     H52738  12.129   4.479  11.269  1.0637  0.1740 -1.4618
  391MOL0     H52739  12.275   4.495  11.477 -1.3923  0.3915 -1.3621
  391MOL0     H52740  12.244   4.321  11.508 -0.8293  1.1807  3.1525
  391MOL0     H52741  12.001   4.365  11.527  0.1491 -1.3092 -1.8513
  391MOL0     H52742  12.029   4.545  11.522 -2.5267  0.2872  1.5558
  391MOL0     H52743  12.123   4.362  11.729 -2.5738 -2.0657 -4.5794
  391MOL0     H52744  12.022   4.509  11.738 -0.0398  0.5854 -1.0747
  391MOL0     H52745  12.118   4.456  11.940 -0.2122  0.6606 -0.9507
  391MOL0     H52746  12.045   4.468  12.186 -1.2162  0.7961  2.6608
  391MOL0     H52747  12.204   4.406  12.252 -2.3055 -1.8311 -1.8519
  391MOL0     H52748  12.139   4.552  12.306 -0.0013 -0.9869 -0.4906
  391MOL0     H52749  12.371   5.061  12.347 -2.7368 -0.1768  1.6406
  391MOL0     H52750  12.384   5.150  12.556 -1.0699 -0.4769 -1.7404
  391MOL0     H52751  12.383   5.154  12.876  0.1066 -0.0503  1.5028
  391MOL0     H52752  12.303   4.999  12.792  0.1031 -0.8262  1.7256
  391MOL0     H52753  12.466   4.990  13.039  1.9485  2.6500 -3.2875
  391MOL0     H52754  12.290   5.000  13.041 -0.3173 -1.9420  0.8374
  391MOL0     H52755  12.348   4.794  13.075  0.6691  2.3212  0.8069
  391MOL0     H52756  12.436   4.773  12.919  1.7796  1.7025 -0.4227
  391MOL0     H52757  12.141   4.755  12.982  0.4129  1.0398  2.0246
  391MOL0     H52758  12.160   4.875  12.863 -0.2189 -0.1773 -0.7194
  391MOL0     H52759  12.299   4.603  12.817  2.3839  1.3049 -0.6813
  391MOL0     H52760  12.265   4.719  12.688 -0.5606 -2.2525  0.1044
  391MOL0     H52761  12.075   4.552  12.872 -1.5495 -0.6513 -0.7089
  391MOL0     H52762  12.029   4.664  12.730  1.1283  1.0120 -0.2247
  391MOL0     H52763  12.184   4.404  12.716 -0.9226  0.0357 -1.5076
  391MOL0     H52764  12.184   4.527  12.594  0.4464  1.0484  0.7000
  391MOL0     H52765  12.005   4.322  12.559  0.6745 -0.4797  0.7130
  391MOL0     H52766  11.933   4.481  12.555 -2.6924 -0.0774  2.2500
  391MOL0     H52767  12.632   4.825  12.678 -0.6037  3.5821  1.3894
  391MOL0     H52768  12.609   4.714  12.469  1.5610  1.5014  0.3725
  391MOL0     H52769  12.481   4.784  12.001  0.3545 -1.0090 -1.6003
  391MOL0     H52770  12.405   4.732  11.799 -1.6311 -2.1115 -5.0468
  391MOL0     H52771  11.027   4.105  11.130  3.1177 -4.0402 -1.4892
  391MOL0     H52772  10.822   4.161  11.251 -0.1361  2.1696 -0.6851
  391MOL0     H52773  10.403   4.118  11.283 -1.5871  3.6557  0.5053
  391MOL0     H52774  10.186   4.160  11.371  3.8442  2.5185 -2.1030
  391MOL0     H52775   9.873   4.065  11.561 -1.7496 -4.2186  4.7841
  391MOL0     H52776   9.953   4.024  11.414 -0.9124  0.5641 -0.0392
  391MOL0     H52777  10.003   3.794  11.506 -2.3270 -2.8211 -1.2400
  391MOL0     H52778   9.829   3.828  11.507  0.1578 -0.9647  1.1304
  391MOL0     H52779   9.921   3.905  11.769 -1.0708 -0.8831  1.6049
  391MOL0     H52780  10.025   3.769  11.724 -0.8195  0.6638  3.1313
  391MOL0     H52781   9.821   3.631  11.684  2.3148 -0.2259 -0.4118
  391MOL0     H52782   9.721   3.774  11.713  0.9998  0.8107  0.8695
  391MOL0     H52783   9.752   3.580  12.079  2.3273 -1.3906  0.7158
  391MOL0     H52784  10.242   3.888  11.697 -1.2819 -0.8463 -0.9547
  391MOL0     H52785  10.477   3.839  11.604 -0.8524 -2.3946 -0.9224
  392MOL0     O52786   8.273   1.841   1.836 -0.1005 -0.1552  0.2362
  392MOL0     C52787   8.152   1.840   1.850  0.1426  0.1358 -0.8328
  392MOL0     O52788   8.085   1.938   1.911  0.0372  0.3258  0.6507
  392MOL0     C52789   8.152   2.048   1.942 -1.0204  0.7150  0.2745
  392MOL0     C52790   8.223   2.053   2.058 -0.5558  0.9234 -0.3856
  392MOL0     C52791   8.272   2.176   2.101  0.0506 -0.1312 -0.3887
  392MOL0     C52792   8.259   2.293   2.027  0.4101 -0.5589 -1.1186
  392MOL0     O52793   8.282   2.413   2.089 -0.7235 -0.7593  0.1592
  392MOL0     C52794   8.362   2.495   2.003 -0.1832  0.0696  0.4054
  392MOL0     C52795   8.458   2.579   2.079 -0.9203 -0.1348  0.5310
  392MOL0     C52796   8.456   2.721   2.029 -1.0496 -0.6642 -0.3281
  392MOL0     C52797   8.539   2.756   1.901  1.1266 -1.2023  0.2719
  392MOL0     C52798   8.526   2.904   1.869 -0.2972  1.0045  0.4529
  392MOL0     C52799   8.389   2.938   1.811 -0.9403 -0.4165 -0.3361
  392MOL0     C52800   8.381   3.087   1.811  0.1115 -0.9917  0.3627
  392MOL0     C52801   8.384   3.154   1.946  0.2323 -0.0883 -0.5893
  392MOL0     N52802   8.375   3.301   1.935  0.2461 -0.6236  0.1800
  392MOL0     C52803   8.253   3.365   1.921 -0.6717 -0.7305  0.4416
  392MOL0     C52804   8.281   3.506   1.926 -0.0885 -0.3562  0.1542
  392MOL0     C52805   8.198   3.624   1.888  0.2445  0.3368  0.5455
  392MOL0     C52806   8.064   3.581   1.805 -0.3379  0.2004  0.0142
  392MOL0     C52807   7.996   3.708   1.752  0.0688 -0.2976 -0.4321
  392MOL0     C52808   7.933   3.796   1.852  0.6172 -0.3382 -0.5341
  392MOL0     O52809   7.853   3.899   1.792 -0.3731 -0.7151  0.0412
  392MOL0     C52810   7.786   3.997   1.874  0.3691 -1.3526  0.6521
  392MOL0     C52811   7.731   4.101   1.802 -0.0921  0.6786 -1.0103
  392MOL0     C52812   7.684   4.214   1.864  0.6443  0.9018 -0.5679
  392MOL0     C52813   7.624   4.317   1.782  0.1100 -0.1717  0.2014
  392MOL0     C52814   7.689   4.228   2.006 -0.5782 -0.0170  0.4959
  392MOL0     C52815   7.649   4.354   2.075 -0.1770 -0.2546 -0.0789
  392MOL0     O52816   7.570   4.338   2.185  0.4470 -0.6268 -0.5478
  392MOL0     C52817   7.455   4.417   2.188 -0.3111 -0.5206 -0.6372
  392MOL0     C52818   7.352   4.384   2.097  0.4282 -0.5022 -0.3015
  392MOL0     C52819   7.230   4.450   2.105  1.3501  0.9183  0.0929
  392MOL0     C52820   7.224   4.559   2.188 -0.5874 -0.4609 -0.0800
  392MOL0     O52821   7.112   4.633   2.199 -0.1829 -0.3974  0.2015
  392MOL0     C52822   7.015   4.633   2.094 -1.0930 -0.5001  0.0447
  392MOL0     C52823   7.066   4.695   1.965 -0.3445 -0.1377  0.0454
  392MOL0     C52824   7.128   4.826   1.980  0.2479 -0.0537  0.4150
  392MOL0     C52825   7.206   4.868   1.853  0.2411  0.5665 -0.2296
  392MOL0     C52826   7.246   5.014   1.841  0.4053  0.6266 -0.7570
  392MOL0     C52827   7.351   5.082   1.928  0.2575 -0.9893 -0.3484
  392MOL0     C52828   7.493   5.045   1.907 -0.4353  0.1768  0.5257
  392MOL0     C52829   7.585   5.072   2.028 -0.5723  0.4273 -0.0981
  392MOL0    Cl52830   7.656   5.233   1.999  0.3622  0.4133 -0.1029
  392MOL0     C52831   7.324   4.591   2.277  0.0643 -0.1688 -0.7410
  392MOL0     C52832   7.438   4.514   2.283  0.0143 -0.2298  1.4184
  392MOL0     O52833   7.671   4.468   2.021  0.0011  0.4805 -0.3159
  392MOL0     C52834   7.747   4.126   2.080 -0.4199 -0.2622  0.9893
  392MOL0     C52835   7.790   4.011   2.013 -0.5285  1.1040 -0.3747
  392MOL0     N52836   8.419   3.517   1.952  0.3199 -0.3716 -0.1508
  392MOL0     N52837   8.473   3.399   1.948 -0.3368  0.2336  0.7175
  392MOL0     C52838   8.195   2.283   1.901  0.4122 -0.3579  0.1077
  392MOL0     C52839   8.135   2.163   1.864  0.0878  0.5006  0.4082
  392MOL0     C52840   8.063   1.730   1.796  0.3900  0.1868  0.2488
  392MOL0     C52841   8.108   1.627   1.714  0.2171 -0.2613 -0.3132
  392MOL0     C52842   8.017   1.531   1.666 -1.4920 -0.8088  0.0358
  392MOL0     C52843   7.885   1.530   1.705  0.3655  0.0193  0.5156
  392MOL0     O52844   7.812   1.425   1.662  0.3290  0.7400 -0.0797
  392MOL0     C52845   7.682   1.413   1.718  0.3293  0.8277 -0.6485
  392MOL0     C52846   7.611   1.296   1.651  0.2927 -1.1135  0.1312
  392MOL0     C52847   7.479   1.264   1.732 -0.6259  0.2731  0.4440
  392MOL0     C52848   7.453   1.113   1.744 -0.1074  0.2211  1.0975
  392MOL0     C52849   7.472   1.052   1.611  0.9363  0.6548 -0.3060
  392MOL0     C52850   7.470   1.015   1.497 -0.0021  0.0771  0.0695
  392MOL0     C52851   7.840   1.633   1.778  0.3561 -0.5569 -0.2444
  392MOL0     C52852   7.928   1.734   1.816  0.9660  0.0246  0.1887
  392MOL0     H52853   8.244   1.967   2.119 -1.4121  0.1829 -1.1098
  392MOL0     H52854   8.319   2.185   2.199 -2.5319  0.8445  0.8517
  392MOL0     H52855   8.416   2.440   1.926  0.8620 -1.5606  2.2207
  392MOL0     H52856   8.299   2.562   1.943  0.4408  1.1521  0.9335
  392MOL0     H52857   8.426   2.591   2.183 -2.1649  1.1850  0.0368
  392MOL0     H52858   8.561   2.544   2.078 -0.2976  1.5898  1.1061
  392MOL0     H52859   8.357   2.767   2.017 -0.6171 -0.1079 -2.1951
  392MOL0     H52860   8.503   2.770   2.115  0.1386 -1.8417 -0.2795
  392MOL0     H52861   8.644   2.735   1.921  1.4445 -1.2693 -1.3494
  392MOL0     H52862   8.522   2.685   1.819  1.0568 -1.7293  0.7360
  392MOL0     H52863   8.571   2.959   1.953 -0.7259  1.4018  0.4262
  392MOL0     H52864   8.603   2.919   1.793  1.0196 -1.2970  1.2259
  392MOL0     H52865   8.383   2.902   1.708 -1.5017 -0.3706 -0.3195
  392MOL0     H52866   8.314   2.892   1.876 -0.5289  1.8283  1.8708
  392MOL0     H52867   8.465   3.112   1.745 -0.4178 -3.0828 -1.1946
  392MOL0     H52868   8.285   3.123   1.772 -0.2785  0.0000  2.1056
  392MOL0     H52869   8.474   3.128   2.003  0.1345  1.4227  0.2819
  392MOL0     H52870   8.301   3.117   2.006 -0.6776  1.1521 -1.0478
  392MOL0     H52871   8.157   3.321   1.892 -0.0540 -2.7994  1.3233
  392MOL0     H52872   8.190   3.669   1.987  0.4861 -1.1996  1.2933
  392MOL0     H52873   8.270   3.688   1.836  0.1716  0.9011  1.1312
  392MOL0     H52874   7.994   3.516   1.858  2.8415 -2.1095  1.6990
  392MOL0     H52875   8.099   3.528   1.716  2.5573  1.3135  0.3961
  392MOL0     H52876   7.917   3.673   1.684 -0.7490 -2.5821  1.5521
  392MOL0     H52877   8.078   3.761   1.702  2.9394 -4.3797 -0.5936
  392MOL0     H52878   8.005   3.846   1.918  2.2695 -0.0292 -2.4625
  392MOL0     H52879   7.863   3.736   1.911 -0.9888  1.9271  0.0086
  392MOL0     H52880   7.720   4.091   1.694  3.8412  2.8018 -1.7896
  392MOL0     H52881   7.589   4.282   1.684 -1.1874  1.0495  0.2064
  392MOL0     H52882   7.536   4.366   1.824  2.2210  4.0054  0.2647
  392MOL0     H52883   7.694   4.399   1.765 -0.2716  0.3928  1.2877
  392MOL0     H52884   7.368   4.298   2.034 -0.3466  0.1880 -1.4706
  392MOL0     H52885   7.155   4.433   2.028  3.2456  2.2840 -2.1809
  392MOL0     H52886   6.975   4.532   2.081  0.4849 -0.9280 -2.0028
  392MOL0     H52887   6.933   4.694   2.135  2.2362  2.1014  3.5252
  392MOL0     H52888   7.136   4.624   1.919  0.3137 -0.4887  1.4985
  392MOL0     H52889   6.981   4.687   1.898 -1.9399  1.6123  1.7378
  392MOL0     H52890   7.204   4.822   2.059  0.1932  2.5821  0.7130
  392MOL0     H52891   7.055   4.904   2.004  0.5470 -0.4603  2.8223
  392MOL0     H52892   7.292   4.803   1.834  1.1443  2.5826 -4.0970
  392MOL0     H52893   7.139   4.834   1.774  0.1895  2.2856 -0.9920
  392MOL0     H52894   7.152   5.070   1.845 -0.7512 -1.3164  1.9391
  392MOL0     H52895   7.288   5.036   1.742  3.1461  1.1842  0.4485
  392MOL0     H52896   7.343   5.191   1.916  0.3000 -0.4591  3.4264
  392MOL0     H52897   7.324   5.083   2.033 -3.8930 -1.5810 -1.2536
  392MOL0     H52898   7.530   5.079   1.810 -0.4268 -2.2118 -0.3722
  392MOL0     H52899   7.485   4.936   1.893  0.0483  0.4318 -2.3272
  392MOL0     H52900   7.673   5.007   2.023 -0.2322  0.9867 -2.4868
  392MOL0     H52901   7.533   5.065   2.124 -0.9896  1.8000 -0.1989
  392MOL0     H52902   7.308   4.661   2.358  0.3318 -0.1832 -0.6769
  392MOL0     H52903   7.509   4.519   2.365  4.0352  2.6625 -1.8619
  392MOL0     H52904   7.756   4.151   2.185 -3.7119  0.1155  1.2817
  392MOL0     H52905   7.836   3.923   2.057 -5.0063  0.0581  2.9389
  392MOL0     H52906   8.180   2.376   1.846 -2.7174 -0.1427  1.1548
  392MOL0     H52907   8.076   2.142   1.775 -3.8258  0.1147  2.8620
  392MOL0     H52908   8.208   1.606   1.677 -0.3432  0.5987 -2.4503
  392MOL0     H52909   8.070   1.449   1.618 -0.0680 -0.8690  1.6234
  392MOL0     H52910   7.684   1.401   1.826 -1.6531  0.9814 -0.5532
  392MOL0     H52911   7.628   1.505   1.695  1.1097  1.3981 -0.2155
  392MOL0     H52912   7.678   1.211   1.640  0.2473 -1.4045  1.8755
  392MOL0     H52913   7.579   1.341   1.556 -0.7590  1.0772  1.4348
  392MOL0     H52914   7.395   1.309   1.679  1.1878  1.4399 -1.5890
  392MOL0     H52915   7.485   1.302   1.835 -1.0066  0.6532  0.3261
  392MOL0     H52916   7.354   1.089   1.783 -0.8519 -2.6671 -2.0859
  392MOL0     H52917   7.536   1.094   1.813 -0.4771  2.1190  2.1452
  392MOL0     H52918   7.469   0.969   1.400  2.3100 -0.0135  0.0416
  392MOL0     H52919   7.737   1.652   1.810  0.6255  3.3453 -1.2249
  392MOL0     H52920   7.876   1.805   1.880  0.1281  0.5854 -1.0803
  393MOL0     O52921   0.886   3.591   4.280  0.3540  0.0595  0.2582
  393MOL0     C52922   0.990   3.529   4.290 -0.0689  0.0111 -1.5473
  393MOL0     O52923   1.051   3.464   4.185 -0.0363  0.8485  0.2023
  393MOL0     C52924   0.983   3.428   4.076  0.8001 -0.0646  0.3842
  393MOL0     C52925   0.872   3.342   4.083 -0.1819  0.1420 -0.4457
  393MOL0     C52926   0.794   3.308   3.974 -0.5673  0.3626  0.5702
  393MOL0     C52927   0.827   3.361   3.851 -0.9205 -0.4804  0.1944
  393MOL0     O52928   0.755   3.322   3.736 -0.7728 -0.1961 -0.3463
  393MOL0     C52929   0.821   3.318   3.603 -0.1202 -0.4924 -0.4179
  393MOL0     C52930   0.740   3.208   3.532 -0.0472  0.2585  0.3149
  393MOL0     C52931   0.597   3.240   3.503  0.8950 -0.0141  0.7123
  393MOL0     C52932   0.599   3.297   3.355  0.1179  0.0818  0.3427
  393MOL0     C52933   0.705   3.402   3.314  1.1775 -0.7993  0.4580
  393MOL0     C52934   0.676   3.439   3.174 -0.1303 -0.6614  0.8895
  393MOL0     C52935   0.796   3.529   3.135 -1.1911  0.4200 -0.3346
  393MOL0     C52936   0.779   3.539   2.989  0.6505  0.4035 -0.0186
  393MOL0     N52937   0.871   3.620   2.911 -1.0146 -0.2287  0.7592
  393MOL0     C52938   1.012   3.590   2.881 -0.2589 -1.1011  0.7481
  393MOL0     C52939   1.054   3.679   2.792 -0.0656 -0.6447  0.2591
  393MOL0     C52940   1.186   3.683   2.730 -0.7786 -0.8836 -0.0490
  393MOL0     C52941   1.197   3.793   2.627 -0.0580 -0.1323  0.0490
  393MOL0     C52942   1.252   3.931   2.692  0.6234 -0.4786  0.5837
  393MOL0     C52943   1.315   4.022   2.582  1.0778 -0.7410 -0.5075
  393MOL0     O52944   1.209   4.108   2.542  0.7422  0.4681 -0.6126
  393MOL0     C52945   1.243   4.207   2.454  0.7598  0.5504 -0.0492
  393MOL0     C52946   1.139   4.276   2.403  0.1737  0.0019 -0.5102
  393MOL0     C52947   1.154   4.382   2.299  0.7802  0.3264  0.6262
  393MOL0     C52948   1.021   4.441   2.251 -0.6740  0.6367  0.2290
  393MOL0     C52949   1.291   4.423   2.264  0.6629  0.3374  0.2009
  393MOL0     C52950   1.315   4.535   2.175 -1.7137  0.6598  0.9940
  393MOL0     O52951   1.448   4.564   2.139 -0.5049 -0.0480  0.0575
  393MOL0     C52952   1.484   4.654   2.039  0.9629  0.5280 -0.5781
  393MOL0     C52953   1.408   4.670   1.928 -0.4050 -0.7513  0.1177
  393MOL0     C52954   1.454   4.753   1.826  0.3249 -0.4774  0.1292
  393MOL0     C52955   1.564   4.841   1.843 -0.1031 -0.3332 -0.8055
  393MOL0     O52956   1.597   4.940   1.754  0.2326  0.1340 -0.3459
  393MOL0     C52957   1.523   4.934   1.628 -0.0165 -0.2013  0.1258
  393MOL0     C52958   1.537   5.067   1.560  0.2457 -0.2664 -0.7385
  393MOL0     C52959   1.685   5.102   1.516  0.9142  0.2039 -0.6012
  393MOL0     C52960   1.705   5.072   1.360 -0.8548  0.3617  0.8446
  393MOL0     C52961   1.846   5.078   1.312  0.8031  0.3502  0.0758
  393MOL0     C52962   1.921   4.950   1.361  0.4689  0.6105  0.6442
  393MOL0     C52963   2.059   4.941   1.282  0.2854  0.2618 -0.3178
  393MOL0     C52964   2.160   4.855   1.361 -0.1437 -0.6538 -0.6798
  393MOL0    Cl52965   2.268   4.779   1.240  0.1298  0.3488  0.0215
  393MOL0     C52966   1.644   4.818   1.957  0.2904 -0.4966 -0.3880
  393MOL0     C52967   1.610   4.720   2.054  0.3846  0.5721  0.0359
  393MOL0     O52968   1.213   4.573   2.112 -0.2064 -0.2141 -0.6239
  393MOL0     C52969   1.399   4.353   2.334  0.6569 -0.5888 -0.4372
  393MOL0     C52970   1.376   4.248   2.416  0.7689  0.2319 -0.3331
  393MOL0     N52971   0.943   3.766   2.779  0.2529 -0.5791  0.1564
  393MOL0     N52972   0.835   3.731   2.855  1.8582 -0.9300  0.3114
  393MOL0     C52973   0.943   3.450   3.843 -0.0308 -1.2524  0.3231
  393MOL0     C52974   1.019   3.487   3.958  0.5345  0.8032  0.5135
  393MOL0     C52975   1.075   3.557   4.403 -0.9690  0.0493 -0.1103
  393MOL0     C52976   1.212   3.508   4.392 -0.0338  0.0722  0.0914
  393MOL0     C52977   1.302   3.543   4.496  0.3181  0.8727 -0.0300
  393MOL0     C52978   1.260   3.615   4.607 -0.6149 -0.6283  0.8751
  393MOL0     O52979   1.335   3.660   4.706 -0.5526 -0.7949 -0.5426
  393MOL0     C52980   1.483   3.632   4.722  0.0356 -0.0817  0.1204
  393MOL0     C52981   1.533   3.681   4.855  0.3512 -0.4697 -0.0928
  393MOL0     C52982   1.656   3.609   4.911  0.7129  0.0177 -0.4047
  393MOL0     C52983   1.780   3.641   4.826  0.7155  0.2658  0.0166
  393MOL0     C52984   1.858   3.522   4.818 -0.4623 -0.2819  0.0197
  393MOL0     C52985   1.913   3.413   4.806 -1.1921  0.8484 -0.0942
  393MOL0     C52986   1.128   3.648   4.619  0.4106  0.5732  0.5302
  393MOL0     C52987   1.032   3.614   4.517  0.1948 -0.3926  0.2100
  393MOL0     H52988   0.851   3.306   4.184 -0.1847  1.6187  0.0998
  393MOL0     H52989   0.706   3.245   3.977 -1.2289  0.8293 -3.6807
  393MOL0     H52990   0.807   3.417   3.560 -0.9552 -0.6486 -0.5138
  393MOL0     H52991   0.927   3.291   3.609 -0.4761 -1.9862 -0.4124
  393MOL0     H52992   0.785   3.172   3.439 -5.5410 -2.2661 -1.7928
  393MOL0     H52993   0.737   3.119   3.596 -0.3328  0.5562  0.7219
  393MOL0     H52994   0.524   3.158   3.507  1.5336 -0.6653 -0.3723
  393MOL0     H52995   0.565   3.320   3.570  0.6602  1.3104 -0.9082
  393MOL0     H52996   0.619   3.217   3.282 -1.0166  0.2282 -0.1452
  393MOL0     H52997   0.497   3.327   3.328  0.5508  1.5985  0.3173
  393MOL0     H52998   0.702   3.495   3.372  3.5011  1.7915 -3.1306
  393MOL0     H52999   0.805   3.359   3.320  2.7872  2.0060 -2.8626
  393MOL0     H53000   0.673   3.345   3.117 -0.8347  1.1158 -2.2166
  393MOL0     H53001   0.576   3.479   3.155  1.3134  2.1122 -1.8189
  393MOL0     H53002   0.791   3.625   3.187 -0.2487  0.6487 -0.6530
  393MOL0     H53003   0.896   3.488   3.152 -0.7977  1.9264  1.1856
  393MOL0     H53004   0.676   3.561   2.962  0.7893 -1.2562 -2.1549
  393MOL0     H53005   0.781   3.438   2.948 -0.2927  1.6529 -3.5133
  393MOL0     H53006   1.071   3.503   2.909  1.8432  0.3072  0.9172
  393MOL0     H53007   1.260   3.715   2.804 -1.6851  1.6991 -0.1711
  393MOL0     H53008   1.217   3.588   2.686 -2.8726 -1.8609  0.4583
  393MOL0     H53009   1.109   3.801   2.563  1.0001  1.9556 -1.2562
  393MOL0     H53010   1.278   3.764   2.559 -1.7953 -4.3148 -0.5247
  393MOL0     H53011   1.345   3.906   2.745  1.6476 -0.4500 -1.1032
  393MOL0     H53012   1.178   3.979   2.756  2.2825  1.1335  1.4077
  393MOL0     H53013   1.362   3.982   2.491 -0.2887 -0.3968 -1.3850
  393MOL0     H53014   1.391   4.067   2.647 -2.2120  1.7667  1.9203
  393MOL0     H53015   1.037   4.253   2.434  0.4386 -0.2578  0.1852
  393MOL0     H53016   1.021   4.436   2.142 -1.6102  1.5404  0.1727
  393MOL0     H53017   0.937   4.378   2.284  1.6334 -5.4498 -3.6315
  393MOL0     H53018   1.020   4.547   2.277  0.1167  0.7884 -0.3509
  393MOL0     H53019   1.321   4.608   1.907 -1.8715  0.9803  0.8645
  393MOL0     H53020   1.385   4.753   1.742 -0.3917  0.2847  0.7010
  393MOL0     H53021   1.553   4.847   1.568  1.3405  1.5199 -1.8223
  393MOL0     H53022   1.414   4.931   1.640 -0.7735  3.3451 -3.6254
  393MOL0     H53023   1.476   5.086   1.472  0.0925  1.3470 -0.3202
  393MOL0     H53024   1.490   5.142   1.625 -0.8281  0.3256 -2.1548
  393MOL0     H53025   1.761   5.044   1.570  1.0609  0.5057 -0.4851
  393MOL0     H53026   1.708   5.207   1.536 -3.0916  1.3954 -1.3414
  393MOL0     H53027   1.648   4.982   1.336 -0.6099  0.5156 -0.3498
  393MOL0     H53028   1.659   5.164   1.321  0.3428 -0.3309 -2.5276
  393MOL0     H53029   1.894   5.165   1.358  3.9377 -1.4190  0.4695
  393MOL0     H53030   1.854   5.071   1.204  4.3201 -1.5703  0.2949
  393MOL0     H53031   1.950   4.970   1.465  1.6719 -0.1188  0.4664
  393MOL0     H53032   1.862   4.858   1.352  2.0906 -0.3506 -0.7872
  393MOL0     H53033   2.096   5.044   1.288 -3.0086  1.6938 -1.9270
  393MOL0     H53034   2.059   4.916   1.175  0.7140 -0.8282 -0.0800
  393MOL0     H53035   2.111   4.787   1.431  2.0865 -0.2633  1.3981
  393MOL0     H53036   2.212   4.914   1.437 -1.2199  1.8057 -1.7267
  393MOL0     H53037   1.740   4.865   1.975  0.6748 -2.1562  2.7377
  393MOL0     H53038   1.667   4.714   2.147 -1.8221  0.8776  1.4793
  393MOL0     H53039   1.504   4.375   2.315  0.8976  0.9533  2.2425
  393MOL0     H53040   1.466   4.195   2.446 -1.8212 -3.7162  1.3607
  393MOL0     H53041   0.964   3.494   3.746 -0.7750 -0.6849  0.4079
  393MOL0     H53042   1.098   3.561   3.957  0.4008  0.9475 -0.0300
  393MOL0     H53043   1.255   3.468   4.300 -0.8842  0.5046 -0.5139
  393MOL0     H53044   1.400   3.498   4.476 -0.7667 -1.5641 -0.2779
  393MOL0     H53045   1.487   3.523   4.713  2.1236 -0.0890  0.7595
  393MOL0     H53046   1.534   3.668   4.632 -2.9324 -1.6102 -2.3658
  393MOL0     H53047   1.462   3.684   4.938  2.7571 -2.8062  2.2156
  393MOL0     H53048   1.567   3.783   4.833  1.4660 -0.6996  0.5249
  393MOL0     H53049   1.627   3.506   4.934  0.5125  0.2479  0.3971
  393MOL0     H53050   1.664   3.644   5.014 -1.3730 -4.9640  1.7714
  393MOL0     H53051   1.843   3.718   4.872 -0.7752  2.0577 -0.7990
  393MOL0     H53052   1.743   3.668   4.727  2.1979  2.5358  0.0088
  393MOL0     H53053   1.967   3.321   4.804  0.1555  1.4734  2.6264
  393MOL0     H53054   1.093   3.697   4.709 -1.6292 -0.5512  0.4152
  393MOL0     H53055   0.931   3.653   4.523  1.1281  2.7927 -2.0653
  394MOL0     O53056   0.560   9.788   8.307  0.1189  0.5893  0.2468
  394MOL0     C53057   0.651   9.730   8.256  0.0618  0.4363  0.2661
  394MOL0     O53058   0.636   9.598   8.221 -0.3495 -0.8476 -0.8273
  394MOL0     C53059   0.547   9.512   8.278 -0.2979  0.1180 -0.6300
  394MOL0     C53060   0.465   9.524   8.394 -0.8053 -0.1786  0.2315
  394MOL0     C53061   0.395   9.422   8.441 -0.2708  0.8467 -0.0679
  394MOL0     C53062   0.403   9.293   8.382 -0.8548  0.0344  0.2398
  394MOL0     O53063   0.320   9.196   8.428  1.0329  0.2403  0.6571
  394MOL0     C53064   0.250   9.108   8.345  1.1894  0.0318  0.0462
  394MOL0     C53065   0.113   9.065   8.402 -0.5681 -0.2512  0.6975
  394MOL0     C53066   0.057   8.944   8.333  0.5473  0.4621  0.5345
  394MOL0     C53067  -0.057   8.887   8.418  0.2918 -0.6399  0.4356
  394MOL0     C53068  -0.097   8.742   8.348  0.5260  0.0254 -0.2643
  394MOL0     C53069  -0.182   8.669   8.442 -0.5567 -0.4565 -1.4010
  394MOL0     C53070  -0.225   8.539   8.380 -0.4883  0.0141  0.2777
  394MOL0     C53071  -0.361   8.492   8.438 -0.2606  0.0458  0.2404
  394MOL0     N53072  -0.378   8.343   8.434  0.3756 -0.3892 -1.4381
  394MOL0     C53073  -0.327   8.267   8.538  0.0820 -0.8450  1.0300
  394MOL0     C53074  -0.347   8.145   8.486 -0.7467 -0.2244 -0.2107
  394MOL0     C53075  -0.297   8.009   8.529  0.9457 -0.2439  0.2988
  394MOL0     C53076  -0.419   7.952   8.598  0.1024  0.9848  0.8391
  394MOL0     C53077  -0.425   7.793   8.626 -0.5568 -0.1622  0.6654
  394MOL0     C53078  -0.521   7.762   8.738 -0.4670 -0.5386 -0.8067
  394MOL0     O53079  -0.592   7.646   8.715 -0.7227  0.6871  0.3762
  394MOL0     C53080  -0.594   7.545   8.804 -0.4682 -0.1097 -0.2483
  394MOL0     C53081  -0.671   7.438   8.754 -0.3456 -0.3555 -0.5152
  394MOL0     C53082  -0.720   7.336   8.834 -0.4146 -0.7730  0.0258
  394MOL0     C53083  -0.805   7.219   8.772  0.0624  0.1879 -0.0323
  394MOL0     C53084  -0.673   7.322   8.965 -0.7627  0.3830  1.1173
  394MOL0     C53085  -0.704   7.214   9.052  0.0858 -1.5336 -0.1941
  394MOL0     O53086  -0.837   7.158   9.052  0.6118 -0.3562 -0.1813
  394MOL0     C53087  -0.868   7.050   9.129 -0.5785 -1.3468  0.0224
  394MOL0     C53088  -0.777   6.948   9.170  0.7691 -0.0691  0.0701
  394MOL0     C53089  -0.821   6.841   9.240  0.5075  0.9811 -0.1890
  394MOL0     C53090  -0.952   6.831   9.275  0.5337  0.7357  0.2506
  394MOL0     O53091  -1.003   6.723   9.347  1.3267 -0.8611 -0.8074
  394MOL0     C53092  -1.064   6.623   9.271 -0.2012 -0.6453  0.8698
  394MOL0     C53093  -1.216   6.645   9.255 -0.8935  0.2780  0.4296
  394MOL0     C53094  -1.284   6.668   9.391 -0.1491 -1.1124  0.8895
  394MOL0     C53095  -1.349   6.548   9.444  0.3064 -0.2122 -0.2274
  394MOL0     C53096  -1.379   6.561   9.589  0.5033  0.4469 -0.0309
  394MOL0     C53097  -1.463   6.436   9.613  0.1167  0.2630  0.3890
  394MOL0     C53098  -1.498   6.416   9.762  0.0830 -0.0870  1.1651
  394MOL0     C53099  -1.593   6.291   9.780 -0.6915 -0.5339  0.7125
  394MOL0    Cl53100  -1.488   6.158   9.781 -0.1118 -0.1519  0.0190
  394MOL0     C53101  -1.035   6.939   9.252 -0.0213  0.7865  0.2821
  394MOL0     C53102  -0.994   7.045   9.175  0.6626 -0.4876  0.2898
  394MOL0     O53103  -0.607   7.184   9.127 -0.0566 -0.7236  0.4439
  394MOL0     C53104  -0.588   7.431   9.011  0.9448  0.0053  0.3228
  394MOL0     C53105  -0.558   7.544   8.939  0.0768 -0.4434  0.4901
  394MOL0     N53106  -0.419   8.157   8.372 -0.1780 -0.1236 -1.3258
  394MOL0     N53107  -0.436   8.278   8.339  0.1467 -0.0679 -1.2313
  394MOL0     C53108   0.482   9.281   8.264  0.1909 -0.1445 -0.6734
  394MOL0     C53109   0.552   9.390   8.221  0.5009  0.1618  1.2072
  394MOL0     C53110   0.771   9.803   8.222 -0.0001  0.2747  0.5185
  394MOL0     C53111   0.784   9.942   8.245 -0.3749  0.9821  1.2267
  394MOL0     C53112   0.892  10.013   8.193 -0.0265  1.2688 -0.1120
  394MOL0     C53113   0.984   9.940   8.113 -0.3188  0.0329  0.4038
  394MOL0     O53114   1.084   9.997   8.045 -0.2421  0.5681  0.0507
  394MOL0     C53115   1.073  10.015   7.904  0.2099  0.1309  0.3039
  394MOL0     C53116   0.950  10.101   7.869  0.1588  1.2837  0.1371
  394MOL0     C53117   0.989  10.161   7.726  0.4464  0.3065  0.2378
  394MOL0     C53118   0.865  10.239   7.684 -0.1710 -0.8905  0.8930
  394MOL0     C53119   0.901  10.345   7.588  0.7038  0.1021  0.8734
  394MOL0     C53120   0.940  10.427   7.504  0.0526  0.0107 -0.6287
  394MOL0     C53121   0.965   9.802   8.085  0.1482 -0.1481 -0.2274
  394MOL0     C53122   0.870   9.732   8.149  0.2466  0.4466  0.6725
  394MOL0     H53123   0.466   9.620   8.444 -3.8780  0.5325 -0.8344
  394MOL0     H53124   0.314   9.424   8.514  1.3723 -1.7143  1.9933
  394MOL0     H53125   0.232   9.158   8.250 -0.6031  0.6482  0.6545
  394MOL0     H53126   0.304   9.013   8.339 -2.5567 -2.2576 -4.1019
  394MOL0     H53127   0.119   9.044   8.509 -1.9605  0.3236  0.9126
  394MOL0     H53128   0.044   9.148   8.381 -0.7853 -0.2135  1.5022
  394MOL0     H53129   0.028   8.972   8.231  0.1634  0.9784  0.7818
  394MOL0     H53130   0.133   8.868   8.310  1.1232  1.3088 -0.4492
  394MOL0     H53131  -0.026   8.878   8.523 -2.5328 -1.2135  1.3232
  394MOL0     H53132  -0.138   8.960   8.408  1.2409  0.3050 -0.5366
  394MOL0     H53133  -0.139   8.763   8.249  1.4852 -2.1781 -1.1925
  394MOL0     H53134  -0.011   8.675   8.346  0.7053  0.1835  1.0066
  394MOL0     H53135  -0.131   8.659   8.538 -1.8702 -1.1373 -0.7384
  394MOL0     H53136  -0.271   8.728   8.466 -1.5297 -2.2460 -0.4235
  394MOL0     H53137  -0.225   8.542   8.270  1.9824  5.0277  0.1618
  394MOL0     H53138  -0.145   8.466   8.400  1.4746  1.7383 -0.9104
  394MOL0     H53139  -0.445   8.539   8.387  0.4096  1.8784  0.7191
  394MOL0     H53140  -0.357   8.512   8.546  2.2600 -2.2963  0.6902
  394MOL0     H53141  -0.279   8.304   8.628 -0.5329 -0.5956  1.2611
  394MOL0     H53142  -0.281   7.955   8.435 -1.1852  0.2479 -0.4122
  394MOL0     H53143  -0.206   8.009   8.590  1.7631 -0.7910 -0.8945
  394MOL0     H53144  -0.508   7.966   8.536  1.2148  1.7577 -0.6223
  394MOL0     H53145  -0.423   8.005   8.693  0.2630  2.9891 -0.2295
  394MOL0     H53146  -0.322   7.767   8.652 -0.1715  1.7810  1.2771
  394MOL0     H53147  -0.450   7.737   8.535  0.0007  2.3397 -1.1377
  394MOL0     H53148  -0.590   7.842   8.763  3.4439  1.8965  3.8533
  394MOL0     H53149  -0.456   7.762   8.826  1.4741 -0.6616 -2.1900
  394MOL0     H53150  -0.699   7.436   8.649  0.3461  1.9555 -0.7997
  394MOL0     H53151  -0.899   7.211   8.827  0.8870  1.1669  1.6082
  394MOL0     H53152  -0.835   7.264   8.677 -2.9412  0.7889  1.0680
  394MOL0     H53153  -0.758   7.121   8.762  1.6168  1.0376 -1.7395
  394MOL0     H53154  -0.675   6.951   9.134 -0.4061 -1.3601 -3.8468
  394MOL0     H53155  -0.749   6.761   9.251  0.7537  0.9980 -1.4704
  394MOL0     H53156  -1.001   6.622   9.182  1.4078  0.3012  1.9453
  394MOL0     H53157  -1.058   6.530   9.328  1.8721 -0.9941  0.1465
  394MOL0     H53158  -1.242   6.715   9.175  0.0158 -0.4923 -0.5742
  394MOL0     H53159  -1.250   6.547   9.218 -2.2939 -0.3178  3.0140
  394MOL0     H53160  -1.359   6.747   9.379  3.8217  2.8799 -0.1613
  394MOL0     H53161  -1.222   6.715   9.467  0.9122 -0.6372 -0.2414
  394MOL0     H53162  -1.442   6.523   9.392  0.6684 -2.0985 -0.0385
  394MOL0     H53163  -1.282   6.463   9.432  3.1850  1.7329  1.0722
  394MOL0     H53164  -1.441   6.646   9.618 -0.1550 -0.1277  0.2725
  394MOL0     H53165  -1.297   6.557   9.661  1.0769  2.8524 -0.4625
  394MOL0     H53166  -1.555   6.443   9.554  0.0310  3.1857  0.7025
  394MOL0     H53167  -1.414   6.348   9.572 -0.1465  0.1824  0.2457
  394MOL0     H53168  -1.572   6.495   9.775  0.4197  0.6730 -1.1460
  394MOL0     H53169  -1.414   6.440   9.828  1.9365 -0.3193 -0.9871
  394MOL0     H53170  -1.663   6.284   9.696  2.1372  1.4542 -2.0205
  394MOL0     H53171  -1.644   6.309   9.875  0.6557  1.7311  1.0616
  394MOL0     H53172  -1.133   6.935   9.297  0.3566  2.1228  1.2971
  394MOL0     H53173  -1.054   7.135   9.182 -0.0970 -0.9704  0.0801
  394MOL0     H53174  -0.539   7.439   9.107  0.7122  3.3646  0.2930
  394MOL0     H53175  -0.517   7.635   8.981  0.3250 -0.8709  1.1799
  394MOL0     H53176   0.491   9.191   8.204  2.2423  0.8144 -1.9161
  394MOL0     H53177   0.625   9.383   8.141  2.0669 -0.6538  2.6511
  394MOL0     H53178   0.707  10.003   8.292  0.6014  0.5666  3.4739
  394MOL0     H53179   0.901  10.121   8.203  2.7130  0.9998  1.5340
  394MOL0     H53180   1.172  10.039   7.864 -0.4444  0.3995 -1.2180
  394MOL0     H53181   1.050   9.914   7.868  0.8259 -0.5798  1.8350
  394MOL0     H53182   0.937  10.174   7.950  1.1513 -2.4824  4.1107
  394MOL0     H53183   0.859  10.044   7.851 -0.5169  0.4667  4.7810
  394MOL0     H53184   1.027  10.096   7.646  5.8355  2.0876  0.9635
  394MOL0     H53185   1.065  10.239   7.737 -0.5780  1.4369 -0.4986
  394MOL0     H53186   0.810  10.282   7.768  0.0472 -1.6323  1.4221
  394MOL0     H53187   0.791  10.175   7.635 -0.6663 -1.3924  2.2399
  394MOL0     H53188   0.986  10.504   7.446 -0.5266  0.3214 -0.6818
  394MOL0     H53189   1.044   9.754   8.028  1.0942 -2.6461  2.8665
  394MOL0     H53190   0.880   9.627   8.124 -0.3442  0.1278  1.7524
  395MOL0     O53191   1.853   3.268   6.256  0.0295  0.5811 -0.7022
  395MOL0     C53192   1.883   3.383   6.231 -0.4041  0.0653 -0.0949
  395MOL0     O53193   1.848   3.449   6.118  1.1794 -0.2492 -0.1760
  395MOL0     C53194   1.763   3.392   6.020 -0.7247  0.1464 -0.2041
  395MOL0     C53195   1.815   3.355   5.896  0.1541  0.2216 -0.6325
  395MOL0     C53196   1.743   3.290   5.793 -0.3795 -0.3077  0.4617
  395MOL0     C53197   1.610   3.252   5.817  0.2773  0.1832 -0.3356
  395MOL0     O53198   1.528   3.187   5.730 -0.6815 -0.3700  0.6849
  395MOL0     C53199   1.527   3.249   5.602 -0.2403 -0.6604 -0.2504
  395MOL0     C53200   1.402   3.202   5.535  0.0999 -0.1916  0.0375
  395MOL0     C53201   1.403   3.054   5.488 -0.3573  0.9061 -0.3451
  395MOL0     C53202   1.256   3.001   5.443 -0.1610 -0.3626 -0.6440
  395MOL0     C53203   1.219   2.846   5.415  0.2513 -0.3492 -0.3525
  395MOL0     C53204   1.072   2.829   5.387  0.5516 -0.7884 -0.0893
  395MOL0     C53205   1.036   2.697   5.327  0.0621  0.7891 -0.2571
  395MOL0     C53206   1.057   2.586   5.429  1.0457 -0.1059 -0.3660
  395MOL0     N53207   1.183   2.522   5.406  0.0744  0.2630 -0.5432
  395MOL0     C53208   1.200   2.427   5.310  0.3709 -0.3995 -0.3030
  395MOL0     C53209   1.282   2.332   5.362 -0.0790 -0.5846  0.7808
  395MOL0     C53210   1.325   2.212   5.284  1.3115 -0.6340  0.4264
  395MOL0     C53211   1.243   2.091   5.332 -0.1059 -0.6133  0.4883
  395MOL0     C53212   1.238   2.042   5.480 -0.1775 -0.2692 -0.5067
  395MOL0     C53213   1.360   1.947   5.502  0.5170  0.1078 -0.4285
  395MOL0     O53214   1.391   1.944   5.642  0.6432 -1.0914 -0.0320
  395MOL0     C53215   1.487   1.865   5.694 -0.1795 -0.1337 -0.4099
  395MOL0     C53216   1.502   1.857   5.834  0.7369  0.2355  0.5066
  395MOL0     C53217   1.583   1.764   5.896  1.1280  0.7710  0.0760
  395MOL0     C53218   1.562   1.751   6.049  1.2445  0.0132 -0.0599
  395MOL0     C53219   1.685   1.692   5.814  0.3424  0.4604  0.0267
  395MOL0     C53220   1.792   1.593   5.860 -0.1957 -0.4549 -0.5878
  395MOL0     O53221   1.824   1.615   5.992 -0.6349  0.1782  0.5124
  395MOL0     C53222   1.871   1.520   6.074 -0.9838  0.2321 -0.9009
  395MOL0     C53223   1.940   1.402   6.029 -0.5368  0.2807 -0.3805
  395MOL0     C53224   1.997   1.312   6.125 -0.2813 -0.1714  0.8579
  395MOL0     C53225   1.962   1.330   6.261  0.5674 -0.0268  0.6688
  395MOL0     O53226   1.975   1.232   6.357 -0.2850  0.4595  0.1699
  395MOL0     C53227   2.110   1.211   6.406  0.3366  0.4466  0.3979
  395MOL0     C53228   2.102   1.110   6.511  0.4279  0.4205 -0.4469
  395MOL0     C53229   2.235   1.031   6.538 -0.2349  0.6759 -0.4222
  395MOL0     C53230   2.351   1.117   6.566  0.0077  0.3402 -0.0594
  395MOL0     C53231   2.481   1.044   6.594 -0.8895  0.2540 -0.6090
  395MOL0     C53232   2.537   0.974   6.472 -0.0351  0.1433 -0.2522
  395MOL0     C53233   2.677   0.924   6.503  1.3796 -0.2146 -0.0939
  395MOL0     C53234   2.756   0.932   6.377 -0.4164  0.9488  0.2933
  395MOL0    Cl53235   2.918   0.897   6.421 -0.1727  0.4767  0.3703
  395MOL0     C53236   1.901   1.444   6.296 -0.2973  0.7270  0.0244
  395MOL0     C53237   1.849   1.539   6.212 -0.0605 -0.9389 -0.6046
  395MOL0     O53238   1.852   1.529   5.782 -0.8647  0.3788  0.0214
  395MOL0     C53239   1.673   1.715   5.672 -0.5935 -0.5131  0.9323
  395MOL0     C53240   1.573   1.792   5.619 -0.2400 -0.3098 -0.1880
  395MOL0     N53241   1.330   2.372   5.484  0.6845 -0.0074 -0.1004
  395MOL0     N53242   1.266   2.486   5.505  0.3939  0.1636 -0.9082
  395MOL0     C53243   1.561   3.277   5.944 -0.2303  0.8663 -0.0981
  395MOL0     C53244   1.636   3.337   6.055  0.7818  0.2138 -0.5644
  395MOL0     C53245   1.943   3.459   6.340 -1.0190  0.1929  0.3157
  395MOL0     C53246   1.953   3.396   6.466 -0.1475 -0.4626  0.4667
  395MOL0     C53247   2.015   3.458   6.574 -0.3425  0.1979 -0.0557
  395MOL0     C53248   2.076   3.580   6.559  0.8291 -0.6568 -0.1631
  395MOL0     O53249   2.149   3.643   6.654 -0.3744 -0.2141 -0.3353
  395MOL0     C53250   2.146   3.590   6.790  0.3191 -0.2990 -0.3934
  395MOL0     C53251   2.229   3.679   6.879 -1.9825  0.4828 -0.0758
  395MOL0     C53252   2.238   3.645   7.028  0.9021  0.0025 -0.1499
  395MOL0     C53253   2.293   3.762   7.109 -0.1345  1.2833 -1.1694
  395MOL0     C53254   2.203   3.871   7.116 -0.5821  0.1728 -0.9353
  395MOL0     C53255   2.125   3.962   7.111  0.4748  0.6829 -0.4581
  395MOL0     C53256   2.076   3.647   6.434  0.2053 -0.4658  1.4444
  395MOL0     C53257   2.006   3.584   6.324 -0.2458 -0.0930 -0.1975
  395MOL0     H53258   1.922   3.361   5.874 -0.1183  1.4938 -1.7424
  395MOL0     H53259   1.794   3.291   5.698  1.2112  1.8163  1.2577
  395MOL0     H53260   1.526   3.357   5.617 -4.2234 -0.4308 -1.1237
  395MOL0     H53261   1.611   3.203   5.548 -2.2431 -5.4799  0.2078
  395MOL0     H53262   1.313   3.212   5.599  0.8718 -0.7605  1.2219
  395MOL0     H53263   1.389   3.272   5.451 -2.3563 -1.0204 -0.3641
  395MOL0     H53264   1.467   3.041   5.400  2.5981  0.7799  1.6712
  395MOL0     H53265   1.445   2.992   5.568  1.3150  1.1756 -0.9845
  395MOL0     H53266   1.192   3.031   5.527  0.9637  1.4796 -0.3891
  395MOL0     H53267   1.228   3.056   5.353 -2.3749  0.4411  0.4522
  395MOL0     H53268   1.271   2.823   5.321 -0.2604 -0.5458 -0.5894
  395MOL0     H53269   1.256   2.786   5.499  2.1218  1.4444  0.1756
  395MOL0     H53270   1.004   2.853   5.469  1.3030  0.5680  0.1520
  395MOL0     H53271   1.051   2.905   5.311  2.0632 -1.0860 -0.8329
  395MOL0     H53272   0.929   2.695   5.304 -0.1648 -1.5351  0.7038
  395MOL0     H53273   1.091   2.673   5.236  1.8578  3.2344  0.0983
  395MOL0     H53274   0.978   2.511   5.421 -0.9249  1.8246 -0.1770
  395MOL0     H53275   1.055   2.624   5.532  1.1513  1.3915 -0.8855
  395MOL0     H53276   1.150   2.416   5.215  1.7761 -0.6470 -1.0243
  395MOL0     H53277   1.317   2.231   5.177  1.5773  0.3849  0.5757
  395MOL0     H53278   1.429   2.184   5.305  1.3533 -0.0486  1.0505
  395MOL0     H53279   1.260   2.002   5.272 -1.5332 -0.3841 -0.3099
  395MOL0     H53280   1.149   2.133   5.294  2.3037  1.2832 -4.0818
  395MOL0     H53281   1.142   1.996   5.505 -0.6415  1.4974  1.1635
  395MOL0     H53282   1.242   2.128   5.548 -1.9547 -1.0019  0.6043
  395MOL0     H53283   1.440   1.983   5.437 -0.7482  1.7051 -1.1701
  395MOL0     H53284   1.327   1.846   5.475 -3.4098  0.6742  1.5683
  395MOL0     H53285   1.451   1.931   5.896  0.5860  4.0314 -3.6611
  395MOL0     H53286   1.580   1.856   6.076 -2.2030  0.1424  2.4189
  395MOL0     H53287   1.458   1.723   6.068  1.2560 -0.9582 -1.3009
  395MOL0     H53288   1.625   1.693   6.117 -0.4650  0.9522  2.4819
  395MOL0     H53289   1.951   1.377   5.924 -1.1816  1.1874 -0.6753
  395MOL0     H53290   2.026   1.217   6.080  1.9090  1.1611 -0.6855
  395MOL0     H53291   2.165   1.166   6.323 -0.4578 -1.1549  0.6994
  395MOL0     H53292   2.162   1.302   6.439 -0.0634  0.7649  0.1646
  395MOL0     H53293   2.049   1.149   6.598 -1.3196  1.1453 -1.7849
  395MOL0     H53294   2.045   1.027   6.468  2.9085 -2.3110  1.1712
  395MOL0     H53295   2.254   0.969   6.450  1.7118 -1.5103  1.4024
  395MOL0     H53296   2.206   0.965   6.620  0.5194  0.7078 -0.1178
  395MOL0     H53297   2.372   1.179   6.478 -1.2008  0.0907 -0.5525
  395MOL0     H53298   2.312   1.174   6.651  3.1556 -0.7399  2.2709
  395MOL0     H53299   2.466   0.976   6.678  0.9645  2.3461  1.5537
  395MOL0     H53300   2.539   1.129   6.632 -0.6900 -0.3451  0.4754
  395MOL0     H53301   2.482   0.884   6.445  2.2747 -1.8043  1.0808
  395MOL0     H53302   2.541   1.036   6.382  0.4808 -0.0512 -0.3697
  395MOL0     H53303   2.676   0.837   6.570  0.1270 -1.8267 -2.0909
  395MOL0     H53304   2.715   1.007   6.564 -1.7622  1.1619  0.1833
  395MOL0     H53305   2.755   1.031   6.331  1.4283  0.7898 -0.1581
  395MOL0     H53306   2.726   0.861   6.300 -1.2499  2.7866 -1.1665
  395MOL0     H53307   1.883   1.461   6.402 -0.6569  1.9466 -0.2049
  395MOL0     H53308   1.804   1.631   6.247  1.2346  0.2688 -1.9478
  395MOL0     H53309   1.744   1.674   5.601 -2.1837  0.0525 -1.0616
  395MOL0     H53310   1.572   1.812   5.512 -2.1983  1.9133  0.1715
  395MOL0     H53311   1.458   3.246   5.965 -0.9539  1.9116 -1.8772
  395MOL0     H53312   1.580   3.346   6.147 -1.6161  0.2722 -1.9546
  395MOL0     H53313   1.919   3.294   6.483 -4.4021  0.8315  0.6533
  395MOL0     H53314   2.018   3.414   6.673 -0.4626 -3.0971 -1.3820
  395MOL0     H53315   2.044   3.588   6.831 -0.3835 -3.1238 -1.9712
  395MOL0     H53316   2.187   3.489   6.797 -1.3150 -0.9144  4.4357
  395MOL0     H53317   2.205   3.785   6.876  0.8109  1.1986 -0.0092
  395MOL0     H53318   2.325   3.672   6.826 -2.6369 -4.4446 -1.1054
  395MOL0     H53319   2.311   3.564   7.041  1.3618  0.1704 -1.5474
  395MOL0     H53320   2.139   3.610   7.060 -0.6486  1.2003 -3.2079
  395MOL0     H53321   2.381   3.796   7.052 -0.0676  1.5173 -0.9269
  395MOL0     H53322   2.321   3.747   7.213  2.2747  0.5056 -1.8513
  395MOL0     H53323   2.056   4.044   7.114 -3.9171 -2.6339 -0.9906
  395MOL0     H53324   2.121   3.744   6.416  0.7399 -0.8860  0.4018
  395MOL0     H53325   2.005   3.634   6.227 -1.7300  1.4314  0.5687
  396MOL0     O53326   8.325  10.595  10.689 -0.2913 -0.4052  1.0721
  396MOL0     C53327   8.245  10.509  10.723 -0.3520 -0.2333 -0.9886
  396MOL0     O53328   8.144  10.519  10.817  0.7222 -0.4595 -0.4770
  396MOL0     C53329   8.135  10.628  10.906 -0.6587  0.1332  0.4052
  396MOL0     C53330   8.170  10.602  11.039 -1.1414 -0.0395 -0.4130
  396MOL0     C53331   8.181  10.706  11.129  0.7527 -0.0906 -0.2514
  396MOL0     C53332   8.133  10.832  11.098 -0.8078  0.6505  0.4147
  396MOL0     O53333   8.112  10.923  11.198 -0.7436 -0.0902 -0.1858
  396MOL0     C53334   8.140  10.910  11.335 -0.6582 -0.1503 -0.4613
  396MOL0     C53335   8.081  11.031  11.407  0.0633  0.2835 -0.4763
  396MOL0     C53336   8.072  11.007  11.563 -0.8869  0.9236  0.0935
  396MOL0     C53337   8.172  10.897  11.620  0.0429  0.1930  0.5583
  396MOL0     C53338   8.152  10.895  11.765 -0.4264  0.4295 -0.6578
  396MOL0     C53339   8.225  10.795  11.852  0.0342 -0.5637 -1.0262
  396MOL0     C53340   8.215  10.830  12.002 -0.1639  0.1651  0.3116
  396MOL0     C53341   8.078  10.828  12.075 -0.0712  1.2870 -0.5946
  396MOL0     N53342   8.018  10.696  12.084 -0.1257 -0.8420 -0.3104
  396MOL0     C53343   8.015  10.611  12.194 -0.5042  0.2967  0.7811
  396MOL0     C53344   7.946  10.500  12.156 -1.0525  0.6477 -0.0957
  396MOL0     C53345   7.938  10.380  12.239 -0.4501 -0.9989  0.5984
  396MOL0     C53346   8.065  10.306  12.248 -0.4044 -0.2773 -1.0920
  396MOL0     C53347   8.117  10.236  12.120  1.2103 -0.7193 -0.6009
  396MOL0     C53348   8.164  10.099  12.165 -0.1417  1.2951 -0.1141
  396MOL0     O53349   8.219  10.038  12.051  0.2527  0.0084  0.1901
  396MOL0     C53350   8.277   9.915  12.066 -0.1115  0.4090 -0.3540
  396MOL0     C53351   8.281   9.855  12.193 -0.5089  0.2042 -0.2882
  396MOL0     C53352   8.297   9.713  12.209  0.2274 -0.1001  1.0628
  396MOL0     C53353   8.295   9.656  12.355 -0.5368  0.3602  1.0092
  396MOL0     C53354   8.324   9.637  12.087  0.6299  0.3594 -1.2359
  396MOL0     C53355   8.331   9.482  12.085 -0.7050 -0.3594  0.5096
  396MOL0     O53356   8.321   9.414  12.206  0.6646  0.3000  0.3688
  396MOL0     C53357   8.321   9.276  12.214  0.2168  0.1341 -0.8477
  396MOL0     C53358   8.374   9.221  12.324 -0.1695 -0.0785  0.8188
  396MOL0     C53359   8.364   9.090  12.359  0.8384  0.2658 -0.0993
  396MOL0     C53360   8.310   9.000  12.268  0.2018  0.3848  0.4689
  396MOL0     O53361   8.297   8.863  12.290 -0.1946 -0.0440 -0.1388
  396MOL0     C53362   8.260   8.817  12.428 -0.4016  0.1346 -0.1438
  396MOL0     C53363   8.133   8.876  12.492 -0.2393 -0.6053  0.6153
  396MOL0     C53364   8.005   8.848  12.425 -0.6680 -0.8840 -0.2845
  396MOL0     C53365   7.892   8.932  12.497  0.4366  0.3939  0.1144
  396MOL0     C53366   7.835   8.875  12.629  0.3130  0.4607 -0.6586
  396MOL0     C53367   7.767   8.987  12.711  0.3515 -1.3997  0.2803
  396MOL0     C53368   7.620   9.012  12.684 -0.7191  0.0953  0.6530
  396MOL0     C53369   7.585   9.075  12.546  0.5073  0.2325  0.8745
  396MOL0    Cl53370   7.664   9.237  12.531  0.5224 -0.6821 -0.0111
  396MOL0     C53371   8.263   9.049  12.153  1.1519  0.9712 -0.0828
  396MOL0     C53372   8.260   9.183  12.118 -0.3883 -0.3302 -0.6720
  396MOL0     O53373   8.374   9.431  11.981  0.2998  0.2008 -0.3668
  396MOL0     C53374   8.327   9.696  11.967 -0.3484  0.3355  0.6969
  396MOL0     C53375   8.298   9.830  11.956 -0.5104 -0.7300  0.2393
  396MOL0     N53376   7.908  10.506  12.022  0.5737  0.2468 -0.9052
  396MOL0     N53377   7.949  10.629  11.982 -0.3717  0.4415  0.6111
  396MOL0     C53378   8.102  10.859  10.961  0.7005 -0.2187 -0.4972
  396MOL0     C53379   8.106  10.757  10.867  0.0954 -0.2863 -0.1316
  396MOL0     C53380   8.234  10.380  10.652  1.0297 -0.3792  0.3344
  396MOL0     C53381   8.132  10.287  10.681  0.1990  0.3206 -0.2693
  396MOL0     C53382   8.118  10.162  10.611 -0.0014 -0.8762 -0.0160
  396MOL0     C53383   8.192  10.152  10.489  1.0487 -0.1373 -0.5532
  396MOL0     O53384   8.177  10.042  10.408 -0.8200  0.1886  0.9037
  396MOL0     C53385   8.125   9.918  10.452 -0.4808  0.0387  0.1234
  396MOL0     C53386   7.971   9.932  10.438 -0.0880  0.9923  0.4748
  396MOL0     C53387   7.891   9.818  10.496  0.7141  0.4660  0.3860
  396MOL0     C53388   7.737   9.824  10.489  0.4049  0.2857  0.6936
  396MOL0     C53389   7.691   9.721  10.584 -0.5762 -0.3132 -0.2015
  396MOL0     C53390   7.645   9.630  10.647  0.1005  0.1540  0.8249
  396MOL0     C53391   8.292  10.245  10.459  0.2318 -0.7244 -0.0029
  396MOL0     C53392   8.326  10.352  10.549 -0.3019 -0.3206 -0.0220
  396MOL0     H53393   8.211  10.507  11.071 -2.8913 -1.0771 -1.1289
  396MOL0     H53394   8.222  10.683  11.227  0.0675  1.3215  0.4023
  396MOL0     H53395   8.089  10.822  11.377 -3.0160  1.5615  0.5126
  396MOL0     H53396   8.248  10.900  11.345 -0.7032 -4.1730 -1.9820
  396MOL0     H53397   8.136  11.125  11.399 -3.9892  2.9080 -0.2614
  396MOL0     H53398   7.983  11.040  11.360 -0.3895 -4.8910 -1.2123
  396MOL0     H53399   8.062  11.092  11.630 -4.2220  0.5087  0.2713
  396MOL0     H53400   7.971  10.964  11.562  0.2438 -1.9276 -0.5647
  396MOL0     H53401   8.146  10.802  11.571  0.5372 -0.0524  0.7640
  396MOL0     H53402   8.278  10.910  11.594 -0.1109  0.0364 -0.1744
  396MOL0     H53403   8.189  10.993  11.797 -0.3350 -0.1538  1.1138
  396MOL0     H53404   8.044  10.888  11.783 -0.2931  1.9451  1.0582
  396MOL0     H53405   8.185  10.693  11.843 -1.2010 -0.7287  3.6111
  396MOL0     H53406   8.331  10.796  11.826  0.6817  0.2741  1.3853
  396MOL0     H53407   8.275  10.759  12.060  2.5922  1.4846 -0.7802
  396MOL0     H53408   8.273  10.918  12.030 -0.2662 -0.4295  2.6651
  396MOL0     H53409   8.011  10.900  12.028 -2.0259 -0.0375  0.0758
  396MOL0     H53410   8.085  10.855  12.181 -0.5824  0.6047 -0.3813
  396MOL0     H53411   8.053  10.629  12.294  3.1125  0.0812 -0.4398
  396MOL0     H53412   7.912  10.408  12.342 -0.5967 -0.1462  0.3286
  396MOL0     H53413   7.856  10.322  12.195 -0.0142 -1.4430  0.3568
  396MOL0     H53414   8.043  10.224  12.316  0.9319  0.2177 -0.0090
  396MOL0     H53415   8.142  10.362  12.302 -0.5194 -2.1818  1.2089
  396MOL0     H53416   8.200  10.289  12.072  1.6428  0.4475  1.3373
  396MOL0     H53417   8.029  10.228  12.055  0.7932  1.6777 -0.4069
  396MOL0     H53418   8.081  10.045  12.211  1.2299  0.1527  1.1035
  396MOL0     H53419   8.243  10.112  12.239 -1.5129  2.4528  1.2097
  396MOL0     H53420   8.268   9.913  12.284  2.8611  1.1520 -0.2864
  396MOL0     H53421   8.371   9.584  12.388 -0.1798  2.0823  4.4084
  396MOL0     H53422   8.289   9.741  12.423  5.6107  2.7685 -0.8141
  396MOL0     H53423   8.210   9.587  12.365  0.6070 -1.3078 -0.2201
  396MOL0     H53424   8.417   9.291  12.394  0.7768 -0.6722  0.8446
  396MOL0     H53425   8.404   9.048  12.451 -0.2480 -0.6572 -0.0198
  396MOL0     H53426   8.249   8.709  12.440 -0.3466  0.3034  1.7049
  396MOL0     H53427   8.335   8.841  12.504 -1.4275  0.4176  0.7921
  396MOL0     H53428   8.127   8.846  12.596  2.8782 -2.8450  0.2743
  396MOL0     H53429   8.156   8.983  12.483 -1.3326 -0.2895  1.3493
  396MOL0     H53430   7.976   8.743  12.431 -0.2662 -0.9355  1.1462
  396MOL0     H53431   8.018   8.875  12.320  1.8720  0.0483  0.2102
  396MOL0     H53432   7.918   9.038  12.505  2.9113  0.0358 -1.7905
  396MOL0     H53433   7.820   8.932  12.415  0.4912 -3.3378 -0.1110
  396MOL0     H53434   7.915   8.826  12.685  2.1373  0.5402 -3.0578
  396MOL0     H53435   7.761   8.799  12.601  0.2549  0.1330  0.3262
  396MOL0     H53436   7.778   8.973  12.819 -0.7020  1.8392  0.9200
  396MOL0     H53437   7.816   9.085  12.712 -2.0819  0.0217 -2.6680
  396MOL0     H53438   7.586   9.078  12.764  0.2887  2.0710 -0.4721
  396MOL0     H53439   7.567   8.918  12.701  0.3071 -0.2673  2.1387
  396MOL0     H53440   7.477   9.089  12.534  0.6687  0.2095 -0.8243
  396MOL0     H53441   7.620   9.005  12.469 -0.4523 -0.5913  1.1637
  396MOL0     H53442   8.210   8.981  12.087 -1.3249  1.7774  0.9499
  396MOL0     H53443   8.201   9.213  12.032 -0.4750  0.1323 -0.4529
  396MOL0     H53444   8.360   9.642  11.879 -2.8703 -2.9544  1.5449
  396MOL0     H53445   8.284   9.878  11.860  1.0135  0.8593  0.7448
  396MOL0     H53446   8.051  10.952  10.940 -1.3477 -1.7018 -2.5966
  396MOL0     H53447   8.084  10.770  10.762  0.1854 -2.1032 -0.4035
  396MOL0     H53448   8.067  10.305  10.767  0.0518  1.1358 -0.5429
  396MOL0     H53449   8.043  10.099  10.658 -3.2935  4.1046  2.2666
  396MOL0     H53450   8.162   9.833  10.395  1.5781  2.4675 -2.4720
  396MOL0     H53451   8.145   9.894  10.557 -0.9484  3.3586  1.1033
  396MOL0     H53452   7.949   9.951  10.333  0.6760  1.1307  0.3336
  396MOL0     H53453   7.948  10.026  10.490 -3.7207  1.1102 -1.0463
  396MOL0     H53454   7.929   9.814  10.599  1.5777  2.6125  0.1996
  396MOL0     H53455   7.932   9.728  10.449  2.2637  0.7578  1.1104
  396MOL0     H53456   7.707   9.801  10.386  0.1162  0.5006  0.7260
  396MOL0     H53457   7.691   9.921  10.511 -0.7648  0.1061 -0.7581
  396MOL0     H53458   7.603   9.546  10.700  0.0348 -0.1435  0.3159
  396MOL0     H53459   8.359  10.219  10.378 -2.1133 -0.2489 -2.2156
  396MOL0     H53460   8.413  10.416  10.540 -0.8017  0.2851 -0.6587
  397MOL0     O53461   9.191   2.534   9.423  0.4176 -0.5896  0.7398
  397MOL0     C53462   9.154   2.647   9.465  0.6448 -0.9374 -0.1954
  397MOL0     O53463   9.239   2.742   9.493  1.1501  0.1087  0.8779
  397MOL0     C53464   9.371   2.742   9.449 -0.5548 -0.6184  0.7189
  397MOL0     C53465   9.400   2.727   9.314  0.0876  1.0149 -0.0627
  397MOL0     C53466   9.528   2.714   9.275 -0.0248 -0.8695 -0.4352
  397MOL0     C53467   9.637   2.740   9.362  0.2370 -0.0592 -0.3753
  397MOL0     O53468   9.768   2.754   9.317  0.3600  0.0264 -0.3450
  397MOL0     C53469   9.797   2.695   9.190  0.4357 -0.5382  0.8624
  397MOL0     C53470   9.943   2.665   9.193 -0.6093 -0.4768  0.2961
  397MOL0     C53471  10.027   2.788   9.150 -1.7456 -1.0525 -0.3344
  397MOL0     C53472  10.185   2.751   9.132 -0.4558 -0.7340  0.3705
  397MOL0     C53473  10.275   2.877   9.113  0.3092  0.0959 -0.4564
  397MOL0     C53474  10.422   2.822   9.108  0.5612  1.3132  0.0348
  397MOL0     C53475  10.445   2.746   8.984  0.2133 -0.2564 -0.9476
  397MOL0     C53476  10.593   2.715   8.971  0.3967 -0.2083  0.2166
  397MOL0     N53477  10.646   2.617   9.071 -0.9989 -0.4672 -0.0188
  397MOL0     C53478  10.680   2.660   9.201  0.2664 -0.1732 -0.0870
  397MOL0     C53479  10.737   2.558   9.262 -0.1655 -0.2627  0.7837
  397MOL0     C53480  10.771   2.543   9.412 -0.4477 -0.4396  0.5995
  397MOL0     C53481  10.841   2.415   9.448 -0.5359  0.1697  0.9849
  397MOL0     C53482  10.890   2.407   9.602  0.0893 -0.0359 -0.2231
  397MOL0     C53483  10.977   2.284   9.637 -0.1979  0.2993 -0.5951
  397MOL0     O53484  11.009   2.311   9.775 -0.5540  0.1978 -0.4522
  397MOL0     C53485  11.113   2.228   9.828 -0.4948  0.2573  0.4424
  397MOL0     C53486  11.142   2.240   9.962 -0.1614 -0.7258  0.1701
  397MOL0     C53487  11.242   2.164  10.027 -0.3334 -0.6910 -0.1145
  397MOL0     C53488  11.246   2.178  10.184  0.3281 -0.1546 -0.4428
  397MOL0     C53489  11.313   2.073   9.946  0.0092 -0.5368  0.0234
  397MOL0     C53490  11.428   2.006  10.004  0.9084  0.1492  0.9912
  397MOL0     O53491  11.546   2.036   9.937 -0.4710  0.9008 -0.5382
  397MOL0     C53492  11.675   1.998   9.957 -0.0321  0.6102  0.7744
  397MOL0     C53493  11.719   1.933  10.067 -0.4049 -0.1605 -0.4133
  397MOL0     C53494  11.849   1.884  10.090  0.2149 -0.5346 -0.1622
  397MOL0     C53495  11.937   1.898   9.984 -0.0982 -0.1476  0.0385
  397MOL0     O53496  12.055   1.834  10.007  0.5815  0.5552 -0.6001
  397MOL0     C53497  12.125   1.813   9.889  0.7098  0.1873 -0.3574
  397MOL0     C53498  12.265   1.745   9.900  0.3751 -0.6642 -0.6393
  397MOL0     C53499  12.366   1.849   9.964  0.4586 -0.5987 -0.2772
  397MOL0     C53500  12.422   1.937   9.858 -0.0097 -0.1119 -0.1466
  397MOL0     C53501  12.477   2.063   9.929 -0.1518 -0.3140 -0.7531
  397MOL0     C53502  12.515   2.161   9.823 -0.8221 -0.2705 -0.3308
  397MOL0     C53503  12.580   2.285   9.884 -0.3103 -0.7880  0.4919
  397MOL0     C53504  12.588   2.390   9.773 -1.0066 -1.0251  0.3794
  397MOL0    Cl53505  12.647   2.551   9.845 -0.3622  0.4213 -0.0969
  397MOL0     C53506  11.893   1.988   9.876  0.6648  0.9249 -0.2868
  397MOL0     C53507  11.762   2.035   9.861  0.2739  0.0001 -0.3383
  397MOL0     O53508  11.404   1.936  10.103  0.4300  0.2437 -0.6866
  397MOL0     C53509  11.296   2.071   9.805  0.8874  0.2799 -0.2259
  397MOL0     C53510  11.198   2.148   9.747  0.1342 -0.7289  0.0129
  397MOL0     N53511  10.759   2.459   9.167  0.4609 -0.0077  0.2103
  397MOL0     N53512  10.702   2.490   9.061  0.4251 -0.0298 -0.7504
  397MOL0     C53513   9.606   2.753   9.497 -0.1425  0.2298  0.1067
  397MOL0     C53514   9.472   2.758   9.548  0.7660  0.0687  0.4292
  397MOL0     C53515   9.010   2.686   9.491  0.8341 -0.3890  0.6339
  397MOL0     C53516   8.911   2.612   9.432 -0.1033 -0.5244  0.7186
  397MOL0     C53517   8.779   2.639   9.459 -0.2227  0.8681  0.4728
  397MOL0     C53518   8.733   2.740   9.546  0.0935 -0.4906  1.1644
  397MOL0     O53519   8.599   2.761   9.537  0.6068 -0.5750 -0.6313
  397MOL0     C53520   8.552   2.815   9.407 -0.1521 -0.0288  0.3086
  397MOL0     C53521   8.443   2.924   9.406 -0.1204  0.2597  0.0635
  397MOL0     C53522   8.487   3.065   9.449  0.5085  1.4130 -0.1362
  397MOL0     C53523   8.605   3.122   9.370 -0.0022  0.3497 -0.6463
  397MOL0     C53524   8.559   3.151   9.229  0.1441 -0.6607 -0.4677
  397MOL0     C53525   8.526   3.164   9.112  0.0435  0.0531 -0.3903
  397MOL0     C53526   8.836   2.811   9.610  0.0514 -0.4906  0.4144
  397MOL0     C53527   8.978   2.784   9.584  1.1990  0.1380 -0.3895
  397MOL0     H53528   9.319   2.732   9.242  0.4147  0.9242 -0.4327
  397MOL0     H53529   9.543   2.689   9.171  0.9372 -2.9621  0.1454
  397MOL0     H53530   9.740   2.605   9.165  1.4902 -0.8370 -0.5483
  397MOL0     H53531   9.767   2.768   9.114 -2.2734 -1.1678  1.2032
  397MOL0     H53532   9.975   2.642   9.295 -0.5572 -0.4507  0.2860
  397MOL0     H53533   9.971   2.583   9.126  3.9078  0.1895  1.0879
  397MOL0     H53534   9.990   2.840   9.062  0.8722 -0.6868 -1.3173
  397MOL0     H53535  10.011   2.863   9.228 -1.4600  1.3179 -2.4246
  397MOL0     H53536  10.232   2.703   9.218  1.2076 -0.0425 -0.1186
  397MOL0     H53537  10.197   2.688   9.043  1.3918  0.7807 -0.5283
  397MOL0     H53538  10.244   2.932   9.023 -1.6739  0.8929  0.6433
  397MOL0     H53539  10.270   2.942   9.200 -1.4966 -2.3608  1.4223
  397MOL0     H53540  10.498   2.901   9.106  1.3589  0.6944 -4.0297
  397MOL0     H53541  10.437   2.766   9.200 -0.5683  0.0907 -0.4962
  397MOL0     H53542  10.398   2.647   8.982  2.8984 -1.6673  0.1305
  397MOL0     H53543  10.417   2.804   8.895  1.1153  0.1274 -0.9937
  397MOL0     H53544  10.645   2.810   8.961  0.6465 -0.5944 -3.9629
  397MOL0     H53545  10.619   2.663   8.878  0.3223 -0.8635  0.5503
  397MOL0     H53546  10.671   2.764   9.231 -0.0251 -0.5240  1.0870
  397MOL0     H53547  10.826   2.633   9.440  5.1851 -2.7307 -1.6308
  397MOL0     H53548  10.675   2.551   9.464 -0.3663  0.1963  0.6601
  397MOL0     H53549  10.936   2.428   9.394 -0.0557 -0.1921  1.7328
  397MOL0     H53550  10.784   2.324   9.426 -0.3107  0.1000  0.6846
  397MOL0     H53551  10.800   2.396   9.663 -1.2311  3.3045 -1.3412
  397MOL0     H53552  10.945   2.497   9.630  4.6651 -1.6857 -2.9456
  397MOL0     H53553  11.063   2.279   9.571  1.1676 -2.7615  1.1801
  397MOL0     H53554  10.916   2.193   9.633  1.0920 -0.6130 -0.1186
  397MOL0     H53555  11.080   2.307  10.021 -2.8268 -0.1023 -3.0770
  397MOL0     H53556  11.348   2.176  10.221  0.9505  0.9750 -1.9628
  397MOL0     H53557  11.197   2.269  10.220  0.9491  1.2301 -2.8746
  397MOL0     H53558  11.204   2.093  10.238  0.4379  0.3647  0.4730
  397MOL0     H53559  11.646   1.919  10.147  2.3779  2.8440  2.9874
  397MOL0     H53560  11.885   1.821  10.170  1.6800  1.0515  0.4694
  397MOL0     H53561  12.060   1.755   9.823 -0.0319  0.4116  0.1579
  397MOL0     H53562  12.153   1.905   9.836  1.4278  2.3866  3.4296
  397MOL0     H53563  12.258   1.643   9.941 -0.7364 -0.1204  0.5907
  397MOL0     H53564  12.295   1.721   9.798 -2.4848 -1.4636 -1.3801
  397MOL0     H53565  12.448   1.790  10.005 -0.1912 -2.6923 -1.7939
  397MOL0     H53566  12.325   1.907  10.047  1.7954  1.7003 -1.1404
  397MOL0     H53567  12.502   1.876   9.814  0.7824 -0.3327  1.4998
  397MOL0     H53568  12.344   1.961   9.785  0.6457 -0.8361 -1.1127
  397MOL0     H53569  12.561   2.018   9.982 -0.4109 -1.1276 -1.0146
  397MOL0     H53570  12.417   2.118  10.002  0.1833 -3.8798  2.5315
  397MOL0     H53571  12.587   2.120   9.751  0.0605 -1.8855  1.3878
  397MOL0     H53572  12.431   2.205   9.769 -0.4278  1.1100  0.1455
  397MOL0     H53573  12.677   2.262   9.928  0.1891 -0.7577 -0.5524
  397MOL0     H53574  12.504   2.319   9.955 -2.4931 -1.2962 -1.4564
  397MOL0     H53575  12.490   2.403   9.727  0.1946  3.1009 -1.5309
  397MOL0     H53576  12.661   2.361   9.696 -0.8219 -2.2812  0.9940
  397MOL0     H53577  11.954   2.009   9.789 -1.5505  1.5175 -1.7877
  397MOL0     H53578  11.733   2.102   9.780  0.8275  2.2510  1.2232
  397MOL0     H53579  11.371   2.019   9.746  1.6425  0.3718  0.6197
  397MOL0     H53580  11.224   2.181   9.647  2.5944  0.3307  0.9326
  397MOL0     H53581   9.685   2.772   9.568  0.2398  0.2448 -0.3185
  397MOL0     H53582   9.443   2.764   9.653  1.5406  3.6132  0.5610
  397MOL0     H53583   8.937   2.539   9.355 -3.2507 -3.8847  2.5028
  397MOL0     H53584   8.704   2.577   9.410 -0.0073 -1.3395  2.7532
  397MOL0     H53585   8.640   2.839   9.347  1.8149 -1.3276  2.4997
  397MOL0     H53586   8.508   2.732   9.350  2.0282 -1.2639  0.3170
  397MOL0     H53587   8.354   2.893   9.462 -1.4385  1.9922 -0.9672
  397MOL0     H53588   8.404   2.935   9.304  0.2931 -0.1414 -0.1367
  397MOL0     H53589   8.521   3.068   9.553  3.1748  0.9340 -0.9231
  397MOL0     H53590   8.388   3.107   9.428 -1.3483 -3.4223 -2.5654
  397MOL0     H53591   8.686   3.048   9.372  0.5650  0.9735 -0.3034
  397MOL0     H53592   8.644   3.209   9.424  2.1635 -1.6773  1.3365
  397MOL0     H53593   8.492   3.178   9.011  2.4522  0.0939 -1.2410
  397MOL0     H53594   8.820   2.897   9.675  2.9892 -0.3552  1.0690
  397MOL0     H53595   9.049   2.849   9.633 -1.2655  2.5581  0.1991
  398MOL0     O53596   3.884   3.323   0.359 -0.4657  0.7650 -0.7229
  398MOL0     C53597   3.877   3.431   0.309 -0.6370  0.1309 -0.5006
  398MOL0     O53598   3.981   3.511   0.284  0.0889  0.0733  0.3762
  398MOL0     C53599   4.106   3.500   0.344  0.1570  0.1135  0.8412
  398MOL0     C53600   4.130   3.434   0.460 -0.2795  0.6393 -0.9517
  398MOL0     C53601   4.266   3.424   0.510  0.0997  0.7230 -0.6976
  398MOL0     C53602   4.370   3.500   0.453  0.4501 -0.2514 -0.1158
  398MOL0     O53603   4.486   3.491   0.517 -0.0714  0.0958  1.2415
  398MOL0     C53604   4.595   3.544   0.445 -0.4950 -0.9720  1.0884
  398MOL0     C53605   4.730   3.519   0.517  0.7330 -0.3988 -0.1407
  398MOL0     C53606   4.742   3.580   0.653  0.2751  0.5891 -0.3811
  398MOL0     C53607   4.891   3.582   0.695 -0.4382  0.3480  0.0414
  398MOL0     C53608   4.921   3.556   0.840  0.0861 -0.4197  0.0132
  398MOL0     C53609   5.080   3.573   0.875 -1.2526  0.2441  0.0755
  398MOL0     C53610   5.150   3.709   0.835 -0.0265 -0.2868  0.5470
  398MOL0     C53611   5.301   3.732   0.875 -0.0993 -0.1221  0.7481
  398MOL0     N53612   5.341   3.705   1.021  1.1241 -0.6637 -0.5966
  398MOL0     C53613   5.284   3.764   1.136 -0.6534 -1.4191  0.6480
  398MOL0     C53614   5.350   3.709   1.243 -0.9087 -0.1911  0.1430
  398MOL0     C53615   5.323   3.721   1.394 -0.1913 -0.1942 -0.2572
  398MOL0     C53616   5.233   3.608   1.444 -0.7656  0.7751  0.3481
  398MOL0     C53617   5.095   3.631   1.372 -0.4289 -0.4882  0.0292
  398MOL0     C53618   4.994   3.538   1.428  0.3535 -0.0968 -0.3222
  398MOL0     O53619   4.936   3.437   1.352  0.0809  0.0341  0.6959
  398MOL0     C53620   4.839   3.472   1.257 -0.2365 -0.3191 -0.7647
  398MOL0     C53621   4.792   3.379   1.166 -0.4017 -0.4866  0.6789
  398MOL0     C53622   4.692   3.403   1.074  1.2903  0.0276  0.1308
  398MOL0     C53623   4.659   3.296   0.972 -0.2264  0.6824  0.0208
  398MOL0     C53624   4.627   3.529   1.075 -0.0832  0.1176 -0.1790
  398MOL0     C53625   4.511   3.570   0.995  0.1072  0.3266 -0.6494
  398MOL0     O53626   4.426   3.462   0.967 -0.5433  0.1868  0.6013
  398MOL0     C53627   4.307   3.482   0.901 -0.7761  1.1351  0.8347
  398MOL0     C53628   4.221   3.376   0.916 -0.3962 -0.1321  0.2100
  398MOL0     C53629   4.090   3.401   0.874 -0.9905  0.0019  0.5469
  398MOL0     C53630   4.044   3.514   0.799  1.0201 -0.1042  0.3309
  398MOL0     O53631   3.916   3.530   0.743 -0.3613 -0.1217 -0.0202
  398MOL0     C53632   3.811   3.444   0.787  0.1476  0.6012  0.3307
  398MOL0     C53633   3.693   3.467   0.688  0.8696  0.4796 -0.0844
  398MOL0     C53634   3.617   3.601   0.726 -0.2925  0.7509 -0.0211
  398MOL0     C53635   3.528   3.648   0.604  0.0372 -0.0999 -0.3229
  398MOL0     C53636   3.451   3.783   0.633  0.3371  0.6863 -0.1764
  398MOL0     C53637   3.334   3.755   0.739 -0.0691 -0.5800  0.0851
  398MOL0     C53638   3.233   3.872   0.769  0.3038 -0.8092 -1.1419
  398MOL0     C53639   3.298   3.996   0.819  0.1638  0.5421 -0.2900
  398MOL0    Cl53640   3.380   3.949   0.975 -0.0921 -0.4256 -0.0943
  398MOL0     C53641   4.129   3.615   0.783 -0.9530  0.0388  0.0876
  398MOL0     C53642   4.264   3.597   0.829 -0.1175 -0.0294  0.0131
  398MOL0     O53643   4.480   3.690   0.994 -1.0539  0.0865  0.4947
  398MOL0     C53644   4.680   3.620   1.172  0.4318 -0.8889 -0.2464
  398MOL0     C53645   4.778   3.591   1.256 -0.9761 -0.8055  0.1192
  398MOL0     N53646   5.447   3.621   1.191  0.0531 -0.0431  0.0539
  398MOL0     N53647   5.438   3.620   1.063 -0.6635 -1.2390  1.2702
  398MOL0     C53648   4.342   3.566   0.338  0.5804 -0.1245 -0.3606
  398MOL0     C53649   4.219   3.559   0.275  0.0614  0.4657  0.6309
  398MOL0     C53650   3.740   3.491   0.285  0.1524 -0.4379 -0.5773
  398MOL0     C53651   3.726   3.618   0.214  0.6194  0.0786 -0.3432
  398MOL0     C53652   3.595   3.667   0.195  0.3714 -0.0599 -0.5204
  398MOL0     C53653   3.478   3.595   0.224  0.0222  0.0298 -0.3257
  398MOL0     O53654   3.345   3.628   0.202 -0.8219  1.1740 -0.2661
  398MOL0     C53655   3.321   3.754   0.154 -0.6745  0.4468  0.0337
  398MOL0     C53656   3.339   3.875   0.240  0.9508 -0.1243  1.6382
  398MOL0     C53657   3.199   3.928   0.280 -0.9625 -0.3761  0.0985
  398MOL0     C53658   3.196   3.997   0.422  0.5345  0.1067  0.8845
  398MOL0     C53659   3.249   4.133   0.419  0.3721  0.7476  0.0753
  398MOL0     C53660   3.284   4.242   0.414  0.7312  0.5559  0.4903
  398MOL0     C53661   3.500   3.472   0.291  0.9872  0.2733  0.0083
  398MOL0     C53662   3.621   3.418   0.322  0.6696  0.1625  0.2504
  398MOL0     H53663   4.053   3.389   0.522 -0.9531  2.6943 -0.2313
  398MOL0     H53664   4.292   3.382   0.607  2.1913 -0.4778 -1.6979
  398MOL0     H53665   4.598   3.489   0.351 -0.0810  0.8122  0.0086
  398MOL0     H53666   4.580   3.650   0.423 -0.5616 -1.0641  0.6844
  398MOL0     H53667   4.745   3.411   0.523  0.7973 -0.4429 -0.9208
  398MOL0     H53668   4.809   3.562   0.455  0.8756  0.6742  0.7526
  398MOL0     H53669   4.681   3.670   0.670 -3.1182 -1.9039  1.9959
  398MOL0     H53670   4.697   3.498   0.709  1.8814 -1.7564 -2.3494
  398MOL0     H53671   4.946   3.509   0.635  2.4481  3.2073 -1.0785
  398MOL0     H53672   4.933   3.672   0.650  0.3819 -1.6537 -3.6158
  398MOL0     H53673   4.850   3.619   0.895 -0.7048 -0.2419 -1.1880
  398MOL0     H53674   4.880   3.460   0.875 -1.3195 -0.3377 -1.3021
  398MOL0     H53675   5.089   3.557   0.983  0.3400 -0.6489 -0.1588
  398MOL0     H53676   5.135   3.495   0.822  1.5217  1.3217  1.1708
  398MOL0     H53677   5.151   3.708   0.726  0.3271 -2.1832  0.5302
  398MOL0     H53678   5.094   3.796   0.870  1.5600  0.0875  2.2901
  398MOL0     H53679   5.326   3.839   0.870 -2.9760  0.5980  0.3830
  398MOL0     H53680   5.365   3.677   0.807 -2.1789 -2.0978  0.2944
  398MOL0     H53681   5.210   3.844   1.140  1.4496  0.6339  1.0768
  398MOL0     H53682   5.417   3.724   1.450 -0.1317 -0.3092 -0.3509
  398MOL0     H53683   5.265   3.811   1.413 -0.3542 -0.2279 -0.5952
  398MOL0     H53684   5.227   3.613   1.553  1.7020 -2.3057  0.7583
  398MOL0     H53685   5.275   3.512   1.412 -0.8129  1.7005 -2.8296
  398MOL0     H53686   5.107   3.598   1.268 -0.5842  2.4616 -1.0153
  398MOL0     H53687   5.054   3.732   1.378 -0.6276 -0.5856  0.3173
  398MOL0     H53688   4.916   3.605   1.467 -0.3284 -2.0814  2.0209
  398MOL0     H53689   5.035   3.476   1.508  0.4134 -1.0146 -1.0499
  398MOL0     H53690   4.827   3.277   1.176  0.6984 -0.4008 -1.7226
  398MOL0     H53691   4.589   3.323   0.893  1.3772  1.9503 -1.0213
  398MOL0     H53692   4.740   3.261   0.907 -2.6559 -0.9889 -2.3037
  398MOL0     H53693   4.626   3.207   1.027 -1.9106  0.9978 -0.4246
  398MOL0     H53694   4.274   3.285   0.943 -0.3345  0.3192  1.6890
  398MOL0     H53695   4.032   3.311   0.888 -0.7492 -0.5049 -1.4345
  398MOL0     H53696   3.841   3.341   0.762  1.4085  0.1949  3.1092
  398MOL0     H53697   3.774   3.454   0.889 -0.5467  0.1280  0.1364
  398MOL0     H53698   3.740   3.467   0.589  0.7632 -0.9041 -0.1577
  398MOL0     H53699   3.615   3.391   0.689 -2.9610  4.0850 -0.2823
  398MOL0     H53700   3.695   3.673   0.755 -2.6919  2.3087  3.0620
  398MOL0     H53701   3.559   3.580   0.816 -0.3246 -2.1620 -0.6351
  398MOL0     H53702   3.584   3.664   0.511 -0.9103 -2.1711 -1.3079
  398MOL0     H53703   3.464   3.565   0.572 -2.2647  1.7874 -0.9620
  398MOL0     H53704   3.406   3.822   0.541  0.7898  1.9169  0.1077
  398MOL0     H53705   3.521   3.851   0.682  1.7124 -1.0642  0.3898
  398MOL0     H53706   3.263   3.684   0.695 -2.7300  2.0449 -0.2069
  398MOL0     H53707   3.376   3.728   0.836  1.3500  1.2080  0.0136
  398MOL0     H53708   3.167   3.849   0.853 -0.3734 -1.2064 -1.7760
  398MOL0     H53709   3.168   3.891   0.683 -3.2989 -0.9506  1.3413
  398MOL0     H53710   3.226   4.077   0.826 -1.4069 -0.9489  3.4321
  398MOL0     H53711   3.381   4.030   0.756  2.5167  1.0665  2.8837
  398MOL0     H53712   4.084   3.694   0.725 -0.4475 -0.8901 -1.6526
  398MOL0     H53713   4.329   3.682   0.809  1.2617 -1.1755 -0.4840
  398MOL0     H53714   4.634   3.719   1.178 -0.1736 -1.1391 -0.6692
  398MOL0     H53715   4.810   3.668   1.325  1.3631 -2.3040  0.8393
  398MOL0     H53716   4.421   3.610   0.277  1.0441 -1.5258 -0.7914
  398MOL0     H53717   4.200   3.609   0.180  1.9672 -1.6780 -0.9997
  398MOL0     H53718   3.816   3.668   0.181  0.9239  0.0762  0.4464
  398MOL0     H53719   3.594   3.758   0.136 -2.6500 -0.0146 -0.5200
  398MOL0     H53720   3.404   3.760   0.084 -0.8462 -2.2672 -0.4997
  398MOL0     H53721   3.230   3.764   0.095 -0.5965  1.2323  0.0330
  398MOL0     H53722   3.387   3.952   0.180 -0.5509  0.0800  0.6488
  398MOL0     H53723   3.408   3.846   0.320  1.8215 -0.2728  0.8605
  398MOL0     H53724   3.138   3.838   0.288 -2.1192  0.2982 -0.8361
  398MOL0     H53725   3.154   3.989   0.201 -0.4716  1.3392  1.1124
  398MOL0     H53726   3.250   3.946   0.503 -0.9811  2.0220  3.2240
  398MOL0     H53727   3.095   3.994   0.462  0.7167 -0.5338  1.3242
  398MOL0     H53728   3.327   4.340   0.406  0.7969  0.6412  1.7809
  398MOL0     H53729   3.418   3.406   0.317  3.6664 -3.1239  0.4789
  398MOL0     H53730   3.616   3.320   0.367  0.6531 -0.5781 -1.3061
  399MOL0     O53731   6.814   2.071   0.136 -0.0870  0.4616  0.0164
  399MOL0     C53732   6.819   1.995   0.043  0.0420 -0.5135  0.1785
  399MOL0     O53733   6.938   1.956  -0.009 -0.0468  0.2481  0.0645
  399MOL0     C53734   7.046   2.009   0.055  0.3958 -0.5561 -0.1319
  399MOL0     C53735   7.097   1.953   0.170 -0.5293  0.3097 -0.7751
  399MOL0     C53736   7.229   1.993   0.229  0.1215  0.8777  0.5021
  399MOL0     C53737   7.291   2.112   0.172  0.4353 -0.0757 -0.8497
  399MOL0     O53738   7.402   2.164   0.234  0.3339  0.4596 -0.4093
  399MOL0     C53739   7.481   2.265   0.162  0.8619 -0.5136  0.8931
  399MOL0     C53740   7.598   2.317   0.249 -0.9709 -0.2020 -0.0231
  399MOL0     C53741   7.539   2.369   0.371 -0.6190  0.4180 -0.1262
  399MOL0     C53742   7.665   2.426   0.456 -0.1667 -0.6951  0.2159
  399MOL0     C53743   7.624   2.523   0.574 -0.4100 -0.2765  0.2351
  399MOL0     C53744   7.737   2.593   0.637 -0.4014  0.2579  0.3575
  399MOL0     C53745   7.690   2.658   0.768 -0.5988  0.5757 -1.5675
  399MOL0     C53746   7.797   2.732   0.846 -0.7539  0.6624  0.1429
  399MOL0     N53747   7.842   2.856   0.790 -0.4845 -0.2317 -0.1104
  399MOL0     C53748   7.915   2.888   0.675 -0.2880  0.8015 -1.0072
  399MOL0     C53749   7.920   3.021   0.686 -0.5817  0.3859 -0.2952
  399MOL0     C53750   7.985   3.129   0.607  0.1006 -0.0324 -0.6608
  399MOL0     C53751   7.885   3.213   0.539  0.2032 -0.1803  0.6631
  399MOL0     C53752   7.950   3.346   0.497  0.3188  0.7021 -0.5123
  399MOL0     C53753   7.850   3.455   0.463  1.3545 -0.2321  0.1952
  399MOL0     O53754   7.916   3.573   0.447  0.5637 -0.2700 -0.3054
  399MOL0     C53755   7.838   3.678   0.401 -0.3453 -0.3721 -0.1364
  399MOL0     C53756   7.903   3.795   0.356  0.4066  0.0297  1.3634
  399MOL0     C53757   7.827   3.909   0.297  0.4987  1.3006  0.2091
  399MOL0     C53758   7.900   4.035   0.245  0.8036  0.6293  0.4445
  399MOL0     C53759   7.687   3.899   0.285  0.1731 -0.0471 -0.1153
  399MOL0     C53760   7.602   3.996   0.210  0.5734  0.9046 -0.3271
  399MOL0     O53761   7.489   4.040   0.269  0.6502 -0.0974  0.4793
  399MOL0     C53762   7.399   4.123   0.197 -0.5382 -0.0615 -0.7047
  399MOL0     C53763   7.315   4.065   0.108  0.0878  0.1746  0.0286
  399MOL0     C53764   7.225   4.154   0.040  0.1889 -1.1736  0.4475
  399MOL0     C53765   7.219   4.290   0.065  0.6359 -0.7600 -0.3274
  399MOL0     O53766   7.133   4.374  -0.011 -0.2552  0.2211 -0.1549
  399MOL0     C53767   7.165   4.509  -0.012 -0.2925  0.1295 -0.4616
  399MOL0     C53768   7.079   4.594  -0.108  1.0863 -0.3199 -0.0830
  399MOL0     C53769   7.124   4.592  -0.257 -0.4772  0.4306  0.6573
  399MOL0     C53770   7.077   4.715  -0.330 -0.0910 -0.1331 -0.0934
  399MOL0     C53771   7.198   4.797  -0.384  0.4810  0.2661 -0.0494
  399MOL0     C53772   7.283   4.868  -0.261 -0.0175 -0.8457  0.1921
  399MOL0     C53773   7.196   4.987  -0.200  0.6906 -0.2902  0.4252
  399MOL0     C53774   7.250   5.109  -0.139 -0.0208 -0.2646 -1.5702
  399MOL0    Cl53775   7.392   5.064  -0.040  0.0107 -0.2559  0.0425
  399MOL0     C53776   7.315   4.343   0.161  0.0436 -0.4343  0.7095
  399MOL0     C53777   7.406   4.255   0.219  0.4574 -0.6077  0.3390
  399MOL0     O53778   7.649   4.053   0.109 -0.9575 -0.0727 -0.1101
  399MOL0     C53779   7.618   3.787   0.345 -0.7277 -0.3259 -0.3843
  399MOL0     C53780   7.695   3.686   0.403 -0.4079  0.6296 -0.7954
  399MOL0     N53781   7.862   3.069   0.800  0.1682  0.4090 -0.1833
  399MOL0     N53782   7.817   2.972   0.859 -0.2912 -0.9330  0.2600
  399MOL0     C53783   7.246   2.145   0.044  0.1388  0.3586  0.2418
  399MOL0     C53784   7.128   2.106  -0.011 -0.4125  0.3960  0.3579
  399MOL0     C53785   6.707   1.947  -0.020  0.6206  0.2327 -0.2989
  399MOL0     C53786   6.713   1.886  -0.143 -0.6356 -0.0473  0.3037
  399MOL0     C53787   6.589   1.843  -0.210  0.0157  0.4486  0.2268
  399MOL0     C53788   6.458   1.860  -0.151 -0.8080  0.3531 -0.5272
  399MOL0     O53789   6.354   1.799  -0.213  0.7184 -1.0056 -0.9159
  399MOL0     C53790   6.229   1.848  -0.160  0.7645 -0.4036  0.5208
  399MOL0     C53791   6.108   1.808  -0.251 -0.1191  0.8486 -0.1560
  399MOL0     C53792   6.120   1.674  -0.335 -0.1585  1.4420  0.2022
  399MOL0     C53793   6.111   1.556  -0.239  0.5337  0.6516 -0.4915
  399MOL0     C53794   6.092   1.430  -0.310  0.7806 -0.9391 -0.2058
  399MOL0     C53795   6.079   1.334  -0.387 -0.4756 -0.3359 -0.0238
  399MOL0     C53796   6.456   1.921  -0.027  0.5165 -0.2663  0.6534
  399MOL0     C53797   6.575   1.972   0.030 -0.7202 -0.5572 -0.0094
  399MOL0     H53798   7.032   1.885   0.225 -1.2212  3.3960  2.6369
  399MOL0     H53799   7.271   1.938   0.313  0.3838 -0.5892 -0.5535
  399MOL0     H53800   7.526   2.226   0.070  2.6407  0.2488  1.3875
  399MOL0     H53801   7.421   2.352   0.136  2.5389  0.3616 -0.1933
  399MOL0     H53802   7.663   2.230   0.263  0.8113  1.1159  0.1818
  399MOL0     H53803   7.658   2.391   0.195 -2.0421 -0.3801 -1.5090
  399MOL0     H53804   7.461   2.444   0.357 -0.7164  0.5815  1.1343
  399MOL0     H53805   7.493   2.296   0.439  0.6324  2.6822  3.4293
  399MOL0     H53806   7.715   2.342   0.504  3.1250 -0.1454 -1.9452
  399MOL0     H53807   7.731   2.481   0.388 -0.6522 -3.0739 -2.3249
  399MOL0     H53808   7.560   2.606   0.542 -2.6980 -2.0805 -0.1857
  399MOL0     H53809   7.589   2.453   0.650  2.9924 -0.9912  1.2998
  399MOL0     H53810   7.809   2.512   0.655 -1.0290 -0.3000  0.3901
  399MOL0     H53811   7.785   2.669   0.574 -1.2419  1.5687  1.2612
  399MOL0     H53812   7.617   2.732   0.731 -1.4120 -0.1912 -1.5413
  399MOL0     H53813   7.636   2.579   0.820 -1.9375  2.6072  0.2916
  399MOL0     H53814   7.892   2.677   0.853  0.2366  2.0246 -1.5678
  399MOL0     H53815   7.760   2.759   0.946 -0.0598  1.5076  0.1882
  399MOL0     H53816   7.970   2.835   0.598 -2.1516  1.2622 -2.7599
  399MOL0     H53817   8.051   3.176   0.680 -2.2899 -0.8607  2.2656
  399MOL0     H53818   8.043   3.074   0.532  0.4254 -2.1407  1.0183
  399MOL0     H53819   7.804   3.236   0.609  1.9139  1.4004  2.2436
  399MOL0     H53820   7.844   3.160   0.453 -0.8008  1.4445  0.0821
  399MOL0     H53821   8.008   3.337   0.404  3.0879  5.0594  0.5138
  399MOL0     H53822   8.021   3.384   0.570  0.8860  0.2301 -0.8033
  399MOL0     H53823   7.767   3.461   0.534  1.8761 -0.5889  0.8392
  399MOL0     H53824   7.796   3.438   0.369  0.4787  2.2827  0.1626
  399MOL0     H53825   8.010   3.808   0.366  0.5526  0.2272 -0.2161
  399MOL0     H53826   7.841   4.125   0.267 -1.6161 -1.2662  2.2438
  399MOL0     H53827   7.988   4.047   0.308  1.2589  0.2466 -0.1014
  399MOL0     H53828   7.921   4.035   0.137  1.1151 -2.4541  0.4262
  399MOL0     H53829   7.321   3.957   0.098 -0.8866  0.0532  0.6430
  399MOL0     H53830   7.169   4.105  -0.038  1.9065  1.6532 -2.8852
  399MOL0     H53831   7.162   4.550   0.089 -1.3447 -1.3672  0.1431
  399MOL0     H53832   7.265   4.532  -0.050 -1.0818  1.1945 -2.0504
  399MOL0     H53833   6.980   4.547  -0.104  2.5541 -3.6129  0.7805
  399MOL0     H53834   7.069   4.694  -0.063  0.0468 -0.7419  0.6838
  399MOL0     H53835   7.088   4.506  -0.314  0.6215  1.9511 -2.5736
  399MOL0     H53836   7.233   4.597  -0.258 -0.4946  0.6776 -0.5953
  399MOL0     H53837   7.018   4.687  -0.417 -1.1088  0.3841  0.4116
  399MOL0     H53838   7.006   4.781  -0.279 -0.3018  1.5504 -2.4188
  399MOL0     H53839   7.168   4.878  -0.452  0.1532  1.0963  1.0550
  399MOL0     H53840   7.265   4.732  -0.440 -2.8018 -1.2291 -2.5578
  399MOL0     H53841   7.312   4.796  -0.183 -1.1402 -2.3690 -0.7380
  399MOL0     H53842   7.374   4.907  -0.308  0.5087 -0.0702  1.7789
  399MOL0     H53843   7.139   4.944  -0.117 -0.6163  1.3015  0.4062
  399MOL0     H53844   7.122   5.011  -0.277 -0.9048 -1.6578  1.4488
  399MOL0     H53845   7.177   5.154  -0.071 -0.7217 -1.4487 -1.4958
  399MOL0     H53846   7.286   5.171  -0.222  0.7493  0.2104 -0.8905
  399MOL0     H53847   7.330   4.449   0.174 -0.0742 -0.3246  0.0300
  399MOL0     H53848   7.478   4.303   0.285 -0.8285  3.9083 -1.1475
  399MOL0     H53849   7.513   3.762   0.340 -0.9721  0.7614 -1.3506
  399MOL0     H53850   7.641   3.601   0.445  1.7038  0.7569  2.5525
  399MOL0     H53851   7.288   2.227  -0.013  3.2465  0.3576  2.2891
  399MOL0     H53852   7.081   2.137  -0.104 -2.9670 -0.7332  1.1724
  399MOL0     H53853   6.810   1.862  -0.186  0.2244  1.4954  1.3108
  399MOL0     H53854   6.586   1.792  -0.306 -0.6367  0.5546  0.1895
  399MOL0     H53855   6.210   1.821  -0.056 -2.2639  4.5228  1.5573
  399MOL0     H53856   6.234   1.957  -0.156  3.1658 -0.4857  1.0681
  399MOL0     H53857   6.092   1.896  -0.314  2.9041  0.6321 -1.3940
  399MOL0     H53858   6.032   1.788  -0.175  2.2044 -1.2047  1.8382
  399MOL0     H53859   6.213   1.663  -0.392 -0.8315 -2.9397 -0.3615
  399MOL0     H53860   6.035   1.672  -0.404 -0.1605 -0.5038  0.2286
  399MOL0     H53861   6.034   1.561  -0.162  1.2354  0.6347  0.2261
  399MOL0     H53862   6.207   1.551  -0.187  0.2227  2.3488  0.3281
  399MOL0     H53863   6.081   1.277  -0.478 -1.2356  2.0773 -1.6452
  399MOL0     H53864   6.365   1.936   0.031  1.5653 -0.7193  2.5270
  399MOL0     H53865   6.564   2.026   0.124 -1.1843  0.4081 -0.5996
  400MOL0     O53866  11.076   7.674   5.875  0.2579  0.4374 -0.2218
  400MOL0     C53867  11.152   7.768   5.836 -0.6900 -0.6750  0.0157
  400MOL0     O53868  11.196   7.784   5.707 -0.2971  1.0632 -0.1695
  400MOL0     C53869  11.160   7.692   5.625 -0.0709  1.3377  0.1892
  400MOL0     C53870  11.230   7.571   5.619  0.6821 -0.7212  0.1003
  400MOL0     C53871  11.209   7.469   5.531 -0.0882 -0.6833  0.1673
  400MOL0     C53872  11.104   7.489   5.438  0.0966  0.8377  0.0754
  400MOL0     O53873  11.072   7.393   5.342  0.3528 -0.2081 -0.5227
  400MOL0     C53874  11.065   7.250   5.391 -0.0669 -0.8002 -1.1976
  400MOL0     C53875  11.104   7.155   5.286  0.2640  0.3538 -0.6899
  400MOL0     C53876  11.037   7.017   5.307 -0.0741 -0.0520 -0.1342
  400MOL0     C53877  11.133   6.900   5.270 -0.0480 -0.4084 -0.3123
  400MOL0     C53878  11.228   6.873   5.386 -0.5502  1.1019 -0.3651
  400MOL0     C53879  11.347   6.781   5.358 -0.1447 -0.3456 -0.1682
  400MOL0     C53880  11.304   6.639   5.328 -0.6491  1.5106  0.0599
  400MOL0     C53881  11.417   6.539   5.307 -0.9032  0.1791 -0.2514
  400MOL0     N53882  11.509   6.589   5.193  0.9036  0.4258  0.2998
  400MOL0     C53883  11.463   6.594   5.065 -0.1459  0.6873 -0.3437
  400MOL0     C53884  11.571   6.628   4.992  0.8997 -0.3082 -0.6148
  400MOL0     C53885  11.560   6.624   4.840 -0.7095 -0.4464 -0.8811
  400MOL0     C53886  11.683   6.584   4.758  0.0287  0.9947 -0.5183
  400MOL0     C53887  11.647   6.568   4.611 -0.3205  0.2063 -0.4839
  400MOL0     C53888  11.766   6.596   4.522 -0.0808 -0.4975  0.0589
  400MOL0     O53889  11.737   6.581   4.389  0.4210 -0.9122  0.3589
  400MOL0     C53890  11.678   6.678   4.313  0.4637  0.3519  0.6931
  400MOL0     C53891  11.658   6.807   4.358  1.3213 -0.4720 -0.5232
  400MOL0     C53892  11.604   6.913   4.283  0.2733  0.0463  0.6103
  400MOL0     C53893  11.589   7.038   4.355 -0.1624 -0.0889  0.0348
  400MOL0     C53894  11.555   6.880   4.157  0.2550  0.1089  0.0124
  400MOL0     C53895  11.484   6.976   4.065 -0.4491 -0.1971 -0.4433
  400MOL0     O53896  11.437   6.936   3.942  0.1514  0.7054 -0.2833
  400MOL0     C53897  11.409   7.037   3.849  0.0301 -0.8635  0.5866
  400MOL0     C53898  11.300   7.020   3.769  0.0926 -0.8492 -0.5990
  400MOL0     C53899  11.254   7.115   3.670 -0.3784  0.6236  0.6004
  400MOL0     C53900  11.341   7.227   3.639  0.6339 -0.0695 -0.1816
  400MOL0     O53901  11.296   7.311   3.539 -0.2168 -0.6271 -0.6659
  400MOL0     C53902  11.350   7.444   3.542  0.3452  0.1076 -0.2220
  400MOL0     C53903  11.247   7.532   3.475  0.3397 -0.2339  0.1311
  400MOL0     C53904  11.296   7.667   3.458  0.2597 -0.1666 -0.5679
  400MOL0     C53905  11.184   7.736   3.389 -0.3644 -0.9430  0.1894
  400MOL0     C53906  11.217   7.891   3.383 -0.2910  0.6223  0.0559
  400MOL0     C53907  11.136   7.961   3.267 -0.5709  0.5633  0.4711
  400MOL0     C53908  10.992   7.917   3.246  0.8164  0.5701 -0.0550
  400MOL0     C53909  10.915   8.034   3.183  0.4075 -0.6967 -0.8197
  400MOL0    Cl53910  10.751   8.004   3.156  0.4661 -0.1443 -0.2965
  400MOL0     C53911  11.458   7.241   3.720  0.0712  0.7554 -0.5931
  400MOL0     C53912  11.492   7.146   3.813 -0.0995 -0.2450 -0.2554
  400MOL0     O53913  11.470   7.093   4.109  1.5374 -0.1214  0.3124
  400MOL0     C53914  11.569   6.751   4.112 -0.6443 -0.2065 -0.2918
  400MOL0     C53915  11.641   6.653   4.184 -0.6245 -0.1941  0.1082
  400MOL0     N53916  11.668   6.671   5.079  0.1936 -0.2791  0.2961
  400MOL0     N53917  11.620   6.656   5.194 -0.1262  0.0527 -0.5760
  400MOL0     C53918  11.028   7.604   5.443  0.8345  0.5149  0.6366
  400MOL0     C53919  11.058   7.704   5.533 -0.0417  0.4908 -0.1508
  400MOL0     C53920  11.201   7.865   5.937 -0.1434  0.1286  0.0938
  400MOL0     C53921  11.165   7.858   6.067  0.1179 -0.4276  0.6709
  400MOL0     C53922  11.206   7.941   6.171 -0.4796 -0.4364  0.9280
  400MOL0     C53923  11.291   8.049   6.127  0.4084  0.4775  0.0360
  400MOL0     O53924  11.341   8.124   6.227 -0.2585 -1.2184  0.1592
  400MOL0     C53925  11.475   8.101   6.279  0.7059  0.2040  0.9714
  400MOL0     C53926  11.491   8.013   6.406  0.3567  0.0477  0.3214
  400MOL0     C53927  11.630   7.968   6.448  0.3305  0.4511  0.1208
  400MOL0     C53928  11.713   8.088   6.513  0.7660  0.0077 -0.2089
  400MOL0     C53929  11.642   8.200   6.566  1.3861 -0.9019  0.1787
  400MOL0     C53930  11.572   8.294   6.594  0.1375  0.3630 -0.3443
  400MOL0     C53931  11.330   8.058   6.001  0.4117  0.0959 -0.4372
  400MOL0     C53932  11.278   7.975   5.902 -1.3558  0.6212  0.4272
  400MOL0     H53933  11.307   7.553   5.693  1.1041  3.2617  0.8690
  400MOL0     H53934  11.279   7.387   5.521 -0.8832 -1.1681 -2.1195
  400MOL0     H53935  11.128   7.227   5.477 -2.9346 -1.7537  0.7967
  400MOL0     H53936  10.962   7.234   5.425  0.2555 -1.5367 -0.5419
  400MOL0     H53937  11.060   7.200   5.196 -0.5758 -2.3609 -1.7529
  400MOL0     H53938  11.211   7.149   5.265  0.3564  0.4215 -0.2307
  400MOL0     H53939  11.007   6.989   5.409 -1.6195 -1.0920 -0.8389
  400MOL0     H53940  10.943   7.011   5.251 -0.5402 -0.9596  0.7074
  400MOL0     H53941  11.087   6.805   5.242  0.4922 -0.7118 -0.1928
  400MOL0     H53942  11.196   6.923   5.184  2.9816  2.9514  2.4541
  400MOL0     H53943  11.267   6.972   5.412 -1.9750  1.6434 -0.1584
  400MOL0     H53944  11.163   6.840   5.467  0.4402 -1.8478 -0.6774
  400MOL0     H53945  11.401   6.817   5.270 -2.3745 -1.4391 -2.0834
  400MOL0     H53946  11.413   6.784   5.446  0.1772  0.9099 -0.4243
  400MOL0     H53947  11.237   6.611   5.410 -0.4429 -0.7685 -0.4982
  400MOL0     H53948  11.238   6.643   5.241 -0.1296  0.1245 -0.4269
  400MOL0     H53949  11.366   6.447   5.279  0.0111 -0.8441  1.2673
  400MOL0     H53950  11.467   6.526   5.404 -2.2837  2.1109  0.7984
  400MOL0     H53951  11.365   6.569   5.026 -0.6144  2.2771 -0.2563
  400MOL0     H53952  11.489   6.544   4.817 -1.0536 -0.6746  0.8765
  400MOL0     H53953  11.523   6.718   4.798  1.9699 -0.2407 -3.0596
  400MOL0     H53954  11.714   6.487   4.797 -0.7848  2.5547  4.7332
  400MOL0     H53955  11.764   6.658   4.762  0.4581  0.5110  3.6371
  400MOL0     H53956  11.570   6.643   4.593  0.2794  0.4966 -1.9445
  400MOL0     H53957  11.598   6.472   4.589  0.5473 -0.3625  0.0083
  400MOL0     H53958  11.851   6.527   4.532  1.2673  0.4191 -3.5623
  400MOL0     H53959  11.809   6.693   4.550 -0.5788 -0.8165  2.0585
  400MOL0     H53960  11.692   6.836   4.457 -0.2077 -0.4604  0.0219
  400MOL0     H53961  11.656   7.122   4.336 -1.4664  0.9025 -0.3487
  400MOL0     H53962  11.484   7.065   4.342  0.2760  0.6656 -2.5996
  400MOL0     H53963  11.605   7.013   4.460  1.6864 -2.1707 -0.6450
  400MOL0     H53964  11.240   6.931   3.785  1.9072 -1.9139  0.6510
  400MOL0     H53965  11.168   7.082   3.613 -2.0418  0.0047  3.2979
  400MOL0     H53966  11.360   7.473   3.647 -0.8974 -0.6359  0.1175
  400MOL0     H53967  11.439   7.450   3.479  2.3405 -0.0514  2.4212
  400MOL0     H53968  11.229   7.486   3.377  2.7827 -0.0022 -0.4910
  400MOL0     H53969  11.153   7.534   3.531 -0.2922  2.6914 -0.8957
  400MOL0     H53970  11.381   7.667   3.388 -1.1861 -2.9520 -2.5461
  400MOL0     H53971  11.328   7.713   3.552  1.2837 -0.8781 -0.5425
  400MOL0     H53972  11.171   7.702   3.286  1.5814  0.2876 -0.5124
  400MOL0     H53973  11.093   7.739   3.450 -1.0433 -1.3118 -0.7917
  400MOL0     H53974  11.323   7.901   3.359 -0.9238  0.4276 -3.2470
  400MOL0     H53975  11.207   7.919   3.489  1.6518 -1.4249  0.8602
  400MOL0     H53976  11.146   8.067   3.292  1.6417  0.7231 -0.7753
  400MOL0     H53977  11.189   7.947   3.172  1.0323  1.5005  1.1770
  400MOL0     H53978  10.942   7.893   3.340  1.1368  0.2670  0.0414
  400MOL0     H53979  10.985   7.829   3.181  0.9381 -1.3438  2.3844
  400MOL0     H53980  10.958   8.050   3.084  1.1356  1.2059 -0.2479
  400MOL0     H53981  10.930   8.132   3.229 -0.6789  0.1263 -2.1414
  400MOL0     H53982  11.529   7.320   3.700 -0.6336  1.0966 -1.8829
  400MOL0     H53983  11.589   7.149   3.863 -1.4694  1.5154  2.5742
  400MOL0     H53984  11.528   6.743   4.011 -0.8958  2.8378 -0.5416
  400MOL0     H53985  11.673   6.556   4.148  1.5647  0.0140  1.3062
  400MOL0     H53986  10.944   7.608   5.376  2.5051 -2.7144 -1.9406
  400MOL0     H53987  10.994   7.792   5.539  0.2582  0.7282 -0.4438
  400MOL0     H53988  11.110   7.777   6.115  1.9062 -1.6543  0.7401
  400MOL0     H53989  11.179   7.934   6.276  0.6617  1.5443  1.4008
  400MOL0     H53990  11.515   8.034   6.203 -1.0670  1.7676 -1.4738
  400MOL0     H53991  11.533   8.193   6.293 -1.0184  0.9878  3.7958
  400MOL0     H53992  11.426   7.925   6.407  1.2269 -0.6353 -0.7696
  400MOL0     H53993  11.452   8.069   6.491 -1.4032 -3.3142  1.9394
  400MOL0     H53994  11.676   7.930   6.357 -2.3011 -2.1355 -0.2782
  400MOL0     H53995  11.626   7.880   6.513  3.1169 -0.0362 -0.2594
  400MOL0     H53996  11.780   8.126   6.436  0.2628  1.5520  0.0701
  400MOL0     H53997  11.781   8.052   6.591  1.7210 -2.7438 -2.1778
  400MOL0     H53998  11.501   8.364   6.636 -0.3266 -1.8135  2.8633
  400MOL0     H53999  11.401   8.138   5.985  1.3221 -0.9064 -1.6520
  400MOL0     H54000  11.314   7.997   5.802 -0.5422  1.5368  0.9005
  401MOL0     O54001   4.969   8.759   1.559 -0.4694  0.6953  0.1328
  401MOL0     C54002   5.020   8.770   1.449  0.6635 -0.4714  0.4258
  401MOL0     O54003   5.099   8.879   1.409  1.2806 -0.6070  0.1243
  401MOL0     C54004   5.145   8.958   1.511  0.0219  0.1238 -0.5788
  401MOL0     C54005   5.225   8.908   1.617 -0.6934  0.2496 -0.7536
  401MOL0     C54006   5.260   8.996   1.720 -0.0980  0.0029  1.2099
  401MOL0     C54007   5.228   9.133   1.719  0.0864  0.0310 -0.4771
  401MOL0     O54008   5.282   9.216   1.819  0.3642  0.4193 -0.0863
  401MOL0     C54009   5.334   9.158   1.937 -0.9412 -0.0423  1.0473
  401MOL0     C54010   5.332   9.250   2.054  0.3710 -1.1604  0.6798
  401MOL0     C54011   5.194   9.314   2.092 -1.0375 -0.2985  0.6417
  401MOL0     C54012   5.203   9.397   2.214  0.4049  0.3566 -0.3704
  401MOL0     C54013   5.070   9.415   2.303 -1.0760  0.1513 -0.1968
  401MOL0     C54014   5.112   9.513   2.423 -0.1165  0.4248  0.1554
  401MOL0     C54015   5.017   9.508   2.541 -0.4518  0.7591 -0.0034
  401MOL0     C54016   4.913   9.617   2.548  0.2436  0.8555  0.9500
  401MOL0     N54017   4.839   9.631   2.419  0.0720  0.4099  0.6272
  401MOL0     C54018   4.748   9.551   2.362  1.2882  0.5482  0.3370
  401MOL0     C54019   4.721   9.608   2.240  0.3258 -0.0217 -0.8237
  401MOL0     C54020   4.624   9.546   2.145  0.8176  0.8056 -0.1267
  401MOL0     C54021   4.689   9.474   2.022  0.7218  0.4804 -0.9832
  401MOL0     C54022   4.763   9.346   2.051  0.0616 -0.3550 -0.0149
  401MOL0     C54023   4.802   9.269   1.921 -0.4158  0.2426  0.5709
  401MOL0     O54024   4.687   9.249   1.841  0.3386 -0.1029  0.6715
  401MOL0     C54025   4.673   9.144   1.756  0.3181 -0.9012 -0.7612
  401MOL0     C54026   4.544   9.122   1.705  0.3095  0.1656  0.5685
  401MOL0     C54027   4.510   9.030   1.618 -0.3453  0.1562  0.0099
  401MOL0     C54028   4.356   9.030   1.586  0.9561 -0.2259 -0.0339
  401MOL0     C54029   4.611   8.946   1.553  0.0908 -0.6247 -0.2871
  401MOL0     C54030   4.598   8.872   1.428  0.6860 -0.0524  0.2601
  401MOL0     O54031   4.695   8.777   1.405 -0.1177 -0.1762 -0.3941
  401MOL0     C54032   4.703   8.728   1.278 -0.1083  0.9340 -0.1279
  401MOL0     C54033   4.753   8.812   1.177 -0.2915 -0.0188  0.2756
  401MOL0     C54034   4.771   8.776   1.048  1.4850  0.2852  0.1760
  401MOL0     C54035   4.752   8.640   1.015  1.0499  0.0139  0.3806
  401MOL0     O54036   4.786   8.589   0.891  0.3204  0.3832 -0.2318
  401MOL0     C54037   4.725   8.658   0.771  0.6051  0.8139 -0.1969
  401MOL0     C54038   4.715   8.567   0.654 -0.5617  0.3143  0.6970
  401MOL0     C54039   4.626   8.452   0.670 -0.6437  0.3751  0.4484
  401MOL0     C54040   4.622   8.372   0.536 -0.0828 -1.0764  0.0173
  401MOL0     C54041   4.552   8.233   0.558 -0.8057  0.6407 -0.2207
  401MOL0     C54042   4.536   8.160   0.425  0.4741  0.0363 -0.0460
  401MOL0     C54043   4.659   8.058   0.418  1.3600  0.0125  1.0296
  401MOL0     C54044   4.642   7.976   0.288  0.4790 -0.3825  0.1826
  401MOL0    Cl54045   4.480   7.909   0.253 -0.1113 -0.1446 -0.3887
  401MOL0     C54046   4.707   8.551   1.118 -0.0686 -0.1211  0.0207
  401MOL0     C54047   4.684   8.591   1.250  0.2821 -0.5075  0.3610
  401MOL0     O54048   4.514   8.912   1.346 -0.8395  0.3865  0.4783
  401MOL0     C54049   4.739   8.976   1.598 -0.6898 -0.8973  0.4132
  401MOL0     C54050   4.773   9.075   1.696  0.3456 -0.0755  1.9351
  401MOL0     N54051   4.801   9.722   2.224  0.1866 -0.1174  0.2460
  401MOL0     N54052   4.868   9.742   2.332  0.7802 -0.1524 -0.3177
  401MOL0     C54053   5.146   9.187   1.615  0.0623  0.4400  0.2212
  401MOL0     C54054   5.108   9.087   1.516  0.2402 -0.9159  0.0607
  401MOL0     C54055   5.016   8.654   1.362 -0.1890  0.2405  0.5967
  401MOL0     C54056   4.964   8.526   1.404  1.0093  0.2376 -0.1751
  401MOL0     C54057   4.969   8.421   1.315  0.2988  0.4646 -0.1714
  401MOL0     C54058   5.016   8.427   1.187  0.2541 -0.1320 -0.3342
  401MOL0     O54059   5.025   8.306   1.113  0.5004  0.4701 -0.0452
  401MOL0     C54060   4.978   8.298   0.978  0.1221 -0.6933 -0.1327
  401MOL0     C54061   5.015   8.166   0.912 -1.5408  0.1717 -0.4668
  401MOL0     C54062   5.168   8.141   0.884  0.2509 -0.2069 -0.7587
  401MOL0     C54063   5.245   8.253   0.793  1.0489  0.6040 -0.2045
  401MOL0     C54064   5.175   8.267   0.666 -0.6352 -0.6015  0.6058
  401MOL0     C54065   5.110   8.278   0.563 -0.5873 -0.0636 -0.3457
  401MOL0     C54066   5.062   8.551   1.145 -0.5301  0.3071  0.1975
  401MOL0     C54067   5.055   8.658   1.229  0.5446  0.0104  0.2619
  401MOL0     H54068   5.255   8.804   1.613 -1.1093 -0.0227  1.6698
  401MOL0     H54069   5.328   8.958   1.795  3.1772  1.9163 -0.5455
  401MOL0     H54070   5.277   9.072   1.974  1.2095 -0.4522  3.7529
  401MOL0     H54071   5.433   9.119   1.912 -0.8586  2.2702 -3.3088
  401MOL0     H54072   5.363   9.197   2.144 -0.7935 -0.9108  1.2540
  401MOL0     H54073   5.402   9.331   2.031 -1.0934 -0.0670 -0.1051
  401MOL0     H54074   5.153   9.376   2.012 -2.6979 -0.7063  1.1430
  401MOL0     H54075   5.111   9.242   2.097  1.0843 -2.9002  0.5944
  401MOL0     H54076   5.266   9.346   2.288 -0.1465 -1.3829 -1.0731
  401MOL0     H54077   5.244   9.494   2.186 -0.4709  0.4199 -1.4899
  401MOL0     H54078   4.987   9.459   2.247 -0.6295 -2.8681 -3.5504
  401MOL0     H54079   5.040   9.313   2.329 -1.0671  0.1642 -0.1349
  401MOL0     H54080   5.216   9.495   2.451  0.2548 -0.1359 -1.4799
  401MOL0     H54081   5.118   9.616   2.387 -4.1869  1.8481  2.7845
  401MOL0     H54082   4.964   9.412   2.548 -0.9829  1.1559  2.1528
  401MOL0     H54083   5.078   9.506   2.631  1.6514  1.6963 -1.3399
  401MOL0     H54084   4.958   9.715   2.568 -1.8527  1.4712  3.0460
  401MOL0     H54085   4.846   9.609   2.634 -2.9424 -0.7940 -1.4710
  401MOL0     H54086   4.682   9.476   2.405 -0.7797  0.7346 -2.2356
  401MOL0     H54087   4.560   9.462   2.174  1.1812 -0.5413 -2.9564
  401MOL0     H54088   4.563   9.625   2.101  2.1710  1.9131 -0.0883
  401MOL0     H54089   4.747   9.547   1.964  2.0095 -2.0845 -3.1166
  401MOL0     H54090   4.611   9.464   1.946  0.8841 -2.7806 -0.8580
  401MOL0     H54091   4.700   9.275   2.106  1.2259  0.7897  2.9829
  401MOL0     H54092   4.841   9.374   2.121  0.4232  0.5215 -0.7508
  401MOL0     H54093   4.858   9.176   1.934 -2.7106 -1.6653 -2.1280
  401MOL0     H54094   4.857   9.336   1.855  0.5781 -0.5795  0.5450
  401MOL0     H54095   4.465   9.187   1.741 -0.3526 -0.8584  1.0329
  401MOL0     H54096   4.325   8.926   1.572 -1.0910 -0.0361  2.3724
  401MOL0     H54097   4.300   9.066   1.673  2.0775  2.7147 -0.3945
  401MOL0     H54098   4.335   9.100   1.505 -1.5598  0.6775  1.2991
  401MOL0     H54099   4.781   8.912   1.208  0.3174  0.1472 -0.7608
  401MOL0     H54100   4.798   8.850   0.974 -2.5391  1.7513 -0.0319
  401MOL0     H54101   4.626   8.701   0.787  0.7333  0.8018  0.6509
  401MOL0     H54102   4.794   8.736   0.737  0.4789  0.7946 -0.4975
  401MOL0     H54103   4.675   8.623   0.568 -2.1894 -2.2481 -0.3165
  401MOL0     H54104   4.817   8.532   0.637 -1.7151 -2.0448 -2.3444
  401MOL0     H54105   4.524   8.488   0.687 -1.3601 -1.7466  0.9930
  401MOL0     H54106   4.665   8.389   0.750 -1.5829  0.0590  0.6681
  401MOL0     H54107   4.591   8.432   0.450 -2.4483 -0.5814  1.1452
  401MOL0     H54108   4.728   8.347   0.524 -0.0406 -3.1846  3.4620
  401MOL0     H54109   4.450   8.239   0.598 -0.0512  3.6887  1.5862
  401MOL0     H54110   4.616   8.186   0.633  1.6761  2.0549 -1.3188
  401MOL0     H54111   4.441   8.107   0.434  0.3461  0.2377 -0.2013
  401MOL0     H54112   4.533   8.233   0.344 -0.4464  0.4246  0.3242
  401MOL0     H54113   4.665   8.003   0.512 -1.5347 -3.2768 -0.5020
  401MOL0     H54114   4.753   8.113   0.409  0.0202  2.2662 -0.6019
  401MOL0     H54115   4.721   7.900   0.288 -1.3135 -2.3760  1.0503
  401MOL0     H54116   4.670   8.042   0.206  1.8435 -0.4269  0.5881
  401MOL0     H54117   4.699   8.445   1.098 -0.5128 -0.0287 -0.2916
  401MOL0     H54118   4.649   8.534   1.335 -0.9243  0.2358  0.3782
  401MOL0     H54119   4.822   8.935   1.542  0.5607  0.9653  0.8095
  401MOL0     H54120   4.877   9.108   1.689  0.1551  0.1202 -0.7661
  401MOL0     H54121   5.115   9.291   1.611 -1.9276 -0.1088 -0.0321
  401MOL0     H54122   5.048   9.120   1.432  0.5496 -1.8242 -0.5222
  401MOL0     H54123   4.922   8.516   1.503 -0.6721 -1.5889 -1.0015
  401MOL0     H54124   4.955   8.324   1.360  0.9887  0.4880  0.1119
  401MOL0     H54125   4.869   8.300   0.977  0.0466  2.2112  1.9865
  401MOL0     H54126   5.024   8.382   0.925 -0.0410 -0.2437  0.4240
  401MOL0     H54127   4.961   8.156   0.817  0.4091 -0.1422 -1.6069
  401MOL0     H54128   4.974   8.083   0.970  0.7171 -1.1453 -0.6365
  401MOL0     H54129   5.174   8.044   0.833  1.6208 -1.5526  1.7615
  401MOL0     H54130   5.210   8.131   0.985 -1.4545 -2.1802 -0.1633
  401MOL0     H54131   5.350   8.231   0.776  0.7301 -0.9223 -0.3455
  401MOL0     H54132   5.241   8.345   0.853  0.2883  0.0529  0.6216
  401MOL0     H54133   5.060   8.283   0.469 -0.7267  2.7619 -0.2113
  401MOL0     H54134   5.092   8.569   1.042 -2.7422  1.8554 -0.2508
  401MOL0     H54135   5.072   8.755   1.183  2.5751  1.6629  4.0580
  402MOL0     O54136   6.353   7.101   4.507 -0.4979 -0.3239 -0.2701
  402MOL0     C54137   6.292   6.992   4.523 -0.2042  0.0240  0.6696
  402MOL0     O54138   6.156   6.975   4.507 -0.8978  0.4378 -0.4309
  402MOL0     C54139   6.082   7.079   4.525 -1.0448 -0.8156  0.1921
  402MOL0     C54140   5.979   7.115   4.440  0.4511 -0.8034 -1.4716
  402MOL0     C54141   5.895   7.220   4.466  0.2658 -0.0181 -0.6148
  402MOL0     C54142   5.914   7.299   4.579  0.3382 -0.0873  0.2268
  402MOL0     O54143   5.833   7.410   4.587  0.2234 -1.1039  0.5885
  402MOL0     C54144   5.879   7.520   4.666 -0.2315 -1.0785  0.7863
  402MOL0     C54145   5.777   7.634   4.675  0.5086 -0.2924 -0.4598
  402MOL0     C54146   5.837   7.744   4.761  0.0059 -0.6800 -0.2712
  402MOL0     C54147   5.753   7.873   4.717 -0.0314 -0.1082 -0.2385
  402MOL0     C54148   5.827   7.959   4.617  0.3190  0.9048  0.3202
  402MOL0     C54149   5.726   8.043   4.547  0.2933 -0.7779 -0.1138
  402MOL0     C54150   5.633   7.970   4.452 -0.6668  0.6311 -0.3349
  402MOL0     C54151   5.595   8.048   4.327 -0.4850  0.0438 -0.0198
  402MOL0     N54152   5.469   7.997   4.260 -0.7125  0.8415  0.3360
  402MOL0     C54153   5.448   7.865   4.235 -0.0847  0.0417  0.1278
  402MOL0     C54154   5.314   7.859   4.199 -0.6526 -0.1834  0.8967
  402MOL0     C54155   5.229   7.742   4.157 -0.3213 -0.1057 -0.5098
  402MOL0     C54156   5.297   7.618   4.093 -0.1981 -0.1371  0.0174
  402MOL0     C54157   5.374   7.646   3.961  0.0302 -0.1443 -0.1509
  402MOL0     C54158   5.432   7.508   3.922 -0.4858  1.1175  0.0363
  402MOL0     O54159   5.565   7.501   3.976 -0.3498 -0.4508 -0.4816
  402MOL0     C54160   5.630   7.383   3.966  0.2903 -0.7927 -0.2102
  402MOL0     C54161   5.587   7.271   3.888 -1.2726  0.8634 -0.4938
  402MOL0     C54162   5.663   7.150   3.883 -0.2616  0.0098 -0.8977
  402MOL0     C54163   5.614   7.041   3.785 -0.1743 -0.1787  0.3157
  402MOL0     C54164   5.800   7.155   3.939  0.0230 -0.6409 -0.4989
  402MOL0     C54165   5.902   7.042   3.930  0.0800  0.8202  0.1478
  402MOL0     O54166   6.028   7.076   3.977  0.4554  0.0196  0.0268
  402MOL0     C54167   6.101   6.969   4.031  0.1022 -0.0334 -0.4044
  402MOL0     C54168   6.138   6.872   3.944  0.1160  0.6771 -0.4911
  402MOL0     C54169   6.244   6.786   3.978 -0.1071  0.3465 -0.0557
  402MOL0     C54170   6.314   6.811   4.098  0.5370  0.0862 -0.4076
  402MOL0     O54171   6.420   6.728   4.120 -0.1368 -0.0361  0.2498
  402MOL0     C54172   6.536   6.794   4.172 -0.9433  0.6026  0.6724
  402MOL0     C54173   6.656   6.722   4.125 -0.0322 -0.6000  0.8051
  402MOL0     C54174   6.686   6.592   4.200 -0.2966  0.8586  0.2633
  402MOL0     C54175   6.818   6.532   4.155  0.0080 -1.1447  0.2463
  402MOL0     C54176   6.836   6.505   4.007  0.4048  0.5221  0.1697
  402MOL0     C54177   6.971   6.443   3.978  0.1747  0.1485 -0.1670
  402MOL0     C54178   6.972   6.398   3.827  0.3801 -0.1578  0.3046
  402MOL0     C54179   7.060   6.281   3.806  1.2147  0.6378  1.0675
  402MOL0    Cl54180   7.225   6.326   3.864 -0.3995 -0.3537  0.4774
  402MOL0     C54181   6.259   6.895   4.193 -0.0858  0.0109 -0.1393
  402MOL0     C54182   6.160   6.988   4.160 -0.2358  0.6398  0.0158
  402MOL0     O54183   5.867   6.924   3.908  0.5120 -0.3471 -0.4964
  402MOL0     C54184   5.837   7.267   4.007 -0.0735  0.1518 -0.6153
  402MOL0     C54185   5.760   7.382   4.022 -0.6294 -0.3254  0.6915
  402MOL0     N54186   5.251   7.980   4.231 -0.3463  0.3077  0.7069
  402MOL0     N54187   5.347   8.064   4.266  0.9957  0.2312 -0.0388
  402MOL0     C54188   6.005   7.263   4.667  0.1671  0.9976 -1.2679
  402MOL0     C54189   6.087   7.158   4.645 -0.5851  0.4465 -0.5798
  402MOL0     C54190   6.380   6.874   4.560 -0.6863 -0.5399  0.8567
  402MOL0     C54191   6.346   6.744   4.503 -0.0711 -0.5463 -0.1035
  402MOL0     C54192   6.434   6.643   4.540  0.6467  0.1278 -0.7769
  402MOL0     C54193   6.551   6.657   4.624 -0.6255 -0.2765 -0.3364
  402MOL0     O54194   6.625   6.545   4.649 -0.2814  0.0365  0.2569
  402MOL0     C54195   6.721   6.552   4.747 -0.6195 -0.3627 -0.4101
  402MOL0     C54196   6.800   6.426   4.750  0.0321 -0.5862 -1.4860
  402MOL0     C54197   6.728   6.297   4.784 -0.5685  0.3265 -0.2289
  402MOL0     C54198   6.837   6.186   4.764  0.2626  0.4898  0.3315
  402MOL0     C54199   6.841   6.089   4.881 -0.0295 -0.7201  0.4323
  402MOL0     C54200   6.831   6.020   4.980 -0.0089  0.0527 -1.3135
  402MOL0     C54201   6.582   6.784   4.667  0.5405 -0.1068  0.6334
  402MOL0     C54202   6.499   6.891   4.630  0.7073 -0.2680  0.7743
  402MOL0     H54203   5.958   7.059   4.350 -0.1554 -0.3031 -1.6583
  402MOL0     H54204   5.825   7.244   4.386  0.6427  1.0760 -0.6302
  402MOL0     H54205   5.911   7.501   4.769  2.1501  3.3364  1.1317
  402MOL0     H54206   5.953   7.575   4.607 -2.6115  0.8293 -0.6432
  402MOL0     H54207   5.747   7.661   4.573  0.7442 -3.0336 -1.3519
  402MOL0     H54208   5.683   7.595   4.714 -0.9474  2.3044 -1.1398
  402MOL0     H54209   5.806   7.718   4.863 -0.3984 -2.2683 -0.7660
  402MOL0     H54210   5.946   7.748   4.756 -0.0644 -0.7103 -2.6161
  402MOL0     H54211   5.656   7.838   4.681  1.2426 -3.1209 -1.1295
  402MOL0     H54212   5.737   7.931   4.808  0.7684 -3.3424  2.1198
  402MOL0     H54213   5.900   8.008   4.681  1.3699 -1.3978  0.9905
  402MOL0     H54214   5.872   7.887   4.547 -1.3189  0.7886 -0.6552
  402MOL0     H54215   5.664   8.104   4.614  1.2302 -1.5740  1.5729
  402MOL0     H54216   5.791   8.118   4.501 -0.8940  2.1118  2.5414
  402MOL0     H54217   5.683   7.883   4.409  1.9403  0.8342  2.0377
  402MOL0     H54218   5.545   7.932   4.504  1.0767 -0.7319  1.7839
  402MOL0     H54219   5.675   8.048   4.251  0.7003  2.0507  1.1602
  402MOL0     H54220   5.572   8.147   4.366  1.6561  0.5357  0.1624
  402MOL0     H54221   5.524   7.789   4.245 -1.8198 -1.7200  0.6641
  402MOL0     H54222   5.172   7.718   4.248 -1.3769  0.3790 -1.0283
  402MOL0     H54223   5.156   7.784   4.088 -1.4946 -3.3797 -1.4593
  402MOL0     H54224   5.213   7.551   4.074  0.2975 -0.2139 -2.1199
  402MOL0     H54225   5.370   7.582   4.167  2.0881  2.2736 -0.9205
  402MOL0     H54226   5.452   7.721   3.975 -1.4096  1.4663 -0.4523
  402MOL0     H54227   5.306   7.671   3.879 -2.3287 -2.7307  0.8290
  402MOL0     H54228   5.443   7.494   3.814  3.9491 -3.1020  0.6907
  402MOL0     H54229   5.367   7.431   3.963 -1.7404  1.7729 -0.6639
  402MOL0     H54230   5.490   7.281   3.840 -1.5555  2.5492  0.3514
  402MOL0     H54231   5.609   6.937   3.821  0.6213 -0.3356 -0.0193
  402MOL0     H54232   5.518   7.065   3.738  0.3655  2.0501  0.2551
  402MOL0     H54233   5.680   7.043   3.698 -0.3418 -1.7957  0.1105
  402MOL0     H54234   6.091   6.876   3.847 -1.9795  1.4322  0.4880
  402MOL0     H54235   6.271   6.710   3.905  4.8315  1.8424 -0.1730
  402MOL0     H54236   6.543   6.896   4.132  1.8082 -0.7620 -2.8118
  402MOL0     H54237   6.522   6.803   4.281 -1.0343  1.8061  0.5807
  402MOL0     H54238   6.636   6.705   4.019 -0.0960 -1.3484  0.9313
  402MOL0     H54239   6.735   6.796   4.146 -2.0321  1.4017  1.7237
  402MOL0     H54240   6.612   6.513   4.181  1.1243 -1.1051  2.3501
  402MOL0     H54241   6.700   6.601   4.309 -1.4774 -0.6857  0.5893
  402MOL0     H54242   6.885   6.611   4.190 -1.1920 -0.2145  0.4944
  402MOL0     H54243   6.834   6.440   4.212  0.7049 -1.1056  0.1247
  402MOL0     H54244   6.818   6.590   3.941 -0.2367 -0.4884 -0.9971
  402MOL0     H54245   6.758   6.437   3.972 -0.9407  1.0665  1.9203
  402MOL0     H54246   7.042   6.523   3.998  0.9583 -1.0603  2.1982
  402MOL0     H54247   6.980   6.363   4.052 -2.2083 -0.1636 -0.1078
  402MOL0     H54248   7.010   6.479   3.764 -0.5158  0.2689  0.2906
  402MOL0     H54249   6.874   6.366   3.789  0.7934  0.0141 -0.9726
  402MOL0     H54250   7.058   6.260   3.699 -1.9232  0.8859  0.9927
  402MOL0     H54251   7.015   6.197   3.859  3.5409 -1.1038  0.4492
  402MOL0     H54252   6.316   6.893   4.286  1.9014 -0.5074 -1.3169
  402MOL0     H54253   6.133   7.063   4.234 -0.4861  0.2313  0.3416
  402MOL0     H54254   5.938   7.273   4.047  1.0418 -4.1507 -2.2600
  402MOL0     H54255   5.795   7.475   4.067 -2.6531  1.6170 -1.4422
  402MOL0     H54256   6.020   7.319   4.759 -0.4783  1.6719 -1.5645
  402MOL0     H54257   6.163   7.140   4.720  3.4903  0.9793 -4.1699
  402MOL0     H54258   6.259   6.728   4.440  0.4419  0.6095 -1.1533
  402MOL0     H54259   6.412   6.538   4.526  4.5473 -0.6923 -1.6551
  402MOL0     H54260   6.799   6.629   4.745  0.8606 -1.7922 -1.7775
  402MOL0     H54261   6.665   6.566   4.839 -2.5377  1.0820 -1.7353
  402MOL0     H54262   6.881   6.440   4.822  2.3787  2.9883 -4.4492
  402MOL0     H54263   6.862   6.426   4.660  0.4037 -0.3797 -1.2338
  402MOL0     H54264   6.655   6.282   4.704 -2.3668  3.2101  0.7234
  402MOL0     H54265   6.686   6.294   4.885 -0.5967 -1.9406 -0.2579
  402MOL0     H54266   6.935   6.232   4.746 -1.7165  3.6656 -4.2202
  402MOL0     H54267   6.811   6.142   4.668  0.0804  0.0279  0.5854
  402MOL0     H54268   6.829   5.963   5.071 -2.0123 -0.6605 -1.7529
  402MOL0     H54269   6.671   6.820   4.719  1.8233  0.2499 -1.6865
  402MOL0     H54270   6.531   6.990   4.661 -0.0291  0.0956  0.3992
  403MOL0     O54271  11.175   5.629   7.819 -0.7354 -1.3700 -0.2714
  403MOL0     C54272  11.267   5.550   7.813  0.3535  0.6092  0.6399
  403MOL0     O54273  11.345   5.539   7.705 -0.1201  0.0393  0.4430
  403MOL0     C54274  11.351   5.623   7.595 -0.6073  0.4922  0.0785
  403MOL0     C54275  11.248   5.713   7.551 -0.0179 -0.5614 -0.4953
  403MOL0     C54276  11.254   5.778   7.434  0.4615 -0.6141  0.8638
  403MOL0     C54277  11.367   5.774   7.354 -0.3167  0.1973  0.0194
  403MOL0     O54278  11.380   5.843   7.236 -0.7344 -0.8099 -0.1588
  403MOL0     C54279  11.288   5.837   7.129 -0.2569  0.1480 -0.5430
  403MOL0     C54280  11.352   5.846   6.995 -0.6059 -1.3523 -0.1987
  403MOL0     C54281  11.452   5.962   6.967 -0.1277 -0.1610  0.4068
  403MOL0     C54282  11.473   5.982   6.813  0.3732  0.0305  0.8178
  403MOL0     C54283  11.568   6.095   6.776 -0.3478 -0.6452 -0.7222
  403MOL0     C54284  11.560   6.161   6.639  0.0158 -0.6336 -0.4063
  403MOL0     C54285  11.424   6.239   6.594 -0.5501 -0.0073  0.0729
  403MOL0     C54286  11.320   6.169   6.522  0.8300  0.6887  0.3274
  403MOL0     N54287  11.229   6.256   6.461  0.0223 -1.6295  0.5995
  403MOL0     C54288  11.236   6.310   6.338  0.1503  0.0380 -0.3495
  403MOL0     C54289  11.125   6.391   6.330  0.1443 -0.5732  0.0303
  403MOL0     C54290  11.099   6.464   6.199  0.4363  0.4275  0.5030
  403MOL0     C54291  11.000   6.580   6.202  0.4176  0.3179 -0.1107
  403MOL0     C54292  10.861   6.543   6.231  0.0019  0.3174  0.7817
  403MOL0     C54293  10.777   6.546   6.108 -0.2209 -0.0772  0.6272
  403MOL0     O54294  10.766   6.414   6.044 -0.5007  0.0117  0.4861
  403MOL0     C54295  10.720   6.416   5.915  0.3400  0.1723  0.0020
  403MOL0     C54296  10.678   6.291   5.868  0.2525  0.2529 -0.1100
  403MOL0     C54297  10.598   6.276   5.751  0.7493  0.3635  0.4757
  403MOL0     C54298  10.544   6.133   5.738 -0.0292 -0.6750  0.0577
  403MOL0     C54299  10.576   6.386   5.668 -0.4392 -0.4946 -0.1374
  403MOL0     C54300  10.516   6.376   5.536  0.2925  0.5018 -0.4811
  403MOL0     O54301  10.479   6.492   5.471 -0.6474 -0.3452 -0.0108
  403MOL0     C54302  10.432   6.484   5.342 -0.5477 -0.0680  0.3563
  403MOL0     C54303  10.310   6.543   5.314 -1.3099 -0.0700 -1.1262
  403MOL0     C54304  10.281   6.553   5.182 -0.3403  1.3145  0.2873
  403MOL0     C54305  10.356   6.501   5.069 -0.2701  0.1894  0.0209
  403MOL0     O54306  10.333   6.522   4.937  0.9526 -0.1663 -0.5804
  403MOL0     C54307  10.441   6.540   4.844 -0.2534  0.2379  0.2819
  403MOL0     C54308  10.426   6.417   4.750  0.1355  0.3855 -0.0040
  403MOL0     C54309  10.527   6.425   4.631 -0.4748  1.2028  0.4057
  403MOL0     C54310  10.676   6.442   4.663  0.2636 -0.2547  0.5406
  403MOL0     C54311  10.735   6.331   4.754 -0.1857 -0.2700 -0.4525
  403MOL0     C54312  10.865   6.374   4.803  0.1596 -0.4908  0.1941
  403MOL0     C54313  10.992   6.332   4.727  0.0504  0.1682  0.3489
  403MOL0     C54314  11.028   6.406   4.600 -0.7761  0.3428 -0.4854
  403MOL0    Cl54315  10.944   6.318   4.460  0.3910  0.0218  0.2217
  403MOL0     C54316  10.480   6.444   5.113 -0.6717 -0.1537  0.8331
  403MOL0     C54317  10.512   6.432   5.244 -0.1008 -0.3498 -0.1996
  403MOL0     O54318  10.504   6.260   5.492 -0.4344  0.3848  0.0881
  403MOL0     C54319  10.639   6.506   5.703 -0.7100 -0.4839 -0.1506
  403MOL0     C54320  10.701   6.527   5.831  0.7559 -0.4946  0.6398
  403MOL0     N54321  11.054   6.377   6.455 -0.0254  0.0064  0.0009
  403MOL0     N54322  11.133   6.318   6.540  1.1706 -0.5276 -1.0532
  403MOL0     C54323  11.479   5.685   7.385  0.3899 -0.3195 -0.5329
  403MOL0     C54324  11.463   5.615   7.509 -0.2290 -0.4326  0.2593
  403MOL0     C54325  11.300   5.477   7.932  0.0721 -0.1715 -0.1801
  403MOL0     C54326  11.437   5.451   7.957  0.1167  0.7112 -0.3663
  403MOL0     C54327  11.479   5.395   8.076 -0.5632  0.2228  0.1772
  403MOL0     C54328  11.394   5.361   8.180 -1.1727  0.7769  0.3452
  403MOL0     O54329  11.421   5.316   8.309 -0.4654 -0.1304 -0.0296
  403MOL0     C54330  11.561   5.298   8.340 -0.0941 -0.6796  0.2410
  403MOL0     C54331  11.575   5.246   8.482  0.3972 -0.6587 -0.1846
  403MOL0     C54332  11.490   5.111   8.505 -1.1365 -0.8222 -0.8604
  403MOL0     C54333  11.530   5.055   8.638 -0.5970  0.1305 -0.2237
  403MOL0     C54334  11.482   5.138   8.748 -0.4218 -0.0179  1.1249
  403MOL0     C54335  11.453   5.213   8.838 -0.1091  0.2619 -0.7855
  403MOL0     C54336  11.261   5.388   8.163  1.2653 -0.5724  0.2648
  403MOL0     C54337  11.213   5.448   8.039 -0.4336 -0.8484 -0.3634
  403MOL0     H54338  11.156   5.731   7.606  1.0978 -0.9475  1.6098
  403MOL0     H54339  11.179   5.850   7.403 -0.9225 -2.5039 -0.4994
  403MOL0     H54340  11.247   5.737   7.142 -1.5139  0.4920 -1.6487
  403MOL0     H54341  11.207   5.910   7.139 -0.6956 -0.2768 -0.9622
  403MOL0     H54342  11.397   5.748   6.982 -4.4475 -3.3873  0.2380
  403MOL0     H54343  11.284   5.851   6.909 -0.3241  1.9806 -0.3542
  403MOL0     H54344  11.402   6.040   7.024 -1.3323 -1.7002  1.5617
  403MOL0     H54345  11.541   5.917   7.014 -1.5919 -2.7954  0.8619
  403MOL0     H54346  11.509   5.888   6.771  2.9235  0.0193  2.7637
  403MOL0     H54347  11.375   6.015   6.779 -0.0222 -0.1295  1.7773
  403MOL0     H54348  11.558   6.171   6.854  1.1348 -0.2421 -0.8996
  403MOL0     H54349  11.671   6.058   6.784  0.3246  1.2969  0.3054
  403MOL0     H54350  11.631   6.243   6.650 -1.8380  0.7951  1.7503
  403MOL0     H54351  11.591   6.096   6.557  1.5180  0.8694 -1.0983
  403MOL0     H54352  11.373   6.284   6.680 -0.7720 -1.3989  0.7063
  403MOL0     H54353  11.448   6.330   6.539  0.1738  1.2058  2.2735
  403MOL0     H54354  11.275   6.102   6.596  1.0702  1.0164  0.7720
  403MOL0     H54355  11.363   6.103   6.446  0.2302  2.4908 -1.6669
  403MOL0     H54356  11.307   6.299   6.257 -1.7652 -2.7343 -1.8317
  403MOL0     H54357  11.187   6.514   6.158 -0.3814  5.3126  3.7266
  403MOL0     H54358  11.061   6.389   6.129 -0.9485  1.9018 -0.4151
  403MOL0     H54359  11.000   6.628   6.103  0.5219  2.6980  0.9937
  403MOL0     H54360  11.034   6.655   6.273  1.3547  0.0184 -0.2298
  403MOL0     H54361  10.813   6.619   6.293  0.7816  0.9562  0.6273
  403MOL0     H54362  10.851   6.444   6.276  2.0395 -0.7545 -0.9090
  403MOL0     H54363  10.817   6.617   6.036  4.4838 -2.9383 -0.0237
  403MOL0     H54364  10.675   6.577   6.134  0.0228 -0.7773  2.5849
  403MOL0     H54365  10.694   6.204   5.932  0.4069 -1.6097 -2.5231
  403MOL0     H54366  10.437   6.133   5.717 -0.4320 -3.2608  1.7389
  403MOL0     H54367  10.602   6.071   5.670  2.0070  2.0188 -0.8755
  403MOL0     H54368  10.546   6.088   5.837 -0.7562 -2.6258 -0.7597
  403MOL0     H54369  10.251   6.584   5.394  1.1756 -3.1416  2.6401
  403MOL0     H54370  10.198   6.622   5.166 -0.4774  1.6406  2.2051
  403MOL0     H54371  10.416   6.632   4.791  1.0391  0.7375  0.4969
  403MOL0     H54372  10.537   6.558   4.895 -0.3564  1.3745  0.0910
  403MOL0     H54373  10.455   6.334   4.815  0.0241  0.8314  0.6336
  403MOL0     H54374  10.324   6.396   4.716 -0.1409  0.6846  0.6111
  403MOL0     H54375  10.497   6.522   4.588 -1.9880  2.1264  3.2748
  403MOL0     H54376  10.519   6.342   4.560  0.1315  0.7071  0.9134
  403MOL0     H54377  10.733   6.445   4.570  2.1140 -2.3797  1.4770
  403MOL0     H54378  10.689   6.541   4.707  1.2209  0.0966 -0.4939
  403MOL0     H54379  10.747   6.230   4.714 -1.4340 -0.6435  0.0713
  403MOL0     H54380  10.687   6.319   4.852  2.0663 -0.0824  0.7389
  403MOL0     H54381  10.867   6.483   4.811  0.2667 -0.5749  1.5930
  403MOL0     H54382  10.886   6.336   4.904  0.8041  1.9993  1.0892
  403MOL0     H54383  10.993   6.223   4.722 -2.9883  0.0993 -1.2397
  403MOL0     H54384  11.079   6.353   4.790 -1.4287  4.9408  1.2298
  403MOL0     H54385  11.135   6.387   4.589 -0.9076  0.5733 -2.4358
  403MOL0     H54386  11.003   6.509   4.628 -0.4669 -0.2645  2.3233
  403MOL0     H54387  10.562   6.412   5.050  0.6258 -1.6104  3.1463
  403MOL0     H54388  10.606   6.384   5.272  0.3230  0.6885  0.2307
  403MOL0     H54389  10.624   6.592   5.638 -3.3535 -1.3121 -0.7587
  403MOL0     H54390  10.738   6.625   5.859 -2.9338  1.7751 -1.5539
  403MOL0     H54391  11.566   5.670   7.322  0.4496 -1.1833 -0.2647
  403MOL0     H54392  11.557   5.562   7.514 -0.0928 -0.1380  1.1011
  403MOL0     H54393  11.513   5.469   7.882  3.4570 -3.7908  1.4633
  403MOL0     H54394  11.587   5.383   8.078 -0.6891 -1.6283 -0.9959
  403MOL0     H54395  11.620   5.236   8.271  1.6057  0.2286  0.8143
  403MOL0     H54396  11.605   5.398   8.336  2.1212 -1.5458  0.9699
  403MOL0     H54397  11.544   5.329   8.547 -0.8286 -0.5150 -0.9139
  403MOL0     H54398  11.679   5.218   8.498  0.8743  0.2817 -1.4939
  403MOL0     H54399  11.518   5.044   8.424 -0.9272 -0.2783 -1.2405
  403MOL0     H54400  11.384   5.135   8.509 -0.8922  0.7802 -2.5755
  403MOL0     H54401  11.638   5.060   8.653 -0.8956  3.6363  2.0295
  403MOL0     H54402  11.491   4.953   8.646 -0.0810 -0.0197  0.3858
  403MOL0     H54403  11.418   5.270   8.922  0.1565 -2.2441  1.1610
  403MOL0     H54404  11.192   5.364   8.244  0.5829 -0.9692 -0.4182
  403MOL0     H54405  11.111   5.486   8.030  0.8750  2.7452 -1.7277
  404MOL0     O54406   9.554   4.134   3.717  0.0037  0.3425  1.0641
  404MOL0     C54407   9.558   4.116   3.596  0.6235  0.1260  0.2524
  404MOL0     O54408   9.660   4.145   3.519 -0.2734  0.7748  0.3839
  404MOL0     C54409   9.785   4.158   3.580  0.0745  0.6592  0.5351
  404MOL0     C54410   9.877   4.056   3.565  0.1094  1.2420  0.1827
  404MOL0     C54411   9.990   4.044   3.649  0.5308  0.2045 -0.0254
  404MOL0     C54412  10.030   4.162   3.719 -0.8184 -0.6761  0.3757
  404MOL0     O54413  10.156   4.192   3.785  0.1600  0.0763  0.8296
  404MOL0     C54414  10.269   4.121   3.727  0.4427 -0.5071 -0.1577
  404MOL0     C54415  10.297   4.169   3.574  0.2077  0.0052 -1.5381
  404MOL0     C54416  10.367   4.308   3.560  0.2503 -0.0101 -0.2690
  404MOL0     C54417  10.505   4.317   3.628  0.7559 -0.2054 -1.2457
  404MOL0     C54418  10.578   4.437   3.589 -0.1701  1.3016  0.6612
  404MOL0     C54419  10.707   4.382   3.519 -0.6737 -0.9769  0.8795
  404MOL0     C54420  10.793   4.487   3.455 -0.3007 -0.3991 -0.7126
  404MOL0     C54421  10.724   4.596   3.377  0.4005  0.9484  0.2217
  404MOL0     N54422  10.829   4.675   3.312  0.6809  0.3174 -0.3562
  404MOL0     C54423  10.929   4.749   3.375  0.5245 -0.3853  0.2821
  404MOL0     C54424  11.005   4.791   3.270  1.3775 -0.2373  0.1233
  404MOL0     C54425  11.111   4.899   3.269 -0.6482 -0.4708 -0.5721
  404MOL0     C54426  11.052   5.033   3.295 -0.9730  0.2516  0.0178
  404MOL0     C54427  11.155   5.147   3.283  0.8678 -0.4214  0.1342
  404MOL0     C54428  11.073   5.278   3.292  0.0293  0.5119  0.5107
  404MOL0     O54429  11.171   5.372   3.254 -0.1652 -0.0434 -1.3999
  404MOL0     C54430  11.150   5.506   3.278  1.3039  0.9899 -0.5871
  404MOL0     C54431  11.048   5.559   3.359  0.5383 -0.3413 -0.3063
  404MOL0     C54432  11.041   5.697   3.383 -0.1257 -0.5724  0.3057
  404MOL0     C54433  10.926   5.762   3.470 -0.4741  0.0575 -0.9990
  404MOL0     C54434  11.129   5.780   3.324 -0.0025  0.2784  0.5904
  404MOL0     C54435  11.120   5.927   3.327  0.5697 -0.2336 -0.9345
  404MOL0     O54436  11.104   6.004   3.212  0.1883  0.4415  0.4817
  404MOL0     C54437  11.064   5.936   3.097 -1.5785  0.2291 -0.7821
  404MOL0     C54438  10.934   5.930   3.069  0.0955  0.3984  0.6270
  404MOL0     C54439  10.889   5.867   2.941 -0.9090 -0.2822 -0.2032
  404MOL0     C54440  10.981   5.810   2.856 -0.4167  0.6862 -0.1248
  404MOL0     O54441  10.955   5.730   2.747  0.9540  0.1310 -0.7802
  404MOL0     C54442  10.843   5.789   2.666  0.2031 -0.3011 -0.0902
  404MOL0     C54443  10.849   5.737   2.528 -0.0973 -0.0822 -0.5798
  404MOL0     C54444  10.719   5.767   2.450 -0.3944  0.5509  0.9575
  404MOL0     C54445  10.678   5.659   2.343 -0.1028  1.3149 -1.3904
  404MOL0     C54446  10.750   5.664   2.204 -0.5694  0.8334 -0.0684
  404MOL0     C54447  10.701   5.552   2.116 -0.0182 -0.0025 -0.3392
  404MOL0     C54448  10.558   5.526   2.108 -0.1990  0.1094  0.1360
  404MOL0     C54449  10.534   5.431   1.988  0.8947  1.5603  0.8208
  404MOL0    Cl54450  10.605   5.273   2.003 -0.2639  0.6370 -0.1940
  404MOL0     C54451  11.119   5.827   2.888  0.3700  0.1722  0.5739
  404MOL0     C54452  11.159   5.884   3.008 -0.2146  0.1056 -0.9876
  404MOL0     O54453  11.166   5.965   3.431 -0.6702 -0.1222 -0.2849
  404MOL0     C54454  11.232   5.727   3.258 -0.6301  0.3677 -0.1581
  404MOL0     C54455  11.244   5.593   3.232  0.4650 -0.1120  0.1460
  404MOL0     N54456  10.957   4.727   3.155 -0.7697  0.4745  0.2620
  404MOL0     N54457  10.851   4.669   3.178 -0.1418 -0.1771 -0.1214
  404MOL0     C54458   9.934   4.265   3.722 -0.7243 -0.2437  0.4121
  404MOL0     C54459   9.816   4.268   3.657  0.5083  0.5682  0.2790
  404MOL0     C54460   9.448   4.059   3.515 -0.7772 -0.7789 -0.2860
  404MOL0     C54461   9.467   4.010   3.381 -0.4227  0.0347  0.5680
  404MOL0     C54462   9.360   3.974   3.301 -0.5104  0.8929 -0.7256
  404MOL0     C54463   9.224   3.978   3.351 -1.3191  0.3377  0.4406
  404MOL0     O54464   9.116   3.934   3.288  0.1554  0.3379  0.3911
  404MOL0     C54465   9.089   3.985   3.153  0.9154  0.1150  0.6241
  404MOL0     C54466   8.974   3.919   3.078  0.0390 -0.2522 -0.5135
  404MOL0     C54467   8.997   3.770   3.108  0.5505  0.0343  0.3428
  404MOL0     C54468   8.921   3.685   2.997  0.0843 -0.3077 -0.5739
  404MOL0     C54469   8.775   3.704   3.017  0.3797 -0.2116  0.4410
  404MOL0     C54470   8.647   3.704   3.021 -0.1041  0.5367 -0.2697
  404MOL0     C54471   9.210   4.023   3.482  0.0083  0.7087 -0.8399
  404MOL0     C54472   9.316   4.062   3.565 -0.3851 -0.4338  0.0981
  404MOL0     H54473   9.850   3.977   3.495 -0.7943  1.6817  0.0194
  404MOL0     H54474  10.058   3.959   3.640 -2.2445 -1.9491 -2.6281
  404MOL0     H54475  10.364   4.121   3.781  0.5531 -0.9798 -0.3472
  404MOL0     H54476  10.243   4.015   3.728  2.9752 -1.2189 -1.0878
  404MOL0     H54477  10.354   4.087   3.530 -2.9111 -2.7284 -0.8565
  404MOL0     H54478  10.205   4.167   3.515 -1.0261 -0.7167  0.3302
  404MOL0     H54479  10.366   4.336   3.454  0.3220 -1.5372 -0.6854
  404MOL0     H54480  10.304   4.380   3.614 -1.9486 -0.7986 -1.6275
  404MOL0     H54481  10.489   4.319   3.736  1.7907  2.2144 -1.0794
  404MOL0     H54482  10.558   4.223   3.609 -0.6261 -0.9261 -1.6652
  404MOL0     H54483  10.529   4.496   3.511  2.7579  1.2037 -1.4245
  404MOL0     H54484  10.597   4.501   3.676  0.5572  1.6321  0.2651
  404MOL0     H54485  10.778   4.334   3.587  1.8101  1.3451  0.1386
  404MOL0     H54486  10.681   4.314   3.437 -0.5535 -1.2109  1.0345
  404MOL0     H54487  10.841   4.543   3.536 -1.6745  0.4380 -0.4563
  404MOL0     H54488  10.876   4.447   3.395 -0.9844 -2.1986 -0.4971
  404MOL0     H54489  10.665   4.650   3.452  2.7197  4.3780 -0.1841
  404MOL0     H54490  10.658   4.549   3.303 -0.7774  1.7525  0.7288
  404MOL0     H54491  10.934   4.788   3.476  0.1237 -1.3873  0.7029
  404MOL0     H54492  11.183   4.872   3.346 -0.8038 -1.8920 -0.8968
  404MOL0     H54493  11.164   4.887   3.174  2.4355 -0.6407  1.0571
  404MOL0     H54494  11.007   5.035   3.395 -1.6155 -2.9271 -0.1183
  404MOL0     H54495  10.980   5.041   3.213 -0.9227  0.1266 -0.0384
  404MOL0     H54496  11.200   5.132   3.184 -0.0148  0.8694 -0.4919
  404MOL0     H54497  11.221   5.149   3.370  1.5121  0.3232 -0.3598
  404MOL0     H54498  11.038   5.299   3.393 -2.8798 -3.5931  0.6320
  404MOL0     H54499  10.989   5.267   3.222  1.3121 -1.4243 -0.8233
  404MOL0     H54500  10.981   5.495   3.416 -0.9014  1.0371 -0.4111
  404MOL0     H54501  10.833   5.781   3.416 -0.3863  2.5752 -0.3841
  404MOL0     H54502  10.902   5.698   3.555 -2.6543  1.0912 -0.7908
  404MOL0     H54503  10.956   5.863   3.500 -1.5729  0.8920 -2.5483
  404MOL0     H54504  10.867   5.981   3.137  2.3211  3.8473  0.4802
  404MOL0     H54505  10.782   5.855   2.927 -0.7436 -2.5274  0.0797
  404MOL0     H54506  10.750   5.746   2.706  1.2084 -1.6283  0.9319
  404MOL0     H54507  10.837   5.897   2.652  0.0148 -0.5030 -1.7916
  404MOL0     H54508  10.932   5.784   2.474  1.2162  0.1984  1.5616
  404MOL0     H54509  10.872   5.631   2.520 -1.1669 -0.3728 -0.0025
  404MOL0     H54510  10.740   5.857   2.391 -2.5607  1.2226  1.1400
  404MOL0     H54511  10.635   5.792   2.516 -1.4862  1.1515 -0.5959
  404MOL0     H54512  10.689   5.563   2.394 -1.2499  0.6673 -2.2963
  404MOL0     H54513  10.569   5.658   2.338 -0.5909 -1.2889  3.7004
  404MOL0     H54514  10.855   5.664   2.234 -0.4537 -2.0385 -0.1917
  404MOL0     H54515  10.724   5.755   2.150 -2.2378  1.7292  2.0521
  404MOL0     H54516  10.742   5.574   2.017  1.4052  1.7773  0.5890
  404MOL0     H54517  10.753   5.465   2.157 -1.0465  0.2090  1.5401
  404MOL0     H54518  10.513   5.625   2.107  0.3503  0.5213 -4.6730
  404MOL0     H54519  10.525   5.474   2.199 -1.9303  0.6456 -0.1549
  404MOL0     H54520  10.583   5.480   1.903 -0.6736 -1.3015 -1.9496
  404MOL0     H54521  10.428   5.416   1.968  1.5712  1.7495 -4.3336
  404MOL0     H54522  11.193   5.794   2.815  0.5599  1.7170  0.0063
  404MOL0     H54523  11.266   5.878   3.023 -0.2425 -1.2149 -1.2480
  404MOL0     H54524  11.300   5.802   3.218 -1.8658  1.7177  0.1655
  404MOL0     H54525  11.319   5.559   3.162  1.5599 -0.6815  1.5456
  404MOL0     H54526   9.966   4.350   3.783  0.0439  0.9519 -1.5593
  404MOL0     H54527   9.747   4.350   3.674 -1.9919 -1.7534  2.4481
  404MOL0     H54528   9.566   4.011   3.337 -0.3490  3.5477  0.5178
  404MOL0     H54529   9.358   3.938   3.199 -0.8029 -1.5092  0.0699
  404MOL0     H54530   9.045   4.084   3.167 -2.3777 -0.8878 -1.4463
  404MOL0     H54531   9.180   3.973   3.094  0.1371  2.4874 -1.2549
  404MOL0     H54532   8.981   3.944   2.972  3.5414  2.5184  0.1869
  404MOL0     H54533   8.879   3.958   3.114  1.3942  4.0198 -1.0560
  404MOL0     H54534   8.969   3.745   3.210 -0.6381  0.5838  0.1701
  404MOL0     H54535   9.101   3.740   3.097 -0.0691 -2.1723 -0.1166
  404MOL0     H54536   8.956   3.581   3.001  2.3828  0.4498  0.6096
  404MOL0     H54537   8.949   3.724   2.899 -0.9843  3.2639  0.4197
  404MOL0     H54538   8.542   3.701   3.041 -0.0683  0.6931 -0.0449
  404MOL0     H54539   9.113   4.025   3.530 -0.3783  0.2409 -1.5931
  404MOL0     H54540   9.289   4.110   3.659 -0.7383  0.1083 -0.2755
  405MOL0     O54541  10.332   7.083   5.623  0.1802 -0.3567  0.1047
  405MOL0     C54542  10.239   7.045   5.694  0.6424 -0.1274  0.4954
  405MOL0     O54543  10.138   7.130   5.743  0.2110 -0.7499  0.3328
  405MOL0     C54544  10.155   7.259   5.729  1.0221  0.1778  0.3956
  405MOL0     C54545  10.123   7.317   5.607 -0.1803 -0.0718 -1.4261
  405MOL0     C54546  10.118   7.461   5.604 -0.1464  1.4256 -0.8995
  405MOL0     C54547  10.164   7.536   5.705 -0.0007  0.6764 -0.3454
  405MOL0     O54548  10.163   7.676   5.706 -0.3768 -0.0583  0.2235
  405MOL0     C54549  10.186   7.743   5.580 -0.2079  0.1544 -1.0021
  405MOL0     C54550  10.208   7.888   5.621  0.4284  0.3668  0.4569
  405MOL0     C54551  10.285   7.962   5.522 -0.7886  0.0793  0.2761
  405MOL0     C54552  10.310   8.110   5.555  0.2187 -0.8452 -1.4073
  405MOL0     C54553  10.398   8.166   5.435 -0.4697 -0.7277 -0.0254
  405MOL0     C54554  10.464   8.302   5.470 -0.0623  0.9730 -0.8149
  405MOL0     C54555  10.576   8.293   5.573  1.0769  0.0246  0.0210
  405MOL0     C54556  10.539   8.371   5.705  0.5019  0.0287 -0.7652
  405MOL0     N54557  10.626   8.342   5.820 -0.1465 -0.1569 -0.6154
  405MOL0     C54558  10.747   8.277   5.830  1.1658  0.4031 -0.3122
  405MOL0     C54559  10.771   8.257   5.959  0.0560  0.4884  0.8976
  405MOL0     C54560  10.890   8.182   6.012  0.8012 -0.4502  0.3746
  405MOL0     C54561  11.014   8.275   6.035  0.8485 -0.9539 -0.0325
  405MOL0     C54562  11.076   8.310   5.904 -0.1104  0.0617 -0.5913
  405MOL0     C54563  11.197   8.399   5.925  0.0023  0.0921 -0.0977
  405MOL0     O54564  11.168   8.532   5.978  0.5454  0.5240 -0.4035
  405MOL0     C54565  11.258   8.634   5.968  0.8388  0.3008 -1.2911
  405MOL0     C54566  11.392   8.624   5.945  0.1812 -0.1689 -0.0029
  405MOL0     C54567  11.468   8.735   5.954 -0.5607 -0.0465  0.4953
  405MOL0     C54568  11.617   8.705   5.951  0.6655 -0.3631 -0.9096
  405MOL0     C54569  11.416   8.867   5.971  0.7273 -0.5502 -0.9279
  405MOL0     C54570  11.492   8.994   5.972 -1.5721  0.2058  0.7156
  405MOL0     O54571  11.420   9.111   5.985 -0.5134 -0.8548 -0.1712
  405MOL0     C54572  11.484   9.232   5.967  1.0523  0.0095 -0.4250
  405MOL0     C54573  11.604   9.263   6.032 -0.0679  0.6257  0.3620
  405MOL0     C54574  11.672   9.383   6.000 -0.4029  0.6800 -0.0093
  405MOL0     C54575  11.614   9.475   5.916  0.5067 -0.9951  0.2973
  405MOL0     O54576  11.648   9.603   5.888 -0.2948  0.1336 -0.9127
  405MOL0     C54577  11.753   9.674   5.959  0.1282 -0.6851  1.0190
  405MOL0     C54578  11.705   9.813   5.976  0.3215 -0.0866 -0.2424
  405MOL0     C54579  11.561   9.825   6.039 -0.3268  0.3503 -0.0402
  405MOL0     C54580  11.541   9.972   6.061  0.1257  0.2881 -0.2094
  405MOL0     C54581  11.406  10.007   6.117 -0.1269 -0.1303 -0.4042
  405MOL0     C54582  11.379   9.923   6.243 -0.1497 -0.2381  0.0475
  405MOL0     C54583  11.295   9.984   6.350 -0.0854  0.1032  1.1817
  405MOL0     C54584  11.294   9.902   6.483 -0.4984  0.6983  0.6891
  405MOL0    Cl54585  11.446   9.898   6.579  0.4299  0.1623  0.0856
  405MOL0     C54586  11.497   9.439   5.848 -0.5684  1.3012 -0.4875
  405MOL0     C54587  11.435   9.319   5.867 -0.1565  0.1575 -0.7013
  405MOL0     O54588  11.611   8.994   5.940 -0.2229 -0.1130  0.0163
  405MOL0     C54589  11.280   8.880   6.006 -0.2380  0.6790 -0.3677
  405MOL0     C54590  11.205   8.761   5.981 -0.3685 -0.7642 -0.3696
  405MOL0     N54591  10.668   8.308   6.039  0.0899  0.5583  0.9221
  405MOL0     N54592  10.581   8.345   5.946 -0.1453 -1.3628  0.3404
  405MOL0     C54593  10.199   7.475   5.827 -0.6316  0.0364  0.7215
  405MOL0     C54594  10.191   7.340   5.841  0.9054  0.5791 -0.1846
  405MOL0     C54595  10.207   6.901   5.724  0.0169 -0.2784  0.3036
  405MOL0     C54596  10.099   6.862   5.812 -0.8506 -0.8116 -0.1402
  405MOL0     C54597  10.063   6.731   5.825  0.4379  0.2172 -1.1763
  405MOL0     C54598  10.136   6.631   5.766  0.4265  0.0081  0.8197
  405MOL0     O54599  10.119   6.500   5.786 -0.3051  0.0482 -0.6296
  405MOL0     C54600  10.079   6.421   5.668 -0.1546  0.0026  0.8090
  405MOL0     C54601   9.942   6.474   5.611 -0.7610 -0.2636 -0.2113
  405MOL0     C54602   9.896   6.389   5.491 -0.3633 -0.4122 -0.5763
  405MOL0     C54603   9.777   6.451   5.426  0.8769 -0.7277  0.3014
  405MOL0     C54604   9.811   6.489   5.286 -0.2217  0.3946 -0.1529
  405MOL0     C54605   9.844   6.528   5.182 -0.8842 -0.6090  0.7401
  405MOL0     C54606  10.245   6.673   5.686  0.6425 -0.3132  0.7623
  405MOL0     C54607  10.292   6.801   5.674  0.9003  0.0546  0.7229
  405MOL0     H54608  10.078   7.256   5.529 -2.7240  0.0235 -0.1385
  405MOL0     H54609  10.072   7.516   5.523  1.2122  2.4814 -0.9771
  405MOL0     H54610  10.279   7.704   5.538  0.8499 -2.2713  3.0803
  405MOL0     H54611  10.098   7.731   5.516  0.8722  2.8423 -3.1995
  405MOL0     H54612  10.108   7.934   5.626 -0.0935  0.0459 -3.7581
  405MOL0     H54613  10.260   7.902   5.717  1.5643 -1.3106  0.1102
  405MOL0     H54614  10.384   7.917   5.511 -0.9649 -0.6177  1.3771
  405MOL0     H54615  10.231   7.952   5.428 -0.6000 -1.2046  0.2789
  405MOL0     H54616  10.226   8.179   5.564  1.1873  0.0613  3.4123
  405MOL0     H54617  10.367   8.123   5.648  1.5699 -1.0422 -2.1773
  405MOL0     H54618  10.470   8.094   5.395 -1.9185 -1.0913 -2.1691
  405MOL0     H54619  10.329   8.189   5.354  1.6382 -0.0293 -1.7256
  405MOL0     H54620  10.497   8.343   5.374 -1.6663 -0.6796 -2.1627
  405MOL0     H54621  10.389   8.373   5.507  1.7398  3.6877 -2.1003
  405MOL0     H54622  10.580   8.190   5.609 -1.2817  0.1068  0.7086
  405MOL0     H54623  10.662   8.334   5.520  0.8270 -2.1429 -2.2942
  405MOL0     H54624  10.432   8.363   5.727  0.2684 -0.8147 -2.0870
  405MOL0     H54625  10.561   8.476   5.683  1.1655 -0.7045 -4.1702
  405MOL0     H54626  10.806   8.249   5.743  0.7184 -0.6364 -0.2944
  405MOL0     H54627  10.854   8.140   6.107 -0.6430  0.3328  0.1914
  405MOL0     H54628  10.930   8.109   5.941  1.0709  0.7634 -0.7693
  405MOL0     H54629  11.079   8.225   6.107  0.7201 -1.3623 -0.1958
  405MOL0     H54630  10.978   8.372   6.069  2.8455 -0.3794  0.5241
  405MOL0     H54631  11.005   8.368   5.844 -1.2903 -2.0050 -1.2745
  405MOL0     H54632  11.099   8.220   5.846  4.3465  0.1599  0.6483
  405MOL0     H54633  11.241   8.408   5.826 -2.4296 -3.3393 -1.6924
  405MOL0     H54634  11.266   8.349   5.994 -1.3997  0.5724  1.7460
  405MOL0     H54635  11.431   8.525   5.926 -0.6393 -0.8933  1.8451
  405MOL0     H54636  11.642   8.727   5.847 -1.7519 -0.8742 -1.6673
  405MOL0     H54637  11.677   8.762   6.023  0.1896 -1.5193  0.4599
  405MOL0     H54638  11.634   8.600   5.977 -2.5006 -0.8963 -0.5986
  405MOL0     H54639  11.657   9.194   6.096  1.4964  0.9856 -0.4882
  405MOL0     H54640  11.765   9.410   6.049 -1.7277 -0.0359  3.1280
  405MOL0     H54641  11.759   9.623   6.055 -4.4293  0.2078  2.0030
  405MOL0     H54642  11.851   9.681   5.910  0.5666 -2.6358  1.5584
  405MOL0     H54643  11.773   9.865   6.044  0.8255 -1.1185  0.0639
  405MOL0     H54644  11.696   9.863   5.879 -5.3681 -0.2564 -0.1326
  405MOL0     H54645  11.545   9.759   6.125 -0.4152  2.9038  1.9989
  405MOL0     H54646  11.494   9.786   5.962  0.5822  1.2044 -1.2959
  405MOL0     H54647  11.601  10.004   6.148 -1.3842 -1.5393  1.6107
  405MOL0     H54648  11.566  10.029   5.971  1.8845  0.4502  0.3346
  405MOL0     H54649  11.326   9.986   6.045 -0.7931  1.4952 -0.1954
  405MOL0     H54650  11.405  10.115   6.133 -0.4545 -0.3125  0.9376
  405MOL0     H54651  11.336   9.828   6.211  0.0146  0.0163 -0.9663
  405MOL0     H54652  11.470   9.894   6.296  0.1380  0.4959 -0.0316
  405MOL0     H54653  11.189   9.977   6.324  0.6561 -3.8791 -1.4955
  405MOL0     H54654  11.315  10.091   6.362 -1.5089  0.9294 -2.5585
  405MOL0     H54655  11.266   9.800   6.458 -0.2310 -0.0408  3.1372
  405MOL0     H54656  11.217   9.940   6.551 -0.1504  0.3634  1.2775
  405MOL0     H54657  11.450   9.512   5.782 -1.7088 -1.0837 -2.4904
  405MOL0     H54658  11.353   9.297   5.799  0.5127  0.4498 -1.6105
  405MOL0     H54659  11.218   8.961   6.043  0.0120  0.2899  0.9661
  405MOL0     H54660  11.100   8.740   5.997  0.3836 -5.5739 -0.2929
  405MOL0     H54661  10.226   7.541   5.908 -1.4538  1.3202 -0.0107
  405MOL0     H54662  10.215   7.291   5.935 -0.4369 -2.7870 -1.4517
  405MOL0     H54663  10.045   6.950   5.843  1.4710  1.7860 -2.9031
  405MOL0     H54664   9.991   6.689   5.894  2.6319  1.5907  2.2245
  405MOL0     H54665  10.150   6.430   5.586 -1.5022 -1.1030 -0.5354
  405MOL0     H54666  10.074   6.314   5.692  2.2666  0.0707  1.8689
  405MOL0     H54667   9.947   6.577   5.574 -2.5538  0.4903  1.4749
  405MOL0     H54668   9.872   6.470   5.695  0.0568 -1.0302  0.4493
  405MOL0     H54669   9.878   6.284   5.519  0.9165 -0.4384  0.2429
  405MOL0     H54670   9.981   6.392   5.423  1.3728  1.4254  1.5237
  405MOL0     H54671   9.747   6.546   5.471 -0.3994 -0.4359 -1.0848
  405MOL0     H54672   9.684   6.392   5.430  0.2868  0.0794 -0.8603
  405MOL0     H54673   9.867   6.590   5.097 -1.4637  1.0905  1.7786
  405MOL0     H54674  10.310   6.597   5.643  0.6350 -0.0974  0.3621
  405MOL0     H54675  10.387   6.826   5.629  1.0879  0.0962  1.1390
  406MOL0     O54676   1.491   0.318   3.799  0.1308 -0.3362  0.8013
  406MOL0     C54677   1.529   0.331   3.913 -0.3366  0.6983  0.8835
  406MOL0     O54678   1.660   0.334   3.958 -0.3792  0.2847  0.6868
  406MOL0     C54679   1.763   0.303   3.869 -0.2849 -0.1508  0.2627
  406MOL0     C54680   1.879   0.369   3.900 -0.0444 -0.3291  0.1984
  406MOL0     C54681   2.008   0.345   3.843 -0.0921  0.1473  0.4427
  406MOL0     C54682   2.010   0.250   3.740 -0.8308  1.1430  0.4446
  406MOL0     O54683   2.123   0.216   3.674 -0.5900  0.2507  1.0781
  406MOL0     C54684   2.109   0.149   3.549 -0.9135  0.7549 -1.1701
  406MOL0     C54685   2.246   0.120   3.483 -0.2399  0.1736 -0.4666
  406MOL0     C54686   2.353   0.098   3.594  0.3190  0.4652 -0.4425
  406MOL0     C54687   2.479   0.044   3.519  0.1139 -0.9986  0.3598
  406MOL0     C54688   2.569  -0.022   3.624 -0.0395 -1.5953 -0.0153
  406MOL0     C54689   2.724  -0.042   3.587 -0.6274 -0.5100 -0.7232
  406MOL0     C54690   2.809  -0.095   3.704 -0.0877 -0.4846  0.7399
  406MOL0     C54691   2.946  -0.144   3.650 -0.8738  0.0644 -0.4419
  406MOL0     N54692   2.949  -0.271   3.570  0.5636 -0.7364  0.3220
  406MOL0     C54693   2.963  -0.275   3.437  0.4067  0.2112  0.6876
  406MOL0     C54694   2.950  -0.397   3.403  0.2182  0.5300  0.0671
  406MOL0     C54695   2.934  -0.458   3.260 -1.2422 -0.1450  0.1044
  406MOL0     C54696   2.780  -0.462   3.217  0.4911 -0.1727  0.5318
  406MOL0     C54697   2.686  -0.582   3.268 -0.9073  0.0445  1.3910
  406MOL0     C54698   2.748  -0.722   3.235 -0.0508 -1.6760 -0.0823
  406MOL0     O54699   2.812  -0.735   3.110 -0.2763  0.9143  0.3966
  406MOL0     C54700   2.737  -0.789   3.009  1.3446 -1.0398 -0.9351
  406MOL0     C54701   2.670  -0.917   3.007  0.2242  0.2076  0.2178
  406MOL0     C54702   2.593  -0.945   2.890  0.8456 -1.2020  0.4929
  406MOL0     C54703   2.522  -1.080   2.893 -1.2690 -0.1718 -1.0183
  406MOL0     C54704   2.614  -0.871   2.768  0.8366 -0.0246  0.6321
  406MOL0     C54705   2.554  -0.901   2.640 -0.8144 -0.2601 -0.2123
  406MOL0     O54706   2.504  -0.797   2.569  0.1597  0.6633 -0.3547
  406MOL0     C54707   2.386  -0.803   2.502  0.0378  0.4249  0.3602
  406MOL0     C54708   2.291  -0.898   2.510 -0.7111 -0.9818 -0.4195
  406MOL0     C54709   2.172  -0.904   2.432  0.1141  0.0230 -0.9101
  406MOL0     C54710   2.133  -0.794   2.359 -0.0750  0.0680 -0.0819
  406MOL0     O54711   2.007  -0.785   2.302 -0.5557 -0.0980 -0.2408
  406MOL0     C54712   1.993  -0.719   2.177 -0.0810  0.6086 -0.3388
  406MOL0     C54713   1.873  -0.779   2.103  0.6870  0.6637  0.6072
  406MOL0     C54714   1.850  -0.700   1.975  0.0392 -0.2745  0.8924
  406MOL0     C54715   1.735  -0.754   1.892 -1.2618 -0.7523 -0.2997
  406MOL0     C54716   1.756  -0.704   1.748  0.1840 -0.3562  0.0399
  406MOL0     C54717   1.636  -0.774   1.673 -0.0046 -0.2197  0.6119
  406MOL0     C54718   1.664  -0.777   1.529  0.1235 -0.4216 -0.5617
  406MOL0     C54719   1.563  -0.860   1.457  1.1473  0.6005  0.1828
  406MOL0    Cl54720   1.413  -0.764   1.455  0.2359 -0.1906 -0.0588
  406MOL0     C54721   2.237  -0.692   2.333  0.7065  1.1176 -0.1272
  406MOL0     C54722   2.362  -0.703   2.408 -0.2910  0.3197  0.0910
  406MOL0     O54723   2.560  -1.015   2.596  0.8453 -0.1660  0.2070
  406MOL0     C54724   2.698  -0.763   2.774 -0.7639 -0.0393  0.0810
  406MOL0     C54725   2.746  -0.717   2.896 -0.0962  0.3546  0.4316
  406MOL0     N54726   2.935  -0.472   3.517  0.1819  0.3969  0.1780
  406MOL0     N54727   2.927  -0.394   3.620  0.5626 -0.5560 -0.3562
  406MOL0     C54728   1.890   0.181   3.714 -0.4823 -0.5908  0.9349
  406MOL0     C54729   1.768   0.205   3.771 -0.7922  1.2373  0.7216
  406MOL0     C54730   1.418   0.341   4.016  0.2190  0.8594 -1.2447
  406MOL0     C54731   1.436   0.268   4.138  0.3588 -0.6708  0.0042
  406MOL0     C54732   1.349   0.282   4.241  0.3558 -0.2176 -1.1144
  406MOL0     C54733   1.237   0.368   4.225  0.3255  0.1844  0.1068
  406MOL0     O54734   1.134   0.397   4.317 -0.0271  0.1172  0.5617
  406MOL0     C54735   1.158   0.339   4.451 -0.4352  0.2172 -0.3424
  406MOL0     C54736   1.025   0.309   4.522  0.7568 -0.8475  0.1138
  406MOL0     C54737   1.032   0.271   4.673 -0.6202  0.5180  0.7854
  406MOL0     C54738   1.024   0.387   4.774 -0.4739  0.2228  0.5991
  406MOL0     C54739   1.107   0.370   4.897  0.1605  0.4062 -0.0145
  406MOL0     C54740   1.182   0.351   4.997 -0.3406  0.8367 -0.0426
  406MOL0     C54741   1.214   0.429   4.098 -0.1463  0.9390 -1.3289
  406MOL0     C54742   1.306   0.419   4.001  0.9393 -0.8606  0.0506
  406MOL0     H54743   1.857   0.447   3.972 -0.4212 -0.2745  0.0288
  406MOL0     H54744   2.102   0.397   3.853  0.4735 -1.0688  1.9814
  406MOL0     H54745   2.066   0.049   3.565  0.2647  0.5130  0.7955
  406MOL0     H54746   2.043   0.214   3.492  1.4821  4.4321 -0.0837
  406MOL0     H54747   2.230   0.036   3.415 -0.4140  0.4467 -0.7697
  406MOL0     H54748   2.295   0.201   3.427  0.9990  0.4237  0.9283
  406MOL0     H54749   2.354   0.180   3.666 -0.7164  2.5177 -2.6089
  406MOL0     H54750   2.321   0.013   3.654 -0.0363  2.1509  1.8818
  406MOL0     H54751   2.463  -0.010   3.425  1.4728  0.8352 -1.0184
  406MOL0     H54752   2.539   0.127   3.481 -0.7887 -1.1287 -1.4822
  406MOL0     H54753   2.575   0.047   3.708  2.3205 -0.1942 -1.2287
  406MOL0     H54754   2.527  -0.116   3.662 -0.0829 -1.2896  0.6975
  406MOL0     H54755   2.727  -0.119   3.508  1.4222 -0.9634 -0.2500
  406MOL0     H54756   2.773   0.042   3.537 -0.9566 -0.5792 -1.1773
  406MOL0     H54757   2.827  -0.009   3.770 -3.9009  2.3378 -1.4532
  406MOL0     H54758   2.760  -0.173   3.763 -2.5333 -0.3890 -0.9939
  406MOL0     H54759   2.995  -0.173   3.743 -0.4880  2.3695  0.1282
  406MOL0     H54760   2.989  -0.053   3.609  2.6232 -0.4874  1.6837
  406MOL0     H54761   2.946  -0.198   3.362 -0.5250 -0.4600  0.1916
  406MOL0     H54762   2.982  -0.404   3.178 -1.3326  0.4360  0.4313
  406MOL0     H54763   2.969  -0.561   3.247 -0.7522  0.0808 -0.3830
  406MOL0     H54764   2.776  -0.473   3.108 -3.0323  0.0042  0.5371
  406MOL0     H54765   2.737  -0.362   3.231  0.5739 -0.2375  1.2722
  406MOL0     H54766   2.589  -0.584   3.218 -0.1770 -1.7868 -0.0341
  406MOL0     H54767   2.673  -0.557   3.374 -3.1043  2.4518  0.6530
  406MOL0     H54768   2.671  -0.799   3.242  1.4668 -3.2014  0.2745
  406MOL0     H54769   2.814  -0.740   3.320 -0.0312 -4.5980 -0.6248
  406MOL0     H54770   2.659  -0.990   3.087 -0.9756 -0.7800 -0.8087
  406MOL0     H54771   2.447  -1.074   2.813  0.1202 -1.5246 -2.4947
  406MOL0     H54772   2.594  -1.162   2.880  0.7740  1.2055  0.9859
  406MOL0     H54773   2.469  -1.097   2.987 -2.0559 -1.5959 -1.6848
  406MOL0     H54774   2.311  -0.990   2.563 -0.2979 -0.8584 -0.3567
  406MOL0     H54775   2.113  -0.996   2.436  2.9546 -1.8926  1.7598
  406MOL0     H54776   1.965  -0.615   2.195 -1.4546  0.0681  0.8518
  406MOL0     H54777   2.078  -0.735   2.110  2.4463 -0.0723  2.7613
  406MOL0     H54778   1.891  -0.886   2.096  1.5882  0.8719 -0.5100
  406MOL0     H54779   1.786  -0.769   2.168 -0.1111 -0.4879 -0.2594
  406MOL0     H54780   1.937  -0.702   1.909 -0.0757  2.2667  0.5933
  406MOL0     H54781   1.826  -0.595   1.992  0.0815  0.0555 -0.9189
  406MOL0     H54782   1.749  -0.863   1.900  0.5160 -0.6274 -1.1716
  406MOL0     H54783   1.634  -0.730   1.927 -0.8249 -0.3465  0.7136
  406MOL0     H54784   1.853  -0.736   1.708  1.6480  0.2648  2.8528
  406MOL0     H54785   1.757  -0.595   1.743 -0.2509 -0.3543  0.0352
  406MOL0     H54786   1.626  -0.873   1.718  1.0660 -0.8315 -0.4360
  406MOL0     H54787   1.544  -0.718   1.694 -0.7719 -0.6827 -1.3176
  406MOL0     H54788   1.757  -0.823   1.495  0.8023  0.8133 -0.4203
  406MOL0     H54789   1.673  -0.677   1.484 -1.2627 -0.3519 -0.7200
  406MOL0     H54790   1.554  -0.957   1.507  0.8267  2.6505  4.5546
  406MOL0     H54791   1.601  -0.869   1.355  0.6679 -2.2580  0.1637
  406MOL0     H54792   2.210  -0.608   2.270  2.1934  2.8889  1.4639
  406MOL0     H54793   2.445  -0.635   2.389 -0.2884  0.2946  0.0186
  406MOL0     H54794   2.717  -0.712   2.680 -0.2960 -1.8799 -0.8764
  406MOL0     H54795   2.804  -0.625   2.906  1.0278 -0.3209  0.3675
  406MOL0     H54796   1.892   0.100   3.642 -0.7293 -0.7135  1.0651
  406MOL0     H54797   1.688   0.135   3.749  2.4325 -2.5166 -0.3571
  406MOL0     H54798   1.515   0.195   4.141  1.2826  0.2713 -0.6173
  406MOL0     H54799   1.378   0.245   4.339 -2.0010  3.1727  1.0842
  406MOL0     H54800   1.208   0.242   4.449 -1.9912 -0.6209 -0.1400
  406MOL0     H54801   1.216   0.404   4.518 -0.7175  2.7176 -2.3349
  406MOL0     H54802   0.986   0.222   4.468 -0.3278 -1.2896  1.5596
  406MOL0     H54803   0.955   0.392   4.506  2.3042 -0.1341 -4.5493
  406MOL0     H54804   1.126   0.222   4.698  0.3835  0.6537 -2.3027
  406MOL0     H54805   0.954   0.198   4.697 -0.9769  1.3305  2.2932
  406MOL0     H54806   0.923   0.428   4.786 -0.7089 -0.2804  0.3489
  406MOL0     H54807   1.063   0.477   4.725  0.4610 -0.7819 -0.5634
  406MOL0     H54808   1.234   0.360   5.090  0.6427  0.0581 -0.5046
  406MOL0     H54809   1.118   0.478   4.086 -0.0461  1.8085  0.9603
  406MOL0     H54810   1.288   0.465   3.904 -2.6091  1.3004  1.5178
  407MOL0     O54811   0.136   8.740   3.183 -0.8893 -0.0795  0.1370
  407MOL0     C54812   0.214   8.825   3.233 -1.1444 -0.2326  0.0806
  407MOL0     O54813   0.169   8.939   3.308 -0.1405 -0.8821  0.2805
  407MOL0     C54814   0.038   8.965   3.313 -0.1425  0.8357 -0.0791
  407MOL0     C54815  -0.022   9.066   3.244 -0.5778 -0.0837  0.8771
  407MOL0     C54816  -0.160   9.091   3.240 -0.0115 -0.1357 -0.1343
  407MOL0     C54817  -0.249   9.010   3.306 -0.4118 -0.6645  0.0086
  407MOL0     O54818  -0.381   9.044   3.305  0.8761 -0.5722  0.0631
  407MOL0     C54819  -0.482   8.952   3.350  0.4476  0.5309 -0.3476
  407MOL0     C54820  -0.630   8.995   3.310 -0.2737 -0.5378 -0.0241
  407MOL0     C54821  -0.664   9.142   3.351 -0.5908  0.3659  0.8438
  407MOL0     C54822  -0.697   9.181   3.494  0.6718  0.0356  1.2298
  407MOL0     C54823  -0.711   9.330   3.530  0.0263  0.5402 -0.1135
  407MOL0     C54824  -0.810   9.410   3.444 -0.0566  0.3542 -0.0220
  407MOL0     C54825  -0.793   9.555   3.455 -0.3149 -0.0794 -0.5275
  407MOL0     C54826  -0.831   9.620   3.586  0.1137 -0.1634  0.6900
  407MOL0     N54827  -0.966   9.593   3.633  1.1878  0.8899 -0.4559
  407MOL0     C54828  -0.995   9.576   3.770 -0.2128  0.4395  0.5708
  407MOL0     C54829  -1.130   9.580   3.777 -0.3144 -0.1564 -0.7938
  407MOL0     C54830  -1.216   9.574   3.901  0.2600 -0.5660  0.8378
  407MOL0     C54831  -1.225   9.442   3.985  0.3132  0.0209  0.7465
  407MOL0     C54832  -1.092   9.403   4.039  0.6147  0.4166  0.0374
  407MOL0     C54833  -1.089   9.266   4.108 -0.4904 -0.1139  0.6993
  407MOL0     O54834  -0.971   9.273   4.196  0.5195 -0.4952 -0.2659
  407MOL0     C54835  -0.904   9.153   4.180 -0.0651 -0.9526 -1.2759
  407MOL0     C54836  -0.793   9.141   4.101 -0.5418 -0.4038 -0.6225
  407MOL0     C54837  -0.728   9.019   4.067 -0.4783 -0.1744  0.3822
  407MOL0     C54838  -0.606   9.010   3.963 -0.1210  0.6227 -0.7962
  407MOL0     C54839  -0.773   8.902   4.125 -0.0809  0.1288  0.8798
  407MOL0     C54840  -0.707   8.768   4.109 -1.4946 -0.4069  0.0156
  407MOL0     O54841  -0.565   8.777   4.120 -0.2753  0.1234 -0.3725
  407MOL0     C54842  -0.481   8.670   4.133 -0.1972  0.0394  0.6267
  407MOL0     C54843  -0.506   8.562   4.218 -0.7016 -0.2564 -0.1196
  407MOL0     C54844  -0.410   8.458   4.238  0.7082 -0.5083  1.0945
  407MOL0     C54845  -0.305   8.451   4.143  0.3572  0.5001 -0.2726
  407MOL0     O54846  -0.212   8.361   4.184  0.2114 -0.1502  0.4004
  407MOL0     C54847  -0.109   8.333   4.084  0.9070  0.3891 -0.2438
  407MOL0     C54848  -0.003   8.249   4.150  0.8616 -0.0193 -0.4535
  407MOL0     C54849   0.072   8.176   4.040  1.2699 -0.8924  0.2788
  407MOL0     C54850   0.142   8.278   3.952 -0.5326 -0.0012  0.7543
  407MOL0     C54851   0.252   8.199   3.875 -0.2840  0.8535 -0.5967
  407MOL0     C54852   0.307   8.269   3.755 -1.2254  0.2728  0.0852
  407MOL0     C54853   0.423   8.178   3.687 -0.1625 -0.3539 -0.1901
  407MOL0     C54854   0.481   8.224   3.551  0.3894  0.4055  0.0818
  407MOL0    Cl54855   0.394   8.132   3.426  0.0646  0.5141  0.0327
  407MOL0     C54856  -0.288   8.548   4.041  0.9609  0.4851  0.8239
  407MOL0     C54857  -0.375   8.656   4.038  0.2559 -0.5036 -0.3278
  407MOL0     O54858  -0.777   8.664   4.109  0.4409  0.4343 -0.3868
  407MOL0     C54859  -0.886   8.912   4.212 -0.4959  0.0518 -0.8711
  407MOL0     C54860  -0.953   9.039   4.241 -0.6068 -0.6197 -0.1139
  407MOL0     N54861  -1.184   9.615   3.659 -0.1657  0.4853 -0.1537
  407MOL0     N54862  -1.087   9.618   3.572 -0.2619  0.8627 -0.4520
  407MOL0     C54863  -0.186   8.908   3.390  0.0433 -0.4320  0.2570
  407MOL0     C54864  -0.046   8.887   3.389 -0.2124  0.5131  0.2420
  407MOL0     C54865   0.362   8.805   3.208 -1.1271  0.1936 -0.6199
  407MOL0     C54866   0.457   8.896   3.264  0.5281  0.9966  0.8958
  407MOL0     C54867   0.594   8.874   3.248 -0.4404 -0.1891  0.7484
  407MOL0     C54868   0.641   8.783   3.158 -0.0583 -0.5105 -0.2643
  407MOL0     O54869   0.775   8.780   3.141 -0.9400 -0.9945  0.3877
  407MOL0     C54870   0.841   8.687   3.223  0.5858 -0.0435 -0.1559
  407MOL0     C54871   0.978   8.656   3.153  0.0325 -0.0110  1.2168
  407MOL0     C54872   1.051   8.783   3.103  0.4028 -0.7890 -0.1452
  407MOL0     C54873   1.065   8.889   3.214  0.0208  0.2287 -0.2930
  407MOL0     C54874   1.138   9.001   3.150  0.3069  0.1352 -1.1999
  407MOL0     C54875   1.190   9.105   3.111  0.2609 -0.1767 -0.1134
  407MOL0     C54876   0.552   8.706   3.097  0.4074  0.4510  0.7751
  407MOL0     C54877   0.414   8.707   3.121  1.4930 -0.6328 -0.1340
  407MOL0     H54878   0.040   9.134   3.186  1.4530  0.6131  3.6467
  407MOL0     H54879  -0.200   9.170   3.177 -0.1163  1.4812  1.8629
  407MOL0     H54880  -0.464   8.851   3.312  1.8216  0.3810  0.5910
  407MOL0     H54881  -0.483   8.937   3.459 -0.4698  1.4650 -0.2203
  407MOL0     H54882  -0.626   8.990   3.201 -0.0949 -2.2541  0.0254
  407MOL0     H54883  -0.710   8.929   3.346 -1.1653  1.5742  2.1661
  407MOL0     H54884  -0.586   9.204   3.306  2.1075 -2.2650  1.5882
  407MOL0     H54885  -0.757   9.165   3.298  0.0730  0.5995 -0.2310
  407MOL0     H54886  -0.787   9.129   3.528 -2.8813 -0.4637 -6.6347
  407MOL0     H54887  -0.612   9.139   3.548  1.2194 -1.7629 -0.8749
  407MOL0     H54888  -0.742   9.350   3.633 -1.6517  1.2886 -0.7316
  407MOL0     H54889  -0.605   9.359   3.524  0.5111 -0.6171  1.9418
  407MOL0     H54890  -0.787   9.403   3.337 -1.0275 -0.9595 -0.1742
  407MOL0     H54891  -0.913   9.373   3.452  0.5519 -1.7267 -1.1009
  407MOL0     H54892  -0.688   9.582   3.446  0.0299 -0.8064  0.9900
  407MOL0     H54893  -0.857   9.597   3.377  0.3497 -1.3206 -1.7798
  407MOL0     H54894  -0.824   9.726   3.560  0.5391  0.4333  3.0082
  407MOL0     H54895  -0.758   9.596   3.663  0.3710  0.0612  0.5208
  407MOL0     H54896  -0.921   9.562   3.848  0.0645  2.3541  0.6845
  407MOL0     H54897  -1.188   9.660   3.962 -1.8197  0.6872  0.1522
  407MOL0     H54898  -1.313   9.593   3.854  1.2946  1.3369 -0.6957
  407MOL0     H54899  -1.282   9.362   3.935 -2.6720  1.1632  2.0688
  407MOL0     H54900  -1.291   9.445   4.072  3.6485 -0.6260  3.5240
  407MOL0     H54901  -1.070   9.478   4.115  0.3006 -0.1999  0.7594
  407MOL0     H54902  -1.015   9.406   3.961  2.7820 -1.1353  1.9935
  407MOL0     H54903  -1.080   9.187   4.033 -2.0600 -0.1550  0.5276
  407MOL0     H54904  -1.172   9.249   4.177  2.3333  0.0597  4.4532
  407MOL0     H54905  -0.761   9.235   4.058 -5.0053  1.6722 -0.0177
  407MOL0     H54906  -0.594   8.919   3.903  0.4899 -0.1277  0.4309
  407MOL0     H54907  -0.607   9.103   3.904 -1.5100 -1.1365 -3.7947
  407MOL0     H54908  -0.513   9.027   4.017 -1.5456 -1.8811  2.8356
  407MOL0     H54909  -0.595   8.556   4.280  0.8027  1.8380  2.4455
  407MOL0     H54910  -0.427   8.382   4.314  0.7662 -2.5780 -0.8352
  407MOL0     H54911  -0.170   8.300   4.000 -0.2382  0.6400  0.4693
  407MOL0     H54912  -0.060   8.427   4.054  2.9475 -0.7331 -0.6426
  407MOL0     H54913   0.066   8.300   4.217 -1.4246  0.1751  1.9094
  407MOL0     H54914  -0.053   8.165   4.199 -0.8488  1.0010 -0.3615
  407MOL0     H54915  -0.003   8.126   3.978  0.5831  1.5180 -0.9959
  407MOL0     H54916   0.142   8.107   4.088  1.1678 -0.1981  1.4599
  407MOL0     H54917   0.065   8.320   3.886 -0.0194 -1.6472 -0.9725
  407MOL0     H54918   0.189   8.365   3.999 -0.1112  0.3237 -0.2393
  407MOL0     H54919   0.206   8.106   3.840  1.2451  0.1073 -0.7025
  407MOL0     H54920   0.336   8.175   3.941 -0.4640  0.1262 -0.6300
  407MOL0     H54921   0.225   8.294   3.688  0.6864 -1.6314 -3.2155
  407MOL0     H54922   0.347   8.364   3.792  0.0444  0.4481 -1.6069
  407MOL0     H54923   0.383   8.076   3.679  1.0973 -0.7318 -3.0577
  407MOL0     H54924   0.507   8.175   3.756 -0.2637 -4.5314  0.0317
  407MOL0     H54925   0.588   8.199   3.549  1.0506  2.8528  0.8923
  407MOL0     H54926   0.470   8.331   3.532  0.8440  0.7051  1.4157
  407MOL0     H54927  -0.207   8.541   3.969  1.4395 -0.8218  1.4535
  407MOL0     H54928  -0.354   8.733   3.965  3.5607 -1.9421 -1.0803
  407MOL0     H54929  -0.926   8.829   4.271 -0.9824  1.1103  0.3418
  407MOL0     H54930  -1.038   9.038   4.309  0.4833  1.4863  1.4108
  407MOL0     H54931  -0.234   8.844   3.464  0.3932  0.3349  1.1648
  407MOL0     H54932  -0.016   8.800   3.447  0.3716  0.7892  0.3617
  407MOL0     H54933   0.429   8.981   3.325 -2.0451 -0.5256  2.0318
  407MOL0     H54934   0.661   8.944   3.296 -2.3643  1.7250  0.7854
  407MOL0     H54935   0.856   8.723   3.325  0.4491 -0.7165  0.1108
  407MOL0     H54936   0.796   8.588   3.231  1.5224 -0.8785 -3.7139
  407MOL0     H54937   0.952   8.594   3.066  0.7139 -1.3494  1.9349
  407MOL0     H54938   1.050   8.601   3.214 -1.4633 -2.2014  1.1041
  407MOL0     H54939   0.984   8.823   3.026 -0.2817  1.6505  1.5880
  407MOL0     H54940   1.146   8.764   3.052  0.1698  1.4671 -1.5783
  407MOL0     H54941   1.144   8.849   3.278  0.6511 -0.0605 -1.2406
  407MOL0     H54942   0.970   8.915   3.262 -0.3829 -2.2270  0.4086
  407MOL0     H54943   1.226   9.202   3.083 -2.8636  1.3342  0.6855
  407MOL0     H54944   0.591   8.633   3.027  0.6226 -2.4707  3.6768
  407MOL0     H54945   0.351   8.628   3.080 -1.5840  2.0550 -0.9598
  408MOL0     O54946  10.063  10.178   7.981 -0.1765 -0.2658  0.1647
  408MOL0     C54947  10.122  10.281   7.950 -0.2812  0.4803  0.2817
  408MOL0     O54948  10.258  10.290   7.929  0.5818  0.0966  0.7003
  408MOL0     C54949  10.319  10.167   7.931  0.4284 -0.9529  0.2228
  408MOL0     C54950  10.350  10.109   8.062  0.0987  0.3402  0.2764
  408MOL0     C54951  10.412   9.984   8.071 -0.0195  0.5791  0.2067
  408MOL0     C54952  10.468   9.927   7.955  0.0978  0.2030 -1.4182
  408MOL0     O54953  10.545   9.810   7.965 -0.2397 -0.0856 -0.1574
  408MOL0     C54954  10.566   9.730   7.852  0.2895  0.2765 -0.1412
  408MOL0     C54955  10.610   9.592   7.906  0.1244  0.0765 -0.5833
  408MOL0     C54956  10.617   9.494   7.788 -0.5685  0.3358  0.4239
  408MOL0     C54957  10.687   9.362   7.825  0.1829 -0.4841 -0.3517
  408MOL0     C54958  10.831   9.380   7.864  0.1709  0.7491  0.2661
  408MOL0     C54959  10.914   9.256   7.827  0.2166  0.2085  0.8452
  408MOL0     C54960  11.067   9.267   7.864 -0.0429  0.1855 -0.4863
  408MOL0     C54961  11.126   9.131   7.848  0.2634 -0.0127 -0.8628
  408MOL0     N54962  11.084   9.033   7.953  0.9999 -0.1872  0.9223
  408MOL0     C54963  11.126   8.897   7.967 -0.9799 -0.1171  0.4722
  408MOL0     C54964  11.046   8.854   8.067 -0.2977  0.0718 -0.5482
  408MOL0     C54965  11.063   8.728   8.138  1.0710  0.2928 -0.4373
  408MOL0     C54966  11.047   8.612   8.047 -0.0102  0.2254 -0.4904
  408MOL0     C54967  11.155   8.501   8.067  0.0152  0.1795 -0.2892
  408MOL0     C54968  11.142   8.379   7.963 -0.5586  0.1666  0.5204
  408MOL0     O54969  11.246   8.377   7.867 -0.2848  0.5644  1.0193
  408MOL0     C54970  11.256   8.485   7.786  0.6429  0.4801 -0.3003
  408MOL0     C54971  11.360   8.572   7.811  0.9804 -0.2385  0.3800
  408MOL0     C54972  11.375   8.697   7.747  1.0373 -0.0500 -0.4355
  408MOL0     C54973  11.497   8.773   7.772 -0.1746  0.7616 -0.0282
  408MOL0     C54974  11.281   8.728   7.640  0.5490  0.0590  0.4583
  408MOL0     C54975  11.284   8.869   7.573  0.5821  0.5424  0.4320
  408MOL0     O54976  11.272   8.873   7.437  0.6346 -0.5721  0.2998
  408MOL0     C54977  11.313   8.989   7.377 -0.4864  0.0027  0.8711
  408MOL0     C54978  11.211   9.078   7.333 -0.0292 -0.0596 -0.0185
  408MOL0     C54979  11.251   9.191   7.256 -0.8322  0.6228  1.0386
  408MOL0     C54980  11.378   9.220   7.222 -1.2285 -0.0553 -0.9642
  408MOL0     O54981  11.409   9.333   7.141 -0.5396  0.2141 -0.3720
  408MOL0     C54982  11.315   9.424   7.097  0.1702  0.1095 -0.2028
  408MOL0     C54983  11.381   9.544   7.021 -0.6783  0.7722 -0.1704
  408MOL0     C54984  11.293   9.628   6.927  0.4333 -0.0265 -0.0455
  408MOL0     C54985  11.292   9.558   6.788  0.6409 -0.5312  0.1544
  408MOL0     C54986  11.173   9.592   6.706  1.3046  0.0651  0.4045
  408MOL0     C54987  11.061   9.496   6.735 -0.1625 -0.3030  0.7753
  408MOL0     C54988  10.929   9.565   6.710 -0.2832  1.4916 -0.3463
  408MOL0     C54989  10.803   9.469   6.718 -1.1197  0.0309  0.4143
  408MOL0    Cl54990  10.835   9.340   6.600  0.1302  0.4032 -0.1593
  408MOL0     C54991  11.478   9.139   7.271 -0.3190  0.5528 -0.4526
  408MOL0     C54992  11.453   9.019   7.338  0.8587  0.3196  0.5234
  408MOL0     O54993  11.316   8.964   7.642 -0.3594 -0.3891  0.1941
  408MOL0     C54994  11.179   8.635   7.613 -0.6059  0.1750 -0.2173
  408MOL0     C54995  11.166   8.514   7.683  0.0048  0.0969 -0.8344
  408MOL0     N54996  10.955   8.952   8.107 -0.9274 -0.1917 -0.9790
  408MOL0     N54997  10.976   9.061   8.040 -0.0841  0.3039 -0.2115
  408MOL0     C54998  10.452   9.989   7.828 -0.1798 -0.0034 -0.1187
  408MOL0     C54999  10.383  10.111   7.817 -0.6294  0.4512 -0.4644
  408MOL0     C55000  10.044  10.406   7.910 -0.2737  1.0637  0.8011
  408MOL0     C55001  10.098  10.497   7.810  0.0928 -0.0428 -0.2807
  408MOL0     C55002  10.027  10.613   7.774 -0.1510  0.4293  0.2911
  408MOL0     C55003   9.914  10.648   7.829 -0.1386 -0.0747 -0.8669
  408MOL0     O55004   9.850  10.763   7.783 -0.4388  0.3692 -0.0091
  408MOL0     C55005   9.803  10.842   7.888 -0.5974 -0.7347  0.6391
  408MOL0     C55006   9.806  10.974   7.815 -0.2643 -0.8477  0.2520
  408MOL0     C55007   9.942  11.052   7.832  0.2857 -1.0631 -0.5097
  408MOL0     C55008   9.939  11.185   7.767  0.1198 -0.7302 -0.6933
  408MOL0     C55009   9.857  11.283   7.835  0.2346 -0.0150 -0.8466
  408MOL0     C55010   9.800  11.382   7.876  0.2989 -1.0868 -0.3806
  408MOL0     C55011   9.855  10.559   7.923 -0.1108  0.3868 -0.4110
  408MOL0     C55012   9.923  10.442   7.964  0.5066  0.9256 -0.9971
  408MOL0     H55013  10.308  10.155   8.151  0.9863  3.2925 -0.7009
  408MOL0     H55014  10.428   9.924   8.160 -1.1580  1.4214  1.0063
  408MOL0     H55015  10.467   9.714   7.810  1.0273  0.9980 -2.2591
  408MOL0     H55016  10.629   9.776   7.775 -2.7751  1.8285 -1.9275
  408MOL0     H55017  10.709   9.611   7.947  0.5030  2.5814 -2.3918
  408MOL0     H55018  10.543   9.544   7.978  2.2726 -2.3783 -0.0988
  408MOL0     H55019  10.512   9.473   7.766 -0.2887 -1.4385  0.5967
  408MOL0     H55020  10.666   9.533   7.698  1.4144  0.6818  1.5810
  408MOL0     H55021  10.637   9.329   7.916  2.0770  3.2431  2.3277
  408MOL0     H55022  10.676   9.270   7.768  1.8962  0.2914 -2.0463
  408MOL0     H55023  10.870   9.469   7.813  1.3942 -0.9218 -1.8673
  408MOL0     H55024  10.839   9.397   7.972 -2.3596  0.8871  0.4979
  408MOL0     H55025  10.856   9.166   7.850  1.4481 -1.1223 -0.9576
  408MOL0     H55026  10.915   9.258   7.717  2.2775  0.8866  0.8409
  408MOL0     H55027  11.111   9.343   7.798 -0.9315  0.6829 -0.5260
  408MOL0     H55028  11.085   9.292   7.969  0.1615  0.2911 -0.5464
  408MOL0     H55029  11.235   9.143   7.847  0.4742 -0.6245  2.7601
  408MOL0     H55030  11.104   9.080   7.753  0.3290  0.4150 -1.1132
  408MOL0     H55031  11.212   8.852   7.920  0.2220  2.6219 -0.1275
  408MOL0     H55032  11.158   8.735   8.192  1.3874  1.5087 -1.1230
  408MOL0     H55033  10.977   8.716   8.203 -0.6186  0.6076 -2.5095
  408MOL0     H55034  11.039   8.641   7.942  2.4606  1.9401 -0.2917
  408MOL0     H55035  10.953   8.564   8.076 -1.1720  1.8228 -1.4741
  408MOL0     H55036  11.138   8.458   8.166 -2.3537  3.7536  1.0442
  408MOL0     H55037  11.255   8.544   8.055  0.4427 -0.1573  1.7838
  408MOL0     H55038  11.049   8.387   7.907  1.2462  1.6785 -2.5361
  408MOL0     H55039  11.129   8.279   8.005 -2.0109  0.0764 -0.0873
  408MOL0     H55040  11.428   8.542   7.890  0.9750 -0.5370  0.2738
  408MOL0     H55041  11.482   8.835   7.861  0.2066  2.5389 -1.1451
  408MOL0     H55042  11.571   8.693   7.780 -2.0108 -0.8234  3.4227
  408MOL0     H55043  11.522   8.842   7.691  1.8064  1.3197  0.9837
  408MOL0     H55044  11.113   9.044   7.365  0.9318 -0.7171  2.4604
  408MOL0     H55045  11.172   9.255   7.218 -0.7417  2.0831  3.1508
  408MOL0     H55046  11.252   9.371   7.027  1.1437  0.4930 -1.4023
  408MOL0     H55047  11.262   9.462   7.185 -0.5051  0.2469 -0.6600
  408MOL0     H55048  11.427   9.610   7.094 -0.7631  0.1182  0.4898
  408MOL0     H55049  11.451   9.492   6.955  0.2882  1.3825  0.3533
  408MOL0     H55050  11.326   9.733   6.923 -0.5691  0.2964  0.0550
  408MOL0     H55051  11.192   9.625   6.967  0.2984 -3.9442 -0.3045
  408MOL0     H55052  11.384   9.571   6.729  1.8266 -1.2338  1.7770
  408MOL0     H55053  11.285   9.453   6.817  2.3567 -1.2583 -1.8424
  408MOL0     H55054  11.205   9.593   6.601  0.5608 -1.6996  0.1185
  408MOL0     H55055  11.148   9.696   6.730 -2.6895 -0.3852 -1.0729
  408MOL0     H55056  11.064   9.403   6.677  2.3372  0.8607 -1.1599
  408MOL0     H55057  11.065   9.468   6.841  1.7629  2.5436  1.5624
  408MOL0     H55058  10.919   9.602   6.608 -1.1015 -0.8159 -1.1654
  408MOL0     H55059  10.921   9.647   6.783  1.9644 -0.9708  2.9723
  408MOL0     H55060  10.714   9.533   6.710  0.4615  2.1334 -1.3811
  408MOL0     H55061  10.794   9.431   6.820 -1.9742  1.4637  0.9029
  408MOL0     H55062  11.583   9.164   7.261  0.5340 -2.4585 -0.1196
  408MOL0     H55063  11.535   8.956   7.372  0.1136 -0.3694  1.0718
  408MOL0     H55064  11.130   8.655   7.518  0.7825 -0.2392 -1.0468
  408MOL0     H55065  11.085   8.444   7.666  0.3089 -0.4426 -0.1168
  408MOL0     H55066  10.502   9.947   7.742 -0.7407 -3.1756  0.9840
  408MOL0     H55067  10.382  10.161   7.721 -0.6231  0.6749 -0.3478
  408MOL0     H55068  10.190  10.471   7.759 -0.2489 -0.1437 -0.8531
  408MOL0     H55069  10.066  10.665   7.687 -0.4907  1.2429  0.6178
  408MOL0     H55070   9.705  10.799   7.911  0.6950 -4.8653 -0.6944
  408MOL0     H55071   9.873  10.859   7.971  2.7112  1.8420 -2.3270
  408MOL0     H55072   9.728  11.031   7.866 -1.0524 -1.0268 -0.7038
  408MOL0     H55073   9.787  10.972   7.707 -1.4681  0.3884  0.4178
  408MOL0     H55074  10.029  10.987   7.813 -1.9456 -3.0976 -5.8840
  408MOL0     H55075   9.950  11.075   7.939  0.4866  1.7000 -1.0557
  408MOL0     H55076   9.905  11.174   7.664 -3.6122 -0.0694  0.3013
  408MOL0     H55077  10.041  11.223   7.775 -0.5643  0.8035  2.9219
  408MOL0     H55078   9.747  11.469   7.907 -0.4006 -1.5901 -0.1411
  408MOL0     H55079   9.756  10.583   7.961 -0.1540  2.2224 -1.5619
  408MOL0     H55080   9.883  10.377   8.041 -0.1125 -0.8664 -2.7403
  409MOL0     O55081   4.346   8.775   2.602  0.0026 -0.3943 -0.1461
  409MOL0     C55082   4.245   8.813   2.653  0.6659 -0.2550  0.4585
  409MOL0     O55083   4.124   8.743   2.651  0.2600  1.0712 -0.0311
  409MOL0     C55084   4.112   8.645   2.551 -0.6258 -0.3153 -0.0687
  409MOL0     C55085   4.046   8.527   2.579  0.5490 -0.1659 -0.3413
  409MOL0     C55086   4.030   8.430   2.486 -0.4039 -0.1846  0.3299
  409MOL0     C55087   4.080   8.437   2.355 -0.1912 -0.4947 -0.3786
  409MOL0     O55088   4.066   8.337   2.262  0.0134  0.0064 -0.2797
  409MOL0     C55089   3.949   8.263   2.261  0.1929  0.0537 -0.6085
  409MOL0     C55090   3.946   8.203   2.111 -0.0418 -0.5737 -0.8820
  409MOL0     C55091   3.836   8.102   2.077 -0.4098 -0.8078 -0.3516
  409MOL0     C55092   3.828   8.067   1.928  0.6480  0.2121 -0.0750
  409MOL0     C55093   3.937   7.991   1.859 -0.4019 -0.1239  0.2906
  409MOL0     C55094   3.958   7.851   1.898  0.6818  0.2138 -0.4248
  409MOL0     C55095   3.836   7.755   1.866 -0.1954 -0.7415  0.0004
  409MOL0     C55096   3.819   7.707   1.724  0.3221  0.0607 -0.9363
  409MOL0     N55097   3.677   7.649   1.703 -0.0804  0.3695  0.5605
  409MOL0     C55098   3.604   7.579   1.791  1.3880 -0.2362 -0.3326
  409MOL0     C55099   3.509   7.515   1.727  0.4840  1.9147  0.8698
  409MOL0     C55100   3.424   7.408   1.783  0.6237 -0.3559 -0.2801
  409MOL0     C55101   3.367   7.434   1.923  1.0449  0.2407  0.5196
  409MOL0     C55102   3.255   7.328   1.957  0.2576  0.2508  0.5202
  409MOL0     C55103   3.122   7.368   1.885  0.1344  0.6503 -0.2615
  409MOL0     O55104   3.016   7.297   1.952 -0.0009 -0.1575  0.0612
  409MOL0     C55105   2.894   7.350   1.923  0.1493 -0.2900 -0.0767
  409MOL0     C55106   2.859   7.418   1.805 -1.0515  0.8319 -0.4463
  409MOL0     C55107   2.730   7.455   1.773  0.3641  0.0149 -0.0722
  409MOL0     C55108   2.705   7.550   1.651  0.7486  0.1830  0.2639
  409MOL0     C55109   2.619   7.412   1.863 -0.3759  0.4134  0.6253
  409MOL0     C55110   2.483   7.420   1.825 -0.8242 -0.0090  0.3298
  409MOL0     O55111   2.402   7.422   1.927  0.1082  0.0687 -1.5040
  409MOL0     C55112   2.266   7.408   1.908  0.6550  0.0263 -0.0921
  409MOL0     C55113   2.196   7.307   1.972  0.8115 -0.1819 -0.0616
  409MOL0     C55114   2.060   7.290   1.962  0.0316 -0.0013 -1.0558
  409MOL0     C55115   1.984   7.395   1.889 -0.7978 -0.0310 -0.0038
  409MOL0     O55116   1.849   7.386   1.843  0.3705 -0.0365 -0.3940
  409MOL0     C55117   1.789   7.253   1.830  0.3798 -0.1447 -0.4804
  409MOL0     C55118   1.661   7.247   1.925  1.0019  0.4186  0.2979
  409MOL0     C55119   1.691   7.207   2.070 -0.2971  0.7762 -1.1597
  409MOL0     C55120   1.560   7.185   2.142 -0.5910  1.0163 -0.0749
  409MOL0     C55121   1.594   7.118   2.273 -0.2840  0.1542  0.8602
  409MOL0     C55122   1.628   6.975   2.265 -0.2193 -0.2402  0.1996
  409MOL0     C55123   1.553   6.907   2.382  0.2613 -0.0308 -0.1691
  409MOL0     C55124   1.616   6.942   2.520  1.3278 -0.3711  0.2508
  409MOL0    Cl55125   1.540   6.861   2.653  0.0464  0.3387  0.1626
  409MOL0     C55126   2.056   7.504   1.835  0.1517  0.2397  0.6209
  409MOL0     C55127   2.194   7.507   1.840 -0.5779  0.0570  0.0467
  409MOL0     O55128   2.447   7.427   1.706  0.6631 -0.1715  0.1759
  409MOL0     C55129   2.648   7.332   1.977 -0.2912 -0.4167 -0.5735
  409MOL0     C55130   2.789   7.306   2.003  0.7239  0.8001  0.6465
  409MOL0     N55131   3.507   7.551   1.592  0.1001  0.1856  0.1383
  409MOL0     N55132   3.622   7.614   1.584  0.4554 -0.3967  0.3552
  409MOL0     C55133   4.153   8.553   2.319  0.4116  0.1088  0.1654
  409MOL0     C55134   4.167   8.658   2.417 -0.3168 -0.1810  0.3195
  409MOL0     C55135   4.248   8.948   2.723 -0.4220  0.7504 -0.9753
  409MOL0     C55136   4.374   9.010   2.754  0.4125 -0.1789  0.0971
  409MOL0     C55137   4.380   9.118   2.842  0.4786 -0.4618  0.2199
  409MOL0     C55138   4.264   9.160   2.914 -0.0079  0.1908  0.0287
  409MOL0     O55139   4.275   9.258   3.013  0.0341 -0.0567  0.1638
  409MOL0     C55140   4.350   9.220   3.125 -0.8484 -0.2847  0.1385
  409MOL0     C55141   4.269   9.130   3.212  0.0540  0.7063 -0.4141
  409MOL0     C55142   4.144   9.204   3.254 -0.4301  0.4631 -1.0813
  409MOL0     C55143   4.060   9.120   3.353 -0.3238 -0.7964  0.9787
  409MOL0     C55144   3.942   9.187   3.409 -0.6626 -0.1639  1.2766
  409MOL0     C55145   3.847   9.245   3.444  0.8033  0.7956 -0.6124
  409MOL0     C55146   4.147   9.100   2.891 -0.3266 -0.3967 -0.1873
  409MOL0     C55147   4.136   9.002   2.792 -0.3503 -0.4550 -0.2804
  409MOL0     H55148   3.991   8.508   2.670 -0.6261 -3.1760 -1.5564
  409MOL0     H55149   3.984   8.338   2.522 -1.2573  0.7807  1.8384
  409MOL0     H55150   3.944   8.176   2.327 -2.6004  1.8894  1.8655
  409MOL0     H55151   3.856   8.319   2.273 -0.7863 -1.5567 -0.2820
  409MOL0     H55152   3.932   8.286   2.042 -1.3983 -1.2920 -1.5052
  409MOL0     H55153   4.037   8.147   2.084  0.4236  0.5635 -1.7270
  409MOL0     H55154   3.855   8.005   2.122 -1.7021 -1.0899 -0.3542
  409MOL0     H55155   3.742   8.144   2.115  0.3020  0.4132  0.0988
  409MOL0     H55156   3.735   8.017   1.902 -0.7779  2.2756  0.7556
  409MOL0     H55157   3.809   8.162   1.877  1.0448  0.8914  0.9886
  409MOL0     H55158   3.924   7.986   1.751  0.6923 -2.2879  0.2140
  409MOL0     H55159   4.025   8.048   1.892 -1.6114  0.6949  2.2905
  409MOL0     H55160   4.056   7.825   1.857  1.1094  1.0272  0.0688
  409MOL0     H55161   3.963   7.851   2.007 -2.6448  0.9786 -0.1712
  409MOL0     H55162   3.859   7.670   1.931 -1.1254 -1.7259 -0.9263
  409MOL0     H55163   3.747   7.805   1.907 -0.0404 -0.1622 -0.3736
  409MOL0     H55164   3.901   7.638   1.697 -0.1075 -0.3076 -1.3178
  409MOL0     H55165   3.827   7.787   1.650 -0.1297  0.9617 -0.0352
  409MOL0     H55166   3.629   7.579   1.896 -1.6456  0.3294  0.5032
  409MOL0     H55167   3.344   7.398   1.709 -0.0675 -2.6405  0.6905
  409MOL0     H55168   3.482   7.316   1.795 -1.2321 -1.5986 -0.3669
  409MOL0     H55169   3.333   7.537   1.930  2.1561  0.6760 -0.2130
  409MOL0     H55170   3.451   7.417   1.992  2.9365 -0.1727 -1.7635
  409MOL0     H55171   3.232   7.322   2.064 -0.6514  1.2592  0.3965
  409MOL0     H55172   3.290   7.227   1.930  3.5789  1.7528 -1.4600
  409MOL0     H55173   3.123   7.347   1.778  2.0976 -0.7632 -0.0415
  409MOL0     H55174   3.112   7.476   1.898 -2.8371  0.5733 -1.1373
  409MOL0     H55175   2.937   7.447   1.736  1.3358 -1.1485  1.2553
  409MOL0     H55176   2.629   7.618   1.690 -1.4882 -0.6074 -2.3304
  409MOL0     H55177   2.791   7.611   1.622  0.5946 -0.1209 -0.8783
  409MOL0     H55178   2.663   7.487   1.572  2.0701 -1.3663  0.7486
  409MOL0     H55179   2.262   7.249   2.035 -0.2645 -1.1504  0.2087
  409MOL0     H55180   2.011   7.203   2.004 -2.1859  3.0436  3.5463
  409MOL0     H55181   1.753   7.234   1.729 -0.0845 -1.0618 -0.1531
  409MOL0     H55182   1.853   7.173   1.867 -4.1702 -2.3055  4.0209
  409MOL0     H55183   1.608   7.343   1.926 -0.8597 -0.5030 -1.5155
  409MOL0     H55184   1.588   7.178   1.883 -0.0121  1.1762  0.7679
  409MOL0     H55185   1.763   7.271   2.122  0.9549 -1.3099 -0.2023
  409MOL0     H55186   1.731   7.106   2.064  0.4015  0.9910 -0.3345
  409MOL0     H55187   1.523   7.283   2.171 -0.6687  0.8650  0.3422
  409MOL0     H55188   1.488   7.131   2.080  0.6232 -2.0568  1.0039
  409MOL0     H55189   1.513   7.147   2.342  1.6322 -0.5075  3.5567
  409MOL0     H55190   1.676   7.167   2.326  0.2714  1.6146 -1.2491
  409MOL0     H55191   1.571   6.948   2.175 -0.4507  3.9560 -1.1467
  409MOL0     H55192   1.735   6.956   2.256 -0.1790  0.3589 -0.7944
  409MOL0     H55193   1.584   6.803   2.373  3.4472  0.8438 -0.4221
  409MOL0     H55194   1.444   6.917   2.380  0.1308 -0.8777  1.3236
  409MOL0     H55195   1.602   7.049   2.535  1.7574 -0.3742  0.6689
  409MOL0     H55196   1.722   6.918   2.519  1.1488 -1.2001  0.1584
  409MOL0     H55197   2.003   7.580   1.778  2.2692  2.0554  0.9554
  409MOL0     H55198   2.234   7.596   1.793 -2.0521  0.5545 -0.3531
  409MOL0     H55199   2.573   7.273   2.029  0.7680 -0.8607  0.4925
  409MOL0     H55200   2.804   7.240   2.088  0.7344  0.8961  0.7184
  409MOL0     H55201   4.186   8.565   2.216 -0.4479  0.7218 -0.0517
  409MOL0     H55202   4.210   8.752   2.385 -2.0486  0.4104 -0.3698
  409MOL0     H55203   4.466   8.968   2.714 -0.5736 -1.0500 -1.3227
  409MOL0     H55204   4.469   9.179   2.853 -0.6344  1.1735  0.5351
  409MOL0     H55205   4.444   9.171   3.099 -1.8855 -2.4916  0.3370
  409MOL0     H55206   4.379   9.313   3.174 -1.5174  0.9037 -1.6193
  409MOL0     H55207   4.330   9.092   3.295  0.0408  0.1842 -0.6380
  409MOL0     H55208   4.239   9.045   3.150 -0.3492  1.7292 -1.6720
  409MOL0     H55209   4.090   9.229   3.162  2.5733 -0.8646 -3.4001
  409MOL0     H55210   4.177   9.297   3.301 -2.1773 -0.1437  1.5515
  409MOL0     H55211   4.131   9.081   3.426  0.0044 -0.4892  0.8258
  409MOL0     H55212   4.026   9.033   3.296  1.5891 -1.2927  0.5314
  409MOL0     H55213   3.752   9.283   3.478 -1.9678 -4.2220 -1.7980
  409MOL0     H55214   4.059   9.139   2.941 -0.0591  1.7020 -1.2359
  409MOL0     H55215   4.039   8.957   2.770 -1.9794  2.5331  0.2205
  410MOL0     O55216   3.558   7.103   7.071 -0.0208  0.4653  0.0329
  410MOL0     C55217   3.664   7.161   7.027 -0.2259 -0.0292  1.2935
  410MOL0     O55218   3.684   7.293   7.013 -0.5231 -0.5605  0.2947
  410MOL0     C55219   3.571   7.373   7.020  0.5458 -0.6142  0.8898
  410MOL0     C55220   3.510   7.402   7.141 -0.2131 -0.4000  0.0044
  410MOL0     C55221   3.398   7.488   7.154 -0.1852  0.6845 -0.0593
  410MOL0     C55222   3.342   7.543   7.030 -0.0785  0.0259 -1.4583
  410MOL0     O55223   3.224   7.615   7.026 -0.6676 -0.1658  0.8217
  410MOL0     C55224   3.108   7.534   7.042  0.4480 -0.5648 -0.2291
  410MOL0     C55225   3.014   7.574   7.163 -0.5471 -0.1320  0.7465
  410MOL0     C55226   2.876   7.492   7.144  0.1723 -0.5617  0.4503
  410MOL0     C55227   2.795   7.491   7.268  0.3647 -0.5046  0.4650
  410MOL0     C55228   2.665   7.423   7.235 -0.7084  1.0301 -0.6477
  410MOL0     C55229   2.577   7.413   7.355 -0.3508 -0.0086  0.0261
  410MOL0     C55230   2.457   7.319   7.349  0.0011 -0.6644  0.0018
  410MOL0     C55231   2.497   7.184   7.315 -0.4541  0.8730  1.3675
  410MOL0     N55232   2.409   7.082   7.376  0.4009 -0.0282 -0.0623
  410MOL0     C55233   2.296   7.019   7.322  0.1224  0.3433 -0.0536
  410MOL0     C55234   2.286   6.902   7.394 -0.0524  0.2875 -0.0971
  410MOL0     C55235   2.188   6.789   7.370  0.1540  0.6641 -0.1163
  410MOL0     C55236   2.061   6.785   7.464 -0.4113 -0.1519  0.2028
  410MOL0     C55237   1.933   6.745   7.387  0.6049  0.4221 -0.2756
  410MOL0     C55238   1.794   6.783   7.458  0.5106  0.4290  0.7016
  410MOL0     O55239   1.787   6.712   7.589  1.0039  0.4488  0.7622
  410MOL0     C55240   1.754   6.576   7.599 -0.7757  0.5795  0.2634
  410MOL0     C55241   1.783   6.515   7.713 -0.1238 -0.0943  0.2223
  410MOL0     C55242   1.736   6.393   7.747 -0.0160 -0.6660  0.7255
  410MOL0     C55243   1.784   6.346   7.880  0.1675  0.8305 -0.1987
  410MOL0     C55244   1.636   6.319   7.666 -1.0897  0.2988  0.0773
  410MOL0     C55245   1.554   6.204   7.714  0.5634  0.3202 -0.0342
  410MOL0     O55246   1.500   6.218   7.834 -0.0779  0.2778  0.0196
  410MOL0     C55247   1.417   6.119   7.893  0.3386  0.4063  0.0358
  410MOL0     C55248   1.380   5.987   7.843 -0.4328  0.4689  0.1120
  410MOL0     C55249   1.306   5.900   7.924  0.4054 -0.0366  0.0792
  410MOL0     C55250   1.254   5.931   8.048 -0.9299  0.3572  0.0179
  410MOL0     O55251   1.194   5.842   8.140  0.7328  0.3176  1.2434
  410MOL0     C55252   1.077   5.774   8.090  0.2721 -0.3767  0.4416
  410MOL0     C55253   0.958   5.794   8.194  0.1130 -0.1207  0.2587
  410MOL0     C55254   0.828   5.747   8.125  0.4749  0.0741  0.8145
  410MOL0     C55255   0.843   5.604   8.072  0.3763  0.1694 -0.0693
  410MOL0     C55256   0.714   5.527   8.052  0.6048  0.2020  0.1727
  410MOL0     C55257   0.726   5.382   7.995  0.6749 -0.1504  0.0849
  410MOL0     C55258   0.766   5.378   7.843 -0.0978  0.6628  0.4163
  410MOL0     C55259   0.741   5.233   7.787  0.4348 -0.2888 -1.2757
  410MOL0    Cl55260   0.830   5.196   7.632 -0.2998 -0.0700  0.3566
  410MOL0     C55261   1.281   6.063   8.097 -0.3864 -0.1268  0.6176
  410MOL0     C55262   1.353   6.146   8.010 -0.4871 -0.4674  0.0124
  410MOL0     O55263   1.526   6.125   7.629 -0.1824 -0.5071  0.2442
  410MOL0     C55264   1.618   6.371   7.537 -0.3135 -0.2012  0.3107
  410MOL0     C55265   1.683   6.491   7.496 -0.2064 -0.4388 -0.9165
  410MOL0     N55266   2.377   6.903   7.498  0.6993 -0.1856  0.1690
  410MOL0     N55267   2.457   7.000   7.473 -0.1718 -0.1592 -1.4049
  410MOL0     C55268   3.401   7.514   6.910 -1.2688 -0.9129 -0.3703
  410MOL0     C55269   3.512   7.434   6.907 -0.9200  0.6252  0.5280
  410MOL0     C55270   3.772   7.071   6.981 -0.0748  1.5548  0.4749
  410MOL0     C55271   3.849   7.089   6.862 -1.1530 -0.3842 -0.2300
  410MOL0     C55272   3.951   6.999   6.829  0.1787  0.3939  0.9286
  410MOL0     C55273   3.974   6.878   6.896  0.0179  1.4201 -0.3685
  410MOL0     O55274   4.077   6.803   6.853  0.4434 -0.2303  0.0603
  410MOL0     C55275   4.092   6.661   6.887 -0.1228 -0.3980 -0.4240
  410MOL0     C55276   3.991   6.580   6.810  0.0770  0.5101  0.5038
  410MOL0     C55277   3.981   6.629   6.668 -0.6319 -0.7942  0.0833
  410MOL0     C55278   3.942   6.525   6.563  0.0032  0.4018  0.5226
  410MOL0     C55279   3.799   6.489   6.567 -0.5001  0.2174  0.3701
  410MOL0     C55280   3.682   6.463   6.549  0.6714 -0.1865 -0.9089
  410MOL0     C55281   3.880   6.852   7.002  0.3217  0.8492  0.4584
  410MOL0     C55282   3.796   6.949   7.049 -0.7966  0.2715 -0.4270
  410MOL0     H55283   3.552   7.365   7.234 -0.4288  1.9227  1.0819
  410MOL0     H55284   3.357   7.504   7.253  0.6815 -0.5964  0.5278
  410MOL0     H55285   3.048   7.541   6.951 -1.7523 -3.6282  0.8219
  410MOL0     H55286   3.142   7.431   7.058  2.3998  0.2146  1.0554
  410MOL0     H55287   3.058   7.531   7.254  2.9031 -0.4490 -0.9034
  410MOL0     H55288   2.991   7.680   7.171 -3.7151 -0.7828  1.5859
  410MOL0     H55289   2.830   7.537   7.056 -0.2432  1.6312  1.7030
  410MOL0     H55290   2.912   7.391   7.124  2.8096 -0.0599  2.0893
  410MOL0     H55291   2.858   7.454   7.349  0.7872  2.7325  1.7806
  410MOL0     H55292   2.774   7.595   7.293 -1.4922 -1.1827  1.9887
  410MOL0     H55293   2.618   7.473   7.150  2.3618  0.4344 -2.8977
  410MOL0     H55294   2.687   7.321   7.202 -2.2650  0.4456  0.0353
  410MOL0     H55295   2.638   7.392   7.444  1.8996  1.5788 -1.0714
  410MOL0     H55296   2.534   7.513   7.369 -2.8225 -0.8688 -0.8349
  410MOL0     H55297   2.412   7.331   7.448  0.3548 -0.5716  0.1565
  410MOL0     H55298   2.380   7.346   7.277 -0.4917 -0.4552  0.5982
  410MOL0     H55299   2.596   7.154   7.350 -0.8933 -1.6307  0.6794
  410MOL0     H55300   2.501   7.179   7.206 -4.1111  0.2631  1.1280
  410MOL0     H55301   2.222   7.051   7.250 -1.0835  1.0727  1.4399
  410MOL0     H55302   2.149   6.799   7.269 -3.5937  1.9648  1.2929
  410MOL0     H55303   2.240   6.693   7.375 -1.6884 -0.6987 -3.6725
  410MOL0     H55304   2.035   6.881   7.509 -2.0649 -0.5271  0.1241
  410MOL0     H55305   2.077   6.722   7.552 -4.2417 -0.3175  0.9632
  410MOL0     H55306   1.933   6.640   7.357 -1.5735  0.0127  0.9619
  410MOL0     H55307   1.914   6.807   7.299  0.4058  2.5766  1.1819
  410MOL0     H55308   1.708   6.766   7.393 -2.2139 -0.3091  4.1880
  410MOL0     H55309   1.786   6.891   7.474  3.3776  1.0951 -1.5700
  410MOL0     H55310   1.848   6.557   7.789  1.9857 -0.4582 -1.2972
  410MOL0     H55311   1.754   6.242   7.893  1.8743  0.0245 -2.1484
  410MOL0     H55312   1.893   6.344   7.893  0.3509  0.4049 -1.6228
  410MOL0     H55313   1.742   6.410   7.958 -0.5367 -0.9472  0.9283
  410MOL0     H55314   1.427   5.954   7.751 -0.2363  1.5019 -0.1722
  410MOL0     H55315   1.285   5.800   7.889 -2.1000  0.3009  0.4027
  410MOL0     H55316   1.051   5.820   7.994 -0.3689 -0.1318  0.7264
  410MOL0     H55317   1.099   5.667   8.099  0.9848 -0.1645  1.4252
  410MOL0     H55318   0.971   5.729   8.282 -0.1072  1.8623  1.8231
  410MOL0     H55319   0.948   5.899   8.222 -3.2453 -0.3081  0.1705
  410MOL0     H55320   0.783   5.814   8.052 -0.8759  0.2843  1.8042
  410MOL0     H55321   0.751   5.740   8.203 -2.4823  0.5616 -1.8835
  410MOL0     H55322   0.908   5.616   7.986  0.9936 -0.5552  0.2809
  410MOL0     H55323   0.900   5.549   8.148 -0.1575 -0.9948 -0.4911
  410MOL0     H55324   0.665   5.580   7.971 -0.1426 -1.0510 -0.2213
  410MOL0     H55325   0.643   5.533   8.135 -1.1571  0.6547 -1.3061
  410MOL0     H55326   0.794   5.319   8.053  2.1186  0.8426 -0.4698
  410MOL0     H55327   0.632   5.325   7.991  1.5375 -1.5657 -2.5631
  410MOL0     H55328   0.867   5.418   7.825  1.1857 -2.5416 -0.2998
  410MOL0     H55329   0.701   5.447   7.789 -2.9499 -0.8551  1.7264
  410MOL0     H55330   0.633   5.211   7.786  0.0656  0.7654  2.0260
  410MOL0     H55331   0.777   5.161   7.861  0.5247 -0.4279 -1.4533
  410MOL0     H55332   1.253   6.091   8.198 -0.2265 -0.8708  0.8784
  410MOL0     H55333   1.363   6.249   8.042 -1.0679 -0.3181 -0.2763
  410MOL0     H55334   1.564   6.332   7.451 -0.1447  4.1669 -2.0620
  410MOL0     H55335   1.671   6.534   7.397 -1.3827 -4.1387 -2.5467
  410MOL0     H55336   3.361   7.551   6.816 -0.3031  0.5010 -0.2653
  410MOL0     H55337   3.553   7.414   6.809 -2.5686  0.7528 -0.2179
  410MOL0     H55338   3.835   7.181   6.806  0.2848  0.7806  1.2137
  410MOL0     H55339   4.032   7.031   6.764  0.6965 -0.4498  1.1421
  410MOL0     H55340   4.193   6.628   6.862  0.8259  1.6215  0.5000
  410MOL0     H55341   4.085   6.668   6.996  4.0253  1.7256 -0.1092
  410MOL0     H55342   3.890   6.577   6.853  0.1541 -0.9919  0.6005
  410MOL0     H55343   4.032   6.480   6.794  2.1648  1.3875  0.0788
  410MOL0     H55344   4.086   6.656   6.656 -0.3254 -0.7794  2.2744
  410MOL0     H55345   3.918   6.718   6.654  0.7031  0.2750  0.5802
  410MOL0     H55346   4.003   6.436   6.583 -2.3604 -0.8708  2.7463
  410MOL0     H55347   3.972   6.566   6.466  2.2650 -1.9749  0.0899
  410MOL0     H55348   3.580   6.436   6.529  0.4861  0.4289 -0.7931
  410MOL0     H55349   3.873   6.750   7.039 -1.0626  0.7206 -0.0705
  410MOL0     H55350   3.738   6.929   7.138 -1.6489 -0.7480 -1.1786
  411MOL0     O55351   8.129   1.618   8.959  0.1812  0.1000 -0.1173
  411MOL0     C55352   8.195   1.686   9.038 -0.5144 -0.3340 -0.3143
  411MOL0     O55353   8.206   1.683   9.179  0.7396 -0.0176  0.2387
  411MOL0     C55354   8.105   1.612   9.239  0.3233 -1.1635  0.1170
  411MOL0     C55355   8.101   1.475   9.240  0.1550  0.2370 -0.0281
  411MOL0     C55356   7.986   1.405   9.283 -0.4284 -0.3241 -0.0518
  411MOL0     C55357   7.880   1.475   9.335  0.2085 -0.0865  0.6514
  411MOL0     O55358   7.774   1.407   9.398 -0.5395 -0.1305  0.4020
  411MOL0     C55359   7.651   1.467   9.418 -0.1320  0.3339 -1.6511
  411MOL0     C55360   7.538   1.363   9.447  0.5069 -0.3757  0.0131
  411MOL0     C55361   7.478   1.331   9.300 -0.0795  0.0792  0.8893
  411MOL0     C55362   7.338   1.264   9.290  0.1078 -0.7149 -0.3255
  411MOL0     C55363   7.268   1.256   9.156  0.7109 -0.2760  0.5661
  411MOL0     C55364   7.124   1.212   9.179  0.1184  0.1365 -0.3726
  411MOL0     C55365   7.050   1.197   9.045 -0.3507 -0.7802 -0.5177
  411MOL0     C55366   6.916   1.114   9.064  0.4912  0.6247 -0.6724
  411MOL0     N55367   6.827   1.117   8.947 -0.6480  0.1622  1.0167
  411MOL0     C55368   6.701   1.157   8.952  0.4534  0.3477 -0.3895
  411MOL0     C55369   6.678   1.168   8.818  0.0588 -0.7165 -1.1693
  411MOL0     C55370   6.546   1.207   8.753  0.4089  0.6734  0.9462
  411MOL0     C55371   6.454   1.310   8.817 -0.3184  0.1660  0.4011
  411MOL0     C55372   6.349   1.373   8.727  0.8553  0.2390 -1.2636
  411MOL0     C55373   6.242   1.422   8.822 -0.2452 -0.1612  0.1501
  411MOL0     O55374   6.148   1.501   8.745 -0.4478 -0.0593 -0.2865
  411MOL0     C55375   6.023   1.514   8.794 -0.8467 -0.3428  0.2567
  411MOL0     C55376   5.949   1.588   8.711  0.7341  0.4252 -0.4190
  411MOL0     C55377   5.817   1.592   8.723  0.0752  0.0333  0.8189
  411MOL0     C55378   5.741   1.683   8.623 -0.4147 -0.4261  0.1550
  411MOL0     C55379   5.744   1.534   8.828  1.0116  0.6651 -0.2643
  411MOL0     C55380   5.607   1.537   8.852  0.5834  0.5253 -0.0798
  411MOL0     O55381   5.555   1.439   8.935  0.0723  0.6099  0.9385
  411MOL0     C55382   5.414   1.420   8.919  0.0914  0.5828 -0.3737
  411MOL0     C55383   5.368   1.293   8.878 -0.4713  1.0275  0.2779
  411MOL0     C55384   5.234   1.256   8.898 -0.6634  0.3426 -1.2874
  411MOL0     C55385   5.141   1.335   8.960 -0.7950  0.1114  1.3594
  411MOL0     O55386   5.017   1.288   8.973  0.6760 -0.5058 -0.1847
  411MOL0     C55387   4.931   1.376   8.898  1.0702 -0.2887 -0.2423
  411MOL0     C55388   4.787   1.326   8.915  0.3870 -0.3491  0.4302
  411MOL0     C55389   4.710   1.343   9.054 -0.2281 -0.5378  0.3993
  411MOL0     C55390   4.733   1.218   9.146  1.1658 -0.4370 -0.6447
  411MOL0     C55391   4.678   1.245   9.284 -0.4247  0.2051  0.2376
  411MOL0     C55392   4.773   1.326   9.365 -0.2837 -0.2362 -0.3181
  411MOL0     C55393   4.719   1.353   9.513 -0.3913  0.7192 -0.9770
  411MOL0     C55394   4.705   1.222   9.604 -0.5035  0.9195 -0.4102
  411MOL0    Cl55395   4.869   1.152   9.609 -0.4449 -0.1667 -0.1565
  411MOL0     C55396   5.188   1.462   8.999  0.0293  0.0617 -0.1568
  411MOL0     C55397   5.322   1.503   8.975 -1.1524  1.2746 -1.6941
  411MOL0     O55398   5.538   1.619   8.789 -0.1315  0.0017 -0.6031
  411MOL0     C55399   5.819   1.442   8.906  0.4155  0.0819 -0.8288
  411MOL0     C55400   5.959   1.447   8.901  0.3042 -0.6283  0.9098
  411MOL0     N55401   6.784   1.138   8.737 -0.3413 -0.7786 -0.3769
  411MOL0     N55402   6.876   1.110   8.820  0.4597 -0.4981  0.2092
  411MOL0     C55403   7.878   1.611   9.325  0.3465 -0.3018 -0.4377
  411MOL0     C55404   7.995   1.684   9.282  0.6331  0.2941 -0.3888
  411MOL0     C55405   8.309   1.768   8.982 -0.9891 -0.4688 -0.0893
  411MOL0     C55406   8.404   1.835   9.059  0.8482  0.2295 -0.3704
  411MOL0     C55407   8.496   1.917   9.003 -0.4261  0.4070 -0.0997
  411MOL0     C55408   8.510   1.934   8.857 -0.2096 -0.6135 -1.0112
  411MOL0     O55409   8.595   2.029   8.798 -0.5515  0.3407 -0.2184
  411MOL0     C55410   8.729   2.011   8.832  0.6562 -0.8260  0.2370
  411MOL0     C55411   8.812   2.114   8.751  0.4152  0.1562  0.4803
  411MOL0     C55412   8.859   2.231   8.836 -0.3586 -0.0593  0.2605
  411MOL0     C55413   8.920   2.340   8.759 -0.8743 -1.2003  0.3517
  411MOL0     C55414   9.045   2.310   8.694 -0.4942  0.1900 -0.1500
  411MOL0     C55415   9.138   2.270   8.622  0.3282 -0.6932 -0.5633
  411MOL0     C55416   8.421   1.855   8.781 -0.2218  0.0219  0.4726
  411MOL0     C55417   8.316   1.786   8.841 -0.2030  0.6324  0.4122
  411MOL0     H55418   8.172   1.408   9.192 -1.5677  0.3903 -3.0642
  411MOL0     H55419   7.985   1.298   9.271 -1.1884 -0.4882  1.2213
  411MOL0     H55420   7.672   1.510   9.517 -0.5183  1.4516 -2.0410
  411MOL0     H55421   7.615   1.541   9.346 -1.0278 -1.9497 -3.6738
  411MOL0     H55422   7.584   1.274   9.491 -2.0149 -0.5180  2.6390
  411MOL0     H55423   7.457   1.396   9.512  0.2448  1.0938 -1.0233
  411MOL0     H55424   7.462   1.421   9.239  0.4087 -0.6991 -0.4392
  411MOL0     H55425   7.551   1.274   9.242 -2.8246 -4.4817  1.3819
  411MOL0     H55426   7.349   1.167   9.338  0.3586 -2.1175 -3.0225
  411MOL0     H55427   7.265   1.314   9.354  1.1322  1.0613 -0.4760
  411MOL0     H55428   7.258   1.355   9.110  0.0146 -0.0236  1.2414
  411MOL0     H55429   7.329   1.182   9.104  0.4138 -0.9164  1.1193
  411MOL0     H55430   7.116   1.118   9.234  1.2110  0.7223  0.8448
  411MOL0     H55431   7.069   1.283   9.242  1.5785  0.5176  0.5369
  411MOL0     H55432   7.024   1.298   9.012 -2.6178  0.0243  3.1289
  411MOL0     H55433   7.119   1.154   8.971  0.9054  0.6316 -0.2059
  411MOL0     H55434   6.860   1.153   9.149  0.6751 -0.8219  0.1350
  411MOL0     H55435   6.951   1.011   9.078  3.0276  1.3396 -1.0746
  411MOL0     H55436   6.639   1.168   9.041 -2.8501 -1.4469 -2.3260
  411MOL0     H55437   6.575   1.251   8.657 -0.9007 -1.6683 -0.6216
  411MOL0     H55438   6.484   1.118   8.737 -3.2497  2.4167  3.8615
  411MOL0     H55439   6.517   1.388   8.862 -0.8628 -0.2746  1.9780
  411MOL0     H55440   6.402   1.263   8.901  0.9139  0.2370  1.2463
  411MOL0     H55441   6.309   1.299   8.659  1.3136 -4.0893  2.6555
  411MOL0     H55442   6.395   1.447   8.661 -0.9685 -0.7573 -3.7706
  411MOL0     H55443   6.290   1.477   8.903  0.9485  2.5161 -2.2203
  411MOL0     H55444   6.194   1.341   8.878 -1.6574  0.9503  0.6151
  411MOL0     H55445   6.000   1.652   8.640 -2.9751  2.7286 -1.2646
  411MOL0     H55446   5.801   1.685   8.531  1.4573 -0.3410  1.3232
  411MOL0     H55447   5.639   1.650   8.601  0.1065 -3.9584  2.3401
  411MOL0     H55448   5.749   1.786   8.658  2.4341 -0.0608 -1.2670
  411MOL0     H55449   5.444   1.231   8.832 -0.9758  1.1173 -0.6839
  411MOL0     H55450   5.212   1.150   8.887 -2.1235  0.5111 -0.2336
  411MOL0     H55451   4.942   1.481   8.927  2.2441  0.1299 -2.1015
  411MOL0     H55452   4.954   1.367   8.792  1.9651 -4.5248  0.1429
  411MOL0     H55453   4.728   1.390   8.849  3.0632  0.8057 -1.0103
  411MOL0     H55454   4.772   1.225   8.875 -0.2639  0.6458 -2.0468
  411MOL0     H55455   4.604   1.353   9.029 -0.2863 -1.1043  0.4094
  411MOL0     H55456   4.764   1.426   9.101  1.2675 -1.0233 -0.3790
  411MOL0     H55457   4.688   1.133   9.095 -0.8965  0.1132  0.1822
  411MOL0     H55458   4.842   1.209   9.149  1.5498  2.4368 -2.4283
  411MOL0     H55459   4.670   1.155   9.344 -1.0157  0.5147  0.6309
  411MOL0     H55460   4.584   1.301   9.282  0.0181  0.9681  0.4082
  411MOL0     H55461   4.878   1.295   9.360 -0.2248 -0.2391  0.7010
  411MOL0     H55462   4.780   1.425   9.320  0.9878 -0.7079 -1.2349
  411MOL0     H55463   4.626   1.411   9.514 -0.6009  0.5271  2.3594
  411MOL0     H55464   4.794   1.414   9.566  0.0798 -0.1538 -0.6262
  411MOL0     H55465   4.624   1.157   9.570 -2.8633  2.3784  2.0866
  411MOL0     H55466   4.690   1.241   9.710 -0.2408  0.3440 -0.2646
  411MOL0     H55467   5.115   1.533   9.036 -0.9460 -1.6611  1.4141
  411MOL0     H55468   5.354   1.592   9.028  1.9669  0.4143 -1.9465
  411MOL0     H55469   5.774   1.375   8.979 -0.6317 -1.7716 -3.0144
  411MOL0     H55470   6.020   1.398   8.977 -0.2475  1.3782  2.7520
  411MOL0     H55471   7.793   1.669   9.360  0.8845 -0.1504  0.6596
  411MOL0     H55472   7.998   1.792   9.280 -0.4632  0.4104  1.6645
  411MOL0     H55473   8.385   1.839   9.166  2.1595  0.3674 -0.1299
  411MOL0     H55474   8.567   1.966   9.069  1.3504 -1.9072 -0.1746
  411MOL0     H55475   8.745   2.035   8.937 -1.4518 -1.8895  0.8624
  411MOL0     H55476   8.769   1.912   8.807 -0.3055 -1.5472  1.4332
  411MOL0     H55477   8.755   2.164   8.673  2.2573  2.8533  0.7074
  411MOL0     H55478   8.904   2.084   8.699  2.3215  2.6541  2.1393
  411MOL0     H55479   8.931   2.195   8.911 -2.4208 -0.8253  1.9680
  411MOL0     H55480   8.768   2.268   8.882  0.4001  2.0452  0.1645
  411MOL0     H55481   8.959   2.417   8.827  0.3049  0.3059 -1.9204
  411MOL0     H55482   8.843   2.375   8.690  0.7615 -0.0619 -0.9804
  411MOL0     H55483   9.228   2.252   8.566 -0.8938 -1.1684 -2.4568
  411MOL0     H55484   8.440   1.868   8.675 -1.3486 -1.6320  0.0362
  411MOL0     H55485   8.243   1.739   8.776  0.7880  1.4173 -1.3491
  412MOL0     O55486   1.009  10.311   1.124  0.9184  0.0238  1.2642
  412MOL0     C55487   1.063  10.201   1.145 -0.3440  0.5242 -0.4743
  412MOL0     O55488   1.107  10.159   1.273  0.1759 -0.4966  0.5605
  412MOL0     C55489   1.109  10.262   1.368 -0.6417 -0.3732  0.6895
  412MOL0     C55490   1.190  10.375   1.341 -0.4104  0.3451  0.1288
  412MOL0     C55491   1.213  10.466   1.441 -0.9743  0.0340  0.0597
  412MOL0     C55492   1.155  10.455   1.568  0.7668 -0.8193  0.0441
  412MOL0     O55493   1.173  10.553   1.664  0.1478  0.0555 -1.1002
  412MOL0     C55494   1.100  10.681   1.636  0.5205  0.4768 -0.5328
  412MOL0     C55495   1.124  10.783   1.745  0.7215 -0.0816  0.2392
  412MOL0     C55496   1.094  10.927   1.681  0.0002  0.4352  0.6874
  412MOL0     C55497   1.133  11.047   1.769 -0.1731 -0.0978  0.6377
  412MOL0     C55498   1.255  11.014   1.863  0.5575 -0.7215 -0.2096
  412MOL0     C55499   1.302  11.139   1.947 -0.5649  0.8585 -0.6344
  412MOL0     C55500   1.412  11.093   2.050  0.5492 -0.3347  0.5718
  412MOL0     C55501   1.455  11.215   2.141  0.1436 -0.6759  0.1653
  412MOL0     N55502   1.568  11.167   2.220  0.0823 -0.4873  0.6134
  412MOL0     C55503   1.556  11.126   2.349 -0.5486 -0.7383  0.4787
  412MOL0     C55504   1.684  11.085   2.387  0.6363  0.1808  0.1772
  412MOL0     C55505   1.730  11.015   2.517 -0.3092 -0.7103  0.0947
  412MOL0     C55506   1.736  10.863   2.499 -0.0381 -0.7215 -0.0699
  412MOL0     C55507   1.711  10.805   2.646  1.1034  0.1170 -0.7409
  412MOL0     C55508   1.712  10.655   2.626  0.6361 -1.0325 -0.4930
  412MOL0     O55509   1.700  10.601   2.757 -0.1367 -0.2893  0.3687
  412MOL0     C55510   1.796  10.624   2.855  0.9327  0.6512  0.0451
  412MOL0     C55511   1.934  10.654   2.834 -0.9551 -0.4084  0.3922
  412MOL0     C55512   2.030  10.656   2.936 -0.2628 -0.2896 -0.4507
  412MOL0     C55513   2.172  10.675   2.890 -0.2835  0.7385  0.3636
  412MOL0     C55514   1.999  10.608   3.062  0.3819  0.3259 -0.3586
  412MOL0     C55515   2.101  10.609   3.174  0.3313 -1.2946 -0.0167
  412MOL0     O55516   2.205  10.698   3.181  0.6161  0.6522  0.1082
  412MOL0     C55517   2.318  10.655   3.245  0.2835 -0.0460 -0.1550
  412MOL0     C55518   2.365  10.527   3.234 -0.6201 -0.0536  0.9425
  412MOL0     C55519   2.476  10.476   3.314 -0.4157  0.1063 -0.6389
  412MOL0     C55520   2.537  10.564   3.400 -0.7776  0.5000 -0.0943
  412MOL0     O55521   2.639  10.515   3.471  0.0054 -0.3934 -0.1059
  412MOL0     C55522   2.757  10.487   3.401  1.0858 -0.0841  0.5123
  412MOL0     C55523   2.881  10.543   3.466  0.4402  0.0416 -0.2389
  412MOL0     C55524   3.009  10.489   3.402 -0.1677 -1.0651  0.2659
  412MOL0     C55525   3.020  10.548   3.253 -0.8624  0.4349 -0.5439
  412MOL0     C55526   3.142  10.492   3.188 -0.0644 -0.4611  0.1266
  412MOL0     C55527   3.255  10.591   3.157 -0.1384  0.1060 -0.0699
  412MOL0     C55528   3.311  10.656   3.276  0.7518 -0.1184  0.1386
  412MOL0     C55529   3.412  10.765   3.226 -0.2926 -0.2370 -0.4544
  412MOL0    Cl55530   3.338  10.912   3.160 -0.3224  0.1837 -0.1336
  412MOL0     C55531   2.509  10.705   3.396 -0.2863  0.7456  0.1353
  412MOL0     C55532   2.393  10.748   3.322  0.7324 -0.3595  0.2304
  412MOL0     O55533   2.083  10.517   3.255  0.1545  0.1371  0.3847
  412MOL0     C55534   1.866  10.578   3.084 -0.2275  0.1279  0.6260
  412MOL0     C55535   1.769  10.589   2.981 -0.1307 -0.9104  0.6306
  412MOL0     N55536   1.769  11.099   2.282 -1.3943 -0.0657 -0.1216
  412MOL0     N55537   1.705  11.159   2.194  0.9330 -0.8447  0.3836
  412MOL0     C55538   1.074  10.349   1.590  0.1036  0.3062 -0.1564
  412MOL0     C55539   1.054  10.254   1.490  0.3118 -0.4818  0.1790
  412MOL0     C55540   1.060  10.112   1.027 -0.7010  0.2979  0.0131
  412MOL0     C55541   1.039  10.148   0.893 -0.1313  0.6161  0.3199
  412MOL0     C55542   1.040  10.051   0.791  0.3238  0.0334  0.2541
  412MOL0     C55543   1.064   9.917   0.807  0.3274 -0.9055  0.2636
  412MOL0     O55544   1.058   9.845   0.681 -0.3563  0.2030  0.5029
  412MOL0     C55545   1.091   9.703   0.676 -0.4874 -0.6027 -0.5738
  412MOL0     C55546   1.226   9.682   0.608  0.7026  0.6036  0.1387
  412MOL0     C55547   1.255   9.535   0.618  0.4828 -0.6109  0.4429
  412MOL0     C55548   1.394   9.490   0.688 -0.1048 -0.2558 -0.6385
  412MOL0     C55549   1.400   9.338   0.660  0.2842  0.0405 -1.4946
  412MOL0     C55550   1.405   9.220   0.640 -0.2386 -1.0797  0.4435
  412MOL0     C55551   1.096   9.880   0.935  0.6034 -0.7297 -0.5866
  412MOL0     C55552   1.099   9.969   1.048  0.5059  0.7500  0.9569
  412MOL0     H55553   1.243  10.385   1.246 -0.2401 -1.2032  0.0301
  412MOL0     H55554   1.281  10.543   1.408 -1.6237  0.7351  0.3281
  412MOL0     H55555   1.129  10.720   1.538 -0.4766  1.1265 -0.5756
  412MOL0     H55556   0.992  10.665   1.634  0.1787  2.2043  1.2296
  412MOL0     H55557   1.075  10.764   1.841  1.1612  4.2851  1.5167
  412MOL0     H55558   1.232  10.788   1.761  0.7237  0.6072  0.0305
  412MOL0     H55559   1.136  10.930   1.580 -0.1780  0.7458  0.6214
  412MOL0     H55560   0.985  10.929   1.678 -0.0013  0.1757 -2.2556
  412MOL0     H55561   1.146  11.135   1.705 -0.1663 -0.0752  0.6696
  412MOL0     H55562   1.042  11.062   1.827  1.2849 -0.3742  3.1327
  412MOL0     H55563   1.238  10.928   1.928 -1.0310 -1.5034 -1.5732
  412MOL0     H55564   1.343  10.989   1.804  1.7843  1.9668  0.3476
  412MOL0     H55565   1.326  11.221   1.878 -2.5010  1.9065 -0.1331
  412MOL0     H55566   1.214  11.174   2.001 -2.6414  1.1334 -3.9280
  412MOL0     H55567   1.374  11.011   2.111  2.4536 -0.9751  0.9517
  412MOL0     H55568   1.493  11.047   1.993 -1.3880 -2.0677 -0.9571
  412MOL0     H55569   1.372  11.237   2.208  2.5284 -0.6327  3.3647
  412MOL0     H55570   1.477  11.304   2.081 -3.8802  1.2471  1.2083
  412MOL0     H55571   1.462  11.139   2.402 -1.7109 -0.0214 -1.6650
  412MOL0     H55572   1.822  11.058   2.559  0.0674  0.5391 -1.8470
  412MOL0     H55573   1.655  11.030   2.595  0.6453 -4.8074  2.0249
  412MOL0     H55574   1.842  10.847   2.478 -0.0152 -0.3966 -0.2055
  412MOL0     H55575   1.668  10.813   2.429 -1.7542 -1.4683  2.0073
  412MOL0     H55576   1.616  10.840   2.688  1.3588 -1.2056  1.0704
  412MOL0     H55577   1.796  10.829   2.711 -1.7407  2.4597  2.4554
  412MOL0     H55578   1.808  10.621   2.586  0.2795 -2.5411 -0.1319
  412MOL0     H55579   1.633  10.621   2.558  1.6599 -1.4611 -1.5113
  412MOL0     H55580   1.955  10.683   2.732 -3.4758 -0.6921 -0.2783
  412MOL0     H55581   2.173  10.661   2.781 -0.9139 -0.1303  0.4612
  412MOL0     H55582   2.214  10.768   2.931 -0.8172  1.7872 -1.3580
  412MOL0     H55583   2.224  10.584   2.920  0.1050 -0.0630 -2.4115
  412MOL0     H55584   2.320  10.458   3.164 -0.8956  1.6315 -0.6154
  412MOL0     H55585   2.525  10.380   3.327 -1.0719 -0.0623  0.7962
  412MOL0     H55586   2.773  10.378   3.402 -0.6615 -0.3670  1.6168
  412MOL0     H55587   2.746  10.520   3.297  0.9426 -0.6707  0.3345
  412MOL0     H55588   2.876  10.652   3.462 -1.4219  0.0400 -5.4513
  412MOL0     H55589   2.873  10.501   3.567 -0.6890 -1.0479 -0.7516
  412MOL0     H55590   3.005  10.379   3.399  0.0379 -1.0595 -2.3296
  412MOL0     H55591   3.095  10.518   3.462  1.3639 -3.3102 -0.7216
  412MOL0     H55592   2.938  10.530   3.183  0.4009 -2.2558 -1.4622
  412MOL0     H55593   3.033  10.656   3.270 -0.1748  0.2271  0.3167
  412MOL0     H55594   3.108  10.440   3.098 -4.0395  0.2927  1.0177
  412MOL0     H55595   3.190  10.425   3.259  0.0317  1.3970  1.8999
  412MOL0     H55596   3.323  10.529   3.097 -1.0425 -0.7600 -0.2204
  412MOL0     H55597   3.216  10.676   3.101  0.6109  0.7708  0.3860
  412MOL0     H55598   3.356  10.587   3.348  1.3120 -1.6548 -1.6102
  412MOL0     H55599   3.239  10.711   3.337 -0.0779 -0.0763 -0.8524
  412MOL0     H55600   3.484  10.720   3.158  1.4050 -0.4971  1.4128
  412MOL0     H55601   3.467  10.799   3.315  0.0645  3.9737 -2.0301
  412MOL0     H55602   2.563  10.774   3.459  1.1092  1.3725 -1.6744
  412MOL0     H55603   2.373  10.855   3.329  4.8538  0.6338 -0.5612
  412MOL0     H55604   1.828  10.553   3.183  2.5655  1.0599  2.0327
  412MOL0     H55605   1.665  10.560   2.996  0.0688 -1.6085  0.6944
  412MOL0     H55606   1.027  10.341   1.688 -3.0270  0.5454 -1.5014
  412MOL0     H55607   0.990  10.167   1.503 -2.4151  1.1987 -1.2098
  412MOL0     H55608   1.026  10.253   0.869  4.0440  1.1072 -0.5367
  412MOL0     H55609   1.018  10.088   0.692 -4.3296  0.7505  1.3136
  412MOL0     H55610   1.105   9.652   0.771  1.9174 -2.5652 -1.8419
  412MOL0     H55611   1.007   9.654   0.626 -0.6214 -2.8362  1.6424
  412MOL0     H55612   1.308   9.736   0.657  3.3344 -2.4398 -0.6009
  412MOL0     H55613   1.236   9.713   0.504  1.1512  0.4362  0.1266
  412MOL0     H55614   1.250   9.499   0.514  1.2377 -0.4401  0.3429
  412MOL0     H55615   1.170   9.477   0.655 -0.8003 -1.0017 -2.7389
  412MOL0     H55616   1.396   9.514   0.795 -1.2791 -0.5790 -0.5361
  412MOL0     H55617   1.475   9.539   0.633 -0.2033  0.6605  0.0138
  412MOL0     H55618   1.413   9.116   0.614  1.7004 -0.5738 -1.3244
  412MOL0     H55619   1.110   9.776   0.959 -1.5291 -0.5409  1.8908
  412MOL0     H55620   1.125   9.941   1.149  0.7054 -0.0872  0.6831
  413MOL0     O55621   3.479   0.970   9.525  0.3033 -0.4052 -0.8715
  413MOL0     C55622   3.547   1.046   9.463 -0.5185 -1.0449 -0.5132
  413MOL0     O55623   3.663   1.007   9.390  0.3098 -0.3325  0.2395
  413MOL0     C55624   3.681   0.871   9.390 -0.3338 -0.1747  0.4883
  413MOL0     C55625   3.613   0.784   9.296 -0.5138  0.0671 -0.1083
  413MOL0     C55626   3.653   0.654   9.283  0.1838 -0.7733  0.3684
  413MOL0     C55627   3.763   0.607   9.369  0.3613  0.7743  0.0797
  413MOL0     O55628   3.802   0.483   9.383  0.4205 -0.1675  0.2756
  413MOL0     C55629   3.696   0.392   9.370  0.7145  0.3334  0.1079
  413MOL0     C55630   3.765   0.251   9.352  0.2775 -0.3596 -0.2330
  413MOL0     C55631   3.661   0.136   9.360 -0.8056  0.1775 -0.4639
  413MOL0     C55632   3.760   0.009   9.332 -0.5017  0.0024 -0.6474
  413MOL0     C55633   3.692  -0.128   9.344 -0.0601  0.2520  0.5662
  413MOL0     C55634   3.783  -0.243   9.325  0.2303  0.0382  1.3959
  413MOL0     C55635   3.802  -0.342   9.446 -0.1184  0.6700  0.1479
  413MOL0     C55636   3.937  -0.416   9.452 -0.0216  0.4465 -0.1366
  413MOL0     N55637   3.981  -0.450   9.585 -0.4957  0.0225 -0.1579
  413MOL0     C55638   3.907  -0.524   9.678 -0.6935  0.4905 -0.2579
  413MOL0     C55639   3.977  -0.519   9.794 -0.0106  0.1106  0.4713
  413MOL0     C55640   3.952  -0.583   9.931 -0.3147  0.0545  0.5711
  413MOL0     C55641   4.041  -0.702   9.951 -0.0936  0.6828 -0.2347
  413MOL0     C55642   4.021  -0.778  10.079  0.6056  0.1669  0.6113
  413MOL0     C55643   3.881  -0.801  10.138  0.0794  0.0277 -1.0109
  413MOL0     O55644   3.888  -0.871  10.262 -0.5637 -0.0612  0.3051
  413MOL0     C55645   3.768  -0.906  10.317  0.3762 -1.4097  0.4713
  413MOL0     C55646   3.769  -1.031  10.376 -0.2767 -0.1033  0.0865
  413MOL0     C55647   3.645  -1.085  10.430 -0.0999  0.4854  0.3789
  413MOL0     C55648   3.643  -1.228  10.479  0.2574  0.6781 -0.4848
  413MOL0     C55649   3.520  -1.006  10.418 -0.0599 -0.3137 -0.1116
  413MOL0     C55650   3.378  -1.031  10.456 -0.7283  0.9251  0.1097
  413MOL0     O55651   3.297  -0.925  10.481  0.5883  0.2908 -0.2010
  413MOL0     C55652   3.185  -0.948  10.565 -0.1320 -0.3790 -0.5606
  413MOL0     C55653   3.192  -1.001  10.692  0.7441  0.8936  0.2578
  413MOL0     C55654   3.075  -1.001  10.777  0.4819 -0.4881  0.6103
  413MOL0     C55655   2.957  -0.955  10.725 -0.1571 -0.2429  0.3965
  413MOL0     O55656   2.849  -0.936  10.801 -0.2450  0.5011 -0.3317
  413MOL0     C55657   2.809  -0.798  10.813 -0.3967  0.6662 -0.7103
  413MOL0     C55658   2.724  -0.769  10.933 -0.3477  1.1740  0.2482
  413MOL0     C55659   2.803  -0.739  11.062 -0.2360 -0.0327 -0.3262
  413MOL0     C55660   2.710  -0.680  11.161 -0.2816 -0.1573  0.3741
  413MOL0     C55661   2.780  -0.652  11.294  0.0815  0.1217 -0.0303
  413MOL0     C55662   2.867  -0.524  11.285 -0.5750 -0.9767  0.0727
  413MOL0     C55663   2.903  -0.492  11.422 -0.4780 -0.1030  0.0377
  413MOL0     C55664   3.010  -0.379  11.432 -0.7136 -0.1101 -0.0433
  413MOL0    Cl55665   3.176  -0.430  11.371  0.1371  0.3239 -0.2127
  413MOL0     C55666   2.957  -0.914  10.591  0.5241  0.2045  0.6421
  413MOL0     C55667   3.062  -0.908  10.512  0.0405  0.6623  0.1416
  413MOL0     O55668   3.346  -1.152  10.483 -0.3608 -0.6040 -0.2835
  413MOL0     C55669   3.530  -0.878  10.352 -0.4052 -0.5974 -0.4418
  413MOL0     C55670   3.650  -0.828  10.299  0.9011  0.8070 -0.3601
  413MOL0     N55671   4.087  -0.433   9.768 -0.7588  0.0575 -0.2753
  413MOL0     N55672   4.093  -0.396   9.647  0.0902 -0.2175  0.0685
  413MOL0     C55673   3.831   0.700   9.454  1.3577  0.4332  0.7309
  413MOL0     C55674   3.792   0.829   9.456 -0.6349 -0.4111 -1.2764
  413MOL0     C55675   3.505   1.191   9.472  0.9740  0.0592 -0.4851
  413MOL0     C55676   3.368   1.226   9.501  0.1362 -0.5533  1.6329
  413MOL0     C55677   3.337   1.363   9.487 -0.2215 -0.6269  0.2536
  413MOL0     C55678   3.432   1.465   9.471  1.2711  0.0155 -0.5786
  413MOL0     O55679   3.404   1.598   9.497  0.2316 -0.2664 -0.1412
  413MOL0     C55680   3.459   1.708   9.426  0.2497  1.1520 -0.5969
  413MOL0     C55681   3.358   1.826   9.433 -0.5546 -0.1496 -0.4213
  413MOL0     C55682   3.414   1.954   9.375  0.1376 -0.3190  0.3893
  413MOL0     C55683   3.291   2.057   9.373 -0.6681 -0.2623  0.6701
  413MOL0     C55684   3.317   2.189   9.313 -0.1499  0.3168 -0.9278
  413MOL0     C55685   3.322   2.297   9.272 -0.4863 -0.5682 -0.7304
  413MOL0     C55686   3.556   1.429   9.431  1.8399  0.2020  0.1342
  413MOL0     C55687   3.605   1.293   9.444  0.3069 -0.7487 -0.7321
  413MOL0     H55688   3.540   0.838   9.237  0.7702  5.5554  2.6596
  413MOL0     H55689   3.585   0.591   9.225 -1.0750  1.1318 -0.3154
  413MOL0     H55690   3.649   0.399   9.469 -0.5850 -1.6115 -0.3149
  413MOL0     H55691   3.624   0.402   9.288 -0.0562 -0.6637  0.6427
  413MOL0     H55692   3.798   0.249   9.248  1.3451 -1.2538  0.1033
  413MOL0     H55693   3.857   0.241   9.411  0.8931  1.4435 -0.8181
  413MOL0     H55694   3.617   0.130   9.460  1.1709 -0.4481  0.4173
  413MOL0     H55695   3.572   0.162   9.301 -2.9075  0.6230  2.6625
  413MOL0     H55696   3.803   0.023   9.232 -2.0950  1.4447 -1.1618
  413MOL0     H55697   3.846   0.014   9.400 -0.4205 -0.9587 -0.6605
  413MOL0     H55698   3.636  -0.135   9.437  1.6073 -3.5158  1.4708
  413MOL0     H55699   3.632  -0.135   9.252 -1.2119  2.6254  1.0624
  413MOL0     H55700   3.740  -0.302   9.243  0.4605  0.6364  0.8376
  413MOL0     H55701   3.879  -0.206   9.287 -0.3971  2.0489  1.6463
  413MOL0     H55702   3.782  -0.288   9.539 -0.1263 -1.6566  1.5789
  413MOL0     H55703   3.718  -0.408   9.422 -0.2550  1.2987 -1.1838
  413MOL0     H55704   4.016  -0.359   9.402  0.3416 -1.3166 -1.7033
  413MOL0     H55705   3.941  -0.505   9.389  1.6439  0.9337 -0.7655
  413MOL0     H55706   3.825  -0.593   9.661 -0.4456  0.4150 -1.1899
  413MOL0     H55707   3.974  -0.502  10.001  2.5924 -0.3641  0.2890
  413MOL0     H55708   3.850  -0.620   9.943 -0.6103  0.6565 -0.0732
  413MOL0     H55709   4.143  -0.667   9.968  0.1301 -0.7013  1.5920
  413MOL0     H55710   4.029  -0.769   9.866 -0.3538  1.4618 -0.8218
  413MOL0     H55711   4.082  -0.725  10.153  1.8991  0.5621 -0.6844
  413MOL0     H55712   4.065  -0.874  10.050  1.0302 -0.4387  3.0978
  413MOL0     H55713   3.811  -0.845  10.066 -0.0367  0.7850 -1.3646
  413MOL0     H55714   3.846  -0.700  10.162 -3.5291 -1.0347 -1.1863
  413MOL0     H55715   3.860  -1.090  10.374 -1.4503 -2.0010 -0.4574
  413MOL0     H55716   3.742  -1.240  10.524  1.0377 -0.1595 -2.3310
  413MOL0     H55717   3.560  -1.247  10.548  1.4269 -0.3376  0.6760
  413MOL0     H55718   3.645  -1.304  10.400  4.0926  0.5425 -0.4201
  413MOL0     H55719   3.285  -1.028  10.741 -0.3308  2.3923  3.3664
  413MOL0     H55720   3.090  -1.021  10.883  4.6536 -0.5923  0.1678
  413MOL0     H55721   2.897  -0.734  10.817 -1.1660  1.8110 -1.4801
  413MOL0     H55722   2.739  -0.777  10.732 -1.2461  3.1092  0.5655
  413MOL0     H55723   2.656  -0.689  10.904  1.0251  2.5114  0.5798
  413MOL0     H55724   2.669  -0.861  10.957  0.5440  0.5399 -0.0828
  413MOL0     H55725   2.883  -0.673  11.027 -1.0755 -0.8251 -4.1491
  413MOL0     H55726   2.835  -0.836  11.101 -2.3277 -1.9684 -3.0245
  413MOL0     H55727   2.644  -0.598  11.134 -0.1715  0.8472  2.8759
  413MOL0     H55728   2.632  -0.756  11.173 -0.8949 -0.0777 -2.4930
  413MOL0     H55729   2.834  -0.740  11.329  0.7252  1.6332  3.0731
  413MOL0     H55730   2.705  -0.637  11.371 -0.7502  0.5528 -0.8986
  413MOL0     H55731   2.947  -0.540  11.212 -0.6663  1.5368 -0.6796
  413MOL0     H55732   2.807  -0.447  11.236 -3.2883 -3.3719 -0.6241
  413MOL0     H55733   2.941  -0.583  11.469 -0.3152  1.3812  3.0579
  413MOL0     H55734   2.808  -0.466  11.470  0.0703  0.1063  1.0562
  413MOL0     H55735   3.022  -0.349  11.536 -1.3501 -0.8855  0.2525
  413MOL0     H55736   2.973  -0.291  11.379 -0.1430 -0.4649 -1.0685
  413MOL0     H55737   2.862  -0.889  10.546  0.9687  0.1381 -0.3615
  413MOL0     H55738   3.054  -0.870  10.410  1.3017 -2.1448 -1.1093
  413MOL0     H55739   3.447  -0.809  10.346  0.8011  1.1383  1.5412
  413MOL0     H55740   3.651  -0.729  10.255  0.2677  2.0712  2.2597
  413MOL0     H55741   3.915   0.669   9.515  0.2187 -0.7367  1.7841
  413MOL0     H55742   3.847   0.907   9.509  1.2055 -1.5981 -1.3417
  413MOL0     H55743   3.290   1.153   9.519 -2.0287  1.8309  2.6290
  413MOL0     H55744   3.238   1.396   9.515 -1.5683 -1.9752 -2.5764
  413MOL0     H55745   3.554   1.736   9.471  0.3917  0.2071 -0.2905
  413MOL0     H55746   3.483   1.686   9.322 -0.2971  1.5253 -0.8065
  413MOL0     H55747   3.335   1.839   9.539  1.1914  1.0014 -0.1174
  413MOL0     H55748   3.268   1.796   9.379 -0.5561  3.4962 -2.8205
  413MOL0     H55749   3.460   1.939   9.278  0.1603  0.9758  0.1779
  413MOL0     H55750   3.495   1.998   9.434 -1.8552  0.3206  2.8372
  413MOL0     H55751   3.255   2.053   9.477 -0.5408 -0.8450  0.6956
  413MOL0     H55752   3.217   2.016   9.304 -1.3176  0.8190  0.7031
  413MOL0     H55753   3.324   2.399   9.239  2.0232 -1.0587 -2.3247
  413MOL0     H55754   3.616   1.513   9.395 -0.5583  1.8050 -0.3234
  413MOL0     H55755   3.702   1.252   9.415 -0.1180 -1.7863 -0.7403
  414MOL0     O55756   5.469   3.205   7.250  0.7001  0.8996  0.0750
  414MOL0     C55757   5.373   3.128   7.250  0.1479 -0.5375  0.3483
  414MOL0     O55758   5.373   3.004   7.192  0.2737  0.0933  0.3590
  414MOL0     C55759   5.456   2.970   7.089 -0.4868  0.8486  0.0053
  414MOL0     C55760   5.542   3.058   7.015  0.1856 -0.0748 -0.0894
  414MOL0     C55761   5.620   3.008   6.914 -0.5491 -0.5085 -0.3794
  414MOL0     C55762   5.628   2.876   6.891  0.5736  1.5196  0.0903
  414MOL0     O55763   5.707   2.808   6.791  1.3114  1.1045 -0.7024
  414MOL0     C55764   5.824   2.877   6.747 -0.1767 -0.2064  0.6945
  414MOL0     C55765   5.923   2.786   6.685  0.7048  0.6439  0.3887
  414MOL0     C55766   5.877   2.638   6.648  0.9416  0.4455 -0.6223
  414MOL0     C55767   5.964   2.588   6.526  0.2000  0.3274  0.4348
  414MOL0     C55768   5.906   2.476   6.435 -0.5065  0.6284  0.2566
  414MOL0     C55769   5.968   2.461   6.291  0.0899  0.2487  0.7921
  414MOL0     C55770   6.067   2.347   6.289  1.5546 -0.2012 -0.1204
  414MOL0     C55771   6.138   2.345   6.154  0.4232  0.4383  0.7855
  414MOL0     N55772   6.228   2.229   6.163 -0.2947 -0.2217  0.2662
  414MOL0     C55773   6.199   2.099   6.154  0.9014  0.1814 -0.8124
  414MOL0     C55774   6.310   2.027   6.133 -0.4808 -0.4261 -0.2877
  414MOL0     C55775   6.317   1.870   6.137 -0.1937 -0.3381  0.4069
  414MOL0     C55776   6.461   1.827   6.176  0.3758 -0.4979  0.2741
  414MOL0     C55777   6.565   1.817   6.061 -0.3071  0.4336 -0.0579
  414MOL0     C55778   6.713   1.820   6.109 -0.0150  0.5989  0.4292
  414MOL0     O55779   6.747   1.700   6.182  0.5860  1.1315 -0.6616
  414MOL0     C55780   6.744   1.684   6.320  0.3794  0.8923  0.0813
  414MOL0     C55781   6.772   1.782   6.414  0.2384 -0.2970  0.4702
  414MOL0     C55782   6.766   1.765   6.554 -0.0274 -0.2141 -0.1418
  414MOL0     C55783   6.814   1.873   6.633 -0.0360 -0.0397 -0.4294
  414MOL0     C55784   6.718   1.639   6.599  0.8823  0.7311  0.6014
  414MOL0     C55785   6.725   1.610   6.742  0.1150 -0.4056  0.9172
  414MOL0     O55786   6.717   1.707   6.835 -0.1949  0.1066 -0.9387
  414MOL0     C55787   6.744   1.663   6.966 -0.4099 -0.0123  0.0431
  414MOL0     C55788   6.637   1.686   7.059 -0.0492  0.5895 -0.1328
  414MOL0     C55789   6.659   1.658   7.193 -0.2249 -0.0107 -0.3292
  414MOL0     C55790   6.776   1.591   7.232  0.7325  0.6793  0.8487
  414MOL0     O55791   6.773   1.538   7.354  0.1431  0.3691 -0.6155
  414MOL0     C55792   6.890   1.453   7.385  0.3348  0.2043 -0.2552
  414MOL0     C55793   6.848   1.399   7.530 -0.0866  0.5759  0.3821
  414MOL0     C55794   6.730   1.294   7.509 -0.4867 -0.3122 -0.3326
  414MOL0     C55795   6.684   1.240   7.641 -0.4438  0.5498 -0.2156
  414MOL0     C55796   6.561   1.302   7.704 -0.3159 -0.2123  0.2446
  414MOL0     C55797   6.506   1.223   7.821  0.0598  0.2278 -0.6673
  414MOL0     C55798   6.364   1.275   7.876  0.3403  0.3826  0.0595
  414MOL0     C55799   6.332   1.185   7.999 -0.1191 -0.0928 -0.8519
  414MOL0    Cl55800   6.212   1.281   8.094 -0.1891 -0.4495 -0.0492
  414MOL0     C55801   6.881   1.586   7.141  0.4235  0.9815 -0.6714
  414MOL0     C55802   6.863   1.625   7.013  0.4264  0.0050 -0.3331
  414MOL0     O55803   6.724   1.489   6.763  0.4277  0.4055  0.0085
  414MOL0     C55804   6.700   1.542   6.503  0.3870 -0.0982  0.4493
  414MOL0     C55805   6.712   1.560   6.368 -1.2244 -0.0707 -0.0729
  414MOL0     N55806   6.419   2.127   6.108 -0.0334  0.6216 -0.4959
  414MOL0     N55807   6.361   2.238   6.141  0.5500  0.0650  0.3292
  414MOL0     C55808   5.545   2.788   6.959 -0.4643 -0.7254  0.2904
  414MOL0     C55809   5.461   2.832   7.057 -0.4829 -0.8914 -0.3429
  414MOL0     C55810   5.260   3.169   7.336  0.0635 -0.0126 -0.1138
  414MOL0     C55811   5.263   3.287   7.416  0.2984  0.3903 -0.2821
  414MOL0     C55812   5.151   3.333   7.475 -0.2031  1.1882  0.1691
  414MOL0     C55813   5.032   3.254   7.474 -0.0006  0.5220 -0.5673
  414MOL0     O55814   4.919   3.311   7.536 -0.9018 -0.3577  0.0184
  414MOL0     C55815   4.807   3.227   7.569 -1.3478 -0.8638  0.1831
  414MOL0     C55816   4.701   3.268   7.674  0.1971  0.0474 -0.2257
  414MOL0     C55817   4.587   3.340   7.600  0.8818  0.5988 -0.7499
  414MOL0     C55818   4.629   3.449   7.497  0.2395  0.0370 -0.1466
  414MOL0     C55819   4.522   3.550   7.483  0.8225  0.4719  0.5911
  414MOL0     C55820   4.440   3.638   7.469  0.2578 -0.2001 -0.2586
  414MOL0     C55821   5.033   3.131   7.407 -0.6475  0.3441  0.2652
  414MOL0     C55822   5.148   3.086   7.345 -0.7431 -0.5320  0.7783
  414MOL0     H55823   5.549   3.164   7.035  1.3355  0.0146 -0.8736
  414MOL0     H55824   5.675   3.079   6.854 -0.4617 -0.3045 -0.0616
  414MOL0     H55825   5.783   2.952   6.679 -3.1796 -3.1210 -1.0344
  414MOL0     H55826   5.886   2.925   6.823  2.0399 -1.6738 -0.0916
  414MOL0     H55827   5.955   2.842   6.597 -0.8619  2.7079  1.0381
  414MOL0     H55828   6.017   2.770   6.739  0.4589 -2.6174  0.0683
  414MOL0     H55829   5.898   2.572   6.733  3.5596 -0.0427 -1.5762
  414MOL0     H55830   5.768   2.636   6.639  0.9808 -0.9908 -1.0298
  414MOL0     H55831   5.979   2.678   6.465 -0.3595  0.2208  0.1295
  414MOL0     H55832   6.061   2.557   6.565 -1.9755 -0.9419  5.7424
  414MOL0     H55833   5.919   2.388   6.499  0.5900  0.9458  0.4884
  414MOL0     H55834   5.801   2.502   6.416  1.0287  4.8534 -4.7309
  414MOL0     H55835   5.889   2.416   6.230 -0.2456  0.5226  1.0246
  414MOL0     H55836   5.989   2.561   6.253 -1.5086 -0.3567 -1.9270
  414MOL0     H55837   6.144   2.356   6.366  0.6591  0.2857  0.7487
  414MOL0     H55838   6.014   2.252   6.307  1.8346 -0.3741 -0.2105
  414MOL0     H55839   6.186   2.439   6.124 -0.5758  0.0035 -2.6219
  414MOL0     H55840   6.064   2.325   6.076 -1.0645  2.6537  1.5383
  414MOL0     H55841   6.103   2.054   6.178  0.2021  0.5639 -2.7612
  414MOL0     H55842   6.242   1.833   6.208 -1.4621 -0.5887 -1.0102
  414MOL0     H55843   6.296   1.837   6.035  0.7876  0.8433 -0.1953
  414MOL0     H55844   6.457   1.731   6.229 -0.8070 -1.3223 -1.2468
  414MOL0     H55845   6.502   1.903   6.244  2.4518 -0.5010 -0.8909
  414MOL0     H55846   6.544   1.887   5.980 -0.1363 -2.1596 -2.4681
  414MOL0     H55847   6.541   1.719   6.020  1.7685  0.1957 -0.7999
  414MOL0     H55848   6.728   1.916   6.161 -0.6012 -0.0037  1.7759
  414MOL0     H55849   6.787   1.811   6.029  1.5741 -3.3176  2.0595
  414MOL0     H55850   6.799   1.879   6.373  1.7349 -0.0766  1.9122
  414MOL0     H55851   6.881   1.841   6.713  0.2593  0.6491 -0.3882
  414MOL0     H55852   6.888   1.933   6.578 -0.2051  1.1886  0.6211
  414MOL0     H55853   6.735   1.937   6.673  1.7178  2.5456 -0.8308
  414MOL0     H55854   6.540   1.718   7.023 -0.1617 -0.9364 -1.3039
  414MOL0     H55855   6.586   1.677   7.271 -0.1569 -0.1924 -0.2192
  414MOL0     H55856   6.910   1.372   7.315 -0.0605 -2.0058  2.0298
  414MOL0     H55857   6.983   1.512   7.391 -0.9950  2.3408  4.8590
  414MOL0     H55858   6.934   1.345   7.570 -0.5565 -0.4484  0.0260
  414MOL0     H55859   6.821   1.479   7.600  3.0267  1.1644  1.0548
  414MOL0     H55860   6.759   1.211   7.443 -1.8323 -0.6739 -0.4928
  414MOL0     H55861   6.645   1.349   7.466 -0.4823  1.2784  1.5628
  414MOL0     H55862   6.670   1.135   7.613 -3.2236  0.5439  0.9184
  414MOL0     H55863   6.770   1.249   7.707  0.0342 -2.9899 -0.1528
  414MOL0     H55864   6.483   1.311   7.628 -1.6967  1.1865  1.7532
  414MOL0     H55865   6.585   1.407   7.720 -0.1899 -0.3555  1.0450
  414MOL0     H55866   6.490   1.120   7.787  2.7398  0.0543 -1.6469
  414MOL0     H55867   6.564   1.230   7.913  2.8338 -0.8058 -2.1971
  414MOL0     H55868   6.295   1.254   7.794  2.5960 -2.9895 -1.2117
  414MOL0     H55869   6.369   1.383   7.892  1.5757  0.4605 -0.7088
  414MOL0     H55870   6.418   1.175   8.067 -2.1668  1.1070  2.1353
  414MOL0     H55871   6.288   1.088   7.974 -0.4793 -0.1452 -0.0419
  414MOL0     H55872   6.976   1.542   7.169 -0.5532 -1.9509 -1.5940
  414MOL0     H55873   6.951   1.616   6.951 -1.2427 -0.9456 -2.7072
  414MOL0     H55874   6.681   1.441   6.538  5.8206 -1.4093  0.5673
  414MOL0     H55875   6.702   1.468   6.310 -1.6515 -0.5818  0.7888
  414MOL0     H55876   5.556   2.686   6.923 -2.5369 -0.8967  0.0321
  414MOL0     H55877   5.408   2.759   7.118  1.4907 -1.5304  0.7041
  414MOL0     H55878   5.357   3.336   7.437  3.7004 -5.2470 -0.2755
  414MOL0     H55879   5.157   3.428   7.529  0.0612 -0.3750  3.1218
  414MOL0     H55880   4.756   3.194   7.478  0.1355  0.1790 -1.0711
  414MOL0     H55881   4.833   3.127   7.604  0.4009 -0.4026  0.2894
  414MOL0     H55882   4.743   3.326   7.756  0.9028 -3.4773  2.1397
  414MOL0     H55883   4.653   3.180   7.717 -0.1840  1.2545  1.9407
  414MOL0     H55884   4.528   3.386   7.680 -0.5304  1.8344 -2.4325
  414MOL0     H55885   4.530   3.256   7.560 -0.5531  0.2674  1.7631
  414MOL0     H55886   4.623   3.397   7.401 -0.5615 -0.9077  0.3920
  414MOL0     H55887   4.731   3.482   7.515  1.5379 -3.6100  0.0833
  414MOL0     H55888   4.361   3.709   7.453 -1.0319 -1.8163 -1.4298
  414MOL0     H55889   4.945   3.068   7.410 -1.5210  1.5299  0.6621
  414MOL0     H55890   5.141   2.986   7.303  1.8001 -0.4904  0.0864
  415MOL0     O55891   4.918   2.110   8.694 -0.4565  0.2916  0.9007
  415MOL0     C55892   4.813   2.171   8.695  0.2789 -0.5819 -0.5268
  415MOL0     O55893   4.746   2.221   8.585 -0.4502  0.1902 -0.0924
  415MOL0     C55894   4.799   2.214   8.465 -0.0991 -0.6270 -0.4924
  415MOL0     C55895   4.931   2.259   8.435  0.6923 -0.3196 -0.0030
  415MOL0     C55896   4.980   2.249   8.309 -0.0932  0.1931  0.8112
  415MOL0     C55897   4.894   2.219   8.200 -0.0433  0.2037 -0.3514
  415MOL0     O55898   4.944   2.225   8.069  0.6543  0.2771 -0.7547
  415MOL0     C55899   4.860   2.176   7.962  0.6004  0.6529  0.4164
  415MOL0     C55900   4.752   2.275   7.919  0.2068 -0.2175  0.4730
  415MOL0     C55901   4.660   2.221   7.804 -1.1252 -0.6763 -0.0520
  415MOL0     C55902   4.565   2.100   7.862  1.0516  1.2315  0.6834
  415MOL0     C55903   4.474   2.032   7.757 -0.0715 -0.4599  0.1581
  415MOL0     C55904   4.360   2.127   7.715 -1.6170  0.8568  0.0553
  415MOL0     C55905   4.264   2.046   7.619  0.2547  0.4797 -0.0526
  415MOL0     C55906   4.307   2.057   7.463  0.5489  0.1885 -0.8566
  415MOL0     N55907   4.209   1.981   7.383  0.7322 -0.9216 -0.2480
  415MOL0     C55908   4.228   1.863   7.320 -0.7359  0.2082 -0.0097
  415MOL0     C55909   4.106   1.823   7.276 -0.3560 -0.5447 -0.3549
  415MOL0     C55910   4.066   1.709   7.195  1.2370  0.2042 -0.6512
  415MOL0     C55911   4.115   1.715   7.053 -0.4725 -0.4596  0.7606
  415MOL0     C55912   4.264   1.682   7.026  0.3926 -1.2567  0.2745
  415MOL0     C55913   4.303   1.654   6.877 -0.1900 -0.3501 -0.2238
  415MOL0     O55914   4.227   1.546   6.847  0.5103 -0.0220  0.9403
  415MOL0     C55915   4.241   1.509   6.714 -0.3746  0.0257  0.7652
  415MOL0     C55916   4.345   1.441   6.661 -0.4784  0.0550  0.1682
  415MOL0     C55917   4.372   1.420   6.529  0.4556  0.4863  0.1939
  415MOL0     C55918   4.507   1.343   6.507 -0.9802 -0.1129  0.0401
  415MOL0     C55919   4.276   1.459   6.431 -0.6336  0.7984 -0.2324
  415MOL0     C55920   4.289   1.441   6.285 -1.0546 -0.3445  1.8785
  415MOL0     O55921   4.375   1.350   6.232  0.6697  0.1672 -0.4363
  415MOL0     C55922   4.406   1.361   6.101 -1.0008  1.1528  0.4293
  415MOL0     C55923   4.372   1.259   6.002  0.7875 -0.3022  0.2640
  415MOL0     C55924   4.442   1.267   5.874 -0.5863 -0.3046  0.0186
  415MOL0     C55925   4.538   1.364   5.844  0.1441  0.0602 -0.3255
  415MOL0     O55926   4.586   1.349   5.724 -0.0651  0.4909  0.9046
  415MOL0     C55927   4.686   1.446   5.687 -0.7130  0.6345  1.0910
  415MOL0     C55928   4.723   1.404   5.541  0.1904  0.5008 -0.5084
  415MOL0     C55929   4.770   1.255   5.525 -1.3872 -0.3169  0.7098
  415MOL0     C55930   4.830   1.236   5.382  0.7704 -0.9869 -0.4480
  415MOL0     C55931   4.869   1.086   5.368  1.4928 -0.4194  0.3542
  415MOL0     C55932   4.917   1.044   5.228  0.2350  0.2573  0.5869
  415MOL0     C55933   5.058   1.099   5.186  0.7973 -0.8497  0.1073
  415MOL0     C55934   5.089   1.043   5.045  0.0773  0.2728  0.1727
  415MOL0    Cl55935   5.132   0.877   5.052  0.1883  0.1450  0.2822
  415MOL0     C55936   4.552   1.466   5.933 -0.6108  0.0738  1.2858
  415MOL0     C55937   4.484   1.470   6.057  0.7254  0.9296  0.3577
  415MOL0     O55938   4.241   1.538   6.225 -0.8670 -0.1278 -0.4189
  415MOL0     C55939   4.161   1.512   6.497 -0.6388  0.1208  0.4960
  415MOL0     C55940   4.152   1.550   6.625 -0.4204  0.1572  0.6971
  415MOL0     N55941   4.012   1.923   7.317 -0.6674  0.3057  0.8014
  415MOL0     N55942   4.076   2.015   7.383  0.2888  0.6194 -0.9644
  415MOL0     C55943   4.764   2.159   8.231 -0.2877 -0.0918 -0.0399
  415MOL0     C55944   4.721   2.155   8.365  0.4028  0.0073 -0.4949
  415MOL0     C55945   4.757   2.193   8.832 -0.1059  0.0049  0.1986
  415MOL0     C55946   4.648   2.274   8.868  0.4532 -0.3734 -0.3354
  415MOL0     C55947   4.602   2.284   9.001  0.2614 -0.6322  0.4793
  415MOL0     C55948   4.671   2.210   9.109  0.8247 -0.7248  0.4930
  415MOL0     O55949   4.632   2.235   9.235  0.2757 -0.3078 -0.4668
  415MOL0     C55950   4.750   2.256   9.319  0.6699 -0.0073  0.1523
  415MOL0     C55951   4.701   2.338   9.437 -0.5646  0.0799 -0.6037
  415MOL0     C55952   4.617   2.246   9.525 -0.1868 -0.3269 -0.4031
  415MOL0     C55953   4.562   2.326   9.636 -0.1581 -0.2314  0.2776
  415MOL0     C55954   4.480   2.250   9.720  0.1246  0.8001 -0.4895
  415MOL0     C55955   4.418   2.193   9.813 -0.5844 -0.4552 -0.6655
  415MOL0     C55956   4.773   2.129   9.071 -0.6438 -0.1824  0.8221
  415MOL0     C55957   4.820   2.132   8.940 -0.0178  1.3931  0.7297
  415MOL0     H55958   4.993   2.298   8.515  1.5129 -3.0005  0.7602
  415MOL0     H55959   5.085   2.277   8.299  0.5409  0.4506  5.8309
  415MOL0     H55960   4.917   2.151   7.871  0.4985  0.1197  0.4964
  415MOL0     H55961   4.826   2.075   7.987  0.8371  0.7086  0.9826
  415MOL0     H55962   4.693   2.315   8.002  0.7825 -1.8468  1.7192
  415MOL0     H55963   4.814   2.359   7.888  1.4812 -0.6649  1.7259
  415MOL0     H55964   4.608   2.304   7.755  0.5659  1.0636  1.0020
  415MOL0     H55965   4.726   2.185   7.724 -0.1440  1.1490 -0.1022
  415MOL0     H55966   4.614   2.015   7.910  1.9062 -1.0148 -3.6432
  415MOL0     H55967   4.494   2.144   7.933  0.1249 -1.2229  1.3800
  415MOL0     H55968   4.540   1.999   7.676  0.5232  0.5539  0.2023
  415MOL0     H55969   4.431   1.939   7.794  2.7716 -2.5533 -1.3937
  415MOL0     H55970   4.302   2.141   7.807 -2.0117 -1.4303  0.1949
  415MOL0     H55971   4.387   2.223   7.668  0.3245  0.5650  0.5070
  415MOL0     H55972   4.241   1.946   7.655 -0.1482  1.4836  2.7412
  415MOL0     H55973   4.167   2.097   7.627 -1.2930 -2.0857 -1.2620
  415MOL0     H55974   4.408   2.020   7.443 -0.3355 -1.8523 -1.7934
  415MOL0     H55975   4.300   2.163   7.436 -2.6976  1.3217  3.3650
  415MOL0     H55976   4.318   1.803   7.307 -0.8189 -0.0706  0.6442
  415MOL0     H55977   4.098   1.611   7.232 -0.0070  0.0137 -0.0168
  415MOL0     H55978   3.957   1.699   7.205  1.3315 -1.4942 -1.0275
  415MOL0     H55979   4.106   1.808   6.995  1.6796 -0.7885 -0.2080
  415MOL0     H55980   4.058   1.638   7.001 -1.9087  1.6925 -1.0381
  415MOL0     H55981   4.286   1.586   7.073 -0.4491 -0.5364  2.2000
  415MOL0     H55982   4.330   1.762   7.061 -2.6994  2.2587 -1.2395
  415MOL0     H55983   4.409   1.630   6.868  0.1876  0.2658  1.9814
  415MOL0     H55984   4.277   1.739   6.813 -1.4217 -0.6827 -0.1822
  415MOL0     H55985   4.427   1.417   6.729  0.4886  0.2493 -0.9033
  415MOL0     H55986   4.496   1.240   6.471 -1.3086  0.3514 -1.2575
  415MOL0     H55987   4.552   1.403   6.427 -0.1033 -1.0429 -0.1778
  415MOL0     H55988   4.572   1.340   6.594 -0.7561 -2.1737 -0.1586
  415MOL0     H55989   4.311   1.181   6.044  0.4558  0.4600  1.2354
  415MOL0     H55990   4.422   1.184   5.807 -4.4150  0.6350 -0.2778
  415MOL0     H55991   4.655   1.551   5.686 -1.3469  0.4745 -0.8684
  415MOL0     H55992   4.776   1.436   5.749  1.8215  1.2994 -2.1745
  415MOL0     H55993   4.637   1.417   5.475  1.6042 -0.7798 -2.7340
  415MOL0     H55994   4.807   1.470   5.514 -1.2072  1.3833 -3.0016
  415MOL0     H55995   4.688   1.191   5.558 -1.9093  0.6596  1.3836
  415MOL0     H55996   4.853   1.238   5.593 -0.5210  0.3684 -0.1458
  415MOL0     H55997   4.762   1.273   5.305 -0.8884 -0.4343  1.1997
  415MOL0     H55998   4.920   1.297   5.370  0.7230 -1.3213 -3.0344
  415MOL0     H55999   4.798   1.014   5.409  2.5519 -0.9704  1.2710
  415MOL0     H56000   4.955   1.053   5.426  1.8641 -2.3597 -1.1914
  415MOL0     H56001   4.907   0.935   5.217  0.8846  0.3272 -0.8561
  415MOL0     H56002   4.853   1.087   5.150  1.3121 -0.5297 -0.7730
  415MOL0     H56003   5.131   1.046   5.249  2.2382 -2.7603 -2.9163
  415MOL0     H56004   5.069   1.206   5.206 -0.4066 -0.5669 -0.6502
  415MOL0     H56005   5.182   1.092   5.014 -0.4328  0.8265 -0.5245
  415MOL0     H56006   5.013   1.080   4.976  1.0666  4.5818  1.1211
  415MOL0     H56007   4.611   1.557   5.922 -0.2640 -0.3885 -1.2576
  415MOL0     H56008   4.493   1.556   6.121  0.6083  3.0966 -2.3369
  415MOL0     H56009   4.079   1.537   6.430  0.1091 -1.6838 -1.1814
  415MOL0     H56010   4.051   1.586   6.642 -1.2730 -0.1159 -2.9088
  415MOL0     H56011   4.695   2.114   8.161  0.4031 -1.0495 -0.1170
  415MOL0     H56012   4.619   2.124   8.383  1.0293 -2.2988 -0.5582
  415MOL0     H56013   4.595   2.332   8.793  1.5374  1.5088  0.2763
  415MOL0     H56014   4.515   2.346   9.020  0.1369 -0.3732 -0.8735
  415MOL0     H56015   4.799   2.170   9.365 -0.2320 -0.4634  0.2791
  415MOL0     H56016   4.816   2.314   9.253 -1.5851 -0.6773 -2.9015
  415MOL0     H56017   4.636   2.417   9.399  1.9077  3.4576  1.5474
  415MOL0     H56018   4.785   2.384   9.491  1.9740 -1.9970 -2.5214
  415MOL0     H56019   4.682   2.167   9.565 -0.6666 -0.8313 -0.6074
  415MOL0     H56020   4.529   2.204   9.477  0.3134 -1.2044 -0.5775
  415MOL0     H56021   4.491   2.397   9.592  1.4705  0.1080 -1.9608
  415MOL0     H56022   4.632   2.367   9.709 -0.5401 -1.4359  1.3723
  415MOL0     H56023   4.367   2.132   9.884  3.4580 -0.7370  2.3521
  415MOL0     H56024   4.821   2.067   9.146  1.4773  1.7299  1.1655
  415MOL0     H56025   4.906   2.066   8.930  0.7299  2.3685  0.6215
  416MOL0     O56026   8.740   4.084   2.696  0.0342  0.4651  0.2519
  416MOL0     C56027   8.663   4.167   2.724  1.5396  0.9090 -0.5279
  416MOL0     O56028   8.556   4.203   2.650 -0.3700 -0.0899 -0.4291
  416MOL0     C56029   8.518   4.140   2.538  0.5055  0.9375  0.3356
  416MOL0     C56030   8.440   4.219   2.446 -1.2878  0.4084  0.0128
  416MOL0     C56031   8.395   4.174   2.317  0.1687  0.1190 -1.3780
  416MOL0     C56032   8.443   4.050   2.275 -0.0880  0.5233 -0.1494
  416MOL0     O56033   8.416   4.012   2.146 -0.1791 -0.4001 -0.0728
  416MOL0     C56034   8.483   3.904   2.079  0.2594 -0.0696  0.0104
  416MOL0     C56035   8.630   3.920   2.070 -1.1272 -0.4490  0.3075
  416MOL0     C56036   8.681   3.989   1.945 -0.7036 -0.9075 -0.2095
  416MOL0     C56037   8.656   3.916   1.815  0.1581  0.2937  0.8198
  416MOL0     C56038   8.747   3.972   1.704 -0.2042 -0.1715  0.3748
  416MOL0     C56039   8.710   3.890   1.578  0.1947 -0.4087 -0.7099
  416MOL0     C56040   8.802   3.900   1.447  0.3137  0.4816 -1.2263
  416MOL0     C56041   8.787   4.026   1.363  0.1373  1.0706 -0.0176
  416MOL0     N56042   8.678   3.999   1.277  0.4898 -0.5686  0.4785
  416MOL0     C56043   8.696   3.979   1.144 -0.4823 -0.4344 -0.4206
  416MOL0     C56044   8.578   4.002   1.084  0.6606 -0.7027  0.6388
  416MOL0     C56045   8.539   4.016   0.942  0.7681  0.5040  0.0341
  416MOL0     C56046   8.660   4.033   0.844  0.7060 -0.1886 -0.1843
  416MOL0     C56047   8.750   4.158   0.877 -1.1841  1.1276  0.0808
  416MOL0     C56048   8.872   4.158   0.796 -0.6856 -0.2633  0.0545
  416MOL0     O56049   8.964   4.051   0.805 -0.3062 -0.3717 -0.0390
  416MOL0     C56050   9.017   4.025   0.930 -0.4211 -0.7703 -0.2383
  416MOL0     C56051   9.053   4.121   1.026 -0.0133 -0.4869  0.2119
  416MOL0     C56052   9.133   4.093   1.132 -0.4138 -0.6521  0.6006
  416MOL0     C56053   9.169   4.212   1.224 -0.7688 -0.2275  0.3313
  416MOL0     C56054   9.190   3.957   1.146  0.6298 -0.9358  2.2161
  416MOL0     C56055   9.271   3.905   1.255 -0.7000  0.5953  0.1903
  416MOL0     O56056   9.287   3.760   1.263  0.5685  0.2830 -0.5543
  416MOL0     C56057   9.400   3.714   1.309  0.2486 -0.1628  0.8834
  416MOL0     C56058   9.485   3.642   1.219 -0.8179 -0.5814 -0.1588
  416MOL0     C56059   9.607   3.590   1.259  0.6261  0.3899  0.0001
  416MOL0     C56060   9.647   3.604   1.390 -0.5380 -0.1404  0.9348
  416MOL0     O56061   9.779   3.564   1.399 -0.3662 -0.1911 -0.1849
  416MOL0     C56062   9.833   3.540   1.533 -0.6518  0.4249  0.2423
  416MOL0     C56063   9.771   3.439   1.627  0.0163  0.7346  0.3520
  416MOL0     C56064   9.794   3.480   1.765 -0.0571  0.1792  0.4059
  416MOL0     C56065   9.800   3.359   1.866  0.5908  0.7109 -0.5791
  416MOL0     C56066   9.911   3.251   1.863 -0.3422  0.6084 -0.4132
  416MOL0     C56067   9.896   3.164   1.991 -0.3805 -0.2168  0.0768
  416MOL0     C56068   9.976   3.034   1.980  0.2831  1.2186 -0.3395
  416MOL0     C56069  10.009   2.984   2.120 -0.8339 -0.0529 -1.2000
  416MOL0    Cl56070  10.133   2.859   2.114  0.2634  0.1229  0.3004
  416MOL0     C56071   9.568   3.663   1.480  1.3027  0.6422  0.9967
  416MOL0     C56072   9.440   3.717   1.447  0.6508 -1.3760  0.1626
  416MOL0     O56073   9.336   3.982   1.333  0.2980  0.3710  0.4725
  416MOL0     C56074   9.147   3.867   1.037  0.0542  0.2074 -1.1394
  416MOL0     C56075   9.067   3.899   0.932 -0.6192  0.2623  1.2238
  416MOL0     N56076   8.486   4.027   1.188  0.1746 -0.7820  0.0114
  416MOL0     N56077   8.551   4.025   1.303  0.2500  0.9319  0.0976
  416MOL0     C56078   8.518   3.976   2.363 -0.9909  0.7447 -0.7157
  416MOL0     C56079   8.543   4.005   2.493  0.3968 -0.8241 -0.4071
  416MOL0     C56080   8.684   4.247   2.840 -0.0711 -0.4621  0.3119
  416MOL0     C56081   8.652   4.387   2.833  0.8791 -1.0370 -0.5631
  416MOL0     C56082   8.667   4.463   2.950 -0.3456  0.1538  0.5173
  416MOL0     C56083   8.707   4.403   3.070  0.4263 -0.2932 -0.5114
  416MOL0     O56084   8.691   4.484   3.184  0.0246 -0.2374  0.3061
  416MOL0     C56085   8.746   4.447   3.306 -0.4727  0.5687 -0.6240
  416MOL0     C56086   8.903   4.443   3.296  0.3539  0.5464 -0.8387
  416MOL0     C56087   8.987   4.447   3.421  1.0506  0.4723 -0.0231
  416MOL0     C56088   8.965   4.311   3.510 -0.7323 -0.2267  0.2755
  416MOL0     C56089   9.047   4.337   3.631 -0.6070  0.8026  0.0077
  416MOL0     C56090   9.133   4.338   3.721 -0.5912  0.1673  0.7302
  416MOL0     C56091   8.743   4.267   3.076 -0.0951 -0.2458 -0.6459
  416MOL0     C56092   8.729   4.192   2.959 -0.0128  0.0499  0.1030
  416MOL0     H56093   8.410   4.314   2.488 -0.7568  0.2392  0.7904
  416MOL0     H56094   8.340   4.239   2.249  0.9793 -1.3829 -3.5858
  416MOL0     H56095   8.458   3.814   2.136  0.6979 -1.1618 -1.4591
  416MOL0     H56096   8.450   3.880   1.978  3.1106 -0.3252 -0.9572
  416MOL0     H56097   8.664   3.988   2.149 -1.9177  4.0096 -2.8085
  416MOL0     H56098   8.666   3.817   2.065 -1.6050 -0.5986 -0.0189
  416MOL0     H56099   8.645   4.091   1.930  0.7633 -0.8332 -4.3024
  416MOL0     H56100   8.789   4.005   1.951 -0.5715 -1.5922 -0.6717
  416MOL0     H56101   8.668   3.807   1.819  0.0311  0.1183 -2.0023
  416MOL0     H56102   8.552   3.927   1.782  1.0357  1.9440 -1.6439
  416MOL0     H56103   8.735   4.080   1.696  1.7834  0.1204  0.6893
  416MOL0     H56104   8.852   3.947   1.722 -0.4103 -2.1105 -0.8767
  416MOL0     H56105   8.716   3.785   1.608  0.7488 -1.2676 -3.5147
  416MOL0     H56106   8.609   3.928   1.560  0.8132  3.6834  2.9536
  416MOL0     H56107   8.907   3.900   1.475 -0.3341  1.1735  1.4096
  416MOL0     H56108   8.785   3.812   1.383 -0.0355 -0.4965  0.1750
  416MOL0     H56109   8.879   4.016   1.305  0.3121 -2.0494  0.6586
  416MOL0     H56110   8.773   4.121   1.416  0.1938  1.9443 -1.5076
  416MOL0     H56111   8.782   3.954   1.082  0.6515  1.8436  0.1251
  416MOL0     H56112   8.477   3.930   0.914  1.9246 -0.0542 -0.9114
  416MOL0     H56113   8.480   4.108   0.938  2.6716  1.7339 -1.7416
  416MOL0     H56114   8.614   4.038   0.745  2.0953 -0.9091 -0.8832
  416MOL0     H56115   8.717   3.941   0.856  2.1900  0.7084 -0.0955
  416MOL0     H56116   8.784   4.159   0.981  2.5493  0.3858 -0.9815
  416MOL0     H56117   8.682   4.243   0.868  0.0888  2.1716  0.1214
  416MOL0     H56118   8.925   4.254   0.797  2.0689 -1.6990  0.9659
  416MOL0     H56119   8.837   4.144   0.693 -1.4542 -2.0200  0.5124
  416MOL0     H56120   9.021   4.222   1.002  3.3882  0.3381 -1.5758
  416MOL0     H56121   9.276   4.239   1.223 -0.3477 -1.5960  2.3590
  416MOL0     H56122   9.115   4.305   1.203 -2.0205 -1.3135 -1.5429
  416MOL0     H56123   9.166   4.180   1.328  1.0450  2.2664  1.2772
  416MOL0     H56124   9.467   3.639   1.112  1.0074 -4.8523 -0.5297
  416MOL0     H56125   9.677   3.540   1.193  0.5035 -2.6536  1.9974
  416MOL0     H56126   9.940   3.524   1.518  0.0728  4.2846  0.3214
  416MOL0     H56127   9.843   3.639   1.579 -1.1258 -1.0029  3.7888
  416MOL0     H56128   9.663   3.420   1.623  0.3728 -1.4713 -0.7226
  416MOL0     H56129   9.831   3.348   1.616 -0.5035  0.2259  1.5665
  416MOL0     H56130   9.708   3.545   1.781 -1.1673 -0.1494 -3.2429
  416MOL0     H56131   9.891   3.528   1.783  0.0717 -0.6909  2.3158
  416MOL0     H56132   9.805   3.401   1.967 -0.2234 -2.7837  1.0984
  416MOL0     H56133   9.706   3.304   1.856 -0.6240  2.9759 -2.4544
  416MOL0     H56134  10.006   3.305   1.866  0.0586 -0.1239  1.3147
  416MOL0     H56135   9.893   3.185   1.777 -0.8667 -1.9702  1.5380
  416MOL0     H56136   9.916   3.225   2.079  0.5338  1.8214 -1.4693
  416MOL0     H56137   9.793   3.135   2.011  0.3273 -3.4294 -0.3545
  416MOL0     H56138  10.069   3.048   1.924 -1.0418  0.1465 -2.9764
  416MOL0     H56139   9.919   2.959   1.924  0.0297  2.0267 -1.1963
  416MOL0     H56140   9.927   2.936   2.174  1.2674 -2.4375  0.1361
  416MOL0     H56141  10.043   3.063   2.187 -1.9290 -0.1084 -0.5642
  416MOL0     H56142   9.608   3.690   1.578 -0.1902  1.3225  1.4440
  416MOL0     H56143   9.380   3.768   1.521 -2.9471 -6.6505  1.4690
  416MOL0     H56144   9.185   3.767   1.051 -0.3785  0.3802  2.0474
  416MOL0     H56145   9.060   3.840   0.842  3.8717  1.7407 -0.3834
  416MOL0     H56146   8.554   3.877   2.338 -0.0063  0.3793  1.8338
  416MOL0     H56147   8.590   3.944   2.568 -1.1030 -1.4433  0.0589
  416MOL0     H56148   8.606   4.423   2.742  2.5320 -1.9980 -1.8379
  416MOL0     H56149   8.630   4.565   2.946 -4.1860 -1.1173 -1.0069
  416MOL0     H56150   8.717   4.523   3.380 -3.0047 -2.3966  1.6963
  416MOL0     H56151   8.707   4.346   3.319 -2.4644  1.2938 -0.5410
  416MOL0     H56152   8.921   4.528   3.229 -1.8260  1.4989 -0.2863
  416MOL0     H56153   8.934   4.353   3.242 -0.9039  0.5218 -1.5578
  416MOL0     H56154   8.948   4.535   3.473 -0.5919  0.2262 -0.7762
  416MOL0     H56155   9.090   4.469   3.391  1.6789  0.7455  2.1229
  416MOL0     H56156   8.998   4.231   3.443 -2.6231  2.2481 -4.0346
  416MOL0     H56157   8.857   4.305   3.529 -1.0530 -0.0597 -1.4190
  416MOL0     H56158   9.204   4.331   3.801  0.3581  0.3389 -0.0738
  416MOL0     H56159   8.778   4.210   3.162 -0.6950 -1.2661 -1.0571
  416MOL0     H56160   8.750   4.086   2.957 -1.2828 -0.4964  4.6414
  417MOL0     O56161  10.560   3.391   7.771 -0.3894 -0.0211  0.0861
  417MOL0     C56162  10.678   3.411   7.741  0.2145 -0.4113  0.3103
  417MOL0     O56163  10.778   3.319   7.757  0.7620  0.4115 -0.4199
  417MOL0     C56164  10.766   3.191   7.807 -0.2726 -0.3830  0.8900
  417MOL0     C56165  10.870   3.149   7.884  0.1531 -0.1528 -0.6493
  417MOL0     C56166  10.863   3.022   7.938  0.7038  0.1062 -1.2489
  417MOL0     C56167  10.765   2.928   7.906  0.8110 -0.4676  0.5099
  417MOL0     O56168  10.762   2.806   7.960 -0.2013 -0.3174  0.1221
  417MOL0     C56169  10.667   2.709   7.899  0.8038 -0.5202  0.0902
  417MOL0     C56170  10.710   2.573   7.929 -0.5585 -0.0223  0.9056
  417MOL0     C56171  10.724   2.537   8.080  0.4514 -0.3416  0.8724
  417MOL0     C56172  10.595   2.559   8.163  0.0068 -0.5921  0.5939
  417MOL0     C56173  10.596   2.500   8.306 -0.1476 -0.4542 -1.0384
  417MOL0     C56174  10.680   2.587   8.394  0.3178  0.4023  0.1964
  417MOL0     C56175  10.699   2.540   8.536  0.2612  0.5158  0.0711
  417MOL0     C56176  10.840   2.575   8.602 -0.4551  0.9265 -0.8342
  417MOL0     N56177  10.957   2.516   8.540 -0.3037 -1.2581  0.4791
  417MOL0     C56178  11.084   2.558   8.569  0.0529  0.6017 -0.0164
  417MOL0     C56179  11.163   2.470   8.498  0.2665 -0.8542  0.7377
  417MOL0     C56180  11.309   2.456   8.492  0.1256  0.3269 -0.1102
  417MOL0     C56181  11.357   2.419   8.623 -0.0770 -0.4956  0.9766
  417MOL0     C56182  11.511   2.399   8.618  0.0777  1.3310  0.9699
  417MOL0     C56183  11.588   2.511   8.686 -0.8513 -0.1573 -0.6011
  417MOL0     O56184  11.566   2.520   8.829 -0.3627  0.2605 -0.4102
  417MOL0     C56185  11.543   2.647   8.868 -0.3952 -0.2386 -0.3841
  417MOL0     C56186  11.621   2.763   8.831  0.0896  0.1649  0.2049
  417MOL0     C56187  11.574   2.895   8.864 -0.2674 -0.0001  1.3309
  417MOL0     C56188  11.634   3.002   8.779  0.3079  0.4846 -0.1020
  417MOL0     C56189  11.461   2.902   8.944  0.0684 -0.9145  0.9375
  417MOL0     C56190  11.410   3.035   8.987  0.5327 -0.3818 -0.2304
  417MOL0     O56191  11.496   3.129   9.031 -0.3326 -0.3278 -1.1588
  417MOL0     C56192  11.451   3.249   9.073 -0.7558  0.8075  0.3316
  417MOL0     C56193  11.532   3.359   9.035  0.0379 -0.1542 -0.7806
  417MOL0     C56194  11.505   3.488   9.086  0.4211  0.1638 -0.1749
  417MOL0     C56195  11.388   3.505   9.166  0.0210  0.6246 -0.9138
  417MOL0     O56196  11.341   3.627   9.197  0.5298  0.4140 -0.2132
  417MOL0     C56197  11.423   3.689   9.304  0.1650 -0.4559 -0.6141
  417MOL0     C56198  11.355   3.811   9.358  0.1870 -0.0354 -1.1676
  417MOL0     C56199  11.360   3.930   9.261 -0.3249 -0.6317  1.1106
  417MOL0     C56200  11.215   3.969   9.242 -0.6269 -0.2487  0.3470
  417MOL0     C56201  11.123   3.858   9.176 -0.0372 -0.2196 -0.7763
  417MOL0     C56202  10.976   3.906   9.151 -0.3262  0.0816 -0.4812
  417MOL0     C56203  10.916   3.814   9.053  0.1412 -0.8291 -0.2928
  417MOL0     C56204  10.968   3.829   8.906 -0.3497 -0.7026 -0.6673
  417MOL0    Cl56205  10.863   3.742   8.793 -0.2057 -0.2818  0.1173
  417MOL0     C56206  11.309   3.391   9.199 -0.0302  0.7311  0.2685
  417MOL0     C56207  11.345   3.266   9.159 -0.4653 -0.7277  0.0482
  417MOL0     O56208  11.288   3.045   8.969  0.5271 -0.4316 -0.1110
  417MOL0     C56209  11.401   2.786   8.996 -0.1496 -0.7501 -0.4954
  417MOL0     C56210  11.443   2.661   8.966 -0.5537 -0.7707  0.8404
  417MOL0     N56211  11.074   2.385   8.428  0.4782  0.2772 -0.1062
  417MOL0     N56212  10.946   2.409   8.470  0.9118 -0.2620  0.1468
  417MOL0     C56213  10.654   2.980   7.834 -0.4409 -0.2930 -0.5994
  417MOL0     C56214  10.652   3.110   7.796 -0.4891 -0.6714 -0.1167
  417MOL0     C56215  10.712   3.541   7.675  0.3667 -0.4316  0.0683
  417MOL0     C56216  10.844   3.576   7.647 -0.4422 -0.8969 -0.6995
  417MOL0     C56217  10.875   3.707   7.603 -0.1710 -0.0218  0.7565
  417MOL0     C56218  10.777   3.793   7.571  0.0849 -0.6958  0.5027
  417MOL0     O56219  10.816   3.917   7.516 -0.2265 -0.3777 -0.5668
  417MOL0     C56220  10.726   4.030   7.523  0.3762 -0.9863  1.7804
  417MOL0     C56221  10.784   4.131   7.424  0.2376 -0.0440  0.4502
  417MOL0     C56222  10.780   4.267   7.485 -0.7326 -0.6629  0.7898
  417MOL0     C56223  10.627   4.311   7.503 -0.1357  0.3120 -0.5353
  417MOL0     C56224  10.613   4.456   7.495 -0.5859  0.1255  0.3675
  417MOL0     C56225  10.597   4.573   7.486  0.0657  0.0559  0.8908
  417MOL0     C56226  10.642   3.759   7.602  1.0860 -0.2842  0.3762
  417MOL0     C56227  10.601   3.632   7.648 -0.4386  0.7607 -0.2786
  417MOL0     H56228  10.954   3.218   7.894  0.6658 -0.8391 -0.0771
  417MOL0     H56229  10.946   2.985   7.998 -1.2625 -3.0992 -0.2746
  417MOL0     H56230  10.568   2.717   7.945  1.2819  1.4471  0.9081
  417MOL0     H56231  10.652   2.722   7.792 -0.7876 -0.4554  0.2898
  417MOL0     H56232  10.630   2.517   7.880 -1.8833  2.7620 -0.3754
  417MOL0     H56233  10.803   2.546   7.878 -2.1421 -2.0887 -1.1247
  417MOL0     H56234  10.754   2.432   8.084 -0.4687 -0.5636  3.5271
  417MOL0     H56235  10.802   2.602   8.118  0.5871 -0.9643  1.6805
  417MOL0     H56236  10.576   2.667   8.162  0.0747 -0.5316 -2.2979
  417MOL0     H56237  10.523   2.499   8.106  0.3655 -3.0402  2.5495
  417MOL0     H56238  10.493   2.491   8.344  0.4037  0.6309  0.8363
  417MOL0     H56239  10.645   2.402   8.302  1.1142  0.2025 -3.4316
  417MOL0     H56240  10.776   2.596   8.342 -1.9362 -0.5931 -4.6025
  417MOL0     H56241  10.623   2.681   8.394 -1.3132 -0.5528 -0.2662
  417MOL0     H56242  10.621   2.589   8.595  0.5967  2.0705 -0.7227
  417MOL0     H56243  10.688   2.431   8.539  0.7228  0.3809 -1.6512
  417MOL0     H56244  10.827   2.549   8.707  0.0337  0.1579 -0.9585
  417MOL0     H56245  10.864   2.681   8.589 -1.9978  1.1744 -2.0003
  417MOL0     H56246  11.134   2.629   8.634 -1.7814  1.5923  0.4084
  417MOL0     H56247  11.349   2.379   8.426 -0.7736 -2.0049  1.8993
  417MOL0     H56248  11.360   2.549   8.467  2.9885 -1.0297  0.2673
  417MOL0     H56249  11.320   2.319   8.644  1.2287 -1.4769 -1.0204
  417MOL0     H56250  11.323   2.498   8.690 -1.0633  2.7068 -2.8602
  417MOL0     H56251  11.550   2.390   8.516  2.9857  1.4827  1.9780
  417MOL0     H56252  11.544   2.304   8.661 -2.2906  0.0597  0.1724
  417MOL0     H56253  11.562   2.601   8.629 -1.1998  0.3957  0.4154
  417MOL0     H56254  11.696   2.497   8.674 -0.4274 -0.1214  2.5189
  417MOL0     H56255  11.693   2.755   8.751 -1.9865 -0.8679 -1.6698
  417MOL0     H56256  11.736   3.022   8.812  0.9209  3.4471 -3.2836
  417MOL0     H56257  11.647   2.974   8.674  3.0413 -1.8091  0.7222
  417MOL0     H56258  11.570   3.089   8.794  0.3989  0.6871 -0.8642
  417MOL0     H56259  11.618   3.342   8.971  0.8771 -3.1518  0.9698
  417MOL0     H56260  11.570   3.568   9.052  0.7536 -0.4431 -1.0276
  417MOL0     H56261  11.443   3.610   9.377 -1.6928 -1.5119 -1.1647
  417MOL0     H56262  11.524   3.713   9.271  0.1012 -1.9332 -2.0321
  417MOL0     H56263  11.260   3.790   9.408  1.4497 -0.8555  1.0276
  417MOL0     H56264  11.419   3.836   9.443 -2.5417  3.2182  0.1463
  417MOL0     H56265  11.406   3.904   9.166 -2.2550  0.2057 -0.1165
  417MOL0     H56266  11.411   4.018   9.302  0.0852  0.5017 -1.6386
  417MOL0     H56267  11.186   4.023   9.332  2.2590  3.8511 -0.9046
  417MOL0     H56268  11.228   4.051   9.171  3.8494 -2.0197 -1.2715
  417MOL0     H56269  11.110   3.762   9.227  1.3982 -1.9982 -3.4491
  417MOL0     H56270  11.177   3.830   9.085  3.3302  2.6943  0.0911
  417MOL0     H56271  10.916   3.924   9.241 -0.8347 -0.3162 -0.7368
  417MOL0     H56272  10.969   4.007   9.109  0.8611 -0.7236 -2.8129
  417MOL0     H56273  10.812   3.848   9.058  0.9153  2.2105 -2.1817
  417MOL0     H56274  10.926   3.713   9.094  0.9922 -0.3093  0.8261
  417MOL0     H56275  11.065   3.779   8.895 -0.6222 -0.8652 -2.6107
  417MOL0     H56276  10.987   3.935   8.889  1.1602 -1.0883 -1.5026
  417MOL0     H56277  11.218   3.407   9.256 -0.3618  0.0303 -0.0557
  417MOL0     H56278  11.288   3.175   9.179  1.1073 -2.0724 -1.2722
  417MOL0     H56279  11.317   2.801   9.064  1.3158 -4.8071  2.6694
  417MOL0     H56280  11.405   2.564   8.999 -0.9322 -0.7282  0.5384
  417MOL0     H56281  10.560   2.931   7.808 -1.7100  0.7075  1.7249
  417MOL0     H56282  10.560   3.134   7.744 -1.2248  0.3783  1.5888
  417MOL0     H56283  10.935   3.519   7.666  2.1589  2.6868 -1.3281
  417MOL0     H56284  10.982   3.727   7.602 -0.0808 -0.4471  1.3343
  417MOL0     H56285  10.627   4.000   7.487  1.1573 -2.0579  0.3836
  417MOL0     H56286  10.729   4.071   7.624 -1.4629 -2.8367  2.6682
  417MOL0     H56287  10.752   4.126   7.319 -1.5037  2.8956  0.7518
  417MOL0     H56288  10.890   4.106   7.409  0.2892  0.5170 -0.1680
  417MOL0     H56289  10.834   4.331   7.414 -3.5709 -1.9206 -2.8493
  417MOL0     H56290  10.824   4.272   7.585 -3.2108  3.4437  1.9130
  417MOL0     H56291  10.591   4.277   7.600  0.3784 -2.3445 -1.2110
  417MOL0     H56292  10.567   4.252   7.433 -2.2762 -0.2338  1.6454
  417MOL0     H56293  10.561   4.674   7.486 -1.1805 -0.3506  1.8579
  417MOL0     H56294  10.561   3.828   7.583  1.4145 -0.5879 -2.4361
  417MOL0     H56295  10.496   3.623   7.674 -0.4131  2.7121  0.6345
  418MOL0     O56296   9.776   3.891   5.278  0.4017  0.4351 -0.3219
  418MOL0     C56297   9.718   3.782   5.287  0.8161  0.9672 -0.3744
  418MOL0     O56298   9.728   3.694   5.397  0.0129  0.3607  0.7280
  418MOL0     C56299   9.809   3.728   5.501 -0.4527 -0.8894 -0.2054
  418MOL0     C56300   9.906   3.633   5.546 -0.2104 -0.5271 -0.6259
  418MOL0     C56301   9.978   3.651   5.660  0.4647 -0.3829 -0.0458
  418MOL0     C56302   9.954   3.763   5.735  0.1794  0.3759  0.0353
  418MOL0     O56303  10.015   3.796   5.852  0.1136 -0.0857  0.4497
  418MOL0     C56304  10.156   3.766   5.876  0.5754  0.3783  0.0283
  418MOL0     C56305  10.211   3.839   6.000 -0.2740  0.0758  1.2685
  418MOL0     C56306  10.133   3.804   6.126  0.7000  0.7643  0.8034
  418MOL0     C56307  10.147   3.887   6.252 -0.2538 -0.1968  0.5323
  418MOL0     C56308  10.073   3.845   6.377  0.5684  0.1277  0.2099
  418MOL0     C56309  10.137   3.908   6.501  0.5196  0.2875 -0.4324
  418MOL0     C56310  10.254   3.832   6.555  0.6510 -0.5471  0.2895
  418MOL0     C56311  10.326   3.901   6.670 -0.3843 -1.1175  0.0366
  418MOL0     N56312  10.422   4.006   6.637 -0.3068  0.6225  1.1923
  418MOL0     C56313  10.380   4.132   6.626  0.0999  0.8498 -0.4706
  418MOL0     C56314  10.500   4.201   6.616 -0.2964  0.1146  0.6703
  418MOL0     C56315  10.505   4.350   6.590  0.0702 -0.2145  0.3056
  418MOL0     C56316  10.493   4.429   6.721  0.1936  0.2350 -0.1825
  418MOL0     C56317  10.357   4.431   6.782 -1.0830  0.0777  0.4825
  418MOL0     C56318  10.361   4.506   6.920 -0.3397  0.2723 -0.5936
  418MOL0     O56319  10.460   4.606   6.911 -0.4569 -1.3371  0.0671
  418MOL0     C56320  10.474   4.690   7.020  0.8551 -0.2108 -0.1563
  418MOL0     C56321  10.391   4.705   7.131 -0.5718  1.2217 -0.0843
  418MOL0     C56322  10.413   4.778   7.244  0.4592 -0.1007 -0.1977
  418MOL0     C56323  10.304   4.785   7.347  0.7671 -0.2050  0.5277
  418MOL0     C56324  10.533   4.861   7.254  0.3457 -0.6015 -0.1262
  418MOL0     C56325  10.558   4.958   7.357 -0.4401  0.2445  0.6820
  418MOL0     O56326  10.638   5.067   7.315  0.3263  0.6239 -0.0511
  418MOL0     C56327  10.674   5.165   7.407  0.3349 -0.2104  1.0675
  418MOL0     C56328  10.775   5.147   7.512  0.8268  0.4542  0.1701
  418MOL0     C56329  10.807   5.252   7.602 -0.3914 -0.2345  0.9592
  418MOL0     C56330  10.747   5.373   7.589 -0.1462  0.7432 -0.7332
  418MOL0     O56331  10.790   5.478   7.661 -0.8781 -0.1140 -0.3573
  418MOL0     C56332  10.802   5.606   7.589 -0.5332 -0.8345  0.1358
  418MOL0     C56333  10.807   5.726   7.689  0.0218  0.7208 -0.7580
  418MOL0     C56334  10.675   5.731   7.782 -0.3559  0.1540 -0.4414
  418MOL0     C56335  10.682   5.837   7.882  0.0496  0.1304  0.4038
  418MOL0     C56336  10.559   5.844   7.973 -0.8078 -1.0749 -0.1624
  418MOL0     C56337  10.588   5.943   8.091 -0.0606  0.9716  0.2072
  418MOL0     C56338  10.462   6.022   8.139  0.1193  0.7387  1.2150
  418MOL0     C56339  10.411   5.937   8.260  0.0163 -1.1148  0.2226
  418MOL0    Cl56340  10.260   6.030   8.297  0.1268  0.0065 -0.2484
  418MOL0     C56341  10.650   5.385   7.492  0.5694  0.3644  0.9336
  418MOL0     C56342  10.615   5.291   7.398 -0.0105  0.7295  0.3828
  418MOL0     O56343  10.518   4.940   7.472  0.1138 -1.1011  0.4359
  418MOL0     C56344  10.608   4.864   7.135 -0.4093 -1.7413 -0.7789
  418MOL0     C56345  10.576   4.780   7.023 -0.2107 -0.5913 -0.4171
  418MOL0     N56346  10.601   4.116   6.604  0.1629  0.0163 -0.1249
  418MOL0     N56347  10.558   4.000   6.627  0.0120  0.0879  0.3842
  418MOL0     C56348   9.861   3.860   5.687  0.5531 -0.3311 -0.1973
  418MOL0     C56349   9.795   3.844   5.570  0.1526 -0.3172 -1.0075
  418MOL0     C56350   9.608   3.753   5.194  0.2060  0.4445  0.4172
  418MOL0     C56351   9.523   3.643   5.215  0.5488 -0.3813 -1.3557
  418MOL0     C56352   9.450   3.589   5.108  1.0860  0.5071 -0.2074
  418MOL0     C56353   9.442   3.659   4.988 -0.2722  0.9499 -0.0776
  418MOL0     O56354   9.373   3.600   4.883 -0.3341 -0.4136  0.4261
  418MOL0     C56355   9.234   3.567   4.894  0.6024  0.0679  0.4757
  418MOL0     C56356   9.139   3.680   4.929 -0.3357 -0.2631  0.2781
  418MOL0     C56357   9.164   3.802   4.835 -0.1629  0.5874  0.2252
  418MOL0     C56358   9.054   3.908   4.836  1.2629 -0.3689  0.7640
  418MOL0     C56359   8.919   3.861   4.795  0.2481  0.1512 -1.5682
  418MOL0     C56360   8.812   3.815   4.759  1.1363  0.7029  0.5159
  418MOL0     C56361   9.514   3.777   4.971  0.0441 -0.3559  0.8580
  418MOL0     C56362   9.605   3.820   5.072 -1.1228  0.5213  0.5874
  418MOL0     H56363   9.896   3.533   5.506  0.9037 -1.1098  0.4960
  418MOL0     H56364  10.041   3.575   5.704 -0.9091 -1.5715 -0.0268
  418MOL0     H56365  10.178   3.660   5.895 -0.5717 -0.6921 -3.7111
  418MOL0     H56366  10.217   3.790   5.789 -0.6905 -0.3782 -1.1101
  418MOL0     H56367  10.316   3.815   6.015  0.1725  1.7771  1.1158
  418MOL0     H56368  10.188   3.946   6.002 -0.8797 -0.0373  0.7735
  418MOL0     H56369  10.026   3.816   6.111  0.5788 -0.1857  0.8769
  418MOL0     H56370  10.169   3.703   6.148  1.8142  0.4307 -2.1352
  418MOL0     H56371  10.256   3.885   6.260  0.2091  2.4793 -2.6324
  418MOL0     H56372  10.124   3.993   6.233 -1.5848 -0.5682 -0.0130
  418MOL0     H56373   9.970   3.883   6.384  1.2371  1.7597  2.0594
  418MOL0     H56374  10.065   3.736   6.385  3.0803 -0.0760  0.4907
  418MOL0     H56375  10.160   4.012   6.475  0.2744 -0.1464 -2.6105
  418MOL0     H56376  10.074   3.899   6.590 -0.5791 -0.4169 -1.2564
  418MOL0     H56377  10.214   3.733   6.579 -2.0122  0.1518 -0.8737
  418MOL0     H56378  10.330   3.818   6.477  0.3185  0.6134 -0.2794
  418MOL0     H56379  10.386   3.828   6.725  1.9575  0.8645  0.2910
  418MOL0     H56380  10.261   3.927   6.754  0.6140  0.1722  0.4494
  418MOL0     H56381  10.279   4.163   6.602 -0.5136 -2.0112 -2.0750
  418MOL0     H56382  10.595   4.375   6.533 -0.7363  0.4509 -0.7072
  418MOL0     H56383  10.413   4.380   6.539 -0.3452 -0.5054  0.8649
  418MOL0     H56384  10.527   4.533   6.717  0.2198  0.5413  3.6858
  418MOL0     H56385  10.559   4.369   6.785  0.5578  2.2374  1.4108
  418MOL0     H56386  10.316   4.329   6.780 -0.7983 -0.0214 -0.8674
  418MOL0     H56387  10.290   4.484   6.714 -2.5904 -2.2226  0.0660
  418MOL0     H56388  10.389   4.441   7.003  1.5683  2.3277  0.4823
  418MOL0     H56389  10.258   4.539   6.936 -1.8530 -4.5593  1.2979
  418MOL0     H56390  10.312   4.631   7.120  0.6549 -0.2875  0.8086
  418MOL0     H56391  10.325   4.723   7.434  2.1785  0.2093  0.5159
  418MOL0     H56392  10.289   4.887   7.382 -0.4125 -0.3666  0.5280
  418MOL0     H56393  10.211   4.757   7.297  0.6332  2.1564 -0.6941
  418MOL0     H56394  10.822   5.055   7.547 -0.3345  0.7544  2.7340
  418MOL0     H56395  10.885   5.233   7.675  2.5840 -2.1147 -2.3752
  418MOL0     H56396  10.890   5.615   7.524 -1.3155  0.1161 -0.8279
  418MOL0     H56397  10.714   5.625   7.528  0.5503  1.8909 -0.7191
  418MOL0     H56398  10.905   5.706   7.734 -0.5607 -4.7059 -1.2740
  418MOL0     H56399  10.822   5.819   7.633  4.4581 -0.5398 -2.1173
  418MOL0     H56400  10.655   5.639   7.838  0.1156  0.7095  0.6691
  418MOL0     H56401  10.592   5.739   7.711  0.7897  1.8451 -1.6509
  418MOL0     H56402  10.774   5.822   7.939 -0.8382  0.0836  1.8801
  418MOL0     H56403  10.687   5.933   7.830  2.7484 -0.3807 -0.4491
  418MOL0     H56404  10.519   5.752   8.016 -1.6054 -0.5789  0.1813
  418MOL0     H56405  10.486   5.888   7.904  0.6707 -1.2150 -1.8719
  418MOL0     H56406  10.632   5.887   8.174 -0.5992 -0.6020 -0.5285
  418MOL0     H56407  10.655   6.020   8.049 -4.5174  3.7034 -2.7722
  418MOL0     H56408  10.395   6.030   8.054 -0.0358  0.0683  1.2639
  418MOL0     H56409  10.482   6.124   8.172 -0.4212  0.3075  3.0528
  418MOL0     H56410  10.481   5.938   8.344 -0.4727 -3.4760  0.7189
  418MOL0     H56411  10.385   5.838   8.222  0.4789 -2.2518  2.6878
  418MOL0     H56412  10.591   5.476   7.477 -2.0153 -0.9714  2.3534
  418MOL0     H56413  10.537   5.309   7.326 -0.6377 -0.4636  0.7332
  418MOL0     H56414  10.700   4.922   7.134 -1.0011 -0.7778 -0.2673
  418MOL0     H56415  10.637   4.799   6.935  0.0103  2.9878  0.3592
  418MOL0     H56416   9.857   3.952   5.744 -1.1065 -1.3597  1.4692
  418MOL0     H56417   9.704   3.896   5.540 -1.9329 -2.8657  0.4614
  418MOL0     H56418   9.515   3.597   5.313 -1.0966 -0.2370 -1.3871
  418MOL0     H56419   9.410   3.489   5.123  1.5566  0.1211 -1.4052
  418MOL0     H56420   9.212   3.520   4.798  1.4045  0.1508  0.2435
  418MOL0     H56421   9.219   3.488   4.968 -1.1205  0.7539  0.9169
  418MOL0     H56422   9.153   3.712   5.033  1.3714 -1.5496  0.4991
  418MOL0     H56423   9.042   3.633   4.911 -0.7279  0.8221 -0.5358
  418MOL0     H56424   9.166   3.767   4.731 -2.0304 -0.0887  0.3864
  418MOL0     H56425   9.259   3.853   4.854  1.7310 -1.9578 -1.5613
  418MOL0     H56426   9.080   3.994   4.774  1.2895  0.7424  2.2746
  418MOL0     H56427   9.054   3.937   4.942  0.4774 -1.9777  1.2407
  418MOL0     H56428   8.718   3.775   4.725  2.1286 -0.6043 -0.8586
  418MOL0     H56429   9.515   3.833   4.878 -2.6964 -3.1666 -1.0849
  418MOL0     H56430   9.657   3.915   5.055 -1.7462  0.8348  0.4044
  419MOL0     O56431   9.133   3.663   7.135 -0.2438 -0.5082  0.4528
  419MOL0     C56432   9.207   3.727   7.060 -0.2352 -0.6599  0.2777
  419MOL0     O56433   9.199   3.748   6.921 -0.2816 -0.2938 -0.3282
  419MOL0     C56434   9.131   3.656   6.850 -0.3200  0.5760  0.4418
  419MOL0     C56435   9.010   3.682   6.781  0.7135  0.1998  0.0865
  419MOL0     C56436   8.947   3.577   6.705  0.3164 -0.1944  0.1413
  419MOL0     C56437   9.008   3.452   6.700 -0.5786 -1.4317 -0.8147
  419MOL0     O56438   8.961   3.356   6.631  0.4249  0.7349 -0.1501
  419MOL0     C56439   8.836   3.369   6.572  0.8466  0.1048  0.9077
  419MOL0     C56440   8.822   3.254   6.482 -0.3414  1.0936 -1.0157
  419MOL0     C56441   8.895   3.274   6.352 -0.4022 -0.3876  0.0380
  419MOL0     C56442   8.925   3.142   6.280  0.3599 -0.0609  1.5661
  419MOL0     C56443   8.994   3.157   6.140 -0.4023 -0.1543 -0.2916
  419MOL0     C56444   9.028   3.021   6.071  0.8677 -1.3211  0.2817
  419MOL0     C56445   8.917   2.983   5.964 -1.1849 -0.2165 -0.4578
  419MOL0     C56446   8.775   2.960   6.009 -1.1786 -0.2651  0.3551
  419MOL0     N56447   8.665   2.949   5.915  0.3109 -0.5610  0.3683
  419MOL0     C56448   8.599   2.832   5.878 -0.0577 -0.0957 -0.3383
  419MOL0     C56449   8.514   2.874   5.783 -0.0127 -0.0665  1.2409
  419MOL0     C56450   8.415   2.791   5.717 -0.0928  0.1797 -0.5791
  419MOL0     C56451   8.475   2.650   5.675  0.1566 -0.3468 -0.0808
  419MOL0     C56452   8.554   2.663   5.538  0.2807  0.7657 -0.8511
  419MOL0     C56453   8.599   2.524   5.501 -0.7134  0.0111 -0.1567
  419MOL0     O56454   8.695   2.527   5.401  0.1773  0.2045  0.2426
  419MOL0     C56455   8.737   2.403   5.355  0.1983 -0.2443  0.3297
  419MOL0     C56456   8.840   2.411   5.258 -0.4047 -0.0762  0.1894
  419MOL0     C56457   8.885   2.291   5.189  0.1737 -0.3649 -0.0717
  419MOL0     C56458   8.995   2.301   5.090  0.4546 -0.2995  0.6654
  419MOL0     C56459   8.823   2.167   5.227  0.2049 -0.6547  0.3125
  419MOL0     C56460   8.864   2.038   5.169  0.5874  0.1360  1.1077
  419MOL0     O56461   8.975   1.984   5.220 -0.0717  0.1424 -0.4184
  419MOL0     C56462   8.996   1.850   5.179 -0.1143  0.0640 -0.7454
  419MOL0     C56463   8.919   1.744   5.224 -0.0814  0.1840 -0.5812
  419MOL0     C56464   8.959   1.614   5.205  0.2854  1.0363  0.7024
  419MOL0     C56465   9.069   1.592   5.108 -0.2002 -0.5278  0.4480
  419MOL0     O56466   9.114   1.472   5.056  0.5544  0.7572  0.6313
  419MOL0     C56467   9.050   1.351   5.098 -0.3598  0.1861 -0.2226
  419MOL0     C56468   8.933   1.323   5.000  0.3701  0.1629  0.1343
  419MOL0     C56469   8.866   1.196   5.022 -0.5097  1.9973 -0.2580
  419MOL0     C56470   8.792   1.184   5.156 -1.1071  0.1109  0.0172
  419MOL0     C56471   8.711   1.046   5.157 -0.1715 -1.5225  1.3184
  419MOL0     C56472   8.622   1.046   5.283  0.2083 -0.3093 -0.4696
  419MOL0     C56473   8.581   0.912   5.335  0.2099  0.5586  0.4605
  419MOL0     C56474   8.467   0.851   5.235  0.6953  0.3071 -0.6879
  419MOL0    Cl56475   8.527   0.760   5.095 -0.0079  0.3237  0.1592
  419MOL0     C56476   9.145   1.706   5.064  0.1004  0.2509  0.2628
  419MOL0     C56477   9.109   1.836   5.103  0.1230  0.6354  0.1541
  419MOL0     O56478   8.792   1.987   5.087 -0.9803  0.4995 -0.4723
  419MOL0     C56479   8.715   2.158   5.314  0.4760 -0.4907 -0.5053
  419MOL0     C56480   8.680   2.277   5.382  0.1147  1.2043 -0.8261
  419MOL0     N56481   8.531   3.005   5.757  0.2023  0.4371  0.4160
  419MOL0     N56482   8.635   3.048   5.828  0.5989 -0.0395 -0.8608
  419MOL0     C56483   9.130   3.438   6.766  0.8362 -0.2039  0.7842
  419MOL0     C56484   9.199   3.536   6.840 -0.0441 -0.6246  0.7357
  419MOL0     C56485   9.305   3.822   7.125  0.0421  0.8001  0.6103
  419MOL0     C56486   9.305   3.844   7.266 -0.0737 -0.5939  0.6666
  419MOL0     C56487   9.392   3.944   7.323 -0.5418  0.0727 -0.0147
  419MOL0     C56488   9.468   4.024   7.243  0.6637 -1.0814 -0.4535
  419MOL0     O56489   9.527   4.131   7.304  1.4893 -0.6698  0.0055
  419MOL0     C56490   9.634   4.209   7.242  0.5159 -0.5977 -0.7029
  419MOL0     C56491   9.709   4.306   7.340  0.0052  0.0935 -0.4062
  419MOL0     C56492   9.754   4.230   7.465 -0.0462 -0.1569  0.2206
  419MOL0     C56493   9.853   4.304   7.566 -0.5163 -0.1454  0.5110
  419MOL0     C56494   9.989   4.307   7.508  0.0620 -0.1691  0.3426
  419MOL0     C56495  10.107   4.325   7.469  0.1069 -0.7015  0.2257
  419MOL0     C56496   9.448   4.020   7.110  0.6313  1.5774  1.2316
  419MOL0     C56497   9.377   3.916   7.045 -0.5107  0.2756  1.3629
  419MOL0     H56498   8.965   3.781   6.780  2.0034  0.8272  1.0129
  419MOL0     H56499   8.866   3.600   6.637  3.3196  0.7070 -3.4576
  419MOL0     H56500   8.755   3.374   6.645  2.0103 -0.7398  2.3225
  419MOL0     H56501   8.835   3.456   6.506 -1.9704  2.5229  3.7884
  419MOL0     H56502   8.852   3.159   6.528 -2.5577  0.1328 -1.4356
  419MOL0     H56503   8.715   3.236   6.468  0.0065 -1.2937 -1.1204
  419MOL0     H56504   8.836   3.331   6.280  2.2401  0.3115 -1.6788
  419MOL0     H56505   8.991   3.325   6.353 -0.3190 -0.4709  2.6905
  419MOL0     H56506   8.996   3.085   6.341  2.2441  0.1849 -0.2758
  419MOL0     H56507   8.833   3.083   6.281 -1.0469  1.6956 -2.7075
  419MOL0     H56508   8.937   3.219   6.070  2.1993 -2.4096 -4.9066
  419MOL0     H56509   9.096   3.196   6.153 -0.5554  0.4453 -0.8068
  419MOL0     H56510   9.128   3.024   6.028  0.0546  0.3012 -1.6409
  419MOL0     H56511   9.012   2.942   6.146  1.4117 -2.7676 -1.0663
  419MOL0     H56512   8.910   3.069   5.897  1.0351 -0.1909 -0.7388
  419MOL0     H56513   8.948   2.891   5.915 -0.2202 -1.7007  2.6611
  419MOL0     H56514   8.751   3.050   6.068 -0.6462 -0.5017  0.9465
  419MOL0     H56515   8.781   2.872   6.073  0.6254  0.0690  0.6873
  419MOL0     H56516   8.592   2.734   5.923 -2.4319  0.1851  0.0138
  419MOL0     H56517   8.333   2.785   5.789  1.8838  0.6534  1.8653
  419MOL0     H56518   8.382   2.852   5.633 -2.5985  0.9646  0.8544
  419MOL0     H56519   8.386   2.590   5.657 -1.8327  2.8854 -2.1830
  419MOL0     H56520   8.548   2.616   5.748  2.0725  2.6752 -0.3811
  419MOL0     H56521   8.643   2.718   5.569 -1.5065  3.4294 -0.0990
  419MOL0     H56522   8.503   2.717   5.457 -0.8335  3.2259  1.3485
  419MOL0     H56523   8.501   2.486   5.469 -1.4121  2.1773 -0.7568
  419MOL0     H56524   8.625   2.455   5.581  2.5576 -0.7214 -1.6957
  419MOL0     H56525   8.873   2.509   5.226  1.1493 -0.6606 -0.0895
  419MOL0     H56526   9.026   2.204   5.051 -0.8846 -0.4035 -0.2100
  419MOL0     H56527   8.965   2.360   5.003  0.6210 -1.5991 -0.3099
  419MOL0     H56528   9.088   2.344   5.127 -0.6190  3.9085 -0.9386
  419MOL0     H56529   8.829   1.768   5.281  1.8537  1.6326  2.1056
  419MOL0     H56530   8.892   1.537   5.243  2.0150 -1.4022 -0.8876
  419MOL0     H56531   9.120   1.266   5.090  1.8385  2.0169 -1.7679
  419MOL0     H56532   9.025   1.355   5.205 -0.3163 -0.6825 -0.1695
  419MOL0     H56533   8.857   1.402   5.003 -0.5031 -0.5740 -1.3442
  419MOL0     H56534   8.973   1.316   4.899  0.9875  2.5743  0.1580
  419MOL0     H56535   8.939   1.116   5.013 -2.6154  0.1995 -2.9482
  419MOL0     H56536   8.796   1.182   4.939 -0.4644  0.1100 -0.0066
  419MOL0     H56537   8.862   1.184   5.241  3.7273 -3.9937 -3.3859
  419MOL0     H56538   8.722   1.268   5.150  0.9352  1.8519 -0.5794
  419MOL0     H56539   8.779   0.961   5.154  0.1179 -1.3124  1.8215
  419MOL0     H56540   8.654   1.056   5.064  0.9267  4.5810  0.8884
  419MOL0     H56541   8.684   1.092   5.360  1.5397 -1.5430 -0.7543
  419MOL0     H56542   8.532   1.104   5.258  0.7669 -0.1036 -2.1474
  419MOL0     H56543   8.538   0.936   5.434  3.6489  0.2566  2.1589
  419MOL0     H56544   8.662   0.843   5.358  1.0919  1.6635  0.7733
  419MOL0     H56545   8.407   0.934   5.197  0.4808 -0.7610 -2.8423
  419MOL0     H56546   8.408   0.787   5.302  3.6516 -0.8335  1.0042
  419MOL0     H56547   9.222   1.688   4.990 -0.3152 -0.0723 -0.0972
  419MOL0     H56548   9.162   1.925   5.070  2.7305  0.7975  4.1315
  419MOL0     H56549   8.647   2.074   5.326 -1.7354  1.0899 -1.3920
  419MOL0     H56550   8.596   2.272   5.451  0.4509 -0.4148 -0.4904
  419MOL0     H56551   9.162   3.336   6.749  0.7283 -0.2146  0.6410
  419MOL0     H56552   9.286   3.494   6.889  0.0015 -1.5309 -0.0916
  419MOL0     H56553   9.250   3.783   7.337 -0.5951 -2.8957 -1.5671
  419MOL0     H56554   9.399   3.961   7.430 -0.9276 -1.5889  0.3018
  419MOL0     H56555   9.713   4.147   7.198  0.6622 -0.1821 -1.0273
  419MOL0     H56556   9.602   4.265   7.154  1.1095 -1.3346 -1.4067
  419MOL0     H56557   9.639   4.382   7.376 -1.0606 -0.0241 -2.1048
  419MOL0     H56558   9.796   4.345   7.286  0.6624  0.1542  0.6749
  419MOL0     H56559   9.813   4.143   7.434  0.4994  0.6511 -1.0709
  419MOL0     H56560   9.668   4.191   7.521 -3.1190  2.7677 -2.0378
  419MOL0     H56561   9.863   4.253   7.662 -0.0330  0.6671  0.9025
  419MOL0     H56562   9.814   4.406   7.573 -4.1023 -1.1431 -2.1701
  419MOL0     H56563  10.206   4.354   7.440  0.3330 -1.3602  0.3358
  419MOL0     H56564   9.493   4.095   7.046  0.4470 -0.2647 -1.1960
  419MOL0     H56565   9.372   3.906   6.937  0.9940  0.5746  1.2443
  420MOL0     O56566   3.227   0.418   7.360  0.6331  0.9869 -0.9182
  420MOL0     C56567   3.250   0.382   7.245  0.1474 -0.4368  0.7946
  420MOL0     O56568   3.209   0.443   7.131 -0.1715  0.0120 -1.0120
  420MOL0     C56569   3.143   0.566   7.139  1.1573 -0.0755 -1.1473
  420MOL0     C56570   3.227   0.678   7.129 -0.1295 -0.1402 -0.3702
  420MOL0     C56571   3.160   0.803   7.123  0.1359  0.7113 -0.2291
  420MOL0     C56572   3.019   0.811   7.121 -0.3521  0.1849  0.1715
  420MOL0     O56573   2.950   0.930   7.119 -0.1264  0.3085 -0.0063
  420MOL0     C56574   2.875   0.961   6.996  0.1456  0.1235  0.8835
  420MOL0     C56575   2.722   0.977   7.039 -0.3137 -0.1757  0.9012
  420MOL0     C56576   2.695   1.138   7.057 -0.0221  0.3465  0.4181
  420MOL0     C56577   2.673   1.205   6.918  0.4272 -0.1332  0.8078
  420MOL0     C56578   2.626   1.347   6.945 -0.6889  0.8821  1.0819
  420MOL0     C56579   2.571   1.428   6.830 -0.1878 -0.3184  1.0329
  420MOL0     C56580   2.655   1.418   6.700 -0.0454 -0.1730  0.4564
  420MOL0     C56581   2.639   1.538   6.608  1.1170 -0.6028  0.2358
  420MOL0     N56582   2.537   1.507   6.509 -0.1783 -0.0276 -1.0033
  420MOL0     C56583   2.569   1.430   6.403  0.7503  0.6396  0.1748
  420MOL0     C56584   2.454   1.417   6.324 -0.8481 -0.5203 -1.0099
  420MOL0     C56585   2.441   1.315   6.222  0.0583 -0.9217  0.6280
  420MOL0     C56586   2.349   1.377   6.109 -0.2109 -0.0359  0.4392
  420MOL0     C56587   2.426   1.455   6.009  0.6680 -0.0525 -0.3588
  420MOL0     C56588   2.337   1.511   5.899  0.1666 -0.0158  0.2189
  420MOL0     O56589   2.286   1.399   5.812 -0.1897  0.6099 -0.3809
  420MOL0     C56590   2.282   1.426   5.678  0.5571  0.5150  0.6149
  420MOL0     C56591   2.397   1.445   5.594 -0.4161 -0.2695  0.1150
  420MOL0     C56592   2.384   1.464   5.449 -0.5905  0.4962  1.2653
  420MOL0     C56593   2.523   1.473   5.382 -0.2029 -0.2939  0.3377
  420MOL0     C56594   2.260   1.444   5.386 -0.3229 -0.5848  0.2677
  420MOL0     C56595   2.236   1.459   5.241 -0.7372 -0.3463 -0.4032
  420MOL0     O56596   2.117   1.411   5.186  0.1659 -0.0277  0.4215
  420MOL0     C56597   2.064   1.424   5.057 -0.2716  0.7389 -0.2244
  420MOL0     C56598   2.143   1.465   4.949  0.4944 -0.0152 -0.3375
  420MOL0     C56599   2.096   1.463   4.823  0.6036  0.0213 -0.0752
  420MOL0     C56600   1.968   1.406   4.792 -0.9364  1.3540 -0.2739
  420MOL0     O56601   1.922   1.410   4.662  0.5232  0.9450  0.0476
  420MOL0     C56602   1.796   1.484   4.647  0.2233 -0.7887 -0.1433
  420MOL0     C56603   1.814   1.630   4.688 -0.8997 -0.3327  0.1968
  420MOL0     C56604   1.836   1.718   4.570 -0.3375  0.7011  0.3438
  420MOL0     C56605   1.972   1.706   4.513 -0.0895 -0.5655  0.0036
  420MOL0     C56606   1.982   1.751   4.362 -0.5122  0.0931 -0.1613
  420MOL0     C56607   2.119   1.738   4.304 -0.8646  0.5582 -0.5616
  420MOL0     C56608   2.107   1.769   4.151 -0.0966  0.5281 -0.1562
  420MOL0     C56609   2.243   1.805   4.088 -1.3509 -0.8214  0.7588
  420MOL0    Cl56610   2.336   1.936   4.155 -0.1983 -0.0537 -0.0525
  420MOL0     C56611   1.895   1.356   4.903 -0.3579 -0.0591 -0.2251
  420MOL0     C56612   1.937   1.371   5.033 -0.6194  0.0728 -0.3888
  420MOL0     O56613   2.313   1.533   5.183  0.5123  0.0551  0.0607
  420MOL0     C56614   2.152   1.414   5.472  0.2062 -0.7182 -0.5283
  420MOL0     C56615   2.160   1.409   5.607  0.2030  0.7386  0.0822
  420MOL0     N56616   2.360   1.501   6.390 -0.0996 -1.0700 -0.0545
  420MOL0     N56617   2.413   1.557   6.497  0.4192 -1.0326  0.2392
  420MOL0     C56618   2.945   0.692   7.140 -0.3829  0.7375  1.2278
  420MOL0     C56619   3.009   0.567   7.152 -1.1960  0.2967 -0.7885
  420MOL0     C56620   3.340   0.269   7.234 -0.0859  0.3779  0.4595
  420MOL0     C56621   3.386   0.234   7.106 -0.1333  0.2393 -0.5277
  420MOL0     C56622   3.474   0.130   7.085 -0.3953 -0.3165 -0.0241
  420MOL0     C56623   3.525   0.066   7.194  1.0179 -0.5926 -0.5025
  420MOL0     O56624   3.630  -0.023   7.169  0.4773  0.8873 -0.1721
  420MOL0     C56625   3.595  -0.147   7.223 -1.7565  1.7801  0.4614
  420MOL0     C56626   3.722  -0.227   7.202  1.3629 -0.4443 -0.5393
  420MOL0     C56627   3.838  -0.180   7.295  1.2079  0.1250  0.6055
  420MOL0     C56628   3.854  -0.270   7.418  0.0998 -0.2919 -0.5863
  420MOL0     C56629   3.916  -0.400   7.368 -0.6375  0.1341 -0.8002
  420MOL0     C56630   3.956  -0.507   7.323 -0.6374 -0.3452 -0.2239
  420MOL0     C56631   3.490   0.112   7.325  0.4818  0.6548  0.5127
  420MOL0     C56632   3.399   0.205   7.342  0.2843 -1.8258 -0.7902
  420MOL0     H56633   3.333   0.663   7.143 -0.0375  1.3401  0.7749
  420MOL0     H56634   3.215   0.896   7.115 -1.6783  1.6979 -2.3194
  420MOL0     H56635   2.922   1.047   6.949  0.5586  0.5251  1.9886
  420MOL0     H56636   2.875   0.879   6.924 -4.3410  1.2003 -0.6648
  420MOL0     H56637   2.674   0.933   6.950  5.5314 -0.1363 -2.7926
  420MOL0     H56638   2.701   0.917   7.128  3.0741 -1.9300  0.6531
  420MOL0     H56639   2.612   1.168   7.120  1.4168  1.8605  1.6778
  420MOL0     H56640   2.782   1.192   7.095 -0.7628 -0.1783  3.0158
  420MOL0     H56641   2.767   1.215   6.862 -0.3459  1.0463 -0.3271
  420MOL0     H56642   2.602   1.163   6.847 -1.5020  3.2249  0.5424
  420MOL0     H56643   2.550   1.355   7.024  0.3176  1.2811  2.0441
  420MOL0     H56644   2.711   1.403   6.986  0.0837 -0.4607  1.3526
  420MOL0     H56645   2.473   1.388   6.801 -0.1904  0.7023 -0.4806
  420MOL0     H56646   2.562   1.534   6.855  0.9332  0.4231 -1.4176
  420MOL0     H56647   2.761   1.412   6.727 -0.0312 -2.9691  0.0757
  420MOL0     H56648   2.636   1.325   6.646 -0.4247 -1.3057  2.4295
  420MOL0     H56649   2.720   1.561   6.537 -2.4566  2.7300 -3.2976
  420MOL0     H56650   2.628   1.623   6.676  1.8076 -0.2542 -0.0758
  420MOL0     H56651   2.661   1.375   6.388  1.5618  2.2869 -1.2111
  420MOL0     H56652   2.541   1.300   6.182 -0.1851 -0.5668 -0.1300
  420MOL0     H56653   2.398   1.228   6.272 -3.2988 -0.8192 -1.7604
  420MOL0     H56654   2.284   1.453   6.154  1.7609  1.3919  1.0294
  420MOL0     H56655   2.299   1.298   6.052  0.8010  1.0851 -2.1368
  420MOL0     H56656   2.498   1.386   5.963 -0.4682 -0.4993 -1.5281
  420MOL0     H56657   2.481   1.535   6.060 -1.4102  2.2039 -1.4664
  420MOL0     H56658   2.404   1.581   5.847  1.7394 -2.1662 -0.7998
  420MOL0     H56659   2.245   1.554   5.941 -0.2208  1.4981 -1.9638
  420MOL0     H56660   2.492   1.441   5.647  1.6876 -3.8055 -3.4229
  420MOL0     H56661   2.613   1.454   5.442  1.7097 -0.4800 -2.3772
  420MOL0     H56662   2.532   1.387   5.314  3.1267  1.1436 -1.2685
  420MOL0     H56663   2.526   1.561   5.317 -2.0952  0.6908  1.5084
  420MOL0     H56664   2.247   1.491   4.962  0.2172  2.3782 -2.2454
  420MOL0     H56665   2.156   1.494   4.738 -0.5252  2.6491  0.0016
  420MOL0     H56666   1.773   1.469   4.541 -0.8405  0.2056 -0.0708
  420MOL0     H56667   1.712   1.439   4.700 -2.7142  2.7313 -1.3784
  420MOL0     H56668   1.721   1.662   4.736 -0.3235  1.5513  0.1472
  420MOL0     H56669   1.891   1.642   4.765  0.8459  0.4668 -1.5966
  420MOL0     H56670   1.817   1.821   4.604  0.1488 -0.0215  3.0170
  420MOL0     H56671   1.763   1.700   4.490  0.8454 -2.4279 -0.1694
  420MOL0     H56672   2.050   1.763   4.565 -2.7106  2.6923  0.7579
  420MOL0     H56673   2.007   1.603   4.521 -1.8694 -1.0680  4.3244
  420MOL0     H56674   1.938   1.850   4.345 -0.5882  0.5151  2.1147
  420MOL0     H56675   1.915   1.678   4.315 -1.1409  0.3774  0.2699
  420MOL0     H56676   2.185   1.817   4.340 -2.8123  2.9691 -2.0138
  420MOL0     H56677   2.171   1.646   4.333 -3.6379 -1.8914 -2.7964
  420MOL0     H56678   2.039   1.855   4.160  1.3323  1.4848  3.3967
  420MOL0     H56679   2.065   1.681   4.102  3.1847 -0.3246 -1.6574
  420MOL0     H56680   2.241   1.830   3.982  4.8511  0.5127  0.5661
  420MOL0     H56681   2.319   1.728   4.104  0.6546  1.1613  1.2782
  420MOL0     H56682   1.808   1.297   4.879 -2.0847  1.6590  1.4836
  420MOL0     H56683   1.873   1.333   5.112  1.6354  0.5362  1.7637
  420MOL0     H56684   2.059   1.402   5.418 -0.7703 -0.8806  1.1218
  420MOL0     H56685   2.071   1.403   5.668 -1.1978 -1.0706 -2.0222
  420MOL0     H56686   2.837   0.685   7.129 -0.0389 -0.5399 -3.1042
  420MOL0     H56687   2.950   0.479   7.177  2.8103 -1.5637  3.7897
  420MOL0     H56688   3.345   0.283   7.018 -1.1059  1.0347  0.3446
  420MOL0     H56689   3.485   0.084   6.988 -1.8490 -3.7617  1.2639
  420MOL0     H56690   3.580  -0.138   7.331 -1.5070  0.1657  0.6593
  420MOL0     H56691   3.508  -0.191   7.172 -0.3770  0.5075 -0.8781
  420MOL0     H56692   3.749  -0.221   7.096 -0.2571 -0.9830 -1.0029
  420MOL0     H56693   3.693  -0.331   7.218 -0.5337  0.3486  1.7995
  420MOL0     H56694   3.811  -0.083   7.336  0.6721  0.0087  0.5339
  420MOL0     H56695   3.932  -0.164   7.242  1.4150  0.8725  1.1892
  420MOL0     H56696   3.754  -0.287   7.459  0.4612 -1.7926 -0.2535
  420MOL0     H56697   3.912  -0.223   7.498 -0.2524  1.4106 -1.2999
  420MOL0     H56698   4.000  -0.600   7.295  3.0786  0.9573  0.6974
  420MOL0     H56699   3.532   0.067   7.414  1.7148 -0.3274 -0.5271
  420MOL0     H56700   3.376   0.228   7.446  1.3572  2.0163 -1.2461
  421MOL0     O56701   3.234   7.469  10.824  0.2091  0.1377  0.1644
  421MOL0     C56702   3.145   7.543  10.778 -0.9729  0.4541  0.4999
  421MOL0     O56703   3.020   7.576  10.833  0.3895  0.7013  0.1821
  421MOL0     C56704   2.981   7.489  10.931  0.4843 -0.2812 -0.1573
  421MOL0     C56705   2.938   7.361  10.893 -0.7517 -0.6119 -0.4754
  421MOL0     C56706   2.876   7.274  10.983  0.0148 -0.0484 -0.9953
  421MOL0     C56707   2.831   7.331  11.109  0.5167 -0.0382 -0.0698
  421MOL0     O56708   2.744   7.275  11.202 -0.3938 -0.4069  0.5913
  421MOL0     C56709   2.612   7.228  11.151  0.3602  0.0152 -0.1147
  421MOL0     C56710   2.518   7.333  11.092  0.3480 -0.8586  0.0746
  421MOL0     C56711   2.456   7.296  10.960 -0.0136 -0.4352 -0.0087
  421MOL0     C56712   2.348   7.384  10.899  0.5501 -0.0486  0.0342
  421MOL0     C56713   2.247   7.297  10.811 -0.5218  0.1071  0.3597
  421MOL0     C56714   2.154   7.224  10.904  0.4574 -0.0851  0.8592
  421MOL0     C56715   2.066   7.141  10.815  0.7285  0.5173  0.0354
  421MOL0     C56716   1.960   7.061  10.893  0.0801  0.3694  0.7950
  421MOL0     N56717   1.914   6.958  10.789  0.5145  0.1009 -0.6111
  421MOL0     C56718   1.871   6.983  10.668  0.2849 -1.2024  0.8796
  421MOL0     C56719   1.879   6.860  10.608 -0.7319 -0.1259 -0.7563
  421MOL0     C56720   1.841   6.838  10.464 -0.0554 -0.5566 -1.1094
  421MOL0     C56721   1.694   6.798  10.444 -0.6405 -0.7626 -1.0270
  421MOL0     C56722   1.660   6.706  10.332  0.0501 -0.8891  0.0713
  421MOL0     C56723   1.727   6.747  10.195 -0.1191 -0.8044  0.5400
  421MOL0     O56724   1.700   6.889  10.170  0.6663  0.3876  0.6949
  421MOL0     C56725   1.571   6.916  10.125  0.6733  0.4402  0.1706
  421MOL0     C56726   1.562   7.056  10.097  0.2278  0.0999 -1.1978
  421MOL0     C56727   1.441   7.117  10.057 -0.6170 -0.2197 -0.1711
  421MOL0     C56728   1.434   7.260  10.049  0.2263 -0.8623 -0.4217
  421MOL0     C56729   1.336   7.023  10.028 -0.3770 -1.5753  0.5186
  421MOL0     C56730   1.207   7.075   9.978  0.7421 -0.8370  0.4603
  421MOL0     O56731   1.109   6.977   9.969 -0.5250 -0.4257  0.2790
  421MOL0     C56732   0.984   7.025   9.996  0.3384  0.0709  0.0287
  421MOL0     C56733   0.956   7.134  10.080 -0.9783 -0.6849  0.0773
  421MOL0     C56734   0.825   7.176  10.106  0.0389  0.3892  0.1975
  421MOL0     C56735   0.714   7.098  10.057 -0.2418 -0.4099 -0.1929
  421MOL0     O56736   0.589   7.128  10.078  0.3119  0.2115  0.1717
  421MOL0     C56737   0.504   7.006  10.101  0.1616 -1.2430 -0.9912
  421MOL0     C56738   0.379   7.060  10.166  0.1616 -0.0624  0.2167
  421MOL0     C56739   0.399   7.165  10.280  0.5892  0.7839 -1.2467
  421MOL0     C56740   0.262   7.201  10.349  0.0964  0.6874 -0.4938
  421MOL0     C56741   0.187   7.291  10.248  0.0613  0.0611  1.8705
  421MOL0     C56742   0.053   7.355  10.294 -0.4277 -1.0331  0.5553
  421MOL0     C56743   0.012   7.489  10.222 -0.3257  0.1928  0.3373
  421MOL0     C56744  -0.041   7.462  10.076 -0.3311  0.1718  0.1372
  421MOL0    Cl56745  -0.159   7.586  10.010 -0.0548  0.2396 -0.1853
  421MOL0     C56746   0.740   6.990   9.969  0.7296  0.1096  0.7711
  421MOL0     C56747   0.874   6.953   9.940 -0.1707 -1.0964  0.2982
  421MOL0     O56748   1.191   7.185   9.928  0.2948 -0.2765 -0.3141
  421MOL0     C56749   1.350   6.880  10.043 -0.2238 -0.1787 -0.4165
  421MOL0     C56750   1.467   6.823  10.090 -0.5993  0.6275 -1.2558
  421MOL0     N56751   1.906   6.763  10.707 -0.2520  0.6863  0.8965
  421MOL0     N56752   1.938   6.821  10.811 -1.1423 -0.3249  1.0598
  421MOL0     C56753   2.861   7.461  11.138  0.4784  0.2583  0.5347
  421MOL0     C56754   2.941   7.540  11.058  0.0795  0.1092 -0.8569
  421MOL0     C56755   3.174   7.583  10.638  0.0779 -0.1095 -0.0176
  421MOL0     C56756   3.279   7.517  10.561 -0.5086 -1.5870 -0.7661
  421MOL0     C56757   3.300   7.560  10.432  0.5412 -1.1207 -0.3006
  421MOL0     C56758   3.229   7.670  10.372 -0.1288  0.7827  0.3840
  421MOL0     O56759   3.267   7.728  10.260  0.2175 -0.4034  0.3558
  421MOL0     C56760   3.412   7.727  10.229 -0.3407  0.6943  0.5565
  421MOL0     C56761   3.491   7.780  10.335 -0.0062 -0.1310 -0.7625
  421MOL0     C56762   3.639   7.774  10.290 -0.5570  0.6877 -0.8235
  421MOL0     C56763   3.733   7.843  10.383 -0.6130  0.2251 -0.3654
  421MOL0     C56764   3.684   7.976  10.404  0.0798  0.5176  0.7205
  421MOL0     C56765   3.637   8.086  10.398 -0.8132  0.3170  0.6371
  421MOL0     C56766   3.131   7.726  10.447  0.4984 -0.1129 -0.2141
  421MOL0     C56767   3.099   7.695  10.582  0.4811 -0.2484  0.9570
  421MOL0     H56768   2.946   7.330  10.789 -1.7753  1.1150 -1.1047
  421MOL0     H56769   2.844   7.173  10.960  0.4430 -0.7890  1.3679
  421MOL0     H56770   2.625   7.154  11.073 -0.7629 -0.3552  0.0252
  421MOL0     H56771   2.547   7.181  11.226 -2.8198  3.1598 -0.6479
  421MOL0     H56772   2.436   7.333  11.164  2.3198 -3.0344  2.5001
  421MOL0     H56773   2.568   7.431  11.091 -0.0453 -0.6557  0.0496
  421MOL0     H56774   2.522   7.297  10.873 -4.2123 -0.0030 -3.5536
  421MOL0     H56775   2.425   7.191  10.966 -2.9430  0.4404  3.6059
  421MOL0     H56776   2.291   7.436  10.976  2.9763  0.1330  1.8399
  421MOL0     H56777   2.398   7.461  10.840 -1.8027  0.2593 -1.7007
  421MOL0     H56778   2.187   7.359  10.744  0.2038 -1.3702 -1.7432
  421MOL0     H56779   2.305   7.231  10.747  0.8759  0.9331  0.7361
  421MOL0     H56780   2.211   7.174  10.983 -0.3413 -0.9440  0.9101
  421MOL0     H56781   2.092   7.299  10.953 -0.3801 -0.3166  0.1697
  421MOL0     H56782   2.017   7.210  10.745  1.7386  1.7968  0.5511
  421MOL0     H56783   2.130   7.083  10.748 -0.0799  1.3289 -1.5203
  421MOL0     H56784   1.884   7.134  10.924  1.9967  1.5999  2.9486
  421MOL0     H56785   1.994   7.023  10.989 -0.8453 -1.2484  0.5137
  421MOL0     H56786   1.865   7.081  10.622 -1.6972 -3.1990 -3.6442
  421MOL0     H56787   1.868   6.926  10.404  1.0010  0.3403  0.5904
  421MOL0     H56788   1.890   6.747  10.430 -0.5117 -1.6534  1.0255
  421MOL0     H56789   1.641   6.893  10.427  1.6603  0.4518 -1.8090
  421MOL0     H56790   1.650   6.747  10.531 -0.5096 -1.7980 -1.5543
  421MOL0     H56791   1.552   6.718  10.316  0.3497  3.5018  0.1026
  421MOL0     H56792   1.690   6.605  10.360 -1.6681 -0.9636  1.8796
  421MOL0     H56793   1.704   6.676  10.115 -0.4134 -4.0195  3.2461
  421MOL0     H56794   1.835   6.744  10.207 -0.2576 -0.4471  2.1299
  421MOL0     H56795   1.648   7.120  10.111 -0.7138  0.9862  1.1565
  421MOL0     H56796   1.357   7.287  10.122  0.7218  0.6087 -0.4105
  421MOL0     H56797   1.533   7.304  10.062 -0.8967  1.7086  0.0744
  421MOL0     H56798   1.396   7.294   9.953  0.7127 -4.0720 -1.8895
  421MOL0     H56799   1.043   7.183  10.123 -2.2998  1.4263  0.4498
  421MOL0     H56800   0.801   7.256  10.175 -2.1262 -4.4412  5.8503
  421MOL0     H56801   0.461   6.973  10.006 -2.1611  1.4198 -1.0226
  421MOL0     H56802   0.552   6.926  10.158 -0.3849  0.4209  2.0164
  421MOL0     H56803   0.316   7.116  10.097 -0.0537  0.8080  1.0963
  421MOL0     H56804   0.323   6.976  10.208 -0.8445 -1.1725 -3.0678
  421MOL0     H56805   0.452   7.254  10.244 -0.4558  2.4329  1.0634
  421MOL0     H56806   0.467   7.122  10.354  0.4680  2.1203 -0.3405
  421MOL0     H56807   0.204   7.113  10.378  1.1612 -0.2271 -1.0118
  421MOL0     H56808   0.289   7.261  10.437  0.7666  2.4361 -1.8158
  421MOL0     H56809   0.161   7.226  10.164 -2.8270  2.4123  0.7671
  421MOL0     H56810   0.261   7.365  10.217  0.1989 -1.7799 -2.9557
  421MOL0     H56811  -0.027   7.281  10.301 -2.1045  0.7844  1.9044
  421MOL0     H56812   0.061   7.397  10.395 -1.0356 -1.1080  0.6417
  421MOL0     H56813   0.090   7.563  10.205 -0.5487  0.1269 -1.1429
  421MOL0     H56814  -0.076   7.531  10.270 -1.3595 -0.4956 -0.8861
  421MOL0     H56815  -0.094   7.367  10.080  2.0703 -1.2136  1.3333
  421MOL0     H56816   0.046   7.451  10.010  0.2179 -0.1661  0.9020
  421MOL0     H56817   0.661   6.933   9.922  0.4624  0.5996  0.6135
  421MOL0     H56818   0.894   6.867   9.877  0.6136 -1.8703  1.5465
  421MOL0     H56819   1.264   6.814  10.040 -0.9497  0.6952  0.4398
  421MOL0     H56820   1.488   6.716  10.085  2.0842  0.9463  0.8404
  421MOL0     H56821   2.831   7.495  11.237 -0.3934 -2.6158  1.3403
  421MOL0     H56822   2.960   7.643  11.087 -2.3428  0.3023  0.3055
  421MOL0     H56823   3.357   7.449  10.595  0.6972  0.8315  1.7092
  421MOL0     H56824   3.379   7.516  10.371  1.5025  0.5749 -0.3467
  421MOL0     H56825   3.444   7.626  10.203 -0.6058  0.6996  0.2075
  421MOL0     H56826   3.430   7.789  10.141 -1.0623 -2.0929 -1.7037
  421MOL0     H56827   3.473   7.727  10.429 -2.5040 -0.8882 -1.5850
  421MOL0     H56828   3.458   7.883  10.346 -2.7755 -1.1030  1.3502
  421MOL0     H56829   3.662   7.818  10.192 -0.3156 -1.0871 -1.6037
  421MOL0     H56830   3.668   7.668  10.295 -1.2329  0.5435  0.3618
  421MOL0     H56831   3.829   7.833  10.331 -0.7497 -1.8691 -0.3067
  421MOL0     H56832   3.753   7.796  10.479 -1.0416  0.9960  0.1055
  421MOL0     H56833   3.604   8.187  10.385  0.8036  0.6835 -1.0925
  421MOL0     H56834   3.090   7.812  10.395  0.1104  0.1371  0.4951
  421MOL0     H56835   3.020   7.743  10.640  0.6571 -0.1613  1.1278
  422MOL0     O56836   0.153   6.764  10.947 -0.9445  0.9589 -0.6503
  422MOL0     C56837   0.226   6.835  11.009  0.2401 -0.7871  0.5386
  422MOL0     O56838   0.197   6.914  11.117  0.0369  0.0001 -0.7656
  422MOL0     C56839   0.071   6.945  11.158 -0.2877  0.0440  0.7186
  422MOL0     C56840  -0.029   6.992  11.080 -0.0730  0.7662  0.3348
  422MOL0     C56841  -0.159   7.029  11.126 -0.9066  0.2016 -0.1003
  422MOL0     C56842  -0.185   7.017  11.260  0.4050  0.8506  0.7325
  422MOL0     O56843  -0.308   7.057  11.303 -0.7427  0.4009 -0.8358
  422MOL0     C56844  -0.333   7.076  11.447 -0.1026 -0.6964  0.4377
  422MOL0     C56845  -0.440   7.190  11.470  0.7157  0.3645 -0.3058
  422MOL0     C56846  -0.524   7.167  11.597  0.1045 -0.3911  0.4369
  422MOL0     C56847  -0.605   7.293  11.626 -0.7762  0.3340  0.6049
  422MOL0     C56848  -0.732   7.275  11.719 -0.0392  0.7684 -0.3359
  422MOL0     C56849  -0.697   7.213  11.859  0.1283  0.8296  0.6279
  422MOL0     C56850  -0.703   7.059  11.863  0.1351  1.1647 -0.0922
  422MOL0     C56851  -0.693   7.026  12.007  0.0163 -0.1544  0.5680
  422MOL0     N56852  -0.589   7.088  12.093 -0.1277 -0.7284  0.6016
  422MOL0     C56853  -0.612   7.124  12.229 -0.3494 -0.2108 -0.3684
  422MOL0     C56854  -0.489   7.171  12.256  1.2240  0.3976 -0.2536
  422MOL0     C56855  -0.458   7.222  12.404  0.2225 -0.5762 -0.2291
  422MOL0     C56856  -0.353   7.146  12.488  0.0098  0.1647  0.7225
  422MOL0     C56857  -0.211   7.139  12.422 -0.5190  0.0789 -0.8218
  422MOL0     C56858  -0.100   7.113  12.532 -0.3718  0.4617  0.1511
  422MOL0     O56859  -0.112   6.982  12.584  0.0028 -0.1700  0.7961
  422MOL0     C56860  -0.007   6.926  12.652 -0.7412 -0.1326 -0.3460
  422MOL0     C56861  -0.013   6.801  12.702  0.1087 -0.7609  0.0255
  422MOL0     C56862   0.095   6.739  12.767 -0.6239 -0.0814  0.8216
  422MOL0     C56863   0.067   6.601  12.816 -0.2358 -0.0558  0.4113
  422MOL0     C56864   0.220   6.803  12.792  0.9612 -0.1052  0.2929
  422MOL0     C56865   0.332   6.750  12.862 -0.0270 -0.4916 -0.7362
  422MOL0     O56866   0.359   6.616  12.875 -0.1363  0.3510  0.4119
  422MOL0     C56867   0.484   6.585  12.934 -0.6079  0.1250 -0.2863
  422MOL0     C56868   0.474   6.521  13.060  0.7821  0.0663 -0.4483
  422MOL0     C56869   0.591   6.479  13.118 -0.7229  0.7625 -0.2211
  422MOL0     C56870   0.714   6.490  13.049  0.5085 -0.5490 -0.0757
  422MOL0     O56871   0.835   6.465  13.101  0.0704  0.9102  0.1470
  422MOL0     C56872   0.846   6.338  13.180 -0.7990  0.0482 -0.2368
  422MOL0     C56873   0.994   6.294  13.193 -0.4765 -0.4345 -0.6473
  422MOL0     C56874   1.080   6.397  13.263  0.5567 -0.1470 -1.1472
  422MOL0     C56875   1.222   6.399  13.209  0.0036 -0.3332  0.8849
  422MOL0     C56876   1.320   6.489  13.284  0.4527 -0.9433 -0.7587
  422MOL0     C56877   1.315   6.644  13.252 -0.5730 -0.5771  0.1618
  422MOL0     C56878   1.430   6.719  13.326  0.1250 -0.2648 -0.4153
  422MOL0     C56879   1.443   6.868  13.317  0.1370  0.2832  0.1222
  422MOL0    Cl56880   1.427   6.942  13.164  0.2974  0.6393 -0.0232
  422MOL0     C56881   0.711   6.554  12.917  0.8746  0.8849 -1.0665
  422MOL0     C56882   0.597   6.602  12.864  0.4974  0.2255  0.6968
  422MOL0     O56883   0.402   6.842  12.916 -0.3701  0.9795  0.3529
  422MOL0     C56884   0.207   6.941  12.763  0.0157 -0.1159  0.0871
  422MOL0     C56885   0.100   6.999  12.692  0.1077  0.0968 -0.2339
  422MOL0     N56886  -0.404   7.172  12.154  0.1459  0.0150  0.4161
  422MOL0     N56887  -0.458   7.109  12.054 -0.7381 -0.3297 -0.1066
  422MOL0     C56888  -0.088   6.964  11.349 -1.3407 -0.1903  0.0222
  422MOL0     C56889   0.032   6.920  11.296 -0.4083  1.1223 -0.4062
  422MOL0     C56890   0.368   6.835  10.961 -0.3509  0.0689  0.0584
  422MOL0     C56891   0.439   6.947  10.994 -0.6316 -0.1211 -0.0997
  422MOL0     C56892   0.566   6.967  10.954 -0.0209  0.7248 -0.2599
  422MOL0     C56893   0.635   6.871  10.888 -0.3409 -0.1211  0.6102
  422MOL0     O56894   0.768   6.879  10.856  0.7431  0.0741 -0.4607
  422MOL0     C56895   0.857   6.888  10.968  0.9207  0.0011 -0.2012
  422MOL0     C56896   0.812   6.819  11.102  0.3289 -0.3771 -0.0094
  422MOL0     C56897   0.922   6.826  11.202 -0.9824 -0.0820 -0.5546
  422MOL0     C56898   0.874   6.769  11.336 -0.2472 -0.0241 -0.2811
  422MOL0     C56899   0.994   6.748  11.419  0.7215 -0.3676  0.1054
  422MOL0     C56900   1.093   6.756  11.494  0.0059  1.1899 -0.5981
  422MOL0     C56901   0.566   6.770  10.832 -1.0199  0.0181  0.5176
  422MOL0     C56902   0.433   6.748  10.868  0.6434  1.1983 -1.3101
  422MOL0     H56903  -0.023   7.013  10.973  0.5080  1.3512  0.4789
  422MOL0     H56904  -0.241   7.063  11.063  1.0448 -0.5042 -3.2586
  422MOL0     H56905  -0.367   6.984  11.495  0.4724 -0.2906  1.6723
  422MOL0     H56906  -0.239   7.106  11.494  0.6834 -3.2780  0.6336
  422MOL0     H56907  -0.387   7.285  11.476  1.0123  0.4498 -2.9636
  422MOL0     H56908  -0.514   7.197  11.389 -0.7791 -0.7741  0.9119
  422MOL0     H56909  -0.596   7.087  11.577  2.1276 -2.2985  0.4383
  422MOL0     H56910  -0.462   7.136  11.681  1.0055  0.9243  0.2964
  422MOL0     H56911  -0.535   7.373  11.652 -1.3050  1.6816 -1.7998
  422MOL0     H56912  -0.639   7.315  11.524 -0.8010 -3.5709 -0.3931
  422MOL0     H56913  -0.773   7.373  11.741  0.7328  0.7969  1.0807
  422MOL0     H56914  -0.802   7.226  11.651 -0.3328 -1.5591  1.5079
  422MOL0     H56915  -0.592   7.235  11.877  1.1062 -2.5798 -0.3070
  422MOL0     H56916  -0.746   7.255  11.948  0.4182  1.1456  0.6421
  422MOL0     H56917  -0.793   7.030  11.808 -1.4125  0.8617  2.4195
  422MOL0     H56918  -0.618   7.009  11.817 -0.8641  0.2388 -0.9816
  422MOL0     H56919  -0.676   6.919  12.023  0.7082  0.0996  1.6367
  422MOL0     H56920  -0.789   7.038  12.057 -0.8247 -1.7136 -0.5940
  422MOL0     H56921  -0.684   7.093  12.304  0.5329 -3.1141 -0.6057
  422MOL0     H56922  -0.419   7.325  12.402  0.4497 -0.5541  2.4130
  422MOL0     H56923  -0.546   7.217  12.469  0.0066  1.5618 -0.2701
  422MOL0     H56924  -0.391   7.044  12.497  0.9476 -0.3450 -0.7490
  422MOL0     H56925  -0.343   7.199  12.584  1.9549 -0.2496  0.7920
  422MOL0     H56926  -0.187   7.234  12.373  0.6973 -1.8482 -4.3522
  422MOL0     H56927  -0.196   7.065  12.343  2.0630  0.9102 -1.1983
  422MOL0     H56928  -0.103   7.191  12.608  0.6671  0.5366  0.1360
  422MOL0     H56929  -0.007   7.118  12.474 -1.0698  1.4563 -0.9277
  422MOL0     H56930  -0.098   6.737  12.678 -1.6060  1.4514 -0.1457
  422MOL0     H56931  -0.036   6.573  12.794 -0.8526  0.5477  2.3273
  422MOL0     H56932   0.138   6.533  12.768  1.2269  0.4169  1.7932
  422MOL0     H56933   0.094   6.594  12.922 -1.1618  1.0003  0.7276
  422MOL0     H56934   0.384   6.534  13.119 -0.0668  2.1910 -2.0427
  422MOL0     H56935   0.582   6.432  13.216 -1.1646 -0.3288 -0.7793
  422MOL0     H56936   0.803   6.347  13.280 -0.4667 -0.6046 -0.0318
  422MOL0     H56937   0.798   6.259  13.121  1.1865 -0.6958 -0.9782
  422MOL0     H56938   1.007   6.202  13.250 -2.9932 -1.2280 -1.2417
  422MOL0     H56939   1.027   6.288  13.089 -3.6101  1.4364 -1.8666
  422MOL0     H56940   1.076   6.366  13.368 -0.0279  2.0651 -0.4748
  422MOL0     H56941   1.041   6.498  13.254  3.2358  0.9683 -1.3677
  422MOL0     H56942   1.274   6.305  13.188 -0.8132 -0.2529 -1.8523
  422MOL0     H56943   1.204   6.440  13.109  1.1076 -0.9289  0.4334
  422MOL0     H56944   1.417   6.440  13.281  0.9376 -0.1398  0.7629
  422MOL0     H56945   1.287   6.487  13.388 -1.5606 -1.2991 -1.3662
  422MOL0     H56946   1.318   6.660  13.144  2.6606  0.7064  0.3240
  422MOL0     H56947   1.223   6.691  13.289 -0.1691  0.6311 -0.3169
  422MOL0     H56948   1.527   6.686  13.288  0.5411  2.7178 -2.2963
  422MOL0     H56949   1.433   6.700  13.434  0.8025 -0.8760 -0.5406
  422MOL0     H56950   1.537   6.889  13.370 -1.2385  2.1431  2.0000
  422MOL0     H56951   1.374   6.910  13.391  0.0118 -0.2310  0.3058
  422MOL0     H56952   0.805   6.593  12.878  0.2781  2.0058 -1.4304
  422MOL0     H56953   0.595   6.646  12.764  0.5955 -2.7675 -0.7431
  422MOL0     H56954   0.283   7.008  12.803  0.2616 -1.2223  1.5812
  422MOL0     H56955   0.100   7.106  12.671 -0.8621  0.7546  2.5575
  422MOL0     H56956  -0.115   6.939  11.452  4.1043 -2.0430  1.3463
  422MOL0     H56957   0.087   6.873  11.377 -0.5581  1.0585 -0.3405
  422MOL0     H56958   0.390   7.038  11.027  2.5098  0.8776  2.2519
  422MOL0     H56959   0.620   7.057  10.981  1.4246 -0.2301  0.1561
  422MOL0     H56960   0.946   6.827  10.954  0.4209 -0.4919 -1.3611
  422MOL0     H56961   0.878   6.992  10.995 -0.0352 -0.1053  1.0770
  422MOL0     H56962   0.799   6.713  11.081  2.0799 -0.6488  0.1446
  422MOL0     H56963   0.723   6.866  11.145 -0.5296 -2.2664  0.3805
  422MOL0     H56964   0.975   6.921  11.218 -1.0000 -0.4038  1.7619
  422MOL0     H56965   1.006   6.763  11.172  2.0525  0.9399  4.6118
  422MOL0     H56966   0.810   6.682  11.320 -0.3041  0.4209 -2.9253
  422MOL0     H56967   0.812   6.838  11.394  0.7016 -0.5577  1.4192
  422MOL0     H56968   1.177   6.772  11.559 -0.4441 -0.7852  0.5311
  422MOL0     H56969   0.617   6.702  10.764 -1.1684  1.3440 -0.9599
  422MOL0     H56970   0.401   6.648  10.840 -1.3989  1.7160 -1.0413
  423MOL0     O56971   1.114   1.357   2.600 -0.1332  0.1608 -0.7008
  423MOL0     C56972   1.075   1.237   2.616  0.4932 -0.9818  0.2962
  423MOL0     O56973   1.137   1.137   2.561  0.4488  0.3581  0.3342
  423MOL0     C56974   1.222   1.166   2.458  0.3985  0.4517  0.5014
  423MOL0     C56975   1.354   1.107   2.476  0.2347 -0.3225  0.6884
  423MOL0     C56976   1.438   1.130   2.367 -1.0382  0.0363  1.0588
  423MOL0     C56977   1.411   1.214   2.255 -1.2857 -0.2002 -1.2849
  423MOL0     O56978   1.505   1.242   2.153 -0.2229  0.6746 -0.1925
  423MOL0     C56979   1.475   1.185   2.025  0.9603 -0.4669 -0.3485
  423MOL0     C56980   1.553   1.068   1.976 -0.0216  0.7963  0.8049
  423MOL0     C56981   1.708   1.069   1.994 -0.3183  0.5756  0.1961
  423MOL0     C56982   1.774   0.953   1.927 -0.2692 -0.7360 -0.7708
  423MOL0     C56983   1.911   1.004   1.868  0.2935  0.0956  0.4033
  423MOL0     C56984   1.993   0.876   1.822  0.0168 -0.4977 -0.6287
  423MOL0     C56985   2.065   0.812   1.944  0.6719 -0.1548 -0.6903
  423MOL0     C56986   2.205   0.799   1.910  0.5603  0.5851 -0.0152
  423MOL0     N56987   2.235   0.677   1.828  0.2454  0.3863 -0.5387
  423MOL0     C56988   2.217   0.543   1.865  0.7688  0.9044  0.4961
  423MOL0     C56989   2.244   0.474   1.750 -0.0377  0.4245  0.4675
  423MOL0     C56990   2.226   0.325   1.738 -0.7733 -0.1686 -0.6537
  423MOL0     C56991   2.081   0.304   1.671  0.2775 -0.7423  0.7519
  423MOL0     C56992   2.048   0.156   1.696  0.4235  0.2600  0.4032
  423MOL0     C56993   1.909   0.120   1.668  0.3571  0.6574 -0.0029
  423MOL0     O56994   1.896   0.024   1.558 -0.6700 -0.6584 -0.0234
  423MOL0     C56995   1.964  -0.095   1.552 -0.6133 -0.2786  0.2573
  423MOL0     C56996   2.034  -0.157   1.660  0.1012 -0.0769 -0.0562
  423MOL0     C56997   2.087  -0.288   1.645 -0.3910 -1.4359 -0.3137
  423MOL0     C56998   2.151  -0.345   1.765 -0.3007  0.3011 -0.7272
  423MOL0     C56999   2.059  -0.363   1.523  0.1789  0.0305 -0.2306
  423MOL0     C57000   2.089  -0.505   1.500 -0.7506  0.9011 -0.8745
  423MOL0     O57001   1.990  -0.589   1.466  0.0027 -0.9371 -0.1559
  423MOL0     C57002   2.003  -0.712   1.402  0.4365  0.3931  0.5542
  423MOL0     C57003   2.073  -0.812   1.462  0.3052  0.1147  0.1044
  423MOL0     C57004   2.059  -0.945   1.421 -0.5562  0.0460 -0.2340
  423MOL0     C57005   1.976  -0.981   1.311  0.3385 -0.1290  0.0518
  423MOL0     O57006   1.945  -1.106   1.269 -1.1145 -0.0744  0.5036
  423MOL0     C57007   1.966  -1.214   1.357 -1.4326 -0.8407 -0.3982
  423MOL0     C57008   1.868  -1.331   1.326 -1.5371 -0.6490 -0.4705
  423MOL0     C57009   1.891  -1.385   1.184  0.0516  0.0408 -0.1515
  423MOL0     C57010   1.939  -1.534   1.198 -0.2852 -0.9328  1.0862
  423MOL0     C57011   1.965  -1.611   1.064  0.4540  0.0680 -0.0745
  423MOL0     C57012   1.835  -1.641   0.974  0.2651 -0.1807 -0.0384
  423MOL0     C57013   1.880  -1.698   0.841  0.2283 -0.7541  0.2141
  423MOL0     C57014   1.753  -1.711   0.749 -1.1116 -0.6436  0.1141
  423MOL0    Cl57015   1.630  -1.841   0.804  0.3320 -0.3969  0.0330
  423MOL0     C57016   1.915  -0.872   1.244  0.3027  0.3571 -0.2496
  423MOL0     C57017   1.923  -0.740   1.284 -0.5482  0.6457 -0.2529
  423MOL0     O57018   2.212  -0.531   1.496  0.6228  0.0698  0.0869
  423MOL0     C57019   1.993  -0.293   1.428 -0.1011 -0.1515  0.2063
  423MOL0     C57020   1.945  -0.171   1.435 -0.1450  0.1671 -0.1002
  423MOL0     N57021   2.281   0.560   1.650 -0.9427 -0.2257 -0.5612
  423MOL0     N57022   2.284   0.678   1.702  0.2948 -0.0895 -0.3157
  423MOL0     C57023   1.284   1.261   2.244 -0.0740 -0.1798  0.4974
  423MOL0     C57024   1.188   1.247   2.343 -0.2176  0.2248  0.5643
  423MOL0     C57025   0.958   1.206   2.694 -0.6760  0.4166  0.1925
  423MOL0     C57026   0.908   1.073   2.697 -0.0737  0.0548  0.7328
  423MOL0     C57027   0.791   1.049   2.769 -0.0821  0.5929  0.8419
  423MOL0     C57028   0.719   1.147   2.842 -0.1053  0.1872 -0.2458
  423MOL0     O57029   0.599   1.120   2.904  0.1397  0.8794 -0.2838
  423MOL0     C57030   0.620   1.086   3.038  0.0114  0.4534 -0.1351
  423MOL0     C57031   0.501   0.998   3.095  0.2570 -0.3348 -0.2476
  423MOL0     C57032   0.374   1.085   3.086 -0.0400 -1.0730 -0.0535
  423MOL0     C57033   0.263   1.011   3.157  0.1142 -0.9968 -0.0764
  423MOL0     C57034   0.135   1.097   3.142 -0.0613 -0.1629  0.3016
  423MOL0     C57035   0.041   1.167   3.131  0.4507  0.5122  0.1846
  423MOL0     C57036   0.757   1.282   2.824  0.1430 -0.5331  0.8543
  423MOL0     C57037   0.884   1.310   2.757 -0.2542  0.0412  1.0725
  423MOL0     H57038   1.381   1.058   2.569 -0.5019  1.4653  1.9073
  423MOL0     H57039   1.540   1.098   2.383 -1.6651 -3.8594 -1.4031
  423MOL0     H57040   1.369   1.161   2.020  1.1535 -1.6177  0.6731
  423MOL0     H57041   1.497   1.273   1.963 -0.0090  0.3141  0.3993
  423MOL0     H57042   1.524   0.977   2.030  1.5872 -0.8772 -0.9960
  423MOL0     H57043   1.518   1.047   1.875  1.0315 -1.1319  0.7913
  423MOL0     H57044   1.749   1.166   1.965 -2.0343  2.1514  2.6938
  423MOL0     H57045   1.719   1.058   2.102  0.5027  0.2518  0.0798
  423MOL0     H57046   1.788   0.865   1.990 -0.9332  0.3334  0.9383
  423MOL0     H57047   1.710   0.916   1.846 -4.0000  3.2596 -0.0418
  423MOL0     H57048   1.906   1.073   1.783  1.8019  0.7063  0.7732
  423MOL0     H57049   1.972   1.064   1.936  1.8519  1.1781 -1.8214
  423MOL0     H57050   1.934   0.801   1.768 -0.5829 -1.3397  1.1235
  423MOL0     H57051   2.061   0.914   1.744 -0.9666  0.1357 -1.1986
  423MOL0     H57052   2.053   0.876   2.032  1.0225  0.5420 -1.1432
  423MOL0     H57053   2.015   0.722   1.981  0.4574 -1.1814 -3.2915
  423MOL0     H57054   2.271   0.805   1.998  1.7550 -2.4032 -0.5781
  423MOL0     H57055   2.232   0.889   1.853  0.8636 -0.3163 -1.3219
  423MOL0     H57056   2.181   0.497   1.957  0.0341  1.2767  0.4030
  423MOL0     H57057   2.306   0.285   1.676  0.5364  2.1097 -0.5425
  423MOL0     H57058   2.227   0.280   1.838 -0.3053 -4.5936 -2.4167
  423MOL0     H57059   2.096   0.311   1.563 -0.1542 -1.3253  0.6476
  423MOL0     H57060   2.004   0.370   1.712  0.6545  1.5636 -1.9693
  423MOL0     H57061   2.069   0.123   1.798 -0.1487  1.4639  0.9318
  423MOL0     H57062   2.113   0.091   1.636  0.6214  0.0467  0.8430
  423MOL0     H57063   1.844   0.205   1.644 -1.0159 -1.0073 -2.6430
  423MOL0     H57064   1.874   0.078   1.763 -0.3104 -0.1486 -0.5890
  423MOL0     H57065   2.045  -0.118   1.761 -0.5858  1.7234 -0.6408
  423MOL0     H57066   2.213  -0.432   1.742 -2.6131 -2.0351  1.2196
  423MOL0     H57067   2.210  -0.274   1.825 -0.7567  1.4468 -1.5901
  423MOL0     H57068   2.074  -0.376   1.837  0.3186  0.1999 -0.0911
  423MOL0     H57069   2.139  -0.801   1.548 -0.4079 -1.8033  0.9466
  423MOL0     H57070   2.116  -1.024   1.468  1.5016 -0.1535 -2.8831
  423MOL0     H57071   2.069  -1.249   1.359 -0.9924  0.4303  0.2088
  423MOL0     H57072   1.927  -1.186   1.455 -2.3895 -1.2000 -0.6652
  423MOL0     H57073   1.866  -1.414   1.397 -2.4893 -2.5928 -2.6382
  423MOL0     H57074   1.771  -1.279   1.331 -0.7433  1.0566 -1.8432
  423MOL0     H57075   1.975  -1.328   1.143  1.9993 -3.0982 -0.8521
  423MOL0     H57076   1.797  -1.389   1.129  0.3305  1.7775 -0.8089
  423MOL0     H57077   2.037  -1.524   1.246 -1.5594 -0.6175  3.7493
  423MOL0     H57078   1.870  -1.587   1.263 -1.7279 -1.0991 -0.5018
  423MOL0     H57079   2.026  -1.702   1.073 -0.1697 -0.4872 -1.3027
  423MOL0     H57080   2.029  -1.544   1.005 -1.2616  1.7843 -0.0749
  423MOL0     H57081   1.778  -1.716   1.029  1.4740 -0.9130  0.2468
  423MOL0     H57082   1.782  -1.545   0.967  1.7598  0.8244  1.6499
  423MOL0     H57083   1.937  -1.791   0.853  0.3081 -1.2725 -3.1820
  423MOL0     H57084   1.951  -1.630   0.794 -1.1659  1.0284  0.6026
  423MOL0     H57085   1.780  -1.730   0.645 -3.2955 -1.0267 -0.4439
  423MOL0     H57086   1.701  -1.615   0.745 -0.4012 -0.2933 -0.9555
  423MOL0     H57087   1.864  -0.875   1.148  2.7054 -3.3889 -1.6184
  423MOL0     H57088   1.874  -0.652   1.244 -2.1336  0.3506  0.9488
  423MOL0     H57089   1.985  -0.337   1.329 -1.0231  2.1829 -0.8239
  423MOL0     H57090   1.874  -0.134   1.361  0.8008  0.0055 -1.1126
  423MOL0     H57091   1.260   1.318   2.155  3.6105  1.8426  0.6107
  423MOL0     H57092   1.092   1.292   2.321  0.2118  2.3290  2.6195
  423MOL0     H57093   0.951   0.996   2.633  0.3990  2.7365 -2.4737
  423MOL0     H57094   0.751   0.949   2.767 -0.1507  0.6260  0.5546
  423MOL0     H57095   0.711   1.024   3.037 -2.0529 -2.8088 -1.4818
  423MOL0     H57096   0.632   1.174   3.103  1.2007  0.8314 -0.8319
  423MOL0     H57097   0.531   0.968   3.196 -0.4888  2.8001  0.9972
  423MOL0     H57098   0.484   0.907   3.037 -0.7697 -2.0971  2.5731
  423MOL0     H57099   0.357   1.097   2.978 -0.2707 -0.1653  0.0751
  423MOL0     H57100   0.389   1.182   3.133  1.7630 -2.0059  1.4149
  423MOL0     H57101   0.280   1.002   3.265 -1.9761 -0.7293  0.3235
  423MOL0     H57102   0.250   0.916   3.105 -0.0434 -1.0462  0.0528
  423MOL0     H57103  -0.049   1.222   3.109 -1.6078 -1.3294  3.2807
  423MOL0     H57104   0.705   1.364   2.872  1.8755  2.1454 -1.5290
  423MOL0     H57105   0.916   1.413   2.743 -0.8580  0.1907  0.7188
  424MOL0     O57106   0.502   5.192   5.004 -0.4440 -0.1756 -0.1713
  424MOL0     C57107   0.440   5.101   5.048  0.0273 -0.3842 -0.4181
  424MOL0     O57108   0.453   4.969   5.015 -0.5850 -0.0065  0.0600
  424MOL0     C57109   0.544   4.946   4.918  0.4661 -0.0239 -0.1706
  424MOL0     C57110   0.522   4.984   4.789 -0.1444  0.3548  0.1131
  424MOL0     C57111   0.610   4.947   4.687 -0.0550 -0.0162  0.7041
  424MOL0     C57112   0.732   4.885   4.714 -0.3823  0.1227 -0.2100
  424MOL0     O57113   0.825   4.851   4.620 -0.3568 -0.1216  0.2680
  424MOL0     C57114   0.809   4.886   4.485 -0.8254  0.4269  0.8984
  424MOL0     C57115   0.770   4.754   4.396 -0.4088 -0.7453  0.5295
  424MOL0     C57116   0.755   4.761   4.251 -0.3732 -0.4401  0.0108
  424MOL0     C57117   0.744   4.622   4.201 -0.9479 -1.0029 -0.7679
  424MOL0     C57118   0.603   4.571   4.186  0.7585 -0.0531 -0.3332
  424MOL0     C57119   0.530   4.624   4.065  0.0330  0.1526 -0.7591
  424MOL0     C57120   0.381   4.595   4.091 -0.3271  0.9668  0.6596
  424MOL0     C57121   0.340   4.446   4.132 -0.1147  0.0265  0.0830
  424MOL0     N57122   0.205   4.419   4.175  0.7526 -0.6867 -0.6773
  424MOL0     C57123   0.089   4.413   4.091 -0.2346 -1.0035  0.6164
  424MOL0     C57124  -0.019   4.406   4.171  0.5521 -0.6736 -0.3637
  424MOL0     C57125  -0.164   4.446   4.118 -0.0357 -0.0399  0.8373
  424MOL0     C57126  -0.268   4.364   4.194 -0.0990  0.0426 -0.2106
  424MOL0     C57127  -0.411   4.413   4.147 -0.0335  1.2982  0.3322
  424MOL0     C57128  -0.419   4.561   4.162 -0.2829 -0.4889 -0.3220
  424MOL0     O57129  -0.353   4.621   4.276 -0.1427  0.7870 -0.5924
  424MOL0     C57130  -0.398   4.601   4.406 -0.3095 -0.5359 -0.6140
  424MOL0     C57131  -0.299   4.617   4.502 -0.1529  0.1958 -0.5864
  424MOL0     C57132  -0.336   4.598   4.646 -0.6421  0.4586 -1.0634
  424MOL0     C57133  -0.219   4.639   4.740 -0.6114  0.3167  0.7743
  424MOL0     C57134  -0.466   4.557   4.679  0.3803 -0.5120  0.2621
  424MOL0     C57135  -0.509   4.508   4.817  0.0040 -0.1196  0.7869
  424MOL0     O57136  -0.640   4.525   4.849  0.3133  0.5123  0.4548
  424MOL0     C57137  -0.679   4.498   4.981 -0.0951  0.7914  0.3328
  424MOL0     C57138  -0.789   4.419   5.006  0.1494  0.2424 -1.0370
  424MOL0     C57139  -0.843   4.387   5.133 -0.7283  0.9357  1.1080
  424MOL0     C57140  -0.780   4.436   5.236 -0.3239  0.0051  0.0307
  424MOL0     O57141  -0.845   4.434   5.360  0.5620  0.1382 -0.1081
  424MOL0     C57142  -0.793   4.493   5.481 -1.5101 -0.1150  0.2707
  424MOL0     C57143  -0.899   4.454   5.585 -0.5878  0.5600 -0.8115
  424MOL0     C57144  -0.925   4.299   5.583 -0.9642  0.1123 -0.0817
  424MOL0     C57145  -1.022   4.255   5.689  0.2120  0.0321 -0.1417
  424MOL0     C57146  -1.071   4.111   5.651 -0.2787 -0.3528 -0.4393
  424MOL0     C57147  -1.198   4.067   5.736  0.2557 -0.1049  0.6109
  424MOL0     C57148  -1.327   4.116   5.661  0.5383  0.0147  0.6717
  424MOL0     C57149  -1.447   4.127   5.753 -0.0507 -0.9160 -0.4115
  424MOL0    Cl57150  -1.413   4.273   5.845  0.1489 -0.2179 -0.0383
  424MOL0     C57151  -0.655   4.504   5.217  1.0684  0.8354 -0.2530
  424MOL0     C57152  -0.616   4.550   5.087  0.1632  0.0399  0.3519
  424MOL0     O57153  -0.428   4.438   4.873  1.0835  0.5476 -0.0713
  424MOL0     C57154  -0.562   4.563   4.584  0.8081  0.3829  0.6269
  424MOL0     C57155  -0.536   4.586   4.450 -0.1085 -0.0644  0.0258
  424MOL0     N57156   0.018   4.398   4.303  0.2042  0.5151  0.6074
  424MOL0     N57157   0.148   4.408   4.305 -0.8578 -0.2543 -0.8531
  424MOL0     C57158   0.746   4.840   4.844 -0.0261  0.6884  0.2650
  424MOL0     C57159   0.658   4.872   4.947  0.3453  0.2115  0.3413
  424MOL0     C57160   0.330   5.133   5.153 -0.9547  0.4178  0.3783
  424MOL0     C57161   0.337   5.250   5.228  0.0883 -0.6175  0.4766
  424MOL0     C57162   0.240   5.268   5.326 -0.5586 -0.1009  0.4496
  424MOL0     C57163   0.145   5.174   5.351 -0.4136  0.8504  0.0730
  424MOL0     O57164   0.071   5.194   5.465 -0.3638  1.0025 -0.3929
  424MOL0     C57165  -0.067   5.141   5.478  0.1802 -0.2976  0.5878
  424MOL0     C57166  -0.095   5.019   5.582  0.0670  0.0031 -0.8110
  424MOL0     C57167  -0.243   5.004   5.616  0.9911  0.1133  0.1822
  424MOL0     C57168  -0.300   5.094   5.729  0.2864 -0.2447  0.0408
  424MOL0     C57169  -0.442   5.094   5.721 -0.0536  0.4244  0.3771
  424MOL0     C57170  -0.563   5.107   5.719  0.6216 -0.0358 -0.9496
  424MOL0     C57171   0.135   5.047   5.275  0.1800 -0.0831  0.2494
  424MOL0     C57172   0.225   5.038   5.170  0.2950 -0.3177 -0.9266
  424MOL0     H57173   0.433   5.042   4.766 -1.7021 -1.8033  0.4910
  424MOL0     H57174   0.583   4.971   4.585 -1.7322 -1.8667  0.6507
  424MOL0     H57175   0.744   4.972   4.462 -1.2102 -0.1721 -0.3931
  424MOL0     H57176   0.900   4.934   4.447 -1.5922  3.5034  2.5872
  424MOL0     H57177   0.855   4.690   4.420  1.7534  0.7934 -2.3338
  424MOL0     H57178   0.676   4.725   4.442 -1.0122 -0.8012 -0.6887
  424MOL0     H57179   0.677   4.831   4.220 -1.0710 -0.6635  1.2051
  424MOL0     H57180   0.853   4.790   4.212 -1.8422  1.0532 -2.9093
  424MOL0     H57181   0.800   4.607   4.109 -0.1455  2.4128 -0.9596
  424MOL0     H57182   0.794   4.556   4.273 -0.0418 -2.8333 -2.9416
  424MOL0     H57183   0.612   4.464   4.169  2.6376  0.5276 -3.9592
  424MOL0     H57184   0.545   4.591   4.277  0.3313  2.3179 -1.0592
  424MOL0     H57185   0.537   4.732   4.050  2.0288  0.3711  1.1986
  424MOL0     H57186   0.565   4.584   3.970  0.2778 -1.7125  0.0660
  424MOL0     H57187   0.342   4.660   4.170 -0.6909  2.2299 -0.5265
  424MOL0     H57188   0.325   4.612   3.999 -2.0383  0.3546  1.5466
  424MOL0     H57189   0.408   4.397   4.202  1.1162 -0.2404 -1.2644
  424MOL0     H57190   0.359   4.402   4.033  2.5342 -0.2598  0.6495
  424MOL0     H57191   0.099   4.427   3.984  0.3501  0.2134  0.8188
  424MOL0     H57192  -0.168   4.554   4.135  4.7438  0.0388  2.9045
  424MOL0     H57193  -0.170   4.429   4.010 -1.4965  0.2517  0.8522
  424MOL0     H57194  -0.258   4.366   4.303 -0.2656 -1.8658 -0.1315
  424MOL0     H57195  -0.264   4.258   4.166 -2.1365 -0.1325  0.0033
  424MOL0     H57196  -0.486   4.376   4.217  0.8092 -4.4691 -1.3066
  424MOL0     H57197  -0.444   4.378   4.048  2.1723  2.0268 -0.7240
  424MOL0     H57198  -0.525   4.588   4.161 -1.3708 -3.9676 -2.8157
  424MOL0     H57199  -0.378   4.601   4.068 -1.0271 -1.3941 -1.0565
  424MOL0     H57200  -0.200   4.654   4.478  1.3191 -1.2021  2.6778
  424MOL0     H57201  -0.244   4.609   4.843  5.1916  1.1880  2.8303
  424MOL0     H57202  -0.120   4.593   4.731  0.0708  1.4138  2.1792
  424MOL0     H57203  -0.215   4.748   4.733 -2.6126  0.4179  0.5801
  424MOL0     H57204  -0.846   4.386   4.920  0.6817 -3.8574 -0.0502
  424MOL0     H57205  -0.939   4.335   5.130 -0.1034 -0.2738 -1.9355
  424MOL0     H57206  -0.698   4.446   5.504 -1.5469  0.7175  2.3653
  424MOL0     H57207  -0.784   4.602   5.472 -1.0728 -0.3398 -2.9955
  424MOL0     H57208  -0.865   4.494   5.682 -1.1942  1.9180 -1.1343
  424MOL0     H57209  -0.994   4.497   5.553 -0.9862 -0.7192 -1.4246
  424MOL0     H57210  -0.839   4.232   5.594 -1.8127 -0.7847  1.3244
  424MOL0     H57211  -0.963   4.276   5.483  0.9746 -0.7655 -0.6691
  424MOL0     H57212  -0.985   4.261   5.792 -0.1428  4.7546 -0.0522
  424MOL0     H57213  -1.112   4.318   5.684  1.4759  1.8758 -0.7268
  424MOL0     H57214  -0.984   4.048   5.673  2.9328  2.8040 -3.0168
  424MOL0     H57215  -1.087   4.105   5.543 -0.1622  0.4860 -0.5138
  424MOL0     H57216  -1.200   3.958   5.750 -3.3013 -0.0720  1.1178
  424MOL0     H57217  -1.181   4.114   5.833  1.0696  0.4846  0.1979
  424MOL0     H57218  -1.350   4.042   5.584 -3.7600  2.4183 -0.7272
  424MOL0     H57219  -1.309   4.214   5.616 -0.8807 -0.0016 -0.0115
  424MOL0     H57220  -1.451   4.039   5.818  0.9637  0.4323  1.5667
  424MOL0     H57221  -1.540   4.133   5.696  0.9983 -0.6033 -2.1566
  424MOL0     H57222  -0.608   4.544   5.306 -2.0597 -0.6119  2.2378
  424MOL0     H57223  -0.545   4.631   5.074 -3.5661  3.6093 -0.2479
  424MOL0     H57224  -0.667   4.560   4.612  0.5322 -2.3372 -0.4432
  424MOL0     H57225  -0.618   4.607   4.382 -0.5053  4.2732  1.5478
  424MOL0     H57226   0.835   4.780   4.857 -0.9223 -0.5623  0.7625
  424MOL0     H57227   0.677   4.834   5.046  1.4904 -2.6197 -0.8673
  424MOL0     H57228   0.418   5.323   5.231 -1.4324  1.1330  1.0593
  424MOL0     H57229   0.250   5.361   5.381 -1.3080  0.2506  0.0077
  424MOL0     H57230  -0.119   5.227   5.519  1.6450 -0.3059  2.6207
  424MOL0     H57231  -0.105   5.110   5.380  2.5392 -0.9935 -0.1839
  424MOL0     H57232  -0.035   5.035   5.672 -0.4763  1.2578 -0.6541
  424MOL0     H57233  -0.063   4.924   5.539  1.7200  0.4047 -0.5278
  424MOL0     H57234  -0.255   4.900   5.647 -0.8089  0.0273 -0.6798
  424MOL0     H57235  -0.299   5.021   5.523  1.0319 -1.6592 -0.2072
  424MOL0     H57236  -0.249   5.190   5.720  3.6796 -1.8110  0.8696
  424MOL0     H57237  -0.282   5.046   5.825 -0.0173 -1.3518 -0.4347
  424MOL0     H57238  -0.669   5.095   5.733  0.6832 -1.0207 -1.1984
  424MOL0     H57239   0.066   4.973   5.316 -2.0060  2.3821  1.2935
  424MOL0     H57240   0.224   4.947   5.112  0.7857  0.2977 -1.9176
  425MOL0     O57241   2.967   9.619   0.793  0.3498  0.2133  0.2668
  425MOL0     C57242   3.024   9.615   0.903  0.0657 -0.1415  0.1039
  425MOL0     O57243   3.066   9.730   0.971  0.1757  0.4192  0.3591
  425MOL0     C57244   3.025   9.850   0.927  0.7634 -0.3414  0.8221
  425MOL0     C57245   3.108   9.911   0.830  0.5523 -0.7437  0.1091
  425MOL0     C57246   3.068  10.040   0.786  0.0046  0.2187 -0.6337
  425MOL0     C57247   2.946  10.106   0.820  0.0621  0.3755 -1.0134
  425MOL0     O57248   2.898  10.229   0.776 -0.2064 -0.1475 -0.2263
  425MOL0     C57249   2.976  10.311   0.695 -0.3573 -0.7717  0.8843
  425MOL0     C57250   2.960  10.451   0.743 -0.1271 -0.2271 -1.0669
  425MOL0     C57251   2.817  10.503   0.755 -0.9065 -0.8761 -0.8992
  425MOL0     C57252   2.742  10.524   0.616 -0.0963  0.1566 -0.1444
  425MOL0     C57253   2.616  10.612   0.614  0.0400  0.3136  0.6208
  425MOL0     C57254   2.496  10.537   0.674  0.1862  0.6522  0.7688
  425MOL0     C57255   2.405  10.622   0.759 -0.5035  0.3613 -0.1648
  425MOL0     C57256   2.451  10.651   0.897 -0.7681  0.2241 -0.1644
  425MOL0     N57257   2.439  10.536   1.000  0.4712  0.0504  0.1595
  425MOL0     C57258   2.510  10.409   1.010 -0.4911 -0.0897  0.8606
  425MOL0     C57259   2.439  10.341   1.095  0.3637 -0.0438  0.2030
  425MOL0     C57260   2.444  10.194   1.122  0.2854 -0.4504  0.1243
  425MOL0     C57261   2.489  10.163   1.273 -0.1083  0.9630  1.1507
  425MOL0     C57262   2.513  10.012   1.304 -0.5533 -0.4157 -0.1453
  425MOL0     C57263   2.639  10.011   1.386 -0.0019  0.0337  0.2195
  425MOL0     O57264   2.656   9.895   1.472  0.5186 -0.5246  0.6983
  425MOL0     C57265   2.569   9.880   1.578 -1.0349 -0.7441 -0.6408
  425MOL0     C57266   2.496   9.982   1.644  0.0475 -0.2151  0.4370
  425MOL0     C57267   2.397   9.955   1.744  0.4090 -0.1015  1.3434
  425MOL0     C57268   2.311  10.073   1.771 -0.1848  0.4042 -0.4919
  425MOL0     C57269   2.389   9.829   1.802  0.0561 -0.2462 -0.2586
  425MOL0     C57270   2.288   9.786   1.913 -0.7337  0.6600 -0.2290
  425MOL0     O57271   2.292   9.653   1.941 -0.2348  0.2032  0.0557
  425MOL0     C57272   2.202   9.583   2.032 -0.6315 -0.6683 -0.2307
  425MOL0     C57273   2.263   9.485   2.110  0.9687 -0.9290  0.3676
  425MOL0     C57274   2.178   9.408   2.195 -0.3215 -1.0798  0.2953
  425MOL0     C57275   2.045   9.420   2.203 -0.5359  0.0723 -0.8359
  425MOL0     O57276   1.965   9.337   2.277 -0.2625 -0.0921  0.0142
  425MOL0     C57277   2.016   9.221   2.338  0.2324  0.4464  0.6651
  425MOL0     C57278   1.906   9.123   2.324  0.0782  0.6361 -0.9143
  425MOL0     C57279   1.924   9.021   2.214  0.3463 -0.1128  0.2215
  425MOL0     C57280   1.886   9.083   2.078  0.5979  0.2190  0.0093
  425MOL0     C57281   1.876   8.987   1.952 -0.1626 -0.1013  0.5952
  425MOL0     C57282   1.836   9.055   1.824 -1.0208  0.2536 -0.1582
  425MOL0     C57283   1.862   8.955   1.706  0.3651 -0.8162  0.2223
  425MOL0     C57284   2.010   8.928   1.673  0.3245 -0.8458 -0.5234
  425MOL0    Cl57285   2.002   8.785   1.554 -0.0437 -0.3782  0.2644
  425MOL0     C57286   1.983   9.516   2.125  0.0220  0.3635 -0.0724
  425MOL0     C57287   2.058   9.602   2.043 -0.0179  1.3256  0.2885
  425MOL0     O57288   2.202   9.857   1.962 -0.2007 -1.0421 -0.0959
  425MOL0     C57289   2.479   9.729   1.752  0.8619 -1.4311 -0.4940
  425MOL0     C57290   2.566   9.748   1.646  0.7147 -0.1560  0.5323
  425MOL0     N57291   2.346  10.426   1.156 -0.4437 -0.2757  0.9892
  425MOL0     N57292   2.341  10.533   1.097 -0.0195 -0.8116  0.0323
  425MOL0     C57293   2.874  10.042   0.927  1.0737 -0.2039 -0.1989
  425MOL0     C57294   2.911   9.917   0.975  0.8404 -0.2947 -0.4997
  425MOL0     C57295   3.069   9.489   0.965  0.3429 -0.8404 -0.0752
  425MOL0     C57296   3.155   9.491   1.074 -0.1505 -0.2568 -0.2955
  425MOL0     C57297   3.173   9.365   1.144 -0.1844  0.6845  0.6710
  425MOL0     C57298   3.100   9.247   1.111  0.1051 -0.7574 -0.3091
  425MOL0     O57299   3.121   9.125   1.179  0.6200 -0.2905 -0.4032
  425MOL0     C57300   3.215   9.100   1.282 -0.5211  0.7216 -0.2390
  425MOL0     C57301   3.213   8.953   1.320 -1.1005 -0.0590  0.4829
  425MOL0     C57302   3.086   8.890   1.385  1.2296 -0.5394 -0.6903
  425MOL0     C57303   3.114   8.748   1.433 -0.3598 -0.0302 -0.5367
  425MOL0     C57304   3.038   8.640   1.367 -0.2491  0.1320  0.1275
  425MOL0     C57305   2.958   8.561   1.321  0.2713  0.5038  0.7566
  425MOL0     C57306   3.024   9.242   0.994  0.1233  0.4705 -0.2248
  425MOL0     C57307   3.021   9.364   0.921  0.9099 -0.3112  0.3442
  425MOL0     H57308   3.196   9.860   0.795 -0.3480 -0.9131 -2.0800
  425MOL0     H57309   3.145  10.079   0.721  0.9765 -0.0500  0.3397
  425MOL0     H57310   3.081  10.282   0.705  0.1621  1.0851  1.0148
  425MOL0     H57311   2.940  10.316   0.592  2.3071 -1.8042 -0.1861
  425MOL0     H57312   3.006  10.457   0.842 -1.1487 -0.2859 -0.5738
  425MOL0     H57313   3.017  10.518   0.678  2.0083 -0.3978  0.5402
  425MOL0     H57314   2.769  10.434   0.825  0.5938 -0.6878  0.3756
  425MOL0     H57315   2.816  10.603   0.799 -0.6528 -1.1191 -0.3321
  425MOL0     H57316   2.800  10.574   0.538  2.1277 -3.1954 -0.8704
  425MOL0     H57317   2.713  10.426   0.578 -0.8593 -0.9544  2.9587
  425MOL0     H57318   2.637  10.704   0.670  1.9987  0.1338  0.2762
  425MOL0     H57319   2.596  10.639   0.510 -0.8980  0.1591  0.7525
  425MOL0     H57320   2.439  10.485   0.596  1.2383 -0.3446  0.6215
  425MOL0     H57321   2.534  10.449   0.726  0.7900  1.0677  1.0474
  425MOL0     H57322   2.395  10.724   0.721  1.3418  0.2147 -1.1342
  425MOL0     H57323   2.312  10.566   0.777 -1.0195  1.5837  1.2969
  425MOL0     H57324   2.384  10.721   0.948  0.4930 -1.4344  4.2067
  425MOL0     H57325   2.548  10.702   0.895 -0.5622  0.1259  2.8641
  425MOL0     H57326   2.589  10.378   0.942  1.2295  0.6977  2.3927
  425MOL0     H57327   2.348  10.146   1.100 -1.4666  4.2716 -4.9378
  425MOL0     H57328   2.522  10.161   1.053  0.3569 -0.4799  0.2192
  425MOL0     H57329   2.422  10.212   1.344 -1.4544  2.8315 -1.2604
  425MOL0     H57330   2.581  10.218   1.289 -0.6298  2.9971 -2.0278
  425MOL0     H57331   2.536   9.958   1.211  0.2788  1.7624 -1.2904
  425MOL0     H57332   2.424   9.967   1.347 -0.9168 -1.5176 -1.9805
  425MOL0     H57333   2.672  10.099   1.441  1.9633 -0.0601 -0.7148
  425MOL0     H57334   2.726   9.998   1.321  3.0652  0.0804  3.9726
  425MOL0     H57335   2.501  10.082   1.602  0.1895  0.0699  1.1191
  425MOL0     H57336   2.204  10.052   1.768  0.1055 -1.2964 -0.1572
  425MOL0     H57337   2.325  10.098   1.876  0.5823 -2.2394  0.1243
  425MOL0     H57338   2.325  10.170   1.722 -3.9564  0.4291 -1.8555
  425MOL0     H57339   2.371   9.477   2.111  1.1384  0.9542  0.8019
  425MOL0     H57340   2.241   9.342   2.254  0.7312 -0.1740  0.2168
  425MOL0     H57341   2.100   9.185   2.277  1.3296  3.1799  0.4132
  425MOL0     H57342   2.055   9.221   2.441 -0.2267 -3.9941  1.0284
  425MOL0     H57343   1.903   9.067   2.418 -0.5939  1.7189 -0.2632
  425MOL0     H57344   1.811   9.177   2.320 -1.7048 -2.0032  1.4105
  425MOL0     H57345   1.859   8.933   2.223  0.5751 -0.4604 -1.2872
  425MOL0     H57346   2.027   8.986   2.214  0.8835  1.4114  0.7766
  425MOL0     H57347   1.791   9.137   2.083  0.3927 -0.1469  0.1251
  425MOL0     H57348   1.962   9.159   2.062 -0.7250  1.6260  0.2203
  425MOL0     H57349   1.797   8.916   1.979 -1.1479  1.1372  1.0729
  425MOL0     H57350   1.973   8.937   1.951 -0.0417  0.0888 -1.4161
  425MOL0     H57351   1.732   9.088   1.834 -0.8688  2.2340 -3.5898
  425MOL0     H57352   1.881   9.152   1.803  0.5733 -0.8618 -2.2938
  425MOL0     H57353   1.810   8.988   1.616  1.4307 -0.7816 -0.3892
  425MOL0     H57354   1.829   8.852   1.726 -0.8525 -0.2332  1.4136
  425MOL0     H57355   2.072   8.906   1.761 -0.2762 -1.1692 -0.1798
  425MOL0     H57356   2.047   9.016   1.620 -2.8099  0.2104 -1.1518
  425MOL0     H57357   1.875   9.518   2.129 -0.0638 -1.9800  1.8685
  425MOL0     H57358   2.011   9.672   1.974  0.3088 -0.2021 -1.5316
  425MOL0     H57359   2.495   9.626   1.784  2.2069 -1.7810 -2.1294
  425MOL0     H57360   2.638   9.673   1.617  1.4920  0.8547 -0.2276
  425MOL0     H57361   2.776  10.080   0.956  1.5274  0.1035  1.0196
  425MOL0     H57362   2.860   9.855   1.048 -1.7715 -1.6903 -3.2948
  425MOL0     H57363   3.214   9.573   1.114 -2.8325  1.6440  0.0314
  425MOL0     H57364   3.235   9.358   1.233  3.5203 -0.6471 -1.7888
  425MOL0     H57365   3.311   9.129   1.238  0.1918  0.3451  1.0172
  425MOL0     H57366   3.184   9.161   1.368 -0.5749  1.0286 -0.4719
  425MOL0     H57367   3.295   8.937   1.390 -1.3803 -2.2250  0.3840
  425MOL0     H57368   3.243   8.890   1.235  4.1489  0.0843  1.9340
  425MOL0     H57369   2.997   8.893   1.322 -0.0229 -1.7327  0.9302
  425MOL0     H57370   3.066   8.956   1.471  1.3553 -3.2059  1.5117
  425MOL0     H57371   3.092   8.753   1.540 -2.7539 -5.3913 -0.4595
  425MOL0     H57372   3.220   8.721   1.429 -0.3791 -0.0988 -0.5969
  425MOL0     H57373   2.910   8.473   1.284 -1.7576  1.9519 -0.2756
  425MOL0     H57374   2.976   9.149   0.967  0.4950 -0.2607  1.5350
  425MOL0     H57375   2.970   9.372   0.826  2.3978  1.6617 -0.3649
  426MOL0     O57376   6.585   5.514   4.127  0.5065  0.2965 -0.1583
  426MOL0     C57377   6.599   5.624   4.073  1.1940  0.0753 -0.3138
  426MOL0     O57378   6.717   5.692   4.050 -0.3068 -0.5178  0.2913
  426MOL0     C57379   6.822   5.601   4.076 -0.0212  0.3479  0.2977
  426MOL0     C57380   6.855   5.542   4.199 -0.1629  0.2204 -0.6064
  426MOL0     C57381   6.977   5.469   4.215  0.8119  0.7595 -0.0079
  426MOL0     C57382   7.055   5.434   4.107  0.1441 -0.0799 -0.1383
  426MOL0     O57383   7.157   5.343   4.134  0.8395  0.5248  0.9784
  426MOL0     C57384   7.265   5.324   4.049  0.4296  0.6140  1.3388
  426MOL0     C57385   7.411   5.367   4.082  0.2690  0.4605 -0.0755
  426MOL0     C57386   7.438   5.519   4.069  0.3801 -0.2119  0.1691
  426MOL0     C57387   7.446   5.557   3.929  0.0854  0.6783  1.2062
  426MOL0     C57388   7.401   5.703   3.912  0.0361 -0.4140 -0.3158
  426MOL0     C57389   7.370   5.743   3.763 -0.0441  0.1961  0.4872
  426MOL0     C57390   7.379   5.901   3.745  0.5545 -0.5284 -0.0107
  426MOL0     C57391   7.251   5.971   3.767 -0.4460  0.8111  0.1372
  426MOL0     N57392   7.149   5.938   3.667 -0.3889  0.0884  0.0550
  426MOL0     C57393   7.128   6.017   3.553 -0.1640 -0.5521 -0.2144
  426MOL0     C57394   7.024   5.960   3.486  0.1533  0.8370  0.2723
  426MOL0     C57395   6.951   6.024   3.370  0.2333 -0.9376 -0.0118
  426MOL0     C57396   6.830   6.103   3.422 -0.9155  0.1697  0.3321
  426MOL0     C57397   6.858   6.237   3.466  0.9233 -0.7549  0.9588
  426MOL0     C57398   6.732   6.306   3.499 -1.0526 -0.0207  0.0648
  426MOL0     O57399   6.753   6.425   3.570 -0.1731  0.2661  0.6976
  426MOL0     C57400   6.655   6.514   3.581 -0.9897 -0.2690 -1.1477
  426MOL0     C57401   6.683   6.637   3.648  0.0987 -0.5571 -0.4245
  426MOL0     C57402   6.589   6.729   3.673  1.1496 -0.0893 -1.0577
  426MOL0     C57403   6.631   6.851   3.752  0.5029  0.5953 -0.2760
  426MOL0     C57404   6.457   6.711   3.622  0.4955 -0.2524 -0.1664
  426MOL0     C57405   6.366   6.821   3.612  0.4561  0.0410  0.9644
  426MOL0     O57406   6.235   6.784   3.620 -0.1855  0.3222 -0.7334
  426MOL0     C57407   6.125   6.849   3.579  0.6399 -0.4163  0.8485
  426MOL0     C57408   6.131   6.967   3.490  0.1412 -0.0469  0.2321
  426MOL0     C57409   6.012   7.015   3.441  0.5686 -0.0801 -0.0154
  426MOL0     C57410   5.885   6.969   3.479 -0.5599  0.6930 -0.2878
  426MOL0     O57411   5.769   7.035   3.452 -0.2110  0.7630 -0.1032
  426MOL0     C57412   5.767   7.181   3.465 -0.0687 -0.1296 -0.7201
  426MOL0     C57413   5.627   7.251   3.437  0.4954 -0.4244  0.2672
  426MOL0     C57414   5.660   7.405   3.422 -0.1571  0.4796  0.3618
  426MOL0     C57415   5.636   7.459   3.556 -0.3038 -0.7202 -0.7426
  426MOL0     C57416   5.675   7.605   3.563 -0.5051  0.6552  1.0713
  426MOL0     C57417   5.659   7.669   3.699  0.0968 -0.3161  0.3942
  426MOL0     C57418   5.708   7.811   3.707 -1.7097 -0.2293 -0.6448
  426MOL0     C57419   5.683   7.858   3.847  0.0158  0.9444  0.4837
  426MOL0    Cl57420   5.748   8.029   3.865  0.0732  0.2983  0.3842
  426MOL0     C57421   5.886   6.867   3.579  0.0827 -0.2496  0.0828
  426MOL0     C57422   6.003   6.805   3.631  0.9771 -0.7627  0.8321
  426MOL0     O57423   6.410   6.926   3.568 -0.6226 -0.2046  0.3918
  426MOL0     C57424   6.423   6.598   3.555  0.7218  0.2290  0.6711
  426MOL0     C57425   6.522   6.494   3.550 -0.8131  0.7904  1.1136
  426MOL0     N57426   6.978   5.857   3.568  0.1896 -0.0844 -0.5154
  426MOL0     N57427   7.052   5.849   3.677 -0.2295 -0.1422  0.1299
  426MOL0     C57428   7.029   5.493   3.978 -0.4679  1.4648 -1.0912
  426MOL0     C57429   6.906   5.572   3.968  0.3893 -0.7357 -1.1776
  426MOL0     C57430   6.470   5.664   4.009  1.5562 -0.1207 -0.3015
  426MOL0     C57431   6.472   5.750   3.904  0.5699  0.2246 -0.2271
  426MOL0     C57432   6.348   5.805   3.860  0.0402 -0.8311  0.1041
  426MOL0     C57433   6.223   5.773   3.910 -1.0163 -0.1271 -0.2258
  426MOL0     O57434   6.118   5.845   3.849 -0.2170  0.5065  0.1721
  426MOL0     C57435   5.995   5.822   3.920  0.0256 -0.2224 -0.2541
  426MOL0     C57436   5.908   5.933   3.910 -0.6529  0.0948  0.6426
  426MOL0     C57437   5.772   5.902   3.979 -0.7620 -1.4641  0.8961
  426MOL0     C57438   5.650   5.901   3.876 -0.4191  0.1418  0.4038
  426MOL0     C57439   5.634   6.033   3.813 -0.5942  0.0836  0.5981
  426MOL0     C57440   5.638   6.152   3.768  0.8942  1.0598 -1.1611
  426MOL0     C57441   6.232   5.685   4.019 -0.3537  0.3897 -0.7451
  426MOL0     C57442   6.347   5.633   4.069  0.1104 -0.2024  0.5643
  426MOL0     H57443   6.798   5.576   4.285 -0.2902 -1.3334 -0.0461
  426MOL0     H57444   6.996   5.431   4.315  0.7737 -2.9203 -1.2423
  426MOL0     H57445   7.260   5.215   4.050  1.9102  0.5250  1.4591
  426MOL0     H57446   7.247   5.337   3.942 -0.7393 -0.8731  1.3281
  426MOL0     H57447   7.425   5.338   4.187  0.3014  3.2160  0.7595
  426MOL0     H57448   7.484   5.309   4.024  1.1386  1.5865 -0.1466
  426MOL0     H57449   7.345   5.559   4.111 -0.5758 -3.9884  2.0810
  426MOL0     H57450   7.525   5.560   4.121  2.5821  1.5943 -4.3795
  426MOL0     H57451   7.550   5.538   3.900 -1.3548 -4.1610 -2.2599
  426MOL0     H57452   7.390   5.499   3.854 -0.4901  1.3689  1.0878
  426MOL0     H57453   7.315   5.729   3.975 -1.7225 -0.1124 -2.7120
  426MOL0     H57454   7.485   5.764   3.948 -0.3446  0.1358 -0.3563
  426MOL0     H57455   7.435   5.691   3.692  0.3367  2.8974 -1.3023
  426MOL0     H57456   7.268   5.704   3.755  0.4027 -1.4108  2.0793
  426MOL0     H57457   7.449   5.939   3.819 -0.0965  2.3874 -0.7760
  426MOL0     H57458   7.412   5.928   3.645  1.2146  1.3770  0.6814
  426MOL0     H57459   7.259   6.078   3.789 -1.2582  0.7728  0.6994
  426MOL0     H57460   7.203   5.938   3.860 -0.5442 -3.3584 -1.1887
  426MOL0     H57461   7.176   6.105   3.511 -1.5149 -0.1174 -0.9183
  426MOL0     H57462   7.020   6.104   3.344 -0.1413  0.4360  2.8744
  426MOL0     H57463   6.926   5.948   3.294 -1.8659 -0.1355 -0.2049
  426MOL0     H57464   6.779   6.048   3.501 -0.1282 -1.1380 -0.0428
  426MOL0     H57465   6.762   6.104   3.337 -2.0700 -0.1830  1.2332
  426MOL0     H57466   6.919   6.290   3.392 -1.2121  1.0121  0.3597
  426MOL0     H57467   6.915   6.223   3.558  1.0693 -0.0023  0.9898
  426MOL0     H57468   6.671   6.247   3.569 -3.0125 -0.1163 -1.6431
  426MOL0     H57469   6.683   6.337   3.407 -0.0337  2.8031  0.3823
  426MOL0     H57470   6.786   6.657   3.674 -0.0014  0.1656 -0.5690
  426MOL0     H57471   6.555   6.891   3.820  1.0237  0.0124  0.6676
  426MOL0     H57472   6.705   6.809   3.820 -1.6750  1.4544  2.8517
  426MOL0     H57473   6.669   6.925   3.682 -1.3955  0.9696 -0.9811
  426MOL0     H57474   6.222   7.008   3.448 -0.3388  0.2465 -0.5407
  426MOL0     H57475   6.008   7.106   3.383  4.8098  1.3920  1.6099
  426MOL0     H57476   5.801   7.208   3.565 -3.2958 -1.2939  0.8640
  426MOL0     H57477   5.835   7.230   3.396  0.7322  2.1185  1.5247
  426MOL0     H57478   5.599   7.216   3.337  0.9387 -0.1786  0.0572
  426MOL0     H57479   5.557   7.233   3.520  0.4455  0.3943  0.4140
  426MOL0     H57480   5.588   7.454   3.355  0.5803  3.4281  1.5738
  426MOL0     H57481   5.757   7.431   3.379 -0.5537  1.4770  0.0275
  426MOL0     H57482   5.528   7.456   3.571 -0.5387  0.8396 -1.8431
  426MOL0     H57483   5.694   7.418   3.640 -1.0130  0.0689  0.1620
  426MOL0     H57484   5.606   7.653   3.493 -0.4711  1.4946  1.6097
  426MOL0     H57485   5.778   7.611   3.528 -1.1076  2.3830 -0.6112
  426MOL0     H57486   5.553   7.669   3.727  0.1647 -2.1472  0.7251
  426MOL0     H57487   5.710   7.611   3.776 -2.6674 -2.2507  0.9122
  426MOL0     H57488   5.657   7.878   3.637  2.1594  1.5456 -2.0823
  426MOL0     H57489   5.814   7.816   3.679 -0.7466  2.7353  2.7123
  426MOL0     H57490   5.735   7.798   3.923  0.5382 -1.4531 -1.6435
  426MOL0     H57491   5.574   7.866   3.853 -0.0828  0.0778 -0.0793
  426MOL0     H57492   5.797   6.844   3.636  0.1711 -2.0419 -0.4647
  426MOL0     H57493   6.010   6.739   3.717  1.1846 -0.6084  0.9338
  426MOL0     H57494   6.324   6.568   3.524  1.2761 -1.7591  0.7026
  426MOL0     H57495   6.490   6.397   3.515  0.6063  0.8675 -0.5135
  426MOL0     H57496   7.095   5.479   3.893 -0.4605  1.1152 -1.0299
  426MOL0     H57497   6.885   5.617   3.871  2.1668  0.7127 -0.9512
  426MOL0     H57498   6.566   5.770   3.854  1.5575 -2.6811  0.2693
  426MOL0     H57499   6.388   5.876   3.789  0.0238  0.6057  1.4697
  426MOL0     H57500   5.950   5.733   3.875  2.2603 -0.9613 -1.1333
  426MOL0     H57501   6.001   5.802   4.027 -3.5850  1.4203  0.4142
  426MOL0     H57502   5.910   5.971   3.807  0.1772 -2.7939 -0.4816
  426MOL0     H57503   5.958   6.017   3.959  0.7212  2.8383 -4.7145
  426MOL0     H57504   5.757   5.971   4.063  0.9747 -1.6222  1.3742
  426MOL0     H57505   5.776   5.803   4.025  2.0053 -2.7513 -1.7681
  426MOL0     H57506   5.565   5.882   3.942  0.1699 -3.2383  0.3813
  426MOL0     H57507   5.653   5.825   3.797 -1.1813  0.6282 -0.1078
  426MOL0     H57508   5.652   6.253   3.734  1.5598  1.3981  0.0897
  426MOL0     H57509   6.135   5.661   4.063 -0.4016  0.9159 -0.5526
  426MOL0     H57510   6.344   5.575   4.161  1.5835 -0.5258  0.4231
  427MOL0     O57511   2.758   7.271   6.409 -0.3588 -0.4775  0.0044
  427MOL0     C57512   2.741   7.163   6.365 -0.0172  0.8635 -0.3293
  427MOL0     O57513   2.626   7.115   6.310  0.8511  0.0122 -0.3015
  427MOL0     C57514   2.524   7.210   6.282  0.5035 -0.2442  0.1853
  427MOL0     C57515   2.437   7.266   6.380 -0.1861  0.8972 -0.8315
  427MOL0     C57516   2.325   7.347   6.354  0.2674 -0.3870 -0.5168
  427MOL0     C57517   2.295   7.373   6.219 -0.5004 -0.4375  0.9549
  427MOL0     O57518   2.186   7.447   6.186  0.1262 -0.6480  0.4563
  427MOL0     C57519   2.098   7.408   6.076 -0.2931 -0.2171 -0.4764
  427MOL0     C57520   1.990   7.312   6.130  0.5720  0.5691  0.6971
  427MOL0     C57521   1.903   7.378   6.242 -0.2187  0.1366 -0.7893
  427MOL0     C57522   1.841   7.513   6.204 -0.0337  0.9565 -0.0052
  427MOL0     C57523   1.763   7.573   6.318 -0.2479  0.5006  0.2545
  427MOL0     C57524   1.842   7.578   6.449  0.1207 -0.0755  0.3434
  427MOL0     C57525   1.778   7.686   6.542 -0.8168 -0.6162 -0.0816
  427MOL0     C57526   1.771   7.823   6.486 -0.3709 -0.3667  0.9502
  427MOL0     N57527   1.758   7.931   6.578 -0.4527 -0.0426 -0.8795
  427MOL0     C57528   1.667   7.935   6.679 -0.0398  1.2405 -0.2187
  427MOL0     C57529   1.663   8.069   6.712  1.0880  1.4038 -0.2275
  427MOL0     C57530   1.553   8.144   6.788 -0.0802 -0.5836  0.8317
  427MOL0     C57531   1.580   8.161   6.930 -0.1725 -0.6680  0.3859
  427MOL0     C57532   1.524   8.051   7.027 -1.2122 -0.6266  0.4897
  427MOL0     C57533   1.613   7.926   7.029  0.4782 -0.7676  0.7006
  427MOL0     O57534   1.753   7.954   7.053  0.4861  0.5167 -0.1933
  427MOL0     C57535   1.801   7.952   7.177 -0.2045  0.1692 -0.5380
  427MOL0     C57536   1.941   7.971   7.199 -0.0156  0.9472 -0.1697
  427MOL0     C57537   1.991   7.958   7.324  0.7540 -0.4334 -0.0286
  427MOL0     C57538   2.143   7.978   7.328 -0.0879  0.3504 -0.8013
  427MOL0     C57539   1.905   7.947   7.440  0.8026  0.1929  0.7904
  427MOL0     C57540   1.952   7.945   7.583 -1.0850  1.0745  0.8985
  427MOL0     O57541   1.856   7.946   7.670  0.3369 -0.8982 -0.5114
  427MOL0     C57542   1.891   7.934   7.796 -0.1565 -0.2654 -0.1594
  427MOL0     C57543   1.950   8.051   7.859 -0.4222  0.6036  1.2051
  427MOL0     C57544   1.957   8.065   7.991 -0.1490 -0.9089 -0.5743
  427MOL0     C57545   1.913   7.959   8.067  0.4957  0.2173 -0.4375
  427MOL0     O57546   1.919   7.941   8.205  0.7158  0.0060  0.6298
  427MOL0     C57547   1.978   8.052   8.275  0.8512 -0.2527 -0.3629
  427MOL0     C57548   1.947   8.040   8.428  0.2679 -0.5316 -0.0141
  427MOL0     C57549   2.023   8.143   8.500  0.2853  0.0470  0.4560
  427MOL0     C57550   2.057   8.116   8.654 -0.1407  0.0315  0.2967
  427MOL0     C57551   2.188   8.182   8.700  0.0239  0.0905  0.2970
  427MOL0     C57552   2.196   8.156   8.853  0.6244 -0.7841  0.6624
  427MOL0     C57553   2.338   8.192   8.900 -0.2469 -0.0534  0.8124
  427MOL0     C57554   2.345   8.156   9.044 -0.7661 -0.0717  0.5740
  427MOL0    Cl57555   2.512   8.192   9.116  0.4084  0.0371  0.3507
  427MOL0     C57556   1.865   7.846   8.010 -0.1091  1.5020 -0.5390
  427MOL0     C57557   1.849   7.836   7.875  0.1766 -0.1443  0.1928
  427MOL0     O57558   2.072   7.955   7.609  0.0292  0.2660  0.9336
  427MOL0     C57559   1.765   7.935   7.414 -0.1791 -0.0253  0.6203
  427MOL0     C57560   1.715   7.934   7.286  0.2364 -0.0173  0.3218
  427MOL0     N57561   1.742   8.140   6.625 -0.0158  0.1751  0.0591
  427MOL0     N57562   1.803   8.056   6.551  0.1089 -0.9149  0.1564
  427MOL0     C57563   2.380   7.320   6.120  0.7764  0.8022  0.1108
  427MOL0     C57564   2.495   7.243   6.153 -0.8742  0.2751  0.8565
  427MOL0     C57565   2.843   7.072   6.395 -0.7069 -0.2225  0.5192
  427MOL0     C57566   2.863   6.964   6.309 -0.1725  0.4434  0.0356
  427MOL0     C57567   2.967   6.871   6.328 -0.0871 -0.6447 -0.5905
  427MOL0     C57568   3.041   6.879   6.444  0.1837 -0.4719 -0.1794
  427MOL0     O57569   3.112   6.767   6.466 -0.5950  0.1942  0.2296
  427MOL0     C57570   3.080   6.688   6.580 -0.0638 -0.0882 -0.1576
  427MOL0     C57571   3.183   6.577   6.584  1.1003 -0.4716  0.6993
  427MOL0     C57572   3.194   6.512   6.720 -0.0832 -1.0995 -0.1105
  427MOL0     C57573   3.276   6.377   6.714 -0.2196 -0.9014  0.8323
  427MOL0     C57574   3.203   6.277   6.621 -0.5822  0.2088  0.7409
  427MOL0     C57575   3.160   6.179   6.560  0.1524 -0.6956 -0.1473
  427MOL0     C57576   3.021   6.983   6.531 -0.2570  0.7054 -1.0750
  427MOL0     C57577   2.923   7.072   6.512  0.8827 -0.8905 -0.9204
  427MOL0     H57578   2.469   7.246   6.482  0.0360  0.3572 -1.0016
  427MOL0     H57579   2.259   7.386   6.431 -2.0269 -2.7762 -1.1257
  427MOL0     H57580   2.059   7.497   6.026  0.2282 -0.0710 -0.6252
  427MOL0     H57581   2.152   7.347   6.004 -0.9752 -1.7336  0.2477
  427MOL0     H57582   1.930   7.271   6.048  2.1173 -4.6768  1.8026
  427MOL0     H57583   2.041   7.226   6.176  1.9641 -0.0942 -1.9180
  427MOL0     H57584   1.826   7.304   6.266  0.7693 -0.7708 -0.2922
  427MOL0     H57585   1.976   7.389   6.323  0.3933  2.5366 -1.5778
  427MOL0     H57586   1.929   7.576   6.184  0.3458  1.0208  1.7126
  427MOL0     H57587   1.773   7.509   6.118  1.2066  0.7792 -1.0117
  427MOL0     H57588   1.743   7.672   6.275  2.8140  0.0675 -2.6025
  427MOL0     H57589   1.668   7.524   6.338 -0.9138  1.0507 -1.4156
  427MOL0     H57590   1.849   7.484   6.504  2.6340  0.5677  1.2647
  427MOL0     H57591   1.940   7.613   6.416 -0.9821  2.3444 -0.6138
  427MOL0     H57592   1.678   7.654   6.573 -0.7535 -0.7135  0.0222
  427MOL0     H57593   1.838   7.695   6.632 -1.5468 -1.7899  0.5500
  427MOL0     H57594   1.699   7.821   6.404  0.8296 -0.0400 -0.1379
  427MOL0     H57595   1.868   7.837   6.438  0.0767  0.5793  2.0670
  427MOL0     H57596   1.605   7.855   6.718  1.3801  0.9656  1.6367
  427MOL0     H57597   1.541   8.243   6.742  0.9163 -0.7072  0.2878
  427MOL0     H57598   1.457   8.094   6.768 -0.9516  0.3479  2.5048
  427MOL0     H57599   1.524   8.253   6.949 -0.4409 -1.1604  2.1420
  427MOL0     H57600   1.685   8.191   6.941  0.6805 -3.2537  0.0066
  427MOL0     H57601   1.420   8.026   7.008 -1.6100  0.2344  1.4263
  427MOL0     H57602   1.534   8.089   7.129 -0.4209  0.0280  0.1851
  427MOL0     H57603   1.605   7.866   6.938 -1.1742  1.1134 -0.4915
  427MOL0     H57604   1.578   7.856   7.105  1.5497 -1.2713  0.7388
  427MOL0     H57605   1.997   8.004   7.111 -0.7717  0.8450 -0.7060
  427MOL0     H57606   2.181   7.876   7.327 -0.0764  0.3548 -2.2994
  427MOL0     H57607   2.194   8.023   7.243  1.8166 -4.3932 -2.4887
  427MOL0     H57608   2.182   8.033   7.415  1.3766 -1.5752 -0.1898
  427MOL0     H57609   1.995   8.134   7.805 -0.5616 -0.2871 -0.3262
  427MOL0     H57610   1.995   8.161   8.027 -0.9716 -0.0606 -1.8864
  427MOL0     H57611   2.086   8.060   8.260  1.6395 -2.1274  3.2409
  427MOL0     H57612   1.940   8.146   8.233 -0.0307 -1.0589 -1.4492
  427MOL0     H57613   1.840   8.062   8.432 -0.1756 -2.6373  3.3438
  427MOL0     H57614   1.968   7.945   8.477  0.3051 -1.3889 -1.6522
  427MOL0     H57615   1.970   8.237   8.488  1.5404  0.4451 -3.0925
  427MOL0     H57616   2.122   8.162   8.458 -0.4277  1.2040 -0.7778
  427MOL0     H57617   1.978   8.154   8.719 -2.6062  0.5971 -2.7913
  427MOL0     H57618   2.063   8.008   8.667 -1.4898 -0.1782 -0.6336
  427MOL0     H57619   2.168   8.287   8.679 -1.4555 -0.3745 -0.7705
  427MOL0     H57620   2.281   8.143   8.659  1.0370 -1.6546  3.8188
  427MOL0     H57621   2.112   8.207   8.899 -2.2683 -2.9806 -1.6887
  427MOL0     H57622   2.183   8.048   8.870 -2.0985 -0.2207  2.7148
  427MOL0     H57623   2.348   8.300   8.887  1.2539 -0.1495  1.0656
  427MOL0     H57624   2.407   8.129   8.844 -0.0892  0.6652  0.1897
  427MOL0     H57625   2.303   8.056   9.058 -3.0960 -0.2912 -4.9676
  427MOL0     H57626   2.277   8.223   9.098 -2.5984 -1.3477 -0.0425
  427MOL0     H57627   1.828   7.764   8.071 -1.1897  2.7737  0.5898
  427MOL0     H57628   1.815   7.751   7.818  2.5640 -1.0298 -0.0144
  427MOL0     H57629   1.701   7.917   7.499  0.2780 -0.0332  0.9637
  427MOL0     H57630   1.608   7.914   7.284  0.6947 -2.8927 -1.5365
  427MOL0     H57631   2.365   7.349   6.017 -4.0917 -1.2431 -0.0225
  427MOL0     H57632   2.569   7.211   6.080  0.1446  0.1452  1.9178
  427MOL0     H57633   2.804   6.959   6.217 -1.5004 -0.2564  0.8826
  427MOL0     H57634   2.977   6.791   6.254  1.9226 -1.6720  0.7267
  427MOL0     H57635   3.095   6.756   6.664  1.3248  0.9040 -1.1514
  427MOL0     H57636   2.977   6.654   6.573  0.4739 -1.8846  0.1576
  427MOL0     H57637   3.283   6.613   6.557  1.3565 -0.8619  1.1145
  427MOL0     H57638   3.147   6.508   6.507 -1.1362  3.2030 -1.9100
  427MOL0     H57639   3.098   6.479   6.760  0.3915 -2.2437  0.1232
  427MOL0     H57640   3.240   6.573   6.798 -1.0172  0.6847 -0.9013
  427MOL0     H57641   3.295   6.345   6.817  0.2608  4.1717  2.6343
  427MOL0     H57642   3.375   6.396   6.673 -0.8601  1.3373  0.1788
  427MOL0     H57643   3.109   6.098   6.512  1.9389 -0.8565 -1.9442
  427MOL0     H57644   3.079   6.986   6.623 -2.0853 -1.3802  0.2777
  427MOL0     H57645   2.914   7.150   6.587 -0.1700 -1.2346 -0.6765
  428MOL0     O57646   0.803   9.864   5.422  0.0356 -0.8547  0.6374
  428MOL0     C57647   0.761   9.953   5.355 -0.8087 -0.7840  0.0193
  428MOL0     O57648   0.838  10.033   5.262  0.0581  0.3681  0.4398
  428MOL0     C57649   0.970   9.993   5.239  1.2802  0.8916  0.5228
  428MOL0     C57650   1.002   9.884   5.166 -0.2954  0.8450  0.4265
  428MOL0     C57651   1.139   9.853   5.135  0.8748 -0.3520  0.1740
  428MOL0     C57652   1.243   9.933   5.191  0.5373 -0.1201 -0.2934
  428MOL0     O57653   1.378   9.902   5.178 -0.2523  0.1196  0.1440
  428MOL0     C57654   1.426   9.777   5.123 -0.0557 -0.5439 -0.3117
  428MOL0     C57655   1.562   9.730   5.170  0.2781  0.1232 -1.3423
  428MOL0     C57656   1.669   9.801   5.079  0.3501 -0.5544 -0.1865
  428MOL0     C57657   1.815   9.787   5.127 -0.2168  0.2115 -1.3703
  428MOL0     C57658   1.920   9.762   5.016  0.5025 -0.2715  0.2836
  428MOL0     C57659   2.043   9.692   5.077  0.1080  0.4409  0.1305
  428MOL0     C57660   2.179   9.694   5.007  0.2090  0.2274 -0.0330
  428MOL0     C57661   2.171   9.662   4.857  0.6082 -0.9084  0.1214
  428MOL0     N57662   2.123   9.522   4.837  0.1613 -0.0532  0.3036
  428MOL0     C57663   2.208   9.418   4.851 -0.8666 -0.2848 -0.6796
  428MOL0     C57664   2.132   9.311   4.864  0.7923  0.4923 -1.0725
  428MOL0     C57665   2.179   9.170   4.868 -0.3669  0.2172  0.4510
  428MOL0     C57666   2.197   9.136   5.019  0.5373 -0.4217  0.8212
  428MOL0     C57667   2.055   9.130   5.095 -0.1053  0.3467 -0.4298
  428MOL0     C57668   2.014   9.238   5.191 -0.1905  0.5950 -0.3016
  428MOL0     O57669   2.085   9.213   5.320  0.1896  0.3797  0.2002
  428MOL0     C57670   2.061   9.294   5.420 -0.0118  1.2089  0.0805
  428MOL0     C57671   1.961   9.387   5.433  0.3535 -0.2431  0.8822
  428MOL0     C57672   1.943   9.480   5.538 -1.2502 -0.0278  0.3341
  428MOL0     C57673   1.826   9.572   5.524  0.2183 -0.0265  0.4382
  428MOL0     C57674   2.027   9.483   5.648  1.4975 -0.6253  0.2304
  428MOL0     C57675   2.020   9.568   5.772  1.0968 -0.4091  0.2852
  428MOL0     O57676   2.143   9.586   5.837  0.8869  0.1772  0.0908
  428MOL0     C57677   2.131   9.649   5.963  0.2413 -0.2691  0.1844
  428MOL0     C57678   2.174   9.780   5.962  0.1248  0.9024 -0.2504
  428MOL0     C57679   2.174   9.857   6.078  0.0837  0.7224 -0.2432
  428MOL0     C57680   2.126   9.802   6.196 -0.5573  0.2877 -0.1535
  428MOL0     O57681   2.143   9.891   6.302 -0.2084 -0.2177  0.2794
  428MOL0     C57682   2.058   9.855   6.423  0.0409  0.0318 -0.1494
  428MOL0     C57683   2.028   9.970   6.517 -0.4546  0.1019  0.2952
  428MOL0     C57684   1.975   9.924   6.649  0.5163  0.6356 -1.6311
  428MOL0     C57685   1.948  10.052   6.741 -0.2859 -0.1227 -0.0871
  428MOL0     C57686   1.906  10.001   6.876  0.0996 -0.5421 -0.0288
  428MOL0     C57687   1.862  10.102   6.974  0.5823 -0.1000  0.1838
  428MOL0     C57688   1.707  10.125   6.962  0.2938  0.1394 -0.1525
  428MOL0     C57689   1.654  10.212   7.077  0.4163  0.8279 -0.0185
  428MOL0    Cl57690   1.609  10.375   7.006 -0.0305 -0.1227  0.1626
  428MOL0     C57691   2.079   9.670   6.198 -0.1053 -0.0601 -0.0916
  428MOL0     C57692   2.093   9.595   6.080  0.6969  0.3724  0.5050
  428MOL0     O57693   1.914   9.603   5.809 -0.2427 -0.3755 -1.6766
  428MOL0     C57694   2.136   9.391   5.636 -1.3003 -0.6128  0.4308
  428MOL0     C57695   2.147   9.300   5.528  0.4100  0.4022 -0.4596
  428MOL0     N57696   2.001   9.351   4.852  0.6108  0.1315  0.7694
  428MOL0     N57697   1.997   9.478   4.837  1.0453  0.2199 -0.0220
  428MOL0     C57698   1.201  10.042   5.261  0.5323 -0.3193  0.1768
  428MOL0     C57699   1.072  10.072   5.285 -0.2973 -0.0919  0.1877
  428MOL0     C57700   0.619   9.995   5.391  1.0273 -0.5756  0.8948
  428MOL0     C57701   0.541   9.928   5.478  0.4826 -0.0195 -0.2414
  428MOL0     C57702   0.422   9.980   5.525  0.4215  1.8668 -0.3414
  428MOL0     C57703   0.370  10.092   5.478  0.5636  0.5093  0.4936
  428MOL0     O57704   0.244  10.131   5.523  0.4006 -0.1216 -0.0009
  428MOL0     C57705   0.143  10.134   5.421 -0.7896  0.3227 -0.0562
  428MOL0     C57706   0.029  10.030   5.413 -0.2506  0.6119  0.7148
  428MOL0     C57707  -0.041  10.029   5.552  0.5268 -0.5711 -0.3891
  428MOL0     C57708  -0.136  10.149   5.571 -0.0004 -1.2543  0.7280
  428MOL0     C57709  -0.193  10.171   5.704  1.2363 -0.1701  0.2295
  428MOL0     C57710  -0.260  10.199   5.806  0.0112  0.2574  0.4242
  428MOL0     C57711   0.450  10.175   5.399 -1.1085  0.0467 -0.4836
  428MOL0     C57712   0.577  10.128   5.363  0.1740  0.0627 -0.0275
  428MOL0     H57713   0.916   9.832   5.127  1.3836 -5.3446  3.6400
  428MOL0     H57714   1.162   9.763   5.079 -1.2530 -0.1222 -1.1849
  428MOL0     H57715   1.359   9.691   5.131  2.4506 -2.4517  2.2107
  428MOL0     H57716   1.434   9.777   5.014  0.5254 -1.6652 -0.2903
  428MOL0     H57717   1.578   9.749   5.276  1.2774 -0.0243 -1.4498
  428MOL0     H57718   1.557   9.622   5.155  1.3236  0.0230 -1.0707
  428MOL0     H57719   1.666   9.746   4.984 -1.7366  0.2322 -0.6342
  428MOL0     H57720   1.637   9.906   5.067 -2.5014 -1.0375  1.9970
  428MOL0     H57721   1.823   9.879   5.185 -1.8708  0.5667 -1.6343
  428MOL0     H57722   1.822   9.708   5.202  1.2253 -0.6112 -2.3243
  428MOL0     H57723   1.883   9.691   4.942  0.3668  1.7536 -1.6854
  428MOL0     H57724   1.949   9.853   4.962  2.8331 -2.3923 -2.3943
  428MOL0     H57725   2.062   9.716   5.182  2.7281 -2.1969  0.3757
  428MOL0     H57726   2.009   9.588   5.079 -0.5180  0.6229  2.4458
  428MOL0     H57727   2.220   9.793   5.028  1.0376 -0.8914  4.9919
  428MOL0     H57728   2.248   9.628   5.059  1.5198  1.7700  0.2532
  428MOL0     H57729   2.262   9.681   4.799  0.5896  2.6193  1.0614
  428MOL0     H57730   2.103   9.730   4.805  1.5428  2.5216  2.9951
  428MOL0     H57731   2.317   9.428   4.847 -1.0826  3.8941 -0.8948
  428MOL0     H57732   2.102   9.101   4.833 -1.5715  0.8854  1.6768
  428MOL0     H57733   2.279   9.158   4.826  2.5030  5.1305  4.6602
  428MOL0     H57734   2.262   9.215   5.058  2.0853 -1.3150  0.1523
  428MOL0     H57735   2.245   9.038   5.031 -1.5542 -1.2851  2.9121
  428MOL0     H57736   2.052   9.031   5.141  1.3056 -0.9142 -2.8731
  428MOL0     H57737   1.973   9.119   5.023 -0.5744 -2.0154  0.3838
  428MOL0     H57738   1.906   9.231   5.203  0.0774 -2.0874  1.3229
  428MOL0     H57739   2.052   9.336   5.163  1.9458  0.6896  2.4450
  428MOL0     H57740   1.893   9.390   5.349  1.0746  1.7801  0.3206
  428MOL0     H57741   1.770   9.578   5.617 -0.5016 -0.2244  0.0266
  428MOL0     H57742   1.875   9.665   5.493  2.0441 -0.9788  0.3180
  428MOL0     H57743   1.761   9.546   5.440  1.7089  4.2922 -2.4230
  428MOL0     H57744   2.200   9.843   5.877  1.6437 -1.8062 -1.9059
  428MOL0     H57745   2.203   9.962   6.071 -0.6626  1.0690  1.3737
  428MOL0     H57746   1.964   9.805   6.398 -0.5759  1.5901 -1.0782
  428MOL0     H57747   2.110   9.774   6.475 -0.1415  0.3299  0.5061
  428MOL0     H57748   2.124  10.022   6.522 -1.9712  3.5566 -2.0442
  428MOL0     H57749   1.949  10.035   6.477  0.8487  1.4128 -0.2215
  428MOL0     H57750   2.057   9.866   6.692  0.9737  2.9430  0.9139
  428MOL0     H57751   1.875   9.882   6.637 -0.3715  2.3475 -0.7077
  428MOL0     H57752   2.035  10.117   6.754 -0.0872 -0.1696 -1.0867
  428MOL0     H57753   1.868  10.114   6.699  0.9774  2.2321  0.8044
  428MOL0     H57754   2.005   9.957   6.894  1.7000  1.3297 -3.3273
  428MOL0     H57755   1.829   9.923   6.871 -2.5074  1.8901 -0.2489
  428MOL0     H57756   1.884  10.058   7.072 -1.3645 -0.7212  0.3929
  428MOL0     H57757   1.915  10.196   6.958 -0.4164  0.1748 -1.8261
  428MOL0     H57758   1.654  10.029   6.969 -0.8350  0.8278  1.4265
  428MOL0     H57759   1.698  10.169   6.863  1.6969 -1.5353 -1.0807
  428MOL0     H57760   1.724  10.220   7.160  0.2106 -1.1825  0.4102
  428MOL0     H57761   1.568  10.167   7.128  0.9459  0.9842  1.0299
  428MOL0     H57762   2.051   9.625   6.292  3.6851  0.2268  1.3766
  428MOL0     H57763   2.076   9.489   6.094 -1.9301  1.0845  4.4424
  428MOL0     H57764   2.216   9.385   5.710 -1.5089  1.2814  0.8517
  428MOL0     H57765   2.235   9.236   5.529  0.1561  0.0548 -0.2843
  428MOL0     H57766   1.274  10.106   5.310  0.8031 -0.6033  0.1485
  428MOL0     H57767   1.044  10.154   5.350  3.0945  1.3492  0.0458
  428MOL0     H57768   0.577   9.833   5.517 -2.8987 -0.9411  0.9804
  428MOL0     H57769   0.358   9.925   5.593  2.5618  1.7527  1.7238
  428MOL0     H57770   0.083  10.225   5.428 -1.4483 -0.1352  0.3799
  428MOL0     H57771   0.187  10.132   5.321 -0.1664 -0.6328  0.2245
  428MOL0     H57772   0.065   9.930   5.389 -1.7707 -0.5366  2.8330
  428MOL0     H57773  -0.036  10.051   5.328 -2.2584 -2.1675  1.4145
  428MOL0     H57774   0.033  10.028   5.632 -0.6458  1.1599  0.7814
  428MOL0     H57775  -0.100   9.937   5.553 -1.5000  0.4598 -4.1352
  428MOL0     H57776  -0.214  10.144   5.494 -0.4065  0.1201  1.0170
  428MOL0     H57777  -0.088  10.245   5.551  2.8072 -2.1426  2.6114
  428MOL0     H57778  -0.306  10.216   5.901  0.6841 -1.2917  1.0542
  428MOL0     H57779   0.401  10.270   5.378 -3.9060 -1.2361 -0.1288
  428MOL0     H57780   0.631  10.192   5.294  0.9080  3.6528  3.4940
  429MOL0     O57781   0.337   6.294  10.902  0.1359 -0.1482  0.0881
  429MOL0     C57782   0.322   6.198  10.973  0.5608  0.4524 -0.7191
  429MOL0     O57783   0.297   6.071  10.925  0.6948 -0.5464 -0.3781
  429MOL0     C57784   0.265   6.046  10.792 -0.4726  0.7216  0.7120
  429MOL0     C57785   0.359   5.999  10.694  0.3978 -0.5086 -0.8533
  429MOL0     C57786   0.322   5.998  10.559 -0.4095 -0.8857  0.5880
  429MOL0     C57787   0.189   6.031  10.525 -0.1364 -0.0689 -0.7087
  429MOL0     O57788   0.162   6.024  10.390  0.6370  0.7838  0.2792
  429MOL0     C57789   0.023   6.029  10.338  0.3341  0.3506 -0.5284
  429MOL0     C57790  -0.047   6.164  10.325  0.3211  0.1675  0.7368
  429MOL0     C57791  -0.184   6.152  10.252  0.2867 -0.5557  0.7012
  429MOL0     C57792  -0.271   6.285  10.272  0.5974  0.4770 -0.9857
  429MOL0     C57793  -0.412   6.238  10.240 -0.2656  0.4228 -0.0558
  429MOL0     C57794  -0.515   6.352  10.254 -0.4459  1.6016 -0.1208
  429MOL0     C57795  -0.478   6.473  10.164 -0.1249 -0.7841  0.5177
  429MOL0     C57796  -0.604   6.566  10.155 -0.6957  0.0217 -0.8517
  429MOL0     N57797  -0.651   6.619  10.285 -0.5940 -0.4004  1.1634
  429MOL0     C57798  -0.559   6.689  10.361  0.3389  0.3122 -0.5922
  429MOL0     C57799  -0.637   6.712  10.475 -0.3439  0.1735  0.2866
  429MOL0     C57800  -0.575   6.773  10.599  0.6275 -0.6841 -0.0062
  429MOL0     C57801  -0.580   6.679  10.720 -1.0486  0.0389  0.5510
  429MOL0     C57802  -0.720   6.669  10.775  0.9712  0.7919  0.1819
  429MOL0     C57803  -0.728   6.588  10.903 -0.7557  0.8978 -1.5328
  429MOL0     O57804  -0.600   6.538  10.943 -0.3057  0.0887 -0.0040
  429MOL0     C57805  -0.579   6.535  11.087 -0.0566  0.2615  0.0510
  429MOL0     C57806  -0.481   6.620  11.137 -0.4570 -0.5743  0.0085
  429MOL0     C57807  -0.449   6.641  11.274  0.7159 -0.4053  0.3639
  429MOL0     C57808  -0.335   6.735  11.309 -0.8118  0.4351 -0.2336
  429MOL0     C57809  -0.530   6.566  11.372 -0.6330  0.5808  0.9462
  429MOL0     C57810  -0.493   6.558  11.513  0.4415 -0.4407  0.0615
  429MOL0     O57811  -0.440   6.675  11.571 -0.0847 -0.0355  0.0463
  429MOL0     C57812  -0.398   6.660  11.700  0.0849  0.3696  0.2757
  429MOL0     C57813  -0.278   6.598  11.731  0.3110  0.1131 -0.4098
  429MOL0     C57814  -0.225   6.601  11.870  0.0545  0.3322  0.4751
  429MOL0     C57815  -0.307   6.664  11.967 -0.3509  1.0604  0.4089
  429MOL0     O57816  -0.260   6.677  12.098  0.0248  0.3028 -0.1688
  429MOL0     C57817  -0.318   6.770  12.201 -0.5407  0.8516  0.3725
  429MOL0     C57818  -0.225   6.765  12.321  0.8611 -0.8309  0.4442
  429MOL0     C57819  -0.194   6.625  12.377 -1.4058 -0.2691 -0.3355
  429MOL0     C57820  -0.311   6.531  12.372 -1.1035  0.7093  0.7209
  429MOL0     C57821  -0.301   6.414  12.469 -0.6272  0.0534 -0.4728
  429MOL0     C57822  -0.403   6.299  12.464  0.8135  0.3705  0.1204
  429MOL0     C57823  -0.396   6.206  12.587 -0.7744 -0.2143  0.0149
  429MOL0     C57824  -0.419   6.061  12.547 -1.2626  0.5552  0.7799
  429MOL0    Cl57825  -0.585   6.040  12.515  0.1749  0.0411  0.5471
  429MOL0     C57826  -0.429   6.723  11.934 -0.4092  0.3297 -0.0547
  429MOL0     C57827  -0.470   6.722  11.804  0.6686 -0.5598  0.2309
  429MOL0     O57828  -0.506   6.455  11.566 -0.3763 -0.3417 -0.0811
  429MOL0     C57829  -0.620   6.469  11.324 -0.2961 -0.1947 -0.7145
  429MOL0     C57830  -0.650   6.458  11.181 -0.4679 -0.3053 -0.0343
  429MOL0     N57831  -0.772   6.676  10.445 -0.2581 -0.6612 -0.8047
  429MOL0     N57832  -0.767   6.606  10.346  0.8169  0.0171  1.0065
  429MOL0     C57833   0.093   6.068  10.621  0.8878 -0.3597  0.7345
  429MOL0     C57834   0.137   6.075  10.752  0.5618  0.2271  0.6767
  429MOL0     C57835   0.364   6.201  11.113 -0.1801  0.6591  0.2504
  429MOL0     C57836   0.402   6.318  11.183 -0.4773 -0.9339  0.1326
  429MOL0     C57837   0.460   6.321  11.304  0.3194  0.7119  0.1811
  429MOL0     C57838   0.442   6.207  11.384  0.4249  0.5702  0.3532
  429MOL0     O57839   0.491   6.207  11.507 -0.2959  0.2162 -0.4381
  429MOL0     C57840   0.622   6.181  11.531  1.0293  0.1152  0.6114
  429MOL0     C57841   0.676   6.309  11.599 -0.9129 -0.2426  0.7127
  429MOL0     C57842   0.834   6.303  11.623  0.2870 -0.1362  0.6056
  429MOL0     C57843   0.868   6.187  11.712  0.9338  0.2803 -1.3391
  429MOL0     C57844   0.810   6.189  11.848 -0.2044 -0.3691  0.4314
  429MOL0     C57845   0.754   6.204  11.956 -0.4003  0.6989 -0.0952
  429MOL0     C57846   0.388   6.095  11.325  0.3498 -1.1432 -0.3994
  429MOL0     C57847   0.352   6.086  11.196  0.5999  0.0211  0.5845
  429MOL0     H57848   0.460   5.981  10.729 -0.1561 -0.9826  0.5960
  429MOL0     H57849   0.394   5.977  10.482  0.7129  1.0451  1.0398
  429MOL0     H57850   0.019   5.989  10.236  1.5509  2.3052 -1.3881
  429MOL0     H57851  -0.039   5.962  10.399  1.9825 -1.3777 -0.6471
  429MOL0     H57852  -0.060   6.210  10.423  1.2587 -1.3422  1.5986
  429MOL0     H57853   0.018   6.227  10.264  1.1435  2.1983  3.5329
  429MOL0     H57854  -0.149   6.136  10.149  3.1307 -1.3938  1.7033
  429MOL0     H57855  -0.235   6.062  10.286 -2.3880  0.8570  0.6873
  429MOL0     H57856  -0.267   6.314  10.378  1.7008 -1.1020 -0.5657
  429MOL0     H57857  -0.244   6.376  10.218 -1.4118  0.5429 -1.9824
  429MOL0     H57858  -0.414   6.205  10.136  0.9752  0.5802 -0.1501
  429MOL0     H57859  -0.444   6.157  10.306  1.0779 -0.3681 -0.3420
  429MOL0     H57860  -0.614   6.310  10.237  0.1311  0.9515 -2.2745
  429MOL0     H57861  -0.519   6.373  10.361  0.8768 -0.4554  0.4074
  429MOL0     H57862  -0.399   6.526  10.217  0.7799  0.1110 -1.6099
  429MOL0     H57863  -0.459   6.442  10.061 -3.1125 -1.0894 -0.0352
  429MOL0     H57864  -0.684   6.520  10.096 -0.2699  0.3474 -1.6984
  429MOL0     H57865  -0.572   6.653  10.096  0.2318 -1.6702 -2.9738
  429MOL0     H57866  -0.456   6.720  10.342  0.6007  0.7408  1.3263
  429MOL0     H57867  -0.473   6.807  10.581  0.2688 -0.0459 -0.9030
  429MOL0     H57868  -0.632   6.865  10.615  1.1508  0.6633 -4.4770
  429MOL0     H57869  -0.512   6.726  10.792 -0.3698 -1.3846  0.8663
  429MOL0     H57870  -0.557   6.575  10.693 -3.0037  0.6642 -4.5828
  429MOL0     H57871  -0.779   6.635  10.690  1.9097 -1.9245  0.5065
  429MOL0     H57872  -0.743   6.773  10.799  1.3367  1.6109 -2.6791
  429MOL0     H57873  -0.795   6.505  10.880 -0.6854  0.9382 -1.8787
  429MOL0     H57874  -0.774   6.638  10.989 -1.2370  0.9596 -1.8232
  429MOL0     H57875  -0.447   6.684  11.056 -2.3015 -1.2486 -1.3941
  429MOL0     H57876  -0.251   6.681  11.354 -0.8015  2.1795  2.0210
  429MOL0     H57877  -0.293   6.787  11.222  0.3600 -1.3122 -0.7503
  429MOL0     H57878  -0.374   6.810  11.378 -0.8979 -0.4417  0.6842
  429MOL0     H57879  -0.220   6.554  11.651  3.5370 -0.0548  1.8265
  429MOL0     H57880  -0.124   6.569  11.893  0.4781 -0.8704 -2.4814
  429MOL0     H57881  -0.330   6.876  12.175  0.5032  1.9947  4.0210
  429MOL0     H57882  -0.414   6.732  12.236  0.6352 -1.2851  1.4429
  429MOL0     H57883  -0.133   6.814  12.288 -0.3142  1.2967  0.1215
  429MOL0     H57884  -0.271   6.829  12.397  1.6949 -2.6756  2.6116
  429MOL0     H57885  -0.163   6.640  12.481  0.9536 -0.1603 -1.0034
  429MOL0     H57886  -0.104   6.577  12.338 -0.5305 -1.1533  2.5043
  429MOL0     H57887  -0.410   6.576  12.387 -1.3754  0.1440  0.6503
  429MOL0     H57888  -0.292   6.488  12.273  3.0928 -0.7778  1.9540
  429MOL0     H57889  -0.303   6.467  12.564 -1.1461 -1.8857  0.6518
  429MOL0     H57890  -0.206   6.361  12.461 -1.6525 -2.6086  2.7361
  429MOL0     H57891  -0.504   6.340  12.453 -0.3330 -2.3963 -0.4600
  429MOL0     H57892  -0.390   6.244  12.370 -1.2974  0.7487 -0.4549
  429MOL0     H57893  -0.465   6.245  12.663 -0.3389  2.4619 -0.8358
  429MOL0     H57894  -0.294   6.214  12.624 -0.8801  1.5220  0.0484
  429MOL0     H57895  -0.385   6.007  12.636  0.1545  0.7105  0.3658
  429MOL0     H57896  -0.358   6.036  12.459 -0.2580  3.2293  0.6183
  429MOL0     H57897  -0.491   6.771  12.009 -2.7403  0.6038 -2.0169
  429MOL0     H57898  -0.565   6.774  11.793  0.3596 -1.2976 -0.8703
  429MOL0     H57899  -0.670   6.402  11.392  1.6476 -0.2646  0.7403
  429MOL0     H57900  -0.734   6.393  11.158 -1.6485  0.6454  1.3620
  429MOL0     H57901  -0.007   6.104  10.595  1.1863  0.1473  0.2577
  429MOL0     H57902   0.069   6.116  10.827 -2.9856 -1.1679 -1.5069
  429MOL0     H57903   0.402   6.403  11.115  0.3369 -1.3184 -0.3623
  429MOL0     H57904   0.514   6.403  11.350  1.2986 -1.0253  2.3595
  429MOL0     H57905   0.621   6.095  11.599 -3.3470 -1.5612 -1.2560
  429MOL0     H57906   0.690   6.155  11.449  1.7070  1.1972  0.8073
  429MOL0     H57907   0.621   6.329  11.691  1.4288  0.7854  1.9686
  429MOL0     H57908   0.661   6.403  11.543 -0.0479 -0.2405  0.4780
  429MOL0     H57909   0.870   6.394  11.671 -1.2020  0.4118  0.7438
  429MOL0     H57910   0.880   6.290  11.525 -2.1784 -0.4717 -0.6065
  429MOL0     H57911   0.974   6.170  11.734  0.4713 -1.8801 -0.5951
  429MOL0     H57912   0.839   6.087  11.678 -1.3838 -0.3984  2.1600
  429MOL0     H57913   0.727   6.198  12.059  1.0872 -1.1042  0.2354
  429MOL0     H57914   0.374   6.004  11.382  2.0125 -1.6351 -0.7464
  429MOL0     H57915   0.326   5.988  11.158  4.0760 -0.3458 -1.2187
  430MOL0     O57916   0.594   0.355   0.604  0.9216 -0.0581  0.3592
  430MOL0     C57917   0.469   0.362   0.631 -0.3227 -0.2135 -0.2689
  430MOL0     O57918   0.366   0.403   0.548 -0.6120  0.0233  0.3560
  430MOL0     C57919   0.385   0.451   0.420  0.3764  0.2175  0.6159
  430MOL0     C57920   0.439   0.386   0.308 -0.3194 -0.8537  0.0025
  430MOL0     C57921   0.471   0.451   0.184  0.2105  0.2464 -0.2455
  430MOL0     C57922   0.438   0.585   0.169 -0.6895  0.4506 -0.4207
  430MOL0     O57923   0.473   0.666   0.064  0.3629 -0.6412  0.0892
  430MOL0     C57924   0.582   0.626  -0.028  0.1281 -0.1561 -0.4546
  430MOL0     C57925   0.606   0.731  -0.130  0.4336 -0.0406  1.8460
  430MOL0     C57926   0.482   0.761  -0.219 -1.1593  0.9972 -0.7319
  430MOL0     C57927   0.461   0.648  -0.321  0.3062  0.3200  0.0165
  430MOL0     C57928   0.481   0.694  -0.472 -0.5899 -0.3530  0.5052
  430MOL0     C57929   0.430   0.591  -0.582  0.0411 -0.5236  0.7643
  430MOL0     C57930   0.475   0.448  -0.551  0.4263  0.2094 -0.9471
  430MOL0     C57931   0.460   0.350  -0.662 -0.0125 -0.0208 -0.0976
  430MOL0     N57932   0.327   0.326  -0.696 -0.1025 -0.0853 -0.3426
  430MOL0     C57933   0.242   0.392  -0.788  0.6696 -0.2271  0.2895
  430MOL0     C57934   0.140   0.306  -0.818  0.5295 -0.4209 -0.0460
  430MOL0     C57935   0.042   0.350  -0.921 -0.0048  0.5035 -0.0251
  430MOL0     C57936  -0.086   0.344  -0.861  0.1294 -0.0338 -0.3355
  430MOL0     C57937  -0.106   0.457  -0.759  0.6335  0.6730 -0.6389
  430MOL0     C57938  -0.256   0.453  -0.705  0.0836  0.2543  0.5291
  430MOL0     O57939  -0.321   0.555  -0.773  0.8150  0.1442  0.8295
  430MOL0     C57940  -0.411   0.632  -0.702 -0.9490  0.4120 -0.0109
  430MOL0     C57941  -0.369   0.688  -0.578  0.7827 -0.0740 -0.1940
  430MOL0     C57942  -0.464   0.755  -0.492 -0.3955 -0.1161  0.7040
  430MOL0     C57943  -0.407   0.821  -0.368 -0.0760 -0.1755  0.5297
  430MOL0     C57944  -0.601   0.748  -0.532 -0.7607 -0.8007 -0.2444
  430MOL0     C57945  -0.705   0.822  -0.454  0.5267  0.7675  0.5798
  430MOL0     O57946  -0.838   0.770  -0.469 -0.6595  0.2738  0.4081
  430MOL0     C57947  -0.945   0.820  -0.406 -0.6037 -0.1507 -0.7140
  430MOL0     C57948  -0.945   0.913  -0.309 -1.1251  0.3061 -0.5795
  430MOL0     C57949  -1.059   0.939  -0.245 -0.4570  0.2357 -0.8733
  430MOL0     C57950  -1.181   0.885  -0.263 -0.5423  0.1676  0.3303
  430MOL0     O57951  -1.297   0.919  -0.197 -0.2171 -0.3525 -0.8200
  430MOL0     C57952  -1.292   0.953  -0.052  0.7602  0.0479 -0.2826
  430MOL0     C57953  -1.431   0.970  -0.000 -0.9365 -0.3780 -0.0442
  430MOL0     C57954  -1.487   1.095  -0.068  0.7989 -0.9011 -0.0080
  430MOL0     C57955  -1.507   1.210   0.028 -0.1115 -0.7681  0.4701
  430MOL0     C57956  -1.548   1.336  -0.059 -0.8310  0.1734 -0.1723
  430MOL0     C57957  -1.418   1.411  -0.092  0.5937  0.2261 -0.5300
  430MOL0     C57958  -1.443   1.513  -0.209  0.2914  0.4575  0.7137
  430MOL0     C57959  -1.311   1.604  -0.211  0.3593  0.8081  0.3055
  430MOL0    Cl57960  -1.317   1.715  -0.071  0.4022  0.3533 -0.2951
  430MOL0     C57961  -1.191   0.799  -0.374  0.8785 -0.0596  0.3050
  430MOL0     C57962  -1.074   0.761  -0.439  0.1562  0.5681 -0.5403
  430MOL0     O57963  -0.673   0.915  -0.389 -0.5799 -1.2115 -0.1871
  430MOL0     C57964  -0.641   0.690  -0.645  0.5736  0.4058 -1.1966
  430MOL0     C57965  -0.552   0.633  -0.732 -0.6067 -0.0857 -0.0892
  430MOL0     N57966   0.163   0.192  -0.751  0.2937  1.1813  0.8226
  430MOL0     N57967   0.267   0.203  -0.679 -0.7675  0.0074  0.6121
  430MOL0     C57968   0.384   0.646   0.277 -0.9304  0.3462  0.5192
  430MOL0     C57969   0.351   0.583   0.394  0.3822  0.1574  0.5240
  430MOL0     C57970   0.432   0.312   0.756 -0.0788  0.0781  0.3473
  430MOL0     C57971   0.316   0.236   0.768 -0.1510 -0.0231 -0.0172
  430MOL0     C57972   0.265   0.194   0.892 -0.0480  0.1501 -0.6125
  430MOL0     C57973   0.349   0.204   1.002 -0.3578 -0.5307  0.2620
  430MOL0     O57974   0.295   0.200   1.133 -0.4506  0.1596  0.5272
  430MOL0     C57975   0.366   0.147   1.244 -1.5428  0.9094 -0.6391
  430MOL0     C57976   0.346  -0.006   1.253  0.8570 -0.0858  0.9142
  430MOL0     C57977   0.215  -0.034   1.314  1.0276 -0.1689 -0.1771
  430MOL0     C57978   0.183  -0.178   1.278 -1.3195 -0.4618  0.2017
  430MOL0     C57979   0.237  -0.275   1.376 -1.0749  0.7785  0.4109
  430MOL0     C57980   0.276  -0.353   1.461  0.0206 -0.2672  0.1826
  430MOL0     C57981   0.465   0.269   0.990  0.2500 -0.0448 -0.5702
  430MOL0     C57982   0.513   0.327   0.868 -0.1411  0.8799 -0.4258
  430MOL0     H57983   0.481   0.286   0.315  2.7565  0.4458  1.9328
  430MOL0     H57984   0.527   0.397   0.108  2.3076 -0.7376  1.8597
  430MOL0     H57985   0.674   0.620   0.031 -0.0220 -1.7151 -0.3385
  430MOL0     H57986   0.566   0.529  -0.076  2.8419 -0.0423 -1.7525
  430MOL0     H57987   0.635   0.824  -0.079  2.6851 -0.0510  0.7195
  430MOL0     H57988   0.692   0.702  -0.191  0.7803  1.7266  1.4188
  430MOL0     H57989   0.396   0.786  -0.157 -1.4154 -1.1124 -0.1372
  430MOL0     H57990   0.508   0.850  -0.277  1.5871  0.1842 -0.8851
  430MOL0     H57991   0.530   0.565  -0.301  0.8982  0.6937 -0.4465
  430MOL0     H57992   0.359   0.610  -0.306  1.0940 -1.8921  0.1968
  430MOL0     H57993   0.445   0.796  -0.483  0.7931  0.0036 -1.1198
  430MOL0     H57994   0.590   0.707  -0.479 -0.4364 -1.1717  1.2012
  430MOL0     H57995   0.321   0.599  -0.573 -0.1453 -0.1372 -1.2847
  430MOL0     H57996   0.458   0.633  -0.679  1.6958  1.4997  2.0374
  430MOL0     H57997   0.582   0.458  -0.527  0.4006  3.0159 -1.7052
  430MOL0     H57998   0.406   0.411  -0.475 -0.6670  2.1924 -0.9215
  430MOL0     H57999   0.500   0.255  -0.629  1.6488  1.0519  1.1177
  430MOL0     H58000   0.530   0.385  -0.738  0.3870  1.1509  0.7823
  430MOL0     H58001   0.269   0.489  -0.827  2.8757 -0.8903  0.0048
  430MOL0     H58002   0.043   0.447  -0.972 -1.6266 -0.0109 -1.1349
  430MOL0     H58003   0.067   0.276  -0.998 -0.7517  1.0020 -0.7659
  430MOL0     H58004  -0.106   0.251  -0.806  1.1132  0.7256  1.4102
  430MOL0     H58005  -0.167   0.351  -0.934 -0.7766 -1.2485  0.5118
  430MOL0     H58006  -0.090   0.559  -0.797 -1.7919  1.7410  0.9060
  430MOL0     H58007  -0.044   0.451  -0.669 -0.6708 -3.6612  0.1854
  430MOL0     H58008  -0.257   0.463  -0.596 -1.5566  2.0413  0.4157
  430MOL0     H58009  -0.302   0.356  -0.727  3.2870 -1.2519 -0.1155
  430MOL0     H58010  -0.262   0.687  -0.559  1.1961 -0.0043 -2.2808
  430MOL0     H58011  -0.414   0.930  -0.374 -1.5515 -0.3120 -1.0333
  430MOL0     H58012  -0.443   0.770  -0.278  0.9568  2.8697  2.8606
  430MOL0     H58013  -0.299   0.805  -0.373  0.3701  2.6052 -3.6662
  430MOL0     H58014  -0.858   0.969  -0.276 -2.9954  2.1216  1.5953
  430MOL0     H58015  -1.046   1.008  -0.163 -0.8638  0.7315 -1.2192
  430MOL0     H58016  -1.245   0.884   0.019  1.7589  2.1557  1.1937
  430MOL0     H58017  -1.239   1.049  -0.053  0.0989  0.4177 -0.3161
  430MOL0     H58018  -1.491   0.881  -0.023 -0.3244 -1.8912  3.6237
  430MOL0     H58019  -1.424   0.966   0.109  3.9923  0.6100 -0.1115
  430MOL0     H58020  -1.590   1.075  -0.100  0.4661  1.8437 -0.9011
  430MOL0     H58021  -1.439   1.122  -0.162 -1.2321 -2.8628 -1.7384
  430MOL0     H58022  -1.593   1.198   0.095 -0.8296 -0.1160 -0.3075
  430MOL0     H58023  -1.419   1.238   0.086 -1.1655  0.0882  1.7254
  430MOL0     H58024  -1.606   1.408  -0.001  0.1166  0.9320 -0.1435
  430MOL0     H58025  -1.607   1.319  -0.150 -1.7608  0.8771  0.2931
  430MOL0     H58026  -1.378   1.461  -0.003  1.4861 -1.3430 -0.0184
  430MOL0     H58027  -1.347   1.336  -0.129  0.5065  0.0399 -0.3230
  430MOL0     H58028  -1.524   1.582  -0.184 -1.6959 -0.9587 -1.4861
  430MOL0     H58029  -1.460   1.464  -0.305 -0.1158 -0.5808  1.3029
  430MOL0     H58030  -1.317   1.657  -0.306 -1.1546 -1.3226 -0.8694
  430MOL0     H58031  -1.215   1.553  -0.211  0.9934  1.9159  1.7485
  430MOL0     H58032  -1.286   0.754  -0.399  0.7872  0.1289  0.3157
  430MOL0     H58033  -1.105   0.686  -0.511 -4.7686 -2.1218  3.7239
  430MOL0     H58034  -0.747   0.695  -0.669  0.7762  0.2342 -2.1621
  430MOL0     H58035  -0.577   0.560  -0.808  1.0147 -2.1873  1.2803
  430MOL0     H58036   0.384   0.754   0.267 -1.7364  0.2584 -0.5979
  430MOL0     H58037   0.293   0.640   0.465  0.8083  2.3766 -0.8249
  430MOL0     H58038   0.257   0.210   0.681 -1.6556  1.8225  0.3916
  430MOL0     H58039   0.164   0.155   0.893 -0.2878  0.6270  2.3197
  430MOL0     H58040   0.473   0.170   1.237 -1.6091  1.3353 -0.3344
  430MOL0     H58041   0.337   0.205   1.333  1.1447  1.7033 -0.1679
  430MOL0     H58042   0.422  -0.041   1.324  1.9897  0.5635  0.0617
  430MOL0     H58043   0.364  -0.040   1.150  1.5813  5.9845 -1.4146
  430MOL0     H58044   0.135   0.026   1.270  1.9757 -0.6970 -2.7828
  430MOL0     H58045   0.222  -0.023   1.423  2.6417 -1.5187 -0.1095
  430MOL0     H58046   0.209  -0.204   1.175  1.6514 -1.3946  1.0730
  430MOL0     H58047   0.074  -0.185   1.272 -1.3752  0.3471  0.0297
  430MOL0     H58048   0.317  -0.403   1.546 -2.0134  0.8709  1.9349
  430MOL0     H58049   0.520   0.263   1.083 -2.1561 -1.5790  0.8581
  430MOL0     H58050   0.613   0.366   0.860  0.4988 -0.8869 -1.8321
  431MOL0     O58051   0.113  10.865   7.637 -0.2070  0.2267 -0.6534
  431MOL0     C58052   0.059  10.978   7.632  0.1350 -0.2711 -0.2319
  431MOL0     O58053   0.124  11.095   7.639  0.4306 -0.1003  0.1267
  431MOL0     C58054   0.259  11.114   7.663  0.5491  0.1848  0.4186
  431MOL0     C58055   0.319  11.193   7.759 -0.8402 -0.2196  0.5674
  431MOL0     C58056   0.456  11.194   7.784  0.3589  0.2291  0.2823
  431MOL0     C58057   0.541  11.117   7.705  0.0728 -0.3474  0.3876
  431MOL0     O58058   0.668  11.147   7.736  0.0529 -0.0402  0.7140
  431MOL0     C58059   0.774  11.091   7.658  0.3925 -0.7534 -0.6466
  431MOL0     C58060   0.911  11.151   7.708 -1.0814 -0.5121 -0.3425
  431MOL0     C58061   0.930  11.298   7.660 -0.6572 -1.1478 -0.5288
  431MOL0     C58062   0.979  11.311   7.517  0.0914 -0.9617  0.2709
  431MOL0     C58063   0.961  11.452   7.480 -0.6123 -0.7028  0.6531
  431MOL0     C58064   1.077  11.553   7.517  0.1614  0.6793  0.5929
  431MOL0     C58065   1.228  11.523   7.494  0.0218 -0.5338  0.1525
  431MOL0     C58066   1.264  11.517   7.342 -0.5175  0.4268  0.2944
  431MOL0     N58067   1.209  11.624   7.261 -0.1880 -0.5572 -0.5194
  431MOL0     C58068   1.241  11.758   7.281  0.6249  0.3627 -0.1817
  431MOL0     C58069   1.151  11.818   7.208  0.0264  0.0156  0.0055
  431MOL0     C58070   1.135  11.977   7.213  0.3294  0.0966 -0.2765
  431MOL0     C58071   1.192  12.043   7.083  0.0482  0.6609 -1.2427
  431MOL0     C58072   1.337  12.018   7.066 -0.1578  0.1264  0.1973
  431MOL0     C58073   1.435  12.072   7.175  0.5045  0.2956 -0.0998
  431MOL0     O58074   1.563  12.017   7.133  0.1107 -0.9873 -0.4149
  431MOL0     C58075   1.686  12.056   7.175 -0.4961 -0.1647 -0.4945
  431MOL0     C58076   1.701  12.121   7.293  0.8667 -0.4143  0.5240
  431MOL0     C58077   1.822  12.175   7.337 -1.1798 -0.3601  0.6035
  431MOL0     C58078   1.816  12.267   7.455 -0.3133  0.0487  0.0649
  431MOL0     C58079   1.944  12.165   7.254 -0.0540 -0.3454 -0.4839
  431MOL0     C58080   2.088  12.205   7.291  0.0465 -0.1744  0.0548
  431MOL0     O58081   2.193  12.166   7.213 -0.5939 -0.3564 -1.0489
  431MOL0     C58082   2.317  12.210   7.259 -0.5564  0.9712 -0.5227
  431MOL0     C58083   2.338  12.343   7.242  0.6033 -0.6845  1.0574
  431MOL0     C58084   2.449  12.401   7.300  0.5626 -0.1742  0.2008
  431MOL0     C58085   2.540  12.323   7.366 -0.1770 -0.9318 -0.1813
  431MOL0     O58086   2.660  12.370   7.415  0.4680  0.0728 -0.3802
  431MOL0     C58087   2.661  12.461   7.524  0.1471  1.1129  0.1249
  431MOL0     C58088   2.788  12.465   7.610 -0.7592  0.0383 -0.6223
  431MOL0     C58089   2.901  12.349   7.603  0.3815 -0.7399 -0.1851
  431MOL0     C58090   2.847  12.201   7.610 -0.1235  0.5213 -0.2925
  431MOL0     C58091   2.959  12.085   7.604  0.7739 -0.0990 -0.5729
  431MOL0     C58092   3.070  12.100   7.707  0.0952  0.6664 -0.2432
  431MOL0     C58093   3.023  12.070   7.852 -0.1112  0.0304  0.3922
  431MOL0     C58094   3.132  12.113   7.942 -0.8234 -0.3869  0.7385
  431MOL0    Cl58095   3.080  12.073   8.109 -0.1403  0.5350 -0.7064
  431MOL0     C58096   2.513  12.190   7.386  0.2392  0.2683 -0.3391
  431MOL0     C58097   2.399  12.133   7.334 -0.2900 -0.7904  0.7079
  431MOL0     O58098   2.102  12.272   7.393  0.0265  0.1376 -1.1026
  431MOL0     C58099   1.928  12.085   7.130  0.2829 -0.6357 -0.1080
  431MOL0     C58100   1.799  12.040   7.092  0.5788 -0.6560 -0.4509
  431MOL0     N58101   1.081  11.737   7.127  0.9817  0.1891  1.2326
  431MOL0     N58102   1.120  11.616   7.158 -0.8790 -0.0451 -0.4603
  431MOL0     C58103   0.489  11.034   7.596 -0.7956 -0.3171  0.0084
  431MOL0     C58104   0.346  11.040   7.581 -0.2198  0.2617  0.1076
  431MOL0     C58105  -0.088  10.974   7.618 -0.2682  0.4856 -0.6669
  431MOL0     C58106  -0.164  11.081   7.664  0.1811 -0.1385  0.0111
  431MOL0     C58107  -0.305  11.084   7.650 -0.2803 -0.4373 -0.0710
  431MOL0     C58108  -0.364  10.986   7.563  0.6593 -0.0928  0.4549
  431MOL0     O58109  -0.498  11.002   7.537 -0.5920  0.0361  0.3578
  431MOL0     C58110  -0.564  10.901   7.453 -0.9387  0.3150 -0.4125
  431MOL0     C58111  -0.642  10.818   7.563  0.5370  0.1224  0.5350
  431MOL0     C58112  -0.721  10.714   7.477  0.0433  0.7544  1.2365
  431MOL0     C58113  -0.849  10.777   7.423 -0.2913 -0.4921 -0.9777
  431MOL0     C58114  -0.932  10.686   7.351 -0.0025  0.0116  0.1957
  431MOL0     C58115  -0.988  10.592   7.314 -0.8529  0.0767  0.2354
  431MOL0     C58116  -0.275  10.880   7.525  0.3583  1.1248 -0.5865
  431MOL0     C58117  -0.148  10.867   7.560  0.8921  0.8448  0.9160
  431MOL0     H58118   0.259  11.259   7.820 -1.3224 -0.0104 -0.1109
  431MOL0     H58119   0.492  11.258   7.864 -3.7001  1.7691  1.1189
  431MOL0     H58120   0.781  10.984   7.680  0.0778 -0.3131  1.9192
  431MOL0     H58121   0.763  11.108   7.551 -1.6954  3.8525  0.0496
  431MOL0     H58122   0.910  11.156   7.818  1.3555  0.1481 -0.3082
  431MOL0     H58123   0.989  11.085   7.670 -0.0569 -1.6526  3.3062
  431MOL0     H58124   0.840  11.358   7.676  0.6899  1.4806 -2.1162
  431MOL0     H58125   0.997  11.345   7.732 -4.0401  1.9572  0.8633
  431MOL0     H58126   1.083  11.283   7.504  0.0628 -1.4861  1.1303
  431MOL0     H58127   0.917  11.255   7.446  0.7688 -1.1988 -0.1343
  431MOL0     H58128   0.951  11.454   7.371  1.3424  1.7258  0.4173
  431MOL0     H58129   0.874  11.502   7.523 -1.0822 -1.7138  0.9072
  431MOL0     H58130   1.061  11.647   7.463  1.9651  0.2942 -0.7151
  431MOL0     H58131   1.075  11.574   7.625 -0.2246 -1.8913  1.1490
  431MOL0     H58132   1.277  11.610   7.540 -3.3647  0.4875  2.2229
  431MOL0     H58133   1.262  11.434   7.548  1.5520  1.2920  2.4039
  431MOL0     H58134   1.223  11.426   7.297 -0.8615  0.2891  0.8702
  431MOL0     H58135   1.372  11.504   7.330 -0.9868 -1.6323 -3.0315
  431MOL0     H58136   1.303  11.814   7.349 -1.7789  2.7491  0.2544
  431MOL0     H58137   1.031  12.010   7.221  0.3322 -0.2785  4.3553
  431MOL0     H58138   1.193  12.014   7.299  0.9223 -0.2620 -0.5134
  431MOL0     H58139   1.177  12.148   7.110 -2.3906  0.0615  0.1164
  431MOL0     H58140   1.121  12.019   7.003 -0.8837  0.3126 -0.3361
  431MOL0     H58141   1.371  12.072   6.977  1.6953  1.5925  1.7137
  431MOL0     H58142   1.362  11.912   7.057 -0.3340  0.2444 -3.0413
  431MOL0     H58143   1.413  12.040   7.277  0.7717 -0.3966 -0.2472
  431MOL0     H58144   1.424  12.180   7.185 -2.0524  0.0021  1.0192
  431MOL0     H58145   1.614  12.135   7.357  1.1230 -0.9888  1.0015
  431MOL0     H58146   1.807  12.369   7.416 -2.2333 -0.7866 -1.8260
  431MOL0     H58147   1.728  12.244   7.515 -1.0934  0.4395 -0.9088
  431MOL0     H58148   1.906  12.262   7.517 -0.4800  2.0355  0.5229
  431MOL0     H58149   2.266  12.395   7.179  0.3387 -2.5119 -0.2558
  431MOL0     H58150   2.481  12.503   7.286  0.0548  0.5503  3.4753
  431MOL0     H58151   2.639  12.560   7.483  1.3714  1.7271  0.8988
  431MOL0     H58152   2.577  12.432   7.588  1.4415 -1.9259  0.6700
  431MOL0     H58153   2.839  12.557   7.580 -1.0338  0.2210 -0.5268
  431MOL0     H58154   2.754  12.485   7.712  2.7024  3.0272  0.1761
  431MOL0     H58155   2.972  12.347   7.686  0.0928 -1.5029  0.0440
  431MOL0     H58156   2.970  12.357   7.518  0.5458 -0.0573  0.0007
  431MOL0     H58157   2.792  12.187   7.704 -1.2738 -0.0179 -1.0285
  431MOL0     H58158   2.779  12.184   7.527 -0.5394  0.1440  0.1204
  431MOL0     H58159   3.000  12.073   7.504  0.5018 -0.2222 -0.6688
  431MOL0     H58160   2.921  11.984   7.625  0.1166  0.4817  1.2846
  431MOL0     H58161   3.141  12.022   7.679  2.1733  2.0611  0.8834
  431MOL0     H58162   3.123  12.195   7.699  1.3254  0.0299  0.1109
  431MOL0     H58163   2.985  11.968   7.863 -1.0832  0.2817 -0.4842
  431MOL0     H58164   2.934  12.132   7.865 -0.8522 -0.8512 -0.3973
  431MOL0     H58165   3.149  12.221   7.938  1.3289 -0.6285  1.9775
  431MOL0     H58166   3.225  12.061   7.919  1.2068  2.0646  2.7853
  431MOL0     H58167   2.579  12.132   7.450 -0.3164  0.2140  0.1903
  431MOL0     H58168   2.364  12.035   7.366  2.7896 -3.1118 -2.3105
  431MOL0     H58169   2.016  12.070   7.069  1.7360 -1.1578  2.0166
  431MOL0     H58170   1.780  11.971   7.011 -0.7064  0.0821 -0.7964
  431MOL0     H58171   0.550  10.966   7.538 -0.9213  1.8074 -2.8415
  431MOL0     H58172   0.292  10.981   7.507  1.2812 -3.8100  1.9724
  431MOL0     H58173  -0.103  11.160   7.706  1.5307 -0.8357 -0.5747
  431MOL0     H58174  -0.365  11.171   7.676  1.7294  0.0727  3.5273
  431MOL0     H58175  -0.622  10.956   7.377 -1.2860  1.8394  0.8920
  431MOL0     H58176  -0.501  10.840   7.388 -0.1354 -1.0073  1.5251
  431MOL0     H58177  -0.701  10.882   7.629 -1.1108  0.9591 -1.6017
  431MOL0     H58178  -0.574  10.764   7.628 -1.0707 -3.2808 -0.4008
  431MOL0     H58179  -0.733  10.625   7.539  0.4090 -0.2326 -0.0603
  431MOL0     H58180  -0.663  10.675   7.393  0.1553  0.3499  1.5003
  431MOL0     H58181  -0.839  10.868   7.362 -0.7522  3.3855  4.0943
  431MOL0     H58182  -0.917  10.811   7.502  1.2589 -0.6900  0.4921
  431MOL0     H58183  -1.027  10.497   7.285 -2.0397  0.5477  0.2347
  431MOL0     H58184  -0.304  10.810   7.447  1.6064  0.3332 -0.3662
  431MOL0     H58185  -0.101  10.774   7.532  0.5432  0.2537  2.2334
  432MOL0     O58186  10.917   6.884   3.730  0.6930  0.4383  1.2299
  432MOL0     C58187  10.841   6.975   3.697  0.1123  0.5656 -0.5026
  432MOL0     O58188  10.819   7.088   3.768 -0.4347  0.3623 -0.0962
  432MOL0     C58189  10.850   7.107   3.902 -1.0382 -0.2491  0.3616
  432MOL0     C58190  10.782   7.028   3.990 -0.5029 -0.5628 -1.3255
  432MOL0     C58191  10.787   7.058   4.129  0.6103  0.7184  0.3359
  432MOL0     C58192  10.854   7.166   4.172 -0.9820  0.7738  0.4243
  432MOL0     O58193  10.863   7.202   4.313 -0.3442  0.4715 -0.3447
  432MOL0     C58194  10.960   7.127   4.395  0.7048 -0.8941 -0.0149
  432MOL0     C58195  11.098   7.176   4.367 -0.5219 -0.0704  0.1688
  432MOL0     C58196  11.162   7.244   4.481  0.5480 -0.1950  0.1850
  432MOL0     C58197  11.308   7.271   4.469  0.6227  0.6139  0.3002
  432MOL0     C58198  11.368   7.357   4.586  0.3766 -0.0376 -1.0842
  432MOL0     C58199  11.515   7.376   4.564 -0.5831  0.1987 -1.3153
  432MOL0     C58200  11.567   7.431   4.432 -0.1227 -0.0237  0.8178
  432MOL0     C58201  11.713   7.456   4.450  0.1615  0.8229  0.7518
  432MOL0     N58202  11.771   7.508   4.319  0.6118 -0.0336  0.6282
  432MOL0     C58203  11.701   7.502   4.202 -0.7202  0.6034 -0.5416
  432MOL0     C58204  11.801   7.471   4.108  0.7680 -0.2358  0.2141
  432MOL0     C58205  11.767   7.430   3.970 -0.0211 -0.6169 -0.0627
  432MOL0     C58206  11.893   7.432   3.882  0.2635  0.8540  0.6803
  432MOL0     C58207  11.847   7.378   3.745 -0.3645 -1.1199  0.2233
  432MOL0     C58208  11.946   7.403   3.641 -0.1389  0.5717 -0.6455
  432MOL0     O58209  11.939   7.542   3.592 -0.5971  0.0593  0.2028
  432MOL0     C58210  12.036   7.592   3.504 -0.4775  0.8181  0.4521
  432MOL0     C58211  12.157   7.529   3.481  0.1174  0.1386 -0.3947
  432MOL0     C58212  12.260   7.578   3.396  0.1027 -0.0033  0.0778
  432MOL0     C58213  12.382   7.496   3.392 -1.4388 -0.0973  0.6133
  432MOL0     C58214  12.244   7.701   3.336 -0.6850 -0.6526 -0.6248
  432MOL0     C58215  12.336   7.767   3.240  0.9898 -0.5732 -0.8651
  432MOL0     O58216  12.454   7.705   3.225  0.9217  0.4445  0.3783
  432MOL0     C58217  12.534   7.764   3.125  1.4054 -0.2285 -0.4997
  432MOL0     C58218  12.598   7.888   3.133  1.1362 -0.2292  0.6651
  432MOL0     C58219  12.670   7.948   3.026 -0.0088  0.5417 -0.9004
  432MOL0     C58220  12.668   7.869   2.907 -0.9183 -0.8754  1.1087
  432MOL0     O58221  12.733   7.903   2.782 -0.1036  0.8079 -1.0699
  432MOL0     C58222  12.750   8.029   2.724 -0.3813  0.2720  0.3857
  432MOL0     C58223  12.628   8.116   2.720 -0.2032  0.0043 -0.1938
  432MOL0     C58224  12.653   8.253   2.661  0.0907  0.0465  0.5702
  432MOL0     C58225  12.515   8.342   2.665 -0.3041  0.8407  0.4914
  432MOL0     C58226  12.536   8.488   2.627 -0.5653  0.3367  0.9254
  432MOL0     C58227  12.404   8.565   2.613 -0.3268  1.1647  0.7697
  432MOL0     C58228  12.445   8.712   2.568  0.4492  0.6073  0.7813
  432MOL0     C58229  12.317   8.777   2.540  0.8632 -0.2679 -0.6048
  432MOL0    Cl58230  12.221   8.812   2.686 -0.4839 -0.2776  0.3782
  432MOL0     C58231  12.616   7.744   2.904 -0.4119 -0.0111  0.6976
  432MOL0     C58232  12.541   7.693   3.012 -0.1734 -0.5812  0.5468
  432MOL0     O58233  12.294   7.857   3.169 -0.7624  0.0361  0.3467
  432MOL0     C58234  12.114   7.766   3.349 -0.2880 -0.0056 -1.7783
  432MOL0     C58235  12.010   7.713   3.434  0.2013 -0.2898  0.5093
  432MOL0     N58236  11.921   7.480   4.165  0.2875 -0.4955  0.2029
  432MOL0     N58237  11.907   7.508   4.291 -0.3497 -0.3486  0.1101
  432MOL0     C58238  10.918   7.249   4.081 -1.0892  0.5494 -0.0719
  432MOL0     C58239  10.926   7.208   3.946 -0.4509 -0.5323 -0.1172
  432MOL0     C58240  10.762   6.974   3.567 -0.3078 -0.1474  0.4781
  432MOL0     C58241  10.752   6.862   3.491 -0.9013  0.0717  0.4667
  432MOL0     C58242  10.656   6.860   3.389 -0.0438 -0.2459  0.5977
  432MOL0     C58243  10.581   6.971   3.354  0.4850  0.1398  0.0492
  432MOL0     O58244  10.482   6.961   3.261  0.9178  0.3211 -0.0496
  432MOL0     C58245  10.399   7.081   3.220  0.3432  0.7785  0.3524
  432MOL0     C58246  10.438   7.155   3.095  0.5898  0.1295  0.7223
  432MOL0     C58247  10.465   7.051   2.986 -0.7907 -0.8292  0.8083
  432MOL0     C58248  10.486   7.124   2.851 -0.6404 -0.8284 -0.0212
  432MOL0     C58249  10.496   7.028   2.735  0.0640  1.0618  0.2777
  432MOL0     C58250  10.517   6.950   2.640 -0.0345  0.5335 -0.1255
  432MOL0     C58251  10.611   7.090   3.422 -0.6914 -1.5578 -0.4159
  432MOL0     C58252  10.703   7.090   3.529  0.1654 -0.1124  0.9226
  432MOL0     H58253  10.718   6.949   3.953 -1.9222  0.9471 -2.2140
  432MOL0     H58254  10.722   6.992   4.185  1.2283  0.8917  1.2869
  432MOL0     H58255  10.927   7.144   4.498 -1.9265  0.1565 -0.9324
  432MOL0     H58256  10.947   7.020   4.380 -0.2206 -0.9339  0.9277
  432MOL0     H58257  11.157   7.087   4.344  1.3475  1.0294  0.5347
  432MOL0     H58258  11.099   7.244   4.282 -0.1280 -0.5573 -0.2174
  432MOL0     H58259  11.116   7.343   4.491  1.8552  0.3748  0.8396
  432MOL0     H58260  11.149   7.183   4.570 -3.9901  2.9242  2.0481
  432MOL0     H58261  11.370   7.180   4.470 -3.0159 -2.1234  2.2299
  432MOL0     H58262  11.330   7.324   4.376  0.3537  0.4638  0.1511
  432MOL0     H58263  11.317   7.454   4.587  0.4731  0.0713 -3.0050
  432MOL0     H58264  11.361   7.314   4.686 -0.8947  0.4685 -0.9353
  432MOL0     H58265  11.564   7.437   4.641  1.0816  1.5552 -3.3576
  432MOL0     H58266  11.562   7.277   4.573 -1.9343 -0.3011  1.5002
  432MOL0     H58267  11.566   7.362   4.348  0.6369  1.0000 -0.0565
  432MOL0     H58268  11.520   7.528   4.410 -1.7625 -0.5096  1.9953
  432MOL0     H58269  11.765   7.364   4.478  3.9171  3.5247  3.7892
  432MOL0     H58270  11.720   7.536   4.524 -2.7339  3.1861 -1.2362
  432MOL0     H58271  11.593   7.507   4.192 -0.5739  0.9037 -2.3488
  432MOL0     H58272  11.738   7.324   3.974 -1.3641 -0.2505  3.1515
  432MOL0     H58273  11.684   7.488   3.929  1.0600  1.1504  0.1629
  432MOL0     H58274  11.972   7.369   3.923 -0.2958 -0.0986  0.3299
  432MOL0     H58275  11.921   7.537   3.883 -0.4152  1.0507 -0.0275
  432MOL0     H58276  11.769   7.442   3.701  0.2056 -1.2650 -1.0412
  432MOL0     H58277  11.835   7.272   3.767  0.4102 -1.3251 -0.3050
  432MOL0     H58278  11.922   7.342   3.553  0.5470 -4.7913  2.4520
  432MOL0     H58279  12.048   7.377   3.669  0.7443  0.1171 -3.9271
  432MOL0     H58280  12.185   7.433   3.526 -0.4712  0.0379 -0.2290
  432MOL0     H58281  12.394   7.433   3.303  0.9601 -1.1456  1.5675
  432MOL0     H58282  12.476   7.552   3.399 -1.1460 -0.5315  0.2590
  432MOL0     H58283  12.388   7.420   3.471  3.0672  0.8831  1.4873
  432MOL0     H58284  12.583   7.943   3.225 -1.1236  1.8019 -0.8277
  432MOL0     H58285  12.730   8.038   3.034  0.1959  0.2488  1.7649
  432MOL0     H58286  12.828   8.067   2.791  2.4458 -2.1346 -1.2882
  432MOL0     H58287  12.797   8.013   2.627  0.1463 -2.5457  1.0214
  432MOL0     H58288  12.546   8.074   2.662 -0.8998 -0.1346  0.8694
  432MOL0     H58289  12.591   8.129   2.822 -0.2711 -1.1710 -0.0614
  432MOL0     H58290  12.700   8.255   2.562  0.2432  0.3315  0.6463
  432MOL0     H58291  12.722   8.303   2.729 -0.9091  0.7690  1.0802
  432MOL0     H58292  12.433   8.301   2.606 -1.9047  3.7177  0.5353
  432MOL0     H58293  12.469   8.346   2.764 -1.4413 -0.4174  0.0370
  432MOL0     H58294  12.588   8.498   2.531 -0.9138  0.6623  0.7702
  432MOL0     H58295  12.595   8.536   2.706  2.3746  0.5932 -1.2303
  432MOL0     H58296  12.342   8.524   2.533  0.4112 -2.1993  1.7590
  432MOL0     H58297  12.354   8.562   2.710  1.9939 -0.5409  2.0139
  432MOL0     H58298  12.513   8.701   2.482 -0.0109 -0.4096  0.5376
  432MOL0     H58299  12.502   8.757   2.650 -0.0758  1.4410  0.6911
  432MOL0     H58300  12.265   8.713   2.468 -0.9853 -0.3476  0.7286
  432MOL0     H58301  12.332   8.871   2.486  2.4350 -1.1098 -1.6954
  432MOL0     H58302  12.641   7.678   2.822  3.2097  0.1467  1.4646
  432MOL0     H58303  12.487   7.599   3.012  2.3391 -2.1272 -0.5649
  432MOL0     H58304  12.098   7.865   3.307  0.6062  1.4248  0.9807
  432MOL0     H58305  11.914   7.763   3.441 -0.2929 -1.3693  1.7462
  432MOL0     H58306  10.980   7.333   4.109  0.1329 -0.5955  0.7993
  432MOL0     H58307  10.980   7.262   3.869 -3.3401 -2.0611 -3.5075
  432MOL0     H58308  10.818   6.783   3.525  3.7216  2.8834 -0.9002
  432MOL0     H58309  10.644   6.770   3.329 -0.3789  2.0626 -3.0589
  432MOL0     H58310  10.295   7.050   3.205 -1.1809  3.4863  3.9717
  432MOL0     H58311  10.391   7.151   3.303 -1.4916 -1.3536  2.1175
  432MOL0     H58312  10.530   7.204   3.125 -0.1324  1.4907  0.7766
  432MOL0     H58313  10.356   7.224   3.071  0.1644 -0.3652  0.7326
  432MOL0     H58314  10.390   6.972   2.980 -2.1632  0.5466 -2.9347
  432MOL0     H58315  10.563   7.009   3.012 -0.3775 -1.0149 -0.9572
  432MOL0     H58316  10.581   7.177   2.852  0.3952 -2.5663  2.2959
  432MOL0     H58317  10.409   7.201   2.835 -2.7003 -2.4758  1.3608
  432MOL0     H58318  10.553   6.878   2.570 -1.0956 -1.9426  1.7310
  432MOL0     H58319  10.556   7.181   3.399 -2.0621 -1.8005  1.7008
  432MOL0     H58320  10.711   7.177   3.593  0.5694 -0.2239  1.0249
  433MOL0     O58321   2.376   9.050  10.937  0.3276  0.6715 -0.4605
  433MOL0     C58322   2.355   8.926  10.915  0.2604 -0.3552 -0.6574
  433MOL0     O58323   2.356   8.830  11.014  0.8947 -0.7000  0.4700
  433MOL0     C58324   2.444   8.830  11.123  0.5465 -0.0745  0.1289
  433MOL0     C58325   2.418   8.733  11.220  1.1944  0.0557  0.1981
  433MOL0     C58326   2.502   8.710  11.333  0.2910  0.4185 -0.6922
  433MOL0     C58327   2.610   8.801  11.353  0.0326  0.4220 -0.1750
  433MOL0     O58328   2.685   8.812  11.463  0.6152  0.5717 -0.1711
  433MOL0     C58329   2.746   8.683  11.491  1.3067  0.4487 -0.6233
  433MOL0     C58330   2.872   8.741  11.550 -0.7580  0.9387  0.0075
  433MOL0     C58331   2.975   8.639  11.603  0.0667  0.8121 -0.5940
  433MOL0     C58332   3.092   8.718  11.649  0.0577  0.4165 -0.8216
  433MOL0     C58333   3.203   8.625  11.691  0.1725  0.4986  0.0978
  433MOL0     C58334   3.309   8.713  11.760  1.2977  1.6511 -0.1573
  433MOL0     C58335   3.421   8.625  11.810 -0.4461  0.3695  0.4763
  433MOL0     C58336   3.503   8.705  11.913 -0.1865  0.5796 -0.7312
  433MOL0     N58337   3.553   8.615  12.018 -0.5443  0.2668 -0.2910
  433MOL0     C58338   3.684   8.598  12.053 -1.0795  0.0725 -0.7645
  433MOL0     C58339   3.684   8.519  12.159  0.1655  0.0560  0.4924
  433MOL0     C58340   3.808   8.484  12.235  0.1813 -0.0702  0.1920
  433MOL0     C58341   3.792   8.448  12.383 -0.5707 -0.5330  1.0149
  433MOL0     C58342   3.715   8.308  12.384 -0.1403 -0.9612  0.5240
  433MOL0     C58343   3.809   8.209  12.448 -0.3246 -0.7932 -0.0462
  433MOL0     O58344   3.737   8.094  12.482 -0.5406  0.3955  0.0755
  433MOL0     C58345   3.829   7.998  12.534  0.9472  0.3325  0.2352
  433MOL0     C58346   3.919   8.021  12.639 -0.0276 -0.1735  0.0997
  433MOL0     C58347   4.006   7.923  12.678 -0.5332 -0.7152  1.2331
  433MOL0     C58348   4.119   7.964  12.766  0.3930  0.7475  0.5011
  433MOL0     C58349   3.997   7.787  12.622 -0.1158 -0.6471 -0.3776
  433MOL0     C58350   4.085   7.673  12.645 -0.5184 -0.3797  0.1587
  433MOL0     O58351   4.082   7.582  12.551  0.7806  1.1849 -0.4313
  433MOL0     C58352   4.158   7.472  12.569 -0.9585  0.3479 -0.1571
  433MOL0     C58353   4.299   7.462  12.540  1.1826 -0.2334 -1.1491
  433MOL0     C58354   4.366   7.345  12.558 -0.6362 -0.2548  0.6865
  433MOL0     C58355   4.298   7.230  12.599 -0.9607  1.0940  0.7079
  433MOL0     O58356   4.381   7.110  12.611  0.5510  0.1602  0.2022
  433MOL0     C58357   4.305   6.984  12.605 -0.2284 -0.4614  0.6332
  433MOL0     C58358   4.401   6.863  12.640 -0.2041  0.3151  0.3816
  433MOL0     C58359   4.467   6.885  12.778 -0.5033 -0.4765 -1.0224
  433MOL0     C58360   4.574   6.794  12.829 -0.1103 -0.2721  0.3758
  433MOL0     C58361   4.645   6.851  12.949 -0.4102  0.5617 -0.0293
  433MOL0     C58362   4.704   6.757  13.059  0.6531  0.8954 -0.7309
  433MOL0     C58363   4.769   6.830  13.165 -0.8718  0.3678  0.3749
  433MOL0     C58364   4.908   6.868  13.134 -0.9498  0.3430 -0.4759
  433MOL0    Cl58365   4.961   6.943  13.282  0.7052 -0.2123 -0.3246
  433MOL0     C58366   4.163   7.242  12.629  0.2752 -0.3421 -0.4094
  433MOL0     C58367   4.089   7.357  12.609 -0.8866  0.6321 -0.2200
  433MOL0     O58368   4.146   7.664  12.749 -0.4832  0.3204  0.7704
  433MOL0     C58369   3.898   7.771  12.529 -0.3062  0.5331  0.8529
  433MOL0     C58370   3.813   7.869  12.484 -0.8705 -0.5665 -0.1825
  433MOL0     N58371   3.546   8.486  12.185 -0.1687  0.5176 -0.1186
  433MOL0     N58372   3.471   8.543  12.098  0.4993 -0.1832  0.7368
  433MOL0     C58373   2.636   8.898  11.255  1.2544 -0.4675 -0.3981
  433MOL0     C58374   2.555   8.908  11.146  1.0931 -0.8568  0.7645
  433MOL0     C58375   2.311   8.896  10.777  0.5121  0.3452 -0.2811
  433MOL0     C58376   2.237   8.781  10.759 -0.5703  0.8216  0.0997
  433MOL0     C58377   2.178   8.750  10.643 -0.4627 -0.7250  0.0862
  433MOL0     C58378   2.190   8.843  10.533 -0.5883 -1.1508 -0.4310
  433MOL0     O58379   2.133   8.828  10.414  0.0824  0.9187 -0.2955
  433MOL0     C58380   2.048   8.720  10.396 -0.1386 -0.3227  0.5083
  433MOL0     C58381   1.995   8.744  10.258 -0.3994 -0.5920 -0.0179
  433MOL0     C58382   1.885   8.632  10.234 -0.0269 -0.1882 -0.6756
  433MOL0     C58383   1.852   8.638  10.086  0.4004  0.1684 -0.0469
  433MOL0     C58384   1.787   8.759  10.047  0.0568  0.0153  0.5155
  433MOL0     C58385   1.744   8.862  10.017  1.0968  0.1002 -0.1923
  433MOL0     C58386   2.261   8.962  10.552  0.4537  0.2105 -0.4829
  433MOL0     C58387   2.326   8.991  10.670  0.8175  1.0343 -0.0142
  433MOL0     H58388   2.328   8.672  11.211  2.1456 -1.3394 -0.1860
  433MOL0     H58389   2.469   8.633  11.401 -1.8123  1.4766 -0.4213
  433MOL0     H58390   2.686   8.620  11.557 -0.6510  1.4982 -1.3071
  433MOL0     H58391   2.770   8.624  11.403 -0.3931 -0.0968 -0.7551
  433MOL0     H58392   2.929   8.804  11.481 -1.9823  0.8595 -1.1149
  433MOL0     H58393   2.838   8.804  11.632  2.4917  3.5367 -0.4296
  433MOL0     H58394   2.938   8.562  11.671 -2.4523  0.2625 -2.4360
  433MOL0     H58395   3.007   8.579  11.517  6.3607 -2.2617  3.1850
  433MOL0     H58396   3.128   8.787  11.572 -0.0593  3.5670  1.7449
  433MOL0     H58397   3.064   8.786  11.730  2.4011  1.0243 -0.4455
  433MOL0     H58398   3.167   8.545  11.756  1.6434 -0.6406 -0.4155
  433MOL0     H58399   3.244   8.573  11.603 -1.1577 -0.4299 -0.0109
  433MOL0     H58400   3.348   8.780  11.684 -0.8928 -0.9628 -3.8864
  433MOL0     H58401   3.258   8.769  11.839  2.2393  3.0077 -0.4686
  433MOL0     H58402   3.367   8.542  11.855 -0.7516 -0.4029 -1.2229
  433MOL0     H58403   3.482   8.587  11.727 -0.6562  2.0054 -0.4746
  433MOL0     H58404   3.440   8.778  11.963 -3.0503 -2.2105  0.1059
  433MOL0     H58405   3.591   8.751  11.869 -2.4870  3.4230 -2.7365
  433MOL0     H58406   3.773   8.647  12.014  0.1483 -2.9566 -2.0928
  433MOL0     H58407   3.855   8.397  12.188  0.8356  0.9639 -1.1472
  433MOL0     H58408   3.881   8.566  12.235 -2.4479  2.4429  0.4064
  433MOL0     H58409   3.732   8.521  12.437  1.7025 -0.7372  4.1152
  433MOL0     H58410   3.888   8.451  12.437 -0.0262 -0.2186  0.0610
  433MOL0     H58411   3.680   8.273  12.287  3.1278  3.1875 -2.4926
  433MOL0     H58412   3.632   8.324  12.454 -0.5670  0.4649 -0.2783
  433MOL0     H58413   3.869   8.259  12.524 -1.6372  1.7920 -0.6047
  433MOL0     H58414   3.875   8.181  12.365  0.0783 -2.0727  0.6720
  433MOL0     H58415   3.918   8.117  12.690 -2.6568 -0.7031  1.2140
  433MOL0     H58416   4.209   7.902  12.756 -1.3773 -1.8587 -0.4911
  433MOL0     H58417   4.154   8.065  12.745  1.9044  0.0201 -0.6963
  433MOL0     H58418   4.077   7.972  12.867 -3.0765  1.3308 -0.8521
  433MOL0     H58419   4.341   7.553  12.499 -0.4469  1.0234 -0.1235
  433MOL0     H58420   4.473   7.356  12.542 -1.0792  1.0490 -1.9664
  433MOL0     H58421   4.232   6.977  12.686  0.7620 -0.1054  1.5804
  433MOL0     H58422   4.260   6.974  12.505 -1.1797  1.9602  0.7437
  433MOL0     H58423   4.349   6.767  12.640  0.1478  0.1244  0.9627
  433MOL0     H58424   4.485   6.854  12.571 -0.0500 -0.0978  0.6221
  433MOL0     H58425   4.382   6.890  12.847 -0.2490  0.1132 -0.7466
  433MOL0     H58426   4.522   6.979  12.781  0.7808 -1.1728 -1.6726
  433MOL0     H58427   4.524   6.700  12.853 -0.8692  0.0923  0.2422
  433MOL0     H58428   4.635   6.764  12.743 -2.3779 -0.1758 -1.3560
  433MOL0     H58429   4.576   6.915  13.005 -0.7976  1.4470 -1.4784
  433MOL0     H58430   4.730   6.911  12.915  2.4273 -2.7095  0.6936
  433MOL0     H58431   4.622   6.694  13.091 -1.1565  3.8400  0.8537
  433MOL0     H58432   4.772   6.693  13.002  0.6315  0.2528 -0.0452
  433MOL0     H58433   4.781   6.758  13.247  0.8069  1.8202  1.4960
  433MOL0     H58434   4.700   6.911  13.189 -2.0176 -0.5846  0.3934
  433MOL0     H58435   4.891   6.946  13.059 -1.8594  0.7300  0.1138
  433MOL0     H58436   4.975   6.788  13.101 -2.2790 -1.1760  0.3512
  433MOL0     H58437   4.102   7.155  12.653  2.7937 -3.4278 -3.9706
  433MOL0     H58438   3.981   7.354  12.617 -0.7837 -0.9519  1.0286
  433MOL0     H58439   3.873   7.673  12.490 -0.2225 -0.2204  2.5923
  433MOL0     H58440   3.731   7.843  12.418 -0.2780 -1.3012 -0.6424
  433MOL0     H58441   2.722   8.963  11.260 -0.8143  2.7713 -2.8197
  433MOL0     H58442   2.585   8.982  11.073 -2.3045  0.2985  0.3752
  433MOL0     H58443   2.217   8.717  10.844 -1.0420  0.9312  0.0783
  433MOL0     H58444   2.116   8.661  10.635 -0.0507 -1.2723  2.3853
  433MOL0     H58445   2.101   8.624  10.394  2.2295  0.9177  0.3289
  433MOL0     H58446   1.959   8.719  10.461 -0.0263  0.7449  0.7070
  433MOL0     H58447   2.078   8.728  10.189 -1.2143 -0.0765 -1.1691
  433MOL0     H58448   1.963   8.848  10.246  1.7492  0.0845 -0.3573
  433MOL0     H58449   1.790   8.639  10.289 -1.2398 -0.5775 -2.6387
  433MOL0     H58450   1.908   8.529  10.261 -1.5541 -0.5843 -0.7894
  433MOL0     H58451   1.783   8.556  10.063 -0.0756  1.2094 -2.7078
  433MOL0     H58452   1.939   8.618  10.024  0.2248 -3.0392  0.5456
  433MOL0     H58453   1.691   8.950   9.990  2.6724  0.4631 -2.3328
  433MOL0     H58454   2.276   9.032  10.469  0.6553  2.3450  1.2619
  433MOL0     H58455   2.375   9.085  10.694  0.4173  1.2312  0.0236
  434MOL0     O58456   6.637  11.472   7.040 -0.0768  1.0816  0.0752
  434MOL0     C58457   6.642  11.510   6.927 -0.9326 -0.3778  0.0454
  434MOL0     O58458   6.555  11.477   6.827 -0.4588 -0.1779 -0.4508
  434MOL0     C58459   6.428  11.457   6.872 -0.3523  0.2016 -0.4202
  434MOL0     C58460   6.332  11.560   6.863  0.6621 -0.2788 -0.3330
  434MOL0     C58461   6.197  11.535   6.910 -0.4674 -0.1861 -0.1683
  434MOL0     C58462   6.156  11.399   6.946  0.8872 -0.5618  1.0705
  434MOL0     O58463   6.034  11.370   7.003 -0.4841 -0.3532 -0.3090
  434MOL0     C58464   5.984  11.455   7.113  0.8538 -0.3989  0.0223
  434MOL0     C58465   5.894  11.360   7.195 -0.1776 -1.0100 -0.4938
  434MOL0     C58466   5.770  11.320   7.137  0.3318  0.6247  1.2987
  434MOL0     C58467   5.684  11.239   7.232 -0.8301  0.3235 -0.6657
  434MOL0     C58468   5.566  11.170   7.166 -0.3195  0.1565  0.5134
  434MOL0     C58469   5.493  11.062   7.249  1.2495  1.2954 -0.9251
  434MOL0     C58470   5.332  11.078   7.235  0.1900 -0.2486  0.1178
  434MOL0     C58471   5.257  10.996   7.347 -1.0734 -0.2202 -0.4335
  434MOL0     N58472   5.257  10.849   7.344 -0.0512  0.1013 -0.8465
  434MOL0     C58473   5.228  10.775   7.242  0.6389 -0.0626  0.2293
  434MOL0     C58474   5.222  10.649   7.284 -1.2999  0.9421 -0.6425
  434MOL0     C58475   5.187  10.526   7.210 -0.1521 -0.2918  0.1140
  434MOL0     C58476   5.285  10.410   7.221  0.5906 -0.2496 -0.1461
  434MOL0     C58477   5.402  10.427   7.126 -0.1838  0.2432 -0.3140
  434MOL0     C58478   5.538  10.375   7.177 -0.0913  0.8113  0.0011
  434MOL0     O58479   5.634  10.376   7.078 -0.2155  0.3684  0.7294
  434MOL0     C58480   5.642  10.271   6.992  0.6213 -0.5563 -0.6528
  434MOL0     C58481   5.730  10.288   6.882  0.5211 -0.6192 -0.3997
  434MOL0     C58482   5.747  10.183   6.785 -0.2847 -0.2938 -0.2072
  434MOL0     C58483   5.857  10.207   6.684  0.1337  0.2349 -0.0666
  434MOL0     C58484   5.672  10.068   6.789  0.4179  0.5700 -0.3991
  434MOL0     C58485   5.668   9.962   6.680 -1.4163  0.2275 -0.3281
  434MOL0     O58486   5.579   9.854   6.708 -0.4195 -0.2196 -0.6144
  434MOL0     C58487   5.630   9.729   6.665  0.1831  0.0192 -0.0784
  434MOL0     C58488   5.622   9.686   6.525  1.0288 -0.1434 -0.3230
  434MOL0     C58489   5.657   9.550   6.486 -0.4235 -0.6329  0.5200
  434MOL0     C58490   5.705   9.467   6.586 -1.2646 -0.8543  0.2937
  434MOL0     O58491   5.743   9.338   6.561  0.0997 -0.1360  0.1886
  434MOL0     C58492   5.882   9.309   6.568  0.2293  0.6223  0.5116
  434MOL0     C58493   5.886   9.187   6.483 -0.1702 -0.0279  0.1533
  434MOL0     C58494   6.034   9.147   6.442 -1.1189  0.6605  0.0447
  434MOL0     C58495   6.133   9.129   6.562 -0.6833 -0.3751 -0.0385
  434MOL0     C58496   6.098   9.009   6.652 -1.4229 -0.8272 -0.6721
  434MOL0     C58497   6.227   8.977   6.724  0.3914 -0.8641  0.0377
  434MOL0     C58498   6.212   8.877   6.846  0.7378  0.0670 -0.2596
  434MOL0     C58499   6.178   8.733   6.799  1.3870 -0.4021  0.1607
  434MOL0    Cl58500   6.193   8.600   6.919 -0.1662 -0.3502 -0.4857
  434MOL0     C58501   5.706   9.513   6.721 -0.1744  0.6353  0.0985
  434MOL0     C58502   5.677   9.640   6.761  0.3312 -0.5878 -1.0107
  434MOL0     O58503   5.741   9.963   6.582  0.2111 -0.2426  0.0086
  434MOL0     C58504   5.587  10.051   6.896  0.1179  0.1311 -0.0795
  434MOL0     C58505   5.561  10.153   6.997  1.1054 -0.1929  0.0628
  434MOL0     N58506   5.271  10.652   7.408 -0.0400  0.0749 -0.9709
  434MOL0     N58507   5.282  10.773   7.457  1.0514 -0.4546  0.1208
  434MOL0     C58508   6.255  11.296   6.961  0.2960 -0.1719 -1.1742
  434MOL0     C58509   6.391  11.335   6.931 -0.0333 -0.7136  0.6797
  434MOL0     C58510   6.763  11.585   6.895 -0.1617  0.4372  0.8638
  434MOL0     C58511   6.812  11.573   6.766 -0.4154  0.4232 -0.6925
  434MOL0     C58512   6.934  11.640   6.736 -0.1366 -0.6251 -0.0765
  434MOL0     C58513   6.993  11.711   6.834  1.2451  0.2461  0.2145
  434MOL0     O58514   7.097  11.791   6.793 -0.3105  0.3126 -0.1839
  434MOL0     C58515   7.175  11.867   6.891  0.2153  1.0341  0.0352
  434MOL0     C58516   7.283  11.778   6.966  1.4146 -0.4245  0.0980
  434MOL0     C58517   7.403  11.872   7.007 -0.3015 -0.1477 -0.2264
  434MOL0     C58518   7.532  11.796   7.030 -0.7131  0.3259  1.1243
  434MOL0     C58519   7.645  11.883   7.074  1.3884  0.0300 -0.7921
  434MOL0     C58520   7.733  11.960   7.101  0.7060  0.0893 -0.0701
  434MOL0     C58521   6.943  11.718   6.966 -0.7251 -0.1550  0.4653
  434MOL0     C58522   6.831  11.653   6.995 -0.8427  1.1644 -0.8295
  434MOL0     H58523   6.371  11.651   6.817 -2.5888  0.5871 -1.6334
  434MOL0     H58524   6.127  11.618   6.921 -0.0690  0.1433 -0.0720
  434MOL0     H58525   6.055  11.507   7.178  0.2126  0.7118 -0.1416
  434MOL0     H58526   5.917  11.533   7.077 -0.0182  0.2873  2.9022
  434MOL0     H58527   5.954  11.273   7.224 -0.0357 -0.7229  0.0832
  434MOL0     H58528   5.877  11.432   7.276  0.0868  0.5041 -1.7420
  434MOL0     H58529   5.712  11.406   7.103  1.5869  1.6220  1.6253
  434MOL0     H58530   5.796  11.255   7.053  0.2119  1.7736  0.3552
  434MOL0     H58531   5.746  11.159   7.274 -0.9809  0.6897  0.2911
  434MOL0     H58532   5.654  11.302   7.317  0.8256 -0.5877  0.6579
  434MOL0     H58533   5.507  11.259   7.143  0.6699  0.3627 -1.4478
  434MOL0     H58534   5.604  11.129   7.071  0.4679  0.6803  0.5868
  434MOL0     H58535   5.519  10.966   7.203 -1.5469  1.2649 -2.6932
  434MOL0     H58536   5.523  11.064   7.354  1.7318  0.6670 -1.0422
  434MOL0     H58537   5.308  11.184   7.252  1.9855  0.2015  0.0392
  434MOL0     H58538   5.304  11.047   7.134  1.2808 -1.2901  0.1199
  434MOL0     H58539   5.151  11.021   7.343 -1.3578 -1.0658  1.0864
  434MOL0     H58540   5.295  11.025   7.445 -0.5442  5.6689 -1.9920
  434MOL0     H58541   5.199  10.805   7.142  1.7488 -5.4740 -2.0888
  434MOL0     H58542   5.088  10.504   7.249 -1.2194  3.9406  0.3166
  434MOL0     H58543   5.168  10.550   7.105 -1.3906 -0.3245  0.3258
  434MOL0     H58544   5.219  10.323   7.212 -1.7876  1.0576  2.8100
  434MOL0     H58545   5.312  10.403   7.327 -1.3734  0.6936  0.4495
  434MOL0     H58546   5.407  10.536   7.111  0.9199  0.4018  1.0046
  434MOL0     H58547   5.388  10.369   7.035  0.8336  1.1352 -1.0723
  434MOL0     H58548   5.528  10.273   7.215 -0.6975  0.6171 -0.6765
  434MOL0     H58549   5.567  10.425   7.271 -1.9749 -2.1858  2.3576
  434MOL0     H58550   5.795  10.374   6.871  1.8674 -1.5255  0.1853
  434MOL0     H58551   5.911  10.114   6.664 -1.0832  0.0346 -3.0811
  434MOL0     H58552   5.803  10.222   6.590 -3.5368 -1.7203  1.5174
  434MOL0     H58553   5.916  10.299   6.695 -1.2844  0.9455  2.5518
  434MOL0     H58554   5.566   9.759   6.467 -1.8091 -0.6915  1.5347
  434MOL0     H58555   5.652   9.516   6.383  1.4881  0.8959 -0.1433
  434MOL0     H58556   5.937   9.392   6.523 -0.1739  0.3901 -0.4326
  434MOL0     H58557   5.913   9.286   6.670 -2.2766 -1.0952  0.9787
  434MOL0     H58558   5.853   9.103   6.544  1.6787 -2.3544 -1.8482
  434MOL0     H58559   5.823   9.193   6.394  0.6003 -1.0540 -0.4861
  434MOL0     H58560   6.069   9.226   6.376  0.8671 -0.3605 -0.1922
  434MOL0     H58561   6.021   9.054   6.386  0.3691  0.9927 -0.8979
  434MOL0     H58562   6.232   9.115   6.519  1.2340  1.4441  3.2979
  434MOL0     H58563   6.132   9.230   6.605  1.2744 -0.5999  0.6331
  434MOL0     H58564   6.059   8.923   6.596 -3.8785  0.8399 -1.6819
  434MOL0     H58565   6.031   9.058   6.723 -0.1158  4.2374 -2.4859
  434MOL0     H58566   6.297   8.940   6.649  0.0461  1.1857 -1.3857
  434MOL0     H58567   6.283   9.064   6.760 -1.2747  0.2699  0.0066
  434MOL0     H58568   6.127   8.910   6.906  0.1422 -0.8959 -0.5457
  434MOL0     H58569   6.309   8.889   6.894  0.2618  0.6440  0.5917
  434MOL0     H58570   6.224   8.710   6.702  1.1951 -2.8300  0.5845
  434MOL0     H58571   6.072   8.735   6.775  1.7344 -2.6524 -1.9935
  434MOL0     H58572   5.729   9.440   6.798  1.3756 -1.1102 -1.8994
  434MOL0     H58573   5.675   9.667   6.866  3.6883  2.8046 -1.6221
  434MOL0     H58574   5.518   9.967   6.906  0.3748 -0.0753 -0.0404
  434MOL0     H58575   5.486  10.138   7.074  2.0716  3.5109  1.9099
  434MOL0     H58576   6.235  11.199   7.005 -0.5761  1.3211  2.0266
  434MOL0     H58577   6.467  11.259   6.940  1.1002 -0.5375 -4.6433
  434MOL0     H58578   6.757  11.522   6.687  2.0365 -0.1340 -2.1502
  434MOL0     H58579   6.975  11.650   6.635 -0.0541  1.5997  0.1287
  434MOL0     H58580   7.239  11.937   6.837  2.1336 -1.0225 -0.5341
  434MOL0     H58581   7.120  11.925   6.965  0.8607  0.9660  0.5846
  434MOL0     H58582   7.318  11.706   6.892 -2.5970 -0.3825 -2.1216
  434MOL0     H58583   7.235  11.710   7.037 -3.8658 -2.1199 -4.4254
  434MOL0     H58584   7.368  11.937   7.088  2.2012 -1.5814  2.1646
  434MOL0     H58585   7.428  11.934   6.920  4.1440 -2.1062 -0.6190
  434MOL0     H58586   7.569  11.739   6.944  2.1293  1.5318  1.4247
  434MOL0     H58587   7.508  11.718   7.102 -0.5040  0.3902  1.2630
  434MOL0     H58588   7.818  12.018   7.131 -0.1919  0.2206  2.4207
  434MOL0     H58589   6.984  11.775   7.049  4.3384 -2.9339  0.3240
  434MOL0     H58590   6.795  11.654   7.097  1.0483  2.0455 -0.1280
  435MOL0     O58591   5.340   8.743   8.685  0.4764  0.5592  0.1607
  435MOL0     C58592   5.307   8.868   8.683  0.0416  0.1001  0.3199
  435MOL0     O58593   5.343   8.961   8.587  0.8216  0.7441 -0.1833
  435MOL0     C58594   5.380   8.900   8.471  0.3843 -0.7872 -0.1635
  435MOL0     C58595   5.284   8.855   8.371  0.3652  0.0009  0.5264
  435MOL0     C58596   5.330   8.786   8.257  1.1706 -0.1324 -0.0831
  435MOL0     C58597   5.467   8.773   8.228  0.0677  0.5457  0.0998
  435MOL0     O58598   5.526   8.701   8.124  0.2867  0.2333  0.1638
  435MOL0     C58599   5.441   8.630   8.032 -0.1394  1.2193  0.4546
  435MOL0     C58600   5.390   8.735   7.937 -1.0892  0.6104  0.3743
  435MOL0     C58601   5.395   8.678   7.782  0.8882  0.1003 -0.9820
  435MOL0     C58602   5.468   8.773   7.701  0.0620 -0.9341  0.2602
  435MOL0     C58603   5.511   8.722   7.567 -0.9859 -0.6464  0.7718
  435MOL0     C58604   5.598   8.823   7.484 -0.4447  0.7815  0.4097
  435MOL0     C58605   5.696   8.748   7.382  0.1281 -0.8995 -0.8972
  435MOL0     C58606   5.762   8.838   7.279  0.4911 -0.6861  0.3169
  435MOL0     N58607   5.855   8.934   7.351 -0.2472  0.6797  0.7019
  435MOL0     C58608   5.986   8.898   7.371  0.0250  0.4943  0.4771
  435MOL0     C58609   6.051   9.009   7.385  0.2368 -0.7984  0.1204
  435MOL0     C58610   6.189   9.036   7.434 -0.6338  0.9049  0.0527
  435MOL0     C58611   6.206   9.048   7.584  0.1296 -0.3038 -0.9565
  435MOL0     C58612   6.357   9.052   7.639  1.1674 -0.7906  0.0912
  435MOL0     C58613   6.367   8.970   7.769 -0.4441 -0.0411  0.9400
  435MOL0     O58614   6.303   9.042   7.872 -0.1376  0.5478 -0.3310
  435MOL0     C58615   6.325   8.978   7.995 -0.8580 -0.9986  0.5804
  435MOL0     C58616   6.261   8.860   8.023 -0.6646  0.7547 -0.5392
  435MOL0     C58617   6.301   8.766   8.126  0.5901 -0.2537  0.7808
  435MOL0     C58618   6.228   8.631   8.150  0.4847 -0.4366 -0.4214
  435MOL0     C58619   6.414   8.807   8.213 -0.7048  0.2457 -0.5954
  435MOL0     C58620   6.466   8.742   8.336 -0.2201 -0.1411 -0.2581
  435MOL0     O58621   6.569   8.807   8.412  0.7251 -0.2341 -0.4492
  435MOL0     C58622   6.635   8.739   8.513 -0.7913 -0.1587 -0.7317
  435MOL0     C58623   6.665   8.826   8.624  0.3282  1.2724  0.6743
  435MOL0     C58624   6.733   8.787   8.730 -1.1684 -0.9936  0.0638
  435MOL0     C58625   6.783   8.661   8.748  0.6381 -0.0716  0.5160
  435MOL0     O58626   6.844   8.623   8.865  0.4170 -1.0862  0.2711
  435MOL0     C58627   6.812   8.692   8.991 -0.1661 -0.7146  0.1993
  435MOL0     C58628   6.797   8.586   9.102  0.4270 -0.8941  0.2357
  435MOL0     C58629   6.773   8.670   9.231 -0.2076  0.3088  0.1519
  435MOL0     C58630   6.903   8.717   9.294  0.4666  0.1081  0.1345
  435MOL0     C58631   6.989   8.593   9.338  0.3444 -0.4765 -0.9966
  435MOL0     C58632   7.099   8.620   9.441 -0.2385 -0.3040 -1.7142
  435MOL0     C58633   7.054   8.659   9.588  0.3034  0.5703 -0.7774
  435MOL0     C58634   6.964   8.552   9.660 -1.0207  0.4680  0.4061
  435MOL0    Cl58635   6.957   8.603   9.829 -0.1547 -0.6925 -0.3013
  435MOL0     C58636   6.764   8.580   8.643  0.4691  0.2058  0.0975
  435MOL0     C58637   6.688   8.610   8.525 -0.3781  1.3168  0.4324
  435MOL0     O58638   6.418   8.637   8.363  0.6723  0.4421 -0.9148
  435MOL0     C58639   6.475   8.931   8.182  0.3897 -0.3600  1.0386
  435MOL0     C58640   6.436   9.019   8.076  1.4156  0.5508  0.3122
  435MOL0     N58641   5.960   9.111   7.374  0.0682 -0.2797  0.0862
  435MOL0     N58642   5.845   9.073   7.349 -0.2091  0.7985 -0.2916
  435MOL0     C58643   5.556   8.821   8.326  0.4634 -0.0716  0.2163
  435MOL0     C58644   5.518   8.887   8.441 -0.1615 -0.2818  0.7929
  435MOL0     C58645   5.234   8.924   8.805 -0.2918  0.5246  0.2746
  435MOL0     C58646   5.211   9.060   8.830  0.0558 -0.1994  0.4526
  435MOL0     C58647   5.134   9.101   8.931  0.1317  0.4704  0.2998
  435MOL0     C58648   5.079   8.999   9.025  0.8808 -0.1511 -1.2947
  435MOL0     O58649   5.013   9.012   9.149 -0.0006  0.0796  0.0842
  435MOL0     C58650   4.960   9.144   9.183 -1.1067  0.6251  0.4518
  435MOL0     C58651   5.021   9.199   9.321  0.6429  0.9032 -0.2041
  435MOL0     C58652   4.966   9.344   9.340  0.1380 -0.0588  0.2297
  435MOL0     C58653   4.958   9.374   9.491 -0.3736  0.3132  0.3353
  435MOL0     C58654   5.006   9.505   9.531  0.4800 -0.6298 -0.2071
  435MOL0     C58655   5.038   9.622   9.556  0.6961  0.2640 -0.5487
  435MOL0     C58656   5.118   8.874   9.005 -0.3457 -0.0393 -0.6229
  435MOL0     C58657   5.181   8.833   8.889  0.0892 -0.0286  0.0064
  435MOL0     H58658   5.178   8.845   8.392  0.1940 -0.2797 -0.3959
  435MOL0     H58659   5.256   8.750   8.186  6.2743 -2.2005 -5.0968
  435MOL0     H58660   5.506   8.557   7.982 -0.7742  0.1930  1.0895
  435MOL0     H58661   5.369   8.566   8.084  2.6262 -1.5981  1.1651
  435MOL0     H58662   5.289   8.757   7.973 -0.7787  2.0970  0.3979
  435MOL0     H58663   5.453   8.824   7.943 -0.3441  0.6511 -4.2961
  435MOL0     H58664   5.448   8.583   7.774  0.3419 -0.1642 -1.5756
  435MOL0     H58665   5.295   8.665   7.738  0.7094  1.0073 -0.8515
  435MOL0     H58666   5.405   8.859   7.675 -1.7119 -1.6931  1.8310
  435MOL0     H58667   5.557   8.813   7.749 -0.1094  1.5817 -1.3351
  435MOL0     H58668   5.569   8.629   7.577 -0.9793 -0.6003  1.1836
  435MOL0     H58669   5.419   8.703   7.511 -0.4807  1.6400 -0.9572
  435MOL0     H58670   5.526   8.889   7.435 -0.8493 -1.0473 -1.6255
  435MOL0     H58671   5.650   8.887   7.555 -2.3046  2.0543  0.6911
  435MOL0     H58672   5.778   8.695   7.430 -0.3465 -1.8395 -1.0963
  435MOL0     H58673   5.629   8.680   7.328  0.2951 -1.7957  0.0015
  435MOL0     H58674   5.678   8.887   7.228  1.5339  2.7510  1.5634
  435MOL0     H58675   5.815   8.789   7.198 -3.3133 -0.5714 -2.5366
  435MOL0     H58676   6.030   8.802   7.396  2.3209  2.4270  5.0815
  435MOL0     H58677   6.244   8.950   7.396 -0.1884  1.0850  0.2866
  435MOL0     H58678   6.208   9.135   7.390 -1.5946 -0.0614 -2.7636
  435MOL0     H58679   6.157   8.965   7.635 -0.7088  1.2904  0.9767
  435MOL0     H58680   6.140   9.129   7.618 -1.3049 -2.7569  2.7996
  435MOL0     H58681   6.414   9.143   7.662  0.2280 -0.8895  3.2541
  435MOL0     H58682   6.420   9.014   7.558 -0.8162  0.0274 -1.9288
  435MOL0     H58683   6.474   8.958   7.792 -0.6924  0.1633  2.3251
  435MOL0     H58684   6.320   8.873   7.753 -2.1073  1.0811 -1.5006
  435MOL0     H58685   6.173   8.842   7.962  1.0616 -1.9503 -2.4046
  435MOL0     H58686   6.161   8.646   8.235  0.1423  2.2902 -1.0659
  435MOL0     H58687   6.169   8.619   8.058 -2.5419  0.8954  1.1759
  435MOL0     H58688   6.292   8.547   8.174  1.4117  0.2277 -0.5121
  435MOL0     H58689   6.615   8.922   8.637  3.2906  2.9092  0.8059
  435MOL0     H58690   6.761   8.868   8.797 -0.9490  1.6933 -3.0328
  435MOL0     H58691   6.889   8.766   9.013  0.7376 -2.1336  2.1033
  435MOL0     H58692   6.722   8.752   8.980  0.8472  0.7660 -0.2976
  435MOL0     H58693   6.707   8.529   9.075  0.4477 -0.4104 -0.9287
  435MOL0     H58694   6.880   8.515   9.099 -0.0876 -1.4945 -0.0527
  435MOL0     H58695   6.728   8.603   9.305 -0.4574 -0.2352 -0.4749
  435MOL0     H58696   6.706   8.749   9.197 -1.1375  0.3195  1.9046
  435MOL0     H58697   6.966   8.789   9.242  3.5914 -2.3444  0.1810
  435MOL0     H58698   6.870   8.755   9.391  1.9599 -1.8876  1.5250
  435MOL0     H58699   7.050   8.558   9.254  3.3612 -2.9477  1.9347
  435MOL0     H58700   6.926   8.515   9.380 -0.9102 -0.5502 -2.8753
  435MOL0     H58701   7.161   8.533   9.465 -1.4986 -0.1093  3.4857
  435MOL0     H58702   7.166   8.695   9.398 -0.3230  0.3483 -0.7516
  435MOL0     H58703   7.009   8.758   9.580  0.5226  0.5954 -1.7970
  435MOL0     H58704   7.144   8.663   9.651 -0.9271  0.9037  1.0378
  435MOL0     H58705   7.014   8.455   9.653 -0.4772  0.6739  1.2455
  435MOL0     H58706   6.861   8.555   9.625 -1.9622 -3.0520  2.4382
  435MOL0     H58707   6.801   8.481   8.666  1.1773  0.3836 -0.2743
  435MOL0     H58708   6.667   8.534   8.451  0.7846  0.0338  1.3554
  435MOL0     H58709   6.555   8.967   8.246  0.2486 -0.2466  1.1530
  435MOL0     H58710   6.495   9.107   8.053  0.9024  1.8040  3.2819
  435MOL0     H58711   5.662   8.824   8.304 -0.1276  0.1430 -3.1904
  435MOL0     H58712   5.588   8.911   8.520 -0.4822  1.2836  0.6514
  435MOL0     H58713   5.248   9.142   8.769 -2.5082 -0.4043 -1.5335
  435MOL0     H58714   5.118   9.207   8.951 -2.3765 -0.2700  2.8318
  435MOL0     H58715   5.000   9.215   9.110  2.7617 -1.4406  0.2654
  435MOL0     H58716   4.851   9.151   9.177 -1.1929 -0.9808 -0.4522
  435MOL0     H58717   5.130   9.206   9.328  0.5939  0.6510  1.0388
  435MOL0     H58718   5.006   9.127   9.401  5.0417  0.7121  0.7435
  435MOL0     H58719   4.871   9.368   9.291  0.1484 -0.4783 -0.0055
  435MOL0     H58720   5.039   9.404   9.285  1.3833  0.3654  2.2501
  435MOL0     H58721   5.010   9.296   9.548  0.0261  0.4162  0.1102
  435MOL0     H58722   4.854   9.357   9.522 -0.1642  0.3854  1.0931
  435MOL0     H58723   5.059   9.727   9.558  2.1972 -0.0293  0.3531
  435MOL0     H58724   5.104   8.806   9.089  0.4358  1.1221  0.4793
  435MOL0     H58725   5.188   8.731   8.853 -2.7516 -0.4900  0.5747
  436MOL0     O58726   5.134   5.992   7.189 -0.5540  0.1540  0.4874
  436MOL0     C58727   5.043   5.909   7.175  0.9661  1.0022  1.4857
  436MOL0     O58728   4.927   5.911   7.248 -0.5590  0.0578  0.1365
  436MOL0     C58729   4.941   5.973   7.366  0.7295 -0.0178 -0.4406
  436MOL0     C58730   4.900   6.110   7.384  0.6843  0.1715 -0.3408
  436MOL0     C58731   4.916   6.167   7.521  0.7652  0.8802  0.7132
  436MOL0     C58732   4.960   6.102   7.628 -0.1254 -0.1364 -0.2333
  436MOL0     O58733   4.967   6.138   7.760  0.1540  0.5034 -0.1257
  436MOL0     C58734   5.035   6.259   7.786 -0.1583 -0.0934 -0.0928
  436MOL0     C58735   5.066   6.268   7.940  0.7178  0.6635  0.3098
  436MOL0     C58736   5.080   6.419   7.977  0.4057 -0.7623 -0.2102
  436MOL0     C58737   5.127   6.444   8.119 -0.1985 -0.8081 -1.8449
  436MOL0     C58738   5.096   6.583   8.171  0.1849 -0.4175  0.4189
  436MOL0     C58739   5.120   6.602   8.322  0.5367  0.2830  0.5435
  436MOL0     C58740   5.276   6.611   8.359 -0.3162  0.4403 -1.0573
  436MOL0     C58741   5.320   6.759   8.389 -0.5980  0.0456  1.8543
  436MOL0     N58742   5.296   6.794   8.526  0.5485 -0.9381 -0.1599
  436MOL0     C58743   5.181   6.865   8.572  0.3253  0.6844  0.1031
  436MOL0     C58744   5.201   6.883   8.711 -0.6498 -0.5987 -0.4835
  436MOL0     C58745   5.105   6.950   8.805 -0.5485 -0.1524 -0.0002
  436MOL0     C58746   5.146   7.103   8.816  1.1786 -0.3149  0.0733
  436MOL0     C58747   5.085   7.175   8.930  0.0748 -0.1181  0.3473
  436MOL0     C58748   4.932   7.159   8.942  0.9120  0.3564 -0.0195
  436MOL0     O58749   4.889   7.245   9.051 -0.6094  0.1346 -0.0225
  436MOL0     C58750   4.926   7.225   9.179  0.1309  1.1690 -0.3222
  436MOL0     C58751   4.982   7.328   9.257  0.2205  0.4904  0.0443
  436MOL0     C58752   4.987   7.313   9.398  0.0802 -0.9179  0.5078
  436MOL0     C58753   5.047   7.442   9.461 -0.7662  0.4527  0.6626
  436MOL0     C58754   4.946   7.195   9.459  0.2939  0.2666 -0.1168
  436MOL0     C58755   4.963   7.172   9.608 -0.3134 -0.4540 -0.8758
  436MOL0     O58756   4.970   7.041   9.643 -0.3231 -0.2492  0.3326
  436MOL0     C58757   4.979   6.997   9.775  0.4655  0.6552  0.2827
  436MOL0     C58758   4.888   6.905   9.844 -0.5081 -0.2564  0.4884
  436MOL0     C58759   4.920   6.873   9.977  0.3590  0.1390  0.8253
  436MOL0     C58760   5.031   6.915  10.047 -0.2512  0.1445  0.4960
  436MOL0     O58761   5.061   6.881  10.183  0.0967 -0.2293  0.6372
  436MOL0     C58762   5.045   6.741  10.213  1.5621  0.0305 -0.8173
  436MOL0     C58763   5.048   6.731  10.357  0.2412  0.3764 -0.4775
  436MOL0     C58764   5.061   6.579  10.398 -0.1139  0.2657 -0.5272
  436MOL0     C58765   5.083   6.530  10.539 -0.1008 -0.4381  0.1051
  436MOL0     C58766   5.222   6.548  10.593 -0.1493 -0.5996  0.3123
  436MOL0     C58767   5.220   6.496  10.733 -0.0559 -0.3819 -0.3923
  436MOL0     C58768   5.364   6.514  10.792  0.9529 -0.3618  0.1682
  436MOL0     C58769   5.385   6.523  10.940 -1.0165  0.2050  0.0828
  436MOL0    Cl58770   5.551   6.585  10.996  0.0660  0.1244 -0.0971
  436MOL0     C58771   5.116   7.012   9.982 -1.3852 -0.9376 -0.4942
  436MOL0     C58772   5.089   7.056   9.854 -0.0768 -0.2238  0.7057
  436MOL0     O58773   4.978   7.269   9.682 -0.3840 -0.0072  0.7973
  436MOL0     C58774   4.901   7.091   9.368  0.1408  0.1543  0.4425
  436MOL0     C58775   4.884   7.104   9.230  0.4674 -0.1960  0.6694
  436MOL0     N58776   5.314   6.811   8.744 -0.1435  0.5304  0.6830
  436MOL0     N58777   5.382   6.771   8.638  0.6530  0.0362  0.3656
  436MOL0     C58778   5.002   5.966   7.599  0.4715  1.3036  0.6846
  436MOL0     C58779   4.990   5.901   7.474 -1.1541 -0.2670  0.7724
  436MOL0     C58780   5.032   5.821   7.054 -0.7575  0.4594 -0.3189
  436MOL0     C58781   4.922   5.739   7.019  0.7577 -0.2777 -0.5846
  436MOL0     C58782   4.927   5.654   6.913  0.3722  0.1443  0.1613
  436MOL0     C58783   5.037   5.646   6.830  0.5719 -0.3806  0.4636
  436MOL0     O58784   5.057   5.549   6.730  0.4052 -0.5722  0.3458
  436MOL0     C58785   4.987   5.423   6.726 -0.2023 -0.9395  0.1865
  436MOL0     C58786   5.070   5.328   6.638 -1.2047 -0.0459  0.6388
  436MOL0     C58787   5.221   5.314   6.680  0.2073 -0.1494 -0.3205
  436MOL0     C58788   5.265   5.167   6.689 -0.4059  0.7252  0.4003
  436MOL0     C58789   5.206   5.087   6.800  0.3029 -0.2599 -0.8506
  436MOL0     C58790   5.154   5.025   6.892 -0.0945 -0.2055 -1.2016
  436MOL0     C58791   5.135   5.747   6.851 -0.2073  1.5046  0.1674
  436MOL0     C58792   5.137   5.823   6.958  0.5762 -0.6602  0.1165
  436MOL0     H58793   4.858   6.169   7.304  1.1786 -2.1112 -2.4038
  436MOL0     H58794   4.883   6.270   7.533  0.3074  0.7061  0.9575
  436MOL0     H58795   5.131   6.249   7.735  0.1210 -0.4706  0.5024
  436MOL0     H58796   4.979   6.341   7.740 -1.0146 -0.8400 -0.4070
  436MOL0     H58797   4.982   6.238   8.003  1.7450  0.1404  1.4739
  436MOL0     H58798   5.163   6.221   7.956  0.9178  0.3807 -1.4911
  436MOL0     H58799   5.156   6.463   7.912  0.0999 -0.3771 -0.3067
  436MOL0     H58800   4.992   6.474   7.943 -0.8019 -2.2801  0.3338
  436MOL0     H58801   5.076   6.383   8.194  0.4575 -0.8488 -1.4249
  436MOL0     H58802   5.235   6.433   8.129 -0.2178 -0.6200 -1.4056
  436MOL0     H58803   5.158   6.652   8.114  2.0128  0.0260  2.8111
  436MOL0     H58804   4.991   6.614   8.161  0.8204  1.4228 -1.2599
  436MOL0     H58805   5.057   6.685   8.356 -1.1368  0.4682 -2.6581
  436MOL0     H58806   5.079   6.515   8.375  0.5177  0.2267  0.4373
  436MOL0     H58807   5.292   6.544   8.444 -1.3219 -1.6670 -2.4134
  436MOL0     H58808   5.337   6.560   8.284  0.3446  1.5530 -1.2958
  436MOL0     H58809   5.273   6.825   8.315 -0.8036 -1.3543  0.6868
  436MOL0     H58810   5.426   6.770   8.365 -0.8022 -0.9282  0.3791
  436MOL0     H58811   5.098   6.906   8.517 -0.1306  1.7891  1.5546
  436MOL0     H58812   5.002   6.935   8.770 -1.5374 -1.3261  3.1565
  436MOL0     H58813   5.107   6.912   8.907  0.8687 -2.5905 -0.8558
  436MOL0     H58814   5.116   7.147   8.720  4.0114  2.1728  0.1838
  436MOL0     H58815   5.255   7.111   8.827  0.8287  1.0837  3.5986
  436MOL0     H58816   5.118   7.279   8.939 -3.4374  1.1445  0.1413
  436MOL0     H58817   5.136   7.140   9.020 -2.1507 -0.9368  1.3642
  436MOL0     H58818   4.908   7.056   8.968  2.0312  0.3446  1.0669
  436MOL0     H58819   4.864   7.188   8.862  0.9501  2.2138  0.5713
  436MOL0     H58820   5.025   7.415   9.208 -0.3143  1.3341  1.0546
  436MOL0     H58821   5.142   7.419   9.508  0.0102 -1.4726 -1.6607
  436MOL0     H58822   5.061   7.524   9.390  2.6964 -1.6434 -1.3420
  436MOL0     H58823   4.978   7.465   9.544 -0.0388  0.9666  1.1349
  436MOL0     H58824   4.794   6.867   9.807 -0.7360 -1.0694  1.8123
  436MOL0     H58825   4.857   6.801  10.029 -0.3718  3.0242  4.2998
  436MOL0     H58826   4.953   6.690  10.183  0.5040  1.3843  0.0066
  436MOL0     H58827   5.127   6.692  10.160  0.5362 -1.3125 -1.2104
  436MOL0     H58828   5.134   6.785  10.398  0.6041 -0.7784  0.3439
  436MOL0     H58829   4.949   6.765  10.387 -0.4313 -1.5196 -0.4483
  436MOL0     H58830   5.140   6.534  10.337  0.0260  0.5321 -0.5472
  436MOL0     H58831   4.976   6.525  10.356  0.5195 -0.0232 -1.4872
  436MOL0     H58832   5.004   6.580  10.595 -3.5508 -1.8552 -3.0681
  436MOL0     H58833   5.067   6.423  10.548  1.7201 -0.6319  1.7648
  436MOL0     H58834   5.241   6.656  10.598 -0.2451 -0.6061  0.8461
  436MOL0     H58835   5.303   6.497  10.541  1.3943  2.2709 -0.3366
  436MOL0     H58836   5.143   6.540  10.796  0.0822  1.4092 -1.4047
  436MOL0     H58837   5.204   6.389  10.716 -6.0259  0.1378 -0.3386
  436MOL0     H58838   5.412   6.602  10.747 -1.6126 -0.4494 -3.1666
  436MOL0     H58839   5.433   6.435  10.760  1.9609  0.6797 -0.3222
  436MOL0     H58840   5.370   6.422  10.978  1.5363 -0.9250 -1.6391
  436MOL0     H58841   5.311   6.587  10.989 -0.9232 -0.1503  0.6940
  436MOL0     H58842   5.195   7.054  10.043 -2.3029 -1.9477  1.4824
  436MOL0     H58843   5.154   7.129   9.809 -1.6300  0.1328 -1.0915
  436MOL0     H58844   4.870   6.994   9.405 -0.6967 -0.0883 -0.8638
  436MOL0     H58845   4.840   7.033   9.161  1.0839 -2.1405  2.1593
  436MOL0     H58846   5.040   5.912   7.685 -5.6215 -0.8453  2.4850
  436MOL0     H58847   5.015   5.796   7.457 -2.3284 -0.8256  2.2358
  436MOL0     H58848   4.842   5.739   7.093  0.9393  1.5567 -0.3642
  436MOL0     H58849   4.840   5.590   6.901  0.1121 -0.4703  4.0260
  436MOL0     H58850   4.979   5.366   6.819 -0.2290 -3.2657 -1.1614
  436MOL0     H58851   4.889   5.445   6.681 -0.7974  1.1889  2.2526
  436MOL0     H58852   5.068   5.377   6.541 -1.2976 -0.5218  0.3946
  436MOL0     H58853   5.018   5.232   6.637  0.1505 -0.8564  1.8982
  436MOL0     H58854   5.236   5.364   6.776  4.3617 -0.1763 -0.7953
  436MOL0     H58855   5.277   5.366   6.602 -1.0734 -1.7179 -2.3851
  436MOL0     H58856   5.374   5.176   6.698 -0.5359  3.3439  0.0739
  436MOL0     H58857   5.231   5.121   6.596 -1.2652  0.7011  0.7232
  436MOL0     H58858   5.106   4.970   6.969  0.3202  0.5006 -0.4172
  436MOL0     H58859   5.218   5.729   6.783 -1.4910  0.2477 -1.1143
  436MOL0     H58860   5.231   5.871   6.986  0.6493 -1.3615  1.1125
  437MOL0     O58861   6.674   7.798   8.835  0.2072  0.2795 -0.2809
  437MOL0     C58862   6.571   7.795   8.906  0.5872 -0.7639  0.2976
  437MOL0     O58863   6.444   7.781   8.858  0.6065  0.7225 -0.2955
  437MOL0     C58864   6.431   7.798   8.724 -0.0145  0.1628 -0.1391
  437MOL0     C58865   6.391   7.924   8.667  0.3368 -0.1633  0.0106
  437MOL0     C58866   6.342   7.917   8.531  0.0475  0.0051 -1.4591
  437MOL0     C58867   6.379   7.817   8.449  0.2215 -0.3124  0.7067
  437MOL0     O58868   6.339   7.815   8.315  0.5427 -1.1881  1.4335
  437MOL0     C58869   6.202   7.844   8.285  0.0146  0.0321  0.2734
  437MOL0     C58870   6.171   7.849   8.134 -0.3137  0.0881 -1.0673
  437MOL0     C58871   6.186   7.709   8.078  0.2432 -0.5291 -0.1029
  437MOL0     C58872   6.202   7.713   7.928 -0.5618  0.3296  0.1783
  437MOL0     C58873   6.176   7.570   7.871 -0.1762 -0.2491  0.1243
  437MOL0     C58874   6.233   7.556   7.732 -0.2216 -0.5534  0.8876
  437MOL0     C58875   6.224   7.411   7.685  0.5349 -0.5386 -0.2820
  437MOL0     C58876   6.274   7.384   7.543 -0.3874  0.4282  0.5289
  437MOL0     N58877   6.174   7.392   7.440  0.0313 -0.4899  0.6326
  437MOL0     C58878   6.106   7.502   7.393 -1.0626  1.2355 -1.1287
  437MOL0     C58879   6.022   7.449   7.307 -0.6506  0.2096  0.2671
  437MOL0     C58880   5.910   7.522   7.232  0.9316  0.2064  0.3557
  437MOL0     C58881   5.910   7.516   7.077 -0.3431  0.2849  0.5813
  437MOL0     C58882   6.049   7.538   7.017 -0.5141  0.0391  0.1248
  437MOL0     C58883   6.111   7.674   7.053  1.0638 -0.6152  0.1880
  437MOL0     O58884   6.005   7.777   7.037  0.3568  0.0823 -0.2447
  437MOL0     C58885   6.014   7.866   6.935 -0.0910  0.5217  0.0336
  437MOL0     C58886   6.004   7.832   6.803 -0.1043  0.1883  0.6442
  437MOL0     C58887   6.008   7.924   6.698  0.3552 -0.4410 -0.3854
  437MOL0     C58888   5.962   7.888   6.559  0.3033  0.5431  0.5661
  437MOL0     C58889   6.034   8.068   6.733  0.0776 -0.0930 -0.0789
  437MOL0     C58890   6.021   8.177   6.643  0.6064  0.0488  0.3113
  437MOL0     O58891   5.953   8.288   6.690 -0.5907 -0.5017  0.1318
  437MOL0     C58892   5.897   8.377   6.607  0.3087  0.6457 -0.6855
  437MOL0     C58893   5.891   8.502   6.661 -0.9044 -0.7065  0.4525
  437MOL0     C58894   5.852   8.609   6.593 -0.1654 -0.4746  0.7689
  437MOL0     C58895   5.783   8.588   6.466 -0.1426 -0.4103  0.9784
  437MOL0     O58896   5.743   8.685   6.373  0.2862  0.6359 -0.0837
  437MOL0     C58897   5.725   8.824   6.414  0.5754  0.5252 -0.4010
  437MOL0     C58898   5.643   8.909   6.315 -0.5872  0.3084 -0.1141
  437MOL0     C58899   5.724   8.971   6.204  1.2355 -0.9603 -1.0867
  437MOL0     C58900   5.667   9.105   6.154  0.5580 -0.0669 -0.6154
  437MOL0     C58901   5.529   9.063   6.090 -0.7901 -0.1322  0.1805
  437MOL0     C58902   5.457   9.190   6.027  0.3214 -0.1864  1.0286
  437MOL0     C58903   5.437   9.304   6.131 -0.4615 -0.3072 -0.0744
  437MOL0     C58904   5.503   9.432   6.091  0.7129 -0.3357  0.4539
  437MOL0    Cl58905   5.416   9.529   5.963 -0.1294  0.2214  0.4863
  437MOL0     C58906   5.778   8.457   6.410  1.0856 -0.3144 -0.0013
  437MOL0     C58907   5.830   8.348   6.485 -0.6165 -0.3417 -0.8742
  437MOL0     O58908   6.046   8.156   6.525  0.0043  0.1455 -0.4347
  437MOL0     C58909   6.064   8.098   6.860 -0.5298 -0.5866 -0.2909
  437MOL0     C58910   6.036   8.004   6.962 -0.0912 -1.1831  0.1274
  437MOL0     N58911   6.041   7.318   7.302 -0.0354  0.4606  0.4206
  437MOL0     N58912   6.133   7.281   7.389  0.1251 -0.1636 -0.2589
  437MOL0     C58913   6.441   7.698   8.499 -0.7291 -0.6671  0.5935
  437MOL0     C58914   6.460   7.681   8.639  0.3748 -0.0565 -0.4450
  437MOL0     C58915   6.572   7.793   9.057 -0.5200 -0.4163  1.2683
  437MOL0     C58916   6.691   7.827   9.122  1.4708  0.2508 -0.4711
  437MOL0     C58917   6.689   7.808   9.260 -0.2282  0.2663 -0.1183
  437MOL0     C58918   6.579   7.779   9.339  0.3523  0.3780 -0.8886
  437MOL0     O58919   6.589   7.746   9.466  0.1621 -0.2497  0.0030
  437MOL0     C58920   6.473   7.764   9.554  0.8332 -0.1997  0.0876
  437MOL0     C58921   6.438   7.906   9.552 -1.1333  0.3301 -0.8864
  437MOL0     C58922   6.359   7.959   9.668  0.4850  0.5466  0.2403
  437MOL0     C58923   6.341   8.117   9.661 -0.7021 -0.6151 -0.1898
  437MOL0     C58924   6.235   8.140   9.566  0.4569  0.6276  0.8653
  437MOL0     C58925   6.136   8.144   9.496 -1.1871  0.4336  0.2210
  437MOL0     C58926   6.465   7.744   9.269  0.1051  0.7880 -0.5965
  437MOL0     C58927   6.458   7.755   9.124 -0.0748  0.8096  0.2750
  437MOL0     H58928   6.373   8.005   8.737  1.6945 -1.2646  1.7036
  437MOL0     H58929   6.288   8.005   8.497 -1.1190 -0.5849 -1.1584
  437MOL0     H58930   6.138   7.767   8.330  1.3675 -1.4620 -0.2290
  437MOL0     H58931   6.175   7.943   8.324  0.6286  0.7223 -1.0164
  437MOL0     H58932   6.080   7.900   8.102 -2.1779 -2.8970 -0.9643
  437MOL0     H58933   6.243   7.907   8.076  0.3375  0.3346 -0.0385
  437MOL0     H58934   6.270   7.646   8.110 -0.0542 -0.6226  0.5083
  437MOL0     H58935   6.098   7.651   8.109 -2.2663  2.2516 -1.5119
  437MOL0     H58936   6.134   7.781   7.876  0.8017  0.8533 -0.9851
  437MOL0     H58937   6.304   7.745   7.905 -0.1107  2.5790  4.2994
  437MOL0     H58938   6.221   7.489   7.929  0.3714 -1.8652 -2.3885
  437MOL0     H58939   6.067   7.567   7.860 -0.0046  1.6650 -3.3622
  437MOL0     H58940   6.191   7.627   7.660  2.9929 -0.0948 -0.7118
  437MOL0     H58941   6.341   7.570   7.741 -0.0614 -0.0720 -1.1732
  437MOL0     H58942   6.283   7.348   7.753 -0.6063 -0.1653  1.1216
  437MOL0     H58943   6.129   7.357   7.682  0.6493 -1.0448  2.3798
  437MOL0     H58944   6.322   7.286   7.547  2.6393  1.8062  1.5573
  437MOL0     H58945   6.354   7.458   7.531  0.7673 -1.0581 -1.4810
  437MOL0     H58946   6.108   7.606   7.423 -1.9826  1.2958 -1.2379
  437MOL0     H58947   5.818   7.469   7.258 -0.3970  1.4327 -1.5690
  437MOL0     H58948   5.898   7.623   7.272  0.3402 -0.4387  1.9031
  437MOL0     H58949   5.838   7.588   7.038  1.5618  0.4807 -2.9153
  437MOL0     H58950   5.867   7.419   7.050  2.6646 -0.5150 -1.8960
  437MOL0     H58951   6.039   7.542   6.908  0.8591  3.0550 -0.0064
  437MOL0     H58952   6.115   7.459   7.055 -2.8045 -2.0211  0.0491
  437MOL0     H58953   6.200   7.696   6.993  0.7991 -2.0295 -0.7740
  437MOL0     H58954   6.138   7.683   7.159  3.1329  2.5875 -0.4443
  437MOL0     H58955   5.983   7.727   6.781  1.3855 -0.4995  2.2211
  437MOL0     H58956   5.908   7.793   6.567  1.1834  0.0499  0.8396
  437MOL0     H58957   5.885   7.958   6.527 -0.5393 -1.0155 -1.0414
  437MOL0     H58958   6.048   7.860   6.498  1.1403 -0.8589  2.2872
  437MOL0     H58959   5.928   8.509   6.763 -1.4087  0.3416  0.5782
  437MOL0     H58960   5.870   8.705   6.639  3.6388 -0.3669 -0.5531
  437MOL0     H58961   5.674   8.826   6.511  0.7578  0.5026 -0.3048
  437MOL0     H58962   5.820   8.875   6.425  1.3166 -0.6416 -1.1568
  437MOL0     H58963   5.558   8.851   6.278 -1.2816 -0.3836  2.3611
  437MOL0     H58964   5.599   8.992   6.371 -1.3623  0.1630 -0.4889
  437MOL0     H58965   5.738   8.899   6.123  2.4475 -0.3397 -1.4582
  437MOL0     H58966   5.819   8.999   6.250  0.5089  0.6869 -0.5226
  437MOL0     H58967   5.666   9.158   6.249 -1.5325 -1.6808  0.3385
  437MOL0     H58968   5.729   9.161   6.083  0.7974 -0.1089 -0.4397
  437MOL0     H58969   5.463   9.015   6.162 -0.2213 -2.4822 -0.7623
  437MOL0     H58970   5.548   8.998   6.004 -1.2594  2.1045 -1.7088
  437MOL0     H58971   5.514   9.226   5.940  1.4189  3.2891  3.0057
  437MOL0     H58972   5.359   9.156   5.994  1.2891 -3.7716  1.4234
  437MOL0     H58973   5.476   9.264   6.226 -1.0871 -1.1745 -0.1718
  437MOL0     H58974   5.331   9.319   6.151 -0.9377 -2.8231 -0.3663
  437MOL0     H58975   5.611   9.425   6.073  0.4490  0.0607 -1.4177
  437MOL0     H58976   5.496   9.497   6.179 -1.2288  1.1704 -0.7442
  437MOL0     H58977   5.729   8.443   6.315  0.2610  2.0004  0.0041
  437MOL0     H58978   5.824   8.250   6.439  0.6319 -0.6715 -0.3825
  437MOL0     H58979   6.079   8.203   6.885 -0.9161 -1.0978  2.4281
  437MOL0     H58980   6.040   8.037   7.065  0.4424 -1.2028  0.1184
  437MOL0     H58981   6.467   7.616   8.433  1.7106 -0.1786  0.8254
  437MOL0     H58982   6.496   7.588   8.680 -1.4209 -0.8448 -0.5493
  437MOL0     H58983   6.785   7.854   9.075  1.4958  1.7142  0.3797
  437MOL0     H58984   6.781   7.817   9.316  0.0317 -1.5084 -0.2101
  437MOL0     H58985   6.386   7.706   9.520 -1.5435  1.1954  3.2803
  437MOL0     H58986   6.498   7.742   9.658 -2.9413  5.0163  2.5328
  437MOL0     H58987   6.384   7.934   9.461  0.5026  0.3064 -1.8845
  437MOL0     H58988   6.528   7.965   9.534  0.0472 -1.3964 -0.8543
  437MOL0     H58989   6.402   7.929   9.764 -0.2070 -0.0464  0.3744
  437MOL0     H58990   6.263   7.908   9.678  0.1694  0.8132 -1.2821
  437MOL0     H58991   6.434   8.163   9.628 -0.6323 -0.2953  0.4535
  437MOL0     H58992   6.310   8.145   9.762  1.2412  0.4907  0.1407
  437MOL0     H58993   6.046   8.148   9.438 -0.5026  2.6365 -0.7842
  437MOL0     H58994   6.374   7.706   9.315 -1.9575  1.5112 -3.7288
  437MOL0     H58995   6.364   7.730   9.077  1.1176  1.0164 -2.4224
  438MOL0     O58996  10.146  10.650   3.786  0.2950  0.7878  0.4491
  438MOL0     C58997  10.201  10.716   3.698 -0.1918  0.2909  0.3176
  438MOL0     O58998  10.173  10.715   3.563 -0.6615 -1.3678  0.1572
  438MOL0     C58999  10.058  10.649   3.520 -0.1900  0.2508  0.0131
  438MOL0     C59000  10.039  10.516   3.529 -0.3579  0.4096 -0.4398
  438MOL0     C59001   9.914  10.457   3.511  0.3747  0.1149  0.1559
  438MOL0     C59002   9.801  10.541   3.499 -0.0079  0.5240 -0.3744
  438MOL0     O59003   9.681  10.470   3.502  0.3437  0.1312 -0.2839
  438MOL0     C59004   9.560  10.547   3.536  0.0545 -0.3612  0.5105
  438MOL0     C59005   9.542  10.584   3.682  0.3670 -0.4111 -0.7855
  438MOL0     C59006   9.603  10.480   3.779  0.4984  0.5277  0.8975
  438MOL0     C59007   9.595  10.524   3.915  0.3485 -0.5647 -0.6628
  438MOL0     C59008   9.623  10.408   4.007  0.3166  0.6440 -0.1392
  438MOL0     C59009   9.661  10.468   4.137 -0.9681  1.1251 -0.2780
  438MOL0     C59010   9.654  10.367   4.257  0.6972  0.9987 -0.5659
  438MOL0     C59011   9.751  10.245   4.258  0.8599 -0.9001 -0.2325
  438MOL0     N59012   9.737  10.153   4.141 -0.1670 -0.7686  0.3426
  438MOL0     C59013   9.815  10.140   4.028  1.0118 -0.0782 -0.0362
  438MOL0     C59014   9.752  10.048   3.953  0.1123  0.4446  0.2411
  438MOL0     C59015   9.806   9.999   3.821 -0.6800 -0.9224 -1.2027
  438MOL0     C59016   9.697   9.965   3.710 -0.3358 -0.5961  0.6604
  438MOL0     C59017   9.597  10.082   3.705  0.2783  0.4422 -0.7271
  438MOL0     C59018   9.497  10.082   3.600 -0.2140 -0.2774 -0.3812
  438MOL0     O59019   9.458   9.953   3.559 -1.1401 -0.0884 -0.3586
  438MOL0     C59020   9.365   9.893   3.640  1.0700 -0.0842  0.9549
  438MOL0     C59021   9.401   9.789   3.716  0.1096 -0.4365 -0.5215
  438MOL0     C59022   9.323   9.722   3.807 -0.0525  0.0722 -0.4240
  438MOL0     C59023   9.397   9.633   3.904  0.3766  1.4942  0.4564
  438MOL0     C59024   9.187   9.765   3.820  0.3661 -0.1409 -0.4770
  438MOL0     C59025   9.092   9.720   3.932  0.6464  0.0516  0.1722
  438MOL0     O59026   8.961   9.764   3.917  0.2150  0.6369 -0.6532
  438MOL0     C59027   8.866   9.739   4.011 -0.1953  0.1084  0.5623
  438MOL0     C59028   8.734   9.728   3.964  0.4626 -0.0994 -0.1500
  438MOL0     C59029   8.627   9.711   4.048  0.0411  0.2001 -0.4301
  438MOL0     C59030   8.653   9.710   4.189  0.6930  0.5551  0.6138
  438MOL0     O59031   8.546   9.686   4.267 -0.3414 -0.5106 -0.0971
  438MOL0     C59032   8.537   9.557   4.318 -0.1593  0.7088 -0.1013
  438MOL0     C59033   8.428   9.541   4.437 -0.5131  1.7445 -0.1214
  438MOL0     C59034   8.461   9.411   4.512  0.5818 -0.2872 -0.0197
  438MOL0     C59035   8.338   9.359   4.599  1.4033 -0.4631  0.6575
  438MOL0     C59036   8.366   9.236   4.684  1.1984 -0.6044 -0.2320
  438MOL0     C59037   8.245   9.180   4.764 -0.2125  0.3275  0.0688
  438MOL0     C59038   8.154   9.107   4.663  1.3688  0.3899 -0.7898
  438MOL0     C59039   8.036   9.043   4.721 -0.1777 -0.5121  0.4608
  438MOL0    Cl59040   7.928   9.139   4.813  0.0940 -0.7434  0.0640
  438MOL0     C59041   8.775   9.751   4.243 -0.8135  0.7109  0.4284
  438MOL0     C59042   8.882   9.766   4.145  1.3743  0.9009 -0.8108
  438MOL0     O59043   9.138   9.645   4.024  0.0420  0.3288 -0.5575
  438MOL0     C59044   9.144   9.866   3.729 -0.1098 -0.1337 -0.6397
  438MOL0     C59045   9.229   9.928   3.638 -0.1921 -1.0505 -0.8957
  438MOL0     N59046   9.640  10.002   4.022 -0.3741  0.3433 -0.0086
  438MOL0     N59047   9.642  10.063   4.135  0.9099  0.0440  0.1493
  438MOL0     C59048   9.818  10.678   3.486  0.0170  0.6252  0.4757
  438MOL0     C59049   9.948  10.731   3.503 -0.5828 -0.2268  0.2623
  438MOL0     C59050  10.330  10.771   3.749 -0.3900  0.2427 -0.4983
  438MOL0     C59051  10.383  10.748   3.881 -0.4169 -1.3691 -0.9055
  438MOL0     C59052  10.499  10.827   3.923  1.1954 -0.3983  0.1452
  438MOL0     C59053  10.554  10.929   3.836 -0.3877  0.4197 -0.1982
  438MOL0     O59054  10.647  11.016   3.881 -0.0134 -0.5292  0.3375
  438MOL0     C59055  10.705  10.993   4.016  0.3722 -0.2238  0.0897
  438MOL0     C59056  10.822  11.085   4.049  0.3981 -0.4528 -0.1040
  438MOL0     C59057  10.780  11.235   4.055  0.5480 -0.6329 -0.3568
  438MOL0     C59058  10.902  11.329   4.079 -0.8660  0.1667 -0.0683
  438MOL0     C59059  10.958  11.303   4.213 -0.0585 -0.4736 -1.0472
  438MOL0     C59060  11.021  11.303   4.316  0.7265  0.2141 -0.2558
  438MOL0     C59061  10.498  10.940   3.702 -0.0427 -0.5550 -0.4192
  438MOL0     C59062  10.385  10.866   3.667 -1.0047  0.4753 -0.1061
  438MOL0     H59063  10.122  10.447   3.540 -1.7218 -1.0647  1.3459
  438MOL0     H59064   9.906  10.350   3.497  0.4403  0.0460  0.6114
  438MOL0     H59065   9.557  10.635   3.470 -1.1054  0.9840  2.2642
  438MOL0     H59066   9.474  10.487   3.505 -0.8273  1.9680 -1.9528
  438MOL0     H59067   9.591  10.680   3.701  0.6459 -0.7873  0.5190
  438MOL0     H59068   9.434  10.587   3.696  0.3943 -0.5489 -0.5425
  438MOL0     H59069   9.530  10.400   3.766 -0.9716  2.0611 -0.8991
  438MOL0     H59070   9.702  10.439   3.756  0.3982 -0.6302  2.4190
  438MOL0     H59071   9.672  10.602   3.918  0.2804 -0.5035 -0.5145
  438MOL0     H59072   9.493  10.561   3.930  0.0871 -0.9138 -1.4790
  438MOL0     H59073   9.537  10.340   4.015  0.9950 -0.1987  0.1252
  438MOL0     H59074   9.709  10.362   3.958 -0.3635  2.6504 -3.5644
  438MOL0     H59075   9.769  10.486   4.138 -0.7914  0.2065  2.0534
  438MOL0     H59076   9.609  10.562   4.155 -2.9264  1.6094 -6.1748
  438MOL0     H59077   9.644  10.415   4.355 -0.2751  0.5764 -0.4539
  438MOL0     H59078   9.554  10.325   4.253  1.9905 -2.7566  1.3562
  438MOL0     H59079   9.738  10.187   4.349 -1.1060 -0.4080 -0.1601
  438MOL0     H59080   9.846  10.298   4.267  1.5094 -2.1328  0.3750
  438MOL0     H59081   9.902  10.201   4.003 -0.7594  1.8595 -1.9073
  438MOL0     H59082   9.879  10.077   3.794 -0.2352 -1.2680 -1.0037
  438MOL0     H59083   9.859   9.905   3.836 -1.7771 -1.4637 -0.5897
  438MOL0     H59084   9.646   9.872   3.737 -0.2620 -0.7662  0.2237
  438MOL0     H59085   9.742   9.959   3.611 -1.1483 -0.9091  0.3002
  438MOL0     H59086   9.638  10.184   3.706 -0.7429  0.8662 -0.2915
  438MOL0     H59087   9.534  10.073   3.793 -0.8011  0.1946 -1.5050
  438MOL0     H59088   9.537  10.134   3.513 -3.3926  0.3169 -1.6360
  438MOL0     H59089   9.408  10.142   3.622 -0.1488  0.1211 -1.1624
  438MOL0     H59090   9.504   9.754   3.709  1.1181  2.0140  0.7578
  438MOL0     H59091   9.358   9.531   3.898  0.5044  1.1992  3.2306
  438MOL0     H59092   9.506   9.622   3.899  0.1090 -3.2441  0.1284
  438MOL0     H59093   9.369   9.679   3.999  1.2766 -0.5006  1.7683
  438MOL0     H59094   8.722   9.721   3.857  0.4186 -0.1110 -0.1444
  438MOL0     H59095   8.529   9.679   4.015 -0.6282  0.0652  1.5237
  438MOL0     H59096   8.525   9.481   4.241  0.6029 -1.3674  1.7186
  438MOL0     H59097   8.639   9.533   4.349  0.2340  0.0006 -1.8266
  438MOL0     H59098   8.424   9.629   4.501 -0.6582  1.1521  0.6993
  438MOL0     H59099   8.334   9.525   4.383  0.7609 -4.0503 -1.3476
  438MOL0     H59100   8.553   9.431   4.568 -0.4550  1.4354  1.1394
  438MOL0     H59101   8.483   9.328   4.443 -1.0056 -0.8196  0.0662
  438MOL0     H59102   8.300   9.437   4.667 -2.4420 -1.5415  0.0008
  438MOL0     H59103   8.260   9.328   4.530  2.3489  2.0369 -1.7210
  438MOL0     H59104   8.436   9.250   4.767 -1.6010 -2.6349  2.7067
  438MOL0     H59105   8.401   9.161   4.614  2.3718 -2.5238  2.2676
  438MOL0     H59106   8.280   9.099   4.829 -3.2320 -2.1669 -1.1773
  438MOL0     H59107   8.178   9.252   4.811 -1.0527  1.5246 -2.7180
  438MOL0     H59108   8.221   9.031   4.622  5.7709  3.0512  0.7548
  438MOL0     H59109   8.118   9.168   4.580 -4.8161  1.2687  2.0146
  438MOL0     H59110   8.075   8.957   4.776  0.7008  0.7043  1.8133
  438MOL0     H59111   7.984   8.984   4.645  0.7145 -0.9495  0.1752
  438MOL0     H59112   8.807   9.781   4.342  1.9741  2.2808 -0.8057
  438MOL0     H59113   8.984   9.790   4.173  2.6479 -1.4952 -3.0628
  438MOL0     H59114   9.039   9.896   3.735 -0.6236 -2.0494  1.9768
  438MOL0     H59115   9.199  10.003   3.567  2.0609 -0.9741 -1.8705
  438MOL0     H59116   9.736  10.748   3.491 -1.7649 -1.4319  1.8558
  438MOL0     H59117   9.959  10.838   3.508 -1.3172 -0.1693  0.7235
  438MOL0     H59118  10.351  10.683   3.962  1.6272  1.8846  2.8391
  438MOL0     H59119  10.520  10.820   4.029 -0.0518 -2.6827  0.3209
  438MOL0     H59120  10.623  11.008   4.087  0.6320  2.6751 -0.1072
  438MOL0     H59121  10.739  10.889   4.018  2.6818  0.3419 -2.7648
  438MOL0     H59122  10.889  11.075   3.963 -1.0155  2.2379 -1.6556
  438MOL0     H59123  10.864  11.048   4.143 -0.3259 -1.1511 -0.0353
  438MOL0     H59124  10.706  11.250   4.133  2.1621  1.7122  0.8520
  438MOL0     H59125  10.742  11.253   3.954  1.3265 -2.9835 -1.1400
  438MOL0     H59126  10.859  11.429   4.075 -0.7362  0.4794  3.3518
  438MOL0     H59127  10.978  11.333   4.001 -3.0291  3.4228 -2.2445
  438MOL0     H59128  11.078  11.309   4.406  0.9259  1.6482 -0.4406
  438MOL0     H59129  10.549  11.019   3.648  3.0796  0.1200  3.1170
  438MOL0     H59130  10.346  10.891   3.568  4.0778 -0.3939 -2.6567
  439MOL0     O59131   9.372   6.717   0.320 -0.4825  0.2841 -0.5791
  439MOL0     C59132   9.404   6.609   0.271  0.7956  0.1615  0.1631
  439MOL0     O59133   9.427   6.497   0.337  0.2166 -0.1392 -1.4499
  439MOL0     C59134   9.377   6.493   0.465  0.1551 -0.0572  0.3325
  439MOL0     C59135   9.290   6.381   0.495 -1.0760 -0.5539  0.6248
  439MOL0     C59136   9.254   6.360   0.624 -0.0062 -0.2788  0.8671
  439MOL0     C59137   9.305   6.438   0.728 -0.5686 -0.4019 -0.5630
  439MOL0     O59138   9.284   6.409   0.862 -0.1979 -0.4468  0.1159
  439MOL0     C59139   9.298   6.266   0.883 -0.1216 -0.4650 -0.5925
  439MOL0     C59140   9.319   6.247   1.026  0.9938 -0.2048 -0.1734
  439MOL0     C59141   9.457   6.283   1.074  0.3395  0.1058  0.5661
  439MOL0     C59142   9.450   6.312   1.224 -0.4687  0.9867 -0.0881
  439MOL0     C59143   9.592   6.335   1.281  1.6896 -0.1685  0.6802
  439MOL0     C59144   9.583   6.314   1.432 -0.6174 -0.1519 -0.7013
  439MOL0     C59145   9.565   6.156   1.463 -0.4089 -1.1133 -0.5259
  439MOL0     C59146   9.523   6.119   1.613 -0.0302 -0.4106  0.1254
  439MOL0     N59147   9.597   6.154   1.733  0.6715  0.5818 -0.5886
  439MOL0     C59148   9.629   6.083   1.842  0.7222  0.2446  0.6147
  439MOL0     C59149   9.711   6.156   1.920  0.2484 -0.0407 -0.2967
  439MOL0     C59150   9.761   6.115   2.058 -0.5481  0.0525 -0.3442
  439MOL0     C59151   9.904   6.050   2.035  0.1721 -0.1274  0.3600
  439MOL0     C59152   9.957   5.955   2.138  0.1344 -0.8294 -0.7917
  439MOL0     C59153   9.865   5.880   2.231 -0.7550 -0.6896  1.8233
  439MOL0     O59154   9.757   5.821   2.148 -0.7981 -0.1714 -0.4149
  439MOL0     C59155   9.685   5.717   2.205 -0.3367 -0.9644 -0.3194
  439MOL0     C59156   9.675   5.705   2.346 -0.3482 -0.8070 -0.8475
  439MOL0     C59157   9.604   5.596   2.400 -0.1386 -0.1479 -0.0710
  439MOL0     C59158   9.593   5.584   2.551  0.8756  0.4288  0.5637
  439MOL0     C59159   9.546   5.493   2.322 -0.6428 -0.2422 -0.5903
  439MOL0     C59160   9.464   5.379   2.383 -0.0817 -0.8211  0.8811
  439MOL0     O59161   9.525   5.296   2.471 -1.1300  0.2698  0.2462
  439MOL0     C59162   9.449   5.225   2.554 -0.5452  1.0575 -0.9901
  439MOL0     C59163   9.387   5.287   2.664  0.3385  0.4665 -0.5132
  439MOL0     C59164   9.311   5.218   2.753 -0.7018 -0.3069 -0.3469
  439MOL0     C59165   9.293   5.079   2.728 -0.0116 -0.3555 -0.0625
  439MOL0     O59166   9.201   5.024   2.808  0.7011  0.0829 -0.4511
  439MOL0     C59167   9.121   4.909   2.776  0.1276 -0.1836 -0.3561
  439MOL0     C59168   9.009   4.871   2.884  0.5156 -0.3493 -0.5363
  439MOL0     C59169   9.065   4.862   3.019 -0.6614  0.0803  0.1223
  439MOL0     C59170   8.944   4.868   3.112 -0.1737 -0.0369  0.5739
  439MOL0     C59171   9.005   4.851   3.252  0.9443  0.4341 -0.7323
  439MOL0     C59172   8.907   4.887   3.359  0.3020 -0.0128 -0.6828
  439MOL0     C59173   8.992   4.881   3.488  0.9922 -1.1251 -0.3238
  439MOL0     C59174   8.895   4.865   3.613 -0.2294 -0.7391  0.8343
  439MOL0    Cl59175   8.831   4.695   3.617  0.6960 -0.4389 -0.1720
  439MOL0     C59176   9.355   5.015   2.629  0.4687 -0.3581  0.4566
  439MOL0     C59177   9.435   5.088   2.538  1.0983  0.1564  0.3449
  439MOL0     O59178   9.350   5.366   2.332 -0.1771  0.0349  0.1972
  439MOL0     C59179   9.566   5.505   2.188  0.3321 -0.1028 -0.8307
  439MOL0     C59180   9.634   5.612   2.133  0.4591 -0.7528  0.2210
  439MOL0     N59181   9.739   6.272   1.853 -0.3406 -0.3522  0.4457
  439MOL0     N59182   9.661   6.269   1.749  0.2903  0.0576 -0.4272
  439MOL0     C59183   9.379   6.551   0.698  0.2971 -0.7210  0.0342
  439MOL0     C59184   9.422   6.575   0.567 -0.7381  0.1372  1.0943
  439MOL0     C59185   9.397   6.608   0.119  0.3082  0.3174  0.9248
  439MOL0     C59186   9.375   6.727   0.044  0.5933  0.2360 -1.1588
  439MOL0     C59187   9.382   6.727  -0.101  0.6897  0.4651 -2.0121
  439MOL0     C59188   9.387   6.607  -0.172 -1.1186 -0.3355 -0.8119
  439MOL0     O59189   9.385   6.606  -0.308 -0.7585  0.0377 -0.7476
  439MOL0     C59190   9.410   6.482  -0.385  0.2915 -1.0992 -0.3187
  439MOL0     C59191   9.398   6.524  -0.529  0.5698 -1.0572 -0.2047
  439MOL0     C59192   9.257   6.575  -0.575 -0.5801 -0.2229  0.7017
  439MOL0     C59193   9.243   6.564  -0.722 -0.2411 -0.4609 -0.3947
  439MOL0     C59194   9.345   6.649  -0.787  0.2545  1.5755  0.3377
  439MOL0     C59195   9.419   6.734  -0.831 -0.4032  0.5380 -0.6571
  439MOL0     C59196   9.400   6.485  -0.091  0.0992  0.0836  0.7879
  439MOL0     C59197   9.418   6.491   0.047 -0.0759  0.1657 -0.3697
  439MOL0     H59198   9.248   6.326   0.411  0.7911  1.0666 -1.4973
  439MOL0     H59199   9.197   6.269   0.637  1.6603 -1.4978  0.0112
  439MOL0     H59200   9.198   6.225   0.864 -0.5372 -2.3721  4.2556
  439MOL0     H59201   9.381   6.216   0.832  1.1881  0.9766  0.0250
  439MOL0     H59202   9.230   6.294   1.069 -2.2044 -2.7836 -3.2864
  439MOL0     H59203   9.319   6.139   1.044  1.6282 -0.4648 -1.6046
  439MOL0     H59204   9.523   6.196   1.065  0.1825 -0.1236  1.4884
  439MOL0     H59205   9.501   6.365   1.018  0.7556 -1.0837 -0.9319
  439MOL0     H59206   9.377   6.393   1.235 -2.4831 -1.0010  2.9405
  439MOL0     H59207   9.400   6.229   1.275  3.2774 -1.6762 -0.3135
  439MOL0     H59208   9.666   6.257   1.259  1.4273 -0.0557 -0.6873
  439MOL0     H59209   9.626   6.437   1.261  1.5151 -0.4974 -1.4558
  439MOL0     H59210   9.677   6.347   1.478 -1.2978 -1.9065  2.2427
  439MOL0     H59211   9.516   6.376   1.492  0.1072 -1.6645  1.8326
  439MOL0     H59212   9.486   6.113   1.401 -3.7384  1.3830  1.6019
  439MOL0     H59213   9.662   6.114   1.437  0.1803 -0.1960  0.1253
  439MOL0     H59214   9.524   6.009   1.606  1.9480 -0.4018 -0.6082
  439MOL0     H59215   9.430   6.167   1.643 -0.1761  1.2465 -2.7111
  439MOL0     H59216   9.591   5.985   1.869 -1.9498  1.5074  1.8277
  439MOL0     H59217   9.774   6.201   2.125 -1.9269  0.9178 -1.1554
  439MOL0     H59218   9.691   6.043   2.101 -1.3685  2.2607  2.3815
  439MOL0     H59219   9.977   6.128   2.011 -0.5255  0.2158 -0.7444
  439MOL0     H59220   9.900   6.001   1.938  0.8346  2.2897 -0.9820
  439MOL0     H59221  10.020   6.015   2.205  2.4183 -3.3311 -0.5508
  439MOL0     H59222  10.030   5.892   2.087  1.2663 -0.8939  0.8106
  439MOL0     H59223   9.822   5.947   2.306 -5.4343 -0.7601 -0.4535
  439MOL0     H59224   9.930   5.809   2.283 -0.7022 -1.3048  0.9460
  439MOL0     H59225   9.710   5.785   2.410 -0.0672  0.2972 -2.3369
  439MOL0     H59226   9.688   5.538   2.580  2.1336  0.4134 -3.0158
  439MOL0     H59227   9.593   5.689   2.583 -2.1020  1.6740 -2.8108
  439MOL0     H59228   9.505   5.531   2.588 -1.5796  2.2853 -2.1322
  439MOL0     H59229   9.382   5.395   2.662 -0.0264  0.4346 -1.4608
  439MOL0     H59230   9.250   5.262   2.832  1.5147 -0.5490  1.6018
  439MOL0     H59231   9.067   4.929   2.683 -0.3243  1.2022  0.1878
  439MOL0     H59232   9.189   4.824   2.766  3.4140  1.7547  3.1132
  439MOL0     H59233   8.942   4.957   2.891  1.0788 -0.0427  1.9833
  439MOL0     H59234   8.954   4.779   2.867  4.0536 -3.2338  1.9016
  439MOL0     H59235   9.126   4.951   3.038  3.5844 -2.2776 -1.0039
  439MOL0     H59236   9.125   4.770   3.027  1.6917  1.2358 -2.4415
  439MOL0     H59237   8.875   4.952   3.104 -2.3796 -1.7562  0.7574
  439MOL0     H59238   8.872   4.788   3.097  0.0077  0.1176 -1.3242
  439MOL0     H59239   9.089   4.918   3.270 -1.0009  2.3880  1.8447
  439MOL0     H59240   9.032   4.745   3.253 -0.7393 -0.0285  0.2026
  439MOL0     H59241   8.858   4.984   3.345 -1.4630 -0.4123  2.0177
  439MOL0     H59242   8.831   4.808   3.356  0.3799 -0.2808  2.1771
  439MOL0     H59243   9.045   4.977   3.496  0.2671 -0.7806  0.5544
  439MOL0     H59244   9.062   4.798   3.481  3.6489  0.9754 -0.5062
  439MOL0     H59245   8.811   4.934   3.625 -1.0019 -1.3326 -0.9442
  439MOL0     H59246   8.958   4.884   3.701 -0.2138 -0.2869  0.7307
  439MOL0     H59247   9.351   4.909   2.605  0.6488  0.2960 -3.1218
  439MOL0     H59248   9.474   5.055   2.443  2.2991  1.2208  0.4290
  439MOL0     H59249   9.534   5.424   2.124  3.9240 -1.4224 -1.2338
  439MOL0     H59250   9.633   5.623   2.025  0.3058  0.4303  0.3352
  439MOL0     H59251   9.414   6.609   0.783  1.6878 -2.0840  0.4426
  439MOL0     H59252   9.482   6.661   0.540 -0.5376 -0.1745  0.5239
  439MOL0     H59253   9.374   6.822   0.097 -1.1888  0.0785 -0.8425
  439MOL0     H59254   9.374   6.822  -0.154  1.8795 -0.4120 -3.8838
  439MOL0     H59255   9.511   6.442  -0.368 -0.0002 -1.0591  1.6750
  439MOL0     H59256   9.333   6.407  -0.366 -1.1880  0.2373 -0.9048
  439MOL0     H59257   9.423   6.443  -0.598  1.9428 -0.1986 -0.7620
  439MOL0     H59258   9.468   6.602  -0.561 -1.7331  0.4685 -1.8407
  439MOL0     H59259   9.252   6.678  -0.537 -0.4341 -0.0584  0.2855
  439MOL0     H59260   9.191   6.507  -0.522  2.7293 -1.9597  2.9497
  439MOL0     H59261   9.138   6.583  -0.745  0.4605 -0.2915 -3.8693
  439MOL0     H59262   9.261   6.460  -0.752  2.1745  0.2172 -1.5068
  439MOL0     H59263   9.490   6.810  -0.858 -0.8902  2.8392  3.6175
  439MOL0     H59264   9.405   6.392  -0.146  0.1994  0.4708  0.1308
  439MOL0     H59265   9.439   6.401   0.105  1.2057 -1.5204 -3.2473
  440MOL0     O59266   3.205   1.749   6.267  0.6500  0.0755  0.5121
  440MOL0     C59267   3.244   1.769   6.152  0.4976  0.8808  0.4437
  440MOL0     O59268   3.218   1.880   6.081 -0.5911  0.2811 -0.6004
  440MOL0     C59269   3.140   1.986   6.120 -0.3085 -0.1932 -0.4325
  440MOL0     C59270   3.032   2.021   6.048  0.1885 -0.1244 -0.0787
  440MOL0     C59271   2.962   2.135   6.074  0.6854  0.1842  0.6988
  440MOL0     C59272   2.996   2.218   6.172  0.6800  1.2153 -0.1325
  440MOL0     O59273   2.934   2.331   6.224 -0.2375  0.7274  0.0429
  440MOL0     C59274   2.830   2.295   6.308 -0.2996  0.3564 -0.1788
  440MOL0     C59275   2.733   2.413   6.332  0.5169  0.1508 -0.2953
  440MOL0     C59276   2.651   2.472   6.204  0.5030 -0.0461 -0.1403
  440MOL0     C59277   2.577   2.364   6.129  0.2941 -0.7566  0.9420
  440MOL0     C59278   2.484   2.284   6.221 -0.7125  0.0310  1.2477
  440MOL0     C59279   2.402   2.193   6.126 -0.3952 -0.2978 -1.0842
  440MOL0     C59280   2.287   2.260   6.060  0.0285 -0.4942 -0.0386
  440MOL0     C59281   2.281   2.222   5.917  0.0886  0.2692 -0.1348
  440MOL0     N59282   2.179   2.304   5.844 -1.2924  0.1174 -0.6739
  440MOL0     C59283   2.043   2.302   5.864  0.6305  0.5271  0.8590
  440MOL0     C59284   1.993   2.348   5.745 -0.1554  0.0074  1.1402
  440MOL0     C59285   1.858   2.383   5.696  0.0138 -0.0669  0.1295
  440MOL0     C59286   1.848   2.526   5.674 -0.3939 -0.7667  0.5882
  440MOL0     C59287   1.706   2.571   5.637  0.6885  0.0091  0.7073
  440MOL0     C59288   1.692   2.715   5.588 -0.4937 -0.1169  1.0150
  440MOL0     O59289   1.745   2.714   5.459 -0.9224 -0.3639 -0.1211
  440MOL0     C59290   1.663   2.721   5.353 -0.2987  0.7121  0.6838
  440MOL0     C59291   1.710   2.801   5.248  0.4075 -0.0136  0.2687
  440MOL0     C59292   1.621   2.837   5.148  0.2865  0.0895  0.0525
  440MOL0     C59293   1.667   2.956   5.061  0.2848  0.2478  0.4570
  440MOL0     C59294   1.497   2.776   5.134  0.3322  0.4465 -0.4583
  440MOL0     C59295   1.391   2.819   5.036 -0.4005 -0.7029  0.1831
  440MOL0     O59296   1.257   2.800   5.056 -0.1978 -0.2400  0.2898
  440MOL0     C59297   1.169   2.826   4.951  0.1133  0.3396 -0.2471
  440MOL0     C59298   1.064   2.911   4.971  1.0301 -0.8511 -0.1479
  440MOL0     C59299   0.965   2.931   4.867  1.1332  0.5828  0.0116
  440MOL0     C59300   0.974   2.880   4.743  0.3954 -0.1666  0.2411
  440MOL0     O59301   0.884   2.896   4.639  0.1493 -0.1612  0.5808
  440MOL0     C59302   0.755   2.960   4.651  0.6610 -0.5176  0.2020
  440MOL0     C59303   0.658   2.919   4.549  0.3065 -0.4514 -0.6350
  440MOL0     C59304   0.518   2.974   4.591  0.5536 -0.1980 -0.4461
  440MOL0     C59305   0.414   2.900   4.493 -0.6711 -0.2355 -0.1295
  440MOL0     C59306   0.314   3.007   4.437 -0.5019  0.0179  0.3682
  440MOL0     C59307   0.172   2.949   4.396 -0.8333  0.2997  0.0834
  440MOL0     C59308   0.162   2.811   4.318 -0.2009 -0.2467 -0.7642
  440MOL0     C59309   0.023   2.748   4.346 -0.2863 -0.0789  0.2287
  440MOL0    Cl59310   0.026   2.590   4.258  0.2951 -0.0109 -0.0180
  440MOL0     C59311   1.089   2.798   4.719 -1.0209 -0.4344 -0.1817
  440MOL0     C59312   1.184   2.772   4.822 -0.4310 -0.2741  0.7312
  440MOL0     O59313   1.428   2.876   4.934 -0.5153  0.4951 -0.0061
  440MOL0     C59314   1.460   2.676   5.231 -0.9154  0.7777 -0.3082
  440MOL0     C59315   1.544   2.649   5.340 -0.8835  0.0227  0.3222
  440MOL0     N59316   2.102   2.398   5.675  0.0481  0.3821 -0.8613
  440MOL0     N59317   2.207   2.367   5.729 -0.1997  0.0313 -0.2644
  440MOL0     C59318   3.104   2.178   6.251 -0.2840 -0.0577 -0.0275
  440MOL0     C59319   3.172   2.071   6.223  0.8998  1.0421  0.5594
  440MOL0     C59320   3.323   1.660   6.095  0.7159  0.1501 -0.6885
  440MOL0     C59321   3.310   1.638   5.959  1.1288  0.5082  0.2901
  440MOL0     C59322   3.367   1.529   5.896  0.7034  0.2279  0.5996
  440MOL0     C59323   3.428   1.426   5.974  0.3769 -0.0421  1.7959
  440MOL0     O59324   3.463   1.304   5.942  0.2111 -1.3453 -0.7575
  440MOL0     C59325   3.461   1.282   5.797  0.3974  0.5810 -0.5979
  440MOL0     C59326   3.489   1.135   5.770  0.1406  0.3872 -0.2733
  440MOL0     C59327   3.408   1.046   5.868  0.0045  0.2833  0.0284
  440MOL0     C59328   3.260   1.044   5.832 -0.2881 -0.2276  0.3480
  440MOL0     C59329   3.184   0.957   5.928 -0.0750  0.6460  0.2306
  440MOL0     C59330   3.143   0.899   6.026  0.4708  0.0106 -1.3587
  440MOL0     C59331   3.448   1.452   6.113 -0.0755 -0.1311 -0.2559
  440MOL0     C59332   3.397   1.568   6.168  0.0662  0.0547 -0.1003
  440MOL0     H59333   3.008   1.955   5.965  2.0360 -3.4967  1.8602
  440MOL0     H59334   2.888   2.167   6.002  0.2642 -1.6844  0.2434
  440MOL0     H59335   2.781   2.201   6.281 -1.4622  1.1149 -0.7704
  440MOL0     H59336   2.874   2.277   6.407  0.4694  1.0954 -0.3794
  440MOL0     H59337   2.659   2.380   6.406  0.7642  0.9639  0.3363
  440MOL0     H59338   2.791   2.498   6.369  0.6881  0.4594 -1.2706
  440MOL0     H59339   2.573   2.546   6.226 -0.2887 -0.7889 -0.4062
  440MOL0     H59340   2.730   2.510   6.139  0.6783 -2.1593 -1.2489
  440MOL0     H59341   2.525   2.401   6.040  0.6582 -2.5182 -0.0589
  440MOL0     H59342   2.656   2.297   6.094  0.0081 -1.8400  2.2331
  440MOL0     H59343   2.547   2.220   6.284  0.6895 -3.3601 -3.0782
  440MOL0     H59344   2.411   2.343   6.278 -4.0986  1.8183 -4.1966
  440MOL0     H59345   2.473   2.142   6.060 -0.9326 -2.5299 -0.0508
  440MOL0     H59346   2.363   2.110   6.186 -1.2256  0.0877 -1.0902
  440MOL0     H59347   2.189   2.247   6.107  0.3610 -1.6840  0.3631
  440MOL0     H59348   2.302   2.368   6.067 -0.4244 -0.2695 -1.9244
  440MOL0     H59349   2.268   2.114   5.913 -0.8998  0.3731 -0.0207
  440MOL0     H59350   2.375   2.251   5.869 -0.1153 -0.0901 -0.7498
  440MOL0     H59351   1.991   2.265   5.953 -3.7776 -0.9142 -1.9636
  440MOL0     H59352   1.836   2.329   5.604 -3.6889 -1.5238  1.6989
  440MOL0     H59353   1.786   2.343   5.768 -0.9728  4.3713  1.9596
  440MOL0     H59354   1.920   2.553   5.597 -0.1706 -1.7962  0.4166
  440MOL0     H59355   1.873   2.576   5.768  0.6957 -2.7395  1.4151
  440MOL0     H59356   1.653   2.547   5.730  0.1875 -0.8194  0.2217
  440MOL0     H59357   1.655   2.502   5.569 -0.8727  1.3647  0.4306
  440MOL0     H59358   1.748   2.782   5.654 -1.2960 -0.6465  2.2720
  440MOL0     H59359   1.586   2.739   5.576 -0.9139 -1.2103  2.2652
  440MOL0     H59360   1.810   2.842   5.241  1.6629 -2.9186 -0.7406
  440MOL0     H59361   1.753   2.994   5.117 -0.5681 -1.6607  3.2821
  440MOL0     H59362   1.691   2.925   4.959  0.1614  1.5811 -0.0018
  440MOL0     H59363   1.599   3.041   5.049 -1.2197 -1.0274 -0.3146
  440MOL0     H59364   1.052   2.963   5.066  3.4874  0.9789 -0.7357
  440MOL0     H59365   0.880   2.996   4.885  0.5646 -0.3601  0.7530
  440MOL0     H59366   0.722   2.934   4.752  1.5361  2.3417  1.3307
  440MOL0     H59367   0.758   3.069   4.644  0.3242 -0.3835  1.8534
  440MOL0     H59368   0.690   2.945   4.448 -1.1803 -1.2606 -1.3584
  440MOL0     H59369   0.655   2.810   4.555 -1.4832 -0.4287 -0.3152
  440MOL0     H59370   0.502   3.080   4.571 -4.1542 -0.6250 -0.1327
  440MOL0     H59371   0.486   2.951   4.693 -2.3782  2.4389 -0.6410
  440MOL0     H59372   0.474   2.850   4.417  0.9508  2.4279 -0.7628
  440MOL0     H59373   0.352   2.829   4.547 -0.2271 -0.6566 -0.1714
  440MOL0     H59374   0.364   3.058   4.355  0.9809  1.1976  1.9392
  440MOL0     H59375   0.299   3.083   4.514  3.0459 -0.0668  1.3231
  440MOL0     H59376   0.113   2.934   4.487  0.4429  0.0461  0.8982
  440MOL0     H59377   0.120   3.029   4.342 -1.3923 -0.9035 -1.2127
  440MOL0     H59378   0.235   2.740   4.359  0.4536  0.2263 -1.1048
  440MOL0     H59379   0.190   2.824   4.213 -0.1491 -1.9737 -0.9878
  440MOL0     H59380  -0.059   2.809   4.306  0.5435 -0.1523 -1.6988
  440MOL0     H59381   0.005   2.750   4.454 -0.8916  2.5114  0.1507
  440MOL0     H59382   1.098   2.743   4.626  3.0983 -1.8691  0.8320
  440MOL0     H59383   1.264   2.699   4.810  0.4389  0.1269  3.5031
  440MOL0     H59384   1.366   2.624   5.218 -0.5999  0.4211 -1.2355
  440MOL0     H59385   1.513   2.584   5.421 -0.3025  0.2309  0.7169
  440MOL0     H59386   3.133   2.250   6.328  0.1523  0.6070 -0.7966
  440MOL0     H59387   3.254   2.034   6.284 -0.4372 -0.2231  1.6682
  440MOL0     H59388   3.243   1.706   5.907 -1.7001 -1.7434  0.7009
  440MOL0     H59389   3.345   1.537   5.790 -0.9338  4.4068  1.0546
  440MOL0     H59390   3.363   1.306   5.753 -0.3153 -2.4938 -0.9065
  440MOL0     H59391   3.538   1.348   5.755 -1.3902  2.4570 -1.1215
  440MOL0     H59392   3.597   1.124   5.783 -0.2661 -1.6472  2.0935
  440MOL0     H59393   3.461   1.123   5.665  0.2592  2.1828 -0.5459
  440MOL0     H59394   3.421   1.077   5.972  0.7264 -1.6233  0.5463
  440MOL0     H59395   3.455   0.947   5.874  2.1655  1.3245  1.6500
  440MOL0     H59396   3.238   1.001   5.733 -1.1559  2.2403 -0.6005
  440MOL0     H59397   3.233   1.150   5.835  3.5636  0.9145  0.0655
  440MOL0     H59398   3.111   0.840   6.110 -0.9615 -0.7660 -2.3987
  440MOL0     H59399   3.493   1.368   6.164  0.4515  0.7104  0.6836
  440MOL0     H59400   3.420   1.594   6.270  0.5895  3.3068 -0.9400
  441MOL0     O59401   6.334   0.003  10.094  0.0897 -0.1273  0.4991
  441MOL0     C59402   6.435  -0.057  10.100 -0.5436 -0.3888  0.1560
  441MOL0     O59403   6.549  -0.017  10.162 -0.5854 -0.4432  0.0695
  441MOL0     C59404   6.547   0.114  10.214 -1.0820  0.5948  0.2032
  441MOL0     C59405   6.582   0.135  10.345  0.7772  0.5763  0.4462
  441MOL0     C59406   6.588   0.265  10.398  0.6421  0.2380 -0.1814
  441MOL0     C59407   6.571   0.380  10.326  0.0818  0.1204  1.1514
  441MOL0     O59408   6.576   0.501  10.381  0.5086 -1.1280 -0.0013
  441MOL0     C59409   6.556   0.620  10.297 -0.7183 -0.1814  0.5558
  441MOL0     C59410   6.558   0.744  10.391  0.5230 -0.8311 -0.6133
  441MOL0     C59411   6.447   0.715  10.496 -1.2915  0.5911  1.1433
  441MOL0     C59412   6.414   0.836  10.580 -0.1534 -0.1067  0.1091
  441MOL0     C59413   6.259   0.853  10.573 -0.5576 -0.4479 -0.5060
  441MOL0     C59414   6.219   0.978  10.667  0.0541 -0.8058  0.9627
  441MOL0     C59415   6.078   1.041  10.645 -0.7109 -0.0572 -0.8506
  441MOL0     C59416   6.048   1.161  10.733  0.2674  0.4958  0.9271
  441MOL0     N59417   6.152   1.267  10.736 -0.2160 -0.6314 -0.2112
  441MOL0     C59418   6.185   1.355  10.625 -0.3974  0.1642  0.1474
  441MOL0     C59419   6.301   1.400  10.683 -0.5070  0.1381 -0.6618
  441MOL0     C59420   6.392   1.492  10.605 -0.0664  1.3240  1.1477
  441MOL0     C59421   6.461   1.590  10.694 -0.2316  0.3393  0.7163
  441MOL0     C59422   6.348   1.703  10.721 -0.1938  0.1727  1.2806
  441MOL0     C59423   6.406   1.809  10.811 -0.9612 -0.4843  0.3283
  441MOL0     O59424   6.538   1.837  10.770  0.0069 -0.5208  1.2549
  441MOL0     C59425   6.600   1.949  10.811  0.8396 -0.9857 -0.2503
  441MOL0     C59426   6.558   2.068  10.868  0.1630 -0.4882  0.0372
  441MOL0     C59427   6.660   2.166  10.912  0.4272 -0.1203  0.5968
  441MOL0     C59428   6.605   2.293  10.947  0.5283 -0.3393 -0.6754
  441MOL0     C59429   6.799   2.144  10.900  0.2018 -0.3516  0.2717
  441MOL0     C59430   6.918   2.225  10.951 -0.5245 -1.0654  0.5151
  441MOL0     O59431   7.044   2.174  10.946 -0.1520  0.0588 -0.5876
  441MOL0     C59432   7.156   2.238  10.993  0.4551 -0.7835 -0.2549
  441MOL0     C59433   7.173   2.379  10.996  0.9050 -0.2414  0.8247
  441MOL0     C59434   7.279   2.423  11.069  0.1410  0.8706  0.2933
  441MOL0     C59435   7.371   2.340  11.139  0.1953 -0.9084 -0.5009
  441MOL0     O59436   7.447   2.404  11.229 -0.3348  0.2569 -1.1942
  441MOL0     C59437   7.580   2.440  11.189  0.6298 -0.1742 -0.5526
  441MOL0     C59438   7.658   2.487  11.313 -0.3188  0.2181  0.1631
  441MOL0     C59439   7.615   2.612  11.382  0.3428 -0.0503 -0.5976
  441MOL0     C59440   7.534   2.584  11.507  0.1094  0.3671  0.1522
  441MOL0     C59441   7.525   2.700  11.614 -0.0137 -0.5396  0.3383
  441MOL0     C59442   7.660   2.756  11.666  0.3983 -0.4700  0.9963
  441MOL0     C59443   7.662   2.835  11.796  0.9905 -0.0900 -0.2116
  441MOL0     C59444   7.786   2.923  11.806  0.3474 -0.6740 -0.7058
  441MOL0    Cl59445   7.931   2.831  11.818 -0.0395  0.1434  0.2927
  441MOL0     C59446   7.363   2.198  11.124  0.6808 -0.3724  0.3706
  441MOL0     C59447   7.249   2.156  11.053  0.4801  0.8733 -0.2272
  441MOL0     O59448   6.884   2.328  11.013  0.4522  1.0308 -0.4770
  441MOL0     C59449   6.829   2.021  10.833  0.8918 -0.0429  0.0652
  441MOL0     C59450   6.737   1.934  10.786  0.2053  0.1101  1.1518
  441MOL0     N59451   6.324   1.347  10.816 -0.7797  0.2890  0.2968
  441MOL0     N59452   6.229   1.268  10.846 -0.1486  0.3669  0.0138
  441MOL0     C59453   6.540   0.356  10.187 -1.2433  0.8139  0.0314
  441MOL0     C59454   6.525   0.229  10.127 -0.6369  0.7353  0.5238
  441MOL0     C59455   6.435  -0.178  10.027 -0.3290  0.1112  0.2775
  441MOL0     C59456   6.554  -0.239   9.988 -0.6588  0.1228 -0.5060
  441MOL0     C59457   6.552  -0.352   9.914 -0.7224  0.8893  0.3902
  441MOL0     C59458   6.432  -0.411   9.879  0.8168 -0.2813  0.5943
  441MOL0     O59459   6.422  -0.519   9.794 -0.4898  0.4549 -0.5582
  441MOL0     C59460   6.543  -0.607   9.775  0.7325 -1.4417  0.0835
  441MOL0     C59461   6.517  -0.749   9.714  0.7072 -0.1865  0.1187
  441MOL0     C59462   6.610  -0.793   9.600 -0.5052  0.4321  0.1182
  441MOL0     C59463   6.750  -0.846   9.657  0.7082  0.6948 -0.7797
  441MOL0     C59464   6.860  -0.827   9.559 -0.0797 -0.3088 -0.7624
  441MOL0     C59465   6.936  -0.810   9.469  0.0666 -0.2848 -0.7907
  441MOL0     C59466   6.307  -0.354   9.906  1.1346 -0.5591  0.6726
  441MOL0     C59467   6.314  -0.233   9.974  0.6738 -0.0593 -0.0877
  441MOL0     H59468   6.621   0.053  10.404 -1.6003 -0.9042  0.0859
  441MOL0     H59469   6.609   0.280  10.504  0.7093 -2.1518  0.2059
  441MOL0     H59470   6.613   0.631  10.205 -1.0003 -2.3647  0.0408
  441MOL0     H59471   6.452   0.620  10.261 -0.8295  1.2252  0.8353
  441MOL0     H59472   6.657   0.767  10.430  1.3409 -3.8955 -0.6398
  441MOL0     H59473   6.548   0.834  10.330 -3.7012 -1.2583 -0.8877
  441MOL0     H59474   6.358   0.674  10.448 -1.1447  0.1449  1.2454
  441MOL0     H59475   6.483   0.631  10.557  0.5182  2.2821  2.5329
  441MOL0     H59476   6.438   0.818  10.685  0.7243  1.5773  0.2410
  441MOL0     H59477   6.464   0.928  10.548  0.2233 -1.0925 -2.3716
  441MOL0     H59478   6.226   0.878  10.471  2.1860  3.7321 -0.6137
  441MOL0     H59479   6.215   0.760  10.609  1.2335 -1.2691 -0.2984
  441MOL0     H59480   6.241   0.952  10.771  0.0223 -1.8381  0.7219
  441MOL0     H59481   6.279   1.059  10.625 -0.5482 -0.5534  0.5713
  441MOL0     H59482   6.064   1.076  10.542  0.8269  1.2122 -0.6745
  441MOL0     H59483   6.014   0.955  10.667  2.4679 -2.4534 -0.0761
  441MOL0     H59484   6.026   1.136  10.837  0.9273  1.3081  1.2726
  441MOL0     H59485   5.962   1.203  10.679  1.0856  0.1736 -0.7137
  441MOL0     H59486   6.135   1.379  10.532  1.1418 -1.6634 -1.2288
  441MOL0     H59487   6.466   1.435  10.548 -0.1952  0.1949  2.0801
  441MOL0     H59488   6.333   1.549  10.533  0.5786  0.3527 -0.2008
  441MOL0     H59489   6.544   1.628  10.634  0.9987  0.6367  2.5487
  441MOL0     H59490   6.501   1.548  10.786 -0.9954 -1.4802  0.2669
  441MOL0     H59491   6.256   1.669  10.769 -0.3466 -0.0204  0.8488
  441MOL0     H59492   6.306   1.741  10.628 -3.8125 -1.8068  1.9314
  441MOL0     H59493   6.400   1.777  10.916 -2.4036 -1.7702 -0.1058
  441MOL0     H59494   6.339   1.895  10.801 -1.2845 -0.9394 -1.7415
  441MOL0     H59495   6.453   2.094  10.881 -0.0101  0.1940 -2.3934
  441MOL0     H59496   6.612   2.309  11.055 -0.3972 -0.3454 -0.6064
  441MOL0     H59497   6.638   2.380  10.889 -4.1877  2.9422  0.8652
  441MOL0     H59498   6.496   2.298  10.934 -0.6513 -0.4508  5.6787
  441MOL0     H59499   7.096   2.448  10.962  2.7882  1.0087 -1.1650
  441MOL0     H59500   7.269   2.531  11.078  0.4082  0.7466  2.5476
  441MOL0     H59501   7.622   2.345  11.156  1.7486  0.5992 -1.4182
  441MOL0     H59502   7.568   2.521  11.116 -1.3828  0.6444  0.6036
  441MOL0     H59503   7.680   2.406  11.384  0.4200  1.5924  1.5545
  441MOL0     H59504   7.759   2.501  11.273 -0.3021  1.5387  0.6334
  441MOL0     H59505   7.555   2.677  11.318  2.2103  1.6741 -0.6666
  441MOL0     H59506   7.694   2.681  11.411 -1.9194  2.2024  0.6231
  441MOL0     H59507   7.432   2.567  11.472  0.1317  1.9640 -0.7998
  441MOL0     H59508   7.568   2.501  11.570 -2.5831 -0.3673  0.7625
  441MOL0     H59509   7.473   2.666  11.705 -1.7406  0.2189 -0.3195
  441MOL0     H59510   7.460   2.778  11.573 -1.2232 -1.6054  0.1947
  441MOL0     H59511   7.732   2.674  11.667 -1.5011 -2.2261  0.2171
  441MOL0     H59512   7.697   2.823  11.588  3.0149 -1.1836  1.5186
  441MOL0     H59513   7.654   2.758  11.873  1.4728 -0.6559 -0.7245
  441MOL0     H59514   7.579   2.906  11.802  3.4274  2.9864  0.4103
  441MOL0     H59515   7.773   2.991  11.891 -0.1232 -0.6367 -0.8018
  441MOL0     H59516   7.777   2.986  11.716 -0.0486 -2.8736 -2.2807
  441MOL0     H59517   7.425   2.131  11.183  3.5977  2.4024  0.7134
  441MOL0     H59518   7.236   2.051  11.029  0.3720  0.5684  1.0649
  441MOL0     H59519   6.934   1.993  10.836  1.8050  3.1153  1.7579
  441MOL0     H59520   6.766   1.837  10.746 -1.8514 -0.0270 -0.1568
  441MOL0     H59521   6.526   0.432  10.111  0.3560 -2.3291 -3.7145
  441MOL0     H59522   6.516   0.214  10.019  0.5244 -3.1372  0.8135
  441MOL0     H59523   6.648  -0.197  10.023  0.2364 -0.3456 -2.2681
  441MOL0     H59524   6.647  -0.396   9.887 -1.1046  1.4650 -2.1656
  441MOL0     H59525   6.610  -0.558   9.703 -1.4752 -3.0162 -3.2978
  441MOL0     H59526   6.594  -0.609   9.872  0.5053  5.0736  0.8402
  441MOL0     H59527   6.419  -0.765   9.667  1.1894  1.1529 -1.4404
  441MOL0     H59528   6.514  -0.814   9.801 -0.8609 -0.4717 -0.1152
  441MOL0     H59529   6.607  -0.713   9.525  3.6678  1.5095  0.8214
  441MOL0     H59530   6.563  -0.879   9.551  3.5074 -3.2986  2.1175
  441MOL0     H59531   6.736  -0.948   9.695 -1.4593  1.4139  0.5295
  441MOL0     H59532   6.776  -0.781   9.741  0.7290  0.4296 -0.5792
  441MOL0     H59533   7.008  -0.797   9.391 -1.3237  1.1151 -1.8959
  441MOL0     H59534   6.219  -0.395   9.857  1.1860  1.0653 -0.8964
  441MOL0     H59535   6.219  -0.182   9.981  0.9727  0.4286  0.5772
  442MOL0     O59536   2.547   4.623   8.515 -0.2366 -0.6187  0.9279
  442MOL0     C59537   2.632   4.716   8.505  0.3042  0.0931  0.6180
  442MOL0     O59538   2.760   4.710   8.544 -0.2905 -0.1813 -0.3847
  442MOL0     C59539   2.831   4.606   8.599 -0.0344 -0.9169 -0.5296
  442MOL0     C59540   2.939   4.567   8.527 -0.0433  1.7572 -0.4068
  442MOL0     C59541   3.025   4.469   8.574  0.2922  0.9493  0.6657
  442MOL0     C59542   3.009   4.415   8.700  0.4437  1.0533  0.5134
  442MOL0     O59543   3.096   4.312   8.737  0.3415  0.5139  0.5089
  442MOL0     C59544   3.030   4.196   8.772 -0.3361  0.4160 -0.0361
  442MOL0     C59545   3.133   4.098   8.841 -0.3748 -0.5577 -0.1678
  442MOL0     C59546   3.065   3.968   8.886 -0.6764  0.3009 -0.2266
  442MOL0     C59547   3.178   3.862   8.910 -0.4042  0.4136  0.5236
  442MOL0     C59548   3.164   3.771   9.046  0.1316 -0.0403 -0.4970
  442MOL0     C59549   3.213   3.834   9.180 -0.4131 -0.2730 -0.0576
  442MOL0     C59550   3.356   3.793   9.210 -0.2306 -0.1239  0.2715
  442MOL0     C59551   3.468   3.879   9.168  0.0822 -0.1525  0.3520
  442MOL0     N59552   3.601   3.820   9.202  0.2203 -0.1420 -0.3308
  442MOL0     C59553   3.683   3.843   9.311  0.6610  0.1414  0.3979
  442MOL0     C59554   3.797   3.771   9.286  0.5427 -0.3941  0.1668
  442MOL0     C59555   3.921   3.750   9.371  0.2579 -0.1848 -0.2221
  442MOL0     C59556   3.880   3.666   9.498  0.1511  0.0204  0.7382
  442MOL0     C59557   3.831   3.522   9.455  0.9518 -0.0302  0.2067
  442MOL0     C59558   3.855   3.403   9.562  0.4172  0.5052  0.2302
  442MOL0     O59559   3.770   3.424   9.673  0.2502 -0.4664 -0.1021
  442MOL0     C59560   3.817   3.499   9.776  0.2526 -0.4289 -0.1803
  442MOL0     C59561   3.751   3.617   9.828 -0.4021  0.2833  0.5852
  442MOL0     C59562   3.797   3.684   9.940 -1.2445  1.1450 -0.4803
  442MOL0     C59563   3.708   3.798   9.977 -0.5065 -0.8132  0.4634
  442MOL0     C59564   3.909   3.626  10.008 -0.4200 -0.0008  0.0246
  442MOL0     C59565   3.962   3.674  10.150  0.5917  0.3130  0.1127
  442MOL0     O59566   4.065   3.620  10.200  0.3219  0.8617  1.0395
  442MOL0     C59567   4.155   3.685  10.289  0.3569  0.0524  0.9372
  442MOL0     C59568   4.124   3.755  10.406 -0.6465  0.1512  0.0683
  442MOL0     C59569   4.222   3.834  10.467 -0.8830  0.5590 -1.4261
  442MOL0     C59570   4.359   3.834  10.440 -1.0030  0.1978 -0.0189
  442MOL0     O59571   4.461   3.887  10.523  0.6064 -1.0639 -0.7286
  442MOL0     C59572   4.579   3.940  10.461  0.0666  0.0177 -0.4978
  442MOL0     C59573   4.551   4.080  10.414 -0.3511 -0.9565  0.1325
  442MOL0     C59574   4.636   4.122  10.290 -0.0795  0.1237 -0.5546
  442MOL0     C59575   4.776   4.177  10.318  1.3858 -0.0307 -0.3046
  442MOL0     C59576   4.851   4.080  10.416  0.1120 -0.4442 -0.5600
  442MOL0     C59577   4.996   4.144  10.451  1.1170  0.4629  0.0171
  442MOL0     C59578   5.084   4.175  10.333  0.1917  0.4646  0.4327
  442MOL0     C59579   5.232   4.181  10.373  0.1563 -0.0038  0.1390
  442MOL0    Cl59580   5.319   4.309  10.275 -0.1761  0.3204  0.1010
  442MOL0     C59581   4.382   3.783  10.313 -0.3212  0.9144  0.1613
  442MOL0     C59582   4.288   3.704  10.237  0.1407  0.4482  0.7977
  442MOL0     O59583   3.908   3.778  10.188 -0.1937  0.9797  0.7698
  442MOL0     C59584   3.971   3.505   9.953  0.7984 -0.7943 -0.8391
  442MOL0     C59585   3.924   3.447   9.843 -0.7439 -0.3267  0.0535
  442MOL0     N59586   3.781   3.712   9.164  0.1607 -0.6280  0.5570
  442MOL0     N59587   3.668   3.742   9.113 -0.4874  0.5602  0.4782
  442MOL0     C59588   2.893   4.450   8.767 -0.0375  0.0154 -0.2271
  442MOL0     C59589   2.810   4.549   8.723 -0.0912  0.3401  0.0015
  442MOL0     C59590   2.572   4.840   8.457 -0.4651 -0.2175 -0.0137
  442MOL0     C59591   2.436   4.843   8.433 -0.7808  0.7141  0.2318
  442MOL0     C59592   2.373   4.961   8.424 -0.6198 -0.0316  0.4740
  442MOL0     C59593   2.447   5.082   8.414 -0.4867  0.1080 -0.7217
  442MOL0     O59594   2.375   5.198   8.401 -0.0362  0.0238  0.6076
  442MOL0     C59595   2.413   5.305   8.303  1.0821  0.6400 -1.3235
  442MOL0     C59596   2.380   5.258   8.164 -0.1521  0.4795 -1.1456
  442MOL0     C59597   2.243   5.218   8.137  0.8750 -0.0936 -0.2934
  442MOL0     C59598   2.150   5.331   8.120 -0.0992  0.0085 -0.0051
  442MOL0     C59599   2.190   5.407   8.002  0.3227  1.1325 -0.5442
  442MOL0     C59600   2.245   5.456   7.916  0.3903 -0.7401 -0.8863
  442MOL0     C59601   2.584   5.079   8.424 -0.8066  0.2396 -0.4792
  442MOL0     C59602   2.650   4.957   8.445 -0.3042  0.1904  0.3939
  442MOL0     H59603   2.958   4.625   8.438 -1.4954  0.7368 -1.4207
  442MOL0     H59604   3.121   4.445   8.531 -1.0173 -0.4598 -1.6965
  442MOL0     H59605   2.945   4.215   8.839 -2.8580  2.0602 -3.4067
  442MOL0     H59606   2.986   4.155   8.680  2.3051  0.5840 -1.4612
  442MOL0     H59607   3.202   4.071   8.760  0.1583  0.0593  0.0749
  442MOL0     H59608   3.183   4.141   8.928  0.3554 -3.2040  0.7983
  442MOL0     H59609   3.003   3.983   8.975 -1.7350  1.6489 -1.1485
  442MOL0     H59610   3.002   3.936   8.802  0.4972 -2.0868 -0.2777
  442MOL0     H59611   3.181   3.806   8.816  2.1232  2.5582 -0.8287
  442MOL0     H59612   3.280   3.901   8.915 -0.4080  0.3985  0.7711
  442MOL0     H59613   3.057   3.757   9.067 -0.0885  0.7791 -1.0251
  442MOL0     H59614   3.208   3.674   9.021 -2.2767 -0.3551 -4.4292
  442MOL0     H59615   3.207   3.943   9.180 -1.7217 -0.3171 -1.5528
  442MOL0     H59616   3.147   3.791   9.257 -0.3208 -1.9113 -0.8479
  442MOL0     H59617   3.375   3.766   9.314  3.4788  2.6705  0.5256
  442MOL0     H59618   3.396   3.700   9.168  3.8729  0.3876  2.5231
  442MOL0     H59619   3.453   3.969   9.228 -0.0899  0.2413 -0.2732
  442MOL0     H59620   3.451   3.896   9.061  4.3567 -3.2951 -1.1130
  442MOL0     H59621   3.654   3.894   9.402  2.6615  0.6373  0.7939
  442MOL0     H59622   3.995   3.707   9.302 -0.0366  1.1613 -1.4338
  442MOL0     H59623   3.961   3.841   9.418 -1.4446 -0.4271  1.8284
  442MOL0     H59624   3.801   3.713   9.556  1.7411  3.0487  0.6282
  442MOL0     H59625   3.975   3.649   9.548 -0.5570  1.0703  2.5267
  442MOL0     H59626   3.885   3.501   9.362 -2.3679  2.5575 -2.6170
  442MOL0     H59627   3.726   3.524   9.424  1.4121 -1.2252 -1.6347
  442MOL0     H59628   3.959   3.412   9.595 -1.2780  1.7833  6.7012
  442MOL0     H59629   3.826   3.306   9.521 -0.5042  0.4400  1.0030
  442MOL0     H59630   3.662   3.647   9.775 -0.6910 -0.0895  0.8470
  442MOL0     H59631   3.648   3.835   9.893  1.6118  0.6069 -0.5339
  442MOL0     H59632   3.644   3.771  10.061 -2.9558 -1.4933 -1.5015
  442MOL0     H59633   3.772   3.882  10.007 -0.6593 -0.1300 -0.9994
  442MOL0     H59634   4.023   3.752  10.444  0.2966  1.2041  2.8756
  442MOL0     H59635   4.192   3.895  10.552  1.1504  0.0314 -0.2661
  442MOL0     H59636   4.649   3.942  10.544  0.4024 -1.4206 -0.7150
  442MOL0     H59637   4.620   3.877  10.382  0.2188  0.4927 -0.7977
  442MOL0     H59638   4.447   4.085  10.379  0.7491  1.8372 -3.3615
  442MOL0     H59639   4.541   4.161  10.488 -3.3803  0.8319 -1.9686
  442MOL0     H59640   4.585   4.206  10.243  0.2183  2.1145  2.3889
  442MOL0     H59641   4.627   4.034  10.225 -2.5095 -0.4584  0.4715
  442MOL0     H59642   4.821   4.194  10.219  1.0655 -2.5629 -0.9557
  442MOL0     H59643   4.764   4.273  10.369 -0.8185 -0.9895  1.1152
  442MOL0     H59644   4.865   3.980  10.374 -1.2110 -0.2953 -1.4182
  442MOL0     H59645   4.813   4.064  10.517  1.6050 -2.4184 -0.2385
  442MOL0     H59646   4.968   4.233  10.508 -4.5354 -2.5408  2.8001
  442MOL0     H59647   5.035   4.069  10.520 -1.5095 -1.9992 -0.9540
  442MOL0     H59648   5.057   4.275  10.297 -1.5345 -0.1785 -0.1704
  442MOL0     H59649   5.085   4.107  10.247  0.4975 -2.0664  2.3316
  442MOL0     H59650   5.291   4.089  10.363  1.0328  0.3844  1.4530
  442MOL0     H59651   5.246   4.222  10.474 -1.2433 -1.6524  1.0715
  442MOL0     H59652   4.485   3.763  10.284 -0.1590  0.0129  1.2758
  442MOL0     H59653   4.317   3.652  10.146  1.1979 -1.7680  2.3290
  442MOL0     H59654   4.052   3.452  10.001  0.1143 -0.7791  0.3660
  442MOL0     H59655   3.964   3.348   9.821  3.7551  1.2086  0.3454
  442MOL0     H59656   2.882   4.390   8.857  2.7856 -1.1478 -0.5652
  442MOL0     H59657   2.720   4.572   8.779 -0.5424  1.5952 -1.1790
  442MOL0     H59658   2.370   4.758   8.420 -2.9987  2.2537  0.9230
  442MOL0     H59659   2.266   4.975   8.416 -0.7225  0.0794  1.7658
  442MOL0     H59660   2.350   5.388   8.337  3.5861  1.2030  2.5737
  442MOL0     H59661   2.520   5.325   8.315  1.7237 -3.4103  2.1311
  442MOL0     H59662   2.432   5.165   8.140 -0.9218 -0.2239 -0.1783
  442MOL0     H59663   2.405   5.323   8.080 -1.4044  0.5707 -1.4717
  442MOL0     H59664   2.202   5.135   8.195 -3.3022  0.2775 -2.3806
  442MOL0     H59665   2.239   5.169   8.040 -2.8173 -2.1574  0.7334
  442MOL0     H59666   2.153   5.402   8.204  0.4608  0.7996 -0.6804
  442MOL0     H59667   2.046   5.306   8.096 -0.5920  2.0101 -0.1889
  442MOL0     H59668   2.283   5.511   7.832  0.3540  1.3614  0.4061
  442MOL0     H59669   2.652   5.163   8.411 -0.3852 -0.3071 -1.9926
  442MOL0     H59670   2.757   4.950   8.462  0.4410  4.5817 -1.3365
  443MOL0     O59671   3.583   9.821   0.175  0.0778  0.5729  0.5766
  443MOL0     C59672   3.634   9.786   0.066  0.4781 -0.8496 -0.4599
  443MOL0     O59673   3.620   9.860  -0.050  0.2793  0.3004 -0.3763
  443MOL0     C59674   3.586   9.991  -0.041 -0.2882 -0.7227 -0.4895
  443MOL0     C59675   3.637  10.090   0.058 -0.6092 -0.4372 -0.4520
  443MOL0     C59676   3.594  10.221   0.050 -0.0174 -0.6173  0.1485
  443MOL0     C59677   3.494  10.267  -0.047  0.0898  0.0622 -0.8408
  443MOL0     O59678   3.469  10.406  -0.037 -0.0881  1.0707 -0.5556
  443MOL0     C59679   3.376  10.453  -0.132 -0.2579  0.4055 -0.0036
  443MOL0     C59680   3.337  10.592  -0.113 -0.0587  0.1606 -0.7977
  443MOL0     C59681   3.460  10.688  -0.118  0.8761 -0.4800  0.6739
  443MOL0     C59682   3.425  10.841  -0.099 -0.0323 -0.2512 -0.7026
  443MOL0     C59683   3.542  10.933  -0.081 -0.2156 -0.7711  0.1394
  443MOL0     C59684   3.612  10.917   0.053  0.8657  0.0029 -0.1787
  443MOL0     C59685   3.751  10.986   0.055 -0.1022 -0.1536  0.1765
  443MOL0     C59686   3.855  10.904   0.132  0.1338  0.1356  0.6431
  443MOL0     N59687   3.864  10.766   0.082 -0.2766 -0.0528  0.1584
  443MOL0     C59688   3.835  10.721  -0.047 -0.0581 -0.0442  0.4777
  443MOL0     C59689   3.846  10.582  -0.039  0.8984  0.4644 -0.1156
  443MOL0     C59690   3.821  10.477  -0.146 -1.0022  0.3233  0.5153
  443MOL0     C59691   3.779  10.508  -0.288 -0.6513 -0.3605  0.0348
  443MOL0     C59692   3.706  10.380  -0.347  0.5990 -0.4360  0.2436
  443MOL0     C59693   3.764  10.244  -0.326 -0.1005 -0.1538 -0.3915
  443MOL0     O59694   3.869  10.212  -0.414 -0.5979  0.0397  0.5939
  443MOL0     C59695   3.921  10.084  -0.397 -0.6642  0.1504  0.5545
  443MOL0     C59696   4.040  10.032  -0.467 -0.9587  0.3324  0.3552
  443MOL0     C59697   4.109   9.914  -0.432  0.3947  0.5768 -0.3236
  443MOL0     C59698   4.239   9.877  -0.505 -0.3811  1.2075 -0.2343
  443MOL0     C59699   4.066   9.834  -0.321 -0.2621 -0.1545  1.8647
  443MOL0     C59700   4.117   9.703  -0.280  0.5486  1.6182 -0.1471
  443MOL0     O59701   4.185   9.623  -0.370  0.0362  0.6266  0.3043
  443MOL0     C59702   4.227   9.495  -0.332  1.2565 -1.1333 -0.6545
  443MOL0     C59703   4.345   9.476  -0.273  0.1664  0.2627  0.1829
  443MOL0     C59704   4.384   9.341  -0.246 -0.4597  0.0745  0.2013
  443MOL0     C59705   4.314   9.229  -0.284  0.1275 -0.4492 -0.6872
  443MOL0     O59706   4.344   9.101  -0.246  0.3595 -0.2588  0.2407
  443MOL0     C59707   4.475   9.073  -0.188  0.7532 -0.6947  0.2985
  443MOL0     C59708   4.488   8.923  -0.155 -1.1463 -0.2692  0.2057
  443MOL0     C59709   4.475   8.849  -0.291  0.6220 -0.1024  0.1252
  443MOL0     C59710   4.595   8.748  -0.321 -0.3924  0.3198 -0.3972
  443MOL0     C59711   4.577   8.669  -0.452 -0.4378 -0.2069 -0.2267
  443MOL0     C59712   4.596   8.742  -0.581 -0.9784 -0.2776 -0.5677
  443MOL0     C59713   4.717   8.833  -0.590 -0.2993  0.4023 -0.0566
  443MOL0     C59714   4.851   8.773  -0.571  0.5044 -0.9844  0.1234
  443MOL0    Cl59715   4.983   8.883  -0.555  0.3362 -0.2699 -0.2331
  443MOL0     C59716   4.187   9.255  -0.340 -0.0740  0.4163  0.5335
  443MOL0     C59717   4.143   9.385  -0.354 -0.1133  0.2716 -0.0438
  443MOL0     O59718   4.098   9.662  -0.161 -1.2350 -0.3770 -0.1446
  443MOL0     C59719   3.949   9.884  -0.260 -1.3645  0.9134  0.6547
  443MOL0     C59720   3.877   9.991  -0.299  0.2893  0.2980 -0.1078
  443MOL0     N59721   3.894  10.553   0.086  0.6202  0.1684 -0.0333
  443MOL0     N59722   3.912  10.659   0.159  0.2569  1.1348 -0.7724
  443MOL0     C59723   3.441  10.164  -0.129  0.8914  0.2915 -0.1221
  443MOL0     C59724   3.488  10.034  -0.122 -0.7250  0.1828  0.3393
  443MOL0     C59725   3.686   9.649   0.051  0.3877  0.0696 -0.8032
  443MOL0     C59726   3.730   9.585   0.163  0.7654  0.3863  0.2272
  443MOL0     C59727   3.789   9.457   0.152 -0.3879  0.1699  0.3215
  443MOL0     C59728   3.817   9.405   0.023  0.1336  0.9825 -0.1047
  443MOL0     O59729   3.893   9.296   0.023 -0.2154  0.5036  0.1338
  443MOL0     C59730   4.029   9.313  -0.014  0.4101 -0.6708  0.7408
  443MOL0     C59731   4.111   9.204   0.049 -0.4814 -0.8194 -0.6313
  443MOL0     C59732   4.135   9.243   0.195 -0.2161 -0.2237 -1.3273
  443MOL0     C59733   4.219   9.149   0.269  1.0440 -0.2898 -0.3188
  443MOL0     C59734   4.351   9.172   0.223 -0.5003 -0.5241 -0.2930
  443MOL0     C59735   4.460   9.205   0.188  0.0488  0.6176 -1.1996
  443MOL0     C59736   3.771   9.476  -0.090 -0.4798 -0.2475 -0.0772
  443MOL0     C59737   3.710   9.597  -0.077 -1.3556 -0.2606 -0.0053
  443MOL0     H59738   3.712  10.072   0.136  0.7205  3.8837 -0.4948
  443MOL0     H59739   3.638  10.295   0.116 -2.3859 -1.6799  3.1431
  443MOL0     H59740   3.413  10.440  -0.234 -1.6022  2.8077 -0.8689
  443MOL0     H59741   3.288  10.390  -0.117  0.4186 -0.5632 -0.0233
  443MOL0     H59742   3.268  10.622  -0.192  0.4066 -1.9950 -2.1133
  443MOL0     H59743   3.294  10.596  -0.012  0.5009  1.0533 -0.5769
  443MOL0     H59744   3.533  10.663  -0.040 -1.0948 -1.0413  2.4066
  443MOL0     H59745   3.513  10.689  -0.214 -2.0135  3.7529 -1.1635
  443MOL0     H59746   3.370  10.881  -0.184  1.6786  1.3906 -1.1216
  443MOL0     H59747   3.360  10.865  -0.014  3.0966  0.4360  1.7091
  443MOL0     H59748   3.611  10.924  -0.166  1.8683 -2.6121  1.8827
  443MOL0     H59749   3.510  11.037  -0.080  1.6782 -0.1369  0.0577
  443MOL0     H59750   3.555  10.967   0.131  1.4686  0.8845 -0.2845
  443MOL0     H59751   3.622  10.816   0.093  1.4533  0.6676  1.4303
  443MOL0     H59752   3.791  10.985  -0.047  0.3966 -0.5822  0.3759
  443MOL0     H59753   3.748  11.087   0.096  1.6584  0.3580 -0.8585
  443MOL0     H59754   3.840  10.919   0.239  2.9075  0.6318  1.0414
  443MOL0     H59755   3.957  10.941   0.118  1.6611 -3.7636  0.0534
  443MOL0     H59756   3.820  10.785  -0.133 -0.5636  1.7864  1.8636
  443MOL0     H59757   3.920  10.433  -0.160 -1.2739 -0.1953  0.1943
  443MOL0     H59758   3.752  10.403  -0.103 -0.5121 -0.4078  0.0680
  443MOL0     H59759   3.866  10.532  -0.350  0.0268  1.4704  1.5680
  443MOL0     H59760   3.715  10.597  -0.281  0.3090  0.2444  4.9891
  443MOL0     H59761   3.694  10.395  -0.455 -0.9356  0.9705  0.5573
  443MOL0     H59762   3.607  10.376  -0.300  0.5293 -2.0379  0.0233
  443MOL0     H59763   3.680  10.176  -0.346 -0.3502  0.3463 -1.1262
  443MOL0     H59764   3.786  10.242  -0.219 -4.0541 -1.1432  0.5982
  443MOL0     H59765   4.078  10.091  -0.549  3.7062 -1.0177  1.2150
  443MOL0     H59766   4.214   9.816  -0.592  1.9607  1.7020 -1.3373
  443MOL0     H59767   4.291   9.966  -0.541  6.0356 -2.4203 -1.5169
  443MOL0     H59768   4.306   9.829  -0.433 -0.7553 -0.2677 -0.8179
  443MOL0     H59769   4.419   9.551  -0.247  0.7484  0.1601 -1.0790
  443MOL0     H59770   4.480   9.319  -0.200 -0.7166 -3.6484 -0.7491
  443MOL0     H59771   4.553   9.113  -0.253  0.4895  1.5340  1.2564
  443MOL0     H59772   4.484   9.133  -0.096  0.5370 -1.0194  0.5337
  443MOL0     H59773   4.586   8.907  -0.109 -0.4209 -1.0455 -1.5139
  443MOL0     H59774   4.413   8.887  -0.083 -1.2024  0.5825  0.5919
  443MOL0     H59775   4.461   8.920  -0.372  2.0630 -0.3017 -0.3285
  443MOL0     H59776   4.389   8.783  -0.274 -0.1831  1.1680  1.2074
  443MOL0     H59777   4.691   8.800  -0.316  0.4153 -1.0549 -0.9588
  443MOL0     H59778   4.584   8.669  -0.247 -1.1689  1.2943  0.5659
  443MOL0     H59779   4.478   8.623  -0.448  0.1549 -1.5521  4.1810
  443MOL0     H59780   4.649   8.587  -0.448  1.7308  1.5954  3.5267
  443MOL0     H59781   4.600   8.661  -0.654 -0.7636 -3.3686  2.5744
  443MOL0     H59782   4.505   8.799  -0.599 -0.7759  0.9815  1.9342
  443MOL0     H59783   4.704   8.916  -0.520 -1.7038  0.1940 -0.0446
  443MOL0     H59784   4.694   8.871  -0.690 -2.3900 -1.4958 -0.3665
  443MOL0     H59785   4.867   8.714  -0.662 -1.6002  0.5036 -1.3113
  443MOL0     H59786   4.853   8.700  -0.490 -0.1910 -1.2056 -0.0472
  443MOL0     H59787   4.121   9.171  -0.361  0.0487  0.4876 -0.1567
  443MOL0     H59788   4.047   9.411  -0.398 -0.8257 -1.2818  0.5337
  443MOL0     H59789   3.916   9.827  -0.174 -2.3570 -2.3310 -1.6630
  443MOL0     H59790   3.791   9.997  -0.233  1.5501 -5.3920  2.6411
  443MOL0     H59791   3.362  10.188  -0.200 -0.9916  0.8140  1.9972
  443MOL0     H59792   3.454   9.963  -0.197 -1.2869  0.1584  0.6083
  443MOL0     H59793   3.726   9.641   0.256  2.6858 -1.6805  1.6666
  443MOL0     H59794   3.831   9.423   0.247 -0.4721 -0.0872  0.2678
  443MOL0     H59795   4.023   9.295  -0.121 -1.4478  0.4650  0.6224
  443MOL0     H59796   4.076   9.410   0.001 -0.9255  0.2256 -0.5509
  443MOL0     H59797   4.203   9.188  -0.008 -0.0642 -2.0161  0.3297
  443MOL0     H59798   4.054   9.110   0.048 -1.0165 -0.5144  0.0735
  443MOL0     H59799   4.039   9.256   0.245  1.5053  4.1948  1.4405
  443MOL0     H59800   4.176   9.345   0.197 -0.3794 -0.0753  2.7946
  443MOL0     H59801   4.192   9.044   0.253  2.5867 -1.0169  1.5054
  443MOL0     H59802   4.219   9.160   0.377  0.3984  1.5139 -0.4738
  443MOL0     H59803   4.563   9.228   0.168 -0.0665  4.0495  1.1472
  443MOL0     H59804   3.797   9.440  -0.189 -2.2517 -1.3524 -0.1873
  443MOL0     H59805   3.681   9.649  -0.168 -0.2272 -0.1468 -0.3154
  444MOL0     O59806   6.741   7.899  10.715  0.6594 -0.1097 -0.3766
  444MOL0     C59807   6.696   7.799  10.779 -0.7786 -0.6897  0.4067
  444MOL0     O59808   6.757   7.685  10.793 -0.2564 -0.2049  0.3717
  444MOL0     C59809   6.883   7.657  10.746  1.1024 -1.0347 -0.1541
  444MOL0     C59810   6.991   7.750  10.749  0.6013  0.1017  0.2765
  444MOL0     C59811   7.112   7.713  10.692  0.9320  0.5023 -0.3622
  444MOL0     C59812   7.133   7.577  10.658  0.6659 -0.6136  0.8752
  444MOL0     O59813   7.263   7.542  10.630  0.1731  0.2050  0.1979
  444MOL0     C59814   7.297   7.412  10.598 -0.4803 -0.5208 -0.6968
  444MOL0     C59815   7.461   7.404  10.605  0.9592  0.8644 -0.8859
  444MOL0     C59816   7.521   7.437  10.742 -0.0383 -0.7551  0.5404
  444MOL0     C59817   7.671   7.406  10.764  0.0852  0.0367  0.4700
  444MOL0     C59818   7.769   7.493  10.677 -0.0627  0.5810 -0.2633
  444MOL0     C59819   7.807   7.629  10.741  0.1237  1.0658 -0.3575
  444MOL0     C59820   7.863   7.721  10.641  1.1380  0.1677  0.0481
  444MOL0     C59821   7.956   7.674  10.529  0.4074  0.8079  0.4056
  444MOL0     N59822   8.085   7.650  10.575  0.5854  0.1379  1.0907
  444MOL0     C59823   8.184   7.732  10.543  0.6595 -0.8867  0.1306
  444MOL0     C59824   8.291   7.707  10.618 -0.5329  0.7744  1.0343
  444MOL0     C59825   8.429   7.777  10.627  0.1589 -0.3828 -1.3680
  444MOL0     C59826   8.500   7.833  10.505  0.6390 -0.6532  0.3877
  444MOL0     C59827   8.651   7.845  10.542  0.5121  0.6950 -1.2920
  444MOL0     C59828   8.672   7.961  10.638  0.3306 -1.4036  0.4768
  444MOL0     O59829   8.600   8.077  10.583 -0.0855 -0.5452 -0.0201
  444MOL0     C59830   8.555   8.160  10.687  0.3018 -0.3250 -0.1227
  444MOL0     C59831   8.423   8.199  10.695 -0.0980  0.3341 -0.1703
  444MOL0     C59832   8.372   8.276  10.803  0.6108 -0.8453  0.2233
  444MOL0     C59833   8.220   8.313  10.782  0.0695  0.9158  0.3984
  444MOL0     C59834   8.465   8.339  10.896  0.9985  0.0459  0.0446
  444MOL0     C59835   8.419   8.419  11.007 -0.5526  0.2060  0.9353
  444MOL0     O59836   8.518   8.457  11.100 -0.3939 -0.2745  1.6721
  444MOL0     C59837   8.518   8.581  11.171 -0.7754  0.4434  0.7318
  444MOL0     C59838   8.430   8.686  11.145  0.6316 -1.2835  0.0400
  444MOL0     C59839   8.419   8.802  11.227 -1.1330 -0.2472 -0.5438
  444MOL0     C59840   8.514   8.813  11.335 -0.6815  0.8916 -0.7492
  444MOL0     O59841   8.503   8.926  11.414  0.5204  0.5522  0.1077
  444MOL0     C59842   8.611   8.969  11.501  0.6463  1.1410 -0.4505
  444MOL0     C59843   8.741   9.005  11.427 -0.2760 -0.0214  0.9244
  444MOL0     C59844   8.865   9.026  11.522 -0.2858 -0.0144  0.9129
  444MOL0     C59845   8.848   9.094  11.660 -0.0904 -0.2111  1.6523
  444MOL0     C59846   8.816   9.241  11.656  0.7756  0.0955  0.0187
  444MOL0     C59847   8.774   9.308  11.791 -0.3239 -0.5269  0.1023
  444MOL0     C59848   8.722   9.448  11.758 -0.0675 -0.7841  0.0020
  444MOL0     C59849   8.734   9.533  11.889  0.0964  0.1625 -0.9227
  444MOL0    Cl59850   8.732   9.709  11.837  0.0703  0.3050 -0.2759
  444MOL0     C59851   8.610   8.713  11.355  0.5044  0.7375 -0.5085
  444MOL0     C59852   8.608   8.594  11.280  1.2389  0.5505 -0.1755
  444MOL0     O59853   8.305   8.464  11.003  0.2605  0.2011  0.3059
  444MOL0     C59854   8.597   8.297  10.889  0.1193  0.9925  0.1909
  444MOL0     C59855   8.648   8.210  10.790  0.5528 -0.2441  0.5782
  444MOL0     N59856   8.253   7.589  10.687 -0.1454  0.4411  0.0251
  444MOL0     N59857   8.130   7.554  10.661  0.1421 -0.0088  0.3634
  444MOL0     C59858   7.025   7.491  10.658  0.1894  0.2101 -0.6131
  444MOL0     C59859   6.900   7.527  10.696 -0.2694  1.0079 -0.9251
  444MOL0     C59860   6.575   7.821  10.857 -0.3743 -0.3086  0.2693
  444MOL0     C59861   6.509   7.723  10.924  1.2843 -0.6011  0.5715
  444MOL0     C59862   6.390   7.749  10.997 -0.0563 -0.7957  0.6022
  444MOL0     C59863   6.331   7.876  10.999  0.0166  0.6042 -0.1816
  444MOL0     O59864   6.200   7.885  11.065  0.3429  0.6317 -0.3545
  444MOL0     C59865   6.176   8.005  11.132 -0.2841 -0.7312 -0.5993
  444MOL0     C59866   6.089   8.104  11.051  0.6663 -0.6490  0.3682
  444MOL0     C59867   5.948   8.060  11.035  0.6197 -0.3053  0.5026
  444MOL0     C59868   5.931   7.911  10.977  0.0760  0.2305 -0.7219
  444MOL0     C59869   5.789   7.899  10.948  0.1445 -0.7347 -0.2067
  444MOL0     C59870   5.670   7.874  10.926  0.4985 -0.4903 -0.7833
  444MOL0     C59871   6.404   7.976  10.935  0.3339 -0.0152 -0.1061
  444MOL0     C59872   6.518   7.949  10.862 -1.2196 -0.0189  0.4964
  444MOL0     H59873   6.977   7.848  10.795  0.7604  0.7638 -1.0411
  444MOL0     H59874   7.196   7.782  10.689 -0.7619  2.6262 -1.4004
  444MOL0     H59875   7.272   7.340  10.677  0.2625 -0.7600 -0.6767
  444MOL0     H59876   7.259   7.387  10.498  0.6589  0.3709 -1.3642
  444MOL0     H59877   7.486   7.302  10.573 -3.0852 -0.7087  0.3589
  444MOL0     H59878   7.513   7.467  10.533 -0.0069  0.1530 -2.2580
  444MOL0     H59879   7.507   7.544  10.757  0.1938 -0.4579 -1.1242
  444MOL0     H59880   7.466   7.383  10.819  0.0355 -1.5492  0.0543
  444MOL0     H59881   7.692   7.426  10.869 -1.8388  2.9508  0.4216
  444MOL0     H59882   7.678   7.299  10.742 -1.5661  0.5294 -3.0741
  444MOL0     H59883   7.857   7.428  10.668 -1.9183 -2.1402 -0.0370
  444MOL0     H59884   7.742   7.497  10.571 -2.0902 -2.2188  0.0321
  444MOL0     H59885   7.738   7.679  10.809  0.9078  0.2088  1.1056
  444MOL0     H59886   7.894   7.597  10.798  0.5161  3.3034  0.3870
  444MOL0     H59887   7.777   7.776  10.602 -0.9607 -2.4494  0.7453
  444MOL0     H59888   7.924   7.793  10.698  0.9934  0.2884  0.0514
  444MOL0     H59889   7.965   7.751  10.452  0.0793  0.9617  0.5204
  444MOL0     H59890   7.923   7.578  10.488 -3.6613  1.9774  0.5083
  444MOL0     H59891   8.174   7.807  10.464 -2.0234  0.5843  1.7275
  444MOL0     H59892   8.404   7.862  10.691 -1.2031 -0.5003 -1.7118
  444MOL0     H59893   8.494   7.706  10.679  0.6175  0.6727 -0.4590
  444MOL0     H59894   8.471   7.933  10.469  0.8162 -0.5980  0.3969
  444MOL0     H59895   8.487   7.773  10.415  1.8743  1.2687 -1.1542
  444MOL0     H59896   8.713   7.867  10.455  1.0951  0.9997 -0.8024
  444MOL0     H59897   8.681   7.751  10.589 -1.5741  1.6538  2.3087
  444MOL0     H59898   8.777   7.990  10.646  0.9637 -2.2810 -2.9349
  444MOL0     H59899   8.620   7.944  10.732 -0.8271  0.8372  0.2976
  444MOL0     H59900   8.372   8.166  10.605  1.5733 -3.6490  0.1206
  444MOL0     H59901   8.174   8.244  10.711 -0.3308  0.5863  0.9639
  444MOL0     H59902   8.162   8.324  10.875  1.3313  2.2402  1.0718
  444MOL0     H59903   8.217   8.406  10.725  2.1007  2.8429  3.1774
  444MOL0     H59904   8.358   8.682  11.064  0.4571 -0.7765  0.1637
  444MOL0     H59905   8.347   8.882  11.217 -0.1045  0.7528 -0.1624
  444MOL0     H59906   8.569   9.063  11.539 -0.1502  2.1256 -3.5114
  444MOL0     H59907   8.628   8.888  11.572 -1.5944  0.3502 -0.7386
  444MOL0     H59908   8.773   8.928  11.356 -0.7095  0.5351  0.1022
  444MOL0     H59909   8.720   9.095  11.367 -0.3363 -1.1896 -0.8763
  444MOL0     H59910   8.943   9.081  11.468 -0.1110  0.1404  1.3160
  444MOL0     H59911   8.895   8.923  11.545  0.2317  0.2131  1.2961
  444MOL0     H59912   8.769   9.040  11.713 -2.4220  0.6807 -0.7264
  444MOL0     H59913   8.950   9.096  11.701  0.8539  0.7732 -0.5742
  444MOL0     H59914   8.730   9.252  11.589 -0.2007  0.1989  1.2526
  444MOL0     H59915   8.902   9.298  11.619 -0.9365  2.3710 -0.7257
  444MOL0     H59916   8.698   9.244  11.836 -1.4308 -0.4494 -1.5710
  444MOL0     H59917   8.857   9.313  11.863  1.3305 -0.3391 -1.7122
  444MOL0     H59918   8.619   9.448  11.721  0.0836 -1.1912 -0.4304
  444MOL0     H59919   8.792   9.492  11.687  1.2719 -1.7216  0.6888
  444MOL0     H59920   8.829   9.511  11.940 -2.2632 -2.7096  2.7750
  444MOL0     H59921   8.655   9.507  11.960  0.7260  0.7987  0.0378
  444MOL0     H59922   8.693   8.726  11.423 -0.4901 -2.8662  1.6920
  444MOL0     H59923   8.682   8.522  11.313 -0.5642 -0.9914  0.6896
  444MOL0     H59924   8.668   8.329  10.965 -1.4085 -0.5002  2.4044
  444MOL0     H59925   8.753   8.182  10.794  0.1493 -1.8080  3.5774
  444MOL0     H59926   7.043   7.389  10.624 -0.1714 -0.1404  0.2385
  444MOL0     H59927   6.817   7.458  10.706  1.4680 -0.7979  3.0858
  444MOL0     H59928   6.555   7.626  10.931 -1.1289 -1.7231  2.2366
  444MOL0     H59929   6.337   7.666  11.041 -2.3266  0.6463  0.7783
  444MOL0     H59930   6.127   7.998  11.229  1.7571  0.8410  0.6261
  444MOL0     H59931   6.268   8.058  11.157 -1.7708  1.7528 -0.1331
  444MOL0     H59932   6.115   8.085  10.947 -3.1103 -2.6457 -0.3797
  444MOL0     H59933   6.104   8.210  11.077 -2.2450 -0.1385  0.2731
  444MOL0     H59934   5.893   8.126  10.967 -1.0037 -0.7604  1.3261
  444MOL0     H59935   5.902   8.056  11.134  1.9749  1.7161  1.2990
  444MOL0     H59936   5.952   7.837  11.055 -0.0047 -2.8118 -3.4067
  444MOL0     H59937   5.994   7.893  10.889  0.1923 -0.3855 -0.5113
  444MOL0     H59938   5.571   7.867  10.886 -0.4469  3.6414  0.4058
  444MOL0     H59939   6.361   8.074  10.918  0.4776  0.0703  0.0169
  444MOL0     H59940   6.547   8.034  10.801 -1.0656 -1.4145 -1.4914
  445MOL0     O59941   6.193   7.954   3.785 -0.1212  0.2663  0.0620
  445MOL0     C59942   6.124   7.899   3.704 -0.0876 -0.9733 -0.9801
  445MOL0     O59943   6.065   7.961   3.599 -0.4465  0.7333 -0.1168
  445MOL0     C59944   6.087   8.094   3.563 -0.4642 -0.2938  0.5316
  445MOL0     C59945   6.114   8.107   3.428 -0.4397 -0.5139 -0.5439
  445MOL0     C59946   6.139   8.235   3.379  0.1066 -0.0458 -0.3836
  445MOL0     C59947   6.133   8.347   3.460 -0.5076  0.0226 -0.1086
  445MOL0     O59948   6.163   8.467   3.403 -0.3796  0.1668  0.3582
  445MOL0     C59949   6.273   8.549   3.443 -0.3301 -0.8228  0.2695
  445MOL0     C59950   6.329   8.608   3.314 -0.2326 -0.1158  0.8268
  445MOL0     C59951   6.474   8.650   3.327 -0.1704 -0.9669  0.0817
  445MOL0     C59952   6.505   8.736   3.452  0.4304 -0.5100  0.3459
  445MOL0     C59953   6.651   8.756   3.467 -0.0113 -0.3589 -0.7454
  445MOL0     C59954   6.712   8.848   3.365 -0.4316 -0.6202  0.0765
  445MOL0     C59955   6.864   8.822   3.347 -0.0544  0.0366 -0.2964
  445MOL0     C59956   6.911   8.947   3.266  0.2408  0.0937 -0.3377
  445MOL0     N59957   7.053   8.944   3.242 -0.9570  0.6120  1.4394
  445MOL0     C59958   7.160   8.958   3.337  0.6523  0.1971 -0.4221
  445MOL0     C59959   7.272   8.966   3.266  0.1770 -0.4511 -0.4709
  445MOL0     C59960   7.415   8.964   3.315  0.2549 -0.2809  0.1617
  445MOL0     C59961   7.468   9.107   3.352 -0.2385  0.0794  0.3254
  445MOL0     C59962   7.371   9.199   3.439 -1.3673 -0.1910  0.4637
  445MOL0     C59963   7.369   9.151   3.589 -0.3164 -0.1201 -0.7508
  445MOL0     O59964   7.374   9.251   3.693 -0.2337 -1.3258  0.1637
  445MOL0     C59965   7.271   9.308   3.753  0.5332 -0.3431 -0.1650
  445MOL0     C59966   7.135   9.268   3.761 -0.4734 -1.1069 -0.4872
  445MOL0     C59967   7.038   9.336   3.826  0.4422 -1.5086 -0.0038
  445MOL0     C59968   6.906   9.260   3.827  0.8397  0.0754  0.3242
  445MOL0     C59969   7.066   9.449   3.895 -0.1721 -0.7421  0.3685
  445MOL0     C59970   6.962   9.537   3.965  0.4932 -0.3915  0.2660
  445MOL0     O59971   7.003   9.651   4.019 -0.9834 -0.1768 -0.0979
  445MOL0     C59972   6.913   9.742   4.078  0.5996  0.2310 -0.2279
  445MOL0     C59973   6.835   9.834   4.000 -0.3213  0.2414  0.1235
  445MOL0     C59974   6.754   9.924   4.048 -0.3715 -0.3751  0.5511
  445MOL0     C59975   6.738   9.940   4.179 -0.2734  0.3591 -0.5763
  445MOL0     O59976   6.658  10.036   4.232  0.7846 -0.3356 -0.0681
  445MOL0     C59977   6.624  10.025   4.378 -0.1103  0.7469  0.4058
  445MOL0     C59978   6.531  10.137   4.429 -0.6234 -0.7969  1.0496
  445MOL0     C59979   6.400  10.083   4.507  0.6757 -0.3380  0.1834
  445MOL0     C59980   6.434   9.999   4.630 -0.0176 -0.0391 -0.4084
  445MOL0     C59981   6.518  10.072   4.729  0.5658  0.2826 -0.8022
  445MOL0     C59982   6.529   9.994   4.856 -0.3766 -0.0836  0.1676
  445MOL0     C59983   6.397   9.991   4.940 -0.6207  0.3803 -0.5735
  445MOL0     C59984   6.409   9.921   5.071 -0.4351  0.6742  0.7686
  445MOL0    Cl59985   6.270   9.960   5.176 -0.0735  0.1994 -0.5289
  445MOL0     C59986   6.804   9.848   4.267 -0.3732  0.2474 -0.4911
  445MOL0     C59987   6.896   9.756   4.215  0.0207 -0.9251 -0.0439
  445MOL0     O59988   6.851   9.494   3.989  0.1903 -0.3471 -0.1901
  445MOL0     C59989   7.197   9.494   3.887  0.1907 -0.4514 -0.0362
  445MOL0     C59990   7.296   9.415   3.826 -0.5140 -0.0885  0.1154
  445MOL0     N59991   7.240   8.947   3.125  0.0262  0.3832 -0.7605
  445MOL0     N59992   7.110   8.942   3.122 -0.5620 -0.5847  1.0203
  445MOL0     C59993   6.102   8.333   3.593 -0.0912 -0.3921  0.4618
  445MOL0     C59994   6.081   8.204   3.645  0.3377 -0.0948  0.4923
  445MOL0     C59995   6.099   7.760   3.714  0.0735 -0.5225  1.1539
  445MOL0     C59996   6.143   7.674   3.614  0.6446 -0.7204  0.8770
  445MOL0     C59997   6.113   7.534   3.624 -0.2234 -0.1975  0.0807
  445MOL0     C59998   6.055   7.482   3.745 -0.1670  0.0332  0.1604
  445MOL0     O59999   6.044   7.344   3.768  0.4517 -0.8160 -0.3339
  445MOL0     C60000   6.112   7.252   3.683  0.2666 -0.0349  0.8323
  445MOL0     C60001   6.263   7.262   3.679 -0.8139 -0.4395 -0.4793
  445MOL0     C60002   6.324   7.241   3.815 -0.0191 -0.8589 -0.4163
  445MOL0     C60003   6.475   7.250   3.821 -0.1054  0.0004 -0.5843
  445MOL0     C60004   6.526   7.380   3.786  0.1600  0.1041 -0.9319
  445MOL0     C60005   6.587   7.488   3.772 -0.0100  0.9689 -0.3043
  445MOL0     C60006   6.021   7.566   3.848 -0.6790  0.2383  0.7504
  445MOL0     C60007   6.049   7.703   3.835 -0.1467 -0.1619 -0.3225
  445MOL0     H60008   6.112   8.019   3.365  0.1871 -0.9628  0.0459
  445MOL0     H60009   6.162   8.252   3.274  1.4877 -2.6179 -0.5759
  445MOL0     H60010   6.228   8.627   3.506 -0.9644  0.2303 -1.3997
  445MOL0     H60011   6.340   8.489   3.504 -1.9154 -0.3832  2.5975
  445MOL0     H60012   6.317   8.533   3.236 -1.2749 -0.4215  1.2696
  445MOL0     H60013   6.278   8.694   3.272  2.5832  1.1672 -0.2428
  445MOL0     H60014   6.549   8.570   3.335  1.8574  0.9650  1.9429
  445MOL0     H60015   6.499   8.698   3.232  2.7442 -3.9003 -0.8450
  445MOL0     H60016   6.449   8.827   3.433 -0.4801 -1.0183  0.5349
  445MOL0     H60017   6.466   8.695   3.546 -1.6935  1.8952  0.5962
  445MOL0     H60018   6.661   8.812   3.560  1.9277  1.3753 -1.9081
  445MOL0     H60019   6.704   8.661   3.479  0.7553  0.2980  1.8226
  445MOL0     H60020   6.678   8.833   3.263  0.4902  1.3294 -0.5696
  445MOL0     H60021   6.706   8.951   3.399  0.7240 -0.4326 -0.2220
  445MOL0     H60022   6.917   8.827   3.443 -2.5475  4.0866  1.1154
  445MOL0     H60023   6.886   8.733   3.287 -3.2213 -2.9803  2.6484
  445MOL0     H60024   6.896   9.043   3.317 -3.6748 -1.2426  1.4255
  445MOL0     H60025   6.852   8.959   3.175  1.1174  1.3363 -0.7756
  445MOL0     H60026   7.157   8.977   3.444  0.1989  1.1551 -0.5983
  445MOL0     H60027   7.413   8.901   3.404 -0.6674  0.1186  0.4347
  445MOL0     H60028   7.479   8.913   3.243 -1.4565 -0.5357 -1.2394
  445MOL0     H60029   7.497   9.169   3.267 -2.6534  2.3106  0.9819
  445MOL0     H60030   7.557   9.090   3.413 -0.0336 -0.7028 -0.1896
  445MOL0     H60031   7.277   9.213   3.387  0.3636  3.9764 -2.0091
  445MOL0     H60032   7.408   9.302   3.438  1.6998 -1.1728 -1.3202
  445MOL0     H60033   7.454   9.087   3.611 -0.9967 -0.0632  2.4082
  445MOL0     H60034   7.278   9.092   3.607  0.2568 -1.5187 -2.1814
  445MOL0     H60035   7.114   9.178   3.704 -0.6251 -3.0935  2.4916
  445MOL0     H60036   6.903   9.169   3.767  0.1458  0.8197 -0.8030
  445MOL0     H60037   6.875   9.242   3.930  0.5648  1.7897  0.5816
  445MOL0     H60038   6.831   9.331   3.791  1.2082 -0.2836 -1.2321
  445MOL0     H60039   6.844   9.836   3.892  0.2851  1.0999  0.1720
  445MOL0     H60040   6.699   9.993   3.985 -0.1796 -0.5025  0.2408
  445MOL0     H60041   6.568   9.932   4.390 -3.0860  2.3113 -0.4064
  445MOL0     H60042   6.709  10.035   4.447 -1.0778 -1.2758  2.0128
  445MOL0     H60043   6.578  10.199   4.506 -4.7286  1.1190  2.3315
  445MOL0     H60044   6.503  10.212   4.354  2.0869  3.7129  4.0634
  445MOL0     H60045   6.351  10.015   4.437  2.4238 -1.8808  0.3712
  445MOL0     H60046   6.331  10.162   4.537 -0.5932 -1.6319  0.8118
  445MOL0     H60047   6.345   9.948   4.669  2.8330 -3.4931  2.1508
  445MOL0     H60048   6.505   9.927   4.592  0.1759  0.9952 -2.1049
  445MOL0     H60049   6.489  10.176   4.744 -1.3258 -0.6235  3.2677
  445MOL0     H60050   6.622  10.079   4.698  1.3766  0.9390  1.7828
  445MOL0     H60051   6.554   9.893   4.822 -0.0113  1.3798 -4.7164
  445MOL0     H60052   6.611  10.034   4.916 -1.9804 -0.2725  2.6383
  445MOL0     H60053   6.313   9.943   4.890  0.9685 -0.7573 -2.2982
  445MOL0     H60054   6.371  10.093   4.969 -0.3707  0.1007  0.7144
  445MOL0     H60055   6.505   9.943   5.118  1.6741 -0.4534 -2.6244
  445MOL0     H60056   6.411   9.812   5.069  2.9299  0.4613  4.3554
  445MOL0     H60057   6.795   9.847   4.376  0.2453  0.9794 -0.4222
  445MOL0     H60058   6.937   9.686   4.287  3.1426 -0.4449 -1.2207
  445MOL0     H60059   7.237   9.582   3.937  1.5292 -2.1812  2.1352
  445MOL0     H60060   7.401   9.439   3.826  0.3129 -3.1577 -1.8286
  445MOL0     H60061   6.086   8.412   3.666 -0.1968  0.3802 -0.3762
  445MOL0     H60062   6.060   8.181   3.749  1.0678 -0.7191  0.5066
  445MOL0     H60063   6.202   7.715   3.532 -0.2693 -1.2948 -0.0923
  445MOL0     H60064   6.135   7.466   3.543 -0.8601 -0.9245  0.5091
  445MOL0     H60065   6.090   7.152   3.720 -5.1973  0.6661  0.3028
  445MOL0     H60066   6.075   7.269   3.581  0.0725 -0.2473  0.8682
  445MOL0     H60067   6.292   7.363   3.646  0.4751 -0.4729  0.4758
  445MOL0     H60068   6.297   7.188   3.606 -3.6583 -4.5074  1.9149
  445MOL0     H60069   6.304   7.143   3.862 -2.2563 -0.0742  0.4345
  445MOL0     H60070   6.276   7.315   3.880  0.1123 -0.2528 -1.0051
  445MOL0     H60071   6.524   7.180   3.753  1.8810  1.2341 -0.4911
  445MOL0     H60072   6.495   7.224   3.926 -0.4894  0.6019 -0.3584
  445MOL0     H60073   6.649   7.575   3.765  0.9771  0.2436 -0.8460
  445MOL0     H60074   5.987   7.502   3.929 -1.9152 -2.4814 -1.7108
  445MOL0     H60075   6.030   7.769   3.920  2.5166  0.5023 -0.1754
  446MOL0     O60076   6.255   3.694  10.584 -0.0006 -0.4647  0.7265
  446MOL0     C60077   6.191   3.686  10.688 -0.2708  0.1503  0.3294
  446MOL0     O60078   6.238   3.661  10.816  0.6272 -0.2013 -0.0621
  446MOL0     C60079   6.372   3.639  10.832  0.6384 -0.4038 -1.0005
  446MOL0     C60080   6.425   3.515  10.793 -0.1201  0.3319  0.4767
  446MOL0     C60081   6.548   3.480  10.847  0.7571 -0.2189 -0.7067
  446MOL0     C60082   6.616   3.565  10.929 -0.4400  0.6778  0.1169
  446MOL0     O60083   6.742   3.537  10.976  0.6054 -0.1655 -0.4761
  446MOL0     C60084   6.821   3.439  10.918  0.0564 -0.7019  0.7293
  446MOL0     C60085   6.959   3.469  10.946 -0.3395 -0.5092 -0.8450
  446MOL0     C60086   7.056   3.413  10.844 -0.0315  1.2448 -0.3514
  446MOL0     C60087   7.090   3.264  10.876 -0.6403  0.1695 -0.2673
  446MOL0     C60088   7.213   3.204  10.814 -0.4281  0.0677 -1.3052
  446MOL0     C60089   7.346   3.250  10.888  0.6841 -0.1761 -0.0621
  446MOL0     C60090   7.460   3.166  10.851  0.0990 -0.0466 -0.2057
  446MOL0     C60091   7.493   3.187  10.696  0.3165 -0.7027 -0.6316
  446MOL0     N60092   7.629   3.126  10.667  0.3856  0.2500 -0.5627
  446MOL0     C60093   7.745   3.203  10.665  0.8454 -0.5477  0.4264
  446MOL0     C60094   7.841   3.129  10.612  0.6386  0.4844  0.1362
  446MOL0     C60095   7.983   3.174  10.599  0.1607 -0.0040 -0.6582
  446MOL0     C60096   8.048   3.200  10.729  1.4304 -0.3445 -0.5777
  446MOL0     C60097   8.051   3.082  10.823  0.4311  0.7598 -0.8869
  446MOL0     C60098   8.133   3.116  10.960  0.8912 -0.5432 -0.5474
  446MOL0     O60099   8.069   3.225  11.025 -1.0307  0.9372  0.2836
  446MOL0     C60100   8.142   3.282  11.132  0.5486  0.1818 -0.0563
  446MOL0     C60101   8.248   3.226  11.199  0.1386  0.6343  0.1491
  446MOL0     C60102   8.321   3.291  11.295  0.1727  0.2086 -0.2790
  446MOL0     C60103   8.448   3.222  11.357  0.5224  0.2158  0.1235
  446MOL0     C60104   8.293   3.423  11.329  0.8339  0.7054  0.0948
  446MOL0     C60105   8.374   3.521  11.411  0.7786 -0.2662 -0.5404
  446MOL0     O60106   8.303   3.632  11.456  0.5295 -0.1561 -0.3548
  446MOL0     C60107   8.334   3.732  11.544  0.7137 -0.5528  1.1678
  446MOL0     C60108   8.243   3.832  11.557  0.4939 -0.5748  0.0702
  446MOL0     C60109   8.268   3.945  11.629  0.4951  0.5676 -0.2836
  446MOL0     C60110   8.382   3.965  11.697 -0.7731 -0.5998 -0.5413
  446MOL0     O60111   8.415   4.081  11.767  0.5555  0.8006  0.9296
  446MOL0     C60112   8.479   4.183  11.696 -0.4089  0.0482  0.6050
  446MOL0     C60113   8.384   4.279  11.627 -0.6292 -0.0977 -0.3810
  446MOL0     C60114   8.260   4.339  11.706  0.8701  0.1514 -0.7262
  446MOL0     C60115   8.313   4.433  11.824 -0.7140 -0.3533 -0.5220
  446MOL0     C60116   8.194   4.461  11.913  0.7140 -0.3912  0.6670
  446MOL0     C60117   8.247   4.550  12.029  0.7506  0.1287  0.0663
  446MOL0     C60118   8.207   4.699  12.011 -0.0330  0.8049 -0.2737
  446MOL0     C60119   8.269   4.797  12.105 -0.1922 -0.2682 -0.4707
  446MOL0    Cl60120   8.453   4.816  12.069 -0.2950  0.6826 -0.4218
  446MOL0     C60121   8.477   3.856  11.693  0.8672 -0.3460  0.2468
  446MOL0     C60122   8.449   3.741  11.625 -0.0874  0.9281 -0.2354
  446MOL0     O60123   8.479   3.490  11.466  0.0015  1.6378  0.4518
  446MOL0     C60124   8.171   3.482  11.264 -0.8376  0.2657 -0.0159
  446MOL0     C60125   8.113   3.411  11.163  0.9274  0.4689 -0.4140
  446MOL0     N60126   7.785   3.015  10.562 -0.3846 -0.3223 -0.0701
  446MOL0     N60127   7.664   3.016  10.593  0.9374  0.1682 -0.0096
  446MOL0     C60128   6.564   3.691  10.951  0.0180 -0.4913 -0.1105
  446MOL0     C60129   6.440   3.724  10.914  1.0688  0.3548  1.1440
  446MOL0     C60130   6.053   3.734  10.676  0.8097  0.3936  0.6259
  446MOL0     C60131   5.984   3.755  10.791 -1.0198  0.2313  0.0775
  446MOL0     C60132   5.862   3.807  10.800  0.1551 -0.2953  0.7276
  446MOL0     C60133   5.793   3.841  10.675  0.6740 -0.0112 -0.0754
  446MOL0     O60134   5.665   3.884  10.688 -0.4901  0.1552 -0.5380
  446MOL0     C60135   5.602   3.988  10.611  0.1523 -0.3134  0.3079
  446MOL0     C60136   5.463   3.926  10.578 -0.8651  0.3874  0.1307
  446MOL0     C60137   5.368   3.953  10.688 -0.1946 -0.8357 -0.4105
  446MOL0     C60138   5.292   3.837  10.741  1.2107  0.2032 -0.2550
  446MOL0     C60139   5.158   3.819  10.683 -0.2181 -0.2642 -0.0019
  446MOL0     C60140   5.038   3.829  10.657  0.7639  0.0821 -0.3520
  446MOL0     C60141   5.854   3.828  10.553 -0.7393  0.5801  1.0639
  446MOL0     C60142   5.984   3.772  10.549  0.9786 -0.0118  0.0532
  446MOL0     H60143   6.370   3.443  10.733 -3.0042  2.2501  0.5936
  446MOL0     H60144   6.607   3.396  10.811  2.1185  0.7551 -0.8189
  446MOL0     H60145   6.812   3.340  10.964  0.9931 -0.6926  0.9537
  446MOL0     H60146   6.798   3.428  10.812  4.5622 -0.6596 -0.4547
  446MOL0     H60147   6.987   3.573  10.928  1.0288 -0.4746  1.1594
  446MOL0     H60148   6.984   3.437  11.048 -0.0539  0.4297 -0.6141
  446MOL0     H60149   7.018   3.424  10.741 -1.3724  0.6734  0.0499
  446MOL0     H60150   7.150   3.466  10.854 -0.0679  1.6147 -1.7874
  446MOL0     H60151   7.099   3.249  10.984  3.2124 -0.2904 -0.5030
  446MOL0     H60152   7.001   3.213  10.838  0.6207 -3.0239  0.7166
  446MOL0     H60153   7.216   3.096  10.832  0.3828  0.0286 -1.6164
  446MOL0     H60154   7.222   3.223  10.707  2.1551  1.0183 -0.9810
  446MOL0     H60155   7.369   3.355  10.871  1.7378  0.4041  3.8901
  446MOL0     H60156   7.329   3.235  10.995  1.9582 -2.3871 -0.1114
  446MOL0     H60157   7.545   3.174  10.919  2.6846 -3.5926 -2.6668
  446MOL0     H60158   7.432   3.060  10.855  1.0148 -0.4079 -2.3147
  446MOL0     H60159   7.460   3.285  10.663  0.4492  0.3218  2.0048
  446MOL0     H60160   7.431   3.112  10.645 -1.9889  1.5103 -1.3171
  446MOL0     H60161   7.767   3.298  10.713  2.4827 -1.8154  2.3398
  446MOL0     H60162   8.040   3.095  10.550  2.3220  1.8455 -1.2904
  446MOL0     H60163   7.987   3.265  10.539  1.5840 -0.6854 -1.6365
  446MOL0     H60164   8.005   3.289  10.775  0.2797  1.6709 -5.0857
  446MOL0     H60165   8.148   3.230  10.696  3.4857 -2.8363  2.6505
  446MOL0     H60166   8.117   3.006  10.781 -0.8482 -0.1455 -1.3173
  446MOL0     H60167   7.952   3.039  10.846  0.9822 -3.9218 -5.4245
  446MOL0     H60168   8.235   3.143  10.931  1.3162 -0.2843  1.0991
  446MOL0     H60169   8.132   3.028  11.024 -0.7932 -1.0099 -1.1694
  446MOL0     H60170   8.272   3.120  11.190 -1.5214  0.1501  0.8512
  446MOL0     H60171   8.465   3.234  11.465 -3.0912 -1.8479  1.1226
  446MOL0     H60172   8.455   3.117  11.327 -0.9241  0.9001 -3.0515
  446MOL0     H60173   8.537   3.266  11.312  0.9423  0.5481  1.2441
  446MOL0     H60174   8.154   3.830  11.496  1.4751  0.2437 -1.4440
  446MOL0     H60175   8.187   4.016  11.644  1.7221  2.0350 -0.3622
  446MOL0     H60176   8.538   4.245  11.765  1.2004 -1.0826  0.3057
  446MOL0     H60177   8.537   4.145  11.611 -0.5548  0.7219  0.1911
  446MOL0     H60178   8.450   4.352  11.579 -1.7493  0.2155 -1.5037
  446MOL0     H60179   8.335   4.234  11.540 -0.8609  1.0945 -0.8940
  446MOL0     H60180   8.210   4.257  11.758  1.0717  0.5914  0.1843
  446MOL0     H60181   8.193   4.395  11.640  1.0509  0.1095 -0.9457
  446MOL0     H60182   8.381   4.374  11.886  0.3299 -1.4265 -2.5855
  446MOL0     H60183   8.360   4.529  11.798  1.0796  0.0718  3.5699
  446MOL0     H60184   8.140   4.375  11.951 -3.7173  2.4275  1.4233
  446MOL0     H60185   8.114   4.505  11.853 -1.9115 -0.3325  3.9501
  446MOL0     H60186   8.205   4.511  12.122 -1.7655  0.6271 -0.7974
  446MOL0     H60187   8.356   4.538  12.037  0.8214 -0.2507 -1.2550
  446MOL0     H60188   8.101   4.702  12.035  0.5576 -0.8386  3.0878
  446MOL0     H60189   8.218   4.735  11.908  1.9310  1.7414  0.2138
  446MOL0     H60190   8.272   4.749  12.203  2.5032  0.0719 -0.3121
  446MOL0     H60191   8.209   4.888  12.096  0.8745  0.5890  0.6663
  446MOL0     H60192   8.572   3.859  11.746  0.5071 -1.6943  1.0228
  446MOL0     H60193   8.522   3.662  11.643 -1.3961  0.1973  2.4563
  446MOL0     H60194   8.150   3.588  11.270 -1.7514  0.1369 -0.6312
  446MOL0     H60195   8.033   3.463  11.111 -0.2395 -1.2521 -0.4525
  446MOL0     H60196   6.615   3.761  11.017 -1.3028  0.5894 -0.1948
  446MOL0     H60197   6.389   3.809  10.958  1.8321  2.2266 -1.4150
  446MOL0     H60198   6.032   3.726  10.883  2.6170 -0.3104 -1.8234
  446MOL0     H60199   5.813   3.815  10.896  0.8911 -2.3857  1.3236
  446MOL0     H60200   5.609   4.088  10.654 -0.7197  0.2564 -0.8387
  446MOL0     H60201   5.664   4.000  10.522 -0.7407  1.3865 -0.1121
  446MOL0     H60202   5.485   3.819  10.575 -2.9114 -0.0775  0.2982
  446MOL0     H60203   5.430   3.961  10.480 -0.5596  0.9067  0.2096
  446MOL0     H60204   5.301   4.023  10.637 -2.2709 -2.9633 -0.8031
  446MOL0     H60205   5.424   4.000  10.769  1.4422  0.4006 -2.1612
  446MOL0     H60206   5.277   3.842  10.850 -3.5930 -2.5384 -0.5488
  446MOL0     H60207   5.349   3.743  10.738  2.6331  0.6623  4.0890
  446MOL0     H60208   4.933   3.834  10.635  1.2118 -0.2205 -2.9122
  446MOL0     H60209   5.795   3.847  10.464  0.0178 -1.4103  0.0715
  446MOL0     H60210   6.042   3.759  10.458  0.5952  0.6668 -0.2955
  447MOL0     O60211   8.125   8.839  10.769  0.3956  0.1669 -0.9839
  447MOL0     C60212   8.007   8.861  10.748 -0.1344  0.7003 -0.0601
  447MOL0     O60213   7.901   8.817  10.826  0.2259  0.2845 -0.1932
  447MOL0     C60214   7.928   8.707  10.908  0.6556 -0.7825 -0.3659
  447MOL0     C60215   8.005   8.732  11.031  0.5297  0.3377 -0.0439
  447MOL0     C60216   8.010   8.634  11.126  0.5294  1.2506 -0.1946
  447MOL0     C60217   7.960   8.505  11.105 -0.0612  0.2120  0.2156
  447MOL0     O60218   7.964   8.410  11.206 -0.2130 -0.1299  0.5622
  447MOL0     C60219   8.074   8.324  11.206 -0.0909 -0.5679 -0.0379
  447MOL0     C60220   8.058   8.204  11.290 -0.7896 -0.7359 -0.3459
  447MOL0     C60221   8.132   8.097  11.221  0.5302  0.0454  0.3496
  447MOL0     C60222   8.170   7.992  11.338  0.4985  0.7090 -0.5566
  447MOL0     C60223   8.233   7.881  11.263 -0.5457  1.6212 -0.8747
  447MOL0     C60224   8.134   7.789  11.187 -0.1291  0.5301  0.3299
  447MOL0     C60225   8.207   7.647  11.151 -0.9011 -0.7382  0.1197
  447MOL0     C60226   8.277   7.643  11.011  0.2419  0.2644  0.7724
  447MOL0     N60227   8.388   7.733  10.980 -0.5142 -0.3589 -0.1360
  447MOL0     C60228   8.517   7.715  11.027  1.1070  0.2355 -0.4840
  447MOL0     C60229   8.583   7.831  11.018 -1.0238 -0.7289  0.4162
  447MOL0     C60230   8.720   7.851  11.079  0.7272 -1.5850  0.0898
  447MOL0     C60231   8.723   7.963  11.186 -0.9082 -0.0752 -0.6232
  447MOL0     C60232   8.619   7.945  11.303 -0.2628 -0.6131  0.1348
  447MOL0     C60233   8.573   8.094  11.330 -0.6729  0.1338  0.6999
  447MOL0     O60234   8.498   8.097  11.450  0.7274  0.4867  0.3457
  447MOL0     C60235   8.422   8.204  11.487 -0.8123  0.0674 -0.1438
  447MOL0     C60236   8.348   8.195  11.603  1.3110 -0.6441  0.7007
  447MOL0     C60237   8.288   8.311  11.661  0.2478 -0.5594 -0.4607
  447MOL0     C60238   8.233   8.304  11.804 -0.3206  0.6655  0.3220
  447MOL0     C60239   8.300   8.434  11.587 -0.1279 -0.3294 -0.2404
  447MOL0     C60240   8.249   8.552  11.645 -0.0713  0.2971 -1.1877
  447MOL0     O60241   8.338   8.646  11.640 -0.4171 -0.0082 -0.4195
  447MOL0     C60242   8.318   8.779  11.676 -0.1712 -0.1319 -0.2886
  447MOL0     C60243   8.371   8.840  11.788  0.7636  0.5251  1.1796
  447MOL0     C60244   8.349   8.981  11.814  0.4175  0.7687  0.6563
  447MOL0     C60245   8.277   9.055  11.720  0.5975 -1.1979  0.4529
  447MOL0     O60246   8.269   9.191  11.741  0.1814 -0.0418 -0.1581
  447MOL0     C60247   8.383   9.256  11.673 -0.2004 -0.3718 -0.4562
  447MOL0     C60248   8.367   9.259  11.522 -0.0571 -0.4388 -0.1229
  447MOL0     C60249   8.227   9.328  11.467 -0.5432 -0.7523 -0.1319
  447MOL0     C60250   8.200   9.478  11.509 -0.0223  0.1038  1.0617
  447MOL0     C60251   8.071   9.541  11.459 -0.2929 -0.5479  0.0388
  447MOL0     C60252   8.069   9.688  11.506  0.0577 -0.0226 -0.2539
  447MOL0     C60253   7.928   9.729  11.485  1.2148 -0.2655  0.2927
  447MOL0     C60254   7.900   9.873  11.532  0.1366 -0.4107  0.5459
  447MOL0    Cl60255   7.883   9.883  11.707  0.5420  0.2220 -0.1898
  447MOL0     C60256   8.215   8.993  11.613  0.3008 -0.4187 -0.4172
  447MOL0     C60257   8.236   8.853  11.595 -1.1206 -0.3886 -0.6141
  447MOL0     O60258   8.135   8.569  11.696 -0.0407  0.3144  0.0791
  447MOL0     C60259   8.359   8.439  11.462  0.7992  0.3003  0.5058
  447MOL0     C60260   8.426   8.329  11.417 -0.1138 -0.2672  0.4285
  447MOL0     N60261   8.490   7.920  10.971  0.7001  0.2330  0.2678
  447MOL0     N60262   8.372   7.866  10.950  0.1554  0.1986  0.0945
  447MOL0     C60263   7.874   8.493  10.989  0.0168 -0.2265 -0.2940
  447MOL0     C60264   7.867   8.588  10.891 -1.5677 -0.4942  1.2459
  447MOL0     C60265   7.978   8.949  10.628  0.6713  0.7100 -0.2693
  447MOL0     C60266   8.072   8.978  10.532  0.7024 -0.2807  0.2603
  447MOL0     C60267   8.047   9.079  10.433  0.4375 -0.4323 -0.3862
  447MOL0     C60268   7.930   9.151  10.433  0.5885  1.2949  0.2152
  447MOL0     O60269   7.904   9.249  10.342  0.6186 -0.1799  0.0913
  447MOL0     C60270   7.812   9.357  10.376 -0.3639  0.4422 -0.1196
  447MOL0     C60271   7.801   9.451  10.255  0.1065  1.1390 -0.9984
  447MOL0     C60272   7.939   9.488  10.195  1.0686 -1.1214  1.4439
  447MOL0     C60273   7.904   9.604  10.096 -0.1217 -0.2096 -0.0491
  447MOL0     C60274   8.004   9.716  10.112  0.0276 -0.0747 -0.2666
  447MOL0     C60275   8.078   9.809  10.112 -0.3946 -0.4675 -0.6837
  447MOL0     C60276   7.835   9.111  10.525  1.0758 -0.6611  0.7553
  447MOL0     C60277   7.851   9.008  10.618 -1.2585 -0.3637  0.3426
  447MOL0     H60278   8.047   8.831  11.045 -0.9834  0.8044  1.6045
  447MOL0     H60279   8.059   8.647  11.222 -2.4490 -0.7100  1.7484
  447MOL0     H60280   8.080   8.289  11.102 -0.6441 -0.9509  0.0533
  447MOL0     H60281   8.166   8.378  11.228 -2.5434  2.4489  4.3862
  447MOL0     H60282   8.106   8.226  11.386 -1.5380  1.1809 -0.3553
  447MOL0     H60283   7.959   8.167  11.316 -0.7517 -0.4280  0.2541
  447MOL0     H60284   8.075   8.055  11.138 -2.3264  1.6135  1.3875
  447MOL0     H60285   8.228   8.132  11.182 -0.8642  3.2687 -0.5244
  447MOL0     H60286   8.240   8.031  11.413  0.2377 -1.4092  0.8845
  447MOL0     H60287   8.084   7.970  11.402 -0.6454 -0.8223 -2.4894
  447MOL0     H60288   8.300   7.931  11.192 -0.4102 -0.4720 -2.3026
  447MOL0     H60289   8.284   7.819  11.338 -0.9878  3.9846  1.5276
  447MOL0     H60290   8.050   7.776  11.256  0.3191  2.8394  1.4301
  447MOL0     H60291   8.092   7.842  11.101  0.7932  5.1136  2.4019
  447MOL0     H60292   8.278   7.628  11.232  0.4280 -1.2425 -1.1144
  447MOL0     H60293   8.138   7.562  11.153  0.2923 -1.7279  1.8026
  447MOL0     H60294   8.195   7.665  10.942  1.8158  3.4798 -0.2822
  447MOL0     H60295   8.315   7.543  10.991  0.5449 -0.1854  3.2935
  447MOL0     H60296   8.555   7.623  11.070  2.0579  1.8039  2.3167
  447MOL0     H60297   8.757   7.754  11.116  2.6257 -1.3948 -1.1425
  447MOL0     H60298   8.786   7.874  10.994  1.3115 -2.4840  0.2788
  447MOL0     H60299   8.700   8.060  11.142  0.5284  1.3898  1.6508
  447MOL0     H60300   8.825   7.951  11.224 -0.6667 -0.3127 -1.3292
  447MOL0     H60301   8.657   7.893  11.392  0.1472  0.1376  0.4092
  447MOL0     H60302   8.533   7.884  11.277  0.0620 -1.7418  1.5575
  447MOL0     H60303   8.529   8.139  11.240 -0.4360  1.5119  1.2488
  447MOL0     H60304   8.663   8.149  11.359 -2.4321  2.8485  1.3280
  447MOL0     H60305   8.336   8.102  11.657 -0.4017 -1.5610 -1.1387
  447MOL0     H60306   8.124   8.292  11.809 -0.1129 -1.0710  1.3646
  447MOL0     H60307   8.282   8.222  11.857 -0.9714  2.4570  3.9988
  447MOL0     H60308   8.257   8.391  11.865 -0.7137  0.2529  1.0742
  447MOL0     H60309   8.434   8.793  11.863  5.8494  3.8076 -0.4813
  447MOL0     H60310   8.387   9.027  11.905  1.6282  1.7072 -0.2924
  447MOL0     H60311   8.395   9.360  11.706 -0.5504 -1.5164  3.8116
  447MOL0     H60312   8.475   9.206  11.706 -2.8039 -3.8063  2.4221
  447MOL0     H60313   8.448   9.319  11.480 -1.8601  0.7092 -2.2355
  447MOL0     H60314   8.378   9.158  11.481  3.6880 -1.1778  2.2383
  447MOL0     H60315   8.143   9.268  11.503 -0.8208 -2.9716 -3.9070
  447MOL0     H60316   8.227   9.320  11.358  2.3065  0.2250 -0.2912
  447MOL0     H60317   8.195   9.477  11.618 -1.0550 -3.8553  1.1102
  447MOL0     H60318   8.290   9.530  11.473  1.1678  0.2952  4.0283
  447MOL0     H60319   7.990   9.494  11.516 -0.7950  1.8199  1.3899
  447MOL0     H60320   8.061   9.529  11.350 -0.0341 -0.2265 -0.0208
  447MOL0     H60321   8.082   9.701  11.614 -1.6535 -0.7945  0.0692
  447MOL0     H60322   8.132   9.755  11.447 -0.2285  0.6006  0.1331
  447MOL0     H60323   7.856   9.656  11.523  3.0019 -1.2792  1.8535
  447MOL0     H60324   7.907   9.749  11.379  0.6239  1.8751  0.7625
  447MOL0     H60325   7.809   9.909  11.483 -0.2191 -1.1171  0.6848
  447MOL0     H60326   7.973   9.948  11.497  0.1045 -1.0658 -0.9886
  447MOL0     H60327   8.154   9.047  11.541 -0.8697  2.5775  2.5653
  447MOL0     H60328   8.179   8.802  11.519  1.1537 -1.7924 -1.4929
  447MOL0     H60329   8.364   8.537  11.414  0.3676 -0.4804 -1.1914
  447MOL0     H60330   8.486   8.351  11.330 -2.4988  4.2535 -0.3770
  447MOL0     H60331   7.812   8.404  10.979 -0.1397 -0.2364  0.6317
  447MOL0     H60332   7.830   8.557  10.794 -1.3347 -1.0514  1.3360
  447MOL0     H60333   8.174   8.941  10.529  0.0295 -2.1977 -2.2232
  447MOL0     H60334   8.124   9.112  10.363 -0.7990 -0.2737 -1.7087
  447MOL0     H60335   7.714   9.323  10.410  1.1255 -3.0170  1.2154
  447MOL0     H60336   7.854   9.401  10.467 -0.8598 -0.4347  0.5459
  447MOL0     H60337   7.733   9.528  10.293 -0.2825  0.3761 -0.1018
  447MOL0     H60338   7.734   9.398  10.188 -0.6339 -0.6785  1.0459
  447MOL0     H60339   7.994   9.410  10.142  0.0901  0.5129 -2.2583
  447MOL0     H60340   7.993   9.531  10.280 -0.7367  1.6348  1.3057
  447MOL0     H60341   7.803   9.633  10.125  0.1469 -0.1168  0.8043
  447MOL0     H60342   7.900   9.569   9.992 -0.6198  1.2013 -0.5300
  447MOL0     H60343   8.154   9.885  10.111 -0.8841  0.0364 -1.4359
  447MOL0     H60344   7.732   9.144  10.535  0.9977 -1.5797  5.5276
  447MOL0     H60345   7.777   8.989  10.695 -0.9465 -2.8392  0.0942
  448MOL0     O60346   8.289   8.569   2.629 -0.0675 -0.5104 -0.3393
  448MOL0     C60347   8.410   8.564   2.646 -0.8182 -0.3150 -0.4155
  448MOL0     O60348   8.508   8.601   2.543 -0.2404 -0.0815 -0.0026
  448MOL0     C60349   8.447   8.677   2.442  0.7923 -0.2519  0.4774
  448MOL0     C60350   8.367   8.789   2.476  0.1347  0.3483 -0.0189
  448MOL0     C60351   8.307   8.869   2.370 -0.4744  0.1736  0.1392
  448MOL0     C60352   8.338   8.830   2.235 -0.5784  0.0282  1.2234
  448MOL0     O60353   8.300   8.913   2.137  0.4678 -0.8019  0.2678
  448MOL0     C60354   8.378   9.032   2.142  0.3869 -0.4890 -0.2096
  448MOL0     C60355   8.291   9.156   2.073  0.1290  0.8925 -0.8842
  448MOL0     C60356   8.256   9.108   1.939 -0.6201  0.1250  0.2301
  448MOL0     C60357   8.203   9.230   1.858 -0.1588  0.6484  0.1607
  448MOL0     C60358   8.138   9.183   1.728 -0.1600  0.2996 -0.6954
  448MOL0     C60359   8.120   9.301   1.635  0.0227 -0.6709 -0.1874
  448MOL0     C60360   7.978   9.302   1.563 -0.8470 -0.7099 -0.5484
  448MOL0     C60361   7.963   9.178   1.472  0.0677 -0.1668 -0.8022
  448MOL0     N60362   8.070   9.149   1.378 -0.1687 -0.0141 -0.1870
  448MOL0     C60363   8.092   9.221   1.268 -0.6971  0.3312  0.4672
  448MOL0     C60364   8.212   9.182   1.228  0.8549 -0.7154  0.5847
  448MOL0     C60365   8.285   9.233   1.105 -0.5071 -0.7553  0.8315
  448MOL0     C60366   8.331   9.383   1.103 -0.7721  0.8887 -0.0087
  448MOL0     C60367   8.407   9.413   1.230  0.3429 -0.5174  0.3927
  448MOL0     C60368   8.523   9.530   1.224  0.4092 -0.6926 -0.3726
  448MOL0     O60369   8.464   9.661   1.203 -0.5172  0.2449 -0.3749
  448MOL0     C60370   8.542   9.779   1.198  0.7911  0.0799 -1.4318
  448MOL0     C60371   8.680   9.772   1.183  0.4792  0.2931  0.6915
  448MOL0     C60372   8.767   9.889   1.171  0.6293 -0.0992  0.4830
  448MOL0     C60373   8.911   9.884   1.170  0.1054 -0.3941 -0.4210
  448MOL0     C60374   8.691  10.011   1.175 -0.5126  0.4368  0.1612
  448MOL0     C60375   8.752  10.141   1.168 -0.1588  0.3368 -0.3494
  448MOL0     O60376   8.703  10.234   1.262  1.1170 -0.1225  0.5165
  448MOL0     C60377   8.783  10.339   1.297  0.6626 -1.0608  0.0465
  448MOL0     C60378   8.924  10.315   1.296  0.3116 -0.7104  0.1570
  448MOL0     C60379   9.012  10.420   1.320  0.4781 -0.5941  0.5371
  448MOL0     C60380   8.968  10.549   1.360  0.0271 -0.5555 -0.1276
  448MOL0     O60381   9.050  10.655   1.379 -0.2624  0.1637  0.4913
  448MOL0     C60382   9.180  10.649   1.313 -0.6007 -0.0877  0.0361
  448MOL0     C60383   9.262  10.780   1.331 -1.1038 -0.4778 -0.3442
  448MOL0     C60384   9.409  10.740   1.364  0.3406  0.3279  0.0298
  448MOL0     C60385   9.423  10.687   1.508  0.1996  0.1821  0.1099
  448MOL0     C60386   9.428  10.803   1.603  0.3369  0.1793  0.6900
  448MOL0     C60387   9.471  10.757   1.746  0.7097  0.3731  0.0910
  448MOL0     C60388   9.564  10.861   1.816  0.9099  0.0842 -0.0050
  448MOL0     C60389   9.546  10.841   1.974 -0.6955 -0.3003  0.5597
  448MOL0    Cl60390   9.579  10.675   2.042 -0.4086  0.1407  0.0802
  448MOL0     C60391   8.831  10.563   1.382 -0.3640 -0.1187  0.4426
  448MOL0     C60392   8.740  10.458   1.354  0.1291 -0.1912 -0.7085
  448MOL0     O60393   8.825  10.171   1.069 -0.4615  0.9347  0.1588
  448MOL0     C60394   8.551  10.017   1.203  0.1618 -1.2297  0.5972
  448MOL0     C60395   8.477   9.897   1.197 -0.6510  0.5109  0.6281
  448MOL0     N60396   8.255   9.072   1.303  0.2119  1.5106 -1.1758
  448MOL0     N60397   8.176   9.063   1.405 -0.3341 -0.1940 -0.7078
  448MOL0     C60398   8.425   8.722   2.207 -0.3940 -1.2756  1.0112
  448MOL0     C60399   8.470   8.646   2.310  0.4321  0.0623  0.4550
  448MOL0     C60400   8.468   8.516   2.775  0.4791 -0.0979  0.4159
  448MOL0     C60401   8.602   8.477   2.783 -0.4726  0.5747 -0.0365
  448MOL0     C60402   8.654   8.428   2.903  0.3612 -0.6864  1.0703
  448MOL0     C60403   8.571   8.403   3.010  0.7935  1.0972 -0.6011
  448MOL0     O60404   8.614   8.357   3.136  0.0818 -0.5789 -0.1465
  448MOL0     C60405   8.750   8.313   3.145  0.6133  0.1040 -0.7564
  448MOL0     C60406   8.780   8.259   3.281  0.6445  0.5209  0.2505
  448MOL0     C60407   8.797   8.369   3.388 -0.0493 -0.5507  0.2244
  448MOL0     C60408   8.899   8.481   3.345 -0.1323  0.2081 -0.8092
  448MOL0     C60409   9.040   8.446   3.318  0.7164 -0.5072 -0.3764
  448MOL0     C60410   9.151   8.416   3.292 -0.2060  0.8569  0.1824
  448MOL0     C60411   8.438   8.451   3.001 -0.9461 -0.3993  1.0578
  448MOL0     C60412   8.390   8.506   2.883  0.5328  0.9439  0.0193
  448MOL0     H60413   8.358   8.827   2.577 -1.3735 -1.4453  0.5593
  448MOL0     H60414   8.249   8.956   2.399  0.4907  1.3673 -1.3288
  448MOL0     H60415   8.399   9.069   2.243  0.6072 -2.4524  0.5126
  448MOL0     H60416   8.475   9.019   2.092 -0.7967 -1.1534 -2.4421
  448MOL0     H60417   8.196   9.159   2.128  0.5055 -3.2001  0.3067
  448MOL0     H60418   8.355   9.244   2.081  2.7744 -1.0469  4.5007
  448MOL0     H60419   8.331   9.052   1.883 -1.6113  0.0535 -1.0831
  448MOL0     H60420   8.172   9.038   1.943  0.8589 -1.8332 -1.0902
  448MOL0     H60421   8.130   9.291   1.912 -1.3443 -0.4005 -0.2168
  448MOL0     H60422   8.289   9.292   1.832  1.2573 -2.5019 -3.6144
  448MOL0     H60423   8.199   9.111   1.673 -0.9176  0.7454 -2.1542
  448MOL0     H60424   8.043   9.139   1.761  0.3868  2.3668  4.7554
  448MOL0     H60425   8.122   9.396   1.689  1.6836 -1.7828  1.8589
  448MOL0     H60426   8.203   9.304   1.563  1.0487 -2.0077  0.8866
  448MOL0     H60427   7.898   9.297   1.638 -2.4031 -1.7498 -2.2035
  448MOL0     H60428   7.960   9.395   1.508 -1.3459 -1.0214 -0.9146
  448MOL0     H60429   7.874   9.201   1.411 -0.1935  1.3265  0.0926
  448MOL0     H60430   7.939   9.095   1.538  0.8065 -0.6558 -1.1389
  448MOL0     H60431   8.039   9.309   1.234 -2.3408 -0.2868  1.3493
  448MOL0     H60432   8.367   9.165   1.081 -1.6504 -2.7035  2.2045
  448MOL0     H60433   8.208   9.228   1.028  1.9658  2.2170 -2.1269
  448MOL0     H60434   8.234   9.434   1.099 -2.1434 -1.5093  0.5452
  448MOL0     H60435   8.381   9.425   1.015  1.1648 -0.7400  0.2416
  448MOL0     H60436   8.469   9.325   1.251  1.2257  0.0074  0.0673
  448MOL0     H60437   8.337   9.430   1.312  1.1193  5.6655  0.2520
  448MOL0     H60438   8.598   9.508   1.148 -1.3109  0.4010 -2.5202
  448MOL0     H60439   8.577   9.531   1.319  2.9826  1.9474 -1.7073
  448MOL0     H60440   8.741   9.683   1.191  0.6426  0.4794  1.6959
  448MOL0     H60441   8.949   9.787   1.203 -1.9897 -1.4364 -0.8781
  448MOL0     H60442   8.937   9.882   1.064  0.7874 -0.6013 -0.2531
  448MOL0     H60443   8.959   9.971   1.214 -1.8520 -0.7858  2.8434
  448MOL0     H60444   8.968  10.221   1.265 -1.2544 -2.5994  3.1761
  448MOL0     H60445   9.118  10.402   1.306  0.0029 -1.8387 -2.1353
  448MOL0     H60446   9.228  10.556   1.347 -3.6283 -1.7020  0.3443
  448MOL0     H60447   9.162  10.637   1.206  0.6129  2.8751 -0.5839
  448MOL0     H60448   9.256  10.817   1.228  0.3838 -2.1702 -1.0977
  448MOL0     H60449   9.229  10.854   1.405  1.4124 -2.0366  2.5343
  448MOL0     H60450   9.477  10.822   1.338  2.4977 -0.6813  2.1073
  448MOL0     H60451   9.452  10.663   1.299 -0.5732  0.6873 -1.0398
  448MOL0     H60452   9.336  10.630   1.542 -1.9532 -0.3796 -5.3459
  448MOL0     H60453   9.517  10.632   1.506  0.3114  0.2140 -3.7317
  448MOL0     H60454   9.331  10.855   1.599  0.2486 -0.0431 -0.6072
  448MOL0     H60455   9.502  10.870   1.558  1.5362 -1.0619  0.7470
  448MOL0     H60456   9.375  10.742   1.795  1.4641 -0.4230  1.3787
  448MOL0     H60457   9.517  10.658   1.742  0.3793  0.1759  1.0012
  448MOL0     H60458   9.532  10.963   1.790 -0.1728 -0.2015  0.1344
  448MOL0     H60459   9.671  10.850   1.798  1.7135  0.5164  3.6917
  448MOL0     H60460   9.439  10.861   1.984 -0.6544  0.4181 -0.3408
  448MOL0     H60461   9.610  10.919   2.014 -0.3369  1.4082 -2.9554
  448MOL0     H60462   8.804  10.657   1.428 -1.4242 -1.1514  2.0661
  448MOL0     H60463   8.638  10.487   1.379  0.0723 -0.4331 -0.6572
  448MOL0     H60464   8.485  10.103   1.194 -1.4956 -2.6689 -3.4167
  448MOL0     H60465   8.369   9.898   1.187 -0.4884  0.3534 -1.4738
  448MOL0     H60466   8.464   8.706   2.107  1.2023  0.5001  1.2980
  448MOL0     H60467   8.520   8.552   2.293 -1.8022 -1.1412  0.1601
  448MOL0     H60468   8.654   8.474   2.687  1.4959  2.6213  0.8661
  448MOL0     H60469   8.761   8.410   2.912  0.3909 -0.1395  1.9922
  448MOL0     H60470   8.776   8.228   3.080  0.7633 -0.5948  0.1906
  448MOL0     H60471   8.820   8.391   3.115  1.2331  1.3780  3.3335
  448MOL0     H60472   8.872   8.200   3.279  0.7586  0.7148 -1.2838
  448MOL0     H60473   8.696   8.198   3.316  1.5381  0.7417  3.0172
  448MOL0     H60474   8.830   8.322   3.481 -0.5803 -0.1947  0.5945
  448MOL0     H60475   8.698   8.413   3.402 -0.7911 -1.5610 -1.5037
  448MOL0     H60476   8.890   8.558   3.422 -1.1098  0.4341 -1.1336
  448MOL0     H60477   8.857   8.530   3.256  0.9147 -1.4235 -2.2529
  448MOL0     H60478   9.248   8.386   3.260  0.5284  3.1458  0.0499
  448MOL0     H60479   8.376   8.453   3.090 -2.5124 -0.0428 -0.0022
  448MOL0     H60480   8.287   8.540   2.871  0.5450  0.2928 -2.4812
  449MOL0     O60481   9.138  10.866  11.335  0.5970  0.6242  0.5573
  449MOL0     C60482   9.053  10.789  11.382 -0.9165 -0.9229  0.3636
  449MOL0     O60483   9.079  10.652  11.417  0.0534 -0.2789  0.0253
  449MOL0     C60484   9.198  10.585  11.395 -0.2319 -1.1260  0.4910
  449MOL0     C60485   9.224  10.463  11.456 -0.3638  0.2011  0.5435
  449MOL0     C60486   9.337  10.389  11.454 -0.0416 -0.3132  1.2908
  449MOL0     C60487   9.447  10.428  11.374  0.0860  0.5235  0.1729
  449MOL0     O60488   9.563  10.360  11.375 -1.3580 -0.4295  1.2957
  449MOL0     C60489   9.685  10.412  11.318 -0.5553 -0.6358 -0.3304
  449MOL0     C60490   9.687  10.385  11.166 -0.6622 -0.1040  0.0357
  449MOL0     C60491   9.825  10.330  11.123 -0.4437 -0.1635 -0.2581
  449MOL0     C60492   9.936  10.441  11.135  0.2496  0.1386  0.2838
  449MOL0     C60493  10.066  10.406  11.071 -0.0675  0.2883  0.1928
  449MOL0     C60494  10.108  10.498  10.952  0.7821  0.3865  0.2346
  449MOL0     C60495  10.024  10.485  10.824  0.2702  1.0637 -0.7781
  449MOL0     C60496  10.035  10.362  10.744  0.3155 -0.2400 -0.3713
  449MOL0     N60497  10.149  10.384  10.654  0.0052  0.3028 -0.4233
  449MOL0     C60498  10.129  10.472  10.555  0.6261  0.0657  0.7074
  449MOL0     C60499  10.247  10.510  10.514  0.2343  0.2866  0.3844
  449MOL0     C60500  10.284  10.607  10.405 -0.4469 -0.1516  0.2069
  449MOL0     C60501  10.375  10.538  10.303 -0.4628 -0.7279 -0.6625
  449MOL0     C60502  10.374  10.615  10.165  0.3456  0.2061 -0.2486
  449MOL0     C60503  10.495  10.567  10.081  0.6416 -0.8627 -0.2995
  449MOL0     O60504  10.501  10.671   9.978 -0.8386  0.2836  0.1510
  449MOL0     C60505  10.627  10.701   9.923 -0.1847 -0.0767  0.0665
  449MOL0     C60506  10.745  10.649   9.970 -0.1540  0.8289 -0.0016
  449MOL0     C60507  10.868  10.667   9.900  0.3573 -1.0931 -0.3965
  449MOL0     C60508  10.988  10.581   9.932  1.0618  0.4261  0.2475
  449MOL0     C60509  10.870  10.767   9.804 -0.8668 -0.1702  0.3471
  449MOL0     C60510  11.000  10.810   9.749  0.4071  0.2006  0.1124
  449MOL0     O60511  11.108  10.827   9.825  0.2437 -0.6694  0.0137
  449MOL0     C60512  11.220  10.898   9.773  0.5085 -0.0979 -0.9509
  449MOL0     C60513  11.283  10.865   9.661 -0.2132  0.1127 -0.3273
  449MOL0     C60514  11.405  10.924   9.622  0.0684 -0.9978  0.0145
  449MOL0     C60515  11.452  11.036   9.684  0.2072 -1.0329  0.3029
  449MOL0     O60516  11.561  11.098   9.635 -0.0304  0.0944 -0.3831
  449MOL0     C60517  11.588  11.240   9.656 -0.0751  0.3655  0.7356
  449MOL0     C60518  11.748  11.246   9.650 -0.2636  0.6351 -0.0006
  449MOL0     C60519  11.796  11.333   9.530  0.2669 -0.0120 -0.7428
  449MOL0     C60520  11.760  11.267   9.392 -0.5654  0.2659  0.3059
  449MOL0     C60521  11.863  11.325   9.287 -0.0882 -0.6705  1.0957
  449MOL0     C60522  11.854  11.473   9.267 -0.3442  0.3221 -0.9764
  449MOL0     C60523  11.711  11.503   9.221 -0.1528  0.2945  0.3799
  449MOL0     C60524  11.692  11.637   9.156 -1.6847 -0.8922  1.1962
  449MOL0    Cl60525  11.781  11.672   8.986  0.1653  0.1045  0.4862
  449MOL0     C60526  11.386  11.070   9.806  0.0953 -0.9849  0.7916
  449MOL0     C60527  11.274  11.002   9.852 -0.4128  0.0210  0.3624
  449MOL0     O60528  10.993  10.849   9.627  0.1855 -0.6584  0.2488
  449MOL0     C60529  10.755  10.832   9.767 -0.5855 -0.7051  0.0379
  449MOL0     C60530  10.638  10.797   9.823 -0.2974  0.0937  0.5145
  449MOL0     N60531  10.341  10.455  10.597 -0.2119 -0.1733 -0.8145
  449MOL0     N60532  10.285  10.380  10.677  1.7400 -0.3349  0.5750
  449MOL0     C60533   9.429  10.554  11.306  0.2890 -0.3069 -0.3783
  449MOL0     C60534   9.315  10.623  11.332  1.7608 -0.8300  0.1949
  449MOL0     C60535   8.916  10.836  11.405  1.0931  0.1690 -0.8000
  449MOL0     C60536   8.815  10.755  11.472 -0.2576  0.4566 -1.0303
  449MOL0     C60537   8.683  10.805  11.490  0.0192  0.3674  0.7366
  449MOL0     C60538   8.652  10.931  11.459  0.6822 -0.7820  0.0399
  449MOL0     O60539   8.525  10.980  11.490  0.3971 -0.3003 -0.0036
  449MOL0     C60540   8.469  11.099  11.431 -0.6557  0.0224 -0.1494
  449MOL0     C60541   8.512  11.222  11.522  0.3183  0.5779  0.7822
  449MOL0     C60542   8.406  11.331  11.510 -0.0585 -0.2989  0.5349
  449MOL0     C60543   8.453  11.428  11.401 -0.9903 -0.2596 -0.0580
  449MOL0     C60544   8.432  11.367  11.267  0.7443  0.5890 -0.3753
  449MOL0     C60545   8.441  11.325  11.157  0.6044 -0.4025  0.3400
  449MOL0     C60546   8.747  11.009  11.388  0.1194 -0.1649 -0.1649
  449MOL0     C60547   8.876  10.965  11.360 -0.4594  0.3855 -0.1314
  449MOL0     H60548   9.148  10.419  11.520  0.5564 -2.6521 -0.2003
  449MOL0     H60549   9.334  10.295  11.507 -0.8854 -0.9593  0.1339
  449MOL0     H60550   9.692  10.516  11.351  3.2316 -1.0720  0.6907
  449MOL0     H60551   9.773  10.372  11.369  1.5519  2.7073 -1.0198
  449MOL0     H60552   9.614  10.305  11.154  0.7596 -1.2774 -1.0370
  449MOL0     H60553   9.653  10.470  11.106  4.6156  2.3537 -0.0557
  449MOL0     H60554   9.853  10.242  11.182 -0.5993 -0.4029 -0.5346
  449MOL0     H60555   9.823  10.278  11.026  0.5328  0.0064 -0.3762
  449MOL0     H60556   9.900  10.536  11.095  1.1148  0.6564  0.7349
  449MOL0     H60557   9.951  10.463  11.241 -1.2131  0.5705  0.4268
  449MOL0     H60558  10.154  10.407  11.136  1.2489 -1.2422 -1.4382
  449MOL0     H60559  10.061  10.303  11.032  0.6015 -1.0570  3.3159
  449MOL0     H60560  10.106  10.603  10.981  0.3212  0.1020  1.2971
  449MOL0     H60561  10.209  10.477  10.915  0.4503  0.4058 -0.7183
  449MOL0     H60562   9.917  10.497  10.844 -0.1031  0.9038 -2.5193
  449MOL0     H60563  10.038  10.572  10.760  1.1314  2.2605  0.9463
  449MOL0     H60564   9.953  10.359  10.672  0.5452  0.7589 -0.6948
  449MOL0     H60565  10.049  10.272  10.804  1.1166  0.5240  0.6375
  449MOL0     H60566  10.041  10.519  10.514  2.3346  2.4119 -0.5506
  449MOL0     H60567  10.196  10.639  10.349  2.2209  0.2451 -4.2469
  449MOL0     H60568  10.329  10.690  10.461  0.3004 -0.0346 -0.5543
  449MOL0     H60569  10.357  10.431  10.297  2.9539 -1.5044  0.6861
  449MOL0     H60570  10.475  10.548  10.346 -0.8254  3.0528 -0.3204
  449MOL0     H60571  10.398  10.720  10.182 -0.0512  0.7559 -2.6531
  449MOL0     H60572  10.278  10.607  10.113 -0.2161  3.3600  0.1251
  449MOL0     H60573  10.471  10.469  10.039  0.6903 -0.5259 -1.1355
  449MOL0     H60574  10.582  10.559  10.146 -0.2650 -0.3789  1.0185
  449MOL0     H60575  10.757  10.563  10.035  2.2377  0.0073 -1.3948
  449MOL0     H60576  11.037  10.556   9.838  0.7374  0.2741  0.1220
  449MOL0     H60577  11.058  10.640   9.993  0.5960  2.8344 -1.4252
  449MOL0     H60578  10.959  10.490   9.986  0.0897  0.2839 -0.4933
  449MOL0     H60579  11.242  10.785   9.601  2.8239 -1.1841 -0.8887
  449MOL0     H60580  11.454  10.900   9.528 -1.3296 -4.2670  0.0080
  449MOL0     H60581  11.548  11.302   9.574  3.2287  1.5641 -0.1516
  449MOL0     H60582  11.546  11.279   9.749  2.7504  2.6053  1.1929
  449MOL0     H60583  11.776  11.297   9.743  2.4125  3.2009 -2.0169
  449MOL0     H60584  11.787  11.144   9.648 -1.1236  0.1936  2.6502
  449MOL0     H60585  11.905  11.334   9.537  0.2883  1.8647 -0.9558
  449MOL0     H60586  11.760  11.435   9.519 -2.8128 -1.0876 -1.7537
  449MOL0     H60587  11.765  11.157   9.389  1.7261  0.1514  3.1602
  449MOL0     H60588  11.665  11.307   9.358 -0.6752 -0.5411 -0.3581
  449MOL0     H60589  11.855  11.274   9.191 -1.4711 -1.2914  1.5229
  449MOL0     H60590  11.966  11.317   9.324  1.8419  0.6915 -3.3685
  449MOL0     H60591  11.890  11.532   9.351  4.0524 -0.8098 -1.8135
  449MOL0     H60592  11.926  11.508   9.192  1.9132  2.9067  2.1283
  449MOL0     H60593  11.638  11.509   9.302  0.8271  1.0179  1.2183
  449MOL0     H60594  11.679  11.425   9.151  1.4909 -1.7939  1.8426
  449MOL0     H60595  11.720  11.703   9.239 -1.2757 -1.5446  1.5921
  449MOL0     H60596  11.585  11.644   9.135 -1.1897 -1.3587 -1.8343
  449MOL0     H60597  11.434  11.147   9.866  2.5153 -1.2339 -0.7007
  449MOL0     H60598  11.237  11.021   9.952  0.8018 -3.0950  1.5347
  449MOL0     H60599  10.752  10.916   9.697 -0.3550 -2.0499 -1.6532
  449MOL0     H60600  10.548  10.845   9.786 -0.7236 -1.0627 -0.0011
  449MOL0     H60601   9.513  10.595  11.251 -0.9684  3.3826  0.2208
  449MOL0     H60602   9.310  10.717  11.278  0.7360 -0.1432  1.4292
  449MOL0     H60603   8.850  10.656  11.501  1.7494  1.0398 -1.2711
  449MOL0     H60604   8.601  10.751  11.536 -1.5054  3.0411  1.3830
  449MOL0     H60605   8.519  11.124  11.337  3.9172  1.3923  2.3422
  449MOL0     H60606   8.360  11.093  11.423 -0.4367 -2.3997 -2.6788
  449MOL0     H60607   8.610  11.253  11.483  0.7639 -0.5381  0.9615
  449MOL0     H60608   8.526  11.197  11.627 -0.0381  0.0829  0.7148
  449MOL0     H60609   8.396  11.386  11.604  1.1234  0.9467 -0.0190
  449MOL0     H60610   8.305  11.303  11.480 -0.0148  0.1884 -0.1014
  449MOL0     H60611   8.560  11.448  11.412 -0.5529 -1.3893 -1.9517
  449MOL0     H60612   8.404  11.525  11.410 -0.6801 -0.1248  0.1936
  449MOL0     H60613   8.438  11.292  11.055 -1.9272  0.9660 -0.1308
  449MOL0     H60614   8.724  11.107  11.347  1.8667 -0.4683 -2.0564
  449MOL0     H60615   8.939  11.038  11.310 -2.8306 -0.2376 -4.4642
  450MOL0     O60616   7.811   0.479   2.148 -0.2765  0.3360 -0.5498
  450MOL0     C60617   7.852   0.378   2.206 -0.6163  0.3266  0.1963
  450MOL0     O60618   7.964   0.370   2.286  0.1389  0.0493  0.3341
  450MOL0     C60619   8.037   0.487   2.289 -0.1415  1.1127 -0.3323
  450MOL0     C60620   8.080   0.537   2.166  1.1004  0.3938  0.3713
  450MOL0     C60621   8.152   0.657   2.154 -0.4904  0.0432 -1.1590
  450MOL0     C60622   8.170   0.735   2.269  0.0181  0.1212  0.1523
  450MOL0     O60623   8.221   0.859   2.281 -0.5912 -0.2091  0.1643
  450MOL0     C60624   8.232   0.923   2.149 -0.3493  1.9490  0.2418
  450MOL0     C60625   8.380   0.924   2.110 -0.2881  0.2769  0.0456
  450MOL0     C60626   8.411   0.965   1.965 -0.0837  0.2325 -0.2861
  450MOL0     C60627   8.371   1.107   1.938  1.0404  0.0076  0.6093
  450MOL0     C60628   8.460   1.205   2.016 -0.8969 -0.4891 -0.2692
  450MOL0     C60629   8.543   1.291   1.921 -0.0578  0.0648  0.0557
  450MOL0     C60630   8.692   1.244   1.891  0.4720 -0.3665 -0.4992
  450MOL0     C60631   8.689   1.148   1.776  0.2888 -0.4107  0.4287
  450MOL0     N60632   8.804   1.055   1.780 -0.0488  0.0203 -0.2212
  450MOL0     C60633   8.920   1.090   1.734  0.9398 -0.6767  1.0094
  450MOL0     C60634   9.001   0.980   1.746 -1.3454  0.4217 -0.3407
  450MOL0     C60635   9.151   0.971   1.686  0.7874  0.0066 -0.4897
  450MOL0     C60636   9.259   1.052   1.758  0.1050  0.1365  0.1445
  450MOL0     C60637   9.303   0.983   1.891  1.0609 -0.0247  0.0860
  450MOL0     C60638   9.373   0.853   1.880  1.2662 -0.1952  0.2269
  450MOL0     O60639   9.493   0.879   1.794 -0.1248  0.0733  0.0556
  450MOL0     C60640   9.598   0.795   1.822  0.4287  0.8639  0.8366
  450MOL0     C60641   9.602   0.679   1.893  0.1078 -0.3012 -0.9972
  450MOL0     C60642   9.723   0.608   1.914  0.2734  0.4794  0.2731
  450MOL0     C60643   9.704   0.488   2.012 -0.0513 -0.6386 -0.0199
  450MOL0     C60644   9.848   0.646   1.851  0.3699 -0.3782 -0.1336
  450MOL0     C60645   9.971   0.566   1.882  0.4958  0.6306 -1.5444
  450MOL0     O60646  10.073   0.599   1.795  0.1831 -0.7203 -1.0547
  450MOL0     C60647  10.186   0.523   1.803 -0.8115 -0.1297  0.0423
  450MOL0     C60648  10.310   0.586   1.801 -0.0570 -0.0090 -1.5799
  450MOL0     C60649  10.437   0.515   1.794 -0.1010  0.7941 -0.0465
  450MOL0     C60650  10.431   0.372   1.786 -0.3322 -0.6089  0.1262
  450MOL0     O60651  10.550   0.298   1.788 -1.3258 -1.0698 -0.7522
  450MOL0     C60652  10.561   0.168   1.731  0.2419 -0.1628 -0.0217
  450MOL0     C60653  10.698   0.117   1.739 -0.4922  0.4606  0.9730
  450MOL0     C60654  10.810   0.208   1.689  0.2362  0.0524 -0.7114
  450MOL0     C60655  10.880   0.272   1.810 -1.1125  0.3320  0.7657
  450MOL0     C60656  10.959   0.399   1.792 -0.2281  0.5734 -0.3916
  450MOL0     C60657  10.906   0.491   1.679  0.3382 -0.0005 -0.7636
  450MOL0     C60658  10.978   0.630   1.674  0.1153 -0.6680  0.1894
  450MOL0     C60659  11.124   0.615   1.641 -0.1706 -0.0863 -0.0760
  450MOL0    Cl60660  11.177   0.784   1.619 -0.5990  0.1066 -0.2496
  450MOL0     C60661  10.300   0.311   1.798  0.1971  0.1209  0.4020
  450MOL0     C60662  10.180   0.384   1.802  0.2241 -0.0872  1.2839
  450MOL0     O60663   9.986   0.489   1.980 -0.7604 -0.4718 -0.6398
  450MOL0     C60664   9.845   0.766   1.778 -0.3709  0.2003  0.7154
  450MOL0     C60665   9.723   0.834   1.770  0.1917 -0.5121  0.0730
  450MOL0     N60666   8.939   0.881   1.812  0.2262  0.2853  0.3874
  450MOL0     N60667   8.814   0.924   1.821 -0.4660  0.3565  0.7677
  450MOL0     C60668   8.132   0.679   2.382  0.9839 -0.3121 -0.4192
  450MOL0     C60669   8.071   0.556   2.406 -1.0911 -0.7665 -0.1059
  450MOL0     C60670   7.769   0.254   2.198  0.1733  1.2423  0.2223
  450MOL0     C60671   7.640   0.254   2.132 -0.4208 -0.8832  0.3711
  450MOL0     C60672   7.555   0.144   2.137 -0.5305  0.0439  1.1196
  450MOL0     C60673   7.597   0.031   2.206  0.8051  0.4604 -0.3974
  450MOL0     O60674   7.515  -0.077   2.217  0.4338  0.6425 -0.4669
  450MOL0     C60675   7.375  -0.068   2.199 -0.3281 -0.2462 -0.4558
  450MOL0     C60676   7.304  -0.195   2.248  0.8195  0.4797  0.0810
  450MOL0     C60677   7.368  -0.334   2.203 -0.3322 -0.0528 -0.2666
  450MOL0     C60678   7.286  -0.396   2.089  0.0587 -0.2093 -0.4102
  450MOL0     C60679   7.322  -0.532   2.067  0.1284  0.6884  0.1189
  450MOL0     C60680   7.350  -0.645   2.037 -0.2575  1.2230  0.0570
  450MOL0     C60681   7.723   0.028   2.271  0.8154 -0.0761  0.1563
  450MOL0     C60682   7.817   0.139   2.267  0.7733  0.7992  0.0176
  450MOL0     H60683   8.052   0.488   2.074  2.6539  2.5842 -1.3597
  450MOL0     H60684   8.190   0.677   2.054 -0.6672  2.0936 -0.8634
  450MOL0     H60685   8.167   0.882   2.072 -1.1828 -1.2897  2.4651
  450MOL0     H60686   8.185   1.020   2.165  0.8146  2.2283  2.2664
  450MOL0     H60687   8.441   0.976   2.184  1.7107 -2.7003  0.7111
  450MOL0     H60688   8.418   0.822   2.124 -0.1104  0.6791  3.0954
  450MOL0     H60689   8.520   0.960   1.956  0.1641  3.2856  0.1342
  450MOL0     H60690   8.365   0.894   1.896  0.5208 -0.6034  0.1439
  450MOL0     H60691   8.378   1.129   1.831 -0.8305  1.8694  0.7913
  450MOL0     H60692   8.267   1.131   1.963  0.6153 -2.2917  1.3167
  450MOL0     H60693   8.402   1.280   2.072  4.2875  1.8656  2.6898
  450MOL0     H60694   8.523   1.156   2.091 -1.1781 -1.3467 -0.5822
  450MOL0     H60695   8.485   1.317   1.833  0.3350  1.4877  0.1910
  450MOL0     H60696   8.557   1.385   1.975  2.2241  1.7906 -3.1622
  450MOL0     H60697   8.761   1.326   1.869  0.7320 -0.7404 -1.1387
  450MOL0     H60698   8.737   1.194   1.977  0.1855 -0.9002 -0.6499
  450MOL0     H60699   8.689   1.208   1.685  0.9691 -0.8355  0.1360
  450MOL0     H60700   8.592   1.098   1.779 -1.0760  2.1341  2.6099
  450MOL0     H60701   8.930   1.190   1.693 -1.0712 -1.3854 -1.4604
  450MOL0     H60702   9.175   0.864   1.677  0.1494 -0.5860  3.0718
  450MOL0     H60703   9.157   1.002   1.582 -2.4245 -0.6589 -0.9834
  450MOL0     H60704   9.217   1.148   1.789 -0.5007 -1.0199  3.2435
  450MOL0     H60705   9.342   1.071   1.689 -1.8701  0.6901 -2.2135
  450MOL0     H60706   9.212   0.969   1.950  0.2517  0.8490 -0.9185
  450MOL0     H60707   9.358   1.062   1.942 -2.9217  1.6591  2.2933
  450MOL0     H60708   9.312   0.773   1.838  0.8558  0.0791  0.2888
  450MOL0     H60709   9.392   0.827   1.985 -1.3438  1.0129  1.0967
  450MOL0     H60710   9.513   0.632   1.934  1.7502 -1.0723  1.9158
  450MOL0     H60711   9.600   0.469   2.038 -0.6908  1.0200 -1.1570
  450MOL0     H60712   9.749   0.393   1.981 -0.8125 -1.3963  1.1516
  450MOL0     H60713   9.750   0.507   2.109 -0.6181 -2.6920  0.6948
  450MOL0     H60714  10.318   0.694   1.807  0.3261 -0.0994  0.2641
  450MOL0     H60715  10.525   0.579   1.797  1.5472 -1.2897 -1.1936
  450MOL0     H60716  10.499   0.103   1.793 -4.2600 -1.2332 -4.9025
  450MOL0     H60717  10.513   0.161   1.633  3.0197  0.2989 -1.5081
  450MOL0     H60718  10.717   0.091   1.844 -2.5184 -0.0716  1.2513
  450MOL0     H60719  10.698   0.022   1.684 -0.8065  0.0330  1.6998
  450MOL0     H60720  10.768   0.287   1.625 -0.0864 -0.5373 -1.2370
  450MOL0     H60721  10.878   0.149   1.627  1.5393  1.9433 -1.1790
  450MOL0     H60722  10.802   0.297   1.883  1.8228 -0.0547  4.3787
  450MOL0     H60723  10.934   0.194   1.864 -0.2168 -0.9176 -1.7891
  450MOL0     H60724  11.065   0.390   1.765  0.8970  2.6735  2.7764
  450MOL0     H60725  10.946   0.444   1.891  0.2239 -0.5508  0.2029
  450MOL0     H60726  10.926   0.439   1.585  0.7160  0.5093 -0.9769
  450MOL0     H60727  10.798   0.507   1.677  0.1287 -0.7980  1.5126
  450MOL0     H60728  10.960   0.676   1.772 -0.5111 -0.0117 -0.2244
  450MOL0     H60729  10.935   0.697   1.600  0.3151 -2.0046 -1.1926
  450MOL0     H60730  11.134   0.550   1.554 -3.9384 -1.5477  0.3710
  450MOL0     H60731  11.186   0.571   1.720 -0.6813 -3.4300 -1.3797
  450MOL0     H60732  10.292   0.203   1.794  0.8091  0.1132 -1.5466
  450MOL0     H60733  10.088   0.327   1.796 -0.2514  0.4300  3.1675
  450MOL0     H60734   9.919   0.831   1.733 -1.2611  2.8205  2.7824
  450MOL0     H60735   9.731   0.926   1.712  0.3092 -2.1099 -2.5902
  450MOL0     H60736   8.140   0.745   2.468 -1.4657 -1.5621  0.8516
  450MOL0     H60737   8.025   0.528   2.500 -0.4019  0.0356  0.4850
  450MOL0     H60738   7.606   0.351   2.098  4.9672  1.0331 -0.5187
  450MOL0     H60739   7.466   0.150   2.075  0.3486 -2.0093 -0.4496
  450MOL0     H60740   7.340   0.007   2.270 -1.1301 -2.4136  1.5919
  450MOL0     H60741   7.339  -0.032   2.102 -2.3804 -0.6700  0.0868
  450MOL0     H60742   7.198  -0.192   2.223  0.7784 -1.6542 -0.1903
  450MOL0     H60743   7.298  -0.191   2.357 -0.5754 -0.5577  0.0600
  450MOL0     H60744   7.389  -0.401   2.286 -2.2672 -1.1142 -0.5774
  450MOL0     H60745   7.464  -0.309   2.158  0.1364 -1.8632 -0.3225
  450MOL0     H60746   7.300  -0.331   2.002  1.0952  0.3969  0.1950
  450MOL0     H60747   7.181  -0.399   2.120  0.7269  0.2488  2.1367
  450MOL0     H60748   7.370  -0.747   2.008 -2.4752  0.3058  1.4783
  450MOL0     H60749   7.741  -0.063   2.327  0.4784 -0.3580 -0.1919
  450MOL0     H60750   7.913   0.135   2.317 -0.5873 -0.4101  2.7375
  451MOL0     O60751  11.256   0.196   5.213  0.8913 -0.5266 -0.2121
  451MOL0     C60752  11.331   0.302   5.197  0.5774  0.5496 -0.0538
  451MOL0     O60753  11.437   0.325   5.272  0.2610  0.2491 -0.0459
  451MOL0     C60754  11.472   0.236   5.373 -0.3951  0.9454  0.5624
  451MOL0     C60755  11.490   0.092   5.372 -0.1443 -0.9620  0.0371
  451MOL0     C60756  11.568   0.026   5.469  0.4296 -0.0087 -0.3772
  451MOL0     C60757  11.617   0.095   5.586 -0.3741  0.4078 -0.2658
  451MOL0     O60758  11.679   0.045   5.691  0.6097 -0.7176 -0.3689
  451MOL0     C60759  11.636  -0.076   5.745 -0.5527  0.2975  0.0189
  451MOL0     C60760  11.663  -0.085   5.888 -0.5181 -0.7117  0.1856
  451MOL0     C60761  11.634  -0.222   5.938 -0.3178 -0.3061  0.1197
  451MOL0     C60762  11.671  -0.230   6.093  0.4008 -0.8933  0.6573
  451MOL0     C60763  11.655  -0.374   6.149 -0.4387 -0.3901 -1.1341
  451MOL0     C60764  11.711  -0.378   6.298 -0.5299 -0.1020  0.1942
  451MOL0     C60765  11.716  -0.516   6.362  1.1153  0.7149 -0.2690
  451MOL0     C60766  11.843  -0.524   6.448  1.1992  0.5368 -0.0794
  451MOL0     N60767  11.832  -0.476   6.590 -0.0603  0.2940 -0.8318
  451MOL0     C60768  11.823  -0.343   6.633 -0.1038  0.1699  0.1303
  451MOL0     C60769  11.768  -0.336   6.755 -0.0752 -0.2013 -0.1267
  451MOL0     C60770  11.734  -0.208   6.844 -0.4400 -0.0988  1.1408
  451MOL0     C60771  11.860  -0.135   6.900  0.3361 -0.8210  1.1297
  451MOL0     C60772  11.971  -0.093   6.795 -0.1519  0.0046 -0.4072
  451MOL0     C60773  12.082   0.001   6.858 -0.3845  0.4333 -0.2836
  451MOL0     O60774  12.162  -0.101   6.941  0.6689 -0.5835 -0.3532
  451MOL0     C60775  12.289  -0.137   6.896  0.2631 -0.6063 -0.1441
  451MOL0     C60776  12.373  -0.186   6.989  0.2839  0.1991 -0.1734
  451MOL0     C60777  12.501  -0.229   6.963  0.0244  0.6741 -0.0728
  451MOL0     C60778  12.582  -0.254   7.088 -0.6361  0.2849 -1.2713
  451MOL0     C60779  12.551  -0.235   6.833 -0.3430 -0.4865 -0.1751
  451MOL0     C60780  12.675  -0.295   6.786 -0.1670  0.9964 -0.1999
  451MOL0     O60781  12.670  -0.329   6.657  0.1343 -1.1138  0.5341
  451MOL0     C60782  12.774  -0.362   6.579 -0.6656 -0.0355 -0.6073
  451MOL0     C60783  12.756  -0.467   6.486 -0.2940  0.7154 -0.5197
  451MOL0     C60784  12.873  -0.507   6.406  1.1530 -0.6982 -1.0902
  451MOL0     C60785  12.994  -0.446   6.421  0.3805 -0.5118 -0.8582
  451MOL0     O60786  13.091  -0.493   6.336 -0.2283  0.1733 -0.0141
  451MOL0     C60787  13.095  -0.419   6.209 -0.5389 -0.0701 -0.0970
  451MOL0     C60788  13.183  -0.499   6.102  0.1553 -0.4643  0.0803
  451MOL0     C60789  13.334  -0.521   6.154  1.3468 -0.4995 -0.5170
  451MOL0     C60790  13.412  -0.580   6.037  0.1179  0.1570 -0.0925
  451MOL0     C60791  13.560  -0.589   6.076 -0.2641 -0.0075  0.0268
  451MOL0     C60792  13.626  -0.448   6.073 -0.1575  0.8148  0.8375
  451MOL0     C60793  13.778  -0.453   6.079  0.3583 -0.4761 -0.4726
  451MOL0     C60794  13.838  -0.313   6.054  0.2475  0.5052  0.3402
  451MOL0    Cl60795  13.807  -0.267   5.892  0.1553 -0.1092  0.5823
  451MOL0     C60796  13.001  -0.328   6.500 -0.6301  0.4451  0.5740
  451MOL0     C60797  12.891  -0.290   6.578 -1.5425  0.1905  0.6147
  451MOL0     O60798  12.750  -0.349   6.868  0.1723 -0.3263  0.5345
  451MOL0     C60799  12.464  -0.185   6.736 -0.6388 -0.7087  0.4084
  451MOL0     C60800  12.330  -0.145   6.769 -0.5992  0.1362  0.3202
  451MOL0     N60801  11.739  -0.461   6.798  0.4546  1.1966  0.4597
  451MOL0     N60802  11.782  -0.548   6.697  0.3148  0.1074 -0.0486
  451MOL0     C60803  11.584   0.229   5.589 -0.9061  0.3267  0.4554
  451MOL0     C60804  11.524   0.300   5.479  0.7582 -0.2653 -0.5937
  451MOL0     C60805  11.295   0.405   5.098  0.5804  0.5008 -0.2416
  451MOL0     C60806  11.387   0.502   5.079 -0.9267 -0.5767 -0.0693
  451MOL0     C60807  11.370   0.610   4.993 -0.7077 -0.1662 -0.0341
  451MOL0     C60808  11.242   0.622   4.929  0.0059 -0.2703  0.1943
  451MOL0     O60809  11.200   0.731   4.859  0.4095  1.6097  0.3698
  451MOL0     C60810  11.293   0.786   4.761  0.8276  0.2404 -0.4530
  451MOL0     C60811  11.357   0.922   4.809  0.0473  0.5873 -0.0049
  451MOL0     C60812  11.455   0.950   4.687  0.4493 -1.0944 -0.3310
  451MOL0     C60813  11.497   1.100   4.687  0.1479 -0.0148 -0.5913
  451MOL0     C60814  11.592   1.126   4.802 -0.3210 -0.1639  0.4400
  451MOL0     C60815  11.674   1.152   4.888 -0.3356  0.4097 -1.1917
  451MOL0     C60816  11.143   0.525   4.950  0.7814 -0.3863 -0.3615
  451MOL0     C60817  11.166   0.410   5.037  0.0049 -0.7857 -0.2063
  451MOL0     H60818  11.457   0.049   5.278  2.4542 -0.3949 -1.2294
  451MOL0     H60819  11.588  -0.081   5.465  2.9021  0.4253 -1.1890
  451MOL0     H60820  11.527  -0.072   5.738 -0.4561  2.9833 -1.1159
  451MOL0     H60821  11.675  -0.164   5.692 -3.3834 -0.5890 -0.7984
  451MOL0     H60822  11.766  -0.069   5.922 -0.6844 -1.3062  0.9706
  451MOL0     H60823  11.587  -0.018   5.929 -2.7532 -1.9978 -1.6519
  451MOL0     H60824  11.530  -0.250   5.923 -0.0403  0.0995 -3.2264
  451MOL0     H60825  11.695  -0.295   5.884 -2.1673  0.0836 -2.7153
  451MOL0     H60826  11.767  -0.182   6.116  0.3253  1.2256 -2.6871
  451MOL0     H60827  11.605  -0.166   6.152 -1.5354 -1.3794 -0.8563
  451MOL0     H60828  11.549  -0.400   6.160 -0.3314  0.0911  1.8646
  451MOL0     H60829  11.708  -0.441   6.080  2.4333  1.1293 -0.5415
  451MOL0     H60830  11.810  -0.333   6.286 -0.6386 -0.2362 -1.5056
  451MOL0     H60831  11.656  -0.313   6.367  0.5567  1.4688 -0.3705
  451MOL0     H60832  11.620  -0.528   6.413 -0.0878  2.5518 -1.9254
  451MOL0     H60833  11.718  -0.588   6.279  3.6258  0.3123  0.0634
  451MOL0     H60834  11.929  -0.482   6.396  0.8061  0.9874 -0.3742
  451MOL0     H60835  11.862  -0.631   6.460  2.7892  0.9651  1.6948
  451MOL0     H60836  11.856  -0.259   6.572  3.6846 -1.5260 -0.4127
  451MOL0     H60837  11.686  -0.131   6.783  4.2680  2.0983 -0.1772
  451MOL0     H60838  11.682  -0.231   6.938 -0.0083  0.4217  1.5063
  451MOL0     H60839  11.901  -0.203   6.975 -0.1271 -1.5658  0.7274
  451MOL0     H60840  11.823  -0.050   6.957 -1.4203 -2.2948  2.3209
  451MOL0     H60841  11.919  -0.037   6.717 -1.1565 -1.5137 -0.8706
  451MOL0     H60842  12.017  -0.183   6.753  0.1317 -0.0338 -0.0239
  451MOL0     H60843  12.034   0.083   6.913 -0.5184  1.1562 -1.4459
  451MOL0     H60844  12.142   0.052   6.782 -0.6172  0.2489 -0.5916
  451MOL0     H60845  12.334  -0.182   7.090  3.1751  0.9010  1.0176
  451MOL0     H60846  12.667  -0.185   7.075  0.0183 -0.1249  0.4980
  451MOL0     H60847  12.530  -0.238   7.183 -2.6421 -3.7653 -1.4979
  451MOL0     H60848  12.615  -0.358   7.091 -2.4382 -0.3063  1.4589
  451MOL0     H60849  12.658  -0.513   6.478 -1.2297  2.6467 -0.6963
  451MOL0     H60850  12.857  -0.591   6.340  2.1744 -1.2064 -0.7107
  451MOL0     H60851  12.995  -0.404   6.168  0.8713 -1.0511 -4.4460
  451MOL0     H60852  13.137  -0.321   6.233 -2.1052  0.1947  1.8323
  451MOL0     H60853  13.150  -0.599   6.074  1.2716 -1.0095  0.6645
  451MOL0     H60854  13.181  -0.433   6.014  1.2702 -2.1845 -1.3008
  451MOL0     H60855  13.306  -0.593   6.232 -2.7557 -0.3760 -1.6533
  451MOL0     H60856  13.384  -0.433   6.197 -0.5577  1.4926 -2.2029
  451MOL0     H60857  13.393  -0.684   6.008 -1.7759  0.5181 -0.2172
  451MOL0     H60858  13.407  -0.516   5.949  2.0034  1.0723  0.4077
  451MOL0     H60859  13.610  -0.659   6.008 -1.0134 -0.3102 -0.2156
  451MOL0     H60860  13.584  -0.629   6.175  0.4353 -1.2642 -0.6161
  451MOL0     H60861  13.597  -0.395   5.981  0.5508  2.4674  1.5250
  451MOL0     H60862  13.598  -0.401   6.167  1.8609 -0.2734  2.0478
  451MOL0     H60863  13.809  -0.527   6.004  0.2408 -0.6707 -0.3317
  451MOL0     H60864  13.814  -0.482   6.178  0.5847 -2.4024 -1.0764
  451MOL0     H60865  13.946  -0.310   6.065  0.0566  2.3777  2.2049
  451MOL0     H60866  13.806  -0.240   6.129  1.2392  2.8502 -1.3954
  451MOL0     H60867  13.098  -0.280   6.512  0.1990 -0.9642 -0.2691
  451MOL0     H60868  12.914  -0.208   6.645  0.7853  0.6222 -0.5837
  451MOL0     H60869  12.494  -0.170   6.633 -4.6785 -0.2095 -0.8889
  451MOL0     H60870  12.263  -0.112   6.690 -0.6456  0.5050  0.5128
  451MOL0     H60871  11.606   0.296   5.672 -3.9112  4.7069 -1.8677
  451MOL0     H60872  11.503   0.406   5.486 -0.2792 -0.4707 -0.4155
  451MOL0     H60873  11.480   0.508   5.135  0.1617 -1.2196 -1.7265
  451MOL0     H60874  11.448   0.683   4.979  0.2167 -1.4354 -2.0838
  451MOL0     H60875  11.367   0.711   4.729  0.1657 -0.8819  0.5758
  451MOL0     H60876  11.231   0.806   4.673 -1.8994 -0.9809  1.0705
  451MOL0     H60877  11.415   0.908   4.900 -2.0982  0.2477  1.3678
  451MOL0     H60878  11.279   0.997   4.826 -1.2784 -0.3855 -1.4790
  451MOL0     H60879  11.394   0.925   4.600  0.5325  0.9210 -1.0339
  451MOL0     H60880  11.542   0.884   4.694 -0.1733 -2.0615 -1.3560
  451MOL0     H60881  11.400   1.151   4.698 -0.4086 -1.3545  1.0466
  451MOL0     H60882  11.548   1.126   4.594 -1.8235 -3.0152 -2.7087
  451MOL0     H60883  11.738   1.154   4.974 -2.4067 -2.4725  0.6235
  451MOL0     H60884  11.042   0.543   4.915  1.2766 -0.1874 -1.7707
  451MOL0     H60885  11.099   0.329   5.061 -2.1552  0.6822 -1.0146
  452MOL0     O60886   7.158   2.593   5.729 -0.4596  0.1899 -0.6529
  452MOL0     C60887   7.178   2.479   5.770  0.0560  1.0795  0.5309
  452MOL0     O60888   7.139   2.358   5.714  0.1381  0.0271 -0.3003
  452MOL0     C60889   7.090   2.368   5.588 -0.5925 -0.7780 -0.6046
  452MOL0     C60890   6.954   2.353   5.562  0.2923 -0.4474  0.3724
  452MOL0     C60891   6.908   2.351   5.427  0.7639 -0.6695  0.2467
  452MOL0     C60892   6.990   2.389   5.321 -0.2876 -0.5419  0.5827
  452MOL0     O60893   6.933   2.361   5.194 -0.4910  0.2659  0.4527
  452MOL0     C60894   6.973   2.442   5.077 -0.1766  0.2180 -0.5939
  452MOL0     C60895   6.844   2.476   5.005 -0.7367 -0.2123  0.2268
  452MOL0     C60896   6.733   2.515   5.100 -0.4764 -1.3470 -0.5764
  452MOL0     C60897   6.624   2.572   5.011  0.2537 -0.0075  0.3350
  452MOL0     C60898   6.496   2.610   5.091  0.5265  0.2873  0.4749
  452MOL0     C60899   6.406   2.699   5.016 -0.8073 -0.3575 -0.8146
  452MOL0     C60900   6.279   2.724   5.102  0.7839 -0.8698 -1.0773
  452MOL0     C60901   6.158   2.630   5.057  0.3099 -0.3021  0.1062
  452MOL0     N60902   6.034   2.639   5.132 -0.5379 -0.4436 -1.0919
  452MOL0     C60903   6.022   2.598   5.263 -0.0875  0.4386  0.7233
  452MOL0     C60904   5.912   2.670   5.305 -0.4975  0.2344  0.1803
  452MOL0     C60905   5.868   2.670   5.451 -1.0002 -0.8468 -0.1817
  452MOL0     C60906   5.773   2.554   5.475  0.1804  0.1913 -1.2738
  452MOL0     C60907   5.840   2.429   5.541  0.3363  0.6934  0.0489
  452MOL0     C60908   5.755   2.295   5.555 -0.2426  0.6123  0.5976
  452MOL0     O60909   5.747   2.221   5.424  0.2055 -0.1264  0.0502
  452MOL0     C60910   5.843   2.131   5.396  1.0551  0.7126  0.1412
  452MOL0     C60911   5.868   2.012   5.459 -0.7410  0.8636 -0.3529
  452MOL0     C60912   5.971   1.920   5.418  0.3217 -1.4353 -0.1160
  452MOL0     C60913   5.979   1.777   5.484 -0.1816 -0.0556  0.6545
  452MOL0     C60914   6.066   1.962   5.315 -0.7653 -0.8716 -0.5555
  452MOL0     C60915   6.177   1.877   5.266  0.3267  0.5174 -0.2551
  452MOL0     O60916   6.232   1.901   5.143  0.3045 -0.6896  0.3164
  452MOL0     C60917   6.329   1.822   5.087  1.0916  0.0175 -0.8992
  452MOL0     C60918   6.313   1.774   4.958 -0.2584 -0.5924 -1.0514
  452MOL0     C60919   6.405   1.692   4.889  0.2391 -1.2314  0.3837
  452MOL0     C60920   6.528   1.677   4.945 -0.4914 -0.2442 -0.6592
  452MOL0     O60921   6.616   1.595   4.877 -0.1507  0.7934 -0.1845
  452MOL0     C60922   6.759   1.606   4.921 -0.1046 -0.0594  0.1458
  452MOL0     C60923   6.846   1.547   4.808  0.0381 -0.6045  1.3390
  452MOL0     C60924   6.849   1.395   4.778 -0.2057  0.0549  0.8436
  452MOL0     C60925   6.917   1.323   4.897 -0.9107  0.4381  1.1079
  452MOL0     C60926   6.914   1.170   4.868 -0.8808  0.2139  0.1086
  452MOL0     C60927   6.968   1.096   4.990 -0.5472 -0.7302  0.2365
  452MOL0     C60928   7.022   0.955   4.960  0.1409 -0.4250 -0.0605
  452MOL0     C60929   7.086   0.876   5.080 -0.0104  0.0847  1.0803
  452MOL0    Cl60930   7.240   0.964   5.128  0.1955 -0.5171  0.0890
  452MOL0     C60931   6.553   1.726   5.082  0.1795 -0.7458  0.8682
  452MOL0     C60932   6.454   1.799   5.143  1.0782 -0.3922 -0.2287
  452MOL0     O60933   6.224   1.803   5.347  0.0251  0.9945 -0.0556
  452MOL0     C60934   6.045   2.087   5.252 -0.8311 -0.1614 -0.0227
  452MOL0     C60935   5.935   2.168   5.290  0.6025  0.1101  0.4595
  452MOL0     N60936   5.865   2.757   5.212  0.2345 -1.2551 -0.3956
  452MOL0     N60937   5.943   2.738   5.108  1.0407  0.1609 -0.2067
  452MOL0     C60938   7.122   2.421   5.353  0.4179  0.1053  0.4143
  452MOL0     C60939   7.168   2.403   5.478 -0.1439  0.2530 -0.3838
  452MOL0     C60940   7.273   2.469   5.881 -0.0290  0.0313 -0.4830
  452MOL0     C60941   7.291   2.585   5.965 -0.4487  0.5893 -0.3733
  452MOL0     C60942   7.378   2.568   6.076 -0.1790 -0.4112 -0.1701
  452MOL0     C60943   7.414   2.443   6.124 -0.9655  1.6354  1.1075
  452MOL0     O60944   7.489   2.449   6.242  0.3617  0.1482  0.2365
  452MOL0     C60945   7.567   2.324   6.273  0.0805  0.1181  0.7637
  452MOL0     C60946   7.648   2.358   6.393  0.3667 -0.7644  0.0918
  452MOL0     C60947   7.799   2.313   6.384 -0.1927 -0.2933 -0.2824
  452MOL0     C60948   7.889   2.410   6.455  0.6227  1.2791  0.9771
  452MOL0     C60949   7.889   2.547   6.409 -0.2601 -0.5780  0.2206
  452MOL0     C60950   7.900   2.662   6.372  0.0538  0.1484 -0.8724
  452MOL0     C60951   7.377   2.331   6.047  0.3162 -0.0380  0.2197
  452MOL0     C60952   7.322   2.347   5.925 -1.1268 -0.2572  0.4412
  452MOL0     H60953   6.901   2.326   5.652 -0.1158 -0.1719  0.2180
  452MOL0     H60954   6.807   2.316   5.414  0.6510  0.1768 -1.4613
  452MOL0     H60955   7.022   2.533   5.114 -1.0593  0.0751  1.0053
  452MOL0     H60956   7.035   2.383   5.009  0.3078 -4.2600  3.2602
  452MOL0     H60957   6.866   2.566   4.947 -1.6903  0.4244  0.8310
  452MOL0     H60958   6.819   2.404   4.926 -1.3597 -0.8351  0.9743
  452MOL0     H60959   6.692   2.448   5.177  0.1903 -0.0069  1.0118
  452MOL0     H60960   6.781   2.591   5.163 -4.2807 -1.2305  2.5761
  452MOL0     H60961   6.643   2.672   4.970 -1.7521  0.0026 -0.6998
  452MOL0     H60962   6.600   2.497   4.935  1.4777 -1.3379  1.2350
  452MOL0     H60963   6.435   2.523   5.119 -3.3713  2.6983  0.1599
  452MOL0     H60964   6.526   2.649   5.189  1.3274 -0.5701  0.5931
  452MOL0     H60965   6.449   2.798   4.998 -2.2974  0.8044  1.5748
  452MOL0     H60966   6.375   2.666   4.916 -3.0853 -0.6927 -0.0412
  452MOL0     H60967   6.306   2.704   5.206  1.0126 -0.4230 -1.0447
  452MOL0     H60968   6.261   2.832   5.102  2.0549 -0.6435 -0.7184
  452MOL0     H60969   6.176   2.523   5.070 -0.4492 -0.3953  0.4656
  452MOL0     H60970   6.136   2.658   4.954  2.1065 -0.5271 -0.3754
  452MOL0     H60971   6.080   2.527   5.321  1.6765 -0.5568 -2.0514
  452MOL0     H60972   5.955   2.652   5.515 -0.2863 -1.6155 -1.3331
  452MOL0     H60973   5.822   2.763   5.487  0.0552 -1.0516  1.8187
  452MOL0     H60974   5.708   2.520   5.394 -2.1712  1.0101  0.1784
  452MOL0     H60975   5.704   2.590   5.552  0.3277 -3.1529  0.6107
  452MOL0     H60976   5.882   2.453   5.639  2.1566  0.7412 -0.6867
  452MOL0     H60977   5.925   2.414   5.474 -0.3079 -1.4634 -0.3413
  452MOL0     H60978   5.650   2.314   5.580 -1.5036 -2.0677 -2.0360
  452MOL0     H60979   5.812   2.233   5.625  2.2584  0.5619 -1.3270
  452MOL0     H60980   5.803   1.977   5.539  2.3050  0.5721  2.2152
  452MOL0     H60981   6.065   1.783   5.551 -0.6518  1.5351  1.1599
  452MOL0     H60982   5.890   1.754   5.543  1.1071 -3.6322  1.4873
  452MOL0     H60983   5.992   1.713   5.396 -0.4091  0.3668  0.3126
  452MOL0     H60984   6.212   1.797   4.924 -0.9477  0.7969  1.6601
  452MOL0     H60985   6.378   1.646   4.794 -2.3777  1.6597 -0.4272
  452MOL0     H60986   6.792   1.707   4.946  2.9789 -1.1354  0.9438
  452MOL0     H60987   6.774   1.563   5.020 -0.2607  2.0046  1.1237
  452MOL0     H60988   6.833   1.609   4.719  4.7250 -0.4987  0.4968
  452MOL0     H60989   6.948   1.567   4.840  0.1787 -2.0253  1.8656
  452MOL0     H60990   6.905   1.366   4.688 -1.8219  1.0997 -0.5593
  452MOL0     H60991   6.747   1.359   4.763 -0.4151  0.4438  1.3148
  452MOL0     H60992   7.020   1.361   4.900 -0.0924 -1.5673  0.5237
  452MOL0     H60993   6.866   1.344   4.991 -1.5121  1.4730  0.5661
  452MOL0     H60994   6.978   1.160   4.780 -1.2331  2.0600 -0.4120
  452MOL0     H60995   6.815   1.145   4.831 -0.4991 -0.3784 -0.5329
  452MOL0     H60996   7.053   1.151   5.032 -0.9734 -0.1050  0.2811
  452MOL0     H60997   6.885   1.102   5.060 -0.8571  2.5269 -0.2635
  452MOL0     H60998   7.092   0.972   4.878  0.1911 -2.5906 -0.5334
  452MOL0     H60999   6.937   0.899   4.921 -1.1686  1.4262 -0.0024
  452MOL0     H61000   7.115   0.780   5.036  0.9476  1.9589 -2.7631
  452MOL0     H61001   7.003   0.862   5.150 -1.2302 -2.7482 -0.7556
  452MOL0     H61002   6.645   1.691   5.128  1.1401 -0.3800 -0.6851
  452MOL0     H61003   6.473   1.857   5.232 -1.1425 -0.5615  0.4130
  452MOL0     H61004   6.107   2.114   5.167 -3.1779  0.3237 -1.6603
  452MOL0     H61005   5.908   2.262   5.242 -2.7416 -1.4095 -0.8993
  452MOL0     H61006   7.197   2.459   5.284 -0.7040  3.5797  0.9109
  452MOL0     H61007   7.275   2.413   5.491  0.0927 -1.5442 -0.6023
  452MOL0     H61008   7.251   2.681   5.933  2.4358  1.6246 -1.2081
  452MOL0     H61009   7.396   2.644   6.150 -1.3346 -3.6653  3.8281
  452MOL0     H61010   7.495   2.244   6.289  1.6172 -1.7354 -1.0030
  452MOL0     H61011   7.641   2.326   6.193  1.2469 -0.4189  1.7890
  452MOL0     H61012   7.595   2.326   6.483 -2.1393  2.5005 -0.0597
  452MOL0     H61013   7.642   2.467   6.389  0.4940 -0.7852 -0.8543
  452MOL0     H61014   7.827   2.307   6.279 -4.2846 -0.1080 -1.5541
  452MOL0     H61015   7.797   2.216   6.436  3.7589 -1.2008 -1.4703
  452MOL0     H61016   7.986   2.373   6.419 -1.1547 -0.1340 -2.9274
  452MOL0     H61017   7.885   2.392   6.563 -2.3915 -1.8308  0.5471
  452MOL0     H61018   7.922   2.759   6.334  0.3691  0.3787 -0.1116
  452MOL0     H61019   7.391   2.233   6.093 -1.3039 -0.6279 -0.4442
  452MOL0     H61020   7.297   2.254   5.875  0.9492 -0.7565  0.2691
  453MOL0     O61021   4.345   8.605   0.498  0.7526  0.3119 -0.3447
  453MOL0     C61022   4.264   8.692   0.514 -0.6073  0.0084  1.0355
  453MOL0     O61023   4.140   8.690   0.464 -0.2666  0.2553  0.9797
  453MOL0     C61024   4.090   8.576   0.405  0.7920 -1.2703  0.0119
  453MOL0     C61025   4.114   8.437   0.439  0.3461 -0.6099  0.3546
  453MOL0     C61026   4.048   8.325   0.370  0.3996  0.7127  0.7420
  453MOL0     C61027   3.958   8.350   0.269 -0.4872  0.9576 -0.2206
  453MOL0     O61028   3.885   8.244   0.228 -0.8260 -0.7140  1.0129
  453MOL0     C61029   3.747   8.262   0.235 -0.1753  0.1513 -0.2191
  453MOL0     C61030   3.700   8.148   0.326  0.0381 -0.8033  0.1716
  453MOL0     C61031   3.561   8.163   0.383 -0.6575 -0.1635  0.3302
  453MOL0     C61032   3.541   8.048   0.487 -1.0082 -1.0311  0.1559
  453MOL0     C61033   3.403   8.023   0.530 -0.6659  0.7794  0.2137
  453MOL0     C61034   3.387   7.964   0.675  0.3250 -0.0081  0.2088
  453MOL0     C61035   3.231   7.939   0.685 -0.0163 -0.8247  0.3528
  453MOL0     C61036   3.206   7.823   0.775  0.5786  0.4943 -0.4333
  453MOL0     N61037   3.254   7.852   0.918 -0.1390  0.2343  0.0588
  453MOL0     C61038   3.352   7.778   0.990  0.8413 -0.8455  0.3577
  453MOL0     C61039   3.348   7.835   1.119 -0.1227  0.9541  0.8866
  453MOL0     C61040   3.453   7.812   1.225  0.0717  0.6614 -1.2579
  453MOL0     C61041   3.549   7.931   1.229  0.6079 -0.0090 -0.3493
  453MOL0     C61042   3.653   7.925   1.340  0.7227 -0.3204  1.2840
  453MOL0     C61043   3.608   7.974   1.474 -1.0407  0.0584 -0.6451
  453MOL0     O61044   3.696   8.061   1.532  0.1267 -0.1465 -0.1532
  453MOL0     C61045   3.713   8.198   1.497 -0.0022  0.3204 -0.2208
  453MOL0     C61046   3.642   8.264   1.398 -0.6334 -0.7396  0.7450
  453MOL0     C61047   3.663   8.402   1.361 -0.4144 -0.1458 -1.2223
  453MOL0     C61048   3.582   8.487   1.276 -0.1981  0.7376  0.3812
  453MOL0     C61049   3.772   8.469   1.436 -0.8889 -0.3530 -0.9573
  453MOL0     C61050   3.807   8.615   1.417  0.8141  0.1823  0.3283
  453MOL0     O61051   3.932   8.647   1.472 -0.2327  0.0826 -0.0512
  453MOL0     C61052   3.959   8.778   1.494  0.0466 -0.0712 -0.0891
  453MOL0     C61053   3.963   8.883   1.406 -0.5170 -0.7448 -0.4012
  453MOL0     C61054   3.985   9.011   1.446  0.0563 -0.0059  0.0810
  453MOL0     C61055   4.000   9.044   1.575  0.3580 -0.1171 -0.0345
  453MOL0     O61056   4.029   9.178   1.592 -0.3256  0.2183  0.9972
  453MOL0     C61057   3.943   9.244   1.689 -0.3385  0.8330  0.3238
  453MOL0     C61058   3.964   9.389   1.707  0.9951 -0.4770  0.4904
  453MOL0     C61059   3.868   9.456   1.802  0.2018  0.0612 -0.4693
  453MOL0     C61060   3.917   9.605   1.820 -0.1543  0.1541 -0.9818
  453MOL0     C61061   3.859   9.695   1.706 -0.0132 -0.3210  0.6197
  453MOL0     C61062   3.704   9.699   1.704 -0.2811 -0.0201 -0.1084
  453MOL0     C61063   3.649   9.832   1.653 -0.2219  0.6607 -0.1488
  453MOL0     C61064   3.636   9.850   1.505  0.0970 -0.0663  1.0382
  453MOL0    Cl61065   3.611  10.026   1.463  0.3466 -0.1784 -0.2035
  453MOL0     C61066   3.991   8.944   1.671  0.2896  1.1300 -0.5497
  453MOL0     C61067   3.960   8.815   1.629  0.0344 -0.1904  1.1856
  453MOL0     O61068   3.731   8.704   1.369  0.1581 -0.3708  0.6322
  453MOL0     C61069   3.857   8.391   1.521 -0.0722  0.5339  0.0445
  453MOL0     C61070   3.819   8.263   1.555  0.5166 -0.5129  0.1612
  453MOL0     N61071   3.245   7.924   1.123 -0.1000  0.2269 -1.0882
  453MOL0     N61072   3.180   7.924   1.009 -0.1791 -0.0873 -0.5233
  453MOL0     C61073   3.945   8.479   0.224  0.5098  0.2855 -0.1655
  453MOL0     C61074   4.006   8.598   0.280 -0.8207  0.6279  0.3494
  453MOL0     C61075   4.319   8.828   0.567 -0.3054  0.4850 -0.0441
  453MOL0     C61076   4.456   8.834   0.609  0.7024 -0.3382  0.2137
  453MOL0     C61077   4.487   8.956   0.679 -1.2929  0.2831  0.0566
  453MOL0     C61078   4.401   9.066   0.691 -0.8605  0.2369 -0.3983
  453MOL0     O61079   4.421   9.181   0.756 -0.5335 -0.0528  0.3733
  453MOL0     C61080   4.392   9.161   0.898  0.2862  0.2587  0.2605
  453MOL0     C61081   4.382   9.294   0.981 -0.0794 -0.4100 -0.2414
  453MOL0     C61082   4.382   9.279   1.130  0.2649 -0.3105 -0.0456
  453MOL0     C61083   4.411   9.424   1.194 -0.3914  0.0730  0.4101
  453MOL0     C61084   4.381   9.432   1.333  0.7208  0.8994 -0.8630
  453MOL0     C61085   4.355   9.451   1.447 -0.5109 -0.1813 -0.0317
  453MOL0     C61086   4.277   9.062   0.640 -0.5934 -0.3221 -0.5296
  453MOL0     C61087   4.238   8.945   0.570 -0.3849 -0.2491 -0.4566
  453MOL0     H61088   4.178   8.419   0.524 -1.1714 -2.2765  1.2106
  453MOL0     H61089   4.058   8.224   0.407  3.4449  0.7601  0.3214
  453MOL0     H61090   3.711   8.359   0.271 -2.8562 -1.2042  1.0385
  453MOL0     H61091   3.698   8.247   0.138 -1.2320 -0.6680  0.4152
  453MOL0     H61092   3.695   8.053   0.272 -2.6746 -0.4141 -0.4118
  453MOL0     H61093   3.764   8.141   0.415 -0.7572 -1.1333  0.7334
  453MOL0     H61094   3.543   8.259   0.432 -0.7283 -1.0137  2.0200
  453MOL0     H61095   3.481   8.148   0.309  1.1338  0.8567 -1.9569
  453MOL0     H61096   3.588   7.952   0.465  1.1393  0.3815 -1.8803
  453MOL0     H61097   3.593   8.076   0.578 -1.1337  3.0743 -0.8418
  453MOL0     H61098   3.362   8.125   0.528  0.3221  1.2181 -2.7991
  453MOL0     H61099   3.357   7.967   0.448  2.8576 -1.1505 -0.6143
  453MOL0     H61100   3.435   7.866   0.686 -0.5378 -1.4891 -5.6546
  453MOL0     H61101   3.403   8.036   0.755 -1.8619 -0.9284  1.5522
  453MOL0     H61102   3.180   8.034   0.705 -0.4264 -0.4344 -2.2831
  453MOL0     H61103   3.197   7.912   0.585  3.2837 -1.1059 -0.8116
  453MOL0     H61104   3.270   7.738   0.747  0.6931  0.4831 -0.1451
  453MOL0     H61105   3.105   7.783   0.787  1.6237 -1.5907  3.2637
  453MOL0     H61106   3.425   7.707   0.953  1.4078  0.5386 -1.3504
  453MOL0     H61107   3.425   7.817   1.330  3.6209  0.4126 -0.1771
  453MOL0     H61108   3.503   7.716   1.205 -1.6381 -0.3898 -0.7061
  453MOL0     H61109   3.487   8.021   1.227  0.2467 -0.2063  1.0664
  453MOL0     H61110   3.593   7.933   1.129 -0.1817 -0.2931 -0.7063
  453MOL0     H61111   3.734   7.992   1.313  2.2654 -1.1191  3.6159
  453MOL0     H61112   3.695   7.826   1.359 -0.1172 -1.0399 -0.3919
  453MOL0     H61113   3.581   7.886   1.534  0.8289  0.5469  1.0049
  453MOL0     H61114   3.516   8.031   1.464 -0.5211  0.9687 -0.3820
  453MOL0     H61115   3.566   8.212   1.342 -0.8133  1.9870 -1.7928
  453MOL0     H61116   3.632   8.546   1.198  1.3863  3.0551  2.9569
  453MOL0     H61117   3.519   8.417   1.221 -1.6602 -0.5289  3.4880
  453MOL0     H61118   3.534   8.571   1.327  0.6479  1.6697 -0.3043
  453MOL0     H61119   3.952   8.864   1.300 -0.7839 -3.0581 -0.0033
  453MOL0     H61120   3.991   9.088   1.370 -2.7584 -0.6921 -0.9464
  453MOL0     H61121   3.838   9.220   1.670 -0.1473 -0.9171  1.2181
  453MOL0     H61122   3.947   9.189   1.784  2.7286  1.9187  0.9617
  453MOL0     H61123   4.071   9.404   1.725  1.8152  0.6125 -3.9955
  453MOL0     H61124   3.936   9.438   1.614 -4.0392  0.8792  2.3848
  453MOL0     H61125   3.888   9.415   1.902  3.4307  2.3027 -0.0357
  453MOL0     H61126   3.761   9.456   1.780 -0.5547 -2.8870  2.3720
  453MOL0     H61127   3.870   9.648   1.909 -0.3639  0.6312 -1.3177
  453MOL0     H61128   4.026   9.610   1.824 -0.2212  2.3891  2.6027
  453MOL0     H61129   3.890   9.662   1.606  0.9808  0.9222  0.4920
  453MOL0     H61130   3.890   9.797   1.731 -2.1141  1.0125 -1.6405
  453MOL0     H61131   3.680   9.617   1.635 -1.6988  0.6798 -0.5048
  453MOL0     H61132   3.666   9.673   1.803 -0.7131 -1.4435 -0.6211
  453MOL0     H61133   3.719   9.908   1.689 -0.9256  0.6579  1.3296
  453MOL0     H61134   3.561   9.858   1.712 -0.0228 -0.3198  0.6118
  453MOL0     H61135   3.542   9.809   1.467  0.1931  1.6912 -1.3481
  453MOL0     H61136   3.714   9.817   1.435 -1.2420 -0.0701 -0.5159
  453MOL0     H61137   3.994   8.984   1.772  1.2147 -0.1487 -0.0595
  453MOL0     H61138   3.953   8.733   1.699 -1.2880 -2.0911 -1.0312
  453MOL0     H61139   3.943   8.432   1.573 -1.7498  1.1031  2.5232
  453MOL0     H61140   3.885   8.202   1.616  2.8311  2.4986  0.9413
  453MOL0     H61141   3.876   8.507   0.145  3.7865  0.3966 -3.2530
  453MOL0     H61142   3.979   8.697   0.246 -1.7750  0.3300  0.2079
  453MOL0     H61143   4.537   8.765   0.593  3.8041  1.8990  4.2834
  453MOL0     H61144   4.586   8.968   0.723 -0.2748  3.8043 -2.6760
  453MOL0     H61145   4.307   9.092   0.904  1.7172 -2.0655 -3.3551
  453MOL0     H61146   4.482   9.114   0.938  0.1293 -0.5021 -0.2709
  453MOL0     H61147   4.289   9.346   0.959  0.2402  0.8640  1.2167
  453MOL0     H61148   4.458   9.361   0.941  1.4884 -3.0998 -2.1167
  453MOL0     H61149   4.457   9.208   1.169  1.0859 -1.2388 -3.0567
  453MOL0     H61150   4.281   9.256   1.166  0.7663 -0.5492  1.2833
  453MOL0     H61151   4.367   9.508   1.139  3.3827  1.4684 -0.7804
  453MOL0     H61152   4.515   9.452   1.176  0.4308 -1.4240  2.4273
  453MOL0     H61153   4.328   9.479   1.547  1.2458  0.3178  0.3514
  453MOL0     H61154   4.223   9.155   0.644 -2.7677 -1.4320 -2.2259
  453MOL0     H61155   4.141   8.944   0.521 -0.0550 -2.2654 -1.1778
  454MOL0     O61156  10.940   1.493   4.614  0.5616  0.6393  0.1632
  454MOL0     C61157  10.975   1.474   4.498  0.0495 -0.6893  0.8142
  454MOL0     O61158  11.110   1.467   4.455  0.1387  0.4314  0.0390
  454MOL0     C61159  11.214   1.501   4.533  0.8757 -0.0608 -0.2820
  454MOL0     C61160  11.334   1.432   4.511 -0.5605 -1.1357 -0.1457
  454MOL0     C61161  11.442   1.454   4.601 -0.5487  0.6264 -1.1129
  454MOL0     C61162  11.442   1.549   4.707 -0.3509 -0.1462  0.1460
  454MOL0     O61163  11.543   1.574   4.798 -0.0974 -0.1968 -0.9666
  454MOL0     C61164  11.661   1.507   4.777 -0.0935  1.5282  0.2176
  454MOL0     C61165  11.762   1.526   4.886  0.4423  0.7882 -0.3718
  454MOL0     C61166  11.796   1.673   4.897  0.4755  0.8432 -0.3895
  454MOL0     C61167  11.896   1.696   5.011  0.5663 -0.5039  0.4496
  454MOL0     C61168  11.891   1.834   5.051 -0.0604 -0.1900 -0.4020
  454MOL0     C61169  11.993   1.852   5.160 -0.0595 -0.0829 -1.4777
  454MOL0     C61170  12.012   2.016   5.194 -0.2981  1.1173  0.2495
  454MOL0     C61171  12.070   2.022   5.339  0.5619 -0.2678 -0.1478
  454MOL0     N61172  12.211   1.965   5.347  0.2825 -0.5603 -0.0371
  454MOL0     C61173  12.315   1.993   5.254  0.0863 -0.2799  0.1520
  454MOL0     C61174  12.409   1.909   5.274 -0.3671  0.1869 -0.1407
  454MOL0     C61175  12.535   1.901   5.200  1.2995  0.6221 -0.3358
  454MOL0     C61176  12.516   1.821   5.065 -0.7429  0.0799 -1.2654
  454MOL0     C61177  12.511   1.671   5.055  0.5824 -0.2271  0.2367
  454MOL0     C61178  12.382   1.628   5.134 -0.0826 -0.2163 -0.6215
  454MOL0     O61179  12.322   1.507   5.095 -0.1169 -0.1195  0.5871
  454MOL0     C61180  12.211   1.475   5.170  0.2892 -0.3433  0.9288
  454MOL0     C61181  12.172   1.535   5.291  0.3991 -0.1856 -0.3883
  454MOL0     C61182  12.054   1.503   5.350  0.4537  0.2075  0.7883
  454MOL0     C61183  12.009   1.582   5.470 -0.6447 -0.1265  0.3306
  454MOL0     C61184  11.967   1.403   5.289 -0.6472  0.3739 -0.3571
  454MOL0     C61185  11.829   1.363   5.332  1.2479 -0.3814 -0.0546
  454MOL0     O61186  11.806   1.379   5.468  0.1127 -0.4272 -0.2068
  454MOL0     C61187  11.677   1.376   5.516 -1.2067  0.1734 -0.0866
  454MOL0     C61188  11.572   1.460   5.492  0.4973 -1.0489 -0.7448
  454MOL0     C61189  11.469   1.479   5.584 -0.6557  0.1870 -0.8633
  454MOL0     C61190  11.468   1.408   5.702  0.3019 -0.2874 -0.5409
  454MOL0     O61191  11.365   1.436   5.801 -0.4245  0.2891  0.1124
  454MOL0     C61192  11.298   1.318   5.871  0.1478  0.4228 -0.2431
  454MOL0     C61193  11.256   1.205   5.777 -0.0039 -0.4046  0.8488
  454MOL0     C61194  11.189   1.086   5.841  0.4136  0.5022  0.1904
  454MOL0     C61195  11.276   1.001   5.933  0.7575  0.2829  0.4154
  454MOL0     C61196  11.200   0.872   5.975  0.3117  0.1204  0.0080
  454MOL0     C61197  11.284   0.744   6.029  0.8810 -0.8058 -0.4681
  454MOL0     C61198  11.372   0.696   5.922 -0.0243  0.5120 -1.2158
  454MOL0     C61199  11.445   0.581   5.991 -0.9209 -0.2739 -0.1865
  454MOL0    Cl61200  11.547   0.502   5.868 -0.0321 -0.0784  0.5073
  454MOL0     C61201  11.563   1.305   5.716  1.8278 -0.2006  0.7889
  454MOL0     C61202  11.663   1.288   5.620 -0.8223  0.6949 -0.6359
  454MOL0     O61203  11.738   1.319   5.255  0.9327 -0.6181 -0.4211
  454MOL0     C61204  12.015   1.341   5.172 -0.6482  0.1054  0.3435
  454MOL0     C61205  12.131   1.378   5.103 -0.6428 -0.5094 -0.7377
  454MOL0     N61206  12.373   1.833   5.385 -0.1685  0.4322  0.7191
  454MOL0     N61207  12.254   1.869   5.427  0.7154  1.4192  0.3789
  454MOL0     C61208  11.326   1.621   4.717 -0.0903  0.4723 -0.3096
  454MOL0     C61209  11.215   1.595   4.633  0.2111  1.0638 -0.0849
  454MOL0     C61210  10.879   1.480   4.389 -0.6556  0.5749  0.0569
  454MOL0     C61211  10.751   1.435   4.409  0.8867 -0.7235  0.5364
  454MOL0     C61212  10.648   1.451   4.323  0.5364  0.0512  0.7474
  454MOL0     C61213  10.666   1.523   4.208  0.2325 -0.0833 -0.0183
  454MOL0     O61214  10.557   1.542   4.113  0.1782 -0.0841 -0.0652
  454MOL0     C61215  10.613   1.539   3.976  0.9611 -1.3710  0.0244
  454MOL0     C61216  10.505   1.493   3.872 -0.9826  0.9068 -0.2291
  454MOL0     C61217  10.493   1.337   3.872  0.2472 -0.3776  0.3158
  454MOL0     C61218  10.397   1.282   3.773 -0.3793  0.1221  0.0089
  454MOL0     C61219  10.404   1.141   3.784  0.0188  0.1544  0.1616
  454MOL0     C61220  10.402   1.020   3.772  0.2476 -0.2676  1.0214
  454MOL0     C61221  10.799   1.580   4.180  0.1919  1.1021 -0.7229
  454MOL0     C61222  10.906   1.547   4.268  0.1533 -0.1279 -0.6328
  454MOL0     H61223  11.347   1.362   4.429 -1.2405 -2.9017  1.1822
  454MOL0     H61224  11.544   1.422   4.583  0.6154  2.4972  1.4931
  454MOL0     H61225  11.637   1.400   4.775  0.6802  1.3075  1.2952
  454MOL0     H61226  11.702   1.531   4.679  1.0255  1.1017  0.5589
  454MOL0     H61227  11.715   1.506   4.983 -0.6948 -3.0812 -1.5221
  454MOL0     H61228  11.848   1.461   4.873  1.6781  2.4999 -1.0088
  454MOL0     H61229  11.824   1.725   4.805  3.6992  1.9484  1.0831
  454MOL0     H61230  11.703   1.729   4.915 -1.2515 -2.5441  2.3804
  454MOL0     H61231  11.856   1.648   5.101 -0.2589  1.7651  1.3684
  454MOL0     H61232  11.998   1.664   4.989  1.5470  1.3441  1.9339
  454MOL0     H61233  11.936   1.897   4.974 -2.0752  0.1266 -1.3956
  454MOL0     H61234  11.790   1.865   5.078 -3.0413 -4.6770 -4.7806
  454MOL0     H61235  11.962   1.787   5.242  0.8814  1.5914  0.2818
  454MOL0     H61236  12.090   1.814   5.128  1.3297  0.3924  1.7829
  454MOL0     H61237  12.083   2.060   5.124  0.2149 -1.4540 -0.9565
  454MOL0     H61238  11.914   2.064   5.207 -2.1196 -2.3876  0.8825
  454MOL0     H61239  12.003   1.966   5.405 -1.3255  0.9239 -0.9753
  454MOL0     H61240  12.071   2.127   5.371 -1.6049  0.9476 -3.5524
  454MOL0     H61241  12.314   2.065   5.173  2.9309 -0.0985  0.1861
  454MOL0     H61242  12.577   2.000   5.177  1.6108 -0.0497 -3.0126
  454MOL0     H61243  12.605   1.836   5.254 -1.8705 -1.9417  0.9892
  454MOL0     H61244  12.601   1.862   5.011 -0.7824  1.5908 -0.2290
  454MOL0     H61245  12.430   1.872   5.021 -0.6605  2.4916  1.1294
  454MOL0     H61246  12.607   1.625   5.080  1.0895  1.3204  1.2914
  454MOL0     H61247  12.493   1.653   4.949 -1.6897  0.8872  0.3744
  454MOL0     H61248  12.307   1.705   5.115  0.8092  0.4401 -1.5807
  454MOL0     H61249  12.408   1.629   5.240  1.9389  2.5669 -1.0489
  454MOL0     H61250  12.224   1.610   5.351  0.3841 -0.3680 -0.1466
  454MOL0     H61251  12.061   1.672   5.503 -1.3716  0.8196 -1.0678
  454MOL0     H61252  11.904   1.609   5.459 -1.0551 -0.1425  3.2275
  454MOL0     H61253  12.003   1.508   5.552  1.7415 -0.7689  0.0038
  454MOL0     H61254  11.578   1.522   5.404 -0.3100 -0.3547 -0.3222
  454MOL0     H61255  11.403   1.564   5.570  1.2635  2.1374  1.1621
  454MOL0     H61256  11.358   1.281   5.954 -1.1753  1.8285  1.4248
  454MOL0     H61257  11.201   1.356   5.905 -0.3865  1.3695 -2.6124
  454MOL0     H61258  11.189   1.236   5.697  1.5029 -1.1807 -0.7957
  454MOL0     H61259  11.335   1.171   5.709  0.3476  1.1659  0.4417
  454MOL0     H61260  11.153   1.026   5.757 -0.9907  1.1353  0.3195
  454MOL0     H61261  11.112   1.132   5.903 -0.8828  0.6397 -1.4637
  454MOL0     H61262  11.370   0.972   5.886  1.1750  3.0527 -0.6036
  454MOL0     H61263  11.299   1.059   6.023 -2.8097 -2.4027  3.4052
  454MOL0     H61264  11.150   0.834   5.886 -2.7662 -2.5132  2.6063
  454MOL0     H61265  11.124   0.900   6.048 -1.6615 -1.7221 -1.2062
  454MOL0     H61266  11.345   0.772   6.116 -2.2589 -2.9913  2.7214
  454MOL0     H61267  11.224   0.659   6.062 -1.4256  1.1440  0.7433
  454MOL0     H61268  11.447   0.766   5.883  0.9864  0.4368  0.4634
  454MOL0     H61269  11.310   0.653   5.844  2.3162 -1.4527 -2.1275
  454MOL0     H61270  11.379   0.505   6.036 -1.1561  0.7570  1.2949
  454MOL0     H61271  11.512   0.624   6.066  1.2560 -2.5111 -0.7312
  454MOL0     H61272  11.568   1.244   5.805  2.5875 -2.6935 -0.8408
  454MOL0     H61273  11.746   1.221   5.640 -1.6944 -1.3292 -3.2414
  454MOL0     H61274  11.953   1.269   5.118  1.5535 -1.2035 -0.5795
  454MOL0     H61275  12.166   1.329   5.013 -0.7066 -0.3544 -0.8469
  454MOL0     H61276  11.314   1.682   4.806 -1.9066 -1.4727  0.8922
  454MOL0     H61277  11.128   1.660   4.638  1.0691  2.2863 -0.5543
  454MOL0     H61278  10.739   1.392   4.508 -0.7784 -0.1034  0.6376
  454MOL0     H61279  10.547   1.415   4.338  0.7972 -0.2170  1.9330
  454MOL0     H61280  10.645   1.639   3.945 -0.1375  0.2377  3.5760
  454MOL0     H61281  10.703   1.477   3.978  2.9135  1.2868 -0.0935
  454MOL0     H61282  10.549   1.517   3.775  1.6196 -0.8283  0.4264
  454MOL0     H61283  10.410   1.543   3.895 -1.0040  0.5664  0.4690
  454MOL0     H61284  10.461   1.308   3.972 -0.6523  0.2608  0.2219
  454MOL0     H61285  10.590   1.289   3.855 -0.2893 -1.0692 -0.9400
  454MOL0     H61286  10.424   1.298   3.668 -0.0447 -5.1670 -0.9943
  454MOL0     H61287  10.290   1.296   3.794 -0.6577 -1.6182 -0.1560
  454MOL0     H61288  10.399   0.914   3.759 -1.3019 -0.1837  0.5006
  454MOL0     H61289  10.800   1.649   4.096 -1.1418  0.8299 -0.9862
  454MOL0     H61290  11.001   1.600   4.260  1.2244 -1.5809  1.4077
  455MOL0     O61291   8.993   8.262   3.863 -0.1368  0.6573 -0.2311
  455MOL0     C61292   9.032   8.348   3.788 -0.0613 -0.4380 -0.3611
  455MOL0     O61293   8.955   8.439   3.729  0.0064 -0.2223 -0.0053
  455MOL0     C61294   8.816   8.439   3.747  0.0586  0.3986  0.0097
  455MOL0     C61295   8.731   8.329   3.776  0.1201 -0.4989 -0.3690
  455MOL0     C61296   8.587   8.332   3.772  0.4876 -0.1124  0.1665
  455MOL0     C61297   8.528   8.456   3.732 -0.0372 -0.5335  0.8875
  455MOL0     O61298   8.394   8.473   3.709  0.1850  0.4296 -1.0200
  455MOL0     C61299   8.308   8.484   3.822 -0.3088  0.3620 -0.6358
  455MOL0     C61300   8.173   8.496   3.755  0.3359  0.1596 -0.7429
  455MOL0     C61301   8.113   8.635   3.789  0.6459 -1.0594 -0.3733
  455MOL0     C61302   7.978   8.638   3.731  0.8781 -0.2175 -0.1781
  455MOL0     C61303   7.987   8.644   3.582  0.7280 -0.0606 -0.2713
  455MOL0     C61304   7.887   8.543   3.526  0.5351 -0.0168 -0.2275
  455MOL0     C61305   7.736   8.583   3.541 -0.0000 -0.0311  0.4565
  455MOL0     C61306   7.656   8.576   3.410 -0.1491 -0.8083 -0.3444
  455MOL0     N61307   7.510   8.573   3.445  0.5252 -0.4301  0.1263
  455MOL0     C61308   7.425   8.485   3.388  0.0234  0.7642 -0.1137
  455MOL0     C61309   7.293   8.532   3.427  0.3016  0.3930 -0.5319
  455MOL0     C61310   7.169   8.452   3.415 -0.7719  0.5568 -0.1328
  455MOL0     C61311   7.042   8.534   3.437  0.4246 -0.2757  0.0684
  455MOL0     C61312   6.999   8.562   3.574  0.5013 -0.1818  0.3087
  455MOL0     C61313   6.992   8.438   3.670 -0.0711 -0.4117  0.2121
  455MOL0     O61314   6.945   8.485   3.801  0.0036 -0.5777 -0.3097
  455MOL0     C61315   6.991   8.416   3.916 -0.5404 -0.3673  1.0211
  455MOL0     C61316   7.048   8.288   3.916  0.2169  0.3580  0.1989
  455MOL0     C61317   7.075   8.211   4.037  0.3389 -0.0478 -0.7065
  455MOL0     C61318   7.144   8.075   4.026  0.4911 -1.2560  0.2735
  455MOL0     C61319   7.036   8.276   4.164  0.2378  0.5993  0.9620
  455MOL0     C61320   7.061   8.208   4.289  0.3966  0.4613 -1.5445
  455MOL0     O61321   7.115   8.084   4.298 -0.6703 -0.2185  0.2370
  455MOL0     C61322   7.122   8.018   4.418  0.8966  0.3458 -0.8011
  455MOL0     C61323   7.010   7.996   4.503 -0.5233  0.2061  0.2953
  455MOL0     C61324   7.015   7.907   4.615  0.5178  0.3011 -0.8475
  455MOL0     C61325   7.139   7.847   4.640  0.0615  0.4112 -0.6220
  455MOL0     O61326   7.165   7.755   4.740 -0.6855  0.1066 -0.1221
  455MOL0     C61327   7.140   7.802   4.875  0.9945 -0.2874 -2.0391
  455MOL0     C61328   7.143   7.691   4.990  1.1894  0.1873  0.0946
  455MOL0     C61329   7.287   7.618   4.986  1.7965  1.3326  0.8440
  455MOL0     C61330   7.405   7.718   5.002  0.8390  0.5316  0.4625
  455MOL0     C61331   7.537   7.655   4.992  0.0378 -0.3352 -1.5029
  455MOL0     C61332   7.591   7.660   4.845 -0.2213  0.1557  0.0121
  455MOL0     C61333   7.742   7.627   4.829  0.3212  0.5754 -0.0837
  455MOL0     C61334   7.830   7.714   4.916  0.4357 -0.5182 -0.2590
  455MOL0    Cl61335   8.002   7.663   4.902  0.1686  0.0877 -0.5685
  455MOL0     C61336   7.245   7.865   4.550  0.6127  1.4801  0.7406
  455MOL0     C61337   7.232   7.942   4.437  0.2892  0.0205 -0.1811
  455MOL0     O61338   7.034   8.271   4.389  0.6378  0.0866  0.0067
  455MOL0     C61339   6.980   8.408   4.154  0.2818  0.4145 -1.2439
  455MOL0     C61340   6.952   8.473   4.031 -0.6576 -1.2840  0.1622
  455MOL0     N61341   7.309   8.658   3.488 -0.0072 -1.0483  0.9602
  455MOL0     N61342   7.438   8.675   3.498 -0.2765  0.5690  0.4537
  455MOL0     C61343   8.614   8.561   3.707  0.3949 -0.1436  0.8347
  455MOL0     C61344   8.755   8.556   3.707  0.3536 -0.6065 -0.1976
  455MOL0     C61345   9.175   8.362   3.759 -0.0977  0.3032  0.0020
  455MOL0     C61346   9.274   8.298   3.837  0.6892 -0.0754  0.7279
  455MOL0     C61347   9.407   8.317   3.800  0.3757  0.2534  0.5950
  455MOL0     C61348   9.453   8.399   3.695  0.3751  0.6042 -0.6780
  455MOL0     O61349   9.585   8.413   3.665 -0.2123  0.0752 -0.0220
  455MOL0     C61350   9.664   8.445   3.786  0.3776  0.5551 -1.0230
  455MOL0     C61351   9.801   8.499   3.746 -0.6669  0.1188 -0.6796
  455MOL0     C61352   9.911   8.518   3.862  0.1966  0.2484 -1.0452
  455MOL0     C61353  10.052   8.558   3.812 -0.6540 -0.0069  0.1957
  455MOL0     C61354  10.051   8.705   3.789 -0.4569  0.1906 -0.1209
  455MOL0     C61355  10.031   8.820   3.760 -0.2348 -0.3738 -0.4157
  455MOL0     C61356   9.349   8.458   3.619 -0.1615  0.3087  0.3876
  455MOL0     C61357   9.217   8.433   3.640  0.0713  1.0021 -0.1563
  455MOL0     H61358   8.766   8.227   3.788  0.3936 -0.3031  0.5541
  455MOL0     H61359   8.525   8.248   3.801  1.4551 -0.8124  0.2517
  455MOL0     H61360   8.311   8.387   3.872  0.9129  0.5919 -0.2283
  455MOL0     H61361   8.332   8.563   3.894 -3.2890 -1.2336  2.3612
  455MOL0     H61362   8.190   8.480   3.648  0.8642  3.5518 -1.2854
  455MOL0     H61363   8.106   8.424   3.803  2.9273 -0.1433  2.8360
  455MOL0     H61364   8.104   8.644   3.898 -1.0979 -2.4670 -0.3526
  455MOL0     H61365   8.175   8.716   3.749 -0.8504 -1.0276 -2.8484
  455MOL0     H61366   7.928   8.544   3.754 -0.7403 -0.0418 -2.6084
  455MOL0     H61367   7.917   8.716   3.778  0.0867 -0.9809  0.0882
  455MOL0     H61368   7.957   8.740   3.539  1.2215 -0.8707 -2.5528
  455MOL0     H61369   8.080   8.634   3.525  0.7169  1.4814 -0.6039
  455MOL0     H61370   7.902   8.531   3.418 -1.3907  0.8862 -0.6276
  455MOL0     H61371   7.904   8.442   3.565  0.4275 -0.1193 -0.4459
  455MOL0     H61372   7.692   8.517   3.616 -2.5277  0.1900 -0.7352
  455MOL0     H61373   7.727   8.683   3.584 -2.9453 -0.4036  0.8987
  455MOL0     H61374   7.682   8.489   3.349  0.8043 -0.9531  0.2459
  455MOL0     H61375   7.665   8.669   3.355 -4.4355  0.6384  0.9749
  455MOL0     H61376   7.455   8.402   3.325  0.0130  1.3142 -0.8580
  455MOL0     H61377   7.177   8.403   3.317 -0.4857 -2.2303  1.1894
  455MOL0     H61378   7.167   8.370   3.488  2.2513  2.9403  2.9384
  455MOL0     H61379   6.959   8.473   3.397 -1.1011 -0.2014  2.8931
  455MOL0     H61380   7.048   8.632   3.388 -0.0179 -0.4376 -0.3223
  455MOL0     H61381   6.902   8.614   3.578  0.2191 -0.7519  0.9161
  455MOL0     H61382   7.063   8.636   3.624 -0.5687 -0.0193  1.4742
  455MOL0     H61383   7.088   8.386   3.682  0.1014 -0.0619  0.3749
  455MOL0     H61384   6.927   8.354   3.644  1.9191 -1.8018 -0.5606
  455MOL0     H61385   7.093   8.238   3.830  2.2316  2.7146 -0.2282
  455MOL0     H61386   7.244   8.070   4.071 -0.2125 -3.8744  1.7755
  455MOL0     H61387   7.083   7.994   4.068 -1.5169 -0.2284 -0.5548
  455MOL0     H61388   7.149   8.052   3.919  0.1092  1.6636 -0.4421
  455MOL0     H61389   6.919   8.043   4.467  0.8735  1.1778 -2.2206
  455MOL0     H61390   6.929   7.888   4.678  1.0915  1.9359  0.4883
  455MOL0     H61391   7.201   7.886   4.910 -2.4076  1.6551 -0.2107
  455MOL0     H61392   7.041   7.849   4.875  1.8117  1.7891  1.4064
  455MOL0     H61393   7.127   7.733   5.090  1.8329 -1.5852  0.9884
  455MOL0     H61394   7.072   7.610   4.976  0.8879  0.4475  0.1197
  455MOL0     H61395   7.291   7.564   4.891  0.0907  0.9814  0.9469
  455MOL0     H61396   7.287   7.540   5.063 -2.9625  1.5666  1.3995
  455MOL0     H61397   7.392   7.794   4.925  0.4736 -0.4677 -0.5030
  455MOL0     H61398   7.381   7.774   5.093 -3.6219  2.9171 -1.8333
  455MOL0     H61399   7.541   7.552   5.029  0.4394 -0.5620 -2.1603
  455MOL0     H61400   7.606   7.716   5.051 -1.3301  1.5288 -1.7377
  455MOL0     H61401   7.526   7.593   4.788  1.0789  0.2820 -1.7035
  455MOL0     H61402   7.571   7.758   4.799  2.7089  1.9152  2.1518
  455MOL0     H61403   7.764   7.643   4.723 -2.7846  0.7917 -0.8152
  455MOL0     H61404   7.747   7.522   4.858  0.1945  1.3025  2.8987
  455MOL0     H61405   7.811   7.697   5.022  3.0824 -0.9243  0.2127
  455MOL0     H61406   7.813   7.820   4.897  2.4754 -0.0907  0.1242
  455MOL0     H61407   7.339   7.815   4.571 -0.1515 -0.4449 -0.1373
  455MOL0     H61408   7.314   7.929   4.368  1.1889  0.4178  0.7818
  455MOL0     H61409   6.953   8.450   4.251  4.0588 -1.3347  0.8171
  455MOL0     H61410   6.909   8.572   4.022  4.3573  1.0730 -2.2409
  455MOL0     H61411   8.573   8.658   3.678  0.0065  0.0051  1.8259
  455MOL0     H61412   8.809   8.645   3.674  1.0212  0.0097  2.3190
  455MOL0     H61413   9.233   8.261   3.931 -0.7362  2.6697  1.2904
  455MOL0     H61414   9.484   8.276   3.865  0.5155 -0.9276 -0.2767
  455MOL0     H61415   9.614   8.513   3.855  0.0006 -0.1966 -0.5450
  455MOL0     H61416   9.682   8.353   3.841  0.3446  0.2215 -1.5625
  455MOL0     H61417   9.776   8.598   3.708  1.8487  0.4429 -1.6607
  455MOL0     H61418   9.851   8.439   3.670 -1.4918  0.2728 -1.3554
  455MOL0     H61419   9.925   8.422   3.913  5.3810  0.2553 -1.8991
  455MOL0     H61420   9.879   8.583   3.945  1.0826 -0.3825 -0.1866
  455MOL0     H61421  10.093   8.513   3.722  2.4387 -0.5085  1.6936
  455MOL0     H61422  10.127   8.534   3.888  1.6219 -1.6411 -2.3946
  455MOL0     H61423  10.012   8.921   3.728 -0.5686 -0.2937  0.0296
  455MOL0     H61424   9.388   8.528   3.546  1.0051  2.3457  2.8005
  455MOL0     H61425   9.149   8.487   3.574 -5.7497 -0.3351  3.9740
  456MOL0     O61426   8.820   0.278   4.230  0.2588 -0.0517  0.6129
  456MOL0     C61427   8.697   0.258   4.215 -0.7200  0.7207 -0.7379
  456MOL0     O61428   8.609   0.339   4.151  0.0712 -0.0642  0.7429
  456MOL0     C61429   8.662   0.437   4.067  0.6790 -0.3106  0.7131
  456MOL0     C61430   8.584   0.551   4.043 -0.6132  0.2679 -1.3963
  456MOL0     C61431   8.635   0.666   3.973  0.2491  0.8496  0.3930
  456MOL0     C61432   8.758   0.653   3.902  0.3608 -0.4620 -0.1186
  456MOL0     O61433   8.811   0.754   3.816 -0.1197 -0.6236 -0.1720
  456MOL0     C61434   8.779   0.896   3.836 -0.8994  0.3143 -0.1718
  456MOL0     C61435   8.676   0.929   3.727 -1.2977  0.6446 -0.8248
  456MOL0     C61436   8.657   1.072   3.690 -0.2022  0.8698  0.1015
  456MOL0     C61437   8.741   1.127   3.572  0.5770 -1.2592 -0.8256
  456MOL0     C61438   8.684   1.277   3.541  0.9257  0.2479  0.2968
  456MOL0     C61439   8.752   1.380   3.645 -1.1319  0.2879 -1.0362
  456MOL0     C61440   8.696   1.520   3.634  0.2748  0.3539  0.6793
  456MOL0     C61441   8.745   1.609   3.741 -1.0442  0.4970 -2.0374
  456MOL0     N61442   8.669   1.731   3.746 -0.2512 -0.6040 -0.4819
  456MOL0     C61443   8.579   1.759   3.846  0.5006 -0.3285  0.2654
  456MOL0     C61444   8.553   1.892   3.824 -0.0913  0.2959 -0.6251
  456MOL0     C61445   8.483   1.984   3.925  0.6059  0.3216 -0.5930
  456MOL0     C61446   8.339   2.006   3.918 -0.0356  0.3513  0.0200
  456MOL0     C61447   8.276   2.024   4.056 -0.3571 -1.0462 -0.4744
  456MOL0     C61448   8.144   2.099   4.047 -0.8164  0.1870 -0.3091
  456MOL0     O61449   8.061   2.070   4.153  0.4121  0.2445  0.6020
  456MOL0     C61450   7.926   2.093   4.144 -1.6758  0.0443  0.1099
  456MOL0     C61451   7.875   2.192   4.057  0.0934  0.0516 -0.2280
  456MOL0     C61452   7.739   2.211   4.047  0.3120 -0.5385 -0.3555
  456MOL0     C61453   7.689   2.322   3.953  0.0027  0.4367 -0.5061
  456MOL0     C61454   7.650   2.149   4.133  0.1287  0.2821  0.3259
  456MOL0     C61455   7.506   2.165   4.132 -0.4981 -1.6145 -0.4384
  456MOL0     O61456   7.461   2.286   4.168 -0.1925  0.4240 -0.8329
  456MOL0     C61457   7.335   2.324   4.139 -0.2965 -1.2013  0.9112
  456MOL0     C61458   7.262   2.404   4.226 -1.5324 -0.4526  0.4539
  456MOL0     C61459   7.137   2.452   4.196  0.0039 -0.6492 -0.2715
  456MOL0     C61460   7.068   2.414   4.083 -0.3279 -0.4150  0.3175
  456MOL0     O61461   6.936   2.437   4.049 -0.1633 -0.5091  0.0791
  456MOL0     C61462   6.861   2.542   4.108 -0.2047 -0.3512 -0.8922
  456MOL0     C61463   6.717   2.534   4.074 -0.2732 -1.1115  0.1936
  456MOL0     C61464   6.650   2.412   4.136  0.0063  0.0147 -0.1434
  456MOL0     C61465   6.490   2.426   4.125 -0.8517 -0.2772 -0.4759
  456MOL0     C61466   6.408   2.308   4.184  0.0067 -0.0941 -0.1075
  456MOL0     C61467   6.409   2.272   4.330 -0.0618  1.1594 -0.3420
  456MOL0     C61468   6.357   2.133   4.363  0.6670 -0.3343 -0.2116
  456MOL0     C61469   6.464   2.035   4.395 -0.1505 -0.3254  0.2562
  456MOL0    Cl61470   6.375   1.874   4.394  0.4726  0.1268 -0.3390
  456MOL0     C61471   7.148   2.349   3.990 -0.3035 -0.4661 -0.4295
  456MOL0     C61472   7.276   2.300   4.015  1.1509 -0.5231  0.2071
  456MOL0     O61473   7.439   2.063   4.120 -0.0027 -0.0697 -0.3154
  456MOL0     C61474   7.702   2.049   4.223 -0.1514 -0.3793  0.4128
  456MOL0     C61475   7.841   2.038   4.237 -0.6098  0.9559 -0.4841
  456MOL0     N61476   8.637   1.942   3.723  0.6405  0.3989 -0.2010
  456MOL0     N61477   8.698   1.844   3.670 -1.4343  0.6769  0.1864
  456MOL0     C61478   8.813   0.521   3.906 -0.2049 -1.1107 -0.4773
  456MOL0     C61479   8.771   0.426   3.986  0.3388  0.4286 -0.2374
  456MOL0     C61480   8.647   0.125   4.275  0.6516  0.1849 -0.2022
  456MOL0     C61481   8.735   0.026   4.333 -0.3988  0.2951  0.4635
  456MOL0     C61482   8.683  -0.091   4.385 -0.0546  0.4361  0.2253
  456MOL0     C61483   8.552  -0.129   4.395  0.1939 -0.3202 -0.0204
  456MOL0     O61484   8.511  -0.239   4.457 -0.0500  0.4092 -0.1588
  456MOL0     C61485   8.505  -0.348   4.366 -0.0822  0.1939 -0.0072
  456MOL0     C61486   8.474  -0.481   4.452 -0.1255  0.1793 -0.8625
  456MOL0     C61487   8.469  -0.613   4.367 -0.0774 -0.2291 -0.6244
  456MOL0     C61488   8.371  -0.595   4.250 -1.1437  0.7531  0.3070
  456MOL0     C61489   8.231  -0.551   4.278 -0.5794 -0.0875 -0.6999
  456MOL0     C61490   8.126  -0.495   4.314  1.0996  0.4218  0.8520
  456MOL0     C61491   8.465  -0.031   4.336 -0.1628  0.4071 -0.6758
  456MOL0     C61492   8.509   0.093   4.285  0.4407  0.2632 -0.3084
  456MOL0     H61493   8.490   0.558   4.095 -1.3955 -1.8568 -2.4325
  456MOL0     H61494   8.579   0.758   3.970  1.8189  2.0042  3.0215
  456MOL0     H61495   8.747   0.917   3.938  1.4443 -2.5469  1.3149
  456MOL0     H61496   8.865   0.957   3.809 -2.2165  1.6128 -1.6041
  456MOL0     H61497   8.697   0.883   3.629  1.0553 -1.1811  0.4151
  456MOL0     H61498   8.589   0.881   3.773  0.2969 -1.6454  0.0457
  456MOL0     H61499   8.552   1.086   3.662 -1.2426 -2.9411  1.4699
  456MOL0     H61500   8.676   1.124   3.784 -1.0124  1.5532 -0.0988
  456MOL0     H61501   8.844   1.122   3.607  2.1034 -2.6541 -4.9949
  456MOL0     H61502   8.737   1.062   3.484  0.0235  0.7769 -2.3796
  456MOL0     H61503   8.711   1.305   3.438  2.9183  0.7774  0.9139
  456MOL0     H61504   8.575   1.278   3.552  0.8851 -0.1769 -0.0487
  456MOL0     H61505   8.723   1.349   3.746 -3.4483  0.5272 -1.5760
  456MOL0     H61506   8.861   1.372   3.652 -1.2095  0.4522  4.2638
  456MOL0     H61507   8.725   1.563   3.537  0.3920 -0.8795  0.1562
  456MOL0     H61508   8.590   1.496   3.642  0.9511 -5.4598 -2.5299
  456MOL0     H61509   8.852   1.627   3.723 -0.5435  0.5090  0.5289
  456MOL0     H61510   8.727   1.573   3.843  1.2561  0.8135 -1.4594
  456MOL0     H61511   8.536   1.695   3.922 -0.4534 -0.9134 -0.7264
  456MOL0     H61512   8.497   1.941   4.024  0.7787 -0.7198 -1.0577
  456MOL0     H61513   8.526   2.084   3.931  0.4972  0.2903  1.0363
  456MOL0     H61514   8.283   1.919   3.882 -2.4983  0.7985  2.3828
  456MOL0     H61515   8.319   2.085   3.845 -1.5610  0.4697  0.5178
  456MOL0     H61516   8.346   2.078   4.120 -1.4591  0.4125 -0.4445
  456MOL0     H61517   8.255   1.935   4.116 -4.4508  0.6127  0.9208
  456MOL0     H61518   8.098   2.068   3.952  0.7586 -4.2603  0.1177
  456MOL0     H61519   8.168   2.205   4.058 -4.2362  0.8333  2.9386
  456MOL0     H61520   7.939   2.257   3.998 -2.6092  0.0777 -3.4086
  456MOL0     H61521   7.636   2.282   3.865  0.2010 -1.6502  0.2514
  456MOL0     H61522   7.617   2.392   3.997 -1.1058 -0.1768 -1.2776
  456MOL0     H61523   7.774   2.384   3.924  0.0031  0.4560 -0.4638
  456MOL0     H61524   7.319   2.432   4.314 -0.7025 -0.1932 -0.1565
  456MOL0     H61525   7.089   2.507   4.277  0.2881  0.4689 -0.8297
  456MOL0     H61526   6.864   2.527   4.216 -0.8821  1.7129 -0.5435
  456MOL0     H61527   6.896   2.646   4.103 -1.7613  0.3979  1.7336
  456MOL0     H61528   6.672   2.615   4.132  0.6946 -1.2738  1.1958
  456MOL0     H61529   6.714   2.548   3.966  0.9695 -0.1977  0.2516
  456MOL0     H61530   6.677   2.395   4.241  2.6456 -5.1678 -1.3284
  456MOL0     H61531   6.681   2.320   4.086 -0.9298 -0.7354  0.6071
  456MOL0     H61532   6.473   2.521   4.176  2.0829  0.5692 -0.8697
  456MOL0     H61533   6.459   2.434   4.021  0.3477 -4.4359 -1.3473
  456MOL0     H61534   6.443   2.224   4.124  0.2844  1.2879 -1.9827
  456MOL0     H61535   6.303   2.323   4.156 -0.1248  2.6375  1.4512
  456MOL0     H61536   6.508   2.275   4.378  1.7630 -2.4300 -3.3772
  456MOL0     H61537   6.339   2.342   4.376 -1.8605  0.0604 -1.3287
  456MOL0     H61538   6.309   2.085   4.277 -0.8941  1.3501 -0.3294
  456MOL0     H61539   6.280   2.145   4.440  2.3907 -1.5004  1.7956
  456MOL0     H61540   6.523   2.061   4.484  2.5507 -2.0903 -0.8681
  456MOL0     H61541   6.537   2.036   4.313  0.2398  0.1087  0.5993
  456MOL0     H61542   7.102   2.318   3.896  2.4216 -1.1251 -1.6509
  456MOL0     H61543   7.339   2.238   3.952  2.6448  0.3733  0.7547
  456MOL0     H61544   7.635   2.003   4.295  0.1657  0.9905  1.6340
  456MOL0     H61545   7.878   1.977   4.319 -3.6572  0.3515  0.5564
  456MOL0     H61546   8.911   0.508   3.860  1.5928  1.4117  2.1936
  456MOL0     H61547   8.811   0.326   3.988  0.4313  0.4410  2.4594
  456MOL0     H61548   8.841   0.042   4.352  0.5123 -1.0372 -2.8046
  456MOL0     H61549   8.754  -0.164   4.423  1.7353  0.2410 -3.1195
  456MOL0     H61550   8.436  -0.324   4.284  1.8669  2.6537 -1.0673
  456MOL0     H61551   8.605  -0.363   4.323 -0.1745 -0.5507  0.0343
  456MOL0     H61552   8.385  -0.485   4.517  0.4374 -1.7584 -0.1462
  456MOL0     H61553   8.550  -0.486   4.531 -1.8473 -0.0777  0.8680
  456MOL0     H61554   8.456  -0.705   4.424 -0.7413 -0.7048 -1.5213
  456MOL0     H61555   8.567  -0.623   4.319  0.2529  0.9793 -0.2316
  456MOL0     H61556   8.360  -0.687   4.192 -4.5939  1.2566 -0.0179
  456MOL0     H61557   8.401  -0.521   4.175 -2.4063 -0.6802 -1.7403
  456MOL0     H61558   8.039  -0.449   4.355 -1.2328 -2.5339 -0.3877
  456MOL0     H61559   8.357  -0.042   4.332 -0.7915  4.2427  0.8197
  456MOL0     H61560   8.433   0.157   4.240 -0.1669 -1.8686 -2.5571
  457MOL0     O61561   2.571   6.896   3.441  0.0616  0.2669 -0.1036
  457MOL0     C61562   2.456   6.937   3.475 -0.5937  0.4466  0.3430
  457MOL0     O61563   2.413   6.959   3.600 -0.0086  0.1634 -0.8478
  457MOL0     C61564   2.498   6.909   3.703 -0.2153 -0.2420  0.1590
  457MOL0     C61565   2.481   6.780   3.759  0.2041  0.2287  0.7688
  457MOL0     C61566   2.561   6.733   3.855 -1.2568 -0.8824  0.3404
  457MOL0     C61567   2.667   6.815   3.916  0.1625 -1.0750 -0.6460
  457MOL0     O61568   2.735   6.788   4.032 -0.7079 -0.5900 -0.1135
  457MOL0     C61569   2.711   6.657   4.092 -1.5951  0.3157  0.4840
  457MOL0     C61570   2.772   6.659   4.229 -0.5665  0.6571 -0.6617
  457MOL0     C61571   2.926   6.627   4.207 -0.5197  0.6799  0.0701
  457MOL0     C61572   3.019   6.726   4.263 -0.5164 -0.5707 -0.2633
  457MOL0     C61573   3.027   6.745   4.408 -0.0493 -0.2435 -0.4026
  457MOL0     C61574   3.097   6.872   4.455  0.0601 -0.0256 -0.2749
  457MOL0     C61575   3.132   6.882   4.602  0.2374  1.0133  1.4731
  457MOL0     C61576   3.016   6.857   4.696  0.5799  0.3317  1.4049
  457MOL0     N61577   2.898   6.944   4.666  0.0561 -0.4180 -0.4014
  457MOL0     C61578   2.769   6.905   4.648 -0.5424 -0.0537 -0.1777
  457MOL0     C61579   2.688   7.011   4.672  0.0099  0.4374  0.4601
  457MOL0     C61580   2.540   7.018   4.638  0.4211 -0.3305 -0.5185
  457MOL0     C61581   2.521   7.063   4.490  1.8278 -0.1234 -0.4353
  457MOL0     C61582   2.370   7.059   4.447  0.6185 -0.1724 -0.5380
  457MOL0     C61583   2.342   7.107   4.295  0.3741  0.0717  0.0633
  457MOL0     O61584   2.342   7.255   4.304 -0.1754  0.0976  0.2166
  457MOL0     C61585   2.314   7.327   4.193  0.3868 -0.6970 -0.6689
  457MOL0     C61586   2.284   7.463   4.214 -0.9270 -0.2371 -0.4854
  457MOL0     C61587   2.266   7.551   4.108 -0.4265 -0.0122  0.3225
  457MOL0     C61588   2.233   7.689   4.144 -0.8919 -0.5203  0.0300
  457MOL0     C61589   2.277   7.505   3.974 -0.0763 -0.1984 -0.6706
  457MOL0     C61590   2.278   7.590   3.847 -0.4713  0.1229  0.7513
  457MOL0     O61591   2.335   7.546   3.725  1.4414 -1.4313  0.7165
  457MOL0     C61592   2.330   7.639   3.615 -0.0978  1.1502 -1.0681
  457MOL0     C61593   2.273   7.602   3.499 -0.0545  1.0333  0.8016
  457MOL0     C61594   2.276   7.685   3.386 -0.7351 -0.4376  0.4622
  457MOL0     C61595   2.327   7.810   3.396 -1.1192 -0.2131 -0.9505
  457MOL0     O61596   2.317   7.889   3.282  0.4100  0.3977  0.1694
  457MOL0     C61597   2.347   8.029   3.285 -0.4423 -0.3148 -0.4729
  457MOL0     C61598   2.299   8.081   3.147 -0.6079  0.6979 -0.8461
  457MOL0     C61599   2.358   8.002   3.035  1.2233  0.2831  0.3915
  457MOL0     C61600   2.278   7.877   2.981  0.0968  0.1496  0.6893
  457MOL0     C61601   2.354   7.826   2.862  0.0897 -0.0694 -0.6571
  457MOL0     C61602   2.284   7.686   2.819 -0.7663 -0.4907 -1.5194
  457MOL0     C61603   2.370   7.595   2.725  0.5568 -1.1152 -0.1184
  457MOL0     C61604   2.379   7.654   2.580 -0.6289 -0.3076 -0.6529
  457MOL0    Cl61605   2.450   7.540   2.473  0.4646  0.5365 -0.6480
  457MOL0     C61606   2.385   7.855   3.524 -0.2414 -0.5480 -0.8895
  457MOL0     C61607   2.397   7.764   3.630  0.8563  0.2865  0.3686
  457MOL0     O61608   2.210   7.693   3.854 -0.2634 -0.2929 -0.1269
  457MOL0     C61609   2.292   7.364   3.956 -0.4628  0.0958  0.0677
  457MOL0     C61610   2.310   7.280   4.068 -0.0925  0.1148  0.2854
  457MOL0     N61611   2.767   7.120   4.710  0.8040  0.0429 -0.5185
  457MOL0     N61612   2.892   7.077   4.707 -0.1458 -0.2085 -0.9616
  457MOL0     C61613   2.682   6.939   3.866 -0.9446 -0.2931 -0.8458
  457MOL0     C61614   2.596   6.993   3.766 -0.8897 -0.2054  0.0298
  457MOL0     C61615   2.366   6.964   3.360 -0.5650  0.2574 -0.8659
  457MOL0     C61616   2.426   6.983   3.235 -0.4500  0.6666 -0.3354
  457MOL0     C61617   2.339   7.030   3.134  0.0625 -0.1735  1.1412
  457MOL0     C61618   2.207   7.066   3.147  0.9636  0.5670 -0.8037
  457MOL0     O61619   2.134   7.112   3.032 -0.0698 -0.1794 -0.2245
  457MOL0     C61620   2.016   7.193   3.069 -0.2014  0.1145 -0.7318
  457MOL0     C61621   1.948   7.255   2.950  0.9124  0.3693  0.2840
  457MOL0     C61622   1.895   7.149   2.862  0.5956 -0.5601 -0.3828
  457MOL0     C61623   1.796   7.211   2.760 -0.0128 -0.3293  0.0319
  457MOL0     C61624   1.877   7.257   2.648  0.1209  0.1138  0.1495
  457MOL0     C61625   1.969   7.272   2.567 -0.7908  0.4528  0.7951
  457MOL0     C61626   2.155   7.044   3.276  0.1029  0.0733  0.3226
  457MOL0     C61627   2.230   6.986   3.380  0.6206 -0.0407 -0.7194
  457MOL0     H61628   2.406   6.712   3.721 -0.7622  2.0576 -0.7667
  457MOL0     H61629   2.543   6.639   3.907  3.0829 -1.6751  0.7766
  457MOL0     H61630   2.604   6.649   4.116 -1.5107 -3.2426  0.2573
  457MOL0     H61631   2.746   6.579   4.024 -2.1869  0.1160  0.3990
  457MOL0     H61632   2.761   6.759   4.273  0.8056  1.4794 -2.0636
  457MOL0     H61633   2.721   6.585   4.292 -0.1840  1.6565  0.8879
  457MOL0     H61634   2.946   6.530   4.255  0.5933 -0.3399 -2.2832
  457MOL0     H61635   2.946   6.619   4.100  1.3829 -2.5908  0.5359
  457MOL0     H61636   3.116   6.687   4.232 -1.7155 -1.8095 -2.8076
  457MOL0     H61637   3.007   6.817   4.204  1.2722 -1.0884 -1.5224
  457MOL0     H61638   2.933   6.741   4.463  0.3905 -3.2115  0.2742
  457MOL0     H61639   3.086   6.657   4.437  1.5832 -0.8501 -4.7411
  457MOL0     H61640   3.194   6.878   4.405 -0.2588 -0.1002 -0.9198
  457MOL0     H61641   3.046   6.963   4.420  1.1311  1.1976  1.1992
  457MOL0     H61642   3.221   6.820   4.619  1.3678  1.2821 -2.5275
  457MOL0     H61643   3.157   6.986   4.624 -1.5649  1.9499 -0.6236
  457MOL0     H61644   3.064   6.873   4.794  3.9923 -0.9270  0.0951
  457MOL0     H61645   2.994   6.753   4.674 -0.9230  0.7185  1.0095
  457MOL0     H61646   2.738   6.809   4.609  3.0929 -0.4382 -2.6014
  457MOL0     H61647   2.480   6.927   4.651 -0.5652  0.4224  0.3413
  457MOL0     H61648   2.501   7.105   4.691  1.7757 -0.8521  1.4131
  457MOL0     H61649   2.578   6.998   4.423  2.8453 -0.7835  1.0205
  457MOL0     H61650   2.558   7.164   4.472 -2.1656  0.9787 -4.4650
  457MOL0     H61651   2.321   7.123   4.522  2.7559  0.0207  0.7605
  457MOL0     H61652   2.322   6.962   4.462  0.6385  0.1162  1.7922
  457MOL0     H61653   2.237   7.095   4.268  0.4795 -1.7638  0.3892
  457MOL0     H61654   2.417   7.069   4.225  3.0507  0.8920  2.3041
  457MOL0     H61655   2.299   7.481   4.320  2.3907 -0.9811 -0.7298
  457MOL0     H61656   2.320   7.749   4.114  0.8520 -2.6970  0.4552
  457MOL0     H61657   2.144   7.733   4.099  0.7210  1.1799 -1.7254
  457MOL0     H61658   2.220   7.694   4.252 -1.0637 -1.8711  0.0861
  457MOL0     H61659   2.231   7.502   3.490  4.0319 -1.1983  3.3963
  457MOL0     H61660   2.234   7.663   3.288  0.3804  1.3534 -0.4848
  457MOL0     H61661   2.294   8.065   3.373  1.7114 -1.2440  1.2867
  457MOL0     H61662   2.453   8.039   3.306 -0.5326 -0.0837 -0.1268
  457MOL0     H61663   2.190   8.071   3.145 -0.5818 -0.1099  0.5101
  457MOL0     H61664   2.318   8.189   3.141 -1.1477  0.8344 -0.2402
  457MOL0     H61665   2.458   7.969   3.065  1.9508  1.5526 -0.5493
  457MOL0     H61666   2.383   8.069   2.952  1.1210 -0.3840 -0.1939
  457MOL0     H61667   2.281   7.801   3.059 -2.2363 -0.1364  0.5454
  457MOL0     H61668   2.170   7.890   2.970  0.1496 -0.4613 -0.7105
  457MOL0     H61669   2.460   7.808   2.882  0.8400 -0.1094 -3.9685
  457MOL0     H61670   2.346   7.897   2.778  0.2006  1.9648  0.9705
  457MOL0     H61671   2.260   7.629   2.909  1.2478  0.2435 -0.4404
  457MOL0     H61672   2.189   7.700   2.767 -1.4774  1.0065  0.0566
  457MOL0     H61673   2.334   7.493   2.712  1.6889 -1.4071 -1.0649
  457MOL0     H61674   2.472   7.588   2.764  0.6992 -2.2786 -0.6696
  457MOL0     H61675   2.426   7.752   2.572 -1.8180  0.2130 -1.5281
  457MOL0     H61676   2.289   7.693   2.532  1.0927  1.3227 -2.8309
  457MOL0     H61677   2.437   7.949   3.535  0.9914 -1.3031  0.0249
  457MOL0     H61678   2.436   7.788   3.729  1.2641 -2.2213  0.8948
  457MOL0     H61679   2.306   7.326   3.855 -0.6379  0.6960 -0.1827
  457MOL0     H61680   2.329   7.177   4.038  2.1120  0.9478 -1.5198
  457MOL0     H61681   2.749   7.012   3.909 -3.5394  1.2400  0.8971
  457MOL0     H61682   2.613   7.096   3.738 -2.2796  0.1104  0.2827
  457MOL0     H61683   2.527   6.952   3.213 -1.1351 -1.5401 -0.6427
  457MOL0     H61684   2.375   7.053   3.035  0.0319  3.8262  1.8815
  457MOL0     H61685   1.945   7.126   3.118  1.1778 -1.9303 -1.3804
  457MOL0     H61686   2.036   7.269   3.145 -0.9559  0.7942 -1.2030
  457MOL0     H61687   2.001   7.329   2.889 -2.1481 -1.4960 -5.3200
  457MOL0     H61688   1.866   7.313   2.993 -0.3837 -1.2991  0.1492
  457MOL0     H61689   1.856   7.061   2.914 -1.1715 -1.6237 -3.2627
  457MOL0     H61690   1.969   7.098   2.799 -0.3560 -0.3047 -1.7600
  457MOL0     H61691   1.736   7.296   2.796 -1.1490 -1.2944  0.4686
  457MOL0     H61692   1.723   7.135   2.731 -1.1011  0.5343  0.4265
  457MOL0     H61693   2.040   7.290   2.489 -0.1589 -4.5418 -0.1055
  457MOL0     H61694   2.049   7.064   3.288 -0.1683 -0.6599 -0.7267
  457MOL0     H61695   2.178   6.977   3.475 -0.4968  1.7471 -1.1154
  458MOL0     O61696   4.709   2.770   8.282  0.3484 -0.1091 -0.1015
  458MOL0     C61697   4.795   2.729   8.364 -0.2998 -0.8558 -0.8706
  458MOL0     O61698   4.917   2.674   8.329 -0.6114  0.6074  0.2051
  458MOL0     C61699   4.943   2.681   8.187  1.1158 -0.2375 -0.8432
  458MOL0     C61700   4.997   2.808   8.144  0.3131  0.4658 -0.3753
  458MOL0     C61701   5.042   2.827   8.011 -0.3658  1.1074 -0.0872
  458MOL0     C61702   5.052   2.716   7.927  0.3273  0.5678  0.4521
  458MOL0     O61703   5.112   2.740   7.801  0.4101  0.0944 -0.1334
  458MOL0     C61704   5.118   2.628   7.707 -0.2725 -0.1441 -0.4741
  458MOL0     C61705   4.992   2.632   7.619 -0.1739  0.4875  0.3358
  458MOL0     C61706   4.981   2.519   7.513  1.2246 -0.1062 -0.4096
  458MOL0     C61707   4.856   2.429   7.556 -0.5958  0.6046  0.4824
  458MOL0     C61708   4.799   2.330   7.438 -0.2330 -0.1009  0.8924
  458MOL0     C61709   4.902   2.217   7.404  0.2146  0.6422 -0.2951
  458MOL0     C61710   4.849   2.116   7.297 -0.2016  0.0658 -0.0381
  458MOL0     C61711   4.794   1.990   7.362 -0.5343  0.4440 -0.1253
  458MOL0     N61712   4.727   1.900   7.267 -0.0336 -0.0570 -0.5138
  458MOL0     C61713   4.788   1.778   7.237  0.9266  0.7125 -0.1465
  458MOL0     C61714   4.687   1.691   7.221  1.0193 -0.3413 -0.3536
  458MOL0     C61715   4.688   1.545   7.195  0.0259  0.5453  0.1614
  458MOL0     C61716   4.548   1.495   7.154 -1.1747  0.0275 -0.1982
  458MOL0     C61717   4.559   1.351   7.102  0.2113  0.4697  0.3246
  458MOL0     C61718   4.419   1.310   7.049 -0.0748 -0.0138 -0.6633
  458MOL0     O61719   4.410   1.169   7.047 -0.2500  0.1646  0.0620
  458MOL0     C61720   4.450   1.118   6.920 -0.0306 -0.2764 -1.0902
  458MOL0     C61721   4.583   1.090   6.885 -0.3832  0.2508  0.0538
  458MOL0     C61722   4.611   1.022   6.762  0.1770  0.5710  0.9803
  458MOL0     C61723   4.741   0.947   6.748  0.7229  0.3622 -0.0644
  458MOL0     C61724   4.501   1.000   6.663 -0.5867 -0.0957 -0.1363
  458MOL0     C61725   4.527   0.947   6.527  0.3646 -0.2176 -0.7583
  458MOL0     O61726   4.597   0.826   6.523 -0.1849 -0.2604  0.1025
  458MOL0     C61727   4.632   0.767   6.411  0.7244 -0.8780 -0.6260
  458MOL0     C61728   4.558   0.665   6.354 -0.6379  0.2027  0.4283
  458MOL0     C61729   4.607   0.595   6.237  0.1180  0.2531 -0.6460
  458MOL0     C61730   4.731   0.627   6.185  0.3836  0.1218 -0.0316
  458MOL0     O61731   4.763   0.574   6.061  0.1445 -0.4073 -0.0599
  458MOL0     C61732   4.654   0.558   5.968  0.6730 -0.2630 -0.0979
  458MOL0     C61733   4.711   0.563   5.827  0.3329 -0.3638 -1.3133
  458MOL0     C61734   4.817   0.453   5.826  0.0691 -0.7519  0.2811
  458MOL0     C61735   4.899   0.447   5.702 -0.2814  0.0003 -0.1666
  458MOL0     C61736   4.944   0.290   5.699 -0.8877 -0.6671  0.5933
  458MOL0     C61737   5.067   0.276   5.631 -0.4546 -1.9262 -0.1755
  458MOL0     C61738   5.141   0.146   5.640 -0.0553 -0.5616 -0.1060
  458MOL0     C61739   5.244   0.124   5.518 -0.6734  0.1745  0.0370
  458MOL0    Cl61740   5.163   0.092   5.360 -0.1574 -0.4336  0.2493
  458MOL0     C61741   4.814   0.722   6.241 -0.3169 -0.4648 -0.7326
  458MOL0     C61742   4.753   0.801   6.346 -0.6605  0.3080 -0.1794
  458MOL0     O61743   4.463   0.997   6.440 -0.0973  0.2650  0.6540
  458MOL0     C61744   4.370   1.043   6.696 -1.0756 -0.7995 -0.6454
  458MOL0     C61745   4.342   1.095   6.828 -0.8624 -0.3324 -0.6319
  458MOL0     N61746   4.562   1.762   7.240 -0.6797 -0.2020 -0.5160
  458MOL0     N61747   4.589   1.882   7.267  0.4597  0.7588 -1.0334
  458MOL0     C61748   4.997   2.593   7.972 -0.3144  0.0660  0.1622
  458MOL0     C61749   4.946   2.571   8.099  0.5177 -0.5579 -0.0007
  458MOL0     C61750   4.746   2.702   8.501  0.5766  0.2323 -1.5194
  458MOL0     C61751   4.832   2.647   8.597  0.4585 -0.4164 -0.9281
  458MOL0     C61752   4.798   2.623   8.729  0.3673 -0.1556  0.4344
  458MOL0     C61753   4.670   2.667   8.770  0.0030  0.0490 -1.2425
  458MOL0     O61754   4.638   2.650   8.908  0.2614  0.4831 -0.3058
  458MOL0     C61755   4.556   2.751   8.955 -0.8582 -0.0666  0.4603
  458MOL0     C61756   4.522   2.714   9.098 -1.2219  0.3423 -1.3940
  458MOL0     C61757   4.657   2.735   9.182 -0.0272 -0.0701  0.1262
  458MOL0     C61758   4.625   2.748   9.335 -0.0110  0.5826  1.0924
  458MOL0     C61759   4.539   2.863   9.365 -0.2898  0.0093 -0.8099
  458MOL0     C61760   4.483   2.969   9.399 -0.5480  0.0777  0.4849
  458MOL0     C61761   4.578   2.725   8.677 -0.6688 -0.6903  0.0651
  458MOL0     C61762   4.623   2.742   8.544 -0.2995  0.0500 -1.3507
  458MOL0     H61763   4.997   2.899   8.204  0.7899  1.9950 -2.5721
  458MOL0     H61764   5.081   2.918   7.967 -0.3926  0.7817 -0.8033
  458MOL0     H61765   5.200   2.643   7.637  0.3480  0.7954  0.4225
  458MOL0     H61766   5.143   2.533   7.755  1.3151 -1.9020 -4.3771
  458MOL0     H61767   4.904   2.630   7.683  1.2472  3.2423  2.6152
  458MOL0     H61768   4.995   2.728   7.567 -1.0869  1.6464  2.3199
  458MOL0     H61769   4.965   2.565   7.416 -1.4410  0.3206  0.1620
  458MOL0     H61770   5.060   2.446   7.493 -0.8022 -1.3906 -5.1439
  458MOL0     H61771   4.885   2.369   7.643  0.5770 -0.1823 -0.4168
  458MOL0     H61772   4.774   2.498   7.578 -1.0198  0.8876 -1.8068
  458MOL0     H61773   4.705   2.278   7.462 -0.9265  0.1174 -1.1747
  458MOL0     H61774   4.790   2.391   7.348 -0.9025 -1.7542 -0.2103
  458MOL0     H61775   4.993   2.265   7.365  0.2415  0.4687 -0.4478
  458MOL0     H61776   4.920   2.149   7.487 -1.9614  0.5679  0.1674
  458MOL0     H61777   4.772   2.152   7.227 -0.1463  0.3806  0.0591
  458MOL0     H61778   4.939   2.103   7.238 -0.9341  1.9511 -1.7153
  458MOL0     H61779   4.729   2.010   7.447  1.4061 -1.1513  1.8812
  458MOL0     H61780   4.874   1.937   7.415 -0.0471 -0.2658 -1.5295
  458MOL0     H61781   4.890   1.761   7.204  0.4060  0.4531 -1.6721
  458MOL0     H61782   4.763   1.517   7.121  1.3584  1.5666  1.0943
  458MOL0     H61783   4.705   1.488   7.286 -0.1053  0.2029 -0.0250
  458MOL0     H61784   4.506   1.556   7.073  1.3703 -0.0103 -1.6446
  458MOL0     H61785   4.473   1.505   7.233 -0.1949 -0.4275  0.8224
  458MOL0     H61786   4.596   1.281   7.178 -2.3016  0.1350  1.3546
  458MOL0     H61787   4.634   1.348   7.022 -0.8736 -0.9992 -0.6901
  458MOL0     H61788   4.392   1.360   6.955 -1.1434 -2.8259 -1.9901
  458MOL0     H61789   4.346   1.338   7.126 -2.9629  0.4173 -3.3326
  458MOL0     H61790   4.663   1.093   6.958  1.1795  2.7902 -1.6096
  458MOL0     H61791   4.777   0.951   6.644 -0.8560  3.4024 -0.6281
  458MOL0     H61792   4.814   0.987   6.819 -1.1443  0.9269  1.6222
  458MOL0     H61793   4.730   0.841   6.772 -3.6089  0.8192  0.7127
  458MOL0     H61794   4.467   0.634   6.405  0.5021  1.8253  3.7024
  458MOL0     H61795   4.550   0.516   6.188  1.3568  1.2456 -3.9922
  458MOL0     H61796   4.600   0.464   5.985  0.9487 -1.0049 -2.7813
  458MOL0     H61797   4.586   0.643   5.981 -0.3219 -0.8578 -1.1780
  458MOL0     H61798   4.629   0.548   5.757  0.3701 -1.9824 -1.0554
  458MOL0     H61799   4.751   0.663   5.806  0.6284  0.7163  3.3961
  458MOL0     H61800   4.759   0.366   5.858 -2.2135  1.1379  1.5834
  458MOL0     H61801   4.894   0.462   5.904 -0.3432 -0.3294  0.6437
  458MOL0     H61802   4.851   0.474   5.607 -0.3506 -3.0397 -1.1129
  458MOL0     H61803   4.990   0.508   5.704  2.7824 -4.1449  0.5085
  458MOL0     H61804   4.870   0.233   5.643 -2.6603  2.2985 -0.3468
  458MOL0     H61805   4.943   0.243   5.798  0.1447 -0.3062  0.7889
  458MOL0     H61806   5.041   0.287   5.525 -0.8350 -3.2629 -0.2363
  458MOL0     H61807   5.137   0.358   5.648  3.1915 -4.6826 -0.6379
  458MOL0     H61808   5.079   0.057   5.647 -2.8877  0.9257 -3.4357
  458MOL0     H61809   5.194   0.153   5.736  0.6594  1.3189 -0.5829
  458MOL0     H61810   5.295   0.029   5.539  0.8152  1.1409  0.9739
  458MOL0     H61811   5.325   0.197   5.518 -2.1356  1.8788  0.6314
  458MOL0     H61812   4.911   0.741   6.195  0.9618 -1.4385  1.4226
  458MOL0     H61813   4.809   0.886   6.382 -1.0378  1.0421 -1.2903
  458MOL0     H61814   4.293   1.027   6.621 -0.9278 -0.0696 -0.9553
  458MOL0     H61815   4.238   1.121   6.843 -1.8248 -1.3520 -4.3463
  458MOL0     H61816   5.008   2.506   7.907 -0.5733  0.6194 -0.6296
  458MOL0     H61817   4.908   2.480   8.145  1.0457  0.8888  3.6875
  458MOL0     H61818   4.934   2.617   8.576  0.8667 -0.3064  0.7436
  458MOL0     H61819   4.872   2.584   8.798  0.7712 -1.8740 -0.8904
  458MOL0     H61820   4.614   2.842   8.940 -2.5922  0.8087 -1.2467
  458MOL0     H61821   4.464   2.780   8.904  0.4723  1.4181 -1.1843
  458MOL0     H61822   4.508   2.606   9.088  0.4676  0.1954 -2.7154
  458MOL0     H61823   4.431   2.757   9.142 -3.0996 -4.9280  0.7347
  458MOL0     H61824   4.713   2.818   9.137  0.4227 -0.6372 -0.3791
  458MOL0     H61825   4.726   2.650   9.178  0.6572  0.4500  0.7597
  458MOL0     H61826   4.715   2.756   9.397 -0.6552 -1.5458  2.3967
  458MOL0     H61827   4.572   2.656   9.363 -2.7160  1.2737 -1.2913
  458MOL0     H61828   4.448   3.069   9.410 -1.6690 -0.4666  2.4806
  458MOL0     H61829   4.474   2.749   8.697  0.5112  3.7052  2.3591
  458MOL0     H61830   4.551   2.776   8.470  0.5411 -1.3280 -2.8643
  459MOL0     O61831   0.087   1.172   7.738  0.2313  0.2974 -0.2727
  459MOL0     C61832   0.201   1.205   7.697 -0.2296 -0.1052 -0.0753
  459MOL0     O61833   0.298   1.113   7.675  0.2424 -0.4708  0.7246
  459MOL0     C61834   0.253   0.981   7.685  0.5620 -0.7070  0.2874
  459MOL0     C61835   0.296   0.897   7.793  0.6813  0.7594 -0.1492
  459MOL0     C61836   0.245   0.763   7.805  1.1063  0.0374  0.5069
  459MOL0     C61837   0.153   0.715   7.708 -0.0398 -0.1980 -0.2696
  459MOL0     O61838   0.121   0.579   7.706 -0.0963 -0.6240  0.4008
  459MOL0     C61839   0.221   0.482   7.715 -0.3653  0.1588 -1.0909
  459MOL0     C61840   0.152   0.346   7.703  0.3500 -0.5655  0.3991
  459MOL0     C61841   0.044   0.324   7.598  0.2291  0.6654  0.0312
  459MOL0     C61842   0.089   0.263   7.464  0.3206  0.3752  0.0329
  459MOL0     C61843   0.169   0.366   7.380  0.0082 -0.4156 -0.3179
  459MOL0     C61844   0.110   0.500   7.343  0.0949  0.7325  0.9279
  459MOL0     C61845   0.192   0.586   7.246 -1.0845 -0.7020 -0.1014
  459MOL0     C61846   0.314   0.658   7.312  0.5139  0.0397  0.3660
  459MOL0     N61847   0.370   0.754   7.218  0.1804  0.1211 -0.4575
  459MOL0     C61848   0.453   0.708   7.123 -0.1539  0.2213  0.0636
  459MOL0     C61849   0.472   0.795   7.037 -0.4303 -0.6356 -0.2316
  459MOL0     C61850   0.572   0.802   6.925  0.3969 -0.7707 -1.2065
  459MOL0     C61851   0.693   0.700   6.931  1.3512 -1.2303 -0.1519
  459MOL0     C61852   0.771   0.714   6.803  0.5988  0.5925  0.2011
  459MOL0     C61853   0.923   0.713   6.808 -0.5710  0.1506 -0.3289
  459MOL0     O61854   0.970   0.812   6.904 -0.5515  0.4273 -0.3440
  459MOL0     C61855   1.104   0.808   6.947 -0.6661 -0.1975  0.8542
  459MOL0     C61856   1.145   0.903   7.048  0.8486  0.0113  0.7935
  459MOL0     C61857   1.281   0.930   7.070  0.0665 -0.1103 -0.7572
  459MOL0     C61858   1.322   1.037   7.171 -0.2103 -0.6497 -0.0284
  459MOL0     C61859   1.376   0.852   6.998 -0.7328 -0.3762 -0.8567
  459MOL0     C61860   1.519   0.878   7.016 -0.8487 -0.1862 -0.9511
  459MOL0     O61861   1.599   0.867   6.911 -1.1419  0.2891  0.1567
  459MOL0     C61862   1.730   0.918   6.918 -0.1114  0.2013  1.1003
  459MOL0     C61863   1.832   0.850   6.992 -0.2272  0.4481  0.2135
  459MOL0     C61864   1.961   0.903   7.005  0.2034  0.5430 -0.8709
  459MOL0     C61865   1.990   1.022   6.937 -1.5386  0.8483 -0.0530
  459MOL0     O61866   2.123   1.076   6.929  0.2125  0.8313  0.2894
  459MOL0     C61867   2.124   1.219   6.965 -0.6158 -0.2984 -0.3618
  459MOL0     C61868   2.239   1.238   7.067 -0.2874 -0.2420  0.4096
  459MOL0     C61869   2.232   1.389   7.127 -1.0981 -0.3199  0.4651
  459MOL0     C61870   2.268   1.510   7.046 -0.8758 -0.9733  0.3103
  459MOL0     C61871   2.228   1.634   7.136 -0.1766 -0.2851 -0.3322
  459MOL0     C61872   2.269   1.760   7.059 -0.3062 -0.5255  0.9591
  459MOL0     C61873   2.248   1.883   7.146 -0.0127  0.1445  0.5410
  459MOL0     C61874   2.104   1.930   7.157  0.6918 -0.8033  0.7305
  459MOL0    Cl61875   2.018   1.975   6.998 -0.3493  0.1359  0.3923
  459MOL0     C61876   1.886   1.079   6.854 -0.7119  1.0162 -0.6712
  459MOL0     C61877   1.758   1.029   6.843 -0.5741 -0.4997  1.1349
  459MOL0     O61878   1.563   0.901   7.129 -0.8342 -0.2094 -0.1933
  459MOL0     C61879   1.334   0.761   6.901 -0.0633  0.6215 -0.6425
  459MOL0     C61880   1.204   0.729   6.890  0.5735  0.0493  0.0971
  459MOL0     N61881   0.402   0.910   7.085  1.2537  0.3225 -0.3506
  459MOL0     N61882   0.341   0.888   7.196  0.2656 -0.0769 -0.0901
  459MOL0     C61883   0.115   0.793   7.596 -1.1435 -0.1332 -0.0683
  459MOL0     C61884   0.177   0.920   7.586  0.4853  0.2425 -0.2209
  459MOL0     C61885   0.243   1.346   7.695 -0.4103 -0.5136  1.1011
  459MOL0     C61886   0.151   1.445   7.701 -0.4739 -0.3703  0.1443
  459MOL0     C61887   0.184   1.582   7.691  0.4925 -0.4790 -1.2490
  459MOL0     C61888   0.320   1.617   7.655  1.2823  0.0263  0.5781
  459MOL0     O61889   0.349   1.751   7.631  0.2244  0.3922  0.0448
  459MOL0     C61890   0.247   1.812   7.549 -0.5573 -0.3256  0.1450
  459MOL0     C61891   0.321   1.928   7.486 -0.0450 -0.5638 -0.0060
  459MOL0     C61892   0.245   2.017   7.384 -0.3460  0.1075  0.2273
  459MOL0     C61893   0.316   2.146   7.344 -0.4349 -0.8717 -0.8888
  459MOL0     C61894   0.234   2.197   7.244 -0.7203 -0.8025 -0.0265
  459MOL0     C61895   0.172   2.221   7.141 -0.2394 -0.5685 -0.6422
  459MOL0     C61896   0.417   1.513   7.651  1.1593  1.2429  0.5011
  459MOL0     C61897   0.379   1.378   7.681 -0.4966  0.0521  0.1429
  459MOL0     H61898   0.351   0.948   7.871 -0.9087 -0.0557  1.5557
  459MOL0     H61899   0.270   0.709   7.896 -4.3686 -0.7891  1.8912
  459MOL0     H61900   0.304   0.492   7.644 -0.6288 -2.5119 -1.8849
  459MOL0     H61901   0.273   0.486   7.811 -0.3362 -3.2017 -0.8600
  459MOL0     H61902   0.226   0.266   7.697  1.1127  0.0371  1.4667
  459MOL0     H61903   0.107   0.335   7.802  1.8282  2.4647  1.5222
  459MOL0     H61904  -0.028   0.254   7.641  3.4452 -1.4836  2.3057
  459MOL0     H61905  -0.007   0.418   7.575  1.1139  0.4582 -3.3275
  459MOL0     H61906   0.140   0.169   7.486  2.1462  1.8188  2.5562
  459MOL0     H61907   0.006   0.239   7.397  0.5191  2.8415 -1.2239
  459MOL0     H61908   0.264   0.380   7.432 -0.6148  0.8667  0.5541
  459MOL0     H61909   0.191   0.330   7.280 -1.3276  0.0915 -0.8235
  459MOL0     H61910   0.013   0.480   7.296  0.9457  0.2451 -0.6585
  459MOL0     H61911   0.109   0.557   7.437  3.7073  0.0992  1.4704
  459MOL0     H61912   0.221   0.530   7.157  3.9900  0.0488  0.7481
  459MOL0     H61913   0.127   0.667   7.213  1.0099  0.1185 -2.5886
  459MOL0     H61914   0.379   0.582   7.356  0.8647 -1.0819 -1.9208
  459MOL0     H61915   0.292   0.715   7.403 -1.6411 -0.7669  0.4065
  459MOL0     H61916   0.500   0.610   7.119 -2.4367 -0.9029 -1.0923
  459MOL0     H61917   0.517   0.796   6.831 -2.2053  0.8973  0.0665
  459MOL0     H61918   0.618   0.901   6.930 -1.4561  0.0875  3.2753
  459MOL0     H61919   0.640   0.606   6.918  0.8783 -0.7680 -1.8733
  459MOL0     H61920   0.755   0.705   7.021  1.5990 -1.2152 -0.3220
  459MOL0     H61921   0.744   0.813   6.766 -2.6325  0.5833  2.1813
  459MOL0     H61922   0.741   0.634   6.734  0.1253 -0.3909  1.5141
  459MOL0     H61923   0.965   0.722   6.707 -1.2935 -1.9708 -0.8671
  459MOL0     H61924   0.947   0.616   6.852  1.3553  0.7746  0.0624
  459MOL0     H61925   1.079   0.976   7.095  2.5636  1.4728  1.0058
  459MOL0     H61926   1.236   1.100   7.197 -2.4789 -2.4621 -2.5137
  459MOL0     H61927   1.363   0.990   7.261  0.6111 -1.6158 -0.8922
  459MOL0     H61928   1.400   1.102   7.131 -1.0210 -1.6659 -3.6450
  459MOL0     H61929   1.812   0.757   7.044 -3.7917  1.9557  1.8312
  459MOL0     H61930   2.036   0.846   7.059 -1.5257 -1.4125 -0.4106
  459MOL0     H61931   2.124   1.290   6.883 -2.7568  1.9883  1.4679
  459MOL0     H61932   2.031   1.240   7.019 -1.1402  0.1199 -1.4232
  459MOL0     H61933   2.240   1.171   7.153 -0.4866  3.3632  3.4806
  459MOL0     H61934   2.333   1.218   7.015 -1.0289 -0.1622 -1.0175
  459MOL0     H61935   2.297   1.392   7.214  0.5169 -0.9245 -0.6765
  459MOL0     H61936   2.130   1.395   7.165 -1.9237  0.2860 -1.6726
  459MOL0     H61937   2.370   1.524   7.009 -1.4306  1.4080 -0.5224
  459MOL0     H61938   2.207   1.523   6.955 -1.3703  0.8868  0.8541
  459MOL0     H61939   2.262   1.628   7.239 -2.1370 -2.0015  0.2885
  459MOL0     H61940   2.118   1.635   7.137 -0.1851  1.2056 -0.2027
  459MOL0     H61941   2.370   1.742   7.022 -0.2975 -1.3104  1.3434
  459MOL0     H61942   2.206   1.770   6.970  0.4519  0.8011  0.5514
  459MOL0     H61943   2.312   1.967   7.118 -0.6413  1.2956  2.3536
  459MOL0     H61944   2.274   1.859   7.249  0.8793  1.6981  0.7102
  459MOL0     H61945   2.100   2.019   7.220 -0.8965 -1.2793  1.3505
  459MOL0     H61946   2.052   1.843   7.198  4.4836 -4.7729 -2.0553
  459MOL0     H61947   1.917   1.174   6.811 -1.5403  1.3272 -0.6147
  459MOL0     H61948   1.681   1.080   6.785  1.6471  1.6033 -0.1729
  459MOL0     H61949   1.415   0.709   6.850  1.7720 -0.3587  2.9202
  459MOL0     H61950   1.173   0.651   6.821 -0.1931  0.2015  0.2533
  459MOL0     H61951   0.054   0.756   7.514 -2.8364 -0.6950  1.3886
  459MOL0     H61952   0.152   0.982   7.501  0.2688 -1.1745 -1.2221
  459MOL0     H61953   0.044   1.434   7.715 -0.1666  0.4996  4.8627
  459MOL0     H61954   0.123   1.670   7.710  4.9807  2.5973  0.8291
  459MOL0     H61955   0.198   1.756   7.469  0.4703 -0.1799 -0.6222
  459MOL0     H61956   0.170   1.842   7.620  0.6835 -1.9646  2.3424
  459MOL0     H61957   0.411   1.902   7.429 -1.7425 -0.5370 -2.9219
  459MOL0     H61958   0.349   1.996   7.567  0.1013 -0.9794  0.2948
  459MOL0     H61959   0.152   2.052   7.429  0.3722  1.3402  0.7979
  459MOL0     H61960   0.222   1.946   7.303  1.9507  1.1419 -1.4328
  459MOL0     H61961   0.418   2.119   7.313  1.1901  3.0502  0.3978
  459MOL0     H61962   0.318   2.217   7.427 -2.2292  0.0706 -1.5896
  459MOL0     H61963   0.137   2.256   7.046 -1.7809  1.4309  0.5769
  459MOL0     H61964   0.507   1.536   7.596 -1.3311  4.6621 -2.6896
  459MOL0     H61965   0.462   1.308   7.686 -0.5298 -0.1067 -1.1857
  460MOL0     O61966   9.332   5.158   0.581 -0.5091 -0.8197 -0.6055
  460MOL0     C61967   9.443   5.179   0.534 -0.0424 -1.3396  0.0923
  460MOL0     O61968   9.558   5.141   0.583 -0.5132 -0.1518  1.8391
  460MOL0     C61969   9.549   5.041   0.658  0.2836 -0.3517  0.3963
  460MOL0     C61970   9.543   4.912   0.607  0.9407 -0.4606  1.0339
  460MOL0     C61971   9.544   4.797   0.684 -0.7882 -0.2796  0.7640
  460MOL0     C61972   9.557   4.818   0.829 -0.0614  0.7815 -0.0819
  460MOL0     O61973   9.569   4.700   0.896  0.3259  0.6330 -0.5211
  460MOL0     C61974   9.457   4.664   0.979  0.3790  0.1219  0.1566
  460MOL0     C61975   9.438   4.505   0.959  0.2899  0.5472 -0.6295
  460MOL0     C61976   9.326   4.484   0.848 -0.0916  0.2915 -0.7094
  460MOL0     C61977   9.301   4.336   0.858 -0.1318  0.2849  0.7184
  460MOL0     C61978   9.204   4.282   0.743 -0.0380  0.0224  0.0175
  460MOL0     C61979   9.255   4.305   0.602 -0.5189 -0.8809  0.4695
  460MOL0     C61980   9.176   4.228   0.496  0.3837 -0.2736 -0.2481
  460MOL0     C61981   9.044   4.293   0.468 -0.5316  0.2576  0.1520
  460MOL0     N61982   8.956   4.209   0.388 -0.1357 -0.2080 -0.5939
  460MOL0     C61983   8.933   4.184   0.257 -0.2184  0.7830  0.7518
  460MOL0     C61984   8.850   4.070   0.249 -0.1564  0.1701 -0.2715
  460MOL0     C61985   8.827   4.006   0.114  0.1464 -0.2105 -0.0226
  460MOL0     C61986   8.950   3.939   0.056  1.0626 -0.0335 -0.8903
  460MOL0     C61987   8.940   3.902  -0.089 -0.0286  0.3230  0.5916
  460MOL0     C61988   8.810   3.833  -0.138 -0.0247  1.0322  0.2338
  460MOL0     O61989   8.689   3.916  -0.157 -0.7950 -0.4943  0.4304
  460MOL0     C61990   8.669   4.007  -0.261  0.3153 -0.0682 -0.4592
  460MOL0     C61991   8.752   4.023  -0.369 -0.3017 -0.4167 -0.1573
  460MOL0     C61992   8.740   4.119  -0.467 -0.4010 -0.2593 -0.0430
  460MOL0     C61993   8.854   4.133  -0.561 -0.1460 -0.2013 -0.3198
  460MOL0     C61994   8.629   4.206  -0.462  0.4829 -0.3707 -0.8070
  460MOL0     C61995   8.598   4.320  -0.558 -0.2864  0.1789  0.0977
  460MOL0     O61996   8.470   4.356  -0.563 -0.0879  0.2438  0.2398
  460MOL0     C61997   8.440   4.438  -0.664  0.3053 -1.4316  0.4314
  460MOL0     C61998   8.418   4.578  -0.633  0.5474  0.0015 -0.5546
  460MOL0     C61999   8.383   4.667  -0.733 -0.1905  0.1957  0.0468
  460MOL0     C62000   8.356   4.623  -0.870  0.2049 -1.5199 -0.7764
  460MOL0     O62001   8.327   4.713  -0.967 -0.4291 -0.5519  0.2155
  460MOL0     C62002   8.215   4.691  -1.052 -1.5814 -0.0615  1.5891
  460MOL0     C62003   8.076   4.675  -0.985 -0.0404  0.3361 -0.2735
  460MOL0     C62004   7.986   4.803  -0.960  0.2488  0.5808  0.0736
  460MOL0     C62005   7.834   4.773  -0.938 -0.9526  0.6416  1.0027
  460MOL0     C62006   7.774   4.775  -1.078 -0.5451  0.1246 -0.7486
  460MOL0     C62007   7.634   4.723  -1.069 -0.4241 -0.3845  0.1289
  460MOL0     C62008   7.568   4.740  -1.211 -0.0984  0.5051  0.6262
  460MOL0     C62009   7.419   4.711  -1.219 -0.2594  0.3441  0.1204
  460MOL0    Cl62010   7.388   4.536  -1.227  0.1026 -0.3422  0.7498
  460MOL0     C62011   8.358   4.494  -0.895  0.0788 -0.0213 -0.4206
  460MOL0     C62012   8.407   4.400  -0.806 -0.2805  0.1186 -0.3416
  460MOL0     O62013   8.692   4.375  -0.609  0.3174 -0.8419 -0.0201
  460MOL0     C62014   8.525   4.179  -0.355 -0.0024  0.0888  0.0164
  460MOL0     C62015   8.547   4.079  -0.254  0.1294  0.5143 -0.6121
  460MOL0     N62016   8.829   4.016   0.375  0.4061 -0.6784  0.5773
  460MOL0     N62017   8.883   4.109   0.458  0.1043  0.4328  0.9366
  460MOL0     C62018   9.571   4.949   0.887  0.2860  1.2475  0.2278
  460MOL0     C62019   9.577   5.061   0.797 -0.7121 -0.4298  0.0231
  460MOL0     C62020   9.455   5.277   0.425 -0.3940 -0.4102 -0.3982
  460MOL0     C62021   9.332   5.303   0.351 -0.3605 -0.2605 -0.0972
  460MOL0     C62022   9.344   5.374   0.230  0.3679 -0.5607 -0.6634
  460MOL0     C62023   9.458   5.442   0.197  0.3046 -0.0531  0.2797
  460MOL0     O62024   9.435   5.527   0.094 -0.3908  1.0860  0.0610
  460MOL0     C62025   9.541   5.601   0.036 -0.7457  0.4307  0.1221
  460MOL0     C62026   9.589   5.703   0.142 -1.1886  0.3865  0.1531
  460MOL0     C62027   9.679   5.809   0.068  0.2994 -0.5203  0.3326
  460MOL0     C62028   9.736   5.931   0.140  0.1240  0.1261  1.1834
  460MOL0     C62029   9.811   5.905   0.267 -0.5763 -0.2197  0.3911
  460MOL0     C62030   9.890   5.889   0.361 -0.2263 -0.1643 -0.0098
  460MOL0     C62031   9.578   5.408   0.265  0.0345  0.4840 -0.5746
  460MOL0     C62032   9.576   5.323   0.373  0.1566 -0.2215 -0.2521
  460MOL0     H62033   9.528   4.889   0.502 -3.0075 -0.8653  1.5622
  460MOL0     H62034   9.542   4.702   0.633 -1.2590  0.4217 -0.5603
  460MOL0     H62035   9.486   4.685   1.083  0.3498  3.1301 -0.3516
  460MOL0     H62036   9.366   4.721   0.959  0.6378  0.3491 -0.3845
  460MOL0     H62037   9.535   4.462   0.934 -0.8668 -1.3401 -2.0686
  460MOL0     H62038   9.407   4.459   1.053 -2.8501 -0.3643 -1.9774
  460MOL0     H62039   9.235   4.543   0.861  0.8897  1.7151  0.0628
  460MOL0     H62040   9.368   4.503   0.749 -1.0209 -0.3193 -1.2320
  460MOL0     H62041   9.396   4.283   0.844 -0.5414 -1.2422  3.0590
  460MOL0     H62042   9.270   4.311   0.960  2.4505  1.0066  1.7493
  460MOL0     H62043   9.195   4.174   0.756  1.1642 -0.9729 -5.1803
  460MOL0     H62044   9.111   4.338   0.757 -0.3261 -0.7864  1.5007
  460MOL0     H62045   9.239   4.407   0.566  0.5566 -1.8591 -3.2184
  460MOL0     H62046   9.362   4.281   0.594 -0.3121  0.1004  0.1195
  460MOL0     H62047   9.227   4.226   0.399 -1.2502  1.3688 -1.2180
  460MOL0     H62048   9.144   4.131   0.534 -0.7325  0.6860  1.3883
  460MOL0     H62049   9.052   4.395   0.429  1.5120  0.0955  0.0702
  460MOL0     H62050   9.003   4.297   0.570  2.4255 -1.0657  1.5110
  460MOL0     H62051   8.982   4.229   0.171  0.6172  1.2778  1.4838
  460MOL0     H62052   8.748   3.932   0.122  0.0823 -0.1032  0.3383
  460MOL0     H62053   8.799   4.088   0.046  3.6172  0.8187 -0.3991
  460MOL0     H62054   8.970   3.849   0.113  0.9786 -1.1098 -2.4928
  460MOL0     H62055   9.033   4.011   0.064  0.0496  1.2412 -1.3500
  460MOL0     H62056   9.022   3.834  -0.113 -0.2233 -0.6385  2.4824
  460MOL0     H62057   8.947   3.992  -0.151 -0.4253 -0.7539 -1.0904
  460MOL0     H62058   8.782   3.748  -0.076  1.0966  0.2125 -0.3518
  460MOL0     H62059   8.824   3.782  -0.233  0.2739  0.1906  0.7156
  460MOL0     H62060   8.835   3.953  -0.367 -1.0624 -1.3480 -0.6807
  460MOL0     H62061   8.886   4.237  -0.570 -0.0287 -0.3741 -2.3527
  460MOL0     H62062   8.939   4.087  -0.510  0.3064  2.0767  1.1071
  460MOL0     H62063   8.833   4.096  -0.662  0.7658  1.0494 -0.9929
  460MOL0     H62064   8.432   4.614  -0.531 -0.3898 -1.8609  0.2846
  460MOL0     H62065   8.378   4.772  -0.704  4.0354  0.0713  1.9952
  460MOL0     H62066   8.200   4.782  -1.112 -3.2436 -0.8334  0.7699
  460MOL0     H62067   8.224   4.615  -1.131  5.7784  1.9199 -0.3377
  460MOL0     H62068   8.013   4.609  -1.045 -3.3528  0.4712  2.7127
  460MOL0     H62069   8.087   4.616  -0.894  0.9968 -0.8402 -1.1308
  460MOL0     H62070   8.015   4.875  -1.037  2.1005 -1.6317 -1.4328
  460MOL0     H62071   8.025   4.844  -0.866 -0.4844  3.4683 -0.7836
  460MOL0     H62072   7.829   4.673  -0.894  2.5237  0.2096  0.6967
  460MOL0     H62073   7.803   4.847  -0.864 -0.4979  0.6951  1.1433
  460MOL0     H62074   7.825   4.706  -1.145 -0.4024 -0.6633  0.1437
  460MOL0     H62075   7.770   4.878  -1.115 -2.6685 -0.1226 -1.3486
  460MOL0     H62076   7.635   4.621  -1.028 -2.3556  0.5866  2.8710
  460MOL0     H62077   7.584   4.781  -0.991  0.3940 -0.4268  0.7026
  460MOL0     H62078   7.619   4.671  -1.279 -0.5258  1.5473 -0.7915
  460MOL0     H62079   7.592   4.839  -1.250 -1.7952  0.3806 -0.8954
  460MOL0     H62080   7.384   4.755  -1.313 -2.3455 -0.7418  0.3365
  460MOL0     H62081   7.366   4.753  -1.133 -2.6504 -1.4925 -0.3295
  460MOL0     H62082   8.347   4.458  -0.997  0.5047 -2.2294  0.2559
  460MOL0     H62083   8.403   4.296  -0.836 -0.2547 -0.7004  2.2687
  460MOL0     H62084   8.437   4.242  -0.348 -1.3000 -1.7020  0.8005
  460MOL0     H62085   8.487   4.076  -0.163  0.6345  3.1317 -0.1090
  460MOL0     H62086   9.569   4.948   0.995  0.0517 -4.7948  0.4756
  460MOL0     H62087   9.577   5.156   0.849  3.1213 -0.5896  0.5650
  460MOL0     H62088   9.244   5.258   0.395 -0.6686 -1.1398 -1.5440
  460MOL0     H62089   9.252   5.408   0.184 -0.1569  0.4917  1.0401
  460MOL0     H62090   9.611   5.521   0.011 -2.1965 -1.5928  2.1590
  460MOL0     H62091   9.510   5.655  -0.054 -2.1678 -3.9077 -2.2515
  460MOL0     H62092   9.657   5.654   0.211  0.5547 -2.4829 -3.2621
  460MOL0     H62093   9.508   5.751   0.197 -0.7378 -2.8185  4.0686
  460MOL0     H62094   9.624   5.859  -0.013  0.8788 -2.6352 -1.4739
  460MOL0     H62095   9.757   5.749   0.019 -0.6251 -0.8310 -0.7930
  460MOL0     H62096   9.646   5.992   0.155  0.7207  0.7117  2.6173
  460MOL0     H62097   9.803   5.983   0.071  0.6660 -2.3754 -0.2641
  460MOL0     H62098   9.958   5.885   0.444  1.8581 -1.2389 -1.6890
  460MOL0     H62099   9.662   5.463   0.223 -0.8395 -0.0058 -3.1694
  460MOL0     H62100   9.671   5.296   0.418 -0.5312  0.4146  1.6945
  461MOL0     O62101   1.299   8.572   0.491 -0.6107 -0.5785 -0.3088
  461MOL0     C62102   1.317   8.555   0.372  0.3405 -0.5895 -1.3945
  461MOL0     O62103   1.318   8.650   0.272 -0.0195  0.5324 -0.4877
  461MOL0     C62104   1.340   8.787   0.294 -0.3773 -1.4437  0.1233
  461MOL0     C62105   1.459   8.843   0.311 -0.1073  0.0499 -1.4765
  461MOL0     C62106   1.478   8.980   0.306  0.5432 -0.3925 -0.5454
  461MOL0     C62107   1.374   9.069   0.276 -0.8470  0.9898  0.0092
  461MOL0     O62108   1.403   9.202   0.273  0.1237  0.2999  0.2053
  461MOL0     C62109   1.312   9.287   0.209  0.5275  0.6002  0.7102
  461MOL0     C62110   1.373   9.424   0.178  0.0580  0.0881 -1.2059
  461MOL0     C62111   1.466   9.475   0.293  0.1026 -0.7426 -0.5756
  461MOL0     C62112   1.607   9.444   0.259 -1.0000  0.7818  0.0663
  461MOL0     C62113   1.705   9.454   0.365 -0.3183 -0.1562  0.0679
  461MOL0     C62114   1.700   9.335   0.458  1.1220  0.3274  0.6137
  461MOL0     C62115   1.760   9.374   0.592 -0.9240  0.0007 -0.0270
  461MOL0     C62116   1.922   9.357   0.584 -0.0501 -0.4640  0.3009
  461MOL0     N62117   1.991   9.394   0.712 -0.3273  0.3145  0.5855
  461MOL0     C62118   1.936   9.445   0.822 -0.0660 -0.1236  0.4461
  461MOL0     C62119   2.008   9.419   0.928 -1.2264  0.5378  0.1061
  461MOL0     C62120   1.991   9.452   1.072  0.4060 -0.1047  0.4401
  461MOL0     C62121   1.915   9.341   1.146  0.3770  0.1318 -1.0172
  461MOL0     C62122   1.764   9.346   1.096  0.1300 -0.1732 -0.2324
  461MOL0     C62123   1.677   9.227   1.154  0.8152 -0.4288 -0.6820
  461MOL0     O62124   1.547   9.280   1.162  0.3386 -0.4757 -0.5868
  461MOL0     C62125   1.498   9.376   1.255  0.0110 -0.2701 -0.1601
  461MOL0     C62126   1.365   9.395   1.249  1.3733 -0.5565  0.7009
  461MOL0     C62127   1.297   9.490   1.329 -0.3016  0.1160 -0.6397
  461MOL0     C62128   1.161   9.513   1.297  0.8783 -0.2966 -0.5979
  461MOL0     C62129   1.362   9.571   1.429 -0.1336  0.4084 -0.2870
  461MOL0     C62130   1.301   9.684   1.502  0.2295 -0.6061  0.4786
  461MOL0     O62131   1.392   9.756   1.583 -0.4471  0.7685  0.4275
  461MOL0     C62132   1.336   9.823   1.690  0.5581 -0.4882  0.0796
  461MOL0     C62133   1.335   9.760   1.817 -0.1319  0.5387 -0.4560
  461MOL0     C62134   1.273   9.817   1.930 -1.0078 -0.3261  0.3780
  461MOL0     C62135   1.206   9.947   1.915 -0.5573  0.0524 -0.2332
  461MOL0     O62136   1.163  10.003   2.031 -0.1696  0.1838  0.9023
  461MOL0     C62137   1.137  10.143   2.033  1.0035  0.0730 -0.2400
  461MOL0     C62138   1.059  10.184   2.159  0.2396 -0.4984 -0.2132
  461MOL0     C62139   0.908  10.140   2.157 -0.1347  0.0644  0.2851
  461MOL0     C62140   0.821  10.226   2.069  0.3332  0.7049  0.3358
  461MOL0     C62141   0.830  10.373   2.121 -0.6477  0.1543  0.6125
  461MOL0     C62142   0.699  10.463   2.100  0.9614 -0.1435 -1.0874
  461MOL0     C62143   0.634  10.467   1.960 -0.3750  0.2805  0.0114
  461MOL0     C62144   0.724  10.558   1.873  0.5401 -0.1807 -0.1428
  461MOL0    Cl62145   0.764  10.710   1.942  0.1210  0.3262  0.4587
  461MOL0     C62146   1.214  10.013   1.798  0.1380  0.6582  1.0849
  461MOL0     C62147   1.273   9.950   1.683 -0.1553  0.8775  0.3987
  461MOL0     O62148   1.177   9.698   1.503 -0.6140 -0.7175  0.1631
  461MOL0     C62149   1.510   9.558   1.417  0.6333 -0.4355  0.2424
  461MOL0     C62150   1.566   9.462   1.340  0.2560  0.0646  1.2880
  461MOL0     N62151   2.114   9.339   0.883  0.4714 -0.7132  0.2105
  461MOL0     N62152   2.100   9.324   0.754  0.5494  0.1728 -0.6336
  461MOL0     C62153   1.247   9.012   0.262  0.2837  0.4781 -0.1961
  461MOL0     C62154   1.234   8.870   0.254  0.2572 -0.0790 -0.0296
  461MOL0     C62155   1.326   8.410   0.337  0.9280  0.6295 -0.8202
  461MOL0     C62156   1.358   8.373   0.205 -0.2284 -0.3475 -1.1905
  461MOL0     C62157   1.362   8.239   0.171  0.3178  0.0909  0.7812
  461MOL0     C62158   1.351   8.138   0.258 -0.2269  0.7081 -0.4260
  461MOL0     O62159   1.362   8.013   0.195  0.3138 -0.2145  0.9802
  461MOL0     C62160   1.407   7.902   0.268 -0.7267 -0.3239 -0.7067
  461MOL0     C62161   1.559   7.911   0.320  0.7821 -0.2784  0.3305
  461MOL0     C62162   1.656   7.931   0.200 -0.8768  0.5088  0.7031
  461MOL0     C62163   1.639   7.820   0.092 -0.2871  0.4109  1.0367
  461MOL0     C62164   1.597   7.681   0.134  0.7500 -0.1140  0.6839
  461MOL0     C62165   1.549   7.571   0.157 -0.2579 -0.5052  0.5151
  461MOL0     C62166   1.326   8.175   0.393  0.1029 -0.4758 -1.0895
  461MOL0     C62167   1.315   8.306   0.437  0.5855 -0.7134  0.2398
  461MOL0     H62168   1.533   8.769   0.340 -2.3469 -1.9875 -0.6670
  461MOL0     H62169   1.578   9.016   0.330  1.4263 -3.4669  0.9463
  461MOL0     H62170   1.282   9.237   0.116  0.6259  0.9249  0.5039
  461MOL0     H62171   1.237   9.298   0.287 -0.5035 -2.5064  0.3011
  461MOL0     H62172   1.413   9.407   0.078 -0.5235  0.1942 -1.4612
  461MOL0     H62173   1.295   9.501   0.176 -0.7207 -0.5017  1.7270
  461MOL0     H62174   1.448   9.582   0.303  1.0743 -0.5676 -0.5981
  461MOL0     H62175   1.432   9.430   0.386 -2.7062  2.3323  0.0741
  461MOL0     H62176   1.610   9.349   0.205  0.0548  1.3664 -0.9573
  461MOL0     H62177   1.634   9.517   0.182  2.2461 -0.6515 -0.3356
  461MOL0     H62178   1.808   9.460   0.329 -0.4623  0.2285 -0.2882
  461MOL0     H62179   1.679   9.549   0.413  3.8711  0.1021  2.3222
  461MOL0     H62180   1.602   9.298   0.487  2.3633 -3.0730  0.8674
  461MOL0     H62181   1.749   9.245   0.421  0.3810 -0.3479  1.2582
  461MOL0     H62182   1.720   9.473   0.615  1.0091  1.0989 -1.1364
  461MOL0     H62183   1.728   9.314   0.678  0.9266 -1.3336 -0.1957
  461MOL0     H62184   1.963   9.423   0.507 -0.0247  1.9563  2.2889
  461MOL0     H62185   1.940   9.251   0.562 -1.8074 -1.2301  2.2416
  461MOL0     H62186   1.844   9.504   0.830  0.7151  1.0606  0.9817
  461MOL0     H62187   2.090   9.463   1.116 -0.1196  0.0600  1.6296
  461MOL0     H62188   1.947   9.550   1.094  1.8397  0.5534  0.4528
  461MOL0     H62189   1.917   9.362   1.253 -1.6683 -2.4757 -0.3696
  461MOL0     H62190   1.955   9.241   1.128  0.5897 -0.4187  2.0794
  461MOL0     H62191   1.764   9.345   0.987  3.8261  0.3080 -0.3472
  461MOL0     H62192   1.728   9.444   1.130 -0.0946 -0.3193 -0.0446
  461MOL0     H62193   1.701   9.186   1.252  0.2037 -1.1565 -0.8260
  461MOL0     H62194   1.687   9.132   1.101  3.6698 -0.3335 -0.4426
  461MOL0     H62195   1.328   9.344   1.161  0.6344  2.2198 -0.7428
  461MOL0     H62196   1.151   9.469   1.198  1.6404 -2.0199  0.0466
  461MOL0     H62197   1.085   9.477   1.368 -0.2056  0.5693 -1.2971
  461MOL0     H62198   1.147   9.620   1.283  1.7931  0.0443  0.8106
  461MOL0     H62199   1.384   9.664   1.820 -0.2559  0.4469 -1.3704
  461MOL0     H62200   1.284   9.762   2.023 -0.8532 -0.1126  0.4869
  461MOL0     H62201   1.233  10.194   2.033  0.5026  1.2320  2.8571
  461MOL0     H62202   1.076  10.182   1.950 -0.0419  2.6985  1.6207
  461MOL0     H62203   1.098  10.142   2.252  0.8293  2.1002  0.8182
  461MOL0     H62204   1.056  10.291   2.184 -0.2958 -1.0495  2.3498
  461MOL0     H62205   0.868  10.144   2.259 -3.0121  3.4386 -0.7599
  461MOL0     H62206   0.900  10.034   2.131 -1.6334 -1.0220  4.3809
  461MOL0     H62207   0.848  10.208   1.965 -1.3332 -1.7554  0.2348
  461MOL0     H62208   0.718  10.193   2.086  0.3207  0.2915 -0.5309
  461MOL0     H62209   0.916  10.406   2.061 -1.2613 -1.9549 -1.6231
  461MOL0     H62210   0.848  10.375   2.228 -2.5862  0.1934  0.9709
  461MOL0     H62211   0.623  10.422   2.167  1.5982  0.9440  0.3704
  461MOL0     H62212   0.711  10.567   2.133 -1.0462 -0.3913  0.5893
  461MOL0     H62213   0.536  10.513   1.967 -0.3830  0.2649  0.0005
  461MOL0     H62214   0.630  10.368   1.912 -1.1486  0.7549 -0.9394
  461MOL0     H62215   0.677  10.585   1.778  0.9315  4.3762  0.7518
  461MOL0     H62216   0.810  10.502   1.836  0.6383  0.9305 -1.6910
  461MOL0     H62217   1.159  10.106   1.796 -1.9259 -0.4430  2.3328
  461MOL0     H62218   1.262   9.996   1.585 -3.5148 -1.9648 -0.7506
  461MOL0     H62219   1.561   9.629   1.480 -0.4583 -0.7660  1.5583
  461MOL0     H62220   1.672   9.439   1.345  0.2278  0.0578  2.0745
  461MOL0     H62221   1.173   9.083   0.226  1.4987  0.8484 -2.0717
  461MOL0     H62222   1.135   8.825   0.251  0.2316 -0.0869  0.7688
  461MOL0     H62223   1.378   8.446   0.128  2.1929 -1.3855 -1.6363
  461MOL0     H62224   1.378   8.223   0.065 -1.5866  1.0271  0.2992
  461MOL0     H62225   1.340   7.895   0.354 -3.3702  3.9880 -2.1412
  461MOL0     H62226   1.392   7.813   0.206 -0.2930 -1.2362  0.4467
  461MOL0     H62227   1.592   7.823   0.377  0.2483 -2.0192 -1.8953
  461MOL0     H62228   1.559   7.995   0.390 -1.0643 -1.4456  1.8392
  461MOL0     H62229   1.758   7.923   0.236 -2.2385 -0.6500  4.8761
  461MOL0     H62230   1.653   8.030   0.152 -2.2835 -0.7000 -1.9481
  461MOL0     H62231   1.736   7.814   0.041 -0.7815  2.5978 -0.2860
  461MOL0     H62232   1.573   7.856   0.013 -0.7879 -1.3697  0.5914
  461MOL0     H62233   1.485   7.486   0.167  1.5244 -1.8972  0.6586
  461MOL0     H62234   1.294   8.095   0.459  0.8161 -0.4958 -0.7539
  461MOL0     H62235   1.287   8.342   0.536  1.5608  2.1878 -0.4517
  462MOL0     O62236  10.451   2.957   2.377 -0.3792 -0.2789  0.2173
  462MOL0     C62237  10.432   3.076   2.383 -0.5919 -0.1702  0.1685
  462MOL0     O62238  10.435   3.143   2.495  0.8259 -0.6003 -0.0017
  462MOL0     C62239  10.457   3.099   2.624 -0.8029 -0.3804 -1.0396
  462MOL0     C62240  10.468   2.978   2.680  0.8548  0.5744 -0.0248
  462MOL0     C62241  10.490   2.958   2.811 -0.1162 -0.3237 -0.8226
  462MOL0     C62242  10.523   3.064   2.892 -0.4393  0.2682 -0.5643
  462MOL0     O62243  10.545   3.056   3.033  1.3332  0.0474  0.9560
  462MOL0     C62244  10.466   2.961   3.103  0.1965  1.1216 -0.0382
  462MOL0     C62245  10.495   3.002   3.251 -0.2163 -0.6643  0.0380
  462MOL0     C62246  10.451   2.880   3.331 -0.5977  0.4866  0.6490
  462MOL0     C62247  10.482   2.898   3.484  0.0124  0.3377 -0.0241
  462MOL0     C62248  10.570   2.781   3.541 -0.3445  0.2469 -1.5319
  462MOL0     C62249  10.716   2.813   3.519 -1.3420 -0.3577 -0.1879
  462MOL0     C62250  10.819   2.737   3.611 -0.0926 -0.8019  0.5444
  462MOL0     C62251  10.798   2.586   3.617 -1.5489  0.0498  0.1724
  462MOL0     N62252  10.922   2.517   3.645 -1.2611 -0.2140  1.6674
  462MOL0     C62253  10.985   2.412   3.576  0.3047 -0.2631  0.2129
  462MOL0     C62254  11.093   2.378   3.652  1.0515 -0.0646 -0.5280
  462MOL0     C62255  11.191   2.266   3.641 -0.6426  0.2221 -0.4682
  462MOL0     C62256  11.124   2.149   3.567 -0.2202 -0.4571 -0.2494
  462MOL0     C62257  11.219   2.033   3.575  0.0172  0.8176  0.2278
  462MOL0     C62258  11.185   1.927   3.479 -0.0768 -0.0599  0.3908
  462MOL0     O62259  11.052   1.871   3.486 -0.1155  0.2240 -0.2944
  462MOL0     C62260  10.957   1.871   3.388 -0.1796 -0.2945  0.1870
  462MOL0     C62261  10.839   1.802   3.412  0.4090 -0.2539 -0.0133
  462MOL0     C62262  10.726   1.790   3.323  1.2696 -0.0418  0.4963
  462MOL0     C62263  10.593   1.726   3.368  0.7957 -0.0031  0.9768
  462MOL0     C62264  10.735   1.855   3.190 -1.2312 -0.6362 -0.4863
  462MOL0     C62265  10.638   1.843   3.074 -0.8403  0.2395  0.8201
  462MOL0     O62266  10.554   1.741   3.073  0.0357 -0.1277  0.4731
  462MOL0     C62267  10.450   1.732   2.980  0.0390 -0.7675  0.4600
  462MOL0     C62268  10.359   1.835   2.966 -0.1686 -0.0687 -0.5673
  462MOL0     C62269  10.267   1.836   2.866 -0.0887  0.7109 -0.7752
  462MOL0     C62270  10.252   1.726   2.792  0.7455 -0.1273  0.4933
  462MOL0     O62271  10.172   1.703   2.687 -0.5778  0.3149 -0.4823
  462MOL0     C62272  10.166   1.808   2.597  0.0648 -0.4434  0.8113
  462MOL0     C62273  10.059   1.795   2.490  0.5040  0.2883 -0.0603
  462MOL0     C62274  10.055   1.653   2.415  0.3771  0.2229 -0.4780
  462MOL0     C62275  10.187   1.615   2.324 -0.4793 -0.4422 -0.0900
  462MOL0     C62276  10.196   1.462   2.309  0.2025 -0.7008  0.7671
  462MOL0     C62277  10.317   1.410   2.233  0.1928 -0.1900 -0.3134
  462MOL0     C62278  10.444   1.438   2.295  0.0014 -0.2144  0.3256
  462MOL0     C62279  10.468   1.345   2.411  0.8571  0.5536  0.2987
  462MOL0    Cl62280  10.610   1.379   2.517 -0.0723  0.3525  0.1986
  462MOL0     C62281  10.331   1.611   2.811 -0.4079 -0.7365 -0.3295
  462MOL0     C62282  10.439   1.615   2.899 -0.1221 -0.3552 -0.4548
  462MOL0     O62283  10.654   1.926   2.982 -0.7803  0.5315  0.0105
  462MOL0     C62284  10.864   1.915   3.170 -0.2630 -0.5444 -0.8401
  462MOL0     C62285  10.962   1.946   3.265 -0.1961  0.9275 -0.3607
  462MOL0     N62286  11.087   2.454   3.769 -0.2828  0.2764  0.7799
  462MOL0     N62287  10.994   2.537   3.754  0.6913  0.0381 -0.2220
  462MOL0     C62288  10.519   3.192   2.836  0.1896  0.1482 -1.0429
  462MOL0     C62289  10.477   3.210   2.708  0.3210  0.3573  0.4958
  462MOL0     C62290  10.434   3.143   2.256 -0.4674  0.1667  0.5406
  462MOL0     C62291  10.460   3.282   2.245 -0.7511  0.6149  0.5251
  462MOL0     C62292  10.474   3.343   2.116 -0.2852  0.4221 -0.2910
  462MOL0     C62293  10.452   3.266   1.992 -0.2590 -0.9568 -1.4274
  462MOL0     O62294  10.463   3.318   1.868  0.0126  0.4030  0.0100
  462MOL0     C62295  10.466   3.465   1.859  0.1261 -0.3875  1.2849
  462MOL0     C62296  10.463   3.510   1.714  0.7627  0.7540  0.4609
  462MOL0     C62297  10.334   3.496   1.642  0.6756 -0.5171  0.5727
  462MOL0     C62298  10.218   3.556   1.722 -0.0162  0.1065 -0.1120
  462MOL0     C62299  10.232   3.696   1.745  0.8508 -0.9831  0.1775
  462MOL0     C62300  10.251   3.807   1.767  0.1802  0.6095 -0.1875
  462MOL0     C62301  10.439   3.129   2.009  0.9130 -0.1684 -0.8150
  462MOL0     C62302  10.423   3.067   2.136  0.3958 -0.9257 -0.1848
  462MOL0     H62303  10.475   2.887   2.621 -1.2061  0.6657 -0.4790
  462MOL0     H62304  10.490   2.863   2.864 -0.5533 -0.5764 -1.2588
  462MOL0     H62305  10.357   2.969   3.097  0.3947  3.8622 -2.1578
  462MOL0     H62306  10.488   2.857   3.075 -2.1991 -0.0031  1.9181
  462MOL0     H62307  10.601   3.022   3.269  0.5495 -1.4410 -3.0982
  462MOL0     H62308  10.436   3.090   3.280 -0.5128 -0.3505 -1.4244
  462MOL0     H62309  10.343   2.873   3.311 -0.5514  3.6803 -1.6444
  462MOL0     H62310  10.507   2.793   3.297  0.0483  1.0977  0.1115
  462MOL0     H62311  10.520   2.997   3.510 -3.4206  1.9142 -0.3719
  462MOL0     H62312  10.385   2.884   3.533 -0.0832  1.4093  0.1280
  462MOL0     H62313  10.561   2.755   3.647  1.8045  0.6132 -1.2174
  462MOL0     H62314  10.547   2.689   3.486  1.1639 -0.2503 -1.3684
  462MOL0     H62315  10.741   2.803   3.413  1.6419  2.2449  0.1181
  462MOL0     H62316  10.728   2.919   3.541 -1.5810 -0.1068 -1.2262
  462MOL0     H62317  10.923   2.739   3.578 -0.2169 -3.1464 -0.1722
  462MOL0     H62318  10.813   2.793   3.705  1.1159  2.5986 -1.2255
  462MOL0     H62319  10.750   2.548   3.527 -1.6904 -1.0646  0.6919
  462MOL0     H62320  10.734   2.550   3.699 -2.1221 -1.7447 -0.9898
  462MOL0     H62321  10.955   2.380   3.477 -3.1629 -0.4154  1.1920
  462MOL0     H62322  11.285   2.291   3.591  1.1050 -1.4598  1.7190
  462MOL0     H62323  11.234   2.235   3.737  4.2375 -0.1176 -2.4784
  462MOL0     H62324  11.107   2.180   3.463  1.1405 -2.6424 -1.2036
  462MOL0     H62325  11.030   2.130   3.619 -0.5665  0.4186 -0.5403
  462MOL0     H62326  11.216   1.989   3.675  1.1603 -2.3900 -0.9895
  462MOL0     H62327  11.322   2.063   3.550  0.9810 -1.2669  1.3984
  462MOL0     H62328  11.255   1.843   3.481 -0.8953 -0.8244 -1.1926
  462MOL0     H62329  11.200   1.968   3.379 -4.1254 -0.8098 -0.7314
  462MOL0     H62330  10.838   1.759   3.512 -0.9633  2.9211  1.4984
  462MOL0     H62331  10.559   1.662   3.286 -1.0640  2.8954 -0.6849
  462MOL0     H62332  10.591   1.666   3.459 -2.0755 -1.5045  0.0365
  462MOL0     H62333  10.526   1.813   3.364  0.1731 -0.4822  0.8355
  462MOL0     H62334  10.363   1.924   3.029  0.9334 -1.1492  0.9661
  462MOL0     H62335  10.200   1.921   2.861  1.5971  2.4435  2.6760
  462MOL0     H62336  10.159   1.910   2.637 -1.9476 -0.1837 -0.0837
  462MOL0     H62337  10.260   1.812   2.541 -2.3094  2.1662 -3.5702
  462MOL0     H62338   9.961   1.833   2.521  2.2391  1.5475  4.7499
  462MOL0     H62339  10.100   1.870   2.422  0.9233  0.7241  0.6682
  462MOL0     H62340   9.967   1.648   2.350 -1.0176  3.1516  0.9729
  462MOL0     H62341  10.042   1.576   2.493 -1.7120  1.6654  0.7024
  462MOL0     H62342  10.185   1.669   2.229 -2.8689 -1.5524 -0.7574
  462MOL0     H62343  10.278   1.637   2.381 -1.5705  1.3199  1.0796
  462MOL0     H62344  10.102   1.430   2.263  0.4378 -0.7603  0.3254
  462MOL0     H62345  10.193   1.409   2.405 -2.7001  1.1087  1.8211
  462MOL0     H62346  10.309   1.301   2.229 -1.9162 -0.0570 -1.0638
  462MOL0     H62347  10.309   1.436   2.127 -1.4133 -0.4867 -0.2981
  462MOL0     H62348  10.462   1.538   2.335  0.6355 -0.8838  1.8182
  462MOL0     H62349  10.521   1.437   2.218  0.9278  2.4973  1.1004
  462MOL0     H62350  10.469   1.244   2.369  3.4095  0.2158  0.9609
  462MOL0     H62351  10.380   1.346   2.475  1.0741 -3.4100  0.8872
  462MOL0     H62352  10.294   1.519   2.766 -0.5354 -1.2517  0.7792
  462MOL0     H62353  10.496   1.525   2.921 -4.1631 -2.8945  0.6789
  462MOL0     H62354  10.875   1.969   3.076 -1.2894 -0.3947 -0.8862
  462MOL0     H62355  11.051   2.006   3.247 -0.5323  1.1417 -1.3848
  462MOL0     H62356  10.544   3.274   2.902 -2.6911  0.2084  0.0913
  462MOL0     H62357  10.473   3.312   2.672  0.3843 -0.7323 -2.8851
  462MOL0     H62358  10.460   3.346   2.332 -2.2408  0.7012  0.4896
  462MOL0     H62359  10.482   3.451   2.121 -0.5466  0.5012  5.4069
  462MOL0     H62360  10.388   3.512   1.919  2.3200  1.5399  2.8022
  462MOL0     H62361  10.563   3.502   1.893 -0.6407  2.9739  0.1714
  462MOL0     H62362  10.535   3.451   1.656  0.3571 -0.6121  1.3116
  462MOL0     H62363  10.503   3.611   1.713  2.5725  0.0633  0.2563
  462MOL0     H62364  10.326   3.387   1.634 -2.0394 -0.5384  2.4727
  462MOL0     H62365  10.331   3.546   1.544 -2.1705 -3.4875 -1.0560
  462MOL0     H62366  10.197   3.496   1.811 -0.1496 -0.5641 -0.5907
  462MOL0     H62367  10.135   3.556   1.651  0.5588 -0.6665 -0.8033
  462MOL0     H62368  10.252   3.913   1.777 -2.3163  0.8485 -1.6401
  462MOL0     H62369  10.436   3.065   1.921  2.6169 -0.9489 -0.3496
  462MOL0     H62370  10.403   2.961   2.142  3.4971 -1.5178  2.2203
  463MOL0     O62371  10.731   7.203   2.176 -0.3189 -0.2117 -0.2154
  463MOL0     C62372  10.738   7.319   2.211  0.1670 -0.2038 -0.4597
  463MOL0     O62373  10.644   7.419   2.173 -0.0947  0.6949  0.2985
  463MOL0     C62374  10.518   7.399   2.114  0.0864 -1.3227  0.2261
  463MOL0     C62375  10.452   7.521   2.077 -0.9034  0.1233 -0.3985
  463MOL0     C62376  10.323   7.521   2.026 -0.3725 -0.9805  0.2029
  463MOL0     C62377  10.258   7.401   2.016 -0.1452 -0.4357  0.1121
  463MOL0     O62378  10.135   7.390   1.955 -0.6114  0.3991 -0.3169
  463MOL0     C62379  10.073   7.498   1.880  0.5944  0.9356 -1.1406
  463MOL0     C62380   9.935   7.444   1.822  0.6939 -0.4200  0.3465
  463MOL0     C62381   9.849   7.565   1.788  0.4391 -0.3930 -0.5000
  463MOL0     C62382   9.756   7.522   1.678 -0.0344  0.2739  0.3733
  463MOL0     C62383   9.674   7.645   1.647  0.2318  0.0259 -0.8100
  463MOL0     C62384   9.581   7.640   1.521 -0.1388  0.6780  0.4064
  463MOL0     C62385   9.506   7.774   1.500  0.1750  0.2072  0.2107
  463MOL0     C62386   9.410   7.784   1.378  0.0953  0.7744  1.2987
  463MOL0     N62387   9.348   7.912   1.331  0.1004  0.2684 -0.7416
  463MOL0     C62388   9.273   7.993   1.419 -1.1379 -0.1509 -0.5019
  463MOL0     C62389   9.247   8.097   1.339  0.5721 -0.2444 -0.8372
  463MOL0     C62390   9.154   8.211   1.368 -1.0844  0.4413 -0.9653
  463MOL0     C62391   9.219   8.337   1.435 -0.6378 -0.8816  0.4142
  463MOL0     C62392   9.123   8.398   1.551  0.5013  0.0739  0.0377
  463MOL0     C62393   9.143   8.334   1.687  0.5440  0.1241  0.0356
  463MOL0     O62394   9.014   8.346   1.742  0.2267  0.2361 -0.2322
  463MOL0     C62395   8.982   8.471   1.801  0.2309  0.2711  0.2793
  463MOL0     C62396   8.847   8.509   1.812 -0.0856 -0.4218  0.1662
  463MOL0     C62397   8.805   8.626   1.874  0.2628 -0.1876 -0.2637
  463MOL0     C62398   8.653   8.641   1.894 -0.5202  0.4503  0.9803
  463MOL0     C62399   8.901   8.709   1.938  0.6037  0.2653 -0.1182
  463MOL0     C62400   8.873   8.833   2.013  0.7756  0.4847 -0.2093
  463MOL0     O62401   8.943   8.852   2.130 -0.5853 -0.0116  0.0237
  463MOL0     C62402   8.899   8.960   2.200 -0.4665  0.5661  0.7457
  463MOL0     C62403   8.768   8.950   2.272 -1.3612 -0.7197 -0.8243
  463MOL0     C62404   8.722   9.064   2.344 -0.3431 -0.2450 -0.3534
  463MOL0     C62405   8.807   9.179   2.359 -0.3839  0.3858 -0.8323
  463MOL0     O62406   8.759   9.280   2.431 -1.3581 -0.0820 -0.1813
  463MOL0     C62407   8.856   9.367   2.491  0.6986 -0.3943 -0.9420
  463MOL0     C62408   8.809   9.399   2.635  0.3479 -0.7024 -0.4397
  463MOL0     C62409   8.877   9.313   2.749 -0.6004 -0.0025  0.2391
  463MOL0     C62410   8.819   9.343   2.889 -0.8441 -0.0322  0.4566
  463MOL0     C62411   8.870   9.240   2.993 -0.0213  0.3451  0.2329
  463MOL0     C62412   9.013   9.258   3.021 -0.9125  0.5297 -0.7602
  463MOL0     C62413   9.060   9.181   3.150 -0.6340  0.2448 -0.5404
  463MOL0     C62414   9.206   9.184   3.173  0.0234 -0.0531  0.7034
  463MOL0    Cl62415   9.268   9.094   3.316  0.2319 -0.3214  0.6026
  463MOL0     C62416   8.929   9.180   2.292 -0.6395  0.5374  0.0323
  463MOL0     C62417   8.978   9.076   2.213 -0.3424  1.4877  0.6963
  463MOL0     O62418   8.784   8.907   1.965 -0.1788  0.1193  0.0178
  463MOL0     C62419   9.037   8.681   1.910  0.5545  0.0923  0.3482
  463MOL0     C62420   9.078   8.563   1.850 -0.3888  0.1161 -0.1981
  463MOL0     N62421   9.312   8.080   1.222  0.9000  0.9887 -0.1926
  463MOL0     N62422   9.382   7.973   1.221  0.0823 -0.0723 -0.2283
  463MOL0     C62423  10.322   7.283   2.046 -0.7916  0.5833  0.4924
  463MOL0     C62424  10.454   7.279   2.095  0.4030 -1.0080 -0.5279
  463MOL0     C62425  10.846   7.363   2.300  0.1908  0.4666 -0.6010
  463MOL0     C62426  10.843   7.491   2.364  0.2140  0.7836  0.6395
  463MOL0     C62427  10.939   7.535   2.449 -0.0111 -0.3414  0.0842
  463MOL0     C62428  11.057   7.453   2.465 -1.5753 -0.9941  0.4121
  463MOL0     O62429  11.167   7.486   2.544 -0.1430 -0.1611  0.0795
  463MOL0     C62430  11.198   7.621   2.572  0.1702 -0.0020  0.1994
  463MOL0     C62431  11.339   7.647   2.524  0.0595  0.1498  0.1047
  463MOL0     C62432  11.448   7.563   2.602 -0.6136  0.6960  0.2405
  463MOL0     C62433  11.585   7.613   2.550  0.1240 -0.1708 -0.2947
  463MOL0     C62434  11.681   7.549   2.641 -0.0987  0.1089  0.2150
  463MOL0     C62435  11.772   7.512   2.712 -0.6781 -0.0159 -0.8112
  463MOL0     C62436  11.054   7.325   2.408  0.3415  0.1933  0.6192
  463MOL0     C62437  10.953   7.275   2.329 -0.2484  0.4970  0.3575
  463MOL0     H62438  10.514   7.610   2.080 -0.7938  0.0579 -0.7039
  463MOL0     H62439  10.291   7.619   1.993  3.2288  0.1949 -0.2964
  463MOL0     H62440  10.044   7.578   1.950  1.2908  3.1351 -3.2367
  463MOL0     H62441  10.137   7.521   1.795  1.6180  0.6647 -0.4522
  463MOL0     H62442   9.956   7.381   1.735  2.3377  1.2920 -0.5747
  463MOL0     H62443   9.876   7.383   1.892 -1.7573  1.7100  0.2626
  463MOL0     H62444   9.797   7.579   1.883  1.8460 -1.2445  0.4472
  463MOL0     H62445   9.906   7.654   1.760 -0.5063 -0.3115 -2.3326
  463MOL0     H62446   9.800   7.488   1.584 -0.2813 -3.4263  1.4554
  463MOL0     H62447   9.691   7.438   1.703  2.9512 -0.9766  5.3219
  463MOL0     H62448   9.606   7.664   1.730 -1.7793  0.0449 -2.3896
  463MOL0     H62449   9.740   7.730   1.666 -0.7455 -0.2250  6.5296
  463MOL0     H62450   9.636   7.607   1.432  3.7874  0.1597  2.7969
  463MOL0     H62451   9.503   7.562   1.528 -1.5858  1.3000 -4.4687
  463MOL0     H62452   9.468   7.818   1.592  0.4117 -0.8905  0.8471
  463MOL0     H62453   9.582   7.846   1.468  2.6400 -0.5423  3.8563
  463MOL0     H62454   9.341   7.700   1.387  1.6374 -0.9791 -1.6900
  463MOL0     H62455   9.471   7.757   1.291 -2.9552  2.1064 -1.4848
  463MOL0     H62456   9.239   7.961   1.517  1.8332 -0.5237  0.5087
  463MOL0     H62457   9.107   8.246   1.276 -0.1405  2.0416 -0.8804
  463MOL0     H62458   9.072   8.179   1.434  0.0987 -0.1845  0.2587
  463MOL0     H62459   9.234   8.411   1.356 -2.3019  1.0427  1.7907
  463MOL0     H62460   9.313   8.309   1.484 -0.7160  0.7671  1.5973
  463MOL0     H62461   9.017   8.390   1.527  0.6332 -1.0691 -0.2603
  463MOL0     H62462   9.137   8.504   1.574 -1.9312  0.2353  1.0589
  463MOL0     H62463   9.222   8.369   1.754 -0.0500 -0.4876  1.0755
  463MOL0     H62464   9.157   8.227   1.672  0.0023 -0.1585  1.3889
  463MOL0     H62465   8.779   8.435   1.772 -1.2506  0.7349 -0.0490
  463MOL0     H62466   8.631   8.709   1.811  1.6227  1.0834  0.8531
  463MOL0     H62467   8.594   8.549   1.895 -2.0559  1.1156 -3.5739
  463MOL0     H62468   8.630   8.704   1.980  1.1380  1.7388  0.5349
  463MOL0     H62469   8.718   8.854   2.265 -0.8293 -1.1785  1.2057
  463MOL0     H62470   8.626   9.053   2.392 -0.3048 -1.1861 -0.4647
  463MOL0     H62471   8.957   9.323   2.495  0.2541 -1.4032  1.6328
  463MOL0     H62472   8.865   9.459   2.433  1.3437 -1.5545 -2.7697
  463MOL0     H62473   8.828   9.503   2.663 -1.0510 -1.3084  3.3775
  463MOL0     H62474   8.701   9.383   2.646  0.5142 -1.0557  0.9375
  463MOL0     H62475   8.985   9.329   2.750 -0.9116  2.3553 -0.0394
  463MOL0     H62476   8.854   9.208   2.728 -2.6012  0.6596 -1.2284
  463MOL0     H62477   8.850   9.442   2.923 -1.0586 -0.4827  2.0510
  463MOL0     H62478   8.710   9.340   2.885 -0.9075 -1.2890  2.2558
  463MOL0     H62479   8.833   9.139   2.970 -2.9701  1.0536  1.3359
  463MOL0     H62480   8.825   9.260   3.091 -1.5697  0.2470 -0.4228
  463MOL0     H62481   9.071   9.236   2.931 -2.4889 -0.8546 -1.4969
  463MOL0     H62482   9.031   9.363   3.046  0.1119 -0.0828  1.2946
  463MOL0     H62483   9.032   9.075   3.139 -1.1641  0.2424  0.6933
  463MOL0     H62484   9.019   9.215   3.245  0.8084 -0.3433  0.3292
  463MOL0     H62485   9.245   9.286   3.187  0.5505  0.2858 -2.5108
  463MOL0     H62486   9.247   9.150   3.078  3.3623  1.2330  1.5191
  463MOL0     H62487   8.996   9.265   2.295  0.7959 -0.5673  0.2032
  463MOL0     H62488   9.070   9.086   2.157  0.4396  1.5739  1.9683
  463MOL0     H62489   9.118   8.753   1.921 -0.3219  1.6254 -2.1433
  463MOL0     H62490   9.184   8.550   1.832 -0.3831  0.3244 -0.3275
  463MOL0     H62491  10.263   7.192   2.039 -0.0708  0.1183  0.2808
  463MOL0     H62492  10.501   7.185   2.123 -0.4551 -1.2550  0.1145
  463MOL0     H62493  10.776   7.574   2.342  0.7448  1.0791  0.1030
  463MOL0     H62494  10.922   7.632   2.495 -3.9149 -1.0235  0.3383
  463MOL0     H62495  11.130   7.691   2.522 -0.3977 -0.7398 -0.0899
  463MOL0     H62496  11.203   7.656   2.675 -0.0717 -1.6615  0.8172
  463MOL0     H62497  11.350   7.755   2.539 -3.6647  0.4658  1.5809
  463MOL0     H62498  11.342   7.624   2.417 -0.1981 -1.6015  0.4521
  463MOL0     H62499  11.429   7.457   2.581 -1.8001  1.3516 -2.4379
  463MOL0     H62500  11.445   7.581   2.710  3.5594  0.9564  0.4806
  463MOL0     H62501  11.587   7.722   2.562 -0.7117 -0.1106 -0.6434
  463MOL0     H62502  11.589   7.585   2.445 -0.3615  1.6531 -0.8255
  463MOL0     H62503  11.854   7.501   2.780  0.3196  1.4281 -1.7163
  463MOL0     H62504  11.147   7.273   2.429 -0.2227 -2.8362 -3.1279
  463MOL0     H62505  10.969   7.172   2.299  1.8278  0.9084 -0.0911
  464MOL0     O62506  10.768   8.467   7.747  0.7676  0.4227 -0.6238
  464MOL0     C62507  10.770   8.454   7.629  0.2244  0.6330  0.1352
  464MOL0     O62508  10.725   8.338   7.563  0.1570 -1.5510  0.1272
  464MOL0     C62509  10.685   8.216   7.624 -1.3080 -0.9367  0.8613
  464MOL0     C62510  10.596   8.227   7.726 -0.2440 -0.1306 -0.7577
  464MOL0     C62511  10.530   8.115   7.783  0.1132 -0.0395 -0.8410
  464MOL0     C62512  10.555   7.986   7.734 -0.6369  0.8421 -0.7819
  464MOL0     O62513  10.489   7.870   7.770 -0.2037  0.1857  0.0400
  464MOL0     C62514  10.438   7.789   7.667  0.8574  0.6783  0.4846
  464MOL0     C62515  10.293   7.736   7.704 -1.0008 -0.8209  0.0890
  464MOL0     C62516  10.176   7.833   7.678  0.1450  0.0699  0.0792
  464MOL0     C62517  10.107   7.889   7.804  0.6838 -1.0644 -0.0357
  464MOL0     C62518  10.215   7.976   7.873  0.4788 -0.0852 -0.8476
  464MOL0     C62519  10.152   8.046   7.992 -1.2907 -0.7592 -0.2311
  464MOL0     C62520  10.068   7.949   8.085  0.0485  1.1506 -0.9671
  464MOL0     C62521   9.995   8.027   8.183  0.0185 -0.1873  0.2288
  464MOL0     N62522   9.902   7.948   8.273  0.5775 -0.2466  0.6516
  464MOL0     C62523   9.938   7.901   8.397 -0.6795  0.3000  0.2019
  464MOL0     C62524   9.837   7.820   8.429 -0.4943 -1.0349  0.4274
  464MOL0     C62525   9.820   7.733   8.552  0.8290 -0.3870  0.6160
  464MOL0     C62526   9.912   7.629   8.576 -0.2116  0.5244  0.5046
  464MOL0     C62527   9.937   7.523   8.460  0.1322 -1.3008  0.1507
  464MOL0     C62528   9.802   7.464   8.403 -0.4015  1.2955  0.6321
  464MOL0     O62529   9.858   7.364   8.317  0.4494 -0.9478 -0.4761
  464MOL0     C62530   9.780   7.288   8.235  0.5221  0.2799  0.3148
  464MOL0     C62531   9.637   7.308   8.226  0.4044 -0.1327 -0.5260
  464MOL0     C62532   9.559   7.231   8.129 -0.2116 -0.7145  1.1313
  464MOL0     C62533   9.415   7.278   8.122  0.0549 -0.2251 -0.9616
  464MOL0     C62534   9.621   7.131   8.052  0.2713 -0.0302  0.3781
  464MOL0     C62535   9.561   7.048   7.943  0.2446  0.0155 -0.5435
  464MOL0     O62536   9.419   7.044   7.940  0.3799  0.0426  0.2237
  464MOL0     C62537   9.339   6.971   7.857 -0.0016  0.0949  0.1041
  464MOL0     C62538   9.217   7.028   7.808  0.8293 -0.3435 -0.0627
  464MOL0     C62539   9.128   6.971   7.719 -0.0550 -0.4110 -0.1124
  464MOL0     C62540   9.160   6.854   7.662 -0.2681  0.9203  1.0524
  464MOL0     O62541   9.088   6.813   7.556 -0.3247  0.7052  0.3621
  464MOL0     C62542   9.005   6.701   7.551  0.7914  0.3303 -0.3451
  464MOL0     C62543   8.998   6.630   7.411 -1.5040 -0.2830 -0.6378
  464MOL0     C62544   8.936   6.722   7.309 -0.6688  0.0376  0.0465
  464MOL0     C62545   8.928   6.647   7.176  0.1023  0.2946 -0.7329
  464MOL0     C62546   8.921   6.741   7.047  0.4550 -1.0181 -1.0680
  464MOL0     C62547   8.927   6.666   6.913 -1.0787  0.1238  0.1898
  464MOL0     C62548   8.834   6.552   6.891 -0.8960 -0.3642 -0.1708
  464MOL0     C62549   8.691   6.574   6.931 -0.2850 -0.2787 -1.1286
  464MOL0    Cl62550   8.621   6.705   6.842 -0.3465 -0.4665  0.2915
  464MOL0     C62551   9.284   6.778   7.699 -0.1835  0.3845  0.2941
  464MOL0     C62552   9.368   6.839   7.795 -0.3192 -0.3604  0.0467
  464MOL0     O62553   9.635   7.009   7.860  0.2664 -0.7243 -0.3270
  464MOL0     C62554   9.761   7.116   8.071  0.3892  0.3328  0.3421
  464MOL0     C62555   9.836   7.183   8.163 -1.3789 -0.2979 -0.4487
  464MOL0     N62556   9.752   7.812   8.324 -1.1458 -1.0389 -0.9284
  464MOL0     N62557   9.793   7.876   8.226 -0.2720 -0.5896  0.2157
  464MOL0     C62558  10.662   7.978   7.639  0.2235  0.1613  0.4861
  464MOL0     C62559  10.713   8.092   7.568 -0.4711  0.3817  0.2786
  464MOL0     C62560  10.809   8.572   7.553 -0.0730  0.3970  0.3361
  464MOL0     C62561  10.837   8.693   7.615 -1.0902 -0.3335  0.0545
  464MOL0     C62562  10.865   8.809   7.537  0.4579  0.2747  0.2167
  464MOL0     C62563  10.854   8.808   7.399  0.7099  0.4117  0.5474
  464MOL0     O62564  10.872   8.928   7.330 -0.1230 -0.0791  0.3122
  464MOL0     C62565  10.850   8.939   7.188 -0.1751  0.1913  0.1255
  464MOL0     C62566  10.852   9.088   7.157 -0.2499  0.8311  0.5142
  464MOL0     C62567  10.825   9.105   7.008 -0.1744 -0.0469 -0.3039
  464MOL0     C62568  10.915   9.025   6.892  0.4258 -0.3198  0.9579
  464MOL0     C62569  11.050   9.069   6.902 -0.6770 -0.3245 -0.7475
  464MOL0     C62570  11.161   9.115   6.906 -0.0483 -0.3680 -0.6459
  464MOL0     C62571  10.801   8.695   7.340 -0.3311  0.4348  0.8202
  464MOL0     C62572  10.789   8.577   7.414  0.6900 -0.7546 -0.8681
  464MOL0     H62573  10.567   8.315   7.784 -0.3637 -1.6067  1.5672
  464MOL0     H62574  10.456   8.128   7.861  1.2732  0.1098  0.2647
  464MOL0     H62575  10.437   7.846   7.573 -2.9708  0.4709  0.2255
  464MOL0     H62576  10.500   7.701   7.650  0.9053  0.0689  3.3063
  464MOL0     H62577  10.278   7.649   7.640  0.4231 -1.0294  0.0209
  464MOL0     H62578  10.307   7.713   7.810  0.6007  1.2526  0.4027
  464MOL0     H62579  10.209   7.919   7.619  2.7521 -1.0494 -0.2295
  464MOL0     H62580  10.097   7.791   7.615 -0.1809  0.4320  0.2375
  464MOL0     H62581  10.015   7.944   7.781  0.7203 -1.0452 -0.1384
  464MOL0     H62582  10.076   7.800   7.859  1.6744 -0.9543  0.7257
  464MOL0     H62583  10.286   7.906   7.919  1.4020  0.8918 -0.7570
  464MOL0     H62584  10.265   8.052   7.813 -0.4226  0.0376 -1.4564
  464MOL0     H62585  10.240   8.090   8.040  0.2595 -1.6813 -2.0689
  464MOL0     H62586  10.088   8.126   7.953 -0.6379  0.4474  1.1049
  464MOL0     H62587   9.991   7.898   8.026  1.2571 -0.8393 -0.9139
  464MOL0     H62588  10.132   7.872   8.129  2.2051  2.6967 -1.2014
  464MOL0     H62589   9.939   8.112   8.141  0.2029 -0.3344 -0.3288
  464MOL0     H62590  10.055   8.067   8.265  0.0066 -1.9283  1.1267
  464MOL0     H62591  10.027   7.932   8.450  0.3863 -0.4084 -1.1004
  464MOL0     H62592   9.822   7.797   8.641  1.0313  1.8681 -0.9428
  464MOL0     H62593   9.725   7.679   8.544  1.8603 -2.0473 -1.0983
  464MOL0     H62594   9.883   7.558   8.655 -1.7394  0.2923 -0.2403
  464MOL0     H62595  10.005   7.673   8.612 -1.1983  3.1021  0.0752
  464MOL0     H62596  10.004   7.444   8.492  1.4440 -0.0101  0.7103
  464MOL0     H62597   9.984   7.579   8.379  0.2310  1.9487  2.2666
  464MOL0     H62598   9.726   7.528   8.359 -0.0973  0.1124 -1.7669
  464MOL0     H62599   9.753   7.404   8.481  5.0076 -0.1092  3.4955
  464MOL0     H62600   9.584   7.394   8.268 -0.7380  0.6077 -3.2735
  464MOL0     H62601   9.345   7.206   8.164  1.3952 -0.3139  1.2678
  464MOL0     H62602   9.406   7.379   8.165  0.0475  0.1681 -1.8684
  464MOL0     H62603   9.387   7.312   8.022  3.3233 -1.1285 -2.2980
  464MOL0     H62604   9.216   7.126   7.855  1.6164 -1.0266  1.4458
  464MOL0     H62605   9.035   7.019   7.692 -1.6261 -0.7089  3.9483
  464MOL0     H62606   9.046   6.623   7.616  0.1249  0.5265  0.3186
  464MOL0     H62607   8.903   6.729   7.577  0.4117 -1.8672  0.7433
  464MOL0     H62608   9.101   6.601   7.389 -1.2987  0.2944 -0.4464
  464MOL0     H62609   8.939   6.539   7.426  0.9124 -2.5494 -3.5500
  464MOL0     H62610   8.985   6.819   7.293 -2.0983  1.1098  1.7831
  464MOL0     H62611   8.840   6.759   7.347  0.5831  1.4585  2.0763
  464MOL0     H62612   9.015   6.583   7.163 -0.9701 -1.9164  1.9321
  464MOL0     H62613   8.841   6.582   7.179 -0.2091  0.6275 -1.8017
  464MOL0     H62614   9.005   6.810   7.055 -0.6243  0.2483 -0.3404
  464MOL0     H62615   8.826   6.796   7.053  0.8516 -0.2607  5.6018
  464MOL0     H62616   8.898   6.739   6.837 -2.5207  0.6902  1.2491
  464MOL0     H62617   9.027   6.630   6.885  0.4960  3.4480  0.9351
  464MOL0     H62618   8.865   6.461   6.943  0.3010 -0.2283 -0.6191
  464MOL0     H62619   8.850   6.535   6.784  2.9436 -0.6519  0.2993
  464MOL0     H62620   8.679   6.585   7.040 -1.5792 -7.3465 -0.0615
  464MOL0     H62621   8.630   6.484   6.920 -0.5279 -0.2995  0.1470
  464MOL0     H62622   9.318   6.685   7.655  0.5602 -0.4443  2.5141
  464MOL0     H62623   9.467   6.802   7.820 -1.2493 -0.6102  4.1561
  464MOL0     H62624   9.818   7.039   8.020 -0.5018  0.7449 -1.3140
  464MOL0     H62625   9.941   7.159   8.176 -1.3548  0.1913  0.3194
  464MOL0     H62626  10.687   7.881   7.599  1.9046  1.0709 -0.8088
  464MOL0     H62627  10.788   8.071   7.492  1.4974  3.4761  1.1699
  464MOL0     H62628  10.838   8.702   7.723  3.8965 -2.9819  0.4924
  464MOL0     H62629  10.884   8.903   7.589 -1.6477  0.7058  0.2944
  464MOL0     H62630  10.931   8.889   7.133 -1.6988 -2.0878 -0.1972
  464MOL0     H62631  10.759   8.891   7.150 -0.3517 -0.0776  0.8811
  464MOL0     H62632  10.950   9.130   7.180  0.9537 -0.2186 -2.2848
  464MOL0     H62633  10.770   9.138   7.210 -1.2489  1.5864 -1.6133
  464MOL0     H62634  10.827   9.210   6.978  2.9972 -0.6624 -2.7872
  464MOL0     H62635  10.721   9.080   6.988  0.5264 -3.6906 -0.0056
  464MOL0     H62636  10.884   9.055   6.792  2.8905  0.9148  0.4825
  464MOL0     H62637  10.925   8.916   6.900  2.2806 -0.1226  2.0467
  464MOL0     H62638  11.259   9.156   6.925 -0.1598 -1.2264  2.1755
  464MOL0     H62639  10.763   8.692   7.239  1.7594  1.3693 -0.0476
  464MOL0     H62640  10.757   8.489   7.360 -2.1871  0.1380 -0.8022
  465MOL0     O62641   4.637   2.708   3.214  0.2443  0.4738  0.1360
  465MOL0     C62642   4.602   2.825   3.225 -0.1816 -0.4822 -0.1304
  465MOL0     O62643   4.464   2.870   3.235 -0.8073  0.1613 -0.7031
  465MOL0     C62644   4.362   2.780   3.251 -0.7467 -1.2568 -0.3133
  465MOL0     C62645   4.249   2.824   3.193  0.2945 -0.6005  0.0235
  465MOL0     C62646   4.122   2.749   3.186 -0.5108  0.3209  0.0253
  465MOL0     C62647   4.124   2.622   3.251  0.7802 -0.3754 -0.0710
  465MOL0     O62648   4.004   2.553   3.269  0.5630  0.6726 -0.5399
  465MOL0     C62649   3.917   2.531   3.156 -0.1636  0.1241  0.1903
  465MOL0     C62650   3.824   2.412   3.162 -0.7166 -0.0485  0.1415
  465MOL0     C62651   3.703   2.427   3.261 -1.0285 -0.2957  0.5794
  465MOL0     C62652   3.574   2.334   3.236 -0.3283 -0.5207  0.0470
  465MOL0     C62653   3.504   2.299   3.374  0.2969  0.2112 -0.2664
  465MOL0     C62654   3.435   2.409   3.447 -0.0493  0.1515 -0.4343
  465MOL0     C62655   3.381   2.384   3.580  0.6354 -1.1520 -0.4003
  465MOL0     C62656   3.488   2.352   3.691  0.3714 -0.4800 -0.2161
  465MOL0     N62657   3.589   2.456   3.690 -0.0742 -0.0380  0.3817
  465MOL0     C62658   3.716   2.448   3.638 -0.0762  0.1707  0.4748
  465MOL0     C62659   3.775   2.563   3.681 -0.0313  0.1811 -0.3357
  465MOL0     C62660   3.918   2.602   3.670  0.1107  0.0820  0.4712
  465MOL0     C62661   3.932   2.754   3.664  0.2948 -0.2966 -0.6571
  465MOL0     C62662   4.056   2.789   3.585  0.1648 -0.5391  1.4359
  465MOL0     C62663   4.193   2.758   3.651 -0.6315 -0.1531  0.6212
  465MOL0     O62664   4.231   2.840   3.764  0.1042  0.6020 -0.4175
  465MOL0     C62665   4.337   2.922   3.754  0.3434  0.4789 -0.6946
  465MOL0     C62666   4.430   2.951   3.657 -0.2501  0.6717 -0.4870
  465MOL0     C62667   4.536   3.038   3.668 -0.4611  0.7594  0.3025
  465MOL0     C62668   4.628   3.041   3.544  0.0576 -0.2934 -0.4396
  465MOL0     C62669   4.557   3.102   3.794  0.2821  1.0107  0.5066
  465MOL0     C62670   4.674   3.189   3.813  0.5024 -0.3492  0.8915
  465MOL0     O62671   4.796   3.133   3.811  0.1229  0.3181 -0.3329
  465MOL0     C62672   4.907   3.212   3.798 -0.2881 -0.8283  0.4651
  465MOL0     C62673   4.974   3.185   3.678  0.5424  0.4857 -0.6178
  465MOL0     C62674   5.080   3.271   3.639  0.3443  0.0509  0.0190
  465MOL0     C62675   5.140   3.362   3.732  0.7854  0.4195 -0.7229
  465MOL0     O62676   5.253   3.434   3.692  1.3811 -0.3461 -0.0415
  465MOL0     C62677   5.357   3.361   3.634 -0.5355 -0.0422 -0.5361
  465MOL0     C62678   5.481   3.340   3.725 -0.2854  0.0098  0.5680
  465MOL0     C62679   5.549   3.463   3.772  0.3637 -0.1593  0.3166
  465MOL0     C62680   5.671   3.417   3.855  0.7586 -0.5581 -0.9472
  465MOL0     C62681   5.712   3.526   3.946 -1.2020 -0.0245  0.0863
  465MOL0     C62682   5.758   3.654   3.870  0.5137  0.2042  0.0675
  465MOL0     C62683   5.795   3.770   3.961 -0.0487 -0.9822 -0.0068
  465MOL0     C62684   5.843   3.888   3.882  0.8217  0.1563  0.8212
  465MOL0    Cl62685   5.700   3.974   3.819 -0.2753 -0.4534  0.1869
  465MOL0     C62686   5.075   3.393   3.853  0.6395 -0.7665 -0.0353
  465MOL0     C62687   4.952   3.312   3.886  0.0603  0.7092  0.0908
  465MOL0     O62688   4.650   3.306   3.822  0.3619  0.7676 -0.0661
  465MOL0     C62689   4.465   3.071   3.891 -0.3373 -0.4672  1.0533
  465MOL0     C62690   4.364   2.978   3.879 -0.0336 -1.4014 -0.2783
  465MOL0     N62691   3.684   2.629   3.756  0.0646 -0.0041  0.0044
  465MOL0     N62692   3.572   2.564   3.767 -0.8355 -1.0110  0.7717
  465MOL0     C62693   4.237   2.574   3.314 -1.4324 -0.3418  0.5255
  465MOL0     C62694   4.355   2.654   3.314 -0.4560 -0.3678  0.6222
  465MOL0     C62695   4.715   2.921   3.208  0.4476 -0.0338  0.3097
  465MOL0     C62696   4.850   2.885   3.218 -0.6203  0.7670  0.3777
  465MOL0     C62697   4.950   2.975   3.182  0.4548  0.4506 -0.9409
  465MOL0     C62698   4.924   3.120   3.155 -0.7491 -0.3837  0.7831
  465MOL0     O62699   5.024   3.206   3.105 -0.2509  1.1770 -0.6165
  465MOL0     C62700   5.130   3.239   3.201  0.0030  1.0099  0.8043
  465MOL0     C62701   5.204   3.361   3.140 -0.3059  0.3269 -0.3043
  465MOL0     C62702   5.287   3.430   3.249  0.7664  0.3455 -0.2642
  465MOL0     C62703   5.387   3.529   3.202  0.3452  0.5606 -0.2193
  465MOL0     C62704   5.474   3.581   3.310  0.2299 -0.6194  0.2689
  465MOL0     C62705   5.547   3.638   3.389  0.4722  0.2033 -0.3068
  465MOL0     C62706   4.786   3.154   3.153 -0.8922  0.2424 -0.7466
  465MOL0     C62707   4.687   3.055   3.179  0.0193  1.1640 -0.4729
  465MOL0     H62708   4.234   2.917   3.139 -1.0814 -1.3620 -0.9691
  465MOL0     H62709   4.039   2.782   3.124  0.8662  0.5134 -1.8130
  465MOL0     H62710   3.857   2.621   3.139  2.1020  2.3554  3.0822
  465MOL0     H62711   3.978   2.513   3.067 -0.6707 -0.1046 -0.1142
  465MOL0     H62712   3.785   2.379   3.065  0.0931 -1.8875  0.3898
  465MOL0     H62713   3.865   2.319   3.202  0.3270  0.4266  0.1967
  465MOL0     H62714   3.743   2.423   3.362  1.8522 -0.8451 -0.4868
  465MOL0     H62715   3.657   2.526   3.252  0.6779  0.4245 -0.6813
  465MOL0     H62716   3.508   2.394   3.173 -0.4781 -0.9735 -0.2314
  465MOL0     H62717   3.598   2.242   3.182  2.1582 -1.0938  1.9521
  465MOL0     H62718   3.425   2.226   3.354  0.8605 -0.5122  0.0889
  465MOL0     H62719   3.570   2.246   3.444  1.0893  0.6664 -0.6539
  465MOL0     H62720   3.504   2.494   3.445  0.6537 -0.1893  2.8403
  465MOL0     H62721   3.348   2.440   3.390 -0.1541 -4.6665 -3.4010
  465MOL0     H62722   3.334   2.480   3.604 -1.7603 -2.3106 -0.1650
  465MOL0     H62723   3.307   2.304   3.584  0.6142 -1.0849  0.7921
  465MOL0     H62724   3.530   2.251   3.679  4.0367  0.6079  1.9746
  465MOL0     H62725   3.440   2.356   3.789 -1.1325  4.4350 -0.9144
  465MOL0     H62726   3.768   2.371   3.583 -1.6794 -0.2606 -0.5254
  465MOL0     H62727   3.979   2.563   3.752  1.5498  0.2947 -0.4639
  465MOL0     H62728   3.959   2.569   3.574  0.9433 -0.7156  1.0885
  465MOL0     H62729   3.948   2.788   3.767  0.0255 -1.0486 -0.3640
  465MOL0     H62730   3.850   2.816   3.628  0.9245 -0.7935 -3.1109
  465MOL0     H62731   4.052   2.898   3.574  0.3303 -0.7032 -0.5072
  465MOL0     H62732   4.047   2.747   3.485 -3.5778 -2.4658  2.3905
  465MOL0     H62733   4.270   2.759   3.573 -0.7664 -1.3660  0.4443
  465MOL0     H62734   4.193   2.652   3.679 -1.6106 -0.5004 -0.5973
  465MOL0     H62735   4.401   2.905   3.563  1.0706 -3.3840  0.8752
  465MOL0     H62736   4.698   2.958   3.561 -1.1505 -1.8145 -2.4568
  465MOL0     H62737   4.563   3.027   3.458 -2.4611  2.5470  0.7997
  465MOL0     H62738   4.678   3.138   3.541  2.6033 -1.5484 -1.2380
  465MOL0     H62739   4.933   3.116   3.605 -1.7137 -0.9593  1.8242
  465MOL0     H62740   5.126   3.265   3.540 -0.1259  0.7506 -0.2556
  465MOL0     H62741   5.325   3.267   3.588 -1.3194 -0.9836  1.8144
  465MOL0     H62742   5.392   3.426   3.553  4.0121 -0.8318  0.4990
  465MOL0     H62743   5.449   3.284   3.814 -1.5706 -0.2543 -0.0354
  465MOL0     H62744   5.549   3.282   3.662 -1.7851 -0.2192 -0.9070
  465MOL0     H62745   5.471   3.507   3.834  1.5049  0.3072  1.4811
  465MOL0     H62746   5.568   3.527   3.686  2.0885 -0.0105  0.7598
  465MOL0     H62747   5.634   3.331   3.911  0.5297  0.1303  0.0027
  465MOL0     H62748   5.763   3.391   3.803  3.1514 -0.1634  2.6825
  465MOL0     H62749   5.787   3.485   4.014 -1.3559  1.7654  1.4309
  465MOL0     H62750   5.631   3.560   4.011 -0.8099 -0.5891  0.8884
  465MOL0     H62751   5.840   3.633   3.801  2.1969  2.0594  1.3850
  465MOL0     H62752   5.675   3.692   3.810 -0.2533 -0.0395  0.9357
  465MOL0     H62753   5.861   3.745   4.044 -1.4163 -0.7158  1.2115
  465MOL0     H62754   5.708   3.807   4.016  0.6383 -1.4668  1.4266
  465MOL0     H62755   5.884   3.841   3.792  1.6934 -1.7113  2.1205
  465MOL0     H62756   5.920   3.949   3.929  1.4452  2.5366 -2.8707
  465MOL0     H62757   5.111   3.464   3.926  0.8597 -0.8700 -0.0422
  465MOL0     H62758   4.902   3.326   3.981  0.1399  0.9467  0.0965
  465MOL0     H62759   4.473   3.123   3.986  2.0267 -0.1075  0.7000
  465MOL0     H62760   4.309   2.950   3.968  0.0987  2.2118  1.1100
  465MOL0     H62761   4.244   2.477   3.361 -2.2351 -1.3942 -1.4017
  465MOL0     H62762   4.442   2.624   3.371  2.1314  1.8085 -1.8667
  465MOL0     H62763   4.881   2.783   3.239  2.1201  1.8979  2.3630
  465MOL0     H62764   5.048   2.928   3.191 -0.1477 -0.4311  2.2828
  465MOL0     H62765   5.088   3.261   3.299  1.7730  1.9298  1.3978
  465MOL0     H62766   5.207   3.163   3.206  0.3410  1.1539 -1.1528
  465MOL0     H62767   5.146   3.435   3.085 -2.4112 -0.6082  0.5464
  465MOL0     H62768   5.273   3.321   3.065 -0.4374  0.4821 -0.5081
  465MOL0     H62769   5.344   3.353   3.303 -3.3411 -1.3669  2.0600
  465MOL0     H62770   5.216   3.477   3.318  2.2611  2.5384 -0.0970
  465MOL0     H62771   5.352   3.607   3.133  1.5419 -0.7236 -2.3912
  465MOL0     H62772   5.461   3.483   3.136  2.4304  1.9901  0.9940
  465MOL0     H62773   5.608   3.664   3.474  1.3297 -0.7996 -0.5920
  465MOL0     H62774   4.754   3.255   3.132 -2.3795 -0.2995 -1.2316
  465MOL0     H62775   4.584   3.089   3.192  0.1766  1.2875  0.5355
  466MOL0     O62776   3.762   4.181   3.927  0.4272 -0.6238 -0.5340
  466MOL0     C62777   3.721   4.243   4.019  0.0734 -0.1465 -0.6796
  466MOL0     O62778   3.620   4.333   4.023  1.0278  0.2573  1.0473
  466MOL0     C62779   3.534   4.356   3.915  0.1781 -0.6829 -0.0882
  466MOL0     C62780   3.433   4.452   3.939 -0.2967  0.6815 -0.4623
  466MOL0     C62781   3.326   4.473   3.849 -0.2710  0.0187  0.2955
  466MOL0     C62782   3.323   4.397   3.730 -0.1089 -0.7465  0.9332
  466MOL0     O62783   3.209   4.421   3.650  1.0210 -0.0254  0.4186
  466MOL0     C62784   3.203   4.357   3.520  0.8220 -0.3782 -0.1842
  466MOL0     C62785   3.069   4.396   3.436 -0.3027  0.4402  0.0605
  466MOL0     C62786   3.045   4.553   3.423  0.0558 -0.2465 -0.1633
  466MOL0     C62787   2.935   4.597   3.327 -0.3021 -0.2489  0.4582
  466MOL0     C62788   2.884   4.737   3.356  0.5902  0.8212 -0.6192
  466MOL0     C62789   2.774   4.781   3.261  1.4304  0.1267  0.0441
  466MOL0     C62790   2.744   4.936   3.244 -0.8104  0.3059  0.0517
  466MOL0     C62791   2.847   5.009   3.147  0.1600  0.3308  0.8246
  466MOL0     N62792   2.839   5.156   3.175 -0.4902 -0.1527 -0.0451
  466MOL0     C62793   2.720   5.226   3.198 -0.4596  0.2993 -0.2587
  466MOL0     C62794   2.760   5.347   3.223  0.7716 -0.6682  0.3321
  466MOL0     C62795   2.678   5.470   3.244  0.6023  0.1494 -0.7935
  466MOL0     C62796   2.528   5.434   3.249 -0.2072 -0.0074  0.4770
  466MOL0     C62797   2.451   5.562   3.281 -1.0732  0.1843 -0.7041
  466MOL0     C62798   2.310   5.526   3.338 -0.0968 -0.0787  0.1488
  466MOL0     O62799   2.205   5.616   3.291  0.5562  0.5441 -0.1302
  466MOL0     C62800   2.168   5.604   3.162 -0.8089 -0.3093  0.0001
  466MOL0     C62801   2.187   5.487   3.082  0.5807  0.3226  0.6642
  466MOL0     C62802   2.165   5.497   2.938  0.2194  0.0154  0.8109
  466MOL0     C62803   2.180   5.361   2.871 -0.2018 -0.2890  1.2128
  466MOL0     C62804   2.110   5.615   2.887  0.2346  0.2217 -0.0132
  466MOL0     C62805   2.087   5.637   2.742 -0.5068 -0.0954 -0.5134
  466MOL0     O62806   1.982   5.706   2.709 -0.6134  0.6388  0.0862
  466MOL0     C62807   1.968   5.743   2.577  0.0256 -0.6428  0.0861
  466MOL0     C62808   1.851   5.691   2.510  0.1954  0.4765  0.1603
  466MOL0     C62809   1.829   5.742   2.382  0.1276  0.7776 -0.4328
  466MOL0     C62810   1.911   5.823   2.311 -0.3847 -0.5598  0.1640
  466MOL0     O62811   1.879   5.852   2.185 -0.5733 -0.4214  0.2495
  466MOL0     C62812   1.926   5.980   2.144  0.3596  0.5111  0.6821
  466MOL0     C62813   1.849   6.010   2.017 -1.3670  1.3614 -0.0292
  466MOL0     C62814   1.707   6.014   2.032 -0.3602  0.6903  0.0684
  466MOL0     C62815   1.662   6.155   2.061 -0.2004 -0.1506  0.5395
  466MOL0     C62816   1.513   6.159   2.102  0.0746  0.2632 -0.0236
  466MOL0     C62817   1.411   6.103   1.999 -0.6208 -0.1550  0.6344
  466MOL0     C62818   1.252   6.120   2.024  0.6724 -0.1445  0.5238
  466MOL0     C62819   1.171   6.047   1.907 -0.4044 -0.3214 -0.5830
  466MOL0    Cl62820   1.002   6.061   1.935  0.0839  0.6445  0.1077
  466MOL0     C62821   2.030   5.875   2.384  0.7701 -0.0902 -0.1508
  466MOL0     C62822   2.053   5.841   2.516  0.2041  1.2983  0.0592
  466MOL0     O62823   2.173   5.591   2.667  0.4033 -0.0695  0.1254
  466MOL0     C62824   2.089   5.718   2.971 -0.0398  0.7510  0.6210
  466MOL0     C62825   2.118   5.721   3.102 -0.6467 -0.2964  0.0954
  466MOL0     N62826   2.897   5.350   3.231 -0.2715  0.0166  0.3424
  466MOL0     N62827   2.948   5.243   3.190 -0.1355 -0.3264 -0.4795
  466MOL0     C62828   3.430   4.314   3.695  0.0500  0.6091  0.1823
  466MOL0     C62829   3.528   4.289   3.789 -0.4159  0.0111  0.1607
  466MOL0     C62830   3.804   4.227   4.139 -1.7315 -0.6672 -0.9177
  466MOL0     C62831   3.758   4.304   4.259 -0.1849  0.9137 -0.2540
  466MOL0     C62832   3.841   4.310   4.374  0.3641 -0.0897 -0.2261
  466MOL0     C62833   3.968   4.248   4.373 -0.3171  0.2257  0.6766
  466MOL0     O62834   4.063   4.263   4.472 -0.6332  0.0940 -0.2719
  466MOL0     C62835   4.020   4.330   4.588 -1.2481  0.3109 -0.7682
  466MOL0     C62836   4.126   4.299   4.698  0.0929 -0.7685  0.9634
  466MOL0     C62837   4.134   4.149   4.734  0.9682  0.1731  0.2859
  466MOL0     C62838   4.259   4.116   4.822  0.2021  0.6368  0.1624
  466MOL0     C62839   4.267   4.199   4.939 -0.0015  1.2232 -0.4809
  466MOL0     C62840   4.278   4.264   5.037 -0.6624  0.2195  0.6730
  466MOL0     C62841   4.007   4.182   4.249 -1.6994 -0.0132 -0.3146
  466MOL0     C62842   3.928   4.170   4.133 -0.6652  0.4137 -0.1041
  466MOL0     H62843   3.438   4.493   4.040  3.1299  0.1844 -0.3261
  466MOL0     H62844   3.240   4.538   3.862 -0.5668  0.4743 -2.9510
  466MOL0     H62845   3.302   4.375   3.477  1.7720 -2.0717  1.1483
  466MOL0     H62846   3.196   4.248   3.532  2.0746 -0.4811 -0.2269
  466MOL0     H62847   3.089   4.361   3.334 -4.9143  2.0474 -1.6982
  466MOL0     H62848   2.983   4.348   3.485  1.4920 -2.0730  0.9589
  466MOL0     H62849   3.031   4.594   3.523  0.9841 -0.5488  0.0998
  466MOL0     H62850   3.135   4.606   3.389 -0.6863  3.0712  2.5091
  466MOL0     H62851   2.975   4.594   3.225 -0.8947  0.8072  0.1780
  466MOL0     H62852   2.857   4.520   3.331 -0.5622 -0.2975 -2.7770
  466MOL0     H62853   2.841   4.741   3.457 -2.9925 -1.0997 -1.9242
  466MOL0     H62854   2.976   4.795   3.343  1.5285  0.2504  2.6098
  466MOL0     H62855   2.788   4.734   3.163  3.3034  2.2290 -0.7802
  466MOL0     H62856   2.677   4.737   3.285  0.7614 -0.2710 -2.9724
  466MOL0     H62857   2.640   4.941   3.209 -1.5936 -2.7530  1.6053
  466MOL0     H62858   2.745   4.989   3.339 -3.2731  0.4988  0.0456
  466MOL0     H62859   2.823   4.982   3.044 -0.7468  1.6018  0.6813
  466MOL0     H62860   2.951   4.984   3.171  0.5275 -0.5781 -1.4412
  466MOL0     H62861   2.625   5.175   3.187 -0.2805 -0.2996  0.8273
  466MOL0     H62862   2.719   5.517   3.333 -2.1004 -1.4502  1.4551
  466MOL0     H62863   2.695   5.543   3.164 -1.7582  1.5183 -0.1631
  466MOL0     H62864   2.518   5.362   3.330  2.2631 -2.2290 -1.0151
  466MOL0     H62865   2.489   5.395   3.154  1.9897 -0.9251 -0.1090
  466MOL0     H62866   2.441   5.596   3.177  0.3855  2.2159 -0.2494
  466MOL0     H62867   2.505   5.639   3.337  1.1995 -1.7179 -0.1698
  466MOL0     H62868   2.312   5.545   3.446 -2.4175 -0.1841  0.2548
  466MOL0     H62869   2.279   5.422   3.327 -1.7737  0.5496 -1.8791
  466MOL0     H62870   2.234   5.400   3.127 -1.3889  0.4549  3.2535
  466MOL0     H62871   2.270   5.309   2.906 -0.5962 -2.5681 -0.8699
  466MOL0     H62872   2.090   5.304   2.896 -1.7254  2.2193  1.7908
  466MOL0     H62873   2.190   5.370   2.762  1.4217  1.4287  1.4519
  466MOL0     H62874   1.784   5.615   2.550  1.2489 -1.5923 -1.7531
  466MOL0     H62875   1.740   5.717   2.325 -0.3833  1.9973 -0.1877
  466MOL0     H62876   1.892   6.057   2.214 -3.7885 -0.8520  0.4551
  466MOL0     H62877   2.033   5.988   2.124  0.8701  1.0469  3.2869
  466MOL0     H62878   1.880   6.113   1.995  1.0503  1.0628  1.6072
  466MOL0     H62879   1.888   5.942   1.942 -1.9964  0.9860 -0.0239
  466MOL0     H62880   1.662   5.953   2.111 -1.6393  2.7446  1.0146
  466MOL0     H62881   1.675   5.989   1.930  0.5849 -0.2834 -0.0021
  466MOL0     H62882   1.721   6.207   2.138 -5.2883 -0.6608  5.4916
  466MOL0     H62883   1.666   6.212   1.968 -3.7366 -2.2927 -1.1021
  466MOL0     H62884   1.471   6.259   2.118  1.7657  1.0688 -0.3488
  466MOL0     H62885   1.499   6.107   2.197 -0.9984 -0.7449 -0.7058
  466MOL0     H62886   1.423   6.138   1.896 -1.7084  1.2739  0.9593
  466MOL0     H62887   1.431   5.995   2.001  0.1440 -0.0313  2.6689
  466MOL0     H62888   1.226   6.225   2.013  2.7042  0.4741  1.0975
  466MOL0     H62889   1.222   6.080   2.121  1.2560 -0.7786  0.4556
  466MOL0     H62890   1.207   5.943   1.907  0.8347  0.0852 -1.2236
  466MOL0     H62891   1.207   6.088   1.812 -0.3094 -3.4103 -2.0064
  466MOL0     H62892   2.100   5.950   2.349  0.1752  2.5256  3.6258
  466MOL0     H62893   2.146   5.874   2.562  2.2419  3.0142 -4.6994
  466MOL0     H62894   2.054   5.808   2.921  0.7543 -0.2901 -1.9906
  466MOL0     H62895   2.126   5.818   3.151 -0.8134 -1.0115  1.5746
  466MOL0     H62896   3.438   4.255   3.604  3.1716 -0.7795  1.2040
  466MOL0     H62897   3.609   4.219   3.771 -2.0671 -2.3237  1.3547
  466MOL0     H62898   3.655   4.336   4.248 -1.1836 -1.9332 -0.0872
  466MOL0     H62899   3.812   4.367   4.461  1.6140 -1.9322  1.4900
  466MOL0     H62900   4.015   4.439   4.588 -0.1569  0.4777  2.5582
  466MOL0     H62901   3.927   4.283   4.620 -2.9623  2.7186 -1.8930
  466MOL0     H62902   4.102   4.354   4.790 -3.8105 -3.2346  1.6407
  466MOL0     H62903   4.223   4.326   4.656  0.1601 -0.6239  1.2117
  466MOL0     H62904   4.132   4.081   4.648 -2.4285  2.1677 -1.4185
  466MOL0     H62905   4.038   4.119   4.777  1.2432  0.9006  1.4609
  466MOL0     H62906   4.346   4.124   4.757 -1.1475 -0.7078 -1.9535
  466MOL0     H62907   4.231   4.013   4.846 -1.0207  0.4942 -1.6672
  466MOL0     H62908   4.285   4.310   5.133 -2.5699 -0.4851  1.1934
  466MOL0     H62909   4.112   4.156   4.247 -1.1673  1.8664  0.6990
  466MOL0     H62910   3.966   4.122   4.043 -1.6388 -0.1464 -0.2283
  467MOL0     O62911   5.266   0.048   4.035  0.4480  1.5441  0.1986
  467MOL0     C62912   5.357   0.049   4.113 -0.4033 -0.9474  0.4143
  467MOL0     O62913   5.487   0.046   4.074 -0.1204 -0.1512  0.3627
  467MOL0     C62914   5.538  -0.031   3.967  0.2567 -1.0025 -0.3998
  467MOL0     C62915   5.497  -0.164   3.938  1.1426  0.4470  0.1484
  467MOL0     C62916   5.558  -0.232   3.834  0.2121 -0.2982 -0.7352
  467MOL0     C62917   5.672  -0.189   3.768  0.3781 -0.3244 -0.1715
  467MOL0     O62918   5.743  -0.277   3.686 -0.1477 -0.0260  0.2337
  467MOL0     C62919   5.872  -0.227   3.642 -0.4654  0.9965  0.3649
  467MOL0     C62920   5.928  -0.358   3.588  0.6378 -0.7976 -0.1402
  467MOL0     C62921   5.880  -0.386   3.448 -0.3582 -0.1390 -0.7442
  467MOL0     C62922   5.928  -0.527   3.409 -0.2749  0.9920  0.1488
  467MOL0     C62923   5.888  -0.552   3.264  0.5961  0.2472  0.5875
  467MOL0     C62924   5.949  -0.679   3.214  0.0658 -0.3935 -0.5591
  467MOL0     C62925   5.883  -0.729   3.089  0.2481 -0.0889 -0.2266
  467MOL0     C62926   5.922  -0.877   3.068  0.4257 -0.6585  0.1318
  467MOL0     N62927   6.056  -0.888   3.024 -0.3438  0.3372  0.0681
  467MOL0     C62928   6.104  -0.887   2.892 -0.5088 -0.1492 -0.1971
  467MOL0     C62929   6.233  -0.931   2.899 -0.1627  0.1428  1.5053
  467MOL0     C62930   6.328  -0.961   2.785 -0.3031 -0.1271 -0.6009
  467MOL0     C62931   6.408  -0.832   2.742 -0.2485  0.2367 -0.6075
  467MOL0     C62932   6.344  -0.760   2.615  0.1719  0.1289  0.3598
  467MOL0     C62933   6.195  -0.771   2.587  0.5216 -0.5951  0.1199
  467MOL0     O62934   6.169  -0.900   2.527  0.4054  0.9180  0.2324
  467MOL0     C62935   6.064  -0.949   2.463  0.0305 -0.5394  0.4065
  467MOL0     C62936   6.073  -0.961   2.322  0.3270 -0.6087 -0.2675
  467MOL0     C62937   5.967  -1.024   2.254  1.1012 -0.8759  0.4284
  467MOL0     C62938   6.003  -1.052   2.109  0.1039  0.0566  0.5063
  467MOL0     C62939   5.849  -1.059   2.320 -1.2872 -0.0340  0.6555
  467MOL0     C62940   5.732  -1.094   2.241  0.0588  0.2189 -0.0773
  467MOL0     O62941   5.708  -1.006   2.133 -0.4282  0.7649  0.3867
  467MOL0     C62942   5.640  -1.048   2.021 -0.2335 -0.0404  0.2849
  467MOL0     C62943   5.599  -1.175   1.984  1.2426  0.7806 -0.0873
  467MOL0     C62944   5.530  -1.210   1.874  0.3252  1.0841  0.6354
  467MOL0     C62945   5.487  -1.111   1.791 -0.0001 -0.0229 -1.1181
  467MOL0     O62946   5.417  -1.125   1.680 -0.8220  0.0503 -0.2086
  467MOL0     C62947   5.377  -1.251   1.621  0.1190 -0.0462 -0.6063
  467MOL0     C62948   5.482  -1.286   1.499  0.0428  0.0225  0.0381
  467MOL0     C62949   5.627  -1.335   1.531  0.4384  0.2032 -0.8994
  467MOL0     C62950   5.711  -1.377   1.409 -1.3450 -0.1867 -1.1710
  467MOL0     C62951   5.856  -1.425   1.444 -0.1293  0.7244  0.1549
  467MOL0     C62952   5.859  -1.578   1.491  0.0644 -0.2418  0.6583
  467MOL0     C62953   6.003  -1.630   1.492  0.2767  0.2864  0.6425
  467MOL0     C62954   6.020  -1.781   1.508 -0.7533 -0.2493 -0.4285
  467MOL0    Cl62955   5.988  -1.860   1.354  0.5936  0.0856 -0.0088
  467MOL0     C62956   5.531  -0.976   1.810 -0.3395 -0.4002 -0.2469
  467MOL0     C62957   5.601  -0.944   1.927 -0.4991 -0.0292  0.8616
  467MOL0     O62958   5.677  -1.203   2.264 -0.2095 -0.3970 -0.7603
  467MOL0     C62959   5.842  -1.042   2.451 -0.5878 -0.3258 -0.4187
  467MOL0     C62960   5.948  -0.986   2.524 -0.4900  0.2597  0.5232
  467MOL0     N62961   6.268  -0.932   3.023  0.2255 -0.3343 -1.1499
  467MOL0     N62962   6.164  -0.882   3.094  0.4780  0.3869 -0.4249
  467MOL0     C62963   5.700  -0.053   3.789 -0.3324  0.2235 -0.6364
  467MOL0     C62964   5.637   0.028   3.889 -0.9407  0.5241  0.9516
  467MOL0     C62965   5.324   0.079   4.251  0.1145  0.1561 -0.3209
  467MOL0     C62966   5.417   0.144   4.341 -0.2562  0.4006 -0.7201
  467MOL0     C62967   5.382   0.164   4.476 -0.6413 -0.7630 -1.0430
  467MOL0     C62968   5.256   0.128   4.526 -0.4345 -0.0038 -0.9239
  467MOL0     O62969   5.201   0.148   4.658  0.0284 -0.3188  0.8114
  467MOL0     C62970   5.280   0.212   4.754 -1.0857 -0.5623  0.6232
  467MOL0     C62971   5.187   0.294   4.835  0.8655 -0.1899 -0.2419
  467MOL0     C62972   5.267   0.371   4.937 -0.4309  0.0460 -0.6161
  467MOL0     C62973   5.183   0.421   5.056  0.0586 -0.6717 -1.2047
  467MOL0     C62974   5.048   0.448   5.018 -0.1072  0.2836  0.1929
  467MOL0     C62975   4.934   0.468   4.969 -0.4245 -0.8387 -0.5325
  467MOL0     C62976   5.169   0.041   4.447 -0.2777  0.3299 -0.4599
  467MOL0     C62977   5.213   0.027   4.313 -0.1319  0.5776 -0.1406
  467MOL0     H62978   5.405  -0.192   3.988 -0.2526  2.9159 -0.8628
  467MOL0     H62979   5.516  -0.323   3.795 -0.1259 -0.9979  1.1608
  467MOL0     H62980   5.870  -0.151   3.563  1.0839 -0.4180 -1.1196
  467MOL0     H62981   5.939  -0.192   3.721  2.4065 -0.5108 -1.2263
  467MOL0     H62982   6.037  -0.351   3.587  0.7470 -1.6219  1.8694
  467MOL0     H62983   5.908  -0.434   3.664  0.1750 -0.8088 -0.2704
  467MOL0     H62984   5.770  -0.389   3.449 -0.4871  2.2953  0.1697
  467MOL0     H62985   5.913  -0.307   3.381 -1.5245  1.0306  0.0125
  467MOL0     H62986   6.036  -0.519   3.425 -0.5972  1.7286  2.3495
  467MOL0     H62987   5.890  -0.604   3.478 -0.1000  1.8326  1.2104
  467MOL0     H62988   5.781  -0.549   3.241  1.1997  1.6439 -2.6510
  467MOL0     H62989   5.931  -0.475   3.200 -1.0107  1.7698  1.2640
  467MOL0     H62990   6.057  -0.664   3.202 -0.4522  4.0217 -1.6410
  467MOL0     H62991   5.935  -0.754   3.292  3.3164 -0.8537 -0.2899
  467MOL0     H62992   5.776  -0.731   3.115  0.3850  0.9990  0.4980
  467MOL0     H62993   5.902  -0.660   3.006  1.4837 -0.4135 -0.2289
  467MOL0     H62994   5.853  -0.904   2.987  0.3596  4.8789 -2.1255
  467MOL0     H62995   5.911  -0.947   3.151  1.7007  0.5698  1.3798
  467MOL0     H62996   6.047  -0.859   2.804  2.7814 -0.1666 -2.5237
  467MOL0     H62997   6.402  -1.022   2.839 -0.0345 -0.4772 -1.3547
  467MOL0     H62998   6.281  -1.030   2.714 -0.6219 -1.4987  0.8712
  467MOL0     H62999   6.510  -0.864   2.720  0.4533 -0.6358  3.2707
  467MOL0     H63000   6.413  -0.767   2.830  1.6474 -0.9681  0.2392
  467MOL0     H63001   6.397  -0.790   2.524 -2.3326  0.6987 -1.3719
  467MOL0     H63002   6.371  -0.656   2.637  0.1751  0.8517 -2.6685
  467MOL0     H63003   6.176  -0.691   2.515  1.4134 -1.1591 -0.7665
  467MOL0     H63004   6.135  -0.749   2.676  1.3973 -0.7715  0.7624
  467MOL0     H63005   6.165  -0.932   2.272  0.7880  1.7148  1.7394
  467MOL0     H63006   6.007  -0.961   2.048  1.7326  0.2705  0.9064
  467MOL0     H63007   6.102  -1.096   2.102  0.4470  1.0702 -1.6468
  467MOL0     H63008   5.928  -1.120   2.067 -0.5575  0.8745  0.3353
  467MOL0     H63009   5.600  -1.261   2.051  0.8969 -0.1412 -1.2186
  467MOL0     H63010   5.496  -1.313   1.865  0.5369  1.2061 -4.5221
  467MOL0     H63011   5.374  -1.325   1.701  1.4104  1.6107  1.0513
  467MOL0     H63012   5.279  -1.249   1.572 -0.5137 -2.0378  0.4496
  467MOL0     H63013   5.437  -1.366   1.438  1.7996 -1.0797  0.1391
  467MOL0     H63014   5.487  -1.196   1.436 -1.8456  0.7308  0.8403
  467MOL0     H63015   5.617  -1.419   1.601 -1.7045 -1.5497 -3.1448
  467MOL0     H63016   5.680  -1.254   1.582  0.8480 -0.1435 -0.7648
  467MOL0     H63017   5.655  -1.455   1.356 -1.0646 -0.3657 -1.1995
  467MOL0     H63018   5.714  -1.305   1.326 -2.3257 -0.2557 -1.2828
  467MOL0     H63019   5.899  -1.364   1.523 -1.0914  1.4468  0.1324
  467MOL0     H63020   5.914  -1.420   1.351 -0.5996 -3.2256 -0.5668
  467MOL0     H63021   5.807  -1.608   1.583 -0.0396  0.5553  0.8606
  467MOL0     H63022   5.805  -1.645   1.422  0.1386 -1.9564  2.1930
  467MOL0     H63023   6.043  -1.592   1.587  1.0425 -2.6848  1.6098
  467MOL0     H63024   6.051  -1.584   1.405  0.2596  3.4682  2.1413
  467MOL0     H63025   5.966  -1.815   1.597  3.3151 -1.9394  1.6394
  467MOL0     H63026   6.122  -1.812   1.533 -1.0680 -1.1674 -0.2429
  467MOL0     H63027   5.495  -0.893   1.750 -2.3381 -0.3235  0.9719
  467MOL0     H63028   5.620  -0.844   1.964 -2.6754  0.8582 -0.1792
  467MOL0     H63029   5.753  -1.077   2.503 -0.3498  0.9293  0.8921
  467MOL0     H63030   5.940  -0.996   2.632 -1.5875  1.2977  0.5635
  467MOL0     H63031   5.787  -0.005   3.746  0.9220 -1.9589 -0.6899
  467MOL0     H63032   5.682   0.125   3.907 -1.3542  1.2543 -1.6403
  467MOL0     H63033   5.514   0.179   4.306  1.5380 -2.9712  0.4057
  467MOL0     H63034   5.456   0.220   4.532 -1.7540 -1.3304  1.0840
  467MOL0     H63035   5.328   0.136   4.817 -0.0414 -0.8175 -0.4508
  467MOL0     H63036   5.352   0.284   4.715  1.0247 -3.3881 -1.1415
  467MOL0     H63037   5.115   0.232   4.889 -2.5581  3.3135 -0.3682
  467MOL0     H63038   5.129   0.353   4.763  2.8765  0.6368 -1.2913
  467MOL0     H63039   5.302   0.454   4.875  1.2061 -0.3194 -0.2315
  467MOL0     H63040   5.358   0.321   4.970 -1.0043 -0.7684 -0.2360
  467MOL0     H63041   5.236   0.510   5.092 -0.4183 -1.1709  0.8413
  467MOL0     H63042   5.196   0.353   5.141  1.4842 -0.0616 -0.8908
  467MOL0     H63043   4.833   0.483   4.938 -0.1735  0.7312 -0.6861
  467MOL0     H63044   5.080  -0.002   4.491  0.3630  1.8848  2.6276
  467MOL0     H63045   5.139  -0.037   4.266  1.4112  0.4507 -2.5712
  468MOL0     O63046  10.352  10.419   0.013 -0.9228  0.3811 -0.3176
  468MOL0     C63047  10.290  10.525  -0.004 -0.2275  1.0957 -0.5438
  468MOL0     O63048  10.157  10.523  -0.022 -0.5840 -0.5376  0.4503
  468MOL0     C63049  10.099  10.403  -0.001  0.1522  0.5458 -0.5570
  468MOL0     C63050  10.013  10.395   0.104  0.6483  0.3537  0.3396
  468MOL0     C63051   9.939  10.274   0.114 -0.1590  0.3899 -0.8253
  468MOL0     C63052   9.948  10.161   0.021 -0.6704  0.1702  0.4915
  468MOL0     O63053   9.882  10.044   0.050 -0.4038  0.2906 -0.9470
  468MOL0     C63054   9.954   9.918   0.048  0.0829  0.0567 -0.4645
  468MOL0     C63055  10.035   9.892   0.179 -0.2890  0.1171  0.4596
  468MOL0     C63056   9.948   9.882   0.303  1.0514  0.2656 -0.1040
  468MOL0     C63057  10.023   9.862   0.442 -0.6615 -0.7700  1.3026
  468MOL0     C63058   9.923   9.869   0.565  0.2105 -0.4819 -1.2023
  468MOL0     C63059   9.900  10.014   0.607  0.2822 -0.1537 -0.4834
  468MOL0     C63060   9.824  10.039   0.737 -0.5650  1.0626  0.3102
  468MOL0     C63061   9.670  10.006   0.711  0.2610 -0.5102  0.0016
  468MOL0     N63062   9.624   9.873   0.680 -0.6868  0.8861  0.2667
  468MOL0     C63063   9.641   9.764   0.763  0.0391 -0.1380 -0.0508
  468MOL0     C63064   9.614   9.656   0.685 -0.7442  0.4172 -0.0670
  468MOL0     C63065   9.647   9.515   0.707  0.1276 -0.1391  0.0565
  468MOL0     C63066   9.803   9.503   0.723  0.7043 -1.0866  0.3355
  468MOL0     C63067   9.845   9.369   0.767  0.6070 -0.3079  0.6898
  468MOL0     C63068   9.973   9.366   0.851  0.1816  0.3501 -1.3048
  468MOL0     O63069  10.074   9.454   0.794  0.3403  0.3106  0.2128
  468MOL0     C63070  10.189   9.465   0.862 -0.2629 -0.9826  0.7599
  468MOL0     C63071  10.200   9.552   0.974  0.0149 -0.5310 -0.8234
  468MOL0     C63072  10.311   9.563   1.056  0.3173  0.0162 -0.7516
  468MOL0     C63073  10.312   9.647   1.175 -0.1835  0.6758 -0.1821
  468MOL0     C63074  10.435   9.493   1.011  0.1275  0.0290 -0.5724
  468MOL0     C63075  10.561   9.482   1.094 -0.1918 -0.3514 -0.7242
  468MOL0     O63076  10.563   9.505   1.225  0.4552  0.4135 -0.5996
  468MOL0     C63077  10.665   9.465   1.311 -0.2162 -0.7190  0.3946
  468MOL0     C63078  10.651   9.496   1.448  0.9817 -0.3151 -0.8188
  468MOL0     C63079  10.749   9.465   1.550  0.8247  0.8183  0.9168
  468MOL0     C63080  10.847   9.374   1.510 -1.0623 -1.2483 -0.0012
  468MOL0     O63081  10.937   9.343   1.617 -0.7642  0.3931  0.0526
  468MOL0     C63082  11.053   9.266   1.573 -0.9860  0.6132  0.4167
  468MOL0     C63083  11.160   9.280   1.677 -0.0144 -1.1309 -0.6213
  468MOL0     C63084  11.296   9.229   1.628 -1.0208  0.5908 -0.6731
  468MOL0     C63085  11.410   9.231   1.734 -0.6466  0.5836  0.0593
  468MOL0     C63086  11.550   9.244   1.658 -0.6381  0.4892 -0.8345
  468MOL0     C63087  11.603   9.117   1.585  0.2666 -0.8988 -0.0704
  468MOL0     C63088  11.657   9.146   1.450  0.0603 -0.4408 -1.2280
  468MOL0     C63089  11.709   9.037   1.367  0.2648  0.5891  1.0596
  468MOL0    Cl63090  11.728   9.070   1.191  0.0843 -0.4006  0.0010
  468MOL0     C63091  10.855   9.323   1.385 -0.1105 -0.7405 -0.3969
  468MOL0     C63092  10.764   9.372   1.289  0.1207  0.0298 -0.1379
  468MOL0     O63093  10.653   9.457   1.023 -0.6258  0.1990 -0.0209
  468MOL0     C63094  10.417   9.413   0.892 -0.8592  0.2052  1.2174
  468MOL0     C63095  10.300   9.397   0.818 -0.5088 -0.7708 -1.0636
  468MOL0     N63096   9.554   9.702   0.574  0.3595  0.0186 -0.9500
  468MOL0     N63097   9.562   9.836   0.567 -0.0990  0.2234 -0.7991
  468MOL0     C63098  10.037  10.181  -0.085 -0.0299 -0.8258  1.4491
  468MOL0     C63099  10.111  10.298  -0.093 -0.4115  0.0223 -0.1800
  468MOL0     C63100  10.367  10.646  -0.023 -0.5546 -0.8941 -0.0944
  468MOL0     C63101  10.492  10.664   0.043  0.2911 -0.4148 -0.7509
  468MOL0     C63102  10.552  10.791   0.038 -0.0171 -0.2429 -0.3080
  468MOL0     C63103  10.477  10.897  -0.028 -0.7561 -0.9178  0.4904
  468MOL0     O63104  10.521  11.025  -0.053 -0.2796 -0.4740 -0.7066
  468MOL0     C63105  10.656  11.058   0.005  0.6648  0.0548 -0.1851
  468MOL0     C63106  10.688  11.206  -0.028  0.8774 -0.7347 -0.3400
  468MOL0     C63107  10.832  11.239  -0.018 -0.1259 -0.4249 -0.4601
  468MOL0     C63108  10.869  11.383  -0.050  0.1770  0.1176 -0.2949
  468MOL0     C63109  11.014  11.384  -0.058  1.0707 -0.7773  0.4894
  468MOL0     C63110  11.134  11.374  -0.076 -0.4424 -0.9776  0.2264
  468MOL0     C63111  10.369  10.875  -0.106 -0.1414  0.3229  0.2866
  468MOL0     C63112  10.316  10.747  -0.098  0.9271  0.3523  1.1063
  468MOL0     H63113  10.004  10.464   0.187 -0.0169 -0.9420  1.3787
  468MOL0     H63114   9.878  10.277   0.204 -0.6411  4.1568 -1.1108
  468MOL0     H63115   9.884   9.835   0.036  0.0440  0.1764 -1.1134
  468MOL0     H63116  10.015   9.912  -0.043  1.2505 -0.7066  0.3480
  468MOL0     H63117  10.092   9.800   0.165 -0.2040  0.2200  0.1190
  468MOL0     H63118  10.114   9.966   0.193 -0.8948  2.4625 -5.5097
  468MOL0     H63119   9.891   9.975   0.313  1.4719  0.4503  0.6874
  468MOL0     H63120   9.871   9.805   0.292 -2.4615  3.3896  0.4577
  468MOL0     H63121  10.075   9.766   0.441 -1.0395 -1.0206  2.9331
  468MOL0     H63122  10.104   9.936   0.445  0.9851 -2.4699  0.5507
  468MOL0     H63123   9.832   9.816   0.535  0.4402 -0.1483 -2.5555
  468MOL0     H63124   9.975   9.810   0.642  3.5641  0.2082 -2.7882
  468MOL0     H63125  10.003  10.048   0.624 -0.0243 -0.3871  2.2291
  468MOL0     H63126   9.847  10.060   0.523 -0.1010 -0.8071 -0.6000
  468MOL0     H63127   9.855   9.980   0.824  1.4324  0.3491 -0.8345
  468MOL0     H63128   9.840  10.146   0.749  1.7584  0.6406  1.4838
  468MOL0     H63129   9.641  10.068   0.626  0.8128 -2.0329 -1.3578
  468MOL0     H63130   9.617  10.047   0.798  0.1752  0.9015 -0.6999
  468MOL0     H63131   9.687   9.752   0.860  0.4624  3.8491  0.4004
  468MOL0     H63132   9.598   9.491   0.802  0.2174  0.4935  0.2621
  468MOL0     H63133   9.612   9.442   0.633  3.9561 -3.6590  1.3849
  468MOL0     H63134   9.824   9.562   0.813  1.1196 -2.1766  0.9687
  468MOL0     H63135   9.843   9.545   0.630 -1.2362 -1.7811 -0.8847
  468MOL0     H63136   9.856   9.312   0.674  3.8025  3.0324 -1.2741
  468MOL0     H63137   9.761   9.318   0.815 -1.2065  3.0097  1.3227
  468MOL0     H63138  10.014   9.265   0.843  0.5128  0.2799  0.8097
  468MOL0     H63139   9.959   9.387   0.957  3.2582 -2.0159 -0.2760
  468MOL0     H63140  10.106   9.602   0.998  0.8485 -0.0274  1.6749
  468MOL0     H63141  10.217   9.695   1.201  0.1832  0.8175  0.9639
  468MOL0     H63142  10.337   9.573   1.251  2.3263  0.8486 -0.7709
  468MOL0     H63143  10.383   9.729   1.186  1.1696 -0.4581 -0.1698
  468MOL0     H63144  10.574   9.566   1.480  1.0014 -0.4812 -0.4095
  468MOL0     H63145  10.743   9.499   1.653  0.9461  0.5196  1.0243
  468MOL0     H63146  11.019   9.165   1.548  0.5212  0.8119 -3.0146
  468MOL0     H63147  11.099   9.298   1.479 -2.3410 -0.7027 -0.7424
  468MOL0     H63148  11.158   9.386   1.706  1.1510 -1.0769 -0.6618
  468MOL0     H63149  11.123   9.213   1.754 -1.8857 -1.4562 -1.7425
  468MOL0     H63150  11.332   9.283   1.540 -0.0240 -1.0751 -1.3541
  468MOL0     H63151  11.281   9.127   1.591  1.3645 -0.3037  0.5947
  468MOL0     H63152  11.404   9.313   1.806  0.3931 -0.7393  1.7258
  468MOL0     H63153  11.394   9.145   1.800 -1.9781  0.9978  0.3021
  468MOL0     H63154  11.618   9.260   1.742 -2.4597  0.9188  0.6185
  468MOL0     H63155  11.551   9.335   1.597 -0.8164  1.5813  0.7181
  468MOL0     H63156  11.687   9.075   1.640  0.5180 -0.6439 -0.2576
  468MOL0     H63157  11.521   9.048   1.566  0.6698 -1.8305  1.4473
  468MOL0     H63158  11.737   9.221   1.461 -0.5088 -0.1743  4.3582
  468MOL0     H63159  11.573   9.190   1.396 -1.2241 -2.0959 -0.6754
  468MOL0     H63160  11.647   8.947   1.369  0.1455  0.6325 -0.1118
  468MOL0     H63161  11.807   9.021   1.413  1.4834  2.4034 -0.7316
  468MOL0     H63162  10.925   9.248   1.351  1.2765  0.6191 -0.6590
  468MOL0     H63163  10.774   9.323   1.192 -4.5874 -1.8414  0.0307
  468MOL0     H63164  10.496   9.345   0.859 -2.3179 -1.0665  0.2230
  468MOL0     H63165  10.301   9.331   0.731 -0.9841  1.0654 -2.5200
  468MOL0     H63166  10.064  10.116  -0.167 -4.4956  0.4865 -1.3983
  468MOL0     H63167  10.188  10.317  -0.167 -1.5069 -2.9179 -2.2547
  468MOL0     H63168  10.536  10.578   0.092 -0.8101  0.6139  2.2627
  468MOL0     H63169  10.644  10.803   0.094 -1.0119 -4.8708  2.9325
  468MOL0     H63170  10.643  11.042   0.112 -1.6991  3.5306  0.2006
  468MOL0     H63171  10.724  10.985  -0.041  0.9068  0.0124  0.2338
  468MOL0     H63172  10.633  11.263   0.048 -1.4118 -0.8109 -1.8386
  468MOL0     H63173  10.646  11.238  -0.123  3.3434  0.5201 -1.0819
  468MOL0     H63174  10.902  11.172  -0.070  0.5541 -1.1404  1.2760
  468MOL0     H63175  10.855  11.226   0.088 -0.2854  3.3299  0.1657
  468MOL0     H63176  10.826  11.448   0.027 -1.3388 -0.5272 -0.5584
  468MOL0     H63177  10.817  11.421  -0.139 -2.9653 -0.1654  1.2979
  468MOL0     H63178  11.238  11.378  -0.101 -0.5821 -2.5745 -0.7410
  468MOL0     H63179  10.329  10.956  -0.167 -0.7533 -0.3943 -0.2827
  468MOL0     H63180  10.222  10.732  -0.150  1.8532  1.7108 -1.1274
  469MOL0     O63181   0.810   9.884   4.394  0.0733 -0.1161 -0.2853
  469MOL0     C63182   0.787   9.988   4.334 -0.4586 -1.0396 -0.6317
  469MOL0     O63183   0.859  10.097   4.369 -0.2305  0.1315  0.5804
  469MOL0     C63184   0.949  10.098   4.471  0.0607 -0.4733  0.7438
  469MOL0     C63185   0.919  10.092   4.607  0.6578  0.2414 -0.2032
  469MOL0     C63186   1.017  10.117   4.702  0.5750 -0.2646  0.2516
  469MOL0     C63187   1.145  10.174   4.662  0.4667  0.6762  0.0237
  469MOL0     O63188   1.251  10.194   4.748  0.8074  0.1796  0.5493
  469MOL0     C63189   1.239  10.164   4.890  0.1819  0.3840  0.5482
  469MOL0     C63190   1.382  10.165   4.943 -1.1189 -1.0501 -0.7090
  469MOL0     C63191   1.434  10.300   5.007 -0.0495 -0.4017 -0.0227
  469MOL0     C63192   1.403  10.307   5.152  0.2806 -0.0607 -0.1827
  469MOL0     C63193   1.467  10.433   5.207  0.1354  0.8429 -0.5772
  469MOL0     C63194   1.411  10.563   5.157 -0.6067 -0.0595  0.4337
  469MOL0     C63195   1.460  10.685   5.232  0.7266 -0.0461 -0.0005
  469MOL0     C63196   1.430  10.689   5.379  0.3167  1.8758  0.3524
  469MOL0     N63197   1.450  10.815   5.451  0.1272 -0.5070  0.4732
  469MOL0     C63198   1.437  10.944   5.405  0.6821  0.2642  0.7282
  469MOL0     C63199   1.498  11.010   5.503  0.6347 -0.5342  1.0541
  469MOL0     C63200   1.489  11.159   5.547  0.1802 -0.0382  1.1685
  469MOL0     C63201   1.348  11.193   5.610  0.0661  0.0739 -0.9864
  469MOL0     C63202   1.332  11.108   5.743  0.5063  0.4143  0.1447
  469MOL0     C63203   1.234  11.168   5.853  0.5225  0.6622  1.0989
  469MOL0     O63204   1.273  11.299   5.894  0.1304  0.5170  0.7097
  469MOL0     C63205   1.206  11.354   5.999  0.5811  0.3852 -0.0072
  469MOL0     C63206   1.262  11.436   6.093 -0.4926  0.1142 -0.3150
  469MOL0     C63207   1.208  11.502   6.205 -0.5808  0.2947 -0.1334
  469MOL0     C63208   1.299  11.573   6.303 -0.8120 -0.1594  0.2887
  469MOL0     C63209   1.065  11.493   6.210 -0.6203 -0.5737 -1.0453
  469MOL0     C63210   0.983  11.562   6.312 -0.6013 -0.2422  1.5282
  469MOL0     O63211   1.044  11.660   6.373 -0.0357  0.3236 -0.3639
  469MOL0     C63212   0.986  11.725   6.480 -0.0258  1.0744  0.1012
  469MOL0     C63213   1.029  11.701   6.613 -1.4236  0.0652  0.7921
  469MOL0     C63214   0.972  11.756   6.727  0.2267  0.0299  1.8357
  469MOL0     C63215   0.850  11.827   6.713  0.3626  1.0506  0.1086
  469MOL0     O63216   0.780  11.885   6.822  0.5095 -1.1676  0.6862
  469MOL0     C63217   0.771  11.812   6.942 -0.9068  0.6955 -0.1948
  469MOL0     C63218   0.646  11.856   7.014 -0.2142  0.2652 -0.0433
  469MOL0     C63219   0.623  11.773   7.147 -0.3120 -0.6693 -0.3602
  469MOL0     C63220   0.719  11.803   7.257 -0.3458  0.2853 -0.3404
  469MOL0     C63221   0.715  11.698   7.373 -0.2434 -1.0472  0.0105
  469MOL0     C63222   0.580  11.669   7.434 -0.1985 -0.1327  1.3890
  469MOL0     C63223   0.584  11.563   7.538  0.2037  0.5565  0.1871
  469MOL0     C63224   0.469  11.577   7.644  0.4841  0.1751  0.5431
  469MOL0    Cl63225   0.314  11.524   7.574  0.1213 -0.1022  0.1406
  469MOL0     C63226   0.818  11.876   6.585  0.1253  0.3395 -0.7804
  469MOL0     C63227   0.886  11.823   6.468  0.7311 -0.5542  0.6112
  469MOL0     O63228   0.864  11.532   6.326 -0.0441  0.1857  0.5649
  469MOL0     C63229   1.000  11.419   6.112  0.1969  0.3382  0.8611
  469MOL0     C63230   1.067  11.339   6.017  0.2342  1.0165  0.9353
  469MOL0     N63231   1.569  10.926   5.588 -0.6208  0.1331  0.2686
  469MOL0     N63232   1.542  10.808   5.552  0.1167  0.2859  0.5175
  469MOL0     C63233   1.177  10.178   4.526  0.1143 -0.9988 -0.6520
  469MOL0     C63234   1.083  10.137   4.433  0.3397 -0.2504 -0.3596
  469MOL0     C63235   0.685   9.995   4.237 -1.0113 -0.3158 -0.7450
  469MOL0     C63236   0.642   9.872   4.183 -0.0348  0.2304 -0.3628
  469MOL0     C63237   0.556   9.877   4.075  0.0677 -0.4732  0.6444
  469MOL0     C63238   0.497   9.992   4.026 -1.2667  0.9000 -0.4598
  469MOL0     O63239   0.394   9.971   3.935  0.3973  0.1420  0.1921
  469MOL0     C63240   0.316  10.088   3.899 -0.3060 -0.4059 -0.4939
  469MOL0     C63241   0.213  10.036   3.802  0.3694  0.3863  1.1219
  469MOL0     C63242   0.099   9.947   3.859  0.5375 -0.1887  0.0070
  469MOL0     C63243   0.019   9.875   3.762  0.9973 -0.3034  0.4447
  469MOL0     C63244  -0.050   9.963   3.671  0.6934  0.4166 -0.5505
  469MOL0     C63245  -0.128  10.034   3.606 -0.0753  0.3819  0.3348
  469MOL0     C63246   0.529  10.114   4.093  1.2494  0.3358 -0.3032
  469MOL0     C63247   0.622  10.113   4.185 -0.0468 -0.1921 -0.8614
  469MOL0     H63248   0.826  10.058   4.652  1.5080 -1.5677  0.2692
  469MOL0     H63249   1.005  10.098   4.809  3.2157 -0.7326  0.5166
  469MOL0     H63250   1.180  10.242   4.939  0.7265  0.1010  1.6971
  469MOL0     H63251   1.185  10.069   4.903  1.1367 -0.3358 -0.5778
  469MOL0     H63252   1.408  10.084   5.013 -0.3618  0.4793  0.8536
  469MOL0     H63253   1.449  10.127   4.864 -1.2419 -0.2751 -1.1925
  469MOL0     H63254   1.543  10.297   5.007  0.0988  2.3935  0.8040
  469MOL0     H63255   1.403  10.391   4.954  2.3045  1.5229  1.7096
  469MOL0     H63256   1.296  10.299   5.170  0.7550  0.1797  3.2658
  469MOL0     H63257   1.446  10.220   5.201  0.5269  0.2772  0.2100
  469MOL0     H63258   1.453  10.415   5.314 -1.3381 -1.6191 -1.0957
  469MOL0     H63259   1.575  10.449   5.191  0.0119  3.4532  0.6859
  469MOL0     H63260   1.439  10.567   5.052  2.3064 -0.6434  1.0961
  469MOL0     H63261   1.302  10.554   5.150 -0.4016 -1.6130 -4.2972
  469MOL0     H63262   1.566  10.691   5.206  0.7445  0.6260  0.2225
  469MOL0     H63263   1.419  10.778   5.192 -0.8115 -0.8608 -0.3892
  469MOL0     H63264   1.497  10.615   5.425  0.8732  0.1748 -2.8737
  469MOL0     H63265   1.328  10.651   5.383  0.4975  1.1926 -1.0523
  469MOL0     H63266   1.374  10.983   5.325 -2.0226 -0.6612  2.2545
  469MOL0     H63267   1.569  11.179   5.618  0.4601  0.8810  0.6124
  469MOL0     H63268   1.514  11.219   5.459  2.4055  1.7599  2.9035
  469MOL0     H63269   1.272  11.176   5.533  0.4343 -3.8477 -0.6815
  469MOL0     H63270   1.344  11.299   5.636  0.9256 -0.2985  0.7824
  469MOL0     H63271   1.429  11.100   5.793 -0.8984 -1.4711  2.8173
  469MOL0     H63272   1.301  11.008   5.711  1.7347 -0.4083  1.4316
  469MOL0     H63273   1.236  11.103   5.941 -2.2701  0.0441  0.7881
  469MOL0     H63274   1.131  11.169   5.817  1.6113 -0.4231 -2.4597
  469MOL0     H63275   1.370  11.443   6.088 -0.4833 -0.6764 -1.3282
  469MOL0     H63276   1.304  11.682   6.297 -2.2228  0.0927  2.5873
  469MOL0     H63277   1.279  11.535   6.403 -1.9787 -0.4118 -0.0305
  469MOL0     H63278   1.405  11.548   6.290 -0.8415 -0.0998 -0.0912
  469MOL0     H63279   1.111  11.632   6.632 -1.0786  0.1033 -0.4617
  469MOL0     H63280   1.006  11.744   6.830  1.2222  1.1454  1.6566
  469MOL0     H63281   0.752  11.707   6.920  2.3219  0.1130 -0.6378
  469MOL0     H63282   0.867  11.822   6.994  0.4730 -0.2511 -2.4482
  469MOL0     H63283   0.675  11.956   7.047 -0.7036 -0.0198  1.3405
  469MOL0     H63284   0.554  11.854   6.954 -1.6639  0.1983  2.0880
  469MOL0     H63285   0.632  11.667   7.124  1.4537 -1.1943  2.3081
  469MOL0     H63286   0.526  11.794   7.193  0.0221  1.2053 -0.4186
  469MOL0     H63287   0.817  11.801   7.207  0.2634 -0.2433  0.8282
  469MOL0     H63288   0.717  11.909   7.285  0.8536  0.5303 -1.0804
  469MOL0     H63289   0.783  11.737   7.450  0.0624 -0.3765 -0.5930
  469MOL0     H63290   0.758  11.612   7.321 -0.2865 -1.0667  0.0071
  469MOL0     H63291   0.568  11.756   7.499  1.8028  0.2876  1.2815
  469MOL0     H63292   0.492  11.662   7.369 -0.4740 -1.7695  1.8815
  469MOL0     H63293   0.683  11.564   7.585 -0.3629 -1.4362  1.5266
  469MOL0     H63294   0.584  11.473   7.477  3.0301  1.1575 -0.8790
  469MOL0     H63295   0.465  11.679   7.685  2.5154  0.1718  0.8327
  469MOL0     H63296   0.477  11.511   7.731  1.3966  2.3632  2.2068
  469MOL0     H63297   0.737  11.943   6.559  0.8562  2.3963  1.8505
  469MOL0     H63298   0.858  11.861   6.370  1.6177  0.2985  0.6741
  469MOL0     H63299   0.891  11.420   6.107  0.2276 -1.0132 -1.1017
  469MOL0     H63300   1.005  11.278   5.951  1.7115  0.7561 -0.2852
  469MOL0     H63301   1.272  10.220   4.495  0.2980 -0.2940  0.7365
  469MOL0     H63302   1.085  10.168   4.329  0.2213 -0.1499 -0.3330
  469MOL0     H63303   0.686   9.776   4.209 -1.2209  0.2280  1.8173
  469MOL0     H63304   0.528   9.785   4.024  1.4905 -0.5069 -0.1164
  469MOL0     H63305   0.269  10.132   3.987  2.3464  0.8154  0.4482
  469MOL0     H63306   0.379  10.161   3.847  0.2136 -0.7425 -0.3470
  469MOL0     H63307   0.267   9.982   3.724 -0.8478  0.7912 -0.0197
  469MOL0     H63308   0.173  10.130   3.763  1.5508 -0.4093 -2.3819
  469MOL0     H63309   0.037   9.980   3.943 -1.8876 -0.5279 -1.5578
  469MOL0     H63310   0.159   9.872   3.911  2.8199  1.8249  0.4508
  469MOL0     H63311  -0.056   9.822   3.821  0.9586  0.1365  0.7950
  469MOL0     H63312   0.075   9.801   3.704 -0.2861  0.3862 -1.7895
  469MOL0     H63313  -0.194  10.090   3.544  2.1864 -1.2349 -3.9770
  469MOL0     H63314   0.482  10.212   4.088 -1.2985 -0.5657  2.7077
  469MOL0     H63315   0.656  10.201   4.240  0.4070 -1.0353  0.2598
  470MOL0     O63316   4.259   0.325  10.019 -0.0004  0.4395 -0.0730
  470MOL0     C63317   4.179   0.293   9.938  0.6291 -0.5498 -1.2145
  470MOL0     O63318   4.083   0.203   9.958  0.2337  0.0557  0.3381
  470MOL0     C63319   4.081   0.106  10.057  0.3690  0.0218 -0.0788
  470MOL0     C63320   4.195   0.059  10.139 -0.8929 -0.8099  0.6002
  470MOL0     C63321   4.171  -0.042  10.232  0.1366 -0.7112 -0.8479
  470MOL0     C63322   4.048  -0.091  10.257  0.7590 -1.8223  0.4386
  470MOL0     O63323   4.041  -0.181  10.363 -0.5016 -0.0132 -0.3865
  470MOL0     C63324   3.977  -0.312  10.340  0.4129  0.8397 -0.5151
  470MOL0     C63325   3.985  -0.397  10.473 -0.1716 -0.0464  0.8734
  470MOL0     C63326   3.884  -0.512  10.473  0.7185 -0.1931  0.1573
  470MOL0     C63327   3.884  -0.568  10.616  0.2599 -0.4603 -1.1116
  470MOL0     C63328   3.786  -0.686  10.624 -0.5647 -0.0786 -0.1214
  470MOL0     C63329   3.772  -0.736  10.756 -0.1280  0.5355 -0.4614
  470MOL0     C63330   3.886  -0.795  10.827 -0.4945 -0.1249 -0.1855
  470MOL0     C63331   3.855  -0.849  10.964 -0.1810  0.4469  0.2161
  470MOL0     N63332   3.833  -0.743  11.069 -0.1293 -0.3837  0.4328
  470MOL0     C63333   3.708  -0.685  11.086 -0.0419  0.6211 -0.1826
  470MOL0     C63334   3.734  -0.562  11.130  0.5540  0.1803  0.5724
  470MOL0     C63335   3.624  -0.461  11.152  0.0329  0.8505  0.0392
  470MOL0     C63336   3.607  -0.364  11.036 -0.7439  0.1435  1.3234
  470MOL0     C63337   3.708  -0.242  11.025 -0.4361 -0.2399  0.0918
  470MOL0     C63338   3.699  -0.146  11.139 -0.1331 -0.2652 -1.2537
  470MOL0     O63339   3.560  -0.123  11.164  0.7149  0.1032 -0.2028
  470MOL0     C63340   3.536  -0.058  11.279 -0.6194 -0.1494 -0.5477
  470MOL0     C63341   3.616   0.034  11.345 -0.5140 -0.2434  0.1256
  470MOL0     C63342   3.564   0.115  11.445  0.2731 -0.0662 -0.4197
  470MOL0     C63343   3.641   0.250  11.482  0.2221  1.0475  1.1367
  470MOL0     C63344   3.439   0.082  11.508 -0.4225 -0.0091 -0.3126
  470MOL0     C63345   3.391   0.135  11.638  0.0766  0.5800 -0.0918
  470MOL0     O63346   3.263   0.104  11.675 -0.3467  0.1842 -0.2181
  470MOL0     C63347   3.207   0.134  11.791  0.4675  0.0080 -0.2574
  470MOL0     C63348   3.236   0.255  11.855 -0.2807 -0.6663 -0.1466
  470MOL0     C63349   3.181   0.276  11.986 -0.2558 -0.3627  0.2694
  470MOL0     C63350   3.106   0.177  12.047  0.6687 -0.0123 -0.7421
  470MOL0     O63351   3.038   0.192  12.174 -0.4118  0.2151  0.0360
  470MOL0     C63352   3.087   0.298  12.256  0.2517  0.0520  0.5483
  470MOL0     C63353   2.999   0.310  12.389 -0.3544 -0.1917 -0.1660
  470MOL0     C63354   2.847   0.360  12.362  0.2888 -0.4599 -0.2064
  470MOL0     C63355   2.824   0.510  12.357 -1.4113 -0.8729  0.2384
  470MOL0     C63356   2.854   0.589  12.487 -0.5752  0.2902 -0.5267
  470MOL0     C63357   2.749   0.562  12.603  0.3276 -0.1667 -1.4425
  470MOL0     C63358   2.800   0.636  12.726  1.1421 -0.5900 -0.0230
  470MOL0     C63359   2.686   0.653  12.825  0.7515 -0.0486  0.8635
  470MOL0    Cl63360   2.579   0.513  12.824 -0.1204  0.2941 -0.2622
  470MOL0     C63361   3.067   0.065  11.972 -0.5566 -0.3588  0.5160
  470MOL0     C63362   3.121   0.038  11.845  0.1956 -0.0986 -0.4283
  470MOL0     O63363   3.476   0.194  11.709 -0.1299  0.3656 -0.0345
  470MOL0     C63364   3.365  -0.020  11.452  0.4234 -0.5459  0.5878
  470MOL0     C63365   3.409  -0.083  11.336 -0.4289 -0.3355 -0.5780
  470MOL0     N63366   3.866  -0.533  11.128  0.2797  0.4908  0.7659
  470MOL0     N63367   3.924  -0.645  11.104  0.4732 -0.6776 -0.8384
  470MOL0     C63368   3.937  -0.053  10.182 -0.4961 -0.1145  0.1539
  470MOL0     C63369   3.953   0.048  10.078 -0.3372 -0.1040 -0.5953
  470MOL0     C63370   4.179   0.366   9.804  0.3169  0.5848  0.6490
  470MOL0     C63371   4.273   0.479   9.785 -0.0028  0.5097 -0.1241
  470MOL0     C63372   4.264   0.544   9.658 -0.6826 -0.0411  0.3090
  470MOL0     C63373   4.178   0.497   9.556  0.5312 -0.2789  0.5662
  470MOL0     O63374   4.170   0.539   9.419  0.2147 -0.1151  0.5146
  470MOL0     C63375   4.236   0.667   9.400  0.6174 -1.0196  0.4509
  470MOL0     C63376   4.377   0.654   9.359 -1.0919 -0.2886 -0.3196
  470MOL0     C63377   4.398   0.614   9.214 -0.5461  0.2425 -0.6702
  470MOL0     C63378   4.536   0.568   9.166 -0.1374  1.0449  0.0502
  470MOL0     C63379   4.649   0.656   9.197  0.7031  1.1181 -0.0680
  470MOL0     C63380   4.747   0.713   9.240  0.4416  0.6511 -0.3672
  470MOL0     C63381   4.086   0.390   9.582 -0.0032 -0.7350  0.2575
  470MOL0     C63382   4.084   0.334   9.711  0.4497  0.3525  0.4076
  470MOL0     H63383   4.296   0.083  10.106 -1.3868 -1.8801 -1.9721
  470MOL0     H63384   4.261  -0.078  10.280  1.4445  4.5243  1.3845
  470MOL0     H63385   3.872  -0.302  10.313  0.6103  1.7200 -0.9891
  470MOL0     H63386   4.019  -0.368  10.256  1.8283  0.2827  0.5255
  470MOL0     H63387   4.086  -0.431  10.493 -0.4450 -1.1532  0.4149
  470MOL0     H63388   3.957  -0.337  10.560 -1.7397 -1.0901  1.1361
  470MOL0     H63389   3.786  -0.469  10.454  1.6453  2.0475  0.2196
  470MOL0     H63390   3.919  -0.580  10.394  1.3726 -1.8314  1.7773
  470MOL0     H63391   3.986  -0.598  10.643 -0.3184  0.3325  2.3613
  470MOL0     H63392   3.856  -0.490  10.686  1.8030  1.4115 -2.4807
  470MOL0     H63393   3.688  -0.657  10.583 -0.5813 -0.2772 -0.2242
  470MOL0     H63394   3.829  -0.768  10.566 -0.0623  0.4260 -0.4682
  470MOL0     H63395   3.739  -0.651  10.816  1.6049  0.7430  0.2570
  470MOL0     H63396   3.691  -0.809  10.759  0.7189 -0.4319 -0.5814
  470MOL0     H63397   3.931  -0.875  10.767  2.1148  0.2988  1.0655
  470MOL0     H63398   3.965  -0.719  10.832 -0.6635  0.3742 -3.2676
  470MOL0     H63399   3.947  -0.902  10.989 -0.4612 -0.8007 -1.2357
  470MOL0     H63400   3.772  -0.921  10.959  0.2856 -0.0691 -0.3021
  470MOL0     H63401   3.606  -0.721  11.077 -0.0153  0.3454  0.5253
  470MOL0     H63402   3.529  -0.515  11.165  1.9783 -2.8033  0.3420
  470MOL0     H63403   3.631  -0.417  11.252 -2.1073 -1.8854  1.5412
  470MOL0     H63404   3.504  -0.333  11.014  0.1551  0.7492 -2.7753
  470MOL0     H63405   3.633  -0.432  10.955 -1.8383 -0.1132  1.1765
  470MOL0     H63406   3.690  -0.190  10.931 -1.8204 -0.8156  0.0146
  470MOL0     H63407   3.813  -0.273  11.019 -0.0866  1.0622 -1.1067
  470MOL0     H63408   3.744  -0.049  11.115  0.6650 -1.0406 -3.1264
  470MOL0     H63409   3.768  -0.194  11.210  1.1670  1.5435 -1.2273
  470MOL0     H63410   3.709   0.064  11.299  0.0482 -2.5552 -0.3530
  470MOL0     H63411   3.679   0.283  11.385  0.4720 -2.0868  0.0655
  470MOL0     H63412   3.573   0.327  11.519  0.1999  2.5167 -1.7299
  470MOL0     H63413   3.718   0.227  11.556  0.1450 -1.0760  0.6213
  470MOL0     H63414   3.299   0.334  11.815  1.8633  0.1562  4.1887
  470MOL0     H63415   3.201   0.373  12.032  1.7588  0.3423 -1.8963
  470MOL0     H63416   3.192   0.295  12.289  0.9517  3.2117 -0.9510
  470MOL0     H63417   3.067   0.392  12.203  0.9418 -0.9181 -1.5227
  470MOL0     H63418   3.007   0.208  12.426 -0.7263  0.3850  1.5961
  470MOL0     H63419   3.036   0.376  12.469  0.3744 -2.1048  1.1451
  470MOL0     H63420   2.788   0.316  12.443 -1.0204  3.8449  1.5001
  470MOL0     H63421   2.805   0.321  12.268 -2.1180  1.6552 -0.1331
  470MOL0     H63422   2.895   0.547  12.282  0.1902 -0.5530  1.8333
  470MOL0     H63423   2.723   0.533  12.320 -0.9858  1.0013  0.1344
  470MOL0     H63424   2.877   0.694  12.463  3.4973 -0.8353 -2.5985
  470MOL0     H63425   2.958   0.563  12.509 -0.4914  0.2586 -0.9567
  470MOL0     H63426   2.650   0.596  12.571  1.1143  2.5759 -1.1777
  470MOL0     H63427   2.746   0.453  12.618  2.9489 -0.6934 -3.8694
  470MOL0     H63428   2.844   0.730  12.693  1.7332 -0.8770 -0.0799
  470MOL0     H63429   2.881   0.580  12.775  2.6350  1.0738 -0.4788
  470MOL0     H63430   2.617   0.736  12.809  1.6867  0.9165  1.6941
  470MOL0     H63431   2.729   0.671  12.924  1.2171  0.8879  0.4942
  470MOL0     H63432   3.013  -0.013  12.024 -0.3691 -1.1729 -0.4703
  470MOL0     H63433   3.098  -0.059  11.801 -4.0264  0.7345 -0.4401
  470MOL0     H63434   3.274  -0.050  11.502 -0.4522 -0.4843 -0.9154
  470MOL0     H63435   3.353  -0.158  11.282  2.5481 -2.3766 -1.0769
  470MOL0     H63436   3.847  -0.107  10.210 -1.2726  2.7420  4.0174
  470MOL0     H63437   3.882   0.072   9.999  0.1254 -1.5871 -1.5026
  470MOL0     H63438   4.327   0.519   9.870 -3.5570  1.6680  1.7836
  470MOL0     H63439   4.343   0.618   9.662 -1.9706  1.4446 -0.5592
  470MOL0     H63440   4.181   0.710   9.315 -0.1785 -3.2777 -0.2533
  470MOL0     H63441   4.230   0.742   9.479 -1.8763 -0.3227 -0.2716
  470MOL0     H63442   4.432   0.585   9.424 -1.0580  1.7118  1.9175
  470MOL0     H63443   4.427   0.748   9.381  2.5287 -2.6363  2.8790
  470MOL0     H63444   4.373   0.703   9.154  0.6180  2.2010  1.5919
  470MOL0     H63445   4.326   0.539   9.180 -1.6652  0.0470  1.8759
  470MOL0     H63446   4.532   0.552   9.057 -1.4860 -1.2674  0.3659
  470MOL0     H63447   4.545   0.470   9.214 -3.8953 -0.1754 -1.3852
  470MOL0     H63448   4.840   0.728   9.293  1.3746 -3.9759 -0.2980
  470MOL0     H63449   4.013   0.353   9.511 -0.1742  1.2127 -0.6338
  470MOL0     H63450   3.999   0.268   9.728 -1.4940  2.6784  0.2598
  471MOL0     O63451   3.814   2.792   2.920  0.0074  0.0015 -0.2160
  471MOL0     C63452   3.728   2.880   2.892 -0.3032  0.6422 -0.4606
  471MOL0     O63453   3.733   2.969   2.795 -0.2846  0.3492  0.1511
  471MOL0     C63454   3.847   2.989   2.718 -0.2194  0.2282 -0.5194
  471MOL0     C63455   3.823   3.056   2.596 -0.7943  1.3216 -0.2818
  471MOL0     C63456   3.934   3.092   2.513  0.0210 -0.7666  0.1780
  471MOL0     C63457   4.062   3.057   2.550  1.4214 -0.5715  0.3099
  471MOL0     O63458   4.171   3.071   2.470  0.1806  0.0082 -0.4328
  471MOL0     C63459   4.171   3.125   2.340 -1.2467 -0.4401 -1.0915
  471MOL0     C63460   4.289   3.220   2.348 -0.7552  0.1093  0.2151
  471MOL0     C63461   4.290   3.344   2.451 -0.1347 -1.1713  0.2635
  471MOL0     C63462   4.159   3.428   2.435 -0.0155 -0.0826  0.0263
  471MOL0     C63463   4.170   3.574   2.502  0.3116 -0.0240 -0.7030
  471MOL0     C63464   4.152   3.679   2.398 -0.4268 -0.3718 -0.0195
  471MOL0     C63465   4.277   3.703   2.322  0.4368 -0.2961  0.0164
  471MOL0     C63466   4.275   3.794   2.196 -0.5895  0.2392 -0.3130
  471MOL0     N63467   4.385   3.783   2.101  0.4338 -0.2361 -0.0350
  471MOL0     C63468   4.380   3.774   1.963  0.0317  0.1920  0.2099
  471MOL0     C63469   4.506   3.754   1.915  1.3020 -0.5684  0.8266
  471MOL0     C63470   4.531   3.741   1.769  0.4313 -0.3866 -0.5931
  471MOL0     C63471   4.637   3.837   1.741 -0.5814 -1.0054  0.2977
  471MOL0     C63472   4.659   3.822   1.592 -0.5232  0.5407  0.9953
  471MOL0     C63473   4.750   3.943   1.544 -0.6422 -0.6262 -0.8289
  471MOL0     O63474   4.758   3.924   1.408  0.5130  0.0293  0.4625
  471MOL0     C63475   4.848   3.986   1.334 -0.0753  0.0512  0.0473
  471MOL0     C63476   4.897   4.117   1.351 -0.8881  0.4450 -0.7036
  471MOL0     C63477   4.974   4.187   1.262 -0.2971  0.2835  0.1167
  471MOL0     C63478   5.050   4.314   1.294 -0.1931 -0.3656 -0.6218
  471MOL0     C63479   4.993   4.130   1.130  0.1519 -0.8534  0.5324
  471MOL0     C63480   5.053   4.198   1.009 -0.3905 -1.0806 -0.1351
  471MOL0     O63481   5.037   4.337   0.996 -0.5027 -0.6657  0.6889
  471MOL0     C63482   5.024   4.393   0.869  0.5181 -0.4618  0.0382
  471MOL0     C63483   4.970   4.322   0.761 -0.0708  0.4696  0.5555
  471MOL0     C63484   4.936   4.387   0.637 -0.6537 -0.4532 -0.0365
  471MOL0     C63485   4.934   4.534   0.632 -0.4704 -0.2139 -0.8416
  471MOL0     O63486   4.874   4.593   0.523  0.3136  0.1220  0.4894
  471MOL0     C63487   4.818   4.727   0.519 -0.7887 -0.5408  0.3389
  471MOL0     C63488   4.916   4.838   0.522 -0.1927  0.2618 -0.8448
  471MOL0     C63489   4.895   4.957   0.430  1.1014  1.1959  0.8222
  471MOL0     C63490   5.022   5.054   0.426 -0.8413 -0.9745  0.3792
  471MOL0     C63491   5.007   5.148   0.311  0.3328  0.6215 -0.5115
  471MOL0     C63492   5.147   5.212   0.288 -1.1606  0.2141 -0.4183
  471MOL0     C63493   5.155   5.314   0.180 -0.3584 -0.6458  0.5325
  471MOL0     C63494   5.303   5.350   0.146  0.0518 -0.2118  0.5684
  471MOL0    Cl63495   5.322   5.454   0.004 -0.5263 -0.1519  0.1199
  471MOL0     C63496   4.990   4.605   0.739 -0.3424  1.6305 -0.4294
  471MOL0     C63497   5.029   4.538   0.854 -1.0888  0.6326  2.0502
  471MOL0     O63498   5.103   4.130   0.923  0.6013  0.9385 -1.1608
  471MOL0     C63499   4.943   3.999   1.115 -0.8013  0.0606 -0.4845
  471MOL0     C63500   4.879   3.933   1.217 -1.0391  0.1479  1.3326
  471MOL0     N63501   4.590   3.765   2.020 -0.7322  0.1965  0.7971
  471MOL0     N63502   4.520   3.781   2.124 -0.2192  0.5595 -0.0335
  471MOL0     C63503   4.089   2.999   2.673 -0.2767  0.3880 -0.4976
  471MOL0     C63504   3.984   2.969   2.758 -0.9786  0.8702 -1.3525
  471MOL0     C63505   3.608   2.892   2.978 -0.9050  0.6748 -0.4750
  471MOL0     C63506   3.583   2.793   3.065 -0.4487  0.6927 -0.0787
  471MOL0     C63507   3.469   2.795   3.143  0.3318 -0.0306  0.3089
  471MOL0     C63508   3.369   2.896   3.136  0.7260  0.3144 -0.0560
  471MOL0     O63509   3.263   2.890   3.225 -0.0445  0.3910  0.5373
  471MOL0     C63510   3.229   3.008   3.297 -0.1924 -0.5236 -1.1130
  471MOL0     C63511   3.108   3.095   3.240 -1.4065  0.5526  0.9599
  471MOL0     C63512   3.019   3.148   3.356 -0.6667  0.8274 -0.4082
  471MOL0     C63513   2.903   3.241   3.320 -0.0732 -0.7263 -0.2551
  471MOL0     C63514   2.950   3.370   3.293 -0.5334 -0.0903  0.7486
  471MOL0     C63515   3.006   3.476   3.278 -0.2708  0.3959 -0.1266
  471MOL0     C63516   3.389   2.990   3.041 -0.0358  0.1172  1.0579
  471MOL0     C63517   3.503   2.984   2.956  0.0463 -0.5995 -1.3483
  471MOL0     H63518   3.728   3.081   2.549 -0.3911 -1.6637 -2.9546
  471MOL0     H63519   3.913   3.133   2.415  2.5160 -2.2808 -1.0549
  471MOL0     H63520   4.190   3.038   2.276 -1.5012 -1.4480  0.1604
  471MOL0     H63521   4.079   3.176   2.310 -0.2328  0.1834 -3.3551
  471MOL0     H63522   4.377   3.155   2.356 -0.5855  0.0471 -1.6464
  471MOL0     H63523   4.296   3.268   2.250  1.2830 -0.5347 -0.0099
  471MOL0     H63524   4.303   3.305   2.552  3.4115 -0.1985  0.3155
  471MOL0     H63525   4.378   3.408   2.448 -0.3285 -0.8916  0.4439
  471MOL0     H63526   4.113   3.435   2.337 -4.3849  1.7371  1.9529
  471MOL0     H63527   4.087   3.363   2.486  0.8626 -3.3244 -2.4682
  471MOL0     H63528   4.092   3.585   2.578 -1.2592 -0.7695 -2.1363
  471MOL0     H63529   4.258   3.589   2.565 -0.3756  2.0942 -0.1587
  471MOL0     H63530   4.069   3.654   2.331  0.8566 -0.6310 -1.5775
  471MOL0     H63531   4.126   3.776   2.443  1.9510  1.2991 -1.9329
  471MOL0     H63532   4.360   3.732   2.387 -2.3224  2.0329  2.8394
  471MOL0     H63533   4.306   3.604   2.285  1.4185 -0.6561  1.6427
  471MOL0     H63534   4.292   3.897   2.230  0.3288 -0.0425  0.0876
  471MOL0     H63535   4.184   3.796   2.134  0.3959 -2.0934 -1.9689
  471MOL0     H63536   4.293   3.760   1.899  0.0100 -0.3319  0.3478
  471MOL0     H63537   4.552   3.637   1.745 -0.2337 -0.9411  1.0492
  471MOL0     H63538   4.433   3.771   1.731 -1.9890 -3.2120  2.7536
  471MOL0     H63539   4.726   3.821   1.802  0.5168  0.1216 -0.9573
  471MOL0     H63540   4.599   3.938   1.757  1.5231 -0.2897  1.0534
  471MOL0     H63541   4.569   3.855   1.539  0.2257  2.9026  1.0558
  471MOL0     H63542   4.701   3.728   1.558 -1.4862  1.7004 -4.2045
  471MOL0     H63543   4.849   3.924   1.585 -0.0900 -2.3859 -2.7551
  471MOL0     H63544   4.714   4.044   1.561 -2.0110 -1.3041  0.5779
  471MOL0     H63545   4.896   4.161   1.451  0.0478 -1.2862  0.1242
  471MOL0     H63546   4.987   4.399   1.264  1.1288  0.6540 -0.6149
  471MOL0     H63547   5.067   4.330   1.401  0.5814  2.9450 -1.1030
  471MOL0     H63548   5.149   4.320   1.248  0.1620  1.8088  0.3183
  471MOL0     H63549   4.952   4.215   0.768 -3.5735  0.9703  1.3229
  471MOL0     H63550   4.903   4.336   0.547 -0.3531  1.7064 -1.4458
  471MOL0     H63551   4.760   4.731   0.426  0.4587 -2.0063 -0.5479
  471MOL0     H63552   4.746   4.730   0.602 -2.3902  1.5096 -1.0232
  471MOL0     H63553   4.915   4.878   0.624 -0.8387  0.7072 -1.0183
  471MOL0     H63554   5.016   4.800   0.497 -0.0605  0.5371 -0.7476
  471MOL0     H63555   4.804   5.013   0.452 -0.1453  0.3324 -1.7824
  471MOL0     H63556   4.876   4.916   0.331  1.3103 -0.8951  1.5942
  471MOL0     H63557   5.041   5.107   0.520  1.7984 -1.6450  0.3223
  471MOL0     H63558   5.110   4.991   0.407  1.0471  1.1755  1.4840
  471MOL0     H63559   4.935   5.221   0.350  3.1074  1.0676  4.6206
  471MOL0     H63560   4.974   5.098   0.219 -2.2271  0.6369  0.3099
  471MOL0     H63561   5.185   5.255   0.381 -0.2234  3.1520 -2.0288
  471MOL0     H63562   5.219   5.131   0.273  0.8107  1.6164  0.8745
  471MOL0     H63563   5.115   5.408   0.217  5.1112  1.4822  1.9209
  471MOL0     H63564   5.108   5.289   0.084 -2.1616  1.7377  0.7072
  471MOL0     H63565   5.362   5.259   0.130 -1.4191 -0.7134 -2.9035
  471MOL0     H63566   5.329   5.421   0.224 -0.9305  3.0321 -1.8231
  471MOL0     H63567   4.985   4.713   0.736  0.5465  1.7115  0.5355
  471MOL0     H63568   5.075   4.601   0.929 -0.2880  0.8916  1.3548
  471MOL0     H63569   4.963   3.944   1.024  0.1540 -0.9663  0.3255
  471MOL0     H63570   4.856   3.831   1.189  1.7792 -1.0237  2.8111
  471MOL0     H63571   4.186   2.962   2.708 -1.4439 -0.0732  2.5680
  471MOL0     H63572   4.007   2.918   2.851  0.8611  1.5403 -1.3962
  471MOL0     H63573   3.633   2.699   3.087 -1.4834  0.2649  0.5089
  471MOL0     H63574   3.445   2.715   3.213  0.7744 -1.2996 -0.9462
  471MOL0     H63575   3.192   2.962   3.388  1.2379 -0.7605 -0.6333
  471MOL0     H63576   3.321   3.064   3.310 -1.1398  1.6783 -3.0734
  471MOL0     H63577   3.052   3.031   3.172  0.7145 -2.1292  1.5457
  471MOL0     H63578   3.149   3.182   3.188 -2.8057  1.3199  1.1153
  471MOL0     H63579   3.086   3.196   3.429 -1.2585  0.1964  0.5799
  471MOL0     H63580   2.979   3.064   3.414 -0.5857  2.0312  1.4740
  471MOL0     H63581   2.825   3.248   3.396  0.2789  3.9431 -0.0294
  471MOL0     H63582   2.872   3.201   3.223 -1.7543  0.5084 -0.2750
  471MOL0     H63583   3.057   3.569   3.268 -1.1185  0.8391 -0.3828
  471MOL0     H63584   3.314   3.067   3.025 -0.4557 -0.5873 -0.4964
  471MOL0     H63585   3.516   3.064   2.884  1.0046  2.4228  1.8788
  472MOL0     O63586   0.836   3.408   4.634 -0.3520  0.4763  0.3991
  472MOL0     C63587   0.863   3.311   4.562  1.2114  0.8964  0.2756
  472MOL0     O63588   0.769   3.257   4.472 -0.3544  0.4321  0.2716
  472MOL0     C63589   0.653   3.326   4.472 -0.2585 -0.1083  0.3517
  472MOL0     C63590   0.566   3.314   4.579  0.0227  0.8097  0.0777
  472MOL0     C63591   0.432   3.349   4.565 -0.4349  0.2499  0.6856
  472MOL0     C63592   0.377   3.403   4.437 -0.5050 -0.1106 -0.5544
  472MOL0     O63593   0.248   3.448   4.426 -0.0871  0.0155  0.4859
  472MOL0     C63594   0.185   3.442   4.286 -0.0825  0.2132 -0.1773
  472MOL0     C63595   0.029   3.449   4.298  0.3935  0.7934 -0.5972
  472MOL0     C63596  -0.016   3.317   4.383  0.0017 -0.4618  0.1027
  472MOL0     C63597  -0.170   3.310   4.387  0.9616  0.2058 -0.5484
  472MOL0     C63598  -0.212   3.180   4.454  0.5491 -0.6403  0.4355
  472MOL0     C63599  -0.364   3.172   4.437  0.1683 -0.0113  0.3091
  472MOL0     C63600  -0.436   3.050   4.500 -0.8040  0.4353 -0.7177
  472MOL0     C63601  -0.357   2.916   4.493 -0.9138 -0.1753 -0.0451
  472MOL0     N63602  -0.439   2.810   4.547 -1.0525  0.6769 -0.8020
  472MOL0     C63603  -0.568   2.779   4.524  0.5226 -0.1027 -0.1801
  472MOL0     C63604  -0.601   2.669   4.597 -0.1326  0.1814  0.0753
  472MOL0     C63605  -0.730   2.593   4.583 -0.6373 -0.5892  0.4469
  472MOL0     C63606  -0.835   2.631   4.687 -0.4939  0.0451  0.5887
  472MOL0     C63607  -0.893   2.769   4.675  0.3252  0.3572  0.1883
  472MOL0     C63608  -1.036   2.756   4.613 -0.5374  0.3738 -0.3460
  472MOL0     O63609  -1.036   2.710   4.474  0.8801  1.0682  0.1937
  472MOL0     C63610  -0.983   2.780   4.382  0.8288 -0.1411  0.5931
  472MOL0     C63611  -0.938   2.909   4.382  0.7528 -0.2029 -0.3218
  472MOL0     C63612  -0.854   2.959   4.279  0.4036 -0.4409 -0.7882
  472MOL0     C63613  -0.806   3.095   4.296  0.6736 -0.4087  0.1261
  472MOL0     C63614  -0.855   2.891   4.156 -0.3285 -0.0921  0.2245
  472MOL0     C63615  -0.796   2.943   4.025 -0.4522 -0.3549  0.7038
  472MOL0     O63616  -0.761   3.071   4.000  0.9853 -0.4918 -0.2437
  472MOL0     C63617  -0.718   3.096   3.879 -0.3884  0.2169  0.1999
  472MOL0     C63618  -0.571   3.088   3.862 -0.4272 -0.0849 -0.7460
  472MOL0     C63619  -0.515   3.105   3.736 -0.0069  0.0260  0.8308
  472MOL0     C63620  -0.607   3.130   3.628 -0.2300  0.5437 -0.4635
  472MOL0     O63621  -0.559   3.155   3.502 -0.1746 -0.3162 -0.1749
  472MOL0     C63622  -0.540   3.033   3.427  0.3430 -0.4211 -0.2745
  472MOL0     C63623  -0.546   3.070   3.276 -0.2340 -0.0317 -0.8287
  472MOL0     C63624  -0.683   3.085   3.221 -0.7630  0.7107 -0.5688
  472MOL0     C63625  -0.691   3.123   3.073  0.6129 -0.0701  0.5331
  472MOL0     C63626  -0.645   3.017   2.975 -0.5465 -0.5276  0.7055
  472MOL0     C63627  -0.682   3.039   2.825  0.0062 -1.3239 -0.2247
  472MOL0     C63628  -0.603   3.162   2.771 -0.4934  0.4233 -0.1361
  472MOL0     C63629  -0.643   3.194   2.631 -0.4907  0.0615 -0.1862
  472MOL0    Cl63630  -0.518   3.296   2.569  0.2285 -0.1885 -0.2310
  472MOL0     C63631  -0.752   3.137   3.646  0.4533 -0.3881 -0.2040
  472MOL0     C63632  -0.804   3.117   3.775  0.4145  0.2593  0.2101
  472MOL0     O63633  -0.783   2.853   3.942  0.4529 -0.0739  0.5842
  472MOL0     C63634  -0.890   2.759   4.157  0.6710 -0.1699  0.3377
  472MOL0     C63635  -0.955   2.711   4.271  0.0374 -0.3810  0.1112
  472MOL0     N63636  -0.491   2.641   4.670 -0.1716 -0.3830  0.3323
  472MOL0     N63637  -0.399   2.730   4.651 -0.0813 -0.2771  0.2304
  472MOL0     C63638   0.469   3.433   4.335 -0.4355  0.8563  0.2946
  472MOL0     C63639   0.605   3.384   4.352 -0.7965 -0.1336 -0.5188
  472MOL0     C63640   0.985   3.242   4.584  0.1310  1.0940 -0.4743
  472MOL0     C63641   1.025   3.154   4.474 -0.4698 -0.6662 -0.1963
  472MOL0     C63642   1.150   3.106   4.463  0.2236 -0.9200 -1.0014
  472MOL0     C63643   1.252   3.143   4.562  0.1450 -0.0023  0.6449
  472MOL0     O63644   1.377   3.098   4.537  0.4636 -0.4965  0.4799
  472MOL0     C63645   1.430   3.026   4.647  0.7070 -0.1282  0.5289
  472MOL0     C63646   1.559   2.951   4.622  0.1604  0.3175 -0.0898
  472MOL0     C63647   1.660   3.047   4.544 -0.7730  1.3326  0.0187
  472MOL0     C63648   1.809   3.004   4.568 -0.3627  0.1090  0.1005
  472MOL0     C63649   1.844   3.029   4.701 -0.3767 -0.3943 -1.1026
  472MOL0     C63650   1.878   3.041   4.819  0.1525  0.3702 -0.1468
  472MOL0     C63651   1.214   3.214   4.672  0.7515  0.6214  1.1007
  472MOL0     C63652   1.082   3.267   4.679  0.4687 -0.2246  0.4452
  472MOL0     H63653   0.596   3.265   4.671 -0.1599 -1.5395 -1.0427
  472MOL0     H63654   0.359   3.335   4.644 -2.3693  0.4244 -1.0056
  472MOL0     H63655   0.224   3.512   4.211 -1.9739 -1.3582 -2.7869
  472MOL0     H63656   0.208   3.346   4.237  2.6646  1.1621 -0.9255
  472MOL0     H63657  -0.011   3.530   4.360 -5.4065 -2.1111  0.1849
  472MOL0     H63658  -0.023   3.441   4.202 -0.0996 -0.1004 -0.2624
  472MOL0     H63659   0.028   3.231   4.332  1.6195 -0.5688  1.5947
  472MOL0     H63660   0.032   3.328   4.480  0.7760  1.1709 -0.4277
  472MOL0     H63661  -0.221   3.389   4.443 -0.4851 -0.7267 -0.4988
  472MOL0     H63662  -0.211   3.308   4.286  1.3915 -1.7809 -0.7209
  472MOL0     H63663  -0.161   3.095   4.406  0.5530 -0.0645 -0.6212
  472MOL0     H63664  -0.189   3.190   4.560  1.7039 -1.7117  0.3111
  472MOL0     H63665  -0.414   3.262   4.473 -1.6509 -1.4515  1.5516
  472MOL0     H63666  -0.395   3.154   4.334  0.4167 -1.7476  0.5005
  472MOL0     H63667  -0.444   3.071   4.607  0.9047  1.9601 -0.8205
  472MOL0     H63668  -0.538   3.046   4.461 -1.0487 -4.2272 -0.1472
  472MOL0     H63669  -0.260   2.928   4.541 -1.5585 -2.5360  2.1092
  472MOL0     H63670  -0.335   2.896   4.388  1.9541 -0.7519  0.5928
  472MOL0     H63671  -0.638   2.842   4.470  0.7180  1.3455  1.1853
  472MOL0     H63672  -0.757   2.604   4.478 -1.9389  1.0142  0.8894
  472MOL0     H63673  -0.714   2.486   4.596 -0.8346 -0.3122  4.2418
  472MOL0     H63674  -0.800   2.616   4.790 -0.4601 -1.0714  0.4293
  472MOL0     H63675  -0.919   2.562   4.679 -1.5722  1.3796  0.1151
  472MOL0     H63676  -0.838   2.832   4.605  1.6386 -2.2399 -1.2768
  472MOL0     H63677  -0.905   2.820   4.771  0.1617 -2.0742  1.5500
  472MOL0     H63678  -1.093   2.848   4.628 -0.5853  0.4263 -0.8440
  472MOL0     H63679  -1.094   2.686   4.674  0.9149 -1.0153 -0.4881
  472MOL0     H63680  -0.960   2.974   4.466 -2.6215 -0.5851 -0.7849
  472MOL0     H63681  -0.713   3.102   4.239  0.5694  0.2792  0.0315
  472MOL0     H63682  -0.875   3.169   4.255  0.9783  1.2235  2.3922
  472MOL0     H63683  -0.788   3.133   4.397  0.9806  0.4199 -0.2332
  472MOL0     H63684  -0.524   3.075   3.959 -0.3985  1.1053 -0.5932
  472MOL0     H63685  -0.410   3.089   3.709  0.9613  1.3766  3.4746
  472MOL0     H63686  -0.438   3.002   3.451  0.8936  2.2768  1.3482
  472MOL0     H63687  -0.604   2.950   3.457 -1.0570  0.4780 -0.6852
  472MOL0     H63688  -0.480   3.156   3.265 -0.5537  0.3574  0.1721
  472MOL0     H63689  -0.502   2.987   3.220 -0.0896  1.0426 -2.3634
  472MOL0     H63690  -0.722   3.171   3.275  3.4773  0.9397  2.6374
  472MOL0     H63691  -0.747   3.001   3.250 -3.1910  3.4910  2.9614
  472MOL0     H63692  -0.797   3.141   3.056  0.6782  0.9246  1.1043
  472MOL0     H63693  -0.644   3.219   3.051  0.0383  0.1294  0.1858
  472MOL0     H63694  -0.685   2.920   3.006 -1.0355 -0.7690 -0.6197
  472MOL0     H63695  -0.536   3.003   2.983 -0.5931 -0.5534  1.3935
  472MOL0     H63696  -0.644   2.963   2.755 -0.0585  2.6145 -5.0626
  472MOL0     H63697  -0.789   3.049   2.801 -0.0099 -0.0678  0.2945
  472MOL0     H63698  -0.495   3.148   2.772 -0.4288  0.6969 -1.5437
  472MOL0     H63699  -0.637   3.248   2.828  0.6776  1.1664 -0.5449
  472MOL0     H63700  -0.735   3.253   2.625  0.2329  1.2050 -0.3158
  472MOL0     H63701  -0.653   3.108   2.563  2.0834  1.3323 -2.3284
  472MOL0     H63702  -0.831   3.145   3.573 -2.2701 -1.2637  2.4312
  472MOL0     H63703  -0.909   3.113   3.802  0.7867  2.7231  2.3999
  472MOL0     H63704  -0.882   2.698   4.067  0.1822  0.0575  0.1379
  472MOL0     H63705  -0.999   2.612   4.265 -1.7106  0.4066 -0.5061
  472MOL0     H63706   0.434   3.490   4.250  0.3148 -1.7675 -1.9334
  472MOL0     H63707   0.671   3.395   4.267 -0.6619 -1.4500 -0.6156
  472MOL0     H63708   0.965   3.140   4.384  0.9281 -3.2964 -0.8026
  472MOL0     H63709   1.159   3.032   4.384 -0.7893 -0.7658 -1.2790
  472MOL0     H63710   1.457   3.093   4.729 -1.2123  1.4558 -0.0489
  472MOL0     H63711   1.360   2.949   4.681 -0.6500  0.4561 -0.8478
  472MOL0     H63712   1.529   2.875   4.549 -2.8327  4.7953 -4.1361
  472MOL0     H63713   1.591   2.907   4.717  0.0870 -1.9045 -1.0200
  472MOL0     H63714   1.635   3.150   4.568 -1.3462  1.2663 -0.2601
  472MOL0     H63715   1.654   3.039   4.435  0.3707  1.8880 -0.0953
  472MOL0     H63716   1.876   3.058   4.501  0.5558 -1.7858 -0.6027
  472MOL0     H63717   1.828   2.899   4.543 -0.5919  0.2832 -0.8176
  472MOL0     H63718   1.913   3.073   4.915  0.1035  2.0779 -0.6560
  472MOL0     H63719   1.283   3.221   4.755  2.1916  1.6984 -0.1281
  472MOL0     H63720   1.052   3.333   4.760 -0.4441  2.3399 -1.8428
  473MOL0     O63721   7.345   6.462   5.409  0.6940 -0.8388 -0.0746
  473MOL0     C63722   7.343   6.384   5.505  0.1517 -0.0980  0.6918
  473MOL0     O63723   7.235   6.312   5.538 -0.0221  0.0018  0.1918
  473MOL0     C63724   7.126   6.310   5.452  0.2537 -0.6099  0.0053
  473MOL0     C63725   7.140   6.268   5.317 -0.3308  0.1388  0.0644
  473MOL0     C63726   7.024   6.270   5.241 -0.1762  0.6602  0.3958
  473MOL0     C63727   6.906   6.321   5.299 -0.0663  0.3956  0.4318
  473MOL0     O63728   6.794   6.326   5.222 -0.3783  0.9373  0.0542
  473MOL0     C63729   6.663   6.294   5.276  0.2303 -0.1195  0.2330
  473MOL0     C63730   6.604   6.170   5.212 -1.5439 -0.8517  0.4122
  473MOL0     C63731   6.455   6.142   5.255  0.4211  0.4930 -0.5224
  473MOL0     C63732   6.408   5.995   5.233 -0.6570  0.1841 -0.4528
  473MOL0     C63733   6.400   5.944   5.091  0.5495 -0.1087 -0.3441
  473MOL0     C63734   6.312   5.818   5.079  0.4422  0.0712  0.9501
  473MOL0     C63735   6.309   5.729   5.203 -0.0147 -0.1716  0.0160
  473MOL0     C63736   6.278   5.591   5.159  0.3802 -0.8807  0.2313
  473MOL0     N63737   6.147   5.571   5.088  0.0471 -0.6875 -0.3213
  473MOL0     C63738   6.026   5.625   5.121 -0.2130  0.5542 -0.0362
  473MOL0     C63739   5.949   5.617   5.007 -0.3106  0.3817 -0.1474
  473MOL0     C63740   5.809   5.669   5.002 -0.6236  0.1901  0.6935
  473MOL0     C63741   5.764   5.684   4.857  0.4301 -0.5971 -1.5596
  473MOL0     C63742   5.635   5.770   4.835  1.2855  1.2692 -0.0429
  473MOL0     C63743   5.576   5.862   4.947  0.0297  0.1403 -0.4664
  473MOL0     O63744   5.673   5.968   4.986 -0.1389  0.2042  0.4002
  473MOL0     C63745   5.617   6.085   5.032  0.3649  0.4985 -0.3549
  473MOL0     C63746   5.680   6.210   5.002  0.6481 -0.2896 -0.4712
  473MOL0     C63747   5.637   6.332   5.042 -0.0110 -0.5868  0.2133
  473MOL0     C63748   5.717   6.458   5.005 -0.8887 -1.3764  1.1248
  473MOL0     C63749   5.524   6.338   5.137 -0.7806 -0.3020  0.6447
  473MOL0     C63750   5.459   6.462   5.198 -0.7801  0.7175 -0.1718
  473MOL0     O63751   5.325   6.438   5.222 -0.5835 -0.0370  0.0805
  473MOL0     C63752   5.254   6.484   5.323 -0.3323 -0.5863  2.3896
  473MOL0     C63753   5.216   6.621   5.328 -0.2100 -0.1406 -0.8614
  473MOL0     C63754   5.132   6.661   5.444  0.0159  0.6149  0.7280
  473MOL0     C63755   5.086   6.565   5.541  0.2641  0.0112 -0.4613
  473MOL0     O63756   5.036   6.627   5.650 -0.9333  0.0305 -0.6585
  473MOL0     C63757   5.070   6.561   5.777 -0.4817  0.0794  0.9068
  473MOL0     C63758   5.005   6.641   5.883  0.4174  0.6659  0.0800
  473MOL0     C63759   5.038   6.788   5.879  0.9791  0.2866 -1.0734
  473MOL0     C63760   5.013   6.873   6.010  0.0133 -0.4608 -0.0782
  473MOL0     C63761   4.870   6.909   6.047 -0.3196 -0.9186  0.0639
  473MOL0     C63762   4.787   6.974   5.935  0.2443  0.3262  0.8746
  473MOL0     C63763   4.819   7.128   5.926  0.3333 -0.0939 -0.6672
  473MOL0     C63764   4.797   7.183   5.788 -0.1832  0.8134  0.0165
  473MOL0    Cl63765   4.939   7.147   5.686 -0.1554 -0.4564 -0.0045
  473MOL0     C63766   5.122   6.433   5.529  0.1404 -0.3060 -0.1849
  473MOL0     C63767   5.206   6.389   5.414  0.1182  0.2619  0.7773
  473MOL0     O63768   5.534   6.543   5.249  0.5098  0.1442 -1.1349
  473MOL0     C63769   5.456   6.218   5.164  0.2139 -0.8181 -0.9720
  473MOL0     C63770   5.501   6.096   5.114  0.1045  0.5692  1.0073
  473MOL0     N63771   6.025   5.543   4.918 -0.1438  0.5169 -0.3485
  473MOL0     N63772   6.140   5.527   4.968  0.5076  0.5197 -0.5581
  473MOL0     C63773   6.889   6.356   5.433 -1.5463 -0.8859 -0.1494
  473MOL0     C63774   7.005   6.347   5.512 -0.0004 -0.8079 -0.0531
  473MOL0     C63775   7.455   6.399   5.598  0.4546  0.1349  0.1226
  473MOL0     C63776   7.444   6.323   5.717  0.4309  0.9343  0.6624
  473MOL0     C63777   7.529   6.353   5.819 -0.4922  0.5633 -0.3830
  473MOL0     C63778   7.637   6.441   5.792 -0.4288 -1.1421 -0.5905
  473MOL0     O63779   7.722   6.486   5.889 -0.5558  0.3824 -0.5966
  473MOL0     C63780   7.790   6.396   5.979 -0.0923  0.1116  0.8230
  473MOL0     C63781   7.866   6.465   6.085 -0.6891 -0.1446 -0.8108
  473MOL0     C63782   8.008   6.490   6.061 -0.3728  0.4712 -0.2557
  473MOL0     C63783   8.085   6.548   6.183 -0.6678  0.2033  0.1534
  473MOL0     C63784   8.225   6.528   6.161 -0.4214  0.1342 -0.0456
  473MOL0     C63785   8.340   6.510   6.136 -0.6091 -0.1536  0.7451
  473MOL0     C63786   7.662   6.496   5.663 -1.2586 -0.7817  0.2793
  473MOL0     C63787   7.572   6.478   5.568 -0.8031  0.0883 -0.0791
  473MOL0     H63788   7.231   6.225   5.275 -0.4176 -0.4117  0.4386
  473MOL0     H63789   7.021   6.235   5.139 -1.1656  1.2456  0.2080
  473MOL0     H63790   6.667   6.273   5.384 -0.1834  3.0078  0.9857
  473MOL0     H63791   6.601   6.381   5.253  1.1394  0.8128  1.1413
  473MOL0     H63792   6.611   6.179   5.103 -0.6249  2.5201  0.6249
  473MOL0     H63793   6.671   6.091   5.246  0.7824 -0.0306 -1.9008
  473MOL0     H63794   6.452   6.163   5.362  1.7437  2.6772 -0.8562
  473MOL0     H63795   6.393   6.224   5.217  0.3026  0.1324 -1.1344
  473MOL0     H63796   6.485   5.948   5.294 -0.7798  2.3778  1.5097
  473MOL0     H63797   6.311   5.985   5.283 -0.0790 -3.5699  0.2015
  473MOL0     H63798   6.368   6.023   5.023  0.7404 -0.0579 -0.3756
  473MOL0     H63799   6.498   5.920   5.050  1.3845  0.6443  1.1111
  473MOL0     H63800   6.210   5.853   5.063  0.7506  0.7620  0.4736
  473MOL0     H63801   6.350   5.759   4.995  0.5557 -1.7635  2.2183
  473MOL0     H63802   6.411   5.727   5.241 -0.4534 -1.6564  1.2132
  473MOL0     H63803   6.241   5.775   5.275  0.1091 -0.1254  0.1025
  473MOL0     H63804   6.258   5.527   5.246 -0.7247 -2.0333 -0.8393
  473MOL0     H63805   6.355   5.557   5.090 -0.4190  1.4973 -2.0219
  473MOL0     H63806   6.003   5.690   5.204  3.5660  2.7700 -0.4723
  473MOL0     H63807   5.733   5.614   5.059 -3.8857  1.6983 -1.8837
  473MOL0     H63808   5.808   5.765   5.054 -2.0799 -0.2513  1.5278
  473MOL0     H63809   5.762   5.588   4.806  1.9066 -0.6108 -1.6497
  473MOL0     H63810   5.852   5.738   4.820  2.7521 -3.0301  0.0611
  473MOL0     H63811   5.559   5.694   4.818  1.8765  1.0668 -2.0176
  473MOL0     H63812   5.636   5.836   4.748 -2.8696  0.9973 -0.4704
  473MOL0     H63813   5.552   5.805   5.037  1.1554 -0.1008 -0.3090
  473MOL0     H63814   5.478   5.887   4.905  1.1863  4.4952 -1.0695
  473MOL0     H63815   5.769   6.222   4.941  0.7602  4.1917  0.2100
  473MOL0     H63816   5.770   6.509   5.086  1.0950 -0.0647 -0.8867
  473MOL0     H63817   5.784   6.432   4.922 -1.6966 -0.5202  0.1758
  473MOL0     H63818   5.649   6.538   4.974 -0.8841 -0.9075  2.2981
  473MOL0     H63819   5.228   6.695   5.248  1.5730 -1.2513 -1.6788
  473MOL0     H63820   5.093   6.762   5.441  0.2556  0.6843 -0.2395
  473MOL0     H63821   5.036   6.457   5.771 -1.4544  0.4874 -1.5049
  473MOL0     H63822   5.179   6.561   5.788 -0.0314 -1.0719 -2.3906
  473MOL0     H63823   4.897   6.622   5.890  0.0245  2.7301  0.4316
  473MOL0     H63824   5.036   6.601   5.980 -1.4338  1.6666  1.1484
  473MOL0     H63825   4.983   6.831   5.795 -0.3452  1.0938  0.1584
  473MOL0     H63826   5.145   6.808   5.864  1.2883  1.0261  1.5261
  473MOL0     H63827   5.077   6.836   6.090  2.7154 -0.7381 -2.2153
  473MOL0     H63828   5.046   6.976   5.992 -0.6988 -0.0435  0.9049
  473MOL0     H63829   4.870   6.973   6.136 -2.1103 -3.0068  1.6410
  473MOL0     H63830   4.817   6.815   6.064 -0.1078 -1.1343 -0.4593
  473MOL0     H63831   4.801   6.940   5.832 -0.6753 -1.3048  1.2512
  473MOL0     H63832   4.682   6.946   5.948 -1.0299 -0.8960 -6.9171
  473MOL0     H63833   4.922   7.142   5.958  0.0118  1.2249 -0.1364
  473MOL0     H63834   4.748   7.187   5.986  1.0639  0.0352  0.0956
  473MOL0     H63835   4.783   7.291   5.783 -0.5934  0.7281 -1.1550
  473MOL0     H63836   4.715   7.141   5.728 -1.2209  0.4683  1.6117
  473MOL0     H63837   5.095   6.365   5.608 -2.8176 -4.5772 -4.3374
  473MOL0     H63838   5.248   6.290   5.398  2.4921  1.1039  1.3560
  473MOL0     H63839   5.387   6.217   5.248  3.7608  0.7353  2.2165
  473MOL0     H63840   5.464   6.005   5.161  0.3313  0.2762  0.6216
  473MOL0     H63841   6.807   6.415   5.471  0.2285  3.7909 -2.6542
  473MOL0     H63842   6.991   6.384   5.613 -1.5417  1.9066 -1.1546
  473MOL0     H63843   7.349   6.275   5.740  0.6596 -1.0357 -1.9643
  473MOL0     H63844   7.514   6.334   5.925 -0.3915 -3.0730 -0.9254
  473MOL0     H63845   7.706   6.350   6.032  0.5058 -0.8223  0.9722
  473MOL0     H63846   7.861   6.335   5.923 -0.5523 -0.7268  1.1497
  473MOL0     H63847   7.849   6.395   6.168 -0.2169 -0.0664 -0.6479
  473MOL0     H63848   7.818   6.555   6.126  0.1381 -0.6323  1.3735
  473MOL0     H63849   8.010   6.570   5.987 -1.4914  1.3435  0.6087
  473MOL0     H63850   8.057   6.402   6.020 -0.8669  1.1250 -2.3937
  473MOL0     H63851   8.050   6.509   6.279  0.2908 -1.6149 -0.2027
  473MOL0     H63852   8.067   6.655   6.199  1.2233  0.7661 -1.1324
  473MOL0     H63853   8.446   6.505   6.143 -0.5887  0.0701  0.6268
  473MOL0     H63854   7.748   6.558   5.639  0.8325 -3.5992  0.0059
  473MOL0     H63855   7.580   6.521   5.469  2.4165  1.9887  0.8382
  474MOL0     O63856   8.914   0.755   7.612 -0.2529 -0.1218  0.0417
  474MOL0     C63857   9.012   0.713   7.660 -1.1881  0.1989 -0.2784
  474MOL0     O63858   9.033   0.606   7.735 -0.0393 -0.9012 -0.6420
  474MOL0     C63859   8.926   0.541   7.793 -0.3012 -0.9907  0.1645
  474MOL0     C63860   8.931   0.398   7.787  1.0449  0.2229 -0.1574
  474MOL0     C63861   8.830   0.325   7.845  0.3181  0.1243  0.6140
  474MOL0     C63862   8.723   0.397   7.903  0.3589  0.7724  0.4579
  474MOL0     O63863   8.634   0.330   7.986 -0.1041  0.2822 -0.1629
  474MOL0     C63864   8.535   0.258   7.917 -0.9492  0.2785  0.7276
  474MOL0     C63865   8.420   0.227   8.022 -0.0262  1.2640 -0.0556
  474MOL0     C63866   8.439   0.075   8.051  0.2934 -0.0348 -0.1570
  474MOL0     C63867   8.334   0.035   8.166  0.7878  0.1941  0.8869
  474MOL0     C63868   8.179  -0.006   8.139  0.6443  0.5560  0.5308
  474MOL0     C63869   8.100   0.085   8.037 -1.1532  0.6852 -0.0011
  474MOL0     C63870   8.074   0.222   8.095 -0.3363 -0.1640  0.2359
  474MOL0     C63871   7.962   0.292   8.018  1.1535  0.4428 -0.2645
  474MOL0     N63872   7.910   0.416   8.085 -0.0850  0.2141  0.1326
  474MOL0     C63873   7.825   0.418   8.193  0.0613 -0.2897  0.4121
  474MOL0     C63874   7.760   0.541   8.195 -1.1761 -0.3210  0.8818
  474MOL0     C63875   7.636   0.574   8.270  0.0254 -0.1699 -1.0617
  474MOL0     C63876   7.664   0.589   8.423  0.7022 -0.1844 -1.2243
  474MOL0     C63877   7.571   0.688   8.509 -0.1778 -0.3290 -0.5793
  474MOL0     C63878   7.615   0.696   8.658 -0.0393  0.4000  0.4763
  474MOL0     O63879   7.510   0.754   8.743  0.5644 -1.7129  0.5603
  474MOL0     C63880   7.427   0.674   8.814 -0.5526 -0.0495 -0.3419
  474MOL0     C63881   7.469   0.639   8.942  0.5690 -0.7846  0.3848
  474MOL0     C63882   7.412   0.544   9.021  0.2159 -0.6075  1.0142
  474MOL0     C63883   7.493   0.505   9.138  0.0345  0.3177 -0.9448
  474MOL0     C63884   7.294   0.474   8.971 -0.6334 -0.1108 -0.1078
  474MOL0     C63885   7.212   0.380   9.051 -0.1522  0.4207  1.4930
  474MOL0     O63886   7.203   0.411   9.188  0.6971 -0.4455  0.1474
  474MOL0     C63887   7.126   0.329   9.269 -0.1749  0.8625 -0.0844
  474MOL0     C63888   7.000   0.270   9.235  0.2996 -0.4243 -0.5477
  474MOL0     C63889   6.932   0.188   9.325  0.4023 -0.0470 -1.0542
  474MOL0     C63890   6.979   0.166   9.450 -0.0581  0.3770  0.8170
  474MOL0     O63891   6.895   0.096   9.532  0.4387 -0.2872  0.8559
  474MOL0     C63892   6.924   0.106   9.674 -0.4788  0.6602 -0.1852
  474MOL0     C63893   6.832   0.021   9.761  0.1521  0.8557  1.0890
  474MOL0     C63894   6.874   0.022   9.910  0.2722  0.1996  0.5600
  474MOL0     C63895   6.872   0.158   9.971  0.1205  0.2132  0.4159
  474MOL0     C63896   6.904   0.164  10.115  0.0912  0.4324  0.7749
  474MOL0     C63897   7.035   0.093  10.149 -0.6198  0.0773  0.3133
  474MOL0     C63898   7.049   0.084  10.295 -1.3627  0.0113 -0.6968
  474MOL0     C63899   7.170  -0.006  10.355  0.1863  0.4694  0.3295
  474MOL0    Cl63900   7.331   0.057  10.324  0.0657 -0.4180 -0.1537
  474MOL0     C63901   7.097   0.232   9.487  0.3718 -0.2788 -0.1161
  474MOL0     C63902   7.162   0.324   9.405 -0.3461 -0.4610  0.3057
  474MOL0     O63903   7.164   0.277   8.995  0.1935 -0.4053 -0.6981
  474MOL0     C63904   7.245   0.512   8.844 -0.0094 -0.4627 -0.9380
  474MOL0     C63905   7.309   0.618   8.773 -0.5867  1.2022  0.7124
  474MOL0     N63906   7.810   0.609   8.085 -0.1058 -0.3919 -0.4140
  474MOL0     N63907   7.902   0.537   8.028  0.2399  0.4857 -0.3660
  474MOL0     C63908   8.712   0.533   7.902 -0.1306  0.0251  0.1101
  474MOL0     C63909   8.815   0.612   7.848  0.0886  1.2275  0.4495
  474MOL0     C63910   9.132   0.796   7.623 -0.4774 -0.1054  0.4315
  474MOL0     C63911   9.135   0.889   7.514  0.6556 -0.2145 -0.3783
  474MOL0     C63912   9.253   0.944   7.464  0.4944 -0.2859 -0.6594
  474MOL0     C63913   9.379   0.902   7.515  0.8435 -0.9626 -0.0800
  474MOL0     O63914   9.505   0.949   7.478  0.0653 -0.2828 -0.0381
  474MOL0     C63915   9.505   1.043   7.368 -0.0404  1.4283  0.1951
  474MOL0     C63916   9.494   0.972   7.228  0.2532  0.0420 -0.8436
  474MOL0     C63917   9.566   0.839   7.220 -1.3403  0.2758  0.2397
  474MOL0     C63918   9.727   0.854   7.248 -0.3266 -0.1544  0.1417
  474MOL0     C63919   9.796   0.968   7.187  0.3116  0.1226 -0.2466
  474MOL0     C63920   9.840   1.068   7.136  0.5453 -0.2068  0.7952
  474MOL0     C63921   9.378   0.818   7.626 -0.5414  0.5053 -0.2948
  474MOL0     C63922   9.260   0.773   7.678  0.4634  0.4421  0.2361
  474MOL0     H63923   9.008   0.353   7.726 -0.7843 -1.5529 -1.2969
  474MOL0     H63924   8.834   0.217   7.839  0.4478  0.1793 -0.3160
  474MOL0     H63925   8.478   0.314   7.842 -3.8358 -4.0557 -0.6926
  474MOL0     H63926   8.585   0.177   7.863  1.3592  1.9969  0.0861
  474MOL0     H63927   8.414   0.289   8.112  2.4426 -0.7712  1.6440
  474MOL0     H63928   8.321   0.243   7.977 -1.2369 -1.8572  1.2233
  474MOL0     H63929   8.426   0.018   7.959 -0.9894  0.2894 -0.1962
  474MOL0     H63930   8.537   0.059   8.097 -0.3875 -2.0430  0.7170
  474MOL0     H63931   8.369  -0.046   8.229 -0.7177 -0.5969  0.7558
  474MOL0     H63932   8.340   0.113   8.243  0.1767  0.1244  1.0153
  474MOL0     H63933   8.179  -0.108   8.099 -0.3587  0.0990  1.6553
  474MOL0     H63934   8.123  -0.002   8.232 -0.1133 -0.4384  0.1361
  474MOL0     H63935   8.168   0.102   7.953  1.0256  5.2634  2.3582
  474MOL0     H63936   8.010   0.029   8.007  0.2973 -0.3855 -2.7267
  474MOL0     H63937   8.036   0.201   8.196 -1.2790 -1.0581 -0.2824
  474MOL0     H63938   8.165   0.281   8.107  0.0466 -0.8689  0.8741
  474MOL0     H63939   7.882   0.217   8.011  2.1582 -0.8288  1.2022
  474MOL0     H63940   7.992   0.310   7.915 -1.3596 -0.3160 -1.2102
  474MOL0     H63941   7.791   0.330   8.247 -0.2227  0.0821  0.8426
  474MOL0     H63942   7.605   0.675   8.244 -1.9939 -0.6322 -0.6772
  474MOL0     H63943   7.544   0.514   8.262 -3.4072  4.4260 -0.4075
  474MOL0     H63944   7.767   0.623   8.430  0.3419  1.7221 -3.7352
  474MOL0     H63945   7.661   0.487   8.463  0.5972  0.8669  1.6709
  474MOL0     H63946   7.468   0.664   8.484 -0.2155 -0.3643 -0.3942
  474MOL0     H63947   7.592   0.789   8.471 -3.7808 -0.6449 -3.9940
  474MOL0     H63948   7.699   0.767   8.667  0.0264  0.5242 -0.9971
  474MOL0     H63949   7.629   0.598   8.705 -3.5615  0.0086  0.9320
  474MOL0     H63950   7.556   0.689   8.981  0.3813 -1.9436  2.4730
  474MOL0     H63951   7.452   0.414   9.183 -0.4478  0.8053 -0.3869
  474MOL0     H63952   7.598   0.485   9.115  0.7843  0.4630  1.9569
  474MOL0     H63953   7.490   0.591   9.205  2.8215  0.7664 -1.2926
  474MOL0     H63954   6.965   0.296   9.135  2.2038 -0.5443 -1.2913
  474MOL0     H63955   6.843   0.131   9.300  1.0460 -1.6371  0.0948
  474MOL0     H63956   7.018   0.050   9.679 -0.3871  0.8716  0.6081
  474MOL0     H63957   6.927   0.212   9.700  2.6010  0.5680  0.2982
  474MOL0     H63958   6.729   0.049   9.740  0.2011 -0.1692 -0.7166
  474MOL0     H63959   6.826  -0.086   9.743 -0.3206  1.0118  0.3075
  474MOL0     H63960   6.972  -0.025   9.921  0.5714  1.2484  3.0989
  474MOL0     H63961   6.805  -0.041   9.967 -1.1516 -0.7801 -2.0761
  474MOL0     H63962   6.944   0.224   9.923 -2.6329  1.4061 -2.4777
  474MOL0     H63963   6.770   0.192   9.949 -0.6712 -2.2144 -0.0591
  474MOL0     H63964   6.824   0.118  10.173 -1.0548  3.1432  1.4681
  474MOL0     H63965   6.900   0.265  10.155 -3.5154  0.7057  0.0652
  474MOL0     H63966   7.034  -0.013  10.121 -1.4312 -0.1955  1.2709
  474MOL0     H63967   7.116   0.143  10.096  1.6630 -1.2280  2.3690
  474MOL0     H63968   6.952   0.058  10.340 -1.3410 -1.2057 -1.3165
  474MOL0     H63969   7.092   0.175  10.338 -0.4353  0.0982 -1.7918
  474MOL0     H63970   7.178  -0.102  10.302 -2.8954 -0.4254  1.2377
  474MOL0     H63971   7.150  -0.022  10.461 -2.5870  1.3882  0.0344
  474MOL0     H63972   7.147   0.227   9.583  1.0137  4.3089  0.0077
  474MOL0     H63973   7.240   0.392   9.437 -1.9610  0.6931  1.9938
  474MOL0     H63974   7.154   0.468   8.804  0.5307 -0.9797 -1.6202
  474MOL0     H63975   7.270   0.636   8.674 -1.0433 -0.1129  0.6354
  474MOL0     H63976   8.632   0.584   7.954 -0.0820 -0.3347  0.5378
  474MOL0     H63977   8.806   0.720   7.844 -0.4634  1.2822 -5.2582
  474MOL0     H63978   9.043   0.921   7.467  0.4893  1.5356  1.0129
  474MOL0     H63979   9.244   1.017   7.385  1.7041  0.4413 -0.1517
  474MOL0     H63980   9.427   1.119   7.379  0.3975  1.8475  0.4635
  474MOL0     H63981   9.602   1.093   7.356  1.8908 -1.3072  2.9832
  474MOL0     H63982   9.539   1.035   7.151 -1.0986  3.5981  1.0338
  474MOL0     H63983   9.388   0.976   7.203 -0.0654  0.5818  0.5130
  474MOL0     H63984   9.546   0.796   7.121 -3.7347 -1.3102  1.2944
  474MOL0     H63985   9.517   0.777   7.296 -0.6100  0.0830  0.5566
  474MOL0     H63986   9.773   0.769   7.198  0.1897  1.0212 -1.4581
  474MOL0     H63987   9.750   0.846   7.355  0.6527 -0.3918 -0.0778
  474MOL0     H63988   9.878   1.158   7.092  0.2670  0.8022  2.5004
  474MOL0     H63989   9.476   0.796   7.669 -0.0755  1.3572 -0.8863
  474MOL0     H63990   9.251   0.704   7.762 -0.2806  1.0318  0.6519
  475MOL0     O63991   7.538   0.188   1.353 -0.0522 -0.5859  0.0726
  475MOL0     C63992   7.517   0.085   1.285  0.1026 -0.0692 -0.1669
  475MOL0     O63993   7.598   0.029   1.198 -0.9816 -0.5579  0.6467
  475MOL0     C63994   7.725   0.076   1.193  0.6012 -0.2537  0.3923
  475MOL0     C63995   7.832   0.041   1.276 -0.0929 -0.2040  0.5212
  475MOL0     C63996   7.949   0.118   1.275 -0.9377  0.5321 -0.0772
  475MOL0     C63997   7.957   0.233   1.193 -0.6667  0.0207 -1.0689
  475MOL0     O63998   8.069   0.311   1.155 -0.1007 -0.6116 -0.4761
  475MOL0     C63999   8.185   0.303   1.246  1.0766 -0.9810 -0.7886
  475MOL0     C64000   8.294   0.223   1.190 -0.1938  0.2292 -0.0061
  475MOL0     C64001   8.337   0.288   1.048 -0.0360  0.0310 -1.3143
  475MOL0     C64002   8.458   0.219   0.997 -0.4189  0.1782 -0.3038
  475MOL0     C64003   8.465   0.258   0.851  0.3556 -0.8639 -0.5486
  475MOL0     C64004   8.578   0.187   0.773  0.1187  0.0620  0.2742
  475MOL0     C64005   8.563   0.251   0.632  0.2786  0.4641  0.8895
  475MOL0     C64006   8.572   0.411   0.616  1.0053 -0.0537 -0.1704
  475MOL0     N64007   8.649   0.447   0.499 -1.3806  0.6426 -0.1455
  475MOL0     C64008   8.783   0.479   0.514 -0.5105 -0.2759  0.4013
  475MOL0     C64009   8.823   0.515   0.384 -1.5896 -1.0025  0.2295
  475MOL0     C64010   8.953   0.569   0.325 -0.3666  0.3623  1.3353
  475MOL0     C64011   9.021   0.461   0.242 -0.2011  0.4858  0.5683
  475MOL0     C64012   9.026   0.312   0.304  0.4280 -0.5197  0.8977
  475MOL0     C64013   8.918   0.216   0.275 -0.3425  0.5157  0.2380
  475MOL0     O64014   8.933   0.160   0.145  0.1371 -0.1500 -0.3992
  475MOL0     C64015   8.967   0.028   0.151  1.1874  0.6808  0.7410
  475MOL0     C64016   8.932  -0.057   0.040  0.1509 -0.7974 -0.1870
  475MOL0     C64017   8.954  -0.194   0.041 -1.9699 -0.4958 -0.8409
  475MOL0     C64018   8.922  -0.269  -0.082  0.5906 -0.1382  0.1141
  475MOL0     C64019   9.047  -0.243   0.145 -0.3650  0.3064  0.3897
  475MOL0     C64020   9.110  -0.387   0.145 -0.3474  1.4848 -0.8492
  475MOL0     O64021   9.145  -0.437   0.266  0.4108 -0.0336  0.1124
  475MOL0     C64022   9.152  -0.571   0.282  0.7833  0.9240  0.1616
  475MOL0     C64023   9.217  -0.615   0.390 -0.9674 -0.7612 -0.7176
  475MOL0     C64024   9.238  -0.749   0.424  0.1681 -0.5712  0.3108
  475MOL0     C64025   9.175  -0.843   0.342  0.4811 -0.0851 -0.8293
  475MOL0     O64026   9.169  -0.974   0.365 -0.4540 -0.4041  0.1908
  475MOL0     C64027   9.260  -1.029   0.474  0.0493  0.5536 -0.5233
  475MOL0     C64028   9.401  -1.070   0.424  0.4244  0.2665 -0.0560
  475MOL0     C64029   9.394  -1.213   0.370 -0.2057  0.3304 -0.4539
  475MOL0     C64030   9.538  -1.256   0.330  0.8393 -0.0146 -0.0387
  475MOL0     C64031   9.555  -1.401   0.311 -0.2764 -0.0073 -0.0191
  475MOL0     C64032   9.496  -1.440   0.182 -0.7394 -1.2203  0.8471
  475MOL0     C64033   9.552  -1.582   0.150  0.1159 -0.8984 -1.0289
  475MOL0     C64034   9.538  -1.612   0.007 -0.4837  0.2401  0.5968
  475MOL0    Cl64035   9.573  -1.773  -0.040 -0.2022 -0.0072 -0.0082
  475MOL0     C64036   9.106  -0.808   0.233 -1.2823 -0.3750 -0.8639
  475MOL0     C64037   9.091  -0.671   0.206  0.0893  0.6295  0.2952
  475MOL0     O64038   9.124  -0.450   0.044 -0.4950 -0.6409 -0.0706
  475MOL0     C64039   9.078  -0.169   0.248 -0.2399 -0.1693  0.0453
  475MOL0     C64040   9.045  -0.036   0.252  0.0575 -0.4934 -0.5787
  475MOL0     N64041   8.719   0.488   0.296 -0.2329  0.5453 -0.4019
  475MOL0     N64042   8.616   0.439   0.367 -0.4032  0.6901 -0.3757
  475MOL0     C64043   7.852   0.265   1.117  0.4004 -0.4247  1.2072
  475MOL0     C64044   7.731   0.187   1.122 -0.8411 -0.0431 -0.5061
  475MOL0     C64045   7.385   0.018   1.297  0.7885 -1.1971  0.6185
  475MOL0     C64046   7.328  -0.013   1.175  0.5928 -0.0227  0.3767
  475MOL0     C64047   7.197  -0.063   1.165  0.2243 -0.0491  0.2511
  475MOL0     C64048   7.127  -0.080   1.284  1.4627  0.2636 -0.1442
  475MOL0     O64049   7.003  -0.146   1.294  0.8859  0.1447 -0.3114
  475MOL0     C64050   6.924  -0.146   1.175  0.4663  0.5458 -0.5369
  475MOL0     C64051   6.776  -0.141   1.225  0.8252 -1.0322  0.9424
  475MOL0     C64052   6.739  -0.002   1.300 -0.2551 -0.4055  0.2130
  475MOL0     C64053   6.598  -0.008   1.339  0.4769  0.2154  0.6962
  475MOL0     C64054   6.514   0.004   1.218 -0.3045  0.1220  0.4619
  475MOL0     C64055   6.419   0.015   1.140 -0.4732 -0.7129 -0.0383
  475MOL0     C64056   7.188  -0.051   1.406  0.5583  0.3006 -1.4585
  475MOL0     C64057   7.315   0.003   1.411  0.1379  0.1569 -0.3736
  475MOL0     H64058   7.825  -0.039   1.349  1.3601  0.7293  1.7595
  475MOL0     H64059   8.038   0.081   1.324 -0.0231  2.6548 -0.0390
  475MOL0     H64060   8.225   0.400   1.278  2.4293 -2.1799  1.4600
  475MOL0     H64061   8.153   0.262   1.343  2.4362 -0.0259  0.0951
  475MOL0     H64062   8.389   0.216   1.243  0.6479 -2.2201 -1.6603
  475MOL0     H64063   8.258   0.121   1.177  2.0733 -0.9739  2.3569
  475MOL0     H64064   8.250   0.264   0.986 -0.1492 -0.8756 -0.8233
  475MOL0     H64065   8.339   0.397   1.060  0.7348 -0.1675  0.7478
  475MOL0     H64066   8.549   0.248   1.049  1.1309 -3.6915 -0.4925
  475MOL0     H64067   8.445   0.110   1.004  1.9840 -0.2127 -1.1301
  475MOL0     H64068   8.367   0.236   0.808  0.3235  2.3340 -2.4159
  475MOL0     H64069   8.493   0.363   0.865  1.0390 -1.1689  0.5155
  475MOL0     H64070   8.676   0.204   0.819 -0.7379 -0.0466  2.2444
  475MOL0     H64071   8.551   0.081   0.775 -2.9080  0.6958 -1.0021
  475MOL0     H64072   8.630   0.208   0.556 -2.4079  0.9592 -1.9561
  475MOL0     H64073   8.466   0.208   0.606  1.4241 -2.0384  0.4692
  475MOL0     H64074   8.617   0.454   0.706 -1.6650 -2.2534  2.4495
  475MOL0     H64075   8.470   0.450   0.607  0.4521 -1.5212 -0.6732
  475MOL0     H64076   8.843   0.473   0.604  0.8185  0.9030 -0.3514
  475MOL0     H64077   8.929   0.651   0.258  2.0636  1.5930  1.8664
  475MOL0     H64078   9.018   0.595   0.409  0.3628 -0.7591  1.1502
  475MOL0     H64079   9.128   0.475   0.223 -0.7222  1.5791 -1.9287
  475MOL0     H64080   8.973   0.457   0.144  2.6019 -0.8819 -0.8806
  475MOL0     H64081   9.038   0.334   0.410  0.0396  0.3005  0.7834
  475MOL0     H64082   9.120   0.270   0.269  0.6050  0.6995 -0.1821
  475MOL0     H64083   8.819   0.261   0.280  0.3307  2.0670  0.2860
  475MOL0     H64084   8.914   0.144   0.358  0.0321  0.6617  0.3857
  475MOL0     H64085   8.881  -0.006  -0.041  0.8781 -1.5549 -1.1385
  475MOL0     H64086   9.014  -0.286  -0.138 -0.1473  0.1414 -1.2224
  475MOL0     H64087   8.888  -0.368  -0.049 -1.6361  0.7633  0.6869
  475MOL0     H64088   8.837  -0.229  -0.138  0.3587  0.1663  0.6756
  475MOL0     H64089   9.278  -0.549   0.451  0.8544 -2.9525 -0.0407
  475MOL0     H64090   9.290  -0.776   0.516 -0.3709  0.0241  0.8043
  475MOL0     H64091   9.271  -0.958   0.556  0.2648  2.1863 -1.8987
  475MOL0     H64092   9.205  -1.113   0.515 -1.0868  1.4972 -0.0831
  475MOL0     H64093   9.440  -1.000   0.350  0.2458  0.3488 -0.0729
  475MOL0     H64094   9.459  -1.058   0.515 -0.8267 -0.4204  0.8664
  475MOL0     H64095   9.343  -1.206   0.274 -2.5222  3.8828  0.8371
  475MOL0     H64096   9.353  -1.289   0.438  3.8592 -2.8148 -1.1332
  475MOL0     H64097   9.563  -1.205   0.236  0.0784 -0.2443 -0.3738
  475MOL0     H64098   9.605  -1.228   0.411  0.1865  3.9075 -0.6295
  475MOL0     H64099   9.511  -1.455   0.395  1.0463  2.2549  2.2650
  475MOL0     H64100   9.664  -1.413   0.318  0.1391  3.0203  0.0564
  475MOL0     H64101   9.388  -1.422   0.173 -0.7343  0.2047  2.8104
  475MOL0     H64102   9.542  -1.371   0.111 -1.8507  2.1704  3.1493
  475MOL0     H64103   9.484  -1.651   0.203  0.9769 -0.9635  0.0219
  475MOL0     H64104   9.655  -1.607   0.177  0.1430  0.2304 -0.0105
  475MOL0     H64105   9.593  -1.537  -0.050 -0.4584  1.9300  2.7190
  475MOL0     H64106   9.429  -1.604  -0.004 -0.4514 -1.5983 -1.9634
  475MOL0     H64107   9.083  -0.888   0.164  2.8881 -2.8740  0.3038
  475MOL0     H64108   9.027  -0.645   0.123 -3.6272  1.5268  3.1710
  475MOL0     H64109   9.141  -0.206   0.328 -2.6754 -3.0760  0.7994
  475MOL0     H64110   9.090   0.004   0.342  2.4956 -1.3846 -1.3196
  475MOL0     H64111   7.866   0.348   1.048  0.5021 -2.2370 -1.0571
  475MOL0     H64112   7.644   0.224   1.068 -2.6486  0.4867  2.5709
  475MOL0     H64113   7.377   0.014   1.082 -0.2349 -0.9941 -0.3635
  475MOL0     H64114   7.159  -0.100   1.071 -0.7170 -1.6509  1.2177
  475MOL0     H64115   6.946  -0.055   1.118  1.8629 -0.3474 -1.4952
  475MOL0     H64116   6.950  -0.222   1.101  0.5385 -1.5680  1.5583
  475MOL0     H64117   6.757  -0.217   1.302 -2.0811  0.9101  2.3777
  475MOL0     H64118   6.705  -0.135   1.142  0.4121  2.2267  1.3822
  475MOL0     H64119   6.772   0.078   1.233  3.3597  0.8502  3.1201
  475MOL0     H64120   6.792   0.003   1.396 -0.0822 -2.3122  0.2502
  475MOL0     H64121   6.584   0.083   1.399  0.5685 -0.6317  2.0549
  475MOL0     H64122   6.576  -0.100   1.392  2.3166 -0.4117  0.4570
  475MOL0     H64123   6.345   0.020   1.063 -0.8191  0.1682  0.3345
  475MOL0     H64124   7.135  -0.071   1.498 -2.6345 -2.2216 -3.6011
  475MOL0     H64125   7.361   0.028   1.506  4.3496  2.0756 -2.6558
  476MOL0     O64126   5.122   2.443   4.072  0.1567  0.1480  0.2158
  476MOL0     C64127   5.132   2.401   4.187  0.4307 -0.3799 -0.5584
  476MOL0     O64128   5.245   2.361   4.243 -0.4744  0.7257 -0.0747
  476MOL0     C64129   5.363   2.424   4.220  0.2964 -0.0042  0.8665
  476MOL0     C64130   5.454   2.411   4.325 -0.6265  0.6977 -0.1808
  476MOL0     C64131   5.578   2.465   4.325  1.0653  0.0312 -0.1086
  476MOL0     C64132   5.625   2.536   4.215  0.2476 -0.0341 -1.0127
  476MOL0     O64133   5.754   2.570   4.223  0.3346 -0.0687  0.7404
  476MOL0     C64134   5.818   2.630   4.106  0.0668 -0.1615  0.6212
  476MOL0     C64135   5.763   2.770   4.087  0.2002 -0.3310 -0.7412
  476MOL0     C64136   5.859   2.883   4.122 -0.1840  0.5885 -1.0288
  476MOL0     C64137   5.803   3.024   4.092  0.8152  0.3689  0.8966
  476MOL0     C64138   5.904   3.135   4.102 -0.3452 -0.6968 -0.1457
  476MOL0     C64139   5.971   3.170   4.236 -0.0712  0.9991  0.2920
  476MOL0     C64140   5.875   3.232   4.332 -0.6840  0.6776 -0.7084
  476MOL0     C64141   5.929   3.212   4.479 -0.9496  0.8521 -0.1313
  476MOL0     N64142   5.945   3.068   4.511  0.5229  0.0788 -0.5838
  476MOL0     C64143   5.848   2.968   4.500 -0.8039  0.4600  0.1926
  476MOL0     C64144   5.912   2.850   4.541  0.4384 -0.2495 -1.0939
  476MOL0     C64145   5.861   2.708   4.538 -0.5382 -0.2257  0.6805
  476MOL0     C64146   5.968   2.605   4.517 -0.9506  0.9028  0.3544
  476MOL0     C64147   5.991   2.511   4.626 -0.1328  0.0953 -0.0508
  476MOL0     C64148   6.127   2.445   4.589  0.0417 -0.2044  1.0836
  476MOL0     O64149   6.227   2.481   4.681  0.5829 -0.0697  0.5149
  476MOL0     C64150   6.357   2.484   4.643 -1.1751 -0.8791  0.8480
  476MOL0     C64151   6.397   2.596   4.568  0.0495  0.1739  0.7229
  476MOL0     C64152   6.527   2.600   4.521 -1.2328 -0.0603 -0.7022
  476MOL0     C64153   6.558   2.709   4.431 -0.3164 -0.2577  0.2981
  476MOL0     C64154   6.627   2.512   4.566 -1.1905  0.1303  0.5300
  476MOL0     C64155   6.776   2.522   4.529  0.5579 -0.5301  0.6438
  476MOL0     O64156   6.824   2.654   4.533  0.3746  0.1406  0.7370
  476MOL0     C64157   6.958   2.678   4.521 -0.8707  0.7173 -0.3038
  476MOL0     C64158   6.996   2.801   4.479 -0.8640 -0.2542  0.1729
  476MOL0     C64159   7.136   2.843   4.461  1.3600  0.3990  0.1866
  476MOL0     C64160   7.233   2.749   4.498 -0.0992 -0.8411  0.9419
  476MOL0     O64161   7.371   2.785   4.492 -0.0820 -0.3818 -0.4546
  476MOL0     C64162   7.410   2.853   4.369  0.6523  0.2882  0.1908
  476MOL0     C64163   7.562   2.868   4.346 -0.4006 -0.5142 -0.1374
  476MOL0     C64164   7.644   2.748   4.316  0.1322  0.1903 -0.0492
  476MOL0     C64165   7.599   2.678   4.186  0.4859 -0.7687 -0.1201
  476MOL0     C64166   7.651   2.735   4.051  0.6686 -0.3814 -0.2298
  476MOL0     C64167   7.801   2.692   4.023 -0.0412 -1.2316  0.8866
  476MOL0     C64168   7.865   2.745   3.895  0.4017 -0.9866  1.2346
  476MOL0     C64169   7.843   2.905   3.897 -0.1903  0.8406 -0.4131
  476MOL0    Cl64170   7.878   2.974   4.065  0.1502 -0.3698  0.1084
  476MOL0     C64171   7.191   2.628   4.552  0.3523  0.7788 -0.3335
  476MOL0     C64172   7.057   2.587   4.555  0.3087  0.2605  0.4548
  476MOL0     O64173   6.837   2.415   4.505 -0.0787  0.2019  0.7728
  476MOL0     C64174   6.587   2.414   4.663  0.6478  0.0088  0.1946
  476MOL0     C64175   6.452   2.404   4.701  0.1930 -0.7511  0.2639
  476MOL0     N64176   6.036   2.890   4.596 -1.1870  0.1199 -0.2140
  476MOL0     N64177   6.057   3.010   4.554  0.1799  0.7461 -0.2628
  476MOL0     C64178   5.538   2.547   4.098  0.4361 -0.3824  0.0232
  476MOL0     C64179   5.411   2.490   4.098  0.4138  0.2393  0.3592
  476MOL0     C64180   5.003   2.391   4.269  0.0047  0.8191 -0.8837
  476MOL0     C64181   5.010   2.368   4.412 -0.1924  0.5241  1.2836
  476MOL0     C64182   4.892   2.358   4.490  0.5228  0.4701  0.3228
  476MOL0     C64183   4.762   2.392   4.429  0.3425  0.1371  0.1711
  476MOL0     O64184   4.650   2.390   4.510  1.1385  0.2173  1.0004
  476MOL0     C64185   4.659   2.406   4.653  0.4757  0.3800  0.7918
  476MOL0     C64186   4.516   2.416   4.712 -0.2329  0.1997  0.1901
  476MOL0     C64187   4.538   2.425   4.865  0.3997  0.4011  0.6246
  476MOL0     C64188   4.424   2.494   4.932  0.1731  0.0587 -0.9119
  476MOL0     C64189   4.305   2.415   4.913 -1.8988 -0.5593 -0.0594
  476MOL0     C64190   4.206   2.347   4.901 -0.0983  0.9435 -0.4062
  476MOL0     C64191   4.752   2.408   4.296 -0.3736  0.0318 -0.3122
  476MOL0     C64192   4.872   2.404   4.218  0.1689  0.4145 -0.5352
  476MOL0     H64193   5.435   2.340   4.405 -1.5650 -0.7860 -1.6479
  476MOL0     H64194   5.648   2.457   4.408 -0.7584  4.9686  2.3211
  476MOL0     H64195   5.924   2.644   4.125 -0.1900  4.1443 -0.1272
  476MOL0     H64196   5.804   2.565   4.019  3.4535 -0.0545 -0.1469
  476MOL0     H64197   5.733   2.779   3.982 -1.7773  2.7435 -0.0528
  476MOL0     H64198   5.675   2.784   4.150 -0.8205 -2.4257 -1.5913
  476MOL0     H64199   5.892   2.872   4.226 -1.1381 -2.4813 -0.9556
  476MOL0     H64200   5.948   2.881   4.058  2.1539 -0.3001  2.0269
  476MOL0     H64201   5.767   3.026   3.989  2.0423  1.1056  0.4610
  476MOL0     H64202   5.725   3.034   4.168  1.3985 -0.0805  1.5777
  476MOL0     H64203   5.987   3.137   4.031 -0.5181 -2.2213 -0.4332
  476MOL0     H64204   5.845   3.222   4.072  0.2054 -0.4463 -0.5033
  476MOL0     H64205   6.013   3.078   4.277 -2.7624 -1.1308 -1.3979
  476MOL0     H64206   6.051   3.240   4.211 -0.0922  0.6721 -0.7727
  476MOL0     H64207   5.891   3.339   4.318  1.2455  0.5146 -0.0747
  476MOL0     H64208   5.771   3.199   4.318 -0.2726 -0.0030 -2.4413
  476MOL0     H64209   5.857   3.251   4.552 -0.0070  0.5758  0.9749
  476MOL0     H64210   6.021   3.271   4.487  0.0115 -0.4537 -1.2422
  476MOL0     H64211   5.742   2.974   4.474 -1.2373 -0.9884  1.4715
  476MOL0     H64212   5.805   2.681   4.628 -0.3067 -0.3166  0.7984
  476MOL0     H64213   5.787   2.700   4.459 -0.9311 -1.3804  1.1448
  476MOL0     H64214   6.059   2.660   4.492 -1.3657  0.3429 -2.8055
  476MOL0     H64215   5.962   2.552   4.421  1.3778  0.3117  0.4532
  476MOL0     H64216   5.909   2.440   4.622 -0.6889  0.7655 -2.5078
  476MOL0     H64217   5.994   2.565   4.721 -1.0899  2.9766 -1.5437
  476MOL0     H64218   6.165   2.475   4.491  1.4830  1.3118  2.0458
  476MOL0     H64219   6.096   2.341   4.582 -2.6760  0.6352 -3.1544
  476MOL0     H64220   6.317   2.662   4.538  0.4013  0.4785  0.4363
  476MOL0     H64221   6.582   2.802   4.484  1.3759  1.0035 -2.4514
  476MOL0     H64222   6.652   2.692   4.378 -1.5556 -3.6576 -1.0985
  476MOL0     H64223   6.482   2.739   4.359  0.2512  0.7921  0.1113
  476MOL0     H64224   6.926   2.883   4.464 -1.9415 -1.4078 -1.3987
  476MOL0     H64225   7.168   2.943   4.436  1.3915  0.4318  0.3622
  476MOL0     H64226   7.357   2.794   4.294 -1.4218  1.4667  0.6297
  476MOL0     H64227   7.364   2.951   4.385 -1.0093 -0.7124  2.0771
  476MOL0     H64228   7.593   2.947   4.276  0.0550 -1.2171 -0.7484
  476MOL0     H64229   7.617   2.888   4.438 -0.3404  2.4154 -0.7249
  476MOL0     H64230   7.635   2.674   4.397 -0.0963 -2.0921 -2.0618
  476MOL0     H64231   7.750   2.766   4.296  0.0026  0.3344 -0.6179
  476MOL0     H64232   7.627   2.573   4.196  1.7785 -0.2598  2.4291
  476MOL0     H64233   7.489   2.681   4.180  0.4837  0.9751  0.0840
  476MOL0     H64234   7.655   2.843   4.069 -2.0748 -0.2386 -0.1168
  476MOL0     H64235   7.590   2.701   3.967 -1.3035 -1.8399  1.6925
  476MOL0     H64236   7.854   2.732   4.110 -1.9483  1.2919  1.0010
  476MOL0     H64237   7.800   2.582   4.026 -0.3053 -1.2071  1.9655
  476MOL0     H64238   7.815   2.699   3.810  0.9380 -2.7402  1.8218
  476MOL0     H64239   7.970   2.716   3.901  0.4640 -1.3298 -0.7707
  476MOL0     H64240   7.740   2.929   3.867 -0.1323 -1.1601 -2.5213
  476MOL0     H64241   7.903   2.958   3.822 -0.3362  0.8322 -0.5365
  476MOL0     H64242   7.263   2.561   4.596  0.8422  1.0037 -0.7847
  476MOL0     H64243   7.029   2.491   4.597 -0.6933  0.2906 -0.1102
  476MOL0     H64244   6.647   2.344   4.719  0.5318  0.1792  0.5374
  476MOL0     H64245   6.414   2.323   4.763  2.8379 -0.5040  2.4088
  476MOL0     H64246   5.571   2.581   4.000 -1.5974  0.8701 -0.3023
  476MOL0     H64247   5.342   2.495   4.015 -1.7758 -0.9182  2.0116
  476MOL0     H64248   5.103   2.348   4.463  0.5848 -1.3306 -0.7269
  476MOL0     H64249   4.906   2.332   4.595  0.5747  2.1334  0.7622
  476MOL0     H64250   4.721   2.328   4.699  0.3585 -0.1974  0.0089
  476MOL0     H64251   4.699   2.503   4.683 -0.4690  0.8322  0.6216
  476MOL0     H64252   4.450   2.331   4.690  0.5838 -1.4555  3.4063
  476MOL0     H64253   4.469   2.505   4.669 -0.1647  0.9649  1.6300
  476MOL0     H64254   4.629   2.483   4.878 -0.2854  1.6576 -0.0042
  476MOL0     H64255   4.558   2.330   4.916  0.0661  0.4060  0.7720
  476MOL0     H64256   4.400   2.588   4.882  1.0591 -0.6640 -2.7891
  476MOL0     H64257   4.451   2.512   5.036 -1.0198 -3.2606  0.1026
  476MOL0     H64258   4.103   2.317   4.895 -0.7585  2.6219  1.4572
  476MOL0     H64259   4.654   2.409   4.249 -0.7389  0.9635  0.4377
  476MOL0     H64260   4.857   2.420   4.112  1.7131  1.6107 -0.6067
  477MOL0     O64261   3.962   9.091   6.684 -0.2646  0.1515 -0.7277
  477MOL0     C64262   4.067   9.099   6.621  0.3156  0.8057  0.5641
  477MOL0     O64263   4.111   9.013   6.530 -0.0417  0.3793  0.2777
  477MOL0     C64264   4.044   8.904   6.510  0.2019  0.4217 -0.4647
  477MOL0     C64265   4.032   8.799   6.608  0.6999 -0.0533 -1.0570
  477MOL0     C64266   3.972   8.682   6.572  0.6706  0.3057 -0.9500
  477MOL0     C64267   3.911   8.670   6.448 -0.3386  0.7579 -0.4500
  477MOL0     O64268   3.857   8.551   6.400  0.2268 -0.7912 -0.7553
  477MOL0     C64269   3.951   8.437   6.403 -0.0939 -0.5241  0.3829
  477MOL0     C64270   4.053   8.453   6.290  0.9687 -0.2864 -0.1001
  477MOL0     C64271   4.144   8.337   6.252 -0.0463 -0.5489  0.8865
  477MOL0     C64272   4.079   8.231   6.179  0.4708  0.1002 -0.4894
  477MOL0     C64273   4.096   8.228   6.032 -0.4044 -0.0751 -0.1691
  477MOL0     C64274   4.003   8.333   5.948  0.0181 -0.2336 -0.4111
  477MOL0     C64275   4.032   8.323   5.798  0.1556  0.3493 -0.4101
  477MOL0     C64276   3.952   8.431   5.712 -0.3879  0.8598  0.0588
  477MOL0     N64277   3.842   8.378   5.646 -0.0587 -0.1276  0.2443
  477MOL0     C64278   3.854   8.317   5.531 -0.0487  1.0014  0.6491
  477MOL0     C64279   3.733   8.322   5.480  1.0638 -0.4206  0.1763
  477MOL0     C64280   3.689   8.253   5.356  0.4452  0.2468 -0.2081
  477MOL0     C64281   3.702   8.346   5.231  0.3919  0.2219  0.7267
  477MOL0     C64282   3.841   8.322   5.167 -0.0856 -0.3154 -0.7963
  477MOL0     C64283   3.858   8.399   5.032 -0.1099 -0.3524 -0.6923
  477MOL0     O64284   3.737   8.388   4.960 -0.5551  0.2356  0.3940
  477MOL0     C64285   3.710   8.482   4.861  0.2384  0.1025 -1.0788
  477MOL0     C64286   3.803   8.560   4.798  0.5537  0.3474  0.4936
  477MOL0     C64287   3.762   8.653   4.709 -0.1471  0.2369 -1.3380
  477MOL0     C64288   3.873   8.741   4.660  0.8542 -0.2923  0.4798
  477MOL0     C64289   3.631   8.662   4.661  1.1669  0.0494  0.5048
  477MOL0     C64290   3.585   8.729   4.531  0.5948 -0.2831 -0.8653
  477MOL0     O64291   3.468   8.679   4.473 -0.3677  1.3274 -0.4309
  477MOL0     C64292   3.427   8.718   4.348 -0.3301 -0.2408 -0.5342
  477MOL0     C64293   3.384   8.617   4.258  0.7150  0.5847  0.8862
  477MOL0     C64294   3.328   8.651   4.133  0.0674  0.9408 -1.4366
  477MOL0     C64295   3.298   8.787   4.119 -0.7176  0.3679  0.1987
  477MOL0     O64296   3.242   8.830   4.000  0.6778 -0.0732  0.9051
  477MOL0     C64297   3.115   8.773   3.962  0.1318  0.0985 -0.5278
  477MOL0     C64298   3.004   8.880   3.999  0.1281 -0.3412 -0.0970
  477MOL0     C64299   3.011   9.002   3.919 -0.1638 -0.5102 -0.9068
  477MOL0     C64300   2.959   8.982   3.779 -1.0496 -0.3039 -0.5354
  477MOL0     C64301   2.828   9.043   3.730  0.5214 -0.1260  1.1494
  477MOL0     C64302   2.861   9.192   3.707  0.3776  0.3440 -0.0345
  477MOL0     C64303   2.753   9.276   3.653 -0.4718 -0.5957  0.6652
  477MOL0     C64304   2.691   9.252   3.517 -0.5057  0.4598  0.9655
  477MOL0    Cl64305   2.816   9.244   3.380  0.2901  0.1885  0.0098
  477MOL0     C64306   3.330   8.888   4.205  0.1939 -0.3341  0.4135
  477MOL0     C64307   3.401   8.858   4.319  0.2800  1.6684 -0.2463
  477MOL0     O64308   3.649   8.833   4.503 -0.2771 -0.3222  1.0994
  477MOL0     C64309   3.542   8.567   4.723  0.6010 -0.9578  0.5440
  477MOL0     C64310   3.575   8.490   4.826 -0.1211  0.2550  1.2304
  477MOL0     N64311   3.655   8.400   5.567 -0.3259  0.3561 -0.6151
  477MOL0     N64312   3.715   8.429   5.671 -0.1441 -0.3834  0.0386
  477MOL0     C64313   3.913   8.772   6.352 -1.1882  0.1187 -0.7534
  477MOL0     C64314   3.976   8.896   6.384  0.2881 -0.0119  1.5629
  477MOL0     C64315   4.157   9.202   6.659 -0.6164 -0.1484 -0.1377
  477MOL0     C64316   4.114   9.296   6.761  0.1382 -1.3620  0.2145
  477MOL0     C64317   4.209   9.389   6.804  0.3497 -0.1321  0.4587
  477MOL0     C64318   4.338   9.394   6.748  0.6518 -0.6165  0.6707
  477MOL0     O64319   4.435   9.485   6.786  0.0832  0.3997  0.0789
  477MOL0     C64320   4.422   9.569   6.903 -0.6226 -0.0329  0.6762
  477MOL0     C64321   4.458   9.483   7.036 -0.6516  0.0224  0.1849
  477MOL0     C64322   4.489   9.570   7.164 -0.7458  0.2786  0.8911
  477MOL0     C64323   4.550   9.480   7.275 -0.5719 -0.7818 -0.4236
  477MOL0     C64324   4.632   9.569   7.364  1.0550  0.0377  0.2565
  477MOL0     C64325   4.677   9.647   7.445  0.5507 -0.6836  0.3261
  477MOL0     C64326   4.374   9.310   6.646 -0.4936 -0.5037  0.1891
  477MOL0     C64327   4.283   9.216   6.601  0.2039  0.2505 -0.0567
  477MOL0     H64328   4.068   8.811   6.710 -1.9611  0.4871 -0.0970
  477MOL0     H64329   3.968   8.594   6.636 -0.4100 -1.3526 -3.1606
  477MOL0     H64330   4.009   8.433   6.495  1.9076 -1.4828 -0.8560
  477MOL0     H64331   3.887   8.350   6.386  2.2175 -2.1977 -0.2519
  477MOL0     H64332   3.988   8.470   6.204 -1.1575 -4.6048  0.3676
  477MOL0     H64333   4.119   8.538   6.311 -0.6696  1.2766 -1.0618
  477MOL0     H64334   4.241   8.369   6.214 -0.3732 -0.2608  0.2639
  477MOL0     H64335   4.164   8.299   6.352 -2.8155  0.3611  1.9037
  477MOL0     H64336   4.114   8.138   6.225 -0.8982  0.7304  1.9816
  477MOL0     H64337   3.973   8.222   6.203  0.3277  1.8829 -0.3237
  477MOL0     H64338   4.199   8.251   6.002  0.8034 -1.0292  2.9125
  477MOL0     H64339   4.083   8.124   5.999 -1.5902 -0.1599  0.5488
  477MOL0     H64340   3.896   8.311   5.950 -0.0027 -0.1073 -0.0389
  477MOL0     H64341   4.009   8.439   5.974 -0.7929  0.1098 -1.5948
  477MOL0     H64342   4.137   8.354   5.799  0.2923 -0.0238 -1.5600
  477MOL0     H64343   4.021   8.225   5.752 -0.5348 -1.2791  2.9453
  477MOL0     H64344   4.015   8.475   5.635 -2.6385  4.1406 -0.1208
  477MOL0     H64345   3.925   8.519   5.771  1.1579  0.9122  0.7408
  477MOL0     H64346   3.943   8.278   5.482 -1.3027  1.8849 -2.5494
  477MOL0     H64347   3.755   8.166   5.347  2.0440  1.4507 -0.7387
  477MOL0     H64348   3.586   8.223   5.378 -0.6190  3.9263  0.5062
  477MOL0     H64349   3.690   8.450   5.261  1.2263 -0.3235  3.2230
  477MOL0     H64350   3.626   8.321   5.156  2.0471 -3.6102  0.0811
  477MOL0     H64351   3.853   8.213   5.161 -1.5502 -0.5830  0.4928
  477MOL0     H64352   3.917   8.355   5.238  0.8442 -1.7547 -1.0610
  477MOL0     H64353   3.946   8.367   4.975 -0.9228  0.3880 -2.4369
  477MOL0     H64354   3.875   8.503   5.058  0.9790 -0.9304  1.0408
  477MOL0     H64355   3.906   8.543   4.827 -0.7195 -3.5832  3.5167
  477MOL0     H64356   3.890   8.730   4.553  1.4042  0.8445  0.4330
  477MOL0     H64357   3.844   8.843   4.689  0.4265 -0.5516  0.9925
  477MOL0     H64358   3.965   8.736   4.720 -1.5443  1.7030  4.8179
  477MOL0     H64359   3.401   8.512   4.281  2.0173  0.0241 -2.1679
  477MOL0     H64360   3.307   8.569   4.065 -0.4411  0.1507 -0.3544
  477MOL0     H64361   3.109   8.735   3.860 -0.3371 -1.6492  0.1121
  477MOL0     H64362   3.106   8.681   4.021  2.3274  0.8304  1.1274
  477MOL0     H64363   2.906   8.832   3.990 -0.2842  0.7387 -1.9462
  477MOL0     H64364   3.023   8.914   4.101  0.9365  2.0152 -0.9461
  477MOL0     H64365   3.112   9.042   3.911 -0.1784  0.0368  1.0719
  477MOL0     H64366   2.953   9.085   3.960  1.7796  0.8143 -0.7411
  477MOL0     H64367   3.037   9.011   3.708 -1.3650  1.1040 -0.3316
  477MOL0     H64368   2.943   8.875   3.765 -0.8268 -0.4795  0.5124
  477MOL0     H64369   2.737   9.025   3.787 -1.0020  1.0524 -0.7677
  477MOL0     H64370   2.813   8.995   3.632  0.5062  3.3331 -0.6863
  477MOL0     H64371   2.888   9.239   3.802 -0.2417 -0.4110  0.5221
  477MOL0     H64372   2.943   9.193   3.634  2.4135  1.5198  2.1211
  477MOL0     H64373   2.797   9.376   3.643  1.5370 -1.4761  0.1926
  477MOL0     H64374   2.677   9.262   3.730  0.2010 -2.9047  0.9864
  477MOL0     H64375   2.622   9.336   3.503 -0.3001  0.3653 -0.8450
  477MOL0     H64376   2.637   9.157   3.514 -0.5544  0.4739 -2.1823
  477MOL0     H64377   3.299   8.992   4.192  0.2500 -0.6227 -2.7583
  477MOL0     H64378   3.416   8.948   4.377 -0.5291  0.9446  1.1511
  477MOL0     H64379   3.441   8.560   4.685  1.1069  0.0034 -1.0846
  477MOL0     H64380   3.496   8.425   4.863  0.4079 -0.2519  1.4838
  477MOL0     H64381   3.862   8.753   6.258  0.0874 -2.7170 -0.9609
  477MOL0     H64382   3.961   8.979   6.316  0.0900  1.2799  3.1189
  477MOL0     H64383   4.023   9.289   6.821 -1.8982 -0.7537 -2.6214
  477MOL0     H64384   4.181   9.453   6.887  0.1748  0.5892 -0.1432
  477MOL0     H64385   4.492   9.651   6.887 -0.9086  0.2151  0.6985
  477MOL0     H64386   4.327   9.622   6.911 -1.2368 -0.9966 -0.0314
  477MOL0     H64387   4.544   9.418   7.015  1.1636  2.2445  0.3371
  477MOL0     H64388   4.375   9.416   7.059  1.4792 -1.7357  3.4672
  477MOL0     H64389   4.404   9.629   7.198 -1.2247  0.7227 -0.9778
  477MOL0     H64390   4.565   9.638   7.124 -0.1569 -1.7327 -1.6782
  477MOL0     H64391   4.625   9.416   7.228 -1.2648 -2.1142  0.2269
  477MOL0     H64392   4.470   9.419   7.317 -1.7018  0.3251 -0.9008
  477MOL0     H64393   4.727   9.717   7.509  2.9749 -2.0205  0.0251
  477MOL0     H64394   4.462   9.336   6.589  1.7047  0.7306  3.8216
  477MOL0     H64395   4.306   9.147   6.521  1.2868  0.9268 -0.3500
  478MOL0     O64396   5.296   9.460   0.915 -0.6816  0.0828 -0.0178
  478MOL0     C64397   5.182   9.420   0.885  0.0136 -0.2684  0.1078
  478MOL0     O64398   5.156   9.315   0.798 -0.0541 -0.4104 -0.5680
  478MOL0     C64399   5.267   9.238   0.735  1.4094 -1.1645 -0.5053
  478MOL0     C64400   5.234   9.190   0.605 -0.0178  0.1621  0.5246
  478MOL0     C64401   5.320   9.102   0.537  0.3162  0.8288  0.9387
  478MOL0     C64402   5.439   9.068   0.598  0.1545  0.4320 -0.2577
  478MOL0     O64403   5.513   8.977   0.526 -0.2867  0.0722  0.0206
  478MOL0     C64404   5.652   8.954   0.557  0.3771  0.5881  0.0326
  478MOL0     C64405   5.742   9.078   0.543 -0.5443  0.3273  0.0556
  478MOL0     C64406   5.739   9.111   0.401 -0.4835 -0.7989  0.3144
  478MOL0     C64407   5.858   9.205   0.394 -0.3320  0.2084 -0.9231
  478MOL0     C64408   5.873   9.281   0.258  0.3980  0.2687  1.3007
  478MOL0     C64409   6.004   9.361   0.232  0.0423 -0.2216 -0.2679
  478MOL0     C64410   6.060   9.357   0.098 -0.8687  0.8946  0.4317
  478MOL0     C64411   6.125   9.211   0.063 -0.1987 -0.8588  0.4758
  478MOL0     N64412   6.147   9.213  -0.086 -0.7387  0.0653 -0.5895
  478MOL0     C64413   6.188   9.099  -0.143 -1.0969  0.3209  0.4083
  478MOL0     C64414   6.192   9.128  -0.279 -0.7159  0.1122  0.4490
  478MOL0     C64415   6.196   9.025  -0.387 -0.7083 -1.1410 -0.4870
  478MOL0     C64416   6.298   9.078  -0.495  0.0332 -0.9659  1.1952
  478MOL0     C64417   6.322   8.967  -0.601  0.1286 -0.6024 -0.9758
  478MOL0     C64418   6.388   9.025  -0.729  1.0816 -0.3398  0.6674
  478MOL0     O64419   6.357   8.939  -0.834 -0.1077  0.3793 -0.6543
  478MOL0     C64420   6.431   8.948  -0.951  0.0155 -0.5493  0.3378
  478MOL0     C64421   6.531   9.049  -0.976 -0.3152  0.6596 -0.0888
  478MOL0     C64422   6.617   9.045  -1.091 -0.1075 -0.5732 -0.2892
  478MOL0     C64423   6.712   9.161  -1.105  0.0686  0.2815  0.1267
  478MOL0     C64424   6.596   8.939  -1.187  0.5706  0.2857 -0.0523
  478MOL0     C64425   6.674   8.925  -1.307 -0.6527  0.7141  0.7500
  478MOL0     O64426   6.790   8.987  -1.333 -0.2209  0.2159 -1.3767
  478MOL0     C64427   6.803   9.028  -1.460 -0.2024 -0.2990  0.1038
  478MOL0     C64428   6.932   9.054  -1.518 -0.4572  0.0277  0.5032
  478MOL0     C64429   6.947   9.093  -1.653  0.5446  1.1280  0.0501
  478MOL0     C64430   6.828   9.093  -1.740 -1.0691  0.7347 -0.6836
  478MOL0     O64431   6.840   9.115  -1.874  0.1923  0.1524  0.0269
  478MOL0     C64432   6.926   9.022  -1.949 -0.1014  0.3159  0.8976
  478MOL0     C64433   7.001   9.117  -2.059  0.4523 -0.2700 -0.1428
  478MOL0     C64434   6.933   9.122  -2.191  0.0124  0.4816 -0.0942
  478MOL0     C64435   6.794   9.189  -2.163  0.5055  0.4025 -0.3165
  478MOL0     C64436   6.728   9.232  -2.288  0.4115  0.6753  0.6943
  478MOL0     C64437   6.671   9.112  -2.358 -0.1565 -0.5989  0.2442
  478MOL0     C64438   6.566   9.155  -2.466 -0.5231 -0.2018 -0.4792
  478MOL0     C64439   6.509   9.037  -2.540 -0.2326  0.8702  0.6611
  478MOL0    Cl64440   6.409   9.101  -2.681 -0.0193 -0.6511 -0.4908
  478MOL0     C64441   6.708   9.097  -1.687  0.7493 -0.9013  0.1838
  478MOL0     C64442   6.695   9.060  -1.551 -0.0356  0.5220  0.5254
  478MOL0     O64443   6.633   8.825  -1.376 -0.9269 -0.6695  0.5743
  478MOL0     C64444   6.483   8.856  -1.166  0.1753  0.7439 -0.0877
  478MOL0     C64445   6.398   8.865  -1.054  0.1395  0.5091  0.6992
  478MOL0     N64446   6.145   9.252  -0.294  0.4474 -0.3838  0.4172
  478MOL0     N64447   6.121   9.306  -0.178  0.1392 -0.6512 -0.0020
  478MOL0     C64448   5.477   9.116   0.730  0.2056 -1.0753 -0.4877
  478MOL0     C64449   5.385   9.197   0.791  0.2209 -0.1717 -0.0313
  478MOL0     C64450   5.057   9.496   0.937 -0.6373 -0.2041  0.5128
  478MOL0     C64451   4.922   9.472   0.879  0.0004 -0.2023  0.4222
  478MOL0     C64452   4.811   9.533   0.943 -0.6615 -0.0344 -0.0268
  478MOL0     C64453   4.825   9.620   1.051  0.1078  0.1493 -0.3066
  478MOL0     O64454   4.707   9.676   1.094  0.7574 -1.1195 -0.9732
  478MOL0     C64455   4.701   9.783   1.185  0.3100  0.7226 -0.2105
  478MOL0     C64456   4.699   9.909   1.092 -0.8348 -0.3765 -0.3963
  478MOL0     C64457   4.700  10.030   1.185  0.1331  0.3580  0.3655
  478MOL0     C64458   4.752  10.155   1.110  0.6715 -0.1361 -0.3531
  478MOL0     C64459   4.717  10.265   1.202 -0.0123 -0.4687  0.1219
  478MOL0     C64460   4.680  10.335   1.287  1.0306 -0.0003 -0.3524
  478MOL0     C64461   4.952   9.659   1.102 -0.5547  0.1545  0.4354
  478MOL0     C64462   5.069   9.592   1.044 -0.6726  1.0984  0.4268
  478MOL0     H64463   5.131   9.213   0.576 -0.4928 -1.8750  0.4795
  478MOL0     H64464   5.306   9.061   0.438  1.6360 -0.0578  1.0991
  478MOL0     H64465   5.656   8.915   0.659 -2.2640  0.7980  0.2962
  478MOL0     H64466   5.688   8.876   0.489 -2.4266 -2.4673  1.7421
  478MOL0     H64467   5.742   9.156   0.619 -0.9677  2.2342 -1.8024
  478MOL0     H64468   5.837   9.033   0.574 -1.7015 -2.3341  0.0696
  478MOL0     H64469   5.756   9.021   0.342  0.2632 -1.4833  1.5369
  478MOL0     H64470   5.641   9.151   0.374  0.1688  0.0089 -0.9558
  478MOL0     H64471   5.861   9.284   0.469  3.1558  1.0677 -1.8217
  478MOL0     H64472   5.949   9.147   0.404 -0.1982  0.8210  2.6309
  478MOL0     H64473   5.845   9.220   0.172 -1.5136  3.8264 -0.8436
  478MOL0     H64474   5.791   9.353   0.267  0.5904  0.7987 -0.7402
  478MOL0     H64475   5.987   9.466   0.256 -0.0600 -0.5335  1.1044
  478MOL0     H64476   6.080   9.318   0.299 -2.5866 -3.6498  0.8139
  478MOL0     H64477   5.996   9.390   0.016  1.6305 -0.6825 -2.4118
  478MOL0     H64478   6.145   9.425   0.107 -1.1418  1.0304  2.3662
  478MOL0     H64479   6.056   9.129   0.082 -0.1713 -1.9235 -3.2782
  478MOL0     H64480   6.219   9.200   0.117  1.9777  0.9348 -2.6268
  478MOL0     H64481   6.190   8.993  -0.119 -2.0231 -0.0284 -0.9476
  478MOL0     H64482   6.224   8.926  -0.350 -2.4982 -1.9511 -1.2092
  478MOL0     H64483   6.091   9.029  -0.417 -1.9035  1.2609  3.3854
  478MOL0     H64484   6.396   9.118  -0.467  2.3820 -2.9358 -3.1128
  478MOL0     H64485   6.239   9.154  -0.546  2.8780 -0.8045 -2.2673
  478MOL0     H64486   6.240   8.905  -0.638  0.6875 -1.6489 -0.4825
  478MOL0     H64487   6.395   8.903  -0.551  2.1324  0.7993 -1.9414
  478MOL0     H64488   6.497   9.024  -0.721  1.6203 -0.0796 -4.1904
  478MOL0     H64489   6.356   9.128  -0.750  2.7035 -0.3019 -1.9962
  478MOL0     H64490   6.546   9.131  -0.907 -1.8731  0.4146  0.5719
  478MOL0     H64491   6.731   9.226  -1.020  1.0329  0.2670 -0.0600
  478MOL0     H64492   6.813   9.122  -1.125  0.9700  2.5570 -0.0146
  478MOL0     H64493   6.668   9.228  -1.179  0.9828 -0.1037 -0.7907
  478MOL0     H64494   7.021   9.032  -1.459  1.1681 -0.4655 -1.9721
  478MOL0     H64495   7.044   9.112  -1.699  0.0704  1.2733 -0.8993
  478MOL0     H64496   6.999   8.976  -1.882  0.3203  1.8129  1.5114
  478MOL0     H64497   6.859   8.951  -1.999  0.4423  0.1853  0.3466
  478MOL0     H64498   7.018   9.218  -2.020 -1.0736  0.7512 -1.9831
  478MOL0     H64499   7.101   9.079  -2.083  0.5142  0.3504 -0.8991
  478MOL0     H64500   6.930   9.022  -2.235  1.6809 -0.0178  0.8470
  478MOL0     H64501   6.989   9.184  -2.262  1.9639  0.6184  1.4744
  478MOL0     H64502   6.734   9.124  -2.099  0.2696 -0.7090 -1.6102
  478MOL0     H64503   6.807   9.282  -2.107  3.1463 -0.1290  0.0658
  478MOL0     H64504   6.798   9.275  -2.360 -1.4008 -0.5735 -1.9875
  478MOL0     H64505   6.654   9.311  -2.268 -0.7667  0.1155 -1.1518
  478MOL0     H64506   6.748   9.041  -2.390  0.0329 -0.7775  1.0605
  478MOL0     H64507   6.613   9.053  -2.287  2.2991 -4.0496 -0.3760
  478MOL0     H64508   6.610   9.217  -2.545 -2.1279 -3.9455 -4.7914
  478MOL0     H64509   6.488   9.210  -2.412 -0.6983 -2.1258  1.3224
  478MOL0     H64510   6.438   8.982  -2.477 -1.6337  1.9102  0.0677
  478MOL0     H64511   6.587   8.969  -2.575 -2.5213 -0.8068 -1.6751
  478MOL0     H64512   6.622   9.119  -1.751  0.5317 -1.9048  0.1224
  478MOL0     H64513   6.594   9.045  -1.515 -0.3149  1.4665  0.1690
  478MOL0     H64514   6.468   8.768  -1.227  1.1432 -0.8132  1.7809
  478MOL0     H64515   6.309   8.803  -1.046 -0.9628  2.0360  0.5752
  478MOL0     H64516   5.566   9.081   0.780 -1.1025  1.5067  4.2497
  478MOL0     H64517   5.411   9.241   0.887  0.0737  3.2875 -1.4539
  478MOL0     H64518   4.907   9.392   0.807  1.7103 -0.6437  0.4979
  478MOL0     H64519   4.711   9.512   0.905 -0.4261 -1.5193  0.1396
  478MOL0     H64520   4.606   9.772   1.238  1.0693 -0.9244  0.8983
  478MOL0     H64521   4.780   9.803   1.258 -1.1521  2.9928  0.8497
  478MOL0     H64522   4.607   9.920   1.034 -3.4791  0.6833  3.5732
  478MOL0     H64523   4.785   9.907   1.024 -2.9441  2.0020 -3.4150
  478MOL0     H64524   4.765  10.008   1.269 -2.3743  0.9728  2.6104
  478MOL0     H64525   4.600  10.057   1.221  0.1722  0.7014  0.2182
  478MOL0     H64526   4.702  10.167   1.013  0.9847  0.5748 -0.4379
  478MOL0     H64527   4.860  10.169   1.096  0.4355  3.0703  0.2261
  478MOL0     H64528   4.635  10.390   1.367  0.6900 -0.5086 -0.1869
  478MOL0     H64529   4.970   9.740   1.172 -0.2860  2.1613 -1.8198
  478MOL0     H64530   5.160   9.609   1.101  0.2396 -2.4059  0.2347
  479MOL0     O64531   9.771   8.028  10.238 -0.4698  0.2862 -0.0756
  479MOL0     C64532   9.844   7.945  10.298  0.2232  0.1934 -0.4401
  479MOL0     O64533   9.867   7.815  10.260  0.4840  0.4490  0.0081
  479MOL0     C64534   9.831   7.745  10.147 -0.4222 -0.8451  0.1659
  479MOL0     C64535   9.873   7.609  10.141 -0.2051  0.2526  0.1092
  479MOL0     C64536   9.830   7.529  10.036 -1.3569  0.7913 -0.1457
  479MOL0     C64537   9.732   7.573   9.942  0.0018 -0.0658  0.6813
  479MOL0     O64538   9.664   7.480   9.845 -0.2027 -0.7182  0.4448
  479MOL0     C64539   9.696   7.345   9.873  0.2818  0.2559  0.1618
  479MOL0     C64540   9.614   7.247   9.797  0.9281  0.2293 -0.1325
  479MOL0     C64541   9.468   7.267   9.855 -0.3113 -0.1655  0.1136
  479MOL0     C64542   9.381   7.144   9.830  0.5596  0.3895  0.9119
  479MOL0     C64543   9.248   7.150   9.917 -0.6801 -0.4469  0.9141
  479MOL0     C64544   9.192   7.014   9.908  0.3534  0.4909  0.5897
  479MOL0     C64545   9.072   6.992   9.994  0.6448 -1.1421  0.8559
  479MOL0     C64546   9.026   6.856   9.995  0.1052  0.9457 -0.6147
  479MOL0     N64547   9.005   6.793   9.859 -0.1157  0.0017 -0.0330
  479MOL0     C64548   9.070   6.672   9.817 -0.4281  0.1772 -1.4549
  479MOL0     C64549   9.016   6.636   9.692 -0.2831 -0.0887  0.0609
  479MOL0     C64550   9.053   6.521   9.595  0.8478 -0.1056 -0.4290
  479MOL0     C64551   9.186   6.546   9.514 -0.0723  1.1495  0.3603
  479MOL0     C64552   9.183   6.685   9.443 -1.0199  0.3553  0.7903
  479MOL0     C64553   9.328   6.715   9.393 -0.6844 -0.3120  0.1502
  479MOL0     O64554   9.424   6.720   9.493 -0.5568  0.1080 -0.5233
  479MOL0     C64555   9.531   6.808   9.480  0.5283 -0.2173 -0.3823
  479MOL0     C64556   9.655   6.748   9.456  0.1173  0.5972 -0.1092
  479MOL0     C64557   9.767   6.823   9.418  0.3037 -0.1648 -0.0278
  479MOL0     C64558   9.900   6.747   9.403  0.9239 -0.1303  0.4877
  479MOL0     C64559   9.750   6.967   9.392  0.5387 -0.8210 -0.1806
  479MOL0     C64560   9.863   7.062   9.358 -0.8764 -1.2051 -0.8674
  479MOL0     O64561   9.845   7.191   9.408 -0.7108 -0.3286 -0.1217
  479MOL0     C64562   9.957   7.248   9.454 -0.2039  0.2384 -0.0282
  479MOL0     C64563  10.064   7.299   9.376 -0.1692 -0.5527 -0.2445
  479MOL0     C64564  10.170   7.375   9.445  0.2677 -0.3625 -0.6014
  479MOL0     C64565  10.165   7.384   9.579 -1.0400 -0.8312 -0.2891
  479MOL0     O64566  10.271   7.448   9.633  0.0494 -0.7105  0.0167
  479MOL0     C64567  10.241   7.511   9.761 -0.3037  0.3717  0.2667
  479MOL0     C64568  10.366   7.603   9.792 -0.0191 -0.3512  0.3277
  479MOL0     C64569  10.403   7.707   9.677 -0.0074 -0.1296 -1.2396
  479MOL0     C64570  10.498   7.821   9.742 -0.4943  0.1558 -0.7301
  479MOL0     C64571  10.569   7.919   9.636 -0.2641 -1.1334  0.9741
  479MOL0     C64572  10.470   8.003   9.571  1.1053 -0.1840 -0.0183
  479MOL0     C64573  10.523   8.091   9.459  0.6931  0.5491 -0.4590
  479MOL0     C64574  10.606   8.214   9.510  0.9898 -0.4702 -0.3538
  479MOL0    Cl64575  10.777   8.173   9.546  0.3575  0.4188  0.2347
  479MOL0     C64576  10.055   7.322   9.654  0.1509  0.0160  0.1895
  479MOL0     C64577   9.951   7.259   9.596 -0.5230  0.3509 -0.5245
  479MOL0     O64578   9.970   7.015   9.312 -1.0031  0.5722  0.2073
  479MOL0     C64579   9.625   7.024   9.431  0.1998  0.6789 -0.2391
  479MOL0     C64580   9.519   6.947   9.468 -0.6375 -0.3679  0.1962
  479MOL0     N64581   8.923   6.733   9.660  0.7190  0.5804  0.0333
  479MOL0     N64582   8.922   6.827   9.746  0.5893  0.4904 -0.4462
  479MOL0     C64583   9.704   7.713   9.941  0.3238  0.3266 -0.2265
  479MOL0     C64584   9.753   7.797  10.042  0.3786 -0.3178  0.1449
  479MOL0     C64585   9.893   7.990  10.432 -0.6787 -0.4123 -0.2064
  479MOL0     C64586   9.973   7.904  10.517  0.5316 -0.7494  0.8389
  479MOL0     C64587  10.011   7.946  10.646 -0.1052  0.5668 -1.0171
  479MOL0     C64588   9.963   8.068  10.706  0.4553  0.4299  0.0752
  479MOL0     O64589   9.986   8.105  10.839 -0.2337 -0.1786 -0.0975
  479MOL0     C64590   9.992   8.244  10.880 -0.0860  0.3081  0.2363
  479MOL0     C64591  10.074   8.258  11.010 -0.2785  0.0592  0.2800
  479MOL0     C64592  10.215   8.190  11.002 -0.3279  0.5951 -0.0289
  479MOL0     C64593  10.215   8.041  11.056  0.6678  0.0140 -0.1537
  479MOL0     C64594  10.318   7.955  10.980 -0.6238  0.7390 -0.2391
  479MOL0     C64595  10.399   7.891  10.917  0.0164 -0.1191 -0.4644
  479MOL0     C64596   9.892   8.161  10.615 -0.5521 -0.1966  0.3965
  479MOL0     C64597   9.868   8.113  10.485  0.5021 -0.2600 -0.3373
  479MOL0     H64598   9.942   7.583  10.222 -1.2552 -2.6716  0.1960
  479MOL0     H64599   9.858   7.424  10.041 -3.4049  0.2352  0.6200
  479MOL0     H64600   9.800   7.324   9.845  0.2883  0.9302 -0.3662
  479MOL0     H64601   9.689   7.331   9.981 -0.7253 -2.6440 -0.1938
  479MOL0     H64602   9.616   7.258   9.688 -3.6902 -0.6141 -0.5050
  479MOL0     H64603   9.658   7.149   9.816 -1.9510 -1.3072 -0.8949
  479MOL0     H64604   9.464   7.290   9.962  0.8235  0.1933  0.0887
  479MOL0     H64605   9.432   7.358   9.806  0.9625 -1.6380 -3.9179
  479MOL0     H64606   9.364   7.142   9.722 -0.5176 -2.5304  1.0349
  479MOL0     H64607   9.437   7.053   9.854  0.1802 -0.5632 -1.5726
  479MOL0     H64608   9.274   7.165  10.023  1.6937  2.2619  0.0861
  479MOL0     H64609   9.177   7.225   9.884 -2.8549 -2.4514  0.7833
  479MOL0     H64610   9.171   7.005   9.801 -2.0599  0.1469  1.0390
  479MOL0     H64611   9.261   6.933   9.932 -1.0222 -0.6715  0.7297
  479MOL0     H64612   9.089   7.026  10.097 -1.1657  3.9276 -0.2332
  479MOL0     H64613   8.995   7.055   9.948  2.7525  0.0151 -1.3519
  479MOL0     H64614   8.930   6.868  10.047  1.4507  0.5700  2.1183
  479MOL0     H64615   9.098   6.794  10.048  0.4609 -0.2291 -2.3737
  479MOL0     H64616   9.152   6.617   9.863  1.4463  2.4563 -1.8785
  479MOL0     H64617   9.074   6.436   9.660  1.4080  1.0334  0.9398
  479MOL0     H64618   8.968   6.493   9.533  1.4401 -2.8092 -0.1565
  479MOL0     H64619   9.193   6.460   9.447 -1.5728  0.1879  1.3833
  479MOL0     H64620   9.280   6.526   9.566 -0.1812 -0.8257 -0.1122
  479MOL0     H64621   9.155   6.758   9.519  0.6459 -2.6494  4.6172
  479MOL0     H64622   9.109   6.680   9.362 -0.8112  1.5424  0.4986
  479MOL0     H64623   9.329   6.816   9.350  2.5016  0.2642  1.3285
  479MOL0     H64624   9.358   6.638   9.322  0.1159  1.1219 -1.1371
  479MOL0     H64625   9.675   6.646   9.487 -2.7175  0.1738  0.5209
  479MOL0     H64626   9.884   6.640   9.390 -1.8110 -0.3733  4.1394
  479MOL0     H64627   9.972   6.784   9.329  0.4430  1.4550  0.7691
  479MOL0     H64628   9.954   6.766   9.496  2.3564 -1.4522 -0.0377
  479MOL0     H64629  10.080   7.271   9.272 -0.4161  1.4928 -0.8965
  479MOL0     H64630  10.258   7.409   9.391  0.5967  0.1238  0.2304
  479MOL0     H64631  10.161   7.585   9.752 -1.6186 -0.7830  1.9527
  479MOL0     H64632  10.218   7.451   9.848 -2.6088  1.4304  0.4547
  479MOL0     H64633  10.338   7.643   9.890 -1.1058 -2.0881  0.7714
  479MOL0     H64634  10.442   7.525   9.802  2.1890  1.5344 -0.7288
  479MOL0     H64635  10.315   7.749   9.629  0.5867  0.3864 -1.8936
  479MOL0     H64636  10.459   7.647   9.605  0.8068 -1.2730  0.2743
  479MOL0     H64637  10.439   7.886   9.806 -1.8192 -2.1980  0.5664
  479MOL0     H64638  10.578   7.772   9.799 -1.8885 -1.5700 -0.1965
  479MOL0     H64639  10.606   7.879   9.541 -4.2459  3.0477 -2.7908
  479MOL0     H64640  10.650   7.977   9.682 -0.9379  0.2247  0.4901
  479MOL0     H64641  10.398   7.934   9.526  1.4140 -1.2598  1.0763
  479MOL0     H64642  10.427   8.068   9.647  0.6877  0.4534 -0.7849
  479MOL0     H64643  10.435   8.127   9.406  0.8349  0.0414 -1.0457
  479MOL0     H64644  10.562   8.015   9.391 -2.1885  0.8700 -2.6673
  479MOL0     H64645  10.549   8.267   9.587  0.0190 -1.8901 -0.0760
  479MOL0     H64646  10.596   8.277   9.421 -0.9845  1.9594  1.4430
  479MOL0     H64647  10.056   7.314   9.762 -0.4642 -4.2766  0.0561
  479MOL0     H64648   9.867   7.215   9.649  0.9674 -0.2033  1.5217
  479MOL0     H64649   9.611   7.131   9.424 -0.7475  1.0214  4.0936
  479MOL0     H64650   9.420   6.990   9.481 -0.1702  1.0151 -0.6831
  479MOL0     H64651   9.650   7.756   9.857  1.3005  1.3843 -0.3437
  479MOL0     H64652   9.741   7.904  10.038  0.6630 -0.2351  1.2677
  479MOL0     H64653  10.000   7.805  10.481 -0.5233 -0.3076 -1.3517
  479MOL0     H64654  10.080   7.896  10.714 -1.8164 -0.8300 -0.1920
  479MOL0     H64655  10.021   8.315  10.803 -1.1709 -0.2306 -0.7088
  479MOL0     H64656   9.888   8.271  10.898  0.5915  1.3214  3.1754
  479MOL0     H64657  10.020   8.217  11.096  1.2015  1.0694  1.7395
  479MOL0     H64658  10.077   8.367  11.019 -2.8909  0.0784  2.2685
  479MOL0     H64659  10.290   8.244  11.061 -3.2016  1.2377  3.3581
  479MOL0     H64660  10.261   8.189  10.903  2.7375  2.4896  1.2152
  479MOL0     H64661  10.115   7.996  11.052  1.5094 -2.4177  2.4307
  479MOL0     H64662  10.245   8.053  11.161  3.6984 -0.5066 -0.8595
  479MOL0     H64663  10.467   7.827  10.866 -0.1096  0.4898 -1.4345
  479MOL0     H64664   9.834   8.248  10.644  0.2969  1.3146 -2.0574
  479MOL0     H64665   9.822   8.180  10.413 -2.3235 -0.0755  1.5187
  480MOL0     O64666   1.817   2.747   8.809 -0.3318 -0.6473 -0.3182
  480MOL0     C64667   1.859   2.636   8.796 -0.5440  0.1445 -0.2262
  480MOL0     O64668   1.795   2.524   8.845  0.3926 -0.0612  0.1921
  480MOL0     C64669   1.693   2.555   8.939 -0.7478  0.5405 -0.4012
  480MOL0     C64670   1.558   2.577   8.906  0.2664  0.1451  0.1238
  480MOL0     C64671   1.463   2.611   8.996 -0.1180 -0.3865  0.4148
  480MOL0     C64672   1.497   2.635   9.131 -0.1188  0.4137  0.6811
  480MOL0     O64673   1.397   2.667   9.218 -0.3063  0.1065 -0.1659
  480MOL0     C64674   1.410   2.627   9.352 -1.0467 -0.7178  0.6009
  480MOL0     C64675   1.281   2.651   9.426 -0.3436 -0.3676  0.4697
  480MOL0     C64676   1.274   2.800   9.466 -0.6004  0.2096  0.2439
  480MOL0     C64677   1.185   2.807   9.592 -0.1104 -0.7524  1.6133
  480MOL0     C64678   1.097   2.933   9.608 -0.3481 -0.4107 -0.2783
  480MOL0     C64679   1.166   3.069   9.596 -0.4004 -0.0278 -0.1485
  480MOL0     C64680   1.249   3.125   9.715 -0.6844 -0.7061 -0.0031
  480MOL0     C64681   1.165   3.171   9.831 -1.0641  0.7512  0.0264
  480MOL0     N64682   1.046   3.244   9.791  0.4963 -0.4347  0.6100
  480MOL0     C64683   0.920   3.193   9.790 -0.4756  0.5212 -0.1208
  480MOL0     C64684   0.848   3.265   9.700  0.0702  0.0978 -0.4564
  480MOL0     C64685   0.718   3.241   9.641  0.8123  0.4449  0.2224
  480MOL0     C64686   0.711   3.158   9.514  0.5425 -0.3257  1.1215
  480MOL0     C64687   0.578   3.138   9.454 -0.3249  0.6389 -0.1120
  480MOL0     C64688   0.585   3.046   9.336 -0.4683  0.1744 -0.1299
  480MOL0     O64689   0.463   3.026   9.275 -0.5010  0.5379  0.0507
  480MOL0     C64690   0.384   2.918   9.311  0.4308 -1.1938 -0.3275
  480MOL0     C64691   0.387   2.850   9.437  0.0599 -0.5169  0.1464
  480MOL0     C64692   0.298   2.745   9.455  0.2657  0.0989  0.9887
  480MOL0     C64693   0.289   2.693   9.603  0.0928  0.5741  0.1229
  480MOL0     C64694   0.203   2.710   9.355 -0.8460  0.0014 -0.0165
  480MOL0     C64695   0.110   2.596   9.389 -0.8573 -0.5370 -0.2467
  480MOL0     O64696   0.148   2.470   9.411  0.6171 -0.0078  0.1241
  480MOL0     C64697   0.052   2.376   9.424 -0.1202 -0.3064 -0.5508
  480MOL0     C64698  -0.052   2.358   9.329 -0.3807  0.8358  0.3002
  480MOL0     C64699  -0.138   2.242   9.334  0.0879 -0.1242  0.0844
  480MOL0     C64700  -0.119   2.154   9.447  0.4691 -0.3588 -0.0245
  480MOL0     O64701  -0.189   2.035   9.462 -0.2690  0.0189  0.5823
  480MOL0     C64702  -0.285   1.995   9.363 -0.3005 -0.3017  0.7093
  480MOL0     C64703  -0.423   2.041   9.395 -0.2111 -0.2950 -0.4597
  480MOL0     C64704  -0.529   1.983   9.301 -0.2345 -0.8363  0.1482
  480MOL0     C64705  -0.524   2.057   9.169 -0.3476  0.1787  0.5516
  480MOL0     C64706  -0.592   1.985   9.045 -0.4492  0.2936 -0.4506
  480MOL0     C64707  -0.596   2.061   8.908 -0.7553  1.0254 -0.0837
  480MOL0     C64708  -0.668   2.194   8.924 -0.1534  0.0509  0.2292
  480MOL0     C64709  -0.595   2.312   8.868 -0.0920  0.1868  0.0742
  480MOL0    Cl64710  -0.431   2.314   8.932  0.3882  0.2324  0.0673
  480MOL0     C64711  -0.019   2.181   9.545  0.3859 -0.2174  0.5777
  480MOL0     C64712   0.064   2.286   9.536 -0.0526  0.0029  0.3918
  480MOL0     O64713  -0.006   2.632   9.403  0.1037 -0.0630  0.3667
  480MOL0     C64714   0.196   2.786   9.243  0.8864 -0.6297 -0.1863
  480MOL0     C64715   0.284   2.883   9.215 -0.3851  0.2777  0.0541
  480MOL0     N64716   0.919   3.376   9.659 -0.0453  0.5785 -0.1641
  480MOL0     N64717   1.041   3.357   9.709  0.4804 -0.7530 -0.0242
  480MOL0     C64718   1.624   2.606   9.175 -0.0625 -0.5026 -0.4004
  480MOL0     C64719   1.722   2.571   9.075  0.6241 -0.0810 -0.1314
  480MOL0     C64720   1.974   2.598   8.714 -0.0706  0.6645  0.2615
  480MOL0     C64721   2.048   2.478   8.744  0.3909 -0.4444  0.1691
  480MOL0     C64722   2.163   2.462   8.677 -0.1440 -0.0196 -0.1839
  480MOL0     C64723   2.201   2.561   8.585 -0.9706  0.7488  0.0916
  480MOL0     O64724   2.327   2.536   8.532  0.5759 -0.1028 -0.3373
  480MOL0     C64725   2.400   2.645   8.488 -0.6355 -0.2689 -0.2077
  480MOL0     C64726   2.526   2.587   8.412  0.8143  0.6280 -0.3090
  480MOL0     C64727   2.617   2.498   8.494  0.0818 -1.0559  0.9220
  480MOL0     C64728   2.760   2.523   8.457 -0.2233 -0.8495 -0.3402
  480MOL0     C64729   2.805   2.656   8.516 -0.9158  0.4071 -0.1077
  480MOL0     C64730   2.857   2.739   8.587 -0.3334 -0.1352 -0.1251
  480MOL0     C64731   2.122   2.670   8.549 -0.1836  0.9674 -0.7406
  480MOL0     C64732   2.009   2.690   8.615  1.2233 -0.0418  0.0623
  480MOL0     H64733   1.535   2.575   8.800 -0.9833 -2.5357  0.3582
  480MOL0     H64734   1.364   2.632   8.955  0.3218  3.9767  1.1034
  480MOL0     H64735   1.433   2.521   9.369  1.7065 -0.5245 -1.1773
  480MOL0     H64736   1.496   2.681   9.393 -0.4843 -0.6555 -0.6251
  480MOL0     H64737   1.196   2.632   9.360 -0.3167 -0.5480  0.4880
  480MOL0     H64738   1.273   2.578   9.507 -1.6852 -0.5121  0.2308
  480MOL0     H64739   1.378   2.831   9.475  0.1540 -1.9838 -0.1387
  480MOL0     H64740   1.248   2.874   9.390 -1.7044  0.3855  0.7845
  480MOL0     H64741   1.118   2.720   9.596 -0.1894 -0.7491  0.6629
  480MOL0     H64742   1.253   2.809   9.678  2.8562  1.4208 -0.5753
  480MOL0     H64743   1.016   2.931   9.534  0.8764 -0.7687 -1.6599
  480MOL0     H64744   1.064   2.915   9.711  0.6546 -0.0441  0.1144
  480MOL0     H64745   1.229   3.057   9.507  0.4898  0.9017  0.3284
  480MOL0     H64746   1.095   3.148   9.572  1.8075  1.6687 -1.4906
  480MOL0     H64747   1.323   3.054   9.753  2.9899  2.5733 -0.3703
  480MOL0     H64748   1.318   3.204   9.682 -0.9357 -0.9635 -1.2079
  480MOL0     H64749   1.215   3.234   9.905 -1.6179 -1.4665  2.4470
  480MOL0     H64750   1.135   3.082   9.887  1.8528  0.3483  1.1371
  480MOL0     H64751   0.874   3.112   9.847  1.0661  0.6602  1.4053
  480MOL0     H64752   0.645   3.205   9.715  2.5969  1.0851  2.3858
  480MOL0     H64753   0.679   3.339   9.611  4.2256  1.6052 -0.8547
  480MOL0     H64754   0.740   3.058   9.548  0.8121 -0.2976  0.9717
  480MOL0     H64755   0.781   3.197   9.440 -1.6014 -0.3441 -1.0596
  480MOL0     H64756   0.540   3.237   9.427 -1.2343  0.7661  1.5177
  480MOL0     H64757   0.518   3.112   9.541  2.4009  1.5099  2.1971
  480MOL0     H64758   0.635   2.953   9.367  0.0194  0.6128  0.4160
  480MOL0     H64759   0.643   3.090   9.255  0.7494  2.6076  1.9275
  480MOL0     H64760   0.460   2.886   9.509 -1.4537  0.5558  1.2239
  480MOL0     H64761   0.214   2.615   9.617  3.3309 -2.5425  1.4204
  480MOL0     H64762   0.376   2.643   9.645 -1.9067 -0.3015  3.6378
  480MOL0     H64763   0.275   2.779   9.669  0.3846  1.0239 -0.3916
  480MOL0     H64764  -0.052   2.410   9.233  0.8639 -2.3689 -1.6153
  480MOL0     H64765  -0.212   2.228   9.256 -0.7596  2.0404  0.4117
  480MOL0     H64766  -0.258   2.038   9.266 -1.4454 -1.4740 -0.1599
  480MOL0     H64767  -0.289   1.886   9.365 -3.1118 -0.3813 -2.2765
  480MOL0     H64768  -0.444   2.004   9.496  1.7165  2.5495  1.1237
  480MOL0     H64769  -0.417   2.150   9.398  0.6149 -0.3186 -0.8347
  480MOL0     H64770  -0.625   2.013   9.343 -1.7329 -0.0640 -3.4738
  480MOL0     H64771  -0.543   1.875   9.288 -2.3485 -0.5595 -0.1553
  480MOL0     H64772  -0.561   2.160   9.178  2.4888  1.4894 -1.2041
  480MOL0     H64773  -0.420   2.081   9.145 -0.4085 -1.4159 -1.5501
  480MOL0     H64774  -0.690   1.954   9.083  0.1418  2.6514  3.5062
  480MOL0     H64775  -0.532   1.894   9.035 -1.0646 -0.0612 -1.0086
  480MOL0     H64776  -0.493   2.073   8.875  0.0168 -1.7902  0.9693
  480MOL0     H64777  -0.644   1.994   8.836  0.3834  1.5830 -1.3897
  480MOL0     H64778  -0.682   2.224   9.028  0.3876 -2.9583  1.2439
  480MOL0     H64779  -0.764   2.181   8.874 -0.2785  0.3654  0.3851
  480MOL0     H64780  -0.636   2.409   8.895 -1.8343 -0.5823  0.3456
  480MOL0     H64781  -0.584   2.291   8.761 -1.0877 -0.1027  0.0230
  480MOL0     H64782  -0.001   2.108   9.623  0.2561 -1.4841 -0.5470
  480MOL0     H64783   0.137   2.293   9.616 -0.4551 -4.6030  1.4532
  480MOL0     H64784   0.116   2.772   9.172  0.0496 -0.4127  0.6995
  480MOL0     H64785   0.281   2.936   9.120 -1.4850 -0.0855 -0.1240
  480MOL0     H64786   1.659   2.634   9.274 -1.2551 -1.9078  0.4483
  480MOL0     H64787   1.818   2.572   9.125 -0.2221 -1.6228  1.6601
  480MOL0     H64788   2.029   2.417   8.831 -1.7491  2.2698  1.7911
  480MOL0     H64789   2.228   2.376   8.686  0.3906  0.4563  0.5936
  480MOL0     H64790   2.351   2.718   8.423 -0.7843 -0.3940 -0.2374
  480MOL0     H64791   2.429   2.700   8.578 -0.3205 -0.9274  0.1040
  480MOL0     H64792   2.592   2.669   8.382  1.5953  0.2609  0.3710
  480MOL0     H64793   2.479   2.544   8.324 -2.4351  1.4252  0.8655
  480MOL0     H64794   2.601   2.391   8.478  0.2307 -0.8343 -0.9432
  480MOL0     H64795   2.598   2.514   8.600 -4.3186 -0.0183  0.1564
  480MOL0     H64796   2.776   2.526   8.348 -2.0362  4.4742 -0.7608
  480MOL0     H64797   2.830   2.446   8.489 -0.0906 -0.2393  0.8761
  480MOL0     H64798   2.898   2.806   8.660 -1.6413  1.4337 -0.7560
  480MOL0     H64799   2.131   2.744   8.470 -1.9889  2.6190  0.4747
  480MOL0     H64800   1.942   2.769   8.583  0.1503 -0.1408  1.9355
  481MOL0     O64801   5.939   5.882   6.082 -0.4317  0.1397 -0.7634
  481MOL0     C64802   5.866   5.929   5.992  0.4568  0.2677 -0.4410
  481MOL0     O64803   5.869   6.056   5.946  0.4576 -0.8396 -0.4934
  481MOL0     C64804   5.940   6.149   6.018  0.7854  0.1365 -0.0911
  481MOL0     C64805   5.863   6.248   6.078 -0.4491  1.6013 -0.7226
  481MOL0     C64806   5.925   6.361   6.141  0.5909 -0.1039  0.0206
  481MOL0     C64807   6.066   6.369   6.145  0.2934  0.4523  0.4664
  481MOL0     O64808   6.141   6.472   6.197  0.7125 -0.2346  0.2832
  481MOL0     C64809   6.077   6.590   6.232  1.0670 -0.3095  0.9745
  481MOL0     C64810   6.183   6.693   6.266 -0.0077 -0.1700 -0.8087
  481MOL0     C64811   6.126   6.830   6.300  0.3653 -0.6043 -0.2777
  481MOL0     C64812   6.241   6.927   6.343  0.4216 -1.0815  0.4333
  481MOL0     C64813   6.181   7.060   6.381  0.8910  0.2329  0.5628
  481MOL0     C64814   6.296   7.149   6.414 -0.1184  1.0907  0.2676
  481MOL0     C64815   6.261   7.292   6.423 -0.0491  0.5016  0.7706
  481MOL0     C64816   6.380   7.391   6.436  0.2171 -0.5633 -0.7097
  481MOL0     N64817   6.434   7.378   6.571 -0.7449  0.1818  0.3087
  481MOL0     C64818   6.374   7.416   6.693 -0.9875 -1.0197 -0.8545
  481MOL0     C64819   6.476   7.393   6.783 -0.6533 -0.0325  0.3072
  481MOL0     C64820   6.466   7.417   6.930  0.4544  0.5309 -0.1195
  481MOL0     C64821   6.592   7.383   7.004  0.7216  0.6576  0.1570
  481MOL0     C64822   6.619   7.466   7.125 -0.2014  0.3310 -0.0673
  481MOL0     C64823   6.503   7.480   7.228  0.8923 -0.4271  0.7439
  481MOL0     O64824   6.558   7.550   7.343 -0.3700  0.0018 -0.2549
  481MOL0     C64825   6.489   7.646   7.415  0.0440 -0.7403 -0.4322
  481MOL0     C64826   6.383   7.716   7.370  0.1039 -0.0173  0.2064
  481MOL0     C64827   6.309   7.812   7.439 -0.1718 -0.3854  0.1662
  481MOL0     C64828   6.181   7.880   7.384 -0.0223  0.0049 -0.4262
  481MOL0     C64829   6.352   7.838   7.578  0.4336 -0.8577  1.2827
  481MOL0     C64830   6.298   7.942   7.666  0.4405  0.6384 -0.1661
  481MOL0     O64831   6.372   7.995   7.770  0.4898 -0.7362  0.3835
  481MOL0     C64832   6.323   8.079   7.870 -0.1151  0.1644  1.4466
  481MOL0     C64833   6.421   8.141   7.955 -0.1191 -0.4896  1.0198
  481MOL0     C64834   6.394   8.221   8.068  1.4299  0.0632  0.4781
  481MOL0     C64835   6.258   8.244   8.106  0.7402  0.1528  0.3067
  481MOL0     O64836   6.218   8.315   8.214  0.3484  0.6384  0.4788
  481MOL0     C64837   6.311   8.297   8.324  0.0514  0.3599 -0.5540
  481MOL0     C64838   6.238   8.351   8.442 -0.5050 -0.6601  0.2022
  481MOL0     C64839   6.301   8.318   8.579 -0.4454  0.4027  1.7180
  481MOL0     C64840   6.367   8.424   8.654  0.4905 -0.1259  0.2034
  481MOL0     C64841   6.403   8.373   8.793 -0.1586 -0.8095 -0.1407
  481MOL0     C64842   6.508   8.447   8.875  0.3228  0.2634  0.5720
  481MOL0     C64843   6.474   8.592   8.880  0.5219  0.3425  0.1834
  481MOL0     C64844   6.356   8.605   8.976 -0.4515 -1.0371 -0.6480
  481MOL0    Cl64845   6.413   8.592   9.147 -0.4587 -0.0398 -0.1438
  481MOL0     C64846   6.152   8.195   8.016  0.5892  0.5699 -0.6498
  481MOL0     C64847   6.187   8.110   7.909 -0.8302  0.8627  0.5150
  481MOL0     O64848   6.178   7.963   7.655 -0.1631  0.1326 -0.9064
  481MOL0     C64849   6.474   7.774   7.617 -0.2354 -0.2971 -0.2590
  481MOL0     C64850   6.538   7.680   7.537 -0.6414 -0.2570  0.5556
  481MOL0     N64851   6.589   7.345   6.710 -0.4197  0.4224 -0.2244
  481MOL0     N64852   6.558   7.331   6.583 -0.0158  0.4703 -0.7122
  481MOL0     C64853   6.136   6.260   6.087 -0.0779  1.0143 -0.5247
  481MOL0     C64854   6.076   6.150   6.017 -0.1798  0.1975  0.0572
  481MOL0     C64855   5.766   5.836   5.918 -1.6248  0.7953 -0.4884
  481MOL0     C64856   5.668   5.885   5.822 -0.7316 -0.1958 -0.1807
  481MOL0     C64857   5.577   5.798   5.767  0.6781  0.4075 -0.5589
  481MOL0     C64858   5.591   5.666   5.797  1.0258 -1.1852  0.6380
  481MOL0     O64859   5.483   5.591   5.761 -0.6580 -0.4781  0.3452
  481MOL0     C64860   5.521   5.474   5.675 -0.6018  0.4381  0.0149
  481MOL0     C64861   5.384   5.401   5.651 -0.5619 -1.6494 -0.3780
  481MOL0     C64862   5.399   5.271   5.576  0.6707 -0.1395  0.2530
  481MOL0     C64863   5.267   5.200   5.536  0.6786  0.5257  1.3477
  481MOL0     C64864   5.194   5.140   5.651 -0.5816  0.0573 -0.0955
  481MOL0     C64865   5.130   5.083   5.739 -1.4629  0.6510  0.1539
  481MOL0     C64866   5.691   5.613   5.874 -0.3145 -0.8161 -0.5320
  481MOL0     C64867   5.785   5.695   5.934 -0.2752 -0.0943  0.1922
  481MOL0     H64868   5.755   6.241   6.078 -0.5443  2.5340 -2.6864
  481MOL0     H64869   5.863   6.443   6.176 -1.4844 -1.6283  0.1563
  481MOL0     H64870   6.020   6.625   6.146 -0.9935  0.2341  2.4806
  481MOL0     H64871   6.008   6.566   6.314  1.5652 -1.4894  1.0714
  481MOL0     H64872   6.228   6.654   6.358 -0.5807  1.5403  0.2433
  481MOL0     H64873   6.257   6.708   6.187  1.5331  0.0063  0.6107
  481MOL0     H64874   6.070   6.862   6.212  0.7372 -1.7300 -0.9446
  481MOL0     H64875   6.048   6.828   6.376  0.0118 -3.3099 -0.6084
  481MOL0     H64876   6.298   6.894   6.430  3.2726 -1.6640 -1.4681
  481MOL0     H64877   6.308   6.945   6.258 -1.0846 -3.1328 -1.3285
  481MOL0     H64878   6.122   7.099   6.298 -0.1811 -0.5167  0.9564
  481MOL0     H64879   6.110   7.031   6.459  1.2170 -3.0886 -0.2185
  481MOL0     H64880   6.337   7.122   6.512 -2.7058  2.3353  1.7811
  481MOL0     H64881   6.379   7.124   6.347 -0.2482 -4.2559  1.5970
  481MOL0     H64882   6.212   7.312   6.327  0.3757 -4.7268 -0.8576
  481MOL0     H64883   6.187   7.298   6.504 -2.6911  1.7786 -1.5312
  481MOL0     H64884   6.353   7.497   6.433  1.6287 -0.2107 -2.4589
  481MOL0     H64885   6.456   7.358   6.365  1.5775  2.6729 -0.9265
  481MOL0     H64886   6.277   7.458   6.718  1.4349  3.3438  2.7017
  481MOL0     H64887   6.436   7.520   6.950  0.2274  0.6378 -0.9735
  481MOL0     H64888   6.385   7.359   6.973  1.2001 -0.2140  0.3182
  481MOL0     H64889   6.679   7.391   6.938  0.8885  0.2944  0.3324
  481MOL0     H64890   6.582   7.278   7.034  1.2633  0.7272  0.5852
  481MOL0     H64891   6.651   7.563   7.087  1.4539 -0.3828 -0.5889
  481MOL0     H64892   6.704   7.433   7.185 -0.6365  1.9283  1.5180
  481MOL0     H64893   6.473   7.383   7.268  2.5808 -0.9165  0.9180
  481MOL0     H64894   6.420   7.534   7.181 -0.2715 -2.7884 -0.0747
  481MOL0     H64895   6.332   7.710   7.275  0.6378  0.8680 -0.1441
  481MOL0     H64896   6.159   7.853   7.280 -1.7411  1.4628 -0.4951
  481MOL0     H64897   6.089   7.844   7.431 -0.0194 -1.8886 -1.7611
  481MOL0     H64898   6.184   7.989   7.398 -3.5334 -0.1225  3.4105
  481MOL0     H64899   6.517   8.115   7.911 -1.0757  0.6934 -2.0291
  481MOL0     H64900   6.482   8.251   8.125  1.3968 -1.5632  1.4385
  481MOL0     H64901   6.334   8.191   8.343  1.2716  0.3568 -1.8460
  481MOL0     H64902   6.402   8.356   8.307  0.5387  0.5957  2.3609
  481MOL0     H64903   6.240   8.460   8.434  1.2045 -0.5391  1.8200
  481MOL0     H64904   6.138   8.306   8.438 -0.0471 -1.6948  0.0189
  481MOL0     H64905   6.369   8.234   8.564 -1.2399  0.0393 -0.2043
  481MOL0     H64906   6.219   8.294   8.648 -0.5589  2.1913  2.2498
  481MOL0     H64907   6.460   8.459   8.609  1.2623 -0.1544  1.6937
  481MOL0     H64908   6.302   8.511   8.666  1.7507  0.7434  1.0197
  481MOL0     H64909   6.442   8.271   8.783 -0.9589 -1.1908  0.5451
  481MOL0     H64910   6.307   8.371   8.844 -0.3619  1.4065 -0.3250
  481MOL0     H64911   6.527   8.403   8.973  1.1648  2.0333  1.2472
  481MOL0     H64912   6.602   8.444   8.819 -0.3267  4.3046 -1.0618
  481MOL0     H64913   6.456   8.626   8.777 -0.5403 -2.5979 -0.6914
  481MOL0     H64914   6.559   8.644   8.925 -1.5114  4.5149 -0.2704
  481MOL0     H64915   6.272   8.538   8.956 -0.6926 -1.7705  2.3175
  481MOL0     H64916   6.316   8.707   8.982  1.7037 -0.1897  0.6821
  481MOL0     H64917   6.047   8.216   8.036  1.0148 -0.2123  3.4661
  481MOL0     H64918   6.108   8.069   7.847  1.4583  0.2754 -2.2517
  481MOL0     H64919   6.532   7.796   7.706 -2.4734 -1.1339  1.4970
  481MOL0     H64920   6.630   7.635   7.575 -0.4356 -0.4342 -0.1333
  481MOL0     H64921   6.243   6.268   6.104 -0.1830 -1.7812  2.3142
  481MOL0     H64922   6.133   6.068   5.975 -0.5907 -0.7718  1.3156
  481MOL0     H64923   5.667   5.991   5.799  4.2867  0.9223  2.9898
  481MOL0     H64924   5.503   5.837   5.697  1.5284 -0.0465 -1.7290
  481MOL0     H64925   5.556   5.496   5.574 -0.2547  3.0798  0.6428
  481MOL0     H64926   5.588   5.396   5.713 -2.4762 -0.6604  1.2483
  481MOL0     H64927   5.306   5.466   5.610 -0.5356 -0.6901  1.0243
  481MOL0     H64928   5.358   5.368   5.752  2.4566 -1.2819  0.6430
  481MOL0     H64929   5.473   5.207   5.625  2.0778  0.9810 -0.3357
  481MOL0     H64930   5.450   5.291   5.482 -1.5315 -0.5202 -1.0820
  481MOL0     H64931   5.298   5.123   5.464  1.5175  1.1255  1.0556
  481MOL0     H64932   5.194   5.260   5.480  3.4522 -1.0684 -4.8131
  481MOL0     H64933   5.067   5.036   5.812  2.0310  0.2224  3.1782
  481MOL0     H64934   5.692   5.505   5.875  1.8103 -0.8873 -2.4541
  481MOL0     H64935   5.863   5.656   5.998  0.5136  2.0078  0.5737
  482MOL0     O64936   5.468   0.751   8.104  0.5139 -0.4516  0.4957
  482MOL0     C64937   5.440   0.638   8.153  0.2047  0.3110  0.0059
  482MOL0     O64938   5.347   0.551   8.107  0.7357 -0.7223  0.1113
  482MOL0     C64939   5.220   0.599   8.058 -0.0999  1.2522 -0.0876
  482MOL0     C64940   5.134   0.501   8.012  0.1154  0.5342 -0.6911
  482MOL0     C64941   5.001   0.530   7.999  1.0255  0.0984 -1.0654
  482MOL0     C64942   4.954   0.661   7.988  0.8240  0.8547 -0.6262
  482MOL0     O64943   4.828   0.689   7.945  0.1767 -0.5503  0.0468
  482MOL0     C64944   4.820   0.782   7.839 -0.5798  0.1147 -0.8921
  482MOL0     C64945   4.836   0.718   7.705  0.1178 -0.3378  0.4460
  482MOL0     C64946   4.729   0.607   7.676 -0.0162 -0.4403  0.2436
  482MOL0     C64947   4.592   0.677   7.681 -0.2048  0.0453 -0.4185
  482MOL0     C64948   4.491   0.573   7.622 -0.2527 -1.2458 -0.6348
  482MOL0     C64949   4.465   0.590   7.475 -1.0616  0.1872 -0.1076
  482MOL0     C64950   4.351   0.488   7.428 -0.5834 -0.8999 -0.0928
  482MOL0     C64951   4.294   0.518   7.283 -0.5659 -0.7592 -0.7624
  482MOL0     N64952   4.184   0.433   7.241  0.1292  0.3818 -0.3298
  482MOL0     C64953   4.050   0.458   7.249 -1.1405 -0.3628 -0.7104
  482MOL0     C64954   3.988   0.367   7.178  0.1391 -0.4319 -0.1031
  482MOL0     C64955   3.844   0.337   7.189 -0.3417  0.5249  0.7694
  482MOL0     C64956   3.755   0.453   7.160 -0.2560  0.1129 -0.2698
  482MOL0     C64957   3.768   0.507   7.016  0.4135 -0.0396 -0.3163
  482MOL0     C64958   3.651   0.462   6.922 -0.3513 -0.0495  0.6326
  482MOL0     O64959   3.543   0.554   6.932  0.4305  0.1917  0.0418
  482MOL0     C64960   3.426   0.524   6.852  1.0565 -0.3570  0.0109
  482MOL0     C64961   3.391   0.404   6.794 -0.5882 -0.0829  0.2125
  482MOL0     C64962   3.282   0.394   6.713  0.5012  0.2990 -0.1554
  482MOL0     C64963   3.252   0.253   6.669  0.4185  0.6490 -0.3971
  482MOL0     C64964   3.201   0.501   6.677 -0.0474  0.3389  0.5120
  482MOL0     C64965   3.078   0.485   6.590  0.0739  0.3298 -1.3829
  482MOL0     O64966   2.991   0.371   6.610  0.0585 -0.3759 -0.0494
  482MOL0     C64967   2.895   0.373   6.512 -0.8444  0.4350 -0.5339
  482MOL0     C64968   2.901   0.277   6.404 -0.2773  0.8970 -0.7263
  482MOL0     C64969   2.812   0.283   6.296 -0.0388 -1.0214 -0.7850
  482MOL0     C64970   2.711   0.381   6.291  0.7315 -0.3965  0.0674
  482MOL0     O64971   2.619   0.391   6.190 -0.6149  0.0947 -0.0274
  482MOL0     C64972   2.679   0.358   6.057 -0.1972  0.5900  0.2702
  482MOL0     C64973   2.636   0.464   5.950  0.6044  0.2137 -0.8245
  482MOL0     C64974   2.502   0.432   5.882 -0.9334 -0.4557 -0.2438
  482MOL0     C64975   2.464   0.530   5.775 -0.9423 -0.5172  0.1757
  482MOL0     C64976   2.342   0.477   5.711  0.9440 -1.0094  0.5407
  482MOL0     C64977   2.282   0.572   5.606  0.0156  0.1666 -1.2447
  482MOL0     C64978   2.359   0.548   5.481 -0.2657  0.0671  0.2366
  482MOL0     C64979   2.304   0.632   5.363  0.0676  0.0384  0.6817
  482MOL0    Cl64980   2.342   0.561   5.202 -0.3031  0.0791  0.2028
  482MOL0     C64981   2.699   0.471   6.399 -0.3510 -0.8850 -0.5804
  482MOL0     C64982   2.787   0.472   6.512 -0.2496  0.0200  0.5800
  482MOL0     O64983   3.067   0.563   6.500 -0.3219  1.2951  0.2427
  482MOL0     C64984   3.232   0.626   6.719 -0.3813 -0.2612 -0.0077
  482MOL0     C64985   3.349   0.634   6.805  0.1702 -0.1124 -0.0326
  482MOL0     N64986   4.082   0.299   7.101  0.6111  0.1203  0.6627
  482MOL0     N64987   4.200   0.332   7.151  0.2064  0.4956  0.1559
  482MOL0     C64988   5.051   0.757   8.030 -0.4746 -1.0553  0.1539
  482MOL0     C64989   5.182   0.732   8.060 -0.3116  0.0331  1.0564
  482MOL0     C64990   5.515   0.594   8.265 -0.7738  0.7186  0.6010
  482MOL0     C64991   5.600   0.682   8.336 -0.1197 -0.2657  0.2763
  482MOL0     C64992   5.653   0.631   8.458 -0.3554  0.0517  0.1798
  482MOL0     C64993   5.632   0.507   8.515 -0.1308 -0.2692  0.8553
  482MOL0     O64994   5.655   0.490   8.651  0.3205 -0.2717  0.0193
  482MOL0     C64995   5.643   0.352   8.704 -0.8191 -0.5058 -0.0976
  482MOL0     C64996   5.710   0.338   8.832 -0.2953  0.1603  0.4289
  482MOL0     C64997   5.631   0.423   8.940  0.8946 -0.5971  0.1427
  482MOL0     C64998   5.699   0.414   9.079 -0.4575  0.6072  0.1429
  482MOL0     C64999   5.840   0.436   9.081 -0.2448  0.9905  0.7825
  482MOL0     C65000   5.951   0.475   9.053 -0.4893  0.1857  0.3523
  482MOL0     C65001   5.554   0.423   8.440 -0.0001  0.5391  0.7083
  482MOL0     C65002   5.502   0.464   8.315 -0.7387  0.3636 -0.5095
  482MOL0     H65003   5.158   0.395   8.010 -1.3013  0.1679  0.2720
  482MOL0     H65004   4.927   0.454   7.977 -3.3550  3.3073  1.1097
  482MOL0     H65005   4.723   0.829   7.850  0.1452  1.5350 -0.3381
  482MOL0     H65006   4.892   0.865   7.846 -2.4693  1.8616 -1.3678
  482MOL0     H65007   4.847   0.800   7.633  0.2250  0.2923  1.1604
  482MOL0     H65008   4.938   0.679   7.692  0.3503  0.0353  1.1012
  482MOL0     H65009   4.747   0.570   7.574 -2.8846  2.8949 -1.7371
  482MOL0     H65010   4.741   0.518   7.737 -0.2014 -0.6947 -0.0858
  482MOL0     H65011   4.575   0.687   7.788 -0.1242 -1.5307 -0.2275
  482MOL0     H65012   4.599   0.772   7.628 -1.1880  0.0122 -0.6293
  482MOL0     H65013   4.530   0.471   7.628 -0.2706 -1.2447 -0.4880
  482MOL0     H65014   4.402   0.579   7.685 -0.0869  0.6669 -0.5282
  482MOL0     H65015   4.437   0.693   7.451  1.9428  1.5030  1.5059
  482MOL0     H65016   4.545   0.568   7.404 -2.6273  0.1427 -1.9647
  482MOL0     H65017   4.387   0.384   7.431 -0.1393 -0.7540 -0.2740
  482MOL0     H65018   4.268   0.495   7.498 -1.0034  0.0269 -0.6783
  482MOL0     H65019   4.381   0.513   7.217  2.7652 -1.8771  3.3426
  482MOL0     H65020   4.255   0.621   7.278  5.1215  1.7009 -3.2484
  482MOL0     H65021   4.009   0.530   7.320 -1.4139 -0.7951 -0.4240
  482MOL0     H65022   3.807   0.258   7.123  1.2331  0.7755 -0.4612
  482MOL0     H65023   3.828   0.305   7.293  3.2833 -1.6514  0.8254
  482MOL0     H65024   3.780   0.539   7.222 -2.3769 -1.4923  3.0894
  482MOL0     H65025   3.650   0.428   7.177 -0.5435  0.2853 -1.6443
  482MOL0     H65026   3.861   0.486   6.962  0.9866 -2.6859  1.5040
  482MOL0     H65027   3.761   0.616   7.018  1.8631  0.0746  0.1213
  482MOL0     H65028   3.613   0.361   6.940 -1.5507  0.6656  2.2722
  482MOL0     H65029   3.693   0.480   6.822 -2.0463 -2.2140 -0.5505
  482MOL0     H65030   3.447   0.313   6.807  0.3942  0.1258 -2.0875
  482MOL0     H65031   3.197   0.264   6.575 -2.3526  1.9114  1.2432
  482MOL0     H65032   3.347   0.200   6.656 -0.7467 -2.7318  2.8442
  482MOL0     H65033   3.188   0.190   6.732  2.1401  0.0893  0.8600
  482MOL0     H65034   2.977   0.201   6.398 -2.6618 -1.9233  1.3954
  482MOL0     H65035   2.821   0.207   6.219  2.4622  0.4622 -2.0586
  482MOL0     H65036   2.788   0.352   6.051 -0.2044  1.6758 -2.0164
  482MOL0     H65037   2.631   0.266   6.022 -0.8464  1.1142 -0.2416
  482MOL0     H65038   2.619   0.563   5.993 -0.6763  0.6737 -2.2774
  482MOL0     H65039   2.717   0.477   5.876  2.0686 -0.5176  0.5815
  482MOL0     H65040   2.424   0.434   5.960  0.4243 -1.2982  1.1984
  482MOL0     H65041   2.508   0.330   5.842 -0.9741  1.0904 -4.6664
  482MOL0     H65042   2.451   0.632   5.811 -1.5844 -0.0028 -1.4492
  482MOL0     H65043   2.540   0.535   5.697  0.5036  0.0294  1.5587
  482MOL0     H65044   2.263   0.469   5.786 -1.4752  4.6500 -0.8064
  482MOL0     H65045   2.356   0.375   5.674  0.3877 -0.5413 -1.0806
  482MOL0     H65046   2.173   0.567   5.607  0.0257 -1.3692 -3.0989
  482MOL0     H65047   2.294   0.675   5.640 -1.6674  0.2847 -0.8941
  482MOL0     H65048   2.344   0.443   5.457  0.5529 -0.0373  0.1518
  482MOL0     H65049   2.467   0.558   5.497 -0.1683 -3.6598  3.0785
  482MOL0     H65050   2.338   0.736   5.355 -2.4325  0.9719  1.4217
  482MOL0     H65051   2.198   0.652   5.377 -0.1803  4.1557 -4.1241
  482MOL0     H65052   2.623   0.549   6.399 -0.5328 -1.0573 -1.2206
  482MOL0     H65053   2.788   0.532   6.603  1.6784 -1.1914  1.4364
  482MOL0     H65054   3.187   0.717   6.683  0.8951  0.3761 -0.0444
  482MOL0     H65055   3.389   0.729   6.839  1.6283 -1.6232  2.7824
  482MOL0     H65056   5.033   0.863   8.017 -0.0302 -1.2324 -2.5303
  482MOL0     H65057   5.253   0.814   8.072  1.2432 -0.3753 -3.4268
  482MOL0     H65058   5.626   0.784   8.307  2.2478 -0.2017  2.2583
  482MOL0     H65059   5.699   0.710   8.515 -1.3595  1.3151 -0.7026
  482MOL0     H65060   5.538   0.332   8.726 -0.5708 -2.1325 -0.2793
  482MOL0     H65061   5.679   0.285   8.626 -0.4440  4.1380 -4.4738
  482MOL0     H65062   5.815   0.369   8.825  0.0917 -1.2799 -0.4060
  482MOL0     H65063   5.707   0.230   8.848  2.4771 -0.2368 -1.0413
  482MOL0     H65064   5.534   0.380   8.966  0.6185 -0.5368 -0.7445
  482MOL0     H65065   5.620   0.529   8.914 -4.2781 -0.1282  3.0019
  482MOL0     H65066   5.675   0.315   9.120  0.2997  0.3310 -0.0732
  482MOL0     H65067   5.665   0.496   9.143  2.1808  0.0528  2.4237
  482MOL0     H65068   6.042   0.523   9.023 -0.1259 -1.7267 -1.9112
  482MOL0     H65069   5.517   0.327   8.475  0.6954 -0.3869 -0.9651
  482MOL0     H65070   5.443   0.387   8.265 -1.9102  0.6599  0.3737
  483MOL0     O65071   0.593   4.380   5.802  0.0954  0.0586  0.3553
  483MOL0     C65072   0.599   4.261   5.806  0.3246  0.6421 -0.8299
  483MOL0     O65073   0.633   4.188   5.693  0.0436 -0.0829 -0.3037
  483MOL0     C65074   0.629   4.243   5.564  0.6378 -0.6862 -0.3018
  483MOL0     C65075   0.548   4.349   5.517  0.5416  1.3374 -0.5822
  483MOL0     C65076   0.546   4.375   5.380 -0.2792 -0.1769 -0.8441
  483MOL0     C65077   0.627   4.305   5.287 -0.0197  0.0018  0.6599
  483MOL0     O65078   0.627   4.340   5.154 -0.0824 -0.2630  0.3053
  483MOL0     C65079   0.721   4.266   5.077  0.2743  0.0270 -0.0950
  483MOL0     C65080   0.663   4.131   5.034  1.3430 -0.1300 -0.3631
  483MOL0     C65081   0.534   4.140   4.955  0.4948  0.3166 -0.3193
  483MOL0     C65082   0.527   4.093   4.812  0.4832  0.3475 -0.0085
  483MOL0     C65083   0.512   3.941   4.804 -0.7414 -0.0661  0.6052
  483MOL0     C65084   0.496   3.888   4.666  0.2060 -0.4705 -0.3142
  483MOL0     C65085   0.535   3.746   4.658 -1.2396  0.7800  0.3334
  483MOL0     C65086   0.680   3.740   4.603 -0.0250  0.5650 -0.1394
  483MOL0     N65087   0.779   3.777   4.699  0.1763  0.2959 -0.7285
  483MOL0     C65088   0.826   3.708   4.811  1.2575  0.2409  0.3219
  483MOL0     C65089   0.926   3.787   4.865  0.8972  0.0583 -0.4011
  483MOL0     C65090   0.997   3.726   4.980 -0.1886  0.4095 -0.5989
  483MOL0     C65091   0.923   3.674   5.105  0.1743 -0.9370  0.3297
  483MOL0     C65092   0.813   3.775   5.156 -0.4915  0.2663  0.5710
  483MOL0     C65093   0.693   3.714   5.235 -0.4230  1.0342  0.7669
  483MOL0     O65094   0.628   3.624   5.139  0.7959 -0.1687  0.6010
  483MOL0     C65095   0.545   3.515   5.186 -0.0748  0.0357  0.7771
  483MOL0     C65096   0.496   3.503   5.322 -0.0249  0.8561  0.4329
  483MOL0     C65097   0.430   3.390   5.368 -0.0503 -0.3665  0.5480
  483MOL0     C65098   0.378   3.379   5.501 -0.3272 -0.3706 -0.3821
  483MOL0     C65099   0.413   3.285   5.275 -0.1165 -0.3356 -0.2016
  483MOL0     C65100   0.339   3.160   5.297 -0.1601 -0.1899  0.2325
  483MOL0     O65101   0.209   3.180   5.312 -0.6058 -0.6813  1.0588
  483MOL0     C65102   0.107   3.107   5.259  0.1199  0.0392  0.1870
  483MOL0     C65103   0.124   2.974   5.189  0.3371 -0.0901  0.7182
  483MOL0     C65104   0.016   2.901   5.145  0.2676  1.5105  0.2615
  483MOL0     C65105  -0.111   2.949   5.151  0.6889  0.8896  0.2414
  483MOL0     O65106  -0.226   2.893   5.102  0.0140  0.4015  0.3391
  483MOL0     C65107  -0.220   2.749   5.071 -0.1547  0.7569 -1.0239
  483MOL0     C65108  -0.206   2.663   5.199 -0.2050 -0.1975 -0.6009
  483MOL0     C65109  -0.095   2.567   5.221  0.3865  0.8076  0.0134
  483MOL0     C65110  -0.106   2.459   5.118  0.3484 -0.4872  0.5703
  483MOL0     C65111  -0.095   2.325   5.171 -1.1963 -0.6282 -0.2591
  483MOL0     C65112  -0.093   2.209   5.065  0.3954 -0.9504  0.0059
  483MOL0     C65113  -0.039   2.081   5.123 -0.9330  0.0518 -0.5284
  483MOL0     C65114  -0.028   1.972   5.020 -1.4986  0.7370 -0.2905
  483MOL0    Cl65115  -0.186   1.913   4.965  0.2246  0.0870  0.7047
  483MOL0     C65116  -0.134   3.077   5.206 -0.7441  0.5813 -0.0300
  483MOL0     C65117  -0.029   3.156   5.257 -0.1171 -0.9319  0.0394
  483MOL0     O65118   0.394   3.055   5.278  0.0126  0.0260  0.1499
  483MOL0     C65119   0.451   3.308   5.139  0.7757 -0.7653 -1.1863
  483MOL0     C65120   0.509   3.427   5.095  0.8077 -0.0271 -0.2647
  483MOL0     N65121   0.921   3.904   4.804 -1.5547  0.0721  0.2195
  483MOL0     N65122   0.831   3.902   4.707  0.2067 -0.0279  0.4971
  483MOL0     C65123   0.699   4.200   5.345 -0.6749 -0.1615  0.0375
  483MOL0     C65124   0.706   4.173   5.477 -0.0612 -0.0424 -0.6056
  483MOL0     C65125   0.583   4.198   5.937  0.3054 -0.3222  0.1260
  483MOL0     C65126   0.564   4.058   5.965  0.0590  0.9806 -0.0483
  483MOL0     C65127   0.567   4.009   6.096 -0.0431 -0.2444 -0.8326
  483MOL0     C65128   0.573   4.099   6.204  0.2551 -0.3915  0.2759
  483MOL0     O65129   0.573   4.069   6.339 -0.3375 -0.2361 -0.2455
  483MOL0     C65130   0.638   3.948   6.383  0.6440  0.0190 -0.6499
  483MOL0     C65131   0.620   3.944   6.530 -0.1546  0.4643  0.4916
  483MOL0     C65132   0.475   3.942   6.573 -0.0222  0.3254  0.0374
  483MOL0     C65133   0.452   3.937   6.722  0.1563 -0.7373  0.0836
  483MOL0     C65134   0.315   3.973   6.755 -0.5607 -0.1512 -0.2503
  483MOL0     C65135   0.197   3.997   6.781 -1.1149 -0.2244  0.4660
  483MOL0     C65136   0.584   4.235   6.183  0.0242 -0.1384  0.0033
  483MOL0     C65137   0.579   4.283   6.050 -0.3612 -0.4564  0.2420
  483MOL0     H65138   0.485   4.402   5.587 -2.3447 -0.3353 -1.7742
  483MOL0     H65139   0.493   4.466   5.354 -0.8301 -0.5934 -1.1871
  483MOL0     H65140   0.726   4.328   4.987 -2.0991 -0.4296 -0.6054
  483MOL0     H65141   0.822   4.248   5.116 -0.4029 -1.6162  0.9935
  483MOL0     H65142   0.735   4.085   4.965  0.4708  2.0160 -2.8372
  483MOL0     H65143   0.645   4.062   5.118 -3.1299  0.4690 -0.6195
  483MOL0     H65144   0.466   4.077   5.014  2.5806 -3.8521 -1.9573
  483MOL0     H65145   0.496   4.242   4.957 -0.9140 -0.1189 -2.3707
  483MOL0     H65146   0.441   4.139   4.764 -0.5519 -2.3756 -0.9826
  483MOL0     H65147   0.617   4.134   4.765  0.6378  3.3578  2.6231
  483MOL0     H65148   0.607   3.906   4.845 -1.1327  1.7885  3.3848
  483MOL0     H65149   0.434   3.905   4.873  1.1001  0.5017  3.1155
  483MOL0     H65150   0.393   3.908   4.634  0.6118  1.9467 -0.3000
  483MOL0     H65151   0.548   3.955   4.597  0.8197  1.1070  1.6084
  483MOL0     H65152   0.529   3.697   4.756 -1.2929  0.9417  0.4097
  483MOL0     H65153   0.463   3.701   4.589 -0.9680 -0.4498  0.8131
  483MOL0     H65154   0.684   3.793   4.508 -2.4632 -3.4893 -2.8089
  483MOL0     H65155   0.693   3.637   4.569 -1.4790  0.8693 -1.7506
  483MOL0     H65156   0.794   3.610   4.844  3.3088 -0.3669  0.6740
  483MOL0     H65157   1.072   3.650   4.955  0.9257  1.4462 -0.5068
  483MOL0     H65158   1.052   3.814   5.017 -0.6842 -0.4410  2.4167
  483MOL0     H65159   0.994   3.648   5.184 -0.9578  0.0020  1.7012
  483MOL0     H65160   0.878   3.583   5.065 -0.0241 -0.9246  0.5209
  483MOL0     H65161   0.759   3.816   5.070 -1.9500  0.3113  1.4605
  483MOL0     H65162   0.853   3.847   5.227  0.3330 -1.3472  1.8237
  483MOL0     H65163   0.638   3.801   5.271  0.2782  1.3410  1.1198
  483MOL0     H65164   0.733   3.650   5.315 -2.7287 -1.0559  0.3765
  483MOL0     H65165   0.519   3.581   5.394  0.3351  1.9743 -0.8370
  483MOL0     H65166   0.278   3.334   5.498  0.9050 -3.2631 -2.1645
  483MOL0     H65167   0.441   3.305   5.551  2.5969 -0.0666 -3.3014
  483MOL0     H65168   0.376   3.475   5.554 -2.1059 -1.3490  1.4963
  483MOL0     H65169   0.223   2.931   5.195  1.0049  0.9423 -1.5777
  483MOL0     H65170   0.038   2.804   5.101 -2.1623  1.4253 -0.9308
  483MOL0     H65171  -0.314   2.729   5.019 -2.0752  2.8143  1.4157
  483MOL0     H65172  -0.135   2.728   5.005  0.0804 -3.5151  0.3579
  483MOL0     H65173  -0.217   2.728   5.286 -0.8037  2.7511 -2.7424
  483MOL0     H65174  -0.299   2.606   5.206 -2.4981  2.9843 -2.5658
  483MOL0     H65175  -0.112   2.518   5.317 -2.0957  1.0033 -0.2545
  483MOL0     H65176   0.006   2.608   5.215 -0.1069  2.6396  2.4200
  483MOL0     H65177  -0.205   2.461   5.071  0.6966 -1.3853 -0.2261
  483MOL0     H65178  -0.036   2.472   5.035 -0.4045 -0.2159 -0.0314
  483MOL0     H65179  -0.175   2.307   5.244 -3.9675 -2.5011 -3.4261
  483MOL0     H65180   0.002   2.316   5.220  0.2176  1.1614 -2.5036
  483MOL0     H65181  -0.193   2.210   5.022  0.4988  4.6106 -0.8498
  483MOL0     H65182  -0.030   2.233   4.979  0.1654  1.5480  0.4564
  483MOL0     H65183  -0.101   2.052   5.209  3.8896 -2.5270  2.5435
  483MOL0     H65184   0.062   2.101   5.162 -0.7949 -4.9520  2.4914
  483MOL0     H65185   0.027   1.886   5.058  2.2683  2.8252 -0.4787
  483MOL0     H65186   0.032   1.995   4.932  0.0883  2.0766  1.0759
  483MOL0     H65187  -0.238   3.109   5.211 -0.2437  2.2163  0.7747
  483MOL0     H65188  -0.051   3.256   5.291  0.3565 -0.4998 -0.8791
  483MOL0     H65189   0.412   3.239   5.065  0.6655 -2.2653  0.2277
  483MOL0     H65190   0.533   3.452   4.992 -0.1328  0.8168 -0.2863
  483MOL0     H65191   0.764   4.134   5.288  0.5980  0.5323  0.6549
  483MOL0     H65192   0.767   4.097   5.526  0.6614  0.1492 -1.1982
  483MOL0     H65193   0.554   3.989   5.882 -0.3843  1.6713 -0.5811
  483MOL0     H65194   0.565   3.902   6.113  1.2863 -0.3474 -1.2407
  483MOL0     H65195   0.603   3.857   6.333  0.7935 -0.1635 -0.4243
  483MOL0     H65196   0.740   3.958   6.343  1.0638  1.6829  0.7348
  483MOL0     H65197   0.673   4.025   6.581 -1.3922  0.1256  2.4068
  483MOL0     H65198   0.673   3.852   6.557  1.3693  1.6893  1.8953
  483MOL0     H65199   0.421   3.856   6.531  0.4605 -1.1580  2.2778
  483MOL0     H65200   0.423   4.027   6.528  1.1021  1.3363  0.6153
  483MOL0     H65201   0.513   4.015   6.769  0.0533  0.6924 -2.0344
  483MOL0     H65202   0.467   3.839   6.769  2.0295  0.8010  3.0617
  483MOL0     H65203   0.094   4.019   6.796 -1.5476 -1.4816 -0.4639
  483MOL0     H65204   0.550   4.285   6.273  1.5834 -1.7715  1.5966
  483MOL0     H65205   0.587   4.391   6.044  2.6880 -0.6526 -1.1684
  484MOL0     O65206  10.356   8.935   9.258  0.2429 -0.2048  0.3330
  484MOL0     C65207  10.394   8.867   9.356 -0.6809 -0.5599 -0.0021
  484MOL0     O65208  10.313   8.849   9.468  0.7146  0.5216  0.4701
  484MOL0     C65209  10.181   8.900   9.478 -1.0363 -0.1379  0.0729
  484MOL0     C65210  10.095   8.930   9.372 -0.6763  0.5830  0.7048
  484MOL0     C65211   9.973   8.990   9.387 -0.1027 -0.0771 -0.0690
  484MOL0     C65212   9.946   9.037   9.516  0.1709 -0.5330 -1.6058
  484MOL0     O65213   9.831   9.098   9.550 -1.1097  0.8571  1.2472
  484MOL0     C65214   9.742   9.142   9.450  0.3391 -0.2171  0.3529
  484MOL0     C65215   9.650   9.247   9.497  0.4737 -0.4298  0.4129
  484MOL0     C65216   9.548   9.280   9.395 -0.8256 -0.2697  0.0353
  484MOL0     C65217   9.435   9.363   9.451  0.1838  0.1059 -0.4066
  484MOL0     C65218   9.421   9.483   9.360  0.2021 -0.1939  0.0652
  484MOL0     C65219   9.538   9.583   9.393  0.4253  0.2035  1.2678
  484MOL0     C65220   9.544   9.697   9.278 -0.3700  0.2009  0.0245
  484MOL0     C65221   9.687   9.764   9.273  1.1662 -0.0183  0.3550
  484MOL0     N65222   9.697   9.862   9.377  0.7261 -0.3011 -0.0528
  484MOL0     C65223   9.680  10.000   9.377  0.4750 -0.3157 -0.5991
  484MOL0     C65224   9.719  10.039   9.507 -0.0220  0.1313  0.2339
  484MOL0     C65225   9.711  10.182   9.566  0.4486  0.0411  0.7073
  484MOL0     C65226   9.590  10.202   9.661 -0.4285  1.2104  0.5020
  484MOL0     C65227   9.605  10.336   9.726  0.4294  0.4010  0.1229
  484MOL0     C65228   9.535  10.341   9.859 -0.5306 -0.5124  0.5782
  484MOL0     O65229   9.584  10.234   9.941  0.6591 -0.0202 -0.9094
  484MOL0     C65230   9.718  10.238   9.968  0.6328  1.3090 -0.3666
  484MOL0     C65231   9.785  10.355  10.002  0.3250 -0.2285  0.0264
  484MOL0     C65232   9.919  10.350  10.035  0.5065 -0.8439 -0.5335
  484MOL0     C65233   9.992  10.478  10.081  0.4520  0.7316  0.7077
  484MOL0     C65234   9.998  10.231  10.020 -0.3623 -0.2200  0.0724
  484MOL0     C65235  10.140  10.232  10.024  0.3455  0.5731  0.4914
  484MOL0     O65236  10.200  10.181  10.132 -0.6940 -0.2575 -0.5095
  484MOL0     C65237  10.335  10.161  10.152 -0.0425 -0.1961  0.4084
  484MOL0     C65238  10.385  10.184  10.277 -1.2993  0.4822 -0.0683
  484MOL0     C65239  10.524  10.172  10.300 -0.2495  0.5868 -0.1642
  484MOL0     C65240  10.616  10.107  10.202  0.2119  0.3144 -0.6342
  484MOL0     O65241  10.733  10.044  10.241  0.4307  0.6981 -0.0890
  484MOL0     C65242  10.841  10.043  10.146  0.3586 -0.2879  0.1355
  484MOL0     C65243  10.961   9.969  10.215 -0.1886 -1.2489 -0.2740
  484MOL0     C65244  11.079   9.915  10.122  1.0821  0.5269  0.9079
  484MOL0     C65245  11.153   9.800  10.183 -0.4028 -0.3921 -0.7852
  484MOL0     C65246  11.307   9.814  10.165  0.5781 -0.0193 -0.1362
  484MOL0     C65247  11.382   9.710  10.244  0.3543 -0.0283 -0.1279
  484MOL0     C65248  11.532   9.664  10.199  0.5798  0.1545 -0.0276
  484MOL0     C65249  11.624   9.784  10.181  0.0009  0.4184  0.9705
  484MOL0    Cl65250  11.776   9.717  10.107 -0.4034 -0.0903 -0.2087
  484MOL0     C65251  10.554  10.080  10.084  0.5584 -0.2120  0.8037
  484MOL0     C65252  10.420  10.113  10.048  0.3792 -0.9491  0.1778
  484MOL0     O65253  10.198  10.295   9.930 -0.6963  0.1993  0.1955
  484MOL0     C65254   9.918  10.115   9.985  0.2813 -0.0373 -0.1642
  484MOL0     C65255   9.785  10.121   9.960  0.5912 -0.4062  0.2822
  484MOL0     N65256   9.735   9.924   9.576 -0.3852 -0.1691  0.7688
  484MOL0     N65257   9.724   9.818   9.504 -0.2903  0.2800 -0.1292
  484MOL0     C65258  10.037   9.025   9.621 -0.3735  0.2670 -0.1366
  484MOL0     C65259  10.141   8.939   9.604 -0.3951  0.4073 -0.3878
  484MOL0     C65260  10.519   8.786   9.358  0.1595 -0.0773 -0.3416
  484MOL0     C65261  10.580   8.741   9.240  0.5917 -0.4868  0.3313
  484MOL0     C65262  10.692   8.657   9.244  0.1047 -0.6503 -1.3059
  484MOL0     C65263  10.760   8.637   9.368  0.5526  0.1008 -0.2509
  484MOL0     O65264  10.878   8.572   9.364 -0.7016  0.5633  1.3868
  484MOL0     C65265  10.948   8.534   9.482 -1.2338  0.8358  0.5449
  484MOL0     C65266  11.074   8.459   9.432 -0.1165  0.1971  0.0593
  484MOL0     C65267  11.055   8.302   9.425 -1.4847 -1.3500  0.2017
  484MOL0     C65268  11.180   8.215   9.412  0.7045 -0.2908  0.7308
  484MOL0     C65269  11.307   8.287   9.385  1.3117 -1.2076 -0.4418
  484MOL0     C65270  11.412   8.347   9.364 -0.4859  0.4195 -0.4451
  484MOL0     C65271  10.707   8.702   9.484 -0.4337 -0.3992 -0.1566
  484MOL0     C65272  10.591   8.773   9.477  0.1890  0.4147 -0.2638
  484MOL0     H65273  10.114   8.915   9.266 -1.8907 -0.7147  0.6499
  484MOL0     H65274   9.908   9.013   9.303  0.0069  1.4294  0.2273
  484MOL0     H65275   9.798   9.190   9.369 -3.4575  0.8235 -1.9043
  484MOL0     H65276   9.679   9.058   9.418  0.1511  1.4048 -4.3881
  484MOL0     H65277   9.601   9.200   9.583  2.5551  1.6387  2.9336
  484MOL0     H65278   9.707   9.334   9.531  0.5767 -1.5047  3.3517
  484MOL0     H65279   9.600   9.333   9.314 -1.7947  0.9711  0.2011
  484MOL0     H65280   9.507   9.192   9.344 -0.2731  0.0822 -1.0691
  484MOL0     H65281   9.338   9.314   9.446  0.7846 -1.0757 -0.6872
  484MOL0     H65282   9.467   9.402   9.548 -1.5685  2.0200 -0.5309
  484MOL0     H65283   9.432   9.465   9.253 -0.7732  2.2067 -0.4827
  484MOL0     H65284   9.325   9.534   9.357  0.3950  0.1884  0.3211
  484MOL0     H65285   9.537   9.621   9.495  4.2187 -1.8297  2.2615
  484MOL0     H65286   9.636   9.534   9.388 -0.0594 -0.8832  2.0022
  484MOL0     H65287   9.540   9.650   9.180  1.7963  1.9369 -0.9930
  484MOL0     H65288   9.466   9.774   9.281  0.4631  1.0537  2.6226
  484MOL0     H65289   9.708   9.808   9.175 -0.6014  1.4111  0.5635
  484MOL0     H65290   9.759   9.685   9.297 -1.0818 -2.0632  0.6345
  484MOL0     H65291   9.652  10.064   9.293 -2.3709  0.0607  0.4966
  484MOL0     H65292   9.805  10.204   9.619  2.7242 -6.4103  0.2324
  484MOL0     H65293   9.715  10.258   9.487 -0.7754  2.0127  2.4214
  484MOL0     H65294   9.592  10.117   9.730 -1.1790 -0.4137 -1.3671
  484MOL0     H65295   9.497  10.194   9.604 -0.0275 -1.2311  0.0834
  484MOL0     H65296   9.566  10.410   9.656 -0.0043  0.4824  0.4415
  484MOL0     H65297   9.708  10.365   9.745  1.4147 -2.8258  0.3165
  484MOL0     H65298   9.428  10.326   9.839 -0.2620 -1.4339 -0.2637
  484MOL0     H65299   9.532  10.444   9.896 -4.5564  0.0331 -0.7955
  484MOL0     H65300   9.755  10.459  10.009  1.5199  0.1276  0.1211
  484MOL0     H65301   9.959  10.571  10.034  1.4063  0.1980 -1.1320
  484MOL0     H65302   9.986  10.486  10.189 -3.0164  3.1101  0.4742
  484MOL0     H65303  10.097  10.480  10.048  0.2897  0.7541  0.1761
  484MOL0     H65304  10.316  10.209  10.357 -0.6792  0.2427  0.5466
  484MOL0     H65305  10.558  10.175  10.403 -3.5732  1.1668  1.0578
  484MOL0     H65306  10.819   9.988  10.054  1.2837 -0.7697  0.1838
  484MOL0     H65307  10.874  10.145  10.120  2.9825 -0.8143  1.0734
  484MOL0     H65308  10.998  10.029  10.298  0.4615 -3.0030  0.7600
  484MOL0     H65309  10.916   9.878  10.256  1.8422 -2.7259 -1.1555
  484MOL0     H65310  11.152   9.993  10.097  1.7908 -0.2964  0.3842
  484MOL0     H65311  11.035   9.878  10.029  2.2204 -0.3724  0.7037
  484MOL0     H65312  11.123   9.796  10.288 -0.7568  2.6935 -0.6696
  484MOL0     H65313  11.122   9.706  10.136 -0.5010 -0.7791  0.0297
  484MOL0     H65314  11.331   9.911  10.209  1.4616  2.3861 -5.1511
  484MOL0     H65315  11.340   9.834  10.062  0.7944 -0.2634 -0.1168
  484MOL0     H65316  11.401   9.741  10.347  0.5291 -2.7235  0.7281
  484MOL0     H65317  11.324   9.617  10.241 -1.3054  0.9645 -0.0301
  484MOL0     H65318  11.531   9.603  10.108 -0.7958 -1.3736  0.9454
  484MOL0     H65319  11.579   9.600  10.274  1.5005 -0.0706 -0.7847
  484MOL0     H65320  11.654   9.836  10.273 -3.1702 -0.3298  2.5798
  484MOL0     H65321  11.582   9.863  10.118  0.4186  0.1212  0.3135
  484MOL0     H65322  10.605  10.035   9.999 -2.1545 -0.2141 -0.9586
  484MOL0     H65323  10.381  10.099   9.948  0.8045  0.8106 -0.2596
  484MOL0     H65324   9.978  10.029   9.955  0.7198  0.2258 -0.0501
  484MOL0     H65325   9.724  10.031   9.955 -0.3554 -0.0290  3.2835
  484MOL0     H65326  10.012   9.050   9.724  0.2285  1.8743 -0.3592
  484MOL0     H65327  10.199   8.912   9.692 -0.1866  2.3547  0.1398
  484MOL0     H65328  10.545   8.768   9.141  0.3429 -0.4052  0.4414
  484MOL0     H65329  10.747   8.629   9.154 -0.4328  1.8018 -2.5052
  484MOL0     H65330  10.983   8.622   9.537 -0.0088  0.2990  0.6665
  484MOL0     H65331  10.884   8.473   9.546 -1.4338  0.6564  0.1757
  484MOL0     H65332  11.159   8.475   9.499  2.0114 -3.3895 -1.4869
  484MOL0     H65333  11.120   8.501   9.343  3.9797  1.6432  2.5846
  484MOL0     H65334  10.980   8.292   9.345 -0.6559  0.2910 -0.8330
  484MOL0     H65335  10.998   8.267   9.511 -0.6043 -2.7220  0.2628
  484MOL0     H65336  11.153   8.158   9.322 -0.0536 -1.1568  1.4892
  484MOL0     H65337  11.171   8.154   9.502 -0.7057  0.3590  1.0541
  484MOL0     H65338  11.503   8.393   9.331  0.5345  0.1125  1.7443
  484MOL0     H65339  10.760   8.688   9.577  1.3019  0.1117 -1.0320
  484MOL0     H65340  10.544   8.812   9.568  0.6723  0.1785  0.0864
  485MOL0     O65341  10.405   5.485   5.113  0.3483  0.1372  0.6766
  485MOL0     C65342  10.331   5.410   5.179  0.2674 -0.6483 -0.0045
  485MOL0     O65343  10.267   5.299   5.138  0.4590  0.3251 -0.5937
  485MOL0     C65344  10.300   5.234   5.016  0.8237 -0.0609  0.1955
  485MOL0     C65345  10.191   5.193   4.934  0.4627  0.1808  1.0167
  485MOL0     C65346  10.212   5.126   4.810  0.5505  0.2821 -0.4142
  485MOL0     C65347  10.346   5.104   4.772  0.5831 -0.1234  0.6384
  485MOL0     O65348  10.384   5.032   4.661  0.0810  0.0312 -0.0168
  485MOL0     C65349  10.278   5.018   4.556  0.4999 -0.8383 -0.3550
  485MOL0     C65350  10.350   4.970   4.438 -0.1622 -0.0890 -1.1220
  485MOL0     C65351  10.419   5.082   4.350  0.3506 -0.1488 -0.7099
  485MOL0     C65352  10.458   5.033   4.208 -0.0985  0.3816  0.1516
  485MOL0     C65353  10.536   5.153   4.135 -0.8133  0.6774  0.4984
  485MOL0     C65354  10.536   5.129   3.981  0.1421 -0.3104  0.9277
  485MOL0     C65355  10.622   5.228   3.901 -1.2002  0.3019 -0.6966
  485MOL0     C65356  10.610   5.380   3.937 -0.8321  0.2392 -0.1027
  485MOL0     N65357  10.718   5.471   3.890  0.0948 -0.1133 -0.4314
  485MOL0     C65358  10.794   5.555   3.969  0.3989  0.7778 -0.7147
  485MOL0     C65359  10.889   5.594   3.887  0.2940  1.8512  0.0889
  485MOL0     C65360  11.010   5.669   3.925  0.1382  0.4758  1.2897
  485MOL0     C65361  11.028   5.792   3.845 -0.2031 -0.2112  0.1307
  485MOL0     C65362  11.165   5.858   3.885  0.5440  0.2654  0.6822
  485MOL0     C65363  11.219   5.957   3.775 -0.5179  0.1995  0.2703
  485MOL0     O65364  11.344   6.007   3.823 -0.2778  1.2837 -0.0196
  485MOL0     C65365  11.444   6.064   3.747 -0.1340 -0.4897 -0.7022
  485MOL0     C65366  11.430   6.085   3.616  0.1484  0.1426  0.0089
  485MOL0     C65367  11.529   6.134   3.534  0.3684 -0.6058 -0.1616
  485MOL0     C65368  11.501   6.136   3.386  0.2730  0.1753  0.6654
  485MOL0     C65369  11.656   6.173   3.587 -0.3634 -0.7828 -0.3882
  485MOL0     C65370  11.756   6.254   3.520  0.0514 -0.6261  0.1923
  485MOL0     O65371  11.723   6.296   3.393 -0.4082  0.8158  0.9985
  485MOL0     C65372  11.828   6.322   3.306  0.3906 -0.3259 -0.4299
  485MOL0     C65373  11.892   6.441   3.310  0.2461  1.2647  0.7725
  485MOL0     C65374  11.995   6.472   3.217  1.1856 -0.0803 -0.5469
  485MOL0     C65375  12.029   6.382   3.114  0.3252 -0.4432  0.5974
  485MOL0     O65376  12.125   6.424   3.027 -0.2301 -1.2657  0.0025
  485MOL0     C65377  12.103   6.399   2.885  0.3355 -0.9627  0.4359
  485MOL0     C65378  12.145   6.528   2.809 -0.2352 -0.2714 -0.9410
  485MOL0     C65379  12.299   6.559   2.809 -0.5619  1.4146  0.2231
  485MOL0     C65380  12.359   6.477   2.695  0.3448 -0.1072 -0.8190
  485MOL0     C65381  12.503   6.515   2.649  0.7924 -0.6120  0.1329
  485MOL0     C65382  12.524   6.669   2.616  0.6674  0.0982  0.3491
  485MOL0     C65383  12.662   6.682   2.548 -0.0515 -0.7858 -0.7841
  485MOL0     C65384  12.676   6.837   2.512 -0.3232 -0.0458  0.5256
  485MOL0    Cl65385  12.574   6.888   2.379 -0.0441  0.2768  0.3765
  485MOL0     C65386  11.931   6.274   3.095 -1.1942 -0.0303  0.0176
  485MOL0     C65387  11.837   6.245   3.195 -0.0344  0.1844 -0.9414
  485MOL0     O65388  11.871   6.255   3.570  0.2346 -0.3783  0.3336
  485MOL0     C65389  11.669   6.153   3.730 -0.1360  0.5667 -0.4631
  485MOL0     C65390  11.561   6.106   3.810  0.3256  0.7504  0.1058
  485MOL0     N65391  10.856   5.536   3.761 -0.1091 -0.1484  0.0476
  485MOL0     N65392  10.752   5.472   3.761  0.9978  0.4078 -0.4958
  485MOL0     C65393  10.456   5.147   4.858 -0.0069  0.0790  0.7680
  485MOL0     C65394  10.432   5.208   4.985  0.3263  1.0905 -1.2505
  485MOL0     C65395  10.296   5.446   5.317 -0.8256 -0.3563 -0.4022
  485MOL0     C65396  10.302   5.576   5.357 -0.0079  0.6638 -0.0198
  485MOL0     C65397  10.247   5.612   5.489 -0.6180  0.4373  1.7611
  485MOL0     C65398  10.216   5.515   5.580  0.0807  0.6292 -0.4720
  485MOL0     O65399  10.178   5.549   5.713  0.6075  0.4750  0.9827
  485MOL0     C65400  10.123   5.680   5.736 -0.0092  0.5695 -1.3187
  485MOL0     C65401  10.054   5.684   5.874 -0.7212  0.1112 -0.2551
  485MOL0     C65402  10.165   5.673   5.979  0.9597 -0.2385  0.2963
  485MOL0     C65403  10.137   5.707   6.125  0.4718  0.8834  0.4650
  485MOL0     C65404  10.089   5.587   6.195  0.7959 -0.6674 -0.5150
  485MOL0     C65405  10.040   5.487   6.237  1.2084  0.1841 -0.3367
  485MOL0     C65406  10.229   5.391   5.544  1.1914  0.3803  0.2985
  485MOL0     C65407  10.259   5.346   5.413  0.8572 -1.1213  0.4623
  485MOL0     H65408  10.088   5.202   4.969 -0.2429 -0.9292 -0.6601
  485MOL0     H65409  10.128   5.094   4.749  1.7216  2.0860 -3.1965
  485MOL0     H65410  10.203   4.946   4.590  2.2607 -1.5849  2.2733
  485MOL0     H65411  10.231   5.115   4.536 -1.4679 -1.4129  1.1181
  485MOL0     H65412  10.424   4.899   4.474 -2.5300 -1.7070  0.9423
  485MOL0     H65413  10.288   4.923   4.362 -0.0277 -0.0259 -1.2708
  485MOL0     H65414  10.343   5.161   4.347 -2.1005 -2.2170  1.5583
  485MOL0     H65415  10.508   5.114   4.406  1.6977 -0.5282 -2.5405
  485MOL0     H65416  10.517   4.943   4.226 -1.2028  0.0071  2.1839
  485MOL0     H65417  10.373   5.005   4.145  0.4941 -1.3905  0.0782
  485MOL0     H65418  10.482   5.246   4.155  0.6104  1.4019  1.1714
  485MOL0     H65419  10.638   5.176   4.167 -0.0654  2.5796 -2.8065
  485MOL0     H65420  10.568   5.027   3.957  1.2378 -0.5689  3.2174
  485MOL0     H65421  10.437   5.130   3.935  0.9402  0.7318 -0.8944
  485MOL0     H65422  10.719   5.180   3.922 -1.2383  1.1003  1.6192
  485MOL0     H65423  10.603   5.208   3.796  0.9723 -0.7919 -0.9479
  485MOL0     H65424  10.604   5.383   4.046 -2.6981 -2.1354 -0.0749
  485MOL0     H65425  10.522   5.438   3.907 -0.5468  0.9308  0.3550
  485MOL0     H65426  10.786   5.583   4.074 -1.7498  0.0622 -0.6304
  485MOL0     H65427  11.004   5.692   4.032  0.1540  1.7211  1.0373
  485MOL0     H65428  11.098   5.605   3.925 -0.9781 -1.0970  1.4801
  485MOL0     H65429  10.943   5.860   3.850 -1.0572 -0.9969 -2.3151
  485MOL0     H65430  11.042   5.774   3.738 -0.5684 -1.3906  0.2669
  485MOL0     H65431  11.232   5.773   3.898 -1.4372 -1.5717 -0.5340
  485MOL0     H65432  11.139   5.917   3.974  2.8677 -1.5959  2.7366
  485MOL0     H65433  11.150   6.040   3.765 -0.5016  0.3374  1.2344
  485MOL0     H65434  11.229   5.911   3.676 -3.9422 -0.9181  0.3364
  485MOL0     H65435  11.338   6.068   3.562  1.5956  1.6716 -3.2100
  485MOL0     H65436  11.411   6.081   3.358  0.9933 -1.6059  1.6286
  485MOL0     H65437  11.477   6.238   3.356 -1.1893  0.2258  1.8597
  485MOL0     H65438  11.587   6.101   3.328  0.2202 -1.6009  1.5853
  485MOL0     H65439  11.868   6.511   3.391 -0.5891  0.1991  1.4731
  485MOL0     H65440  12.036   6.572   3.226  1.1392 -0.1132  0.0442
  485MOL0     H65441  12.158   6.313   2.846  2.5227  0.1783  0.8408
  485MOL0     H65442  11.997   6.394   2.857 -0.2812  2.5591  1.6672
  485MOL0     H65443  12.101   6.530   2.708  0.4149 -2.4590 -1.3124
  485MOL0     H65444  12.106   6.607   2.874 -2.6697 -1.8315 -0.4001
  485MOL0     H65445  12.338   6.533   2.908  1.3657  0.6055 -0.6857
  485MOL0     H65446  12.321   6.663   2.785  2.3099  0.5087 -1.5146
  485MOL0     H65447  12.344   6.370   2.707 -1.4003 -0.0253 -1.8237
  485MOL0     H65448  12.299   6.505   2.607  1.1131  0.8772 -1.0498
  485MOL0     H65449  12.526   6.450   2.564  0.7488 -0.1687 -0.2155
  485MOL0     H65450  12.558   6.500   2.742  0.3940  3.1415  1.1330
  485MOL0     H65451  12.451   6.716   2.549  0.4920  0.3559  0.7183
  485MOL0     H65452  12.517   6.728   2.708 -1.1068 -1.1454  1.0703
  485MOL0     H65453  12.677   6.625   2.455 -0.4493  1.7021 -2.4898
  485MOL0     H65454  12.731   6.651   2.626 -1.5782 -0.8103  0.6101
  485MOL0     H65455  12.779   6.855   2.480  0.2615  0.6969  2.6279
  485MOL0     H65456  12.647   6.899   2.598  1.1877 -1.9591  2.5447
  485MOL0     H65457  11.947   6.211   3.008  2.7773  0.3389  0.3197
  485MOL0     H65458  11.765   6.166   3.182 -2.3970  1.5080  2.6864
  485MOL0     H65459  11.756   6.172   3.792 -3.1046 -0.0657  4.4595
  485MOL0     H65460  11.577   6.087   3.916  4.7161  0.2589 -0.4426
  485MOL0     H65461  10.561   5.125   4.841 -0.0238 -1.1363  2.0336
  485MOL0     H65462  10.519   5.236   5.042  0.9418 -3.1641  0.2392
  485MOL0     H65463  10.343   5.653   5.293 -1.0265 -0.2479 -1.8611
  485MOL0     H65464  10.259   5.718   5.511  1.6059  0.8219 -0.8208
  485MOL0     H65465  10.202   5.756   5.733  0.7379  0.1100  2.3743
  485MOL0     H65466  10.045   5.707   5.664  0.0842  0.2772 -1.5309
  485MOL0     H65467   9.975   5.613   5.897 -1.3948  1.0516  0.4297
  485MOL0     H65468  10.006   5.781   5.862 -0.9794 -0.3433 -3.8267
  485MOL0     H65469  10.250   5.737   5.953  1.0112 -0.8838 -1.2383
  485MOL0     H65470  10.205   5.572   5.973  1.6492 -0.0865  1.9484
  485MOL0     H65471  10.060   5.782   6.148  0.3238 -0.0219  3.3327
  485MOL0     H65472  10.230   5.736   6.175 -0.6493  1.9159  2.0753
  485MOL0     H65473   9.981   5.404   6.272 -1.8741  2.3363 -0.1012
  485MOL0     H65474  10.212   5.323   5.627  3.8930 -1.3346 -0.4482
  485MOL0     H65475  10.259   5.241   5.386  0.8163 -0.9019 -0.4022
  486MOL0     O65476  10.598   9.326   2.134  0.0572  0.4783  0.4365
  486MOL0     C65477  10.653   9.222   2.171  0.3837  0.7418 -0.5024
  486MOL0     O65478  10.589   9.114   2.228 -0.4525 -1.0052  0.2900
  486MOL0     C65479  10.459   9.149   2.273 -0.0841 -0.7948  1.1079
  486MOL0     C65480  10.357   9.161   2.179  0.2263 -0.4587 -0.2815
  486MOL0     C65481  10.228   9.191   2.220  0.5226  0.6216  0.1172
  486MOL0     C65482  10.201   9.215   2.354 -0.0185 -0.2268  1.1555
  486MOL0     O65483  10.077   9.253   2.395  0.5593 -0.2100 -0.0734
  486MOL0     C65484  10.020   9.138   2.460 -0.0008 -0.2220  0.0809
  486MOL0     C65485   9.869   9.152   2.495 -0.5257 -0.1079 -0.2931
  486MOL0     C65486   9.806   9.032   2.573 -0.9759  0.1029  0.5894
  486MOL0     C65487   9.802   8.905   2.483  0.0171  0.3253  0.1075
  486MOL0     C65488   9.827   8.777   2.563 -0.2987  0.3290 -0.0457
  486MOL0     C65489   9.699   8.743   2.638 -0.4202  0.3370 -0.1193
  486MOL0     C65490   9.587   8.703   2.557  0.7504  0.9423 -0.0130
  486MOL0     C65491   9.523   8.563   2.593 -0.5340 -0.0316 -0.0191
  486MOL0     N65492   9.601   8.447   2.549  0.0801  1.3637  0.6867
  486MOL0     C65493   9.615   8.411   2.418  0.5970 -0.9429 -0.4552
  486MOL0     C65494   9.693   8.302   2.428  0.6046 -0.5664 -0.4679
  486MOL0     C65495   9.742   8.223   2.309 -0.2462  0.0368 -0.2836
  486MOL0     C65496   9.719   8.072   2.297 -1.4743  0.5270 -0.4254
  486MOL0     C65497   9.581   8.026   2.252  0.1439 -0.6343  0.5583
  486MOL0     C65498   9.478   8.041   2.363  0.1686 -0.9245  0.6669
  486MOL0     O65499   9.345   8.079   2.311 -0.3755 -0.0106  0.2449
  486MOL0     C65500   9.296   8.200   2.353  0.4219  0.3615  0.5790
  486MOL0     C65501   9.265   8.303   2.267  0.6166  1.1121 -0.9330
  486MOL0     C65502   9.222   8.429   2.313 -0.0118  0.1496  0.1590
  486MOL0     C65503   9.199   8.546   2.213 -0.8005  0.4067 -0.9775
  486MOL0     C65504   9.193   8.444   2.448 -0.3041  0.4103 -1.1468
  486MOL0     C65505   9.126   8.562   2.511  0.6443 -0.5604  0.6093
  486MOL0     O65506   9.021   8.543   2.591  0.1391  0.3706 -0.6279
  486MOL0     C65507   8.950   8.631   2.662 -1.1223 -1.2263 -0.0880
  486MOL0     C65508   8.931   8.624   2.801  0.0678  0.3882  0.4607
  486MOL0     C65509   8.864   8.724   2.874  0.7318 -0.0494  0.0126
  486MOL0     C65510   8.787   8.822   2.807 -0.0335  0.2171  0.7386
  486MOL0     O65511   8.700   8.893   2.878 -0.6941  0.5887  0.0228
  486MOL0     C65512   8.635   9.011   2.827  1.0220  0.7377  0.9136
  486MOL0     C65513   8.505   8.973   2.761 -0.4554 -0.5125  0.6440
  486MOL0     C65514   8.417   9.078   2.695 -0.7442  0.0684  0.4753
  486MOL0     C65515   8.411   9.204   2.777  0.2536  0.0521 -0.5737
  486MOL0     C65516   8.296   9.294   2.729  0.0425  0.0761 -0.5943
  486MOL0     C65517   8.333   9.369   2.597 -0.0907  0.5460 -1.0655
  486MOL0     C65518   8.217   9.460   2.575  0.0410 -1.1332 -0.4249
  486MOL0     C65519   8.202   9.542   2.442 -0.2961 -1.2199 -0.1150
  486MOL0    Cl65520   8.221   9.438   2.306 -0.4669  0.5580  0.5715
  486MOL0     C65521   8.800   8.828   2.659 -0.6454  0.0558 -0.3744
  486MOL0     C65522   8.874   8.738   2.593  0.5515  0.4482  0.6030
  486MOL0     O65523   9.179   8.675   2.490  0.0092  0.1419  0.0552
  486MOL0     C65524   9.232   8.336   2.532  0.3281 -0.0350  0.0063
  486MOL0     C65525   9.278   8.219   2.488 -0.4417 -0.2772 -0.3255
  486MOL0     N65526   9.714   8.272   2.561 -0.9113  0.1443 -0.0595
  486MOL0     N65527   9.676   8.366   2.629 -0.2004  0.4150 -0.4824
  486MOL0     C65528  10.308   9.216   2.441 -0.3656  0.4246  0.9473
  486MOL0     C65529  10.436   9.178   2.401  0.6429  0.3353 -0.5051
  486MOL0     C65530  10.795   9.210   2.159 -1.3472 -1.6898  0.9586
  486MOL0     C65531  10.851   9.302   2.066 -0.0951 -0.1750 -0.2386
  486MOL0     C65532  10.993   9.310   2.052 -0.1207 -0.3782 -1.1518
  486MOL0     C65533  11.076   9.225   2.125  0.7312  0.4544  0.3552
  486MOL0     O65534  11.212   9.211   2.106 -0.1479 -0.1374  0.1389
  486MOL0     C65535  11.282   9.338   2.113  0.3094  1.1825  0.3647
  486MOL0     C65536  11.264   9.415   2.237  0.0250 -0.2783  1.0963
  486MOL0     C65537  11.347   9.544   2.258 -0.2258 -1.4658  0.2285
  486MOL0     C65538  11.500   9.539   2.249 -0.9003 -0.6471 -0.6311
  486MOL0     C65539  11.547   9.501   2.114 -0.4210  0.8416  0.3875
  486MOL0     C65540  11.588   9.461   2.003  0.0194 -0.9955 -0.4061
  486MOL0     C65541  11.021   9.127   2.205  0.1995  0.3389 -0.3895
  486MOL0     C65542  10.884   9.116   2.225  1.6271  0.2413 -0.4904
  486MOL0     H65543  10.392   9.141   2.078  3.2500  3.0483 -0.1380
  486MOL0     H65544  10.152   9.196   2.142  1.8133  4.4423 -1.1133
  486MOL0     H65545  10.018   9.055   2.388 -4.3885 -0.8418  0.6660
  486MOL0     H65546  10.081   9.113   2.548 -1.6465 -0.4654  1.2015
  486MOL0     H65547   9.858   9.242   2.555  2.0624 -0.3461  0.6597
  486MOL0     H65548   9.810   9.165   2.404 -0.0043 -0.4110 -0.6828
  486MOL0     H65549   9.872   9.007   2.656  0.2069 -1.0970 -0.6656
  486MOL0     H65550   9.713   9.066   2.619  1.6231  1.8217  5.2710
  486MOL0     H65551   9.705   8.901   2.433  1.9850 -1.5546 -4.0056
  486MOL0     H65552   9.874   8.901   2.401 -0.2266 -1.6792 -0.0498
  486MOL0     H65553   9.863   8.694   2.502  0.7521  0.6265  0.1575
  486MOL0     H65554   9.894   8.788   2.649 -1.2871  1.0540  0.6615
  486MOL0     H65555   9.726   8.665   2.711  3.2944  2.5886  1.2075
  486MOL0     H65556   9.673   8.822   2.709  0.4360  1.0904 -0.6211
  486MOL0     H65557   9.510   8.777   2.584  1.4666  0.3313  4.3466
  486MOL0     H65558   9.614   8.700   2.451  1.2223 -3.4612  0.0821
  486MOL0     H65559   9.422   8.561   2.552  0.3084  1.7412 -2.4058
  486MOL0     H65560   9.508   8.569   2.702  2.8868  1.7217  0.4958
  486MOL0     H65561   9.578   8.467   2.333 -1.9318 -1.4186  0.2469
  486MOL0     H65562   9.706   8.261   2.212  1.6920 -2.9459 -2.3642
  486MOL0     H65563   9.850   8.237   2.316 -0.2721 -0.5603  2.2211
  486MOL0     H65564   9.749   8.013   2.383  2.2569  0.5031 -1.5697
  486MOL0     H65565   9.787   8.046   2.215 -1.2480 -2.4695  0.6084
  486MOL0     H65566   9.583   7.926   2.207 -3.1855 -1.6074  2.1826
  486MOL0     H65567   9.539   8.093   2.175  0.9614 -1.7555 -0.9091
  486MOL0     H65568   9.512   8.115   2.436 -4.2130 -0.2140  2.2565
  486MOL0     H65569   9.466   7.941   2.407 -2.8518 -0.6098  0.7827
  486MOL0     H65570   9.293   8.274   2.166 -1.1671 -1.8822 -0.6884
  486MOL0     H65571   9.257   8.634   2.243 -0.1745 -0.9687  2.4354
  486MOL0     H65572   9.217   8.512   2.111  1.2934 -0.3840 -0.4185
  486MOL0     H65573   9.094   8.572   2.227 -0.2901  2.1099 -0.0543
  486MOL0     H65574   8.977   8.553   2.870  0.3707 -0.5300 -0.6530
  486MOL0     H65575   8.851   8.712   2.981 -0.4337 -1.1705 -0.2250
  486MOL0     H65576   8.603   9.079   2.906 -0.2529 -1.5710  2.4989
  486MOL0     H65577   8.693   9.077   2.761 -0.2404  2.3765  1.3783
  486MOL0     H65578   8.532   8.901   2.684  0.6288 -0.6382  1.1197
  486MOL0     H65579   8.459   8.914   2.841  4.1944 -3.8313  1.2485
  486MOL0     H65580   8.318   9.035   2.680  0.0359 -0.9568 -2.3222
  486MOL0     H65581   8.438   9.089   2.588 -1.9012 -1.3684  0.0704
  486MOL0     H65582   8.388   9.181   2.881  3.4255  2.7282  0.8793
  486MOL0     H65583   8.506   9.259   2.782  0.6562 -0.6902  3.8421
  486MOL0     H65584   8.263   9.372   2.798 -0.9119 -0.2800 -0.6275
  486MOL0     H65585   8.204   9.236   2.714  0.2037 -0.1645 -0.6717
  486MOL0     H65586   8.431   9.416   2.588  1.0352 -1.3902  0.3027
  486MOL0     H65587   8.340   9.301   2.511 -0.6093 -0.4638 -0.3297
  486MOL0     H65588   8.226   9.534   2.654 -1.3702 -0.5003 -0.8289
  486MOL0     H65589   8.117   9.416   2.577 -0.8652  0.8011  2.7371
  486MOL0     H65590   8.275   9.623   2.431 -0.7013 -0.6323  1.3306
  486MOL0     H65591   8.106   9.594   2.434  1.4682  2.0804 -3.6881
  486MOL0     H65592   8.742   8.910   2.618 -3.6198 -1.3092  0.8266
  486MOL0     H65593   8.891   8.756   2.488 -0.3313 -0.4871  0.2862
  486MOL0     H65594   9.234   8.359   2.638  0.4244 -4.8824  1.2886
  486MOL0     H65595   9.301   8.145   2.564 -0.9998  1.6529  1.8356
  486MOL0     H65596  10.288   9.240   2.544 -1.5715  1.3697  0.5102
  486MOL0     H65597  10.521   9.166   2.467 -0.9643  0.9313  1.7889
  486MOL0     H65598  10.796   9.375   2.008 -0.4000  1.0858  1.5640
  486MOL0     H65599  11.030   9.380   1.978  3.4278  0.9254  1.5862
  486MOL0     H65600  11.388   9.312   2.109  0.3698  1.5515 -0.8870
  486MOL0     H65601  11.255   9.394   2.023  1.1759 -1.8731 -1.9604
  486MOL0     H65602  11.290   9.345   2.317 -0.1827 -0.6940  0.8049
  486MOL0     H65603  11.159   9.438   2.255 -0.1780 -0.7910  0.6127
  486MOL0     H65604  11.322   9.598   2.350 -2.2681 -0.4895 -0.8346
  486MOL0     H65605  11.307   9.602   2.173  1.2747 -0.4305  0.1932
  486MOL0     H65606  11.533   9.452   2.306 -0.3089 -0.9330 -1.3976
  486MOL0     H65607  11.543   9.634   2.284 -1.6172  0.4081 -2.4670
  486MOL0     H65608  11.630   9.444   1.905  1.7393 -2.9522  0.5737
  486MOL0     H65609  11.081   9.052   2.256  0.9533 -0.2644 -2.0987
  486MOL0     H65610  10.835   9.048   2.294 -2.1438  2.2778 -0.8336
  487MOL0     O65611   2.951   6.573   7.137 -0.0518  0.4183 -0.5693
  487MOL0     C65612   3.038   6.644   7.087  0.3631  1.0533 -0.1935
  487MOL0     O65613   3.038   6.670   6.954  0.2184  0.2018 -0.4537
  487MOL0     C65614   2.917   6.679   6.892 -0.4331  0.1201 -0.3580
  487MOL0     C65615   2.839   6.570   6.870 -0.9783 -0.5573  0.1920
  487MOL0     C65616   2.729   6.570   6.803  0.3115 -0.3343  0.1405
  487MOL0     C65617   2.680   6.691   6.743  0.4289 -1.1247  0.6556
  487MOL0     O65618   2.563   6.688   6.680  0.6676 -0.7376 -0.0487
  487MOL0     C65619   2.540   6.762   6.554  0.7398  0.0036  0.4044
  487MOL0     C65620   2.393   6.756   6.518 -0.3606 -0.1072 -0.5644
  487MOL0     C65621   2.347   6.888   6.453 -0.2520  0.0504  0.0614
  487MOL0     C65622   2.201   6.870   6.416  1.0459 -0.0850  0.9400
  487MOL0     C65623   2.132   7.003   6.373 -0.0288  0.0895 -0.1494
  487MOL0     C65624   1.976   6.988   6.362  1.0379 -0.1264  1.9232
  487MOL0     C65625   1.938   6.884   6.254 -0.2538 -0.3932  0.0347
  487MOL0     C65626   1.790   6.844   6.262 -1.2166  0.4196 -0.4250
  487MOL0     N65627   1.692   6.952   6.253  0.1291 -0.0026  0.0040
  487MOL0     C65628   1.664   7.034   6.145  0.6672  0.1099 -0.0321
  487MOL0     C65629   1.603   7.140   6.193  0.6012  0.0722 -0.2847
  487MOL0     C65630   1.558   7.254   6.104 -0.4980  0.7764 -0.6503
  487MOL0     C65631   1.403   7.231   6.082 -0.1488  0.0838 -0.1644
  487MOL0     C65632   1.311   7.246   6.204 -0.2886 -0.1618 -0.7159
  487MOL0     C65633   1.175   7.187   6.161  0.4812 -0.8786 -0.6704
  487MOL0     O65634   1.170   7.043   6.189  0.5042 -0.2057  0.8308
  487MOL0     C65635   1.115   7.028   6.316 -0.2168 -0.5665  0.4649
  487MOL0     C65636   0.974   7.018   6.328  0.3017 -0.2574 -0.2275
  487MOL0     C65637   0.906   7.018   6.456 -0.0539  0.4527  0.0844
  487MOL0     C65638   0.759   7.028   6.462  0.4852  0.1878  0.5241
  487MOL0     C65639   0.982   7.008   6.574  0.4003 -0.1176  0.7302
  487MOL0     C65640   0.915   7.007   6.706 -0.1570  0.4467  0.6885
  487MOL0     O65641   0.972   7.080   6.798  0.0990  0.1269 -0.1465
  487MOL0     C65642   0.946   7.034   6.928  0.3256  0.7397 -0.9926
  487MOL0     C65643   0.927   7.125   7.038  0.9773 -0.1898 -0.7795
  487MOL0     C65644   0.924   7.087   7.176  0.2410  0.6152  0.5967
  487MOL0     C65645   0.962   6.961   7.202  0.2034 -0.1748 -0.3550
  487MOL0     O65646   0.935   6.929   7.337  0.3662  0.2581  0.5065
  487MOL0     C65647   1.040   6.855   7.390  0.7586  0.4499  0.6248
  487MOL0     C65648   1.009   6.802   7.529 -0.2874  0.0882 -0.2604
  487MOL0     C65649   0.930   6.665   7.512 -0.1194  0.5712  0.5415
  487MOL0     C65650   0.877   6.631   7.649  0.3243 -0.2893 -1.2081
  487MOL0     C65651   0.782   6.509   7.641  0.4762 -0.5666  0.4066
  487MOL0     C65652   0.686   6.513   7.763 -0.2776 -0.3195 -0.3099
  487MOL0     C65653   0.600   6.383   7.798  0.0973  0.9647  0.0104
  487MOL0     C65654   0.512   6.404   7.929 -0.3653 -0.5989 -0.3204
  487MOL0    Cl65655   0.593   6.480   8.070 -0.1697  0.3682  0.2861
  487MOL0     C65656   0.977   6.861   7.104  0.7396  0.4415  0.6534
  487MOL0     C65657   0.982   6.896   6.965  0.4409  0.4561 -0.2000
  487MOL0     O65658   0.825   6.925   6.724 -0.4047 -0.4135 -0.3571
  487MOL0     C65659   1.121   7.016   6.565 -0.2576  0.1446 -1.1718
  487MOL0     C65660   1.188   7.028   6.444  0.2854 -0.1836 -0.8849
  487MOL0     N65661   1.579   7.120   6.331  0.7244  0.3526  0.5776
  487MOL0     N65662   1.629   7.001   6.366  0.4967 -0.5357  0.5409
  487MOL0     C65663   2.763   6.806   6.752  0.1308  0.6412 -0.7726
  487MOL0     C65664   2.878   6.798   6.835  0.2828 -0.1631  1.1779
  487MOL0     C65665   3.140   6.695   7.174  0.3484  0.4695  0.4851
  487MOL0     C65666   3.233   6.790   7.116 -0.6444  0.4026 -0.2624
  487MOL0     C65667   3.335   6.841   7.194 -0.5165  0.0296 -0.0341
  487MOL0     C65668   3.352   6.807   7.322  0.0596  0.4286  0.7047
  487MOL0     O65669   3.440   6.898   7.383  0.1279  0.9268 -0.2957
  487MOL0     C65670   3.417   6.907   7.524 -0.1089 -0.4392  0.4153
  487MOL0     C65671   3.519   6.997   7.600 -0.5908 -0.8904  1.0534
  487MOL0     C65672   3.565   7.126   7.514  0.2058 -0.1655  0.3068
  487MOL0     C65673   3.659   7.089   7.412 -1.5071  0.5627 -0.4213
  487MOL0     C65674   3.740   7.205   7.382 -0.4327  0.6823  0.8246
  487MOL0     C65675   3.823   7.294   7.348  0.4867  0.2446  0.6699
  487MOL0     C65676   3.271   6.709   7.381 -0.6259  0.4786  0.3452
  487MOL0     C65677   3.175   6.642   7.306 -0.0052 -0.1307  0.5796
  487MOL0     H65678   2.890   6.477   6.894  0.2320 -0.7247 -2.6700
  487MOL0     H65679   2.666   6.485   6.777  1.0984 -1.4321  1.6534
  487MOL0     H65680   2.557   6.866   6.582  1.7112  0.3607 -1.3601
  487MOL0     H65681   2.615   6.728   6.481 -1.0440 -2.5155 -0.4197
  487MOL0     H65682   2.372   6.679   6.443 -1.1806  2.2505 -2.9515
  487MOL0     H65683   2.332   6.739   6.607  0.9405  3.0815  1.0826
  487MOL0     H65684   2.345   6.968   6.528 -2.2634 -0.9870  1.2170
  487MOL0     H65685   2.404   6.923   6.367 -0.1935  2.0969  0.8606
  487MOL0     H65686   2.177   6.792   6.343  1.7447  1.2119 -0.7251
  487MOL0     H65687   2.151   6.851   6.512 -0.8053  2.1608  0.5181
  487MOL0     H65688   2.146   7.082   6.447 -0.2448  1.3756 -1.4323
  487MOL0     H65689   2.183   7.038   6.283 -0.4317  0.8713 -0.0834
  487MOL0     H65690   1.927   6.958   6.455 -0.3751 -3.0803  0.3350
  487MOL0     H65691   1.955   7.091   6.331  0.2914 -1.3984 -2.4660
  487MOL0     H65692   1.980   6.932   6.165  0.7232  0.3384  0.8628
  487MOL0     H65693   1.985   6.786   6.266  1.0155  0.1418 -0.4183
  487MOL0     H65694   1.780   6.792   6.358  0.5355  0.3265 -0.2607
  487MOL0     H65695   1.773   6.774   6.179 -0.6499 -1.4454  0.9524
  487MOL0     H65696   1.711   7.009   6.051 -0.2274 -1.6382 -0.0566
  487MOL0     H65697   1.577   7.351   6.151  0.0585 -0.4210  1.7702
  487MOL0     H65698   1.605   7.240   6.007 -2.9246 -1.7023 -1.6146
  487MOL0     H65699   1.416   7.129   6.044  2.1091 -0.3049  1.4276
  487MOL0     H65700   1.376   7.296   5.998 -1.3123 -0.1786 -0.0153
  487MOL0     H65701   1.314   7.355   6.216  0.7182 -0.1639 -0.8339
  487MOL0     H65702   1.348   7.190   6.290 -3.0731 -2.1816 -0.7116
  487MOL0     H65703   1.168   7.188   6.052 -1.6176 -0.4012 -0.5661
  487MOL0     H65704   1.090   7.241   6.204  0.2214 -1.5571 -0.3138
  487MOL0     H65705   0.921   7.036   6.235  0.1932  2.2831  0.2540
  487MOL0     H65706   0.711   7.071   6.373  0.1254 -0.1743  0.5378
  487MOL0     H65707   0.715   6.928   6.473  0.6258  0.1173  0.4506
  487MOL0     H65708   0.730   7.090   6.547  1.8307  0.5599  0.7321
  487MOL0     H65709   0.902   7.230   7.024  0.8682  0.3777  2.7185
  487MOL0     H65710   0.887   7.156   7.251 -3.1818 -1.3056  0.8516
  487MOL0     H65711   1.044   6.759   7.337  0.8855  0.1504  1.1766
  487MOL0     H65712   1.128   6.919   7.385  0.2785  1.3313  2.6725
  487MOL0     H65713   1.096   6.798   7.595  1.8439 -3.3844 -2.9067
  487MOL0     H65714   0.946   6.877   7.578  0.6701  0.7046  0.0460
  487MOL0     H65715   1.005   6.591   7.484 -1.4831 -1.8516  2.8352
  487MOL0     H65716   0.846   6.673   7.442 -1.3076 -3.1702  1.3246
  487MOL0     H65717   0.950   6.584   7.714 -1.7769  1.1391  2.5313
  487MOL0     H65718   0.834   6.723   7.690  0.6026  0.9508 -3.5101
  487MOL0     H65719   0.828   6.410   7.649 -1.2805 -1.4726 -0.0869
  487MOL0     H65720   0.722   6.496   7.550  2.0045 -3.3837 -0.3059
  487MOL0     H65721   0.740   6.524   7.858 -1.4088  2.0853  0.1394
  487MOL0     H65722   0.628   6.605   7.760 -3.0628 -1.8784  1.2512
  487MOL0     H65723   0.671   6.304   7.824 -0.5072  1.0619  2.1616
  487MOL0     H65724   0.537   6.348   7.716  1.5116 -0.6651 -0.4254
  487MOL0     H65725   0.456   6.313   7.952  1.0348 -2.0888 -2.4423
  487MOL0     H65726   0.435   6.474   7.893  0.9598  0.6231 -0.8667
  487MOL0     H65727   1.006   6.758   7.123  1.8017  0.1313 -2.1329
  487MOL0     H65728   1.029   6.823   6.901  5.0245  2.0135  1.0168
  487MOL0     H65729   1.184   7.002   6.652 -1.5841  0.8715 -0.0463
  487MOL0     H65730   1.296   7.033   6.444  0.4154 -1.9260  0.1773
  487MOL0     H65731   2.739   6.897   6.699 -2.7817  0.3925 -0.0482
  487MOL0     H65732   2.945   6.882   6.847  0.0579  0.3173 -0.6799
  487MOL0     H65733   3.235   6.818   7.011  0.6000  0.3349 -0.2723
  487MOL0     H65734   3.408   6.914   7.161  1.1034 -2.3542 -2.0504
  487MOL0     H65735   3.320   6.948   7.554  1.0160  1.0178  2.3067
  487MOL0     H65736   3.412   6.812   7.578  0.9303 -0.0310  1.2848
  487MOL0     H65737   3.602   6.929   7.619 -1.0816 -1.4382  1.2427
  487MOL0     H65738   3.472   7.031   7.692  3.3604  1.8906  2.3398
  487MOL0     H65739   3.610   7.196   7.585  1.2027  1.8685 -2.1744
  487MOL0     H65740   3.478   7.174   7.466 -1.1061 -3.2937 -0.6819
  487MOL0     H65741   3.609   7.054   7.321  1.5118 -1.5187 -1.4258
  487MOL0     H65742   3.719   7.006   7.450  1.3577  1.9981 -1.4618
  487MOL0     H65743   3.905   7.359   7.325 -0.4047  0.5164 -2.0305
  487MOL0     H65744   3.275   6.677   7.485 -2.9258  1.2442  0.7226
  487MOL0     H65745   3.111   6.564   7.346  0.6382 -0.3180  1.2782
  488MOL0     O65746  10.294   8.612   0.395 -0.1218 -0.0407 -0.2623
  488MOL0     C65747  10.309   8.492   0.406 -0.6919  0.2968  0.4921
  488MOL0     O65748  10.217   8.401   0.366 -0.0392  0.1114  0.4121
  488MOL0     C65749  10.083   8.438   0.356 -0.2905  0.1499 -0.5307
  488MOL0     C65750  10.018   8.510   0.466 -0.5956 -0.1704 -0.0802
  488MOL0     C65751   9.891   8.565   0.453 -0.4217 -0.2272  0.4236
  488MOL0     C65752   9.812   8.545   0.340 -0.5206  0.8020 -0.6986
  488MOL0     O65753   9.690   8.598   0.341  0.2328 -0.2394  0.2831
  488MOL0     C65754   9.659   8.671   0.227  0.7302  0.6529 -0.5748
  488MOL0     C65755   9.528   8.756   0.244 -0.3924 -0.5259 -0.1522
  488MOL0     C65756   9.509   8.817   0.381 -0.3439  0.0036  0.2315
  488MOL0     C65757   9.363   8.794   0.435 -0.6547  0.3081 -0.6348
  488MOL0     C65758   9.342   8.850   0.576 -0.0420  0.1326  0.5559
  488MOL0     C65759   9.196   8.836   0.632 -0.5293 -0.1066  0.0474
  488MOL0     C65760   9.183   8.907   0.769 -0.1625 -0.6041 -0.1355
  488MOL0     C65761   9.167   9.055   0.769 -0.0249  0.2236  0.0635
  488MOL0     N65762   9.169   9.130   0.890  0.0674  0.6600  0.1439
  488MOL0     C65763   9.073   9.139   0.982 -0.0567 -1.1498  0.1769
  488MOL0     C65764   9.131   9.182   1.103  0.5809 -0.3571  0.5542
  488MOL0     C65765   9.075   9.199   1.242 -0.0746 -0.4070 -0.8495
  488MOL0     C65766   8.964   9.314   1.258  0.0738 -0.7757 -0.3249
  488MOL0     C65767   9.028   9.457   1.276  0.5393  0.6625 -0.1441
  488MOL0     C65768   9.140   9.459   1.374  0.1891  0.5409  0.6691
  488MOL0     O65769   9.163   9.592   1.400  0.5642  0.0460 -0.9394
  488MOL0     C65770   9.286   9.628   1.456 -0.1254 -0.2738 -0.6028
  488MOL0     C65771   9.302   9.707   1.565 -0.4404  0.5080 -1.3251
  488MOL0     C65772   9.422   9.737   1.625 -0.0787  0.4568  0.0287
  488MOL0     C65773   9.422   9.815   1.752  1.2117  1.0714 -0.1659
  488MOL0     C65774   9.542   9.693   1.560  0.0540  0.2664 -0.5730
  488MOL0     C65775   9.672   9.750   1.591 -0.0884  0.4482  0.4649
  488MOL0     O65776   9.774   9.680   1.540  0.1183 -0.1556  0.0659
  488MOL0     C65777   9.907   9.713   1.554 -0.5217 -0.4371  0.4042
  488MOL0     C65778   9.945   9.848   1.549  0.1368 -1.0511  0.2302
  488MOL0     C65779  10.081   9.888   1.537 -0.7806  0.7694 -0.4582
  488MOL0     C65780  10.187   9.804   1.540 -0.4168  0.2486 -0.1568
  488MOL0     O65781  10.307   9.847   1.574  0.3575  0.7428  0.0558
  488MOL0     C65782  10.423   9.782   1.524  0.8736  0.0398  0.3056
  488MOL0     C65783  10.545   9.875   1.536 -0.1133 -0.4179  0.8125
  488MOL0     C65784  10.530  10.010   1.469 -1.0781 -0.7313 -0.1261
  488MOL0     C65785  10.649  10.048   1.382 -0.4707  0.0531  0.3012
  488MOL0     C65786  10.654   9.984   1.243 -0.6056  0.1463 -0.2543
  488MOL0     C65787  10.794   9.973   1.192  0.0516  1.1016 -0.1093
  488MOL0     C65788  10.776   9.892   1.057 -0.9804  0.6768  0.3999
  488MOL0     C65789  10.905   9.907   0.980 -0.5264  0.6655 -0.3068
  488MOL0    Cl65790  11.068   9.939   1.066 -0.6464 -0.3921  0.1459
  488MOL0     C65791  10.142   9.668   1.536 -0.3328  0.4302 -0.1838
  488MOL0     C65792  10.011   9.620   1.545  0.3957  0.0386  0.6755
  488MOL0     O65793   9.689   9.843   1.672 -0.0372  0.3278  0.4143
  488MOL0     C65794   9.528   9.607   1.445 -0.0458  0.5836  0.3789
  488MOL0     C65795   9.405   9.581   1.397  0.1669  1.6606 -0.5630
  488MOL0     N65796   9.267   9.204   1.071  0.0361 -0.2686 -0.0642
  488MOL0     N65797   9.286   9.162   0.948 -0.1396 -0.3662  0.0596
  488MOL0     C65798   9.870   8.464   0.231 -0.0521  0.0854  1.1974
  488MOL0     C65799  10.001   8.416   0.247  0.2281  0.1620 -0.2587
  488MOL0     C65800  10.436   8.427   0.444 -1.2111 -0.4230 -0.0818
  488MOL0     C65801  10.457   8.296   0.485 -0.6612  0.2149 -0.9416
  488MOL0     C65802  10.584   8.247   0.523  0.5497 -0.3809 -0.1927
  488MOL0     C65803  10.698   8.334   0.519  0.2218 -0.8356  0.7177
  488MOL0     O65804  10.818   8.258   0.551 -0.0191  0.2286 -0.2887
  488MOL0     C65805  10.939   8.321   0.500 -0.8199 -1.1673 -0.1309
  488MOL0     C65806  11.058   8.227   0.515  0.2375 -0.8189  0.9666
  488MOL0     C65807  11.042   8.096   0.442 -0.3329 -0.3273  0.0865
  488MOL0     C65808  11.179   8.020   0.442  0.5999 -0.0676 -0.2949
  488MOL0     C65809  11.292   8.097   0.384 -0.8155 -0.0559  0.1963
  488MOL0     C65810  11.399   8.160   0.348 -0.1165 -0.5153 -0.5480
  488MOL0     C65811  10.679   8.461   0.466  0.0032  0.4926  0.2474
  488MOL0     C65812  10.551   8.509   0.446 -0.9401  0.8023  0.9747
  488MOL0     H65813  10.071   8.526   0.559  3.5713 -0.0851 -2.2283
  488MOL0     H65814   9.844   8.618   0.536 -3.7999 -1.2876 -0.6360
  488MOL0     H65815   9.741   8.739   0.202  0.5507  0.9372 -0.3979
  488MOL0     H65816   9.654   8.604   0.140  4.8501  3.3035 -3.2070
  488MOL0     H65817   9.541   8.843   0.179 -0.3016 -0.8539 -0.5751
  488MOL0     H65818   9.443   8.698   0.205  1.8338 -4.8165  0.8043
  488MOL0     H65819   9.580   8.784   0.457  2.2423  2.0804 -1.1237
  488MOL0     H65820   9.523   8.925   0.377  2.3409 -0.3318 -1.9161
  488MOL0     H65821   9.294   8.849   0.371 -1.2543  0.1720 -0.1117
  488MOL0     H65822   9.339   8.688   0.433 -1.9362  0.4304  2.6034
  488MOL0     H65823   9.410   8.812   0.653 -0.0108 -0.7534  0.0905
  488MOL0     H65824   9.355   8.958   0.560  1.5710 -0.1112  0.0373
  488MOL0     H65825   9.121   8.879   0.565  0.1666  2.1487  0.6270
  488MOL0     H65826   9.165   8.733   0.653 -0.3904 -0.4411 -1.3138
  488MOL0     H65827   9.100   8.867   0.828  0.5007 -1.8518  0.0001
  488MOL0     H65828   9.274   8.887   0.826  0.0435  0.1803 -0.1817
  488MOL0     H65829   9.066   9.080   0.734  0.5971  0.7877 -1.4482
  488MOL0     H65830   9.232   9.102   0.695 -0.9703  0.6338 -0.5361
  488MOL0     H65831   8.969   9.110   0.971  0.1172 -2.2869  1.3020
  488MOL0     H65832   9.018   9.109   1.265 -2.7088  0.1766 -4.1980
  488MOL0     H65833   9.157   9.204   1.314 -0.8384  4.0325 -0.0286
  488MOL0     H65834   8.910   9.280   1.346  1.2279 -0.0911  0.6680
  488MOL0     H65835   8.893   9.323   1.175  1.1220  0.7970 -1.1000
  488MOL0     H65836   8.949   9.525   1.308  0.6433  2.4762 -3.2781
  488MOL0     H65837   9.070   9.496   1.183  1.7855 -1.1759 -0.4297
  488MOL0     H65838   9.226   9.406   1.331 -0.6607  0.7298 -1.3771
  488MOL0     H65839   9.105   9.412   1.467 -0.8389  2.3477  1.2490
  488MOL0     H65840   9.211   9.718   1.624  0.2082  1.4591 -0.4733
  488MOL0     H65841   9.479   9.909   1.758  4.5233 -0.6874 -1.4094
  488MOL0     H65842   9.324   9.861   1.765  0.2542 -1.4888  2.6677
  488MOL0     H65843   9.446   9.754   1.840  4.3706 -0.8072 -2.1498
  488MOL0     H65844   9.864   9.920   1.552  0.4958 -0.6511  2.1137
  488MOL0     H65845  10.093   9.996   1.526 -0.9418  0.7960 -0.3718
  488MOL0     H65846  10.446   9.686   1.572 -1.0379 -0.8613 -0.4628
  488MOL0     H65847  10.407   9.773   1.416 -2.3335  2.1829  0.4715
  488MOL0     H65848  10.563   9.881   1.644 -1.3210 -0.9812  1.0647
  488MOL0     H65849  10.630   9.833   1.482 -2.0600 -1.8494 -1.3561
  488MOL0     H65850  10.527  10.086   1.548  0.3748 -2.6665  1.9354
  488MOL0     H65851  10.440  10.011   1.406 -1.7524 -0.7519  0.8077
  488MOL0     H65852  10.654  10.158   1.378  2.0484 -0.0218 -0.4718
  488MOL0     H65853  10.741  10.018   1.433  0.3385  1.4443 -0.2647
  488MOL0     H65854  10.581  10.030   1.177 -1.5880  0.9208  1.3075
  488MOL0     H65855  10.632   9.877   1.250 -1.5754  0.3576  0.0325
  488MOL0     H65856  10.835  10.073   1.177  0.9412  1.0982  2.0338
  488MOL0     H65857  10.861   9.915   1.255  1.2439  0.8284 -1.5612
  488MOL0     H65858  10.682   9.912   1.004 -1.8689  0.0459  1.7061
  488MOL0     H65859  10.765   9.785   1.072 -2.8074  0.3774 -2.3564
  488MOL0     H65860  10.888   9.972   0.893 -2.8255  0.9233  0.2763
  488MOL0     H65861  10.921   9.811   0.931  1.4399  0.6423  0.3115
  488MOL0     H65862  10.220   9.593   1.533 -1.3719 -0.6994  0.1401
  488MOL0     H65863   9.968   9.521   1.549 -4.2336  1.6798 -1.3888
  488MOL0     H65864   9.610   9.563   1.389  1.7644  4.2000 -0.0674
  488MOL0     H65865   9.397   9.517   1.310 -0.0934 -1.6785  1.7171
  488MOL0     H65866   9.824   8.451   0.133  2.9596 -2.3248 -0.0497
  488MOL0     H65867  10.037   8.357   0.164  0.5083  1.0337 -0.7666
  488MOL0     H65868  10.388   8.215   0.503  2.5813 -1.9134  4.3630
  488MOL0     H65869  10.591   8.146   0.563 -3.8246 -0.9567 -0.3946
  488MOL0     H65870  10.909   8.342   0.397 -0.3459  0.6604  0.0632
  488MOL0     H65871  10.960   8.421   0.540  2.6104 -0.9807 -1.9452
  488MOL0     H65872  11.060   8.206   0.622  2.0188 -1.4391  0.8364
  488MOL0     H65873  11.148   8.279   0.482 -1.0816  0.6120 -0.6151
  488MOL0     H65874  11.002   8.107   0.341  2.3171  1.8985 -0.8223
  488MOL0     H65875  10.974   8.032   0.499 -0.4155  2.3940  3.2989
  488MOL0     H65876  11.179   7.925   0.387  0.1993  0.2072 -0.7830
  488MOL0     H65877  11.192   7.993   0.547 -1.9424 -0.1411  0.0604
  488MOL0     H65878  11.478   8.229   0.328  1.6285 -2.0575  0.7340
  488MOL0     H65879  10.764   8.528   0.453 -1.2790  2.4422  1.3552
  488MOL0     H65880  10.543   8.613   0.414  0.3344  0.3122 -1.1378
  489MOL0     O65881   1.026   1.622   9.793  0.4322 -0.5450  0.3490
  489MOL0     C65882   1.112   1.575   9.717 -0.1369  0.3465  1.0204
  489MOL0     O65883   1.079   1.533   9.589 -0.2604  0.3822 -0.7201
  489MOL0     C65884   0.952   1.535   9.550  0.1805  0.1923 -0.3372
  489MOL0     C65885   0.857   1.647   9.548 -0.2628 -0.4460 -0.4723
  489MOL0     C65886   0.728   1.633   9.498  0.2735 -1.1169  0.6041
  489MOL0     C65887   0.700   1.520   9.428  0.9094  0.8247  0.9457
  489MOL0     O65888   0.596   1.487   9.353 -0.0302 -0.1917  0.4573
  489MOL0     C65889   0.497   1.594   9.334  0.4092 -0.0160  0.3027
  489MOL0     C65890   0.546   1.690   9.223 -0.1534 -0.6670 -0.6916
  489MOL0     C65891   0.443   1.732   9.121  0.0395 -0.7323  1.0232
  489MOL0     C65892   0.497   1.844   9.033  0.7248  0.3863  0.3726
  489MOL0     C65893   0.412   1.855   8.904 -0.2050  0.2754  1.0288
  489MOL0     C65894   0.459   1.969   8.802  0.2174  0.0211 -0.3465
  489MOL0     C65895   0.365   1.976   8.678  0.2495  0.7274 -1.4712
  489MOL0     C65896   0.392   1.880   8.573  0.6109 -0.1756 -0.3829
  489MOL0     N65897   0.504   1.917   8.498 -0.5334 -0.2068 -0.1085
  489MOL0     C65898   0.516   2.035   8.424  0.3059  0.2153 -0.2406
  489MOL0     C65899   0.635   2.036   8.360 -0.6371  0.5537 -0.6336
  489MOL0     C65900   0.699   2.146   8.280  0.6931 -0.3596  0.3993
  489MOL0     C65901   0.814   2.207   8.363 -0.4421  0.1331 -0.1426
  489MOL0     C65902   0.873   2.326   8.293  0.8698  0.3004 -0.0972
  489MOL0     C65903   0.994   2.391   8.365  0.7233 -0.3719 -0.2713
  489MOL0     O65904   1.070   2.467   8.268  0.2799  0.4662 -0.6126
  489MOL0     C65905   1.079   2.609   8.273 -0.4250  0.5564  0.3156
  489MOL0     C65906   1.179   2.665   8.194 -0.9393  0.1967 -0.4985
  489MOL0     C65907   1.200   2.805   8.179 -0.2292 -0.3913 -0.9606
  489MOL0     C65908   1.325   2.847   8.110  0.5512  0.1269 -0.0809
  489MOL0     C65909   1.120   2.894   8.265  0.2732  0.5678  0.5275
  489MOL0     C65910   1.132   3.042   8.267 -0.2057  0.7962 -0.6258
  489MOL0     O65911   1.143   3.102   8.142 -0.1356  0.4658  0.0440
  489MOL0     C65912   1.079   3.215   8.103  0.5795 -0.5878  0.7843
  489MOL0     C65913   1.130   3.289   7.996  0.2676 -0.3906  0.1911
  489MOL0     C65914   1.088   3.430   7.967 -0.1113 -0.2410 -0.3264
  489MOL0     C65915   0.991   3.481   8.044  0.9055 -0.3209 -0.6341
  489MOL0     O65916   0.940   3.613   8.042 -0.6395  0.5284  0.0695
  489MOL0     C65917   0.963   3.695   7.931 -0.7079 -0.1954  0.4888
  489MOL0     C65918   0.858   3.805   7.923  0.2548  0.6163 -0.1075
  489MOL0     C65919   0.730   3.745   7.878  1.4125 -0.5568  0.4092
  489MOL0     C65920   0.626   3.859   7.868 -0.3087  0.1447 -0.5358
  489MOL0     C65921   0.519   3.805   7.785 -1.1805 -0.8413 -0.1154
  489MOL0     C65922   0.405   3.905   7.773  0.4699 -0.8840 -0.7827
  489MOL0     C65923   0.290   3.848   7.693 -0.6783 -0.6316  0.6656
  489MOL0     C65924   0.165   3.940   7.708  0.3304 -0.5284  0.4986
  489MOL0    Cl65925   0.175   4.087   7.625 -0.0756 -0.3954 -0.3241
  489MOL0     C65926   0.937   3.404   8.145 -0.2260  0.3283 -0.2069
  489MOL0     C65927   0.969   3.274   8.177  0.6856 -0.3956 -0.2164
  489MOL0     O65928   1.121   3.098   8.377 -0.9673 -0.9259 -0.1279
  489MOL0     C65929   1.025   2.834   8.344  0.5987  0.2359  0.3558
  489MOL0     C65930   0.994   2.700   8.351  0.9565  0.4883  0.7451
  489MOL0     N65931   0.693   1.918   8.398  0.1826 -0.6107  0.0162
  489MOL0     N65932   0.616   1.849   8.480  0.3614 -1.2892  0.6700
  489MOL0     C65933   0.791   1.409   9.426  0.0941  0.8414 -0.7897
  489MOL0     C65934   0.910   1.421   9.495 -0.3220 -0.3198  0.4142
  489MOL0     C65935   1.246   1.539   9.753 -0.4739 -0.8958 -0.0444
  489MOL0     C65936   1.313   1.612   9.850 -0.8909 -0.1175  0.6964
  489MOL0     C65937   1.446   1.594   9.869 -0.3509  0.3119  1.2290
  489MOL0     C65938   1.515   1.490   9.814  0.6052  0.1430 -0.6743
  489MOL0     O65939   1.647   1.481   9.843 -0.2509  0.3383  0.4303
  489MOL0     C65940   1.731   1.415   9.745 -0.3656 -0.3246 -0.4830
  489MOL0     C65941   1.878   1.449   9.776  0.1751  1.0962  0.2406
  489MOL0     C65942   1.923   1.598   9.761 -0.1864  0.8176 -0.3788
  489MOL0     C65943   1.991   1.625   9.626  0.0927  0.0291  0.0959
  489MOL0     C65944   1.890   1.643   9.521  0.1474  0.0041  0.6011
  489MOL0     C65945   1.802   1.652   9.434  0.5431 -0.5023 -0.3026
  489MOL0     C65946   1.447   1.407   9.728  0.1596 -0.2190  0.7063
  489MOL0     C65947   1.322   1.441   9.691  0.7350 -0.7266 -0.1725
  489MOL0     H65948   0.869   1.734   9.613  4.3012 -1.7050  0.7580
  489MOL0     H65949   0.659   1.717   9.496 -1.9834 -2.7692  2.4480
  489MOL0     H65950   0.412   1.546   9.285  1.2641  1.3309 -2.7434
  489MOL0     H65951   0.468   1.634   9.431  2.3068  2.3641 -0.0224
  489MOL0     H65952   0.567   1.785   9.272 -0.3359 -0.3794 -1.1678
  489MOL0     H65953   0.644   1.665   9.182  1.0542  1.4940  0.6814
  489MOL0     H65954   0.411   1.649   9.058 -2.4659  0.3845  0.6958
  489MOL0     H65955   0.347   1.772   9.156 -1.2455 -2.7826  0.0162
  489MOL0     H65956   0.505   1.936   9.091 -0.0698 -0.3551  1.6949
  489MOL0     H65957   0.593   1.814   8.990  0.5522  1.2565 -0.6710
  489MOL0     H65958   0.408   1.759   8.852 -0.8817  3.0284 -4.8326
  489MOL0     H65959   0.312   1.877   8.942 -0.5604 -0.0403  0.3052
  489MOL0     H65960   0.444   2.062   8.857 -5.5590  1.5817 -3.7039
  489MOL0     H65961   0.563   1.960   8.770  0.6373 -0.1240  0.9923
  489MOL0     H65962   0.263   1.946   8.703 -0.3214  1.1382 -3.1758
  489MOL0     H65963   0.369   2.078   8.640  1.5857  0.3824 -2.3223
  489MOL0     H65964   0.312   1.861   8.502  1.3839 -2.8695 -0.6134
  489MOL0     H65965   0.403   1.777   8.608 -0.8933 -0.7059 -1.3705
  489MOL0     H65966   0.445   2.117   8.429 -0.8743 -0.6437 -1.9366
  489MOL0     H65967   0.738   2.122   8.180 -2.2439 -2.8036 -0.3040
  489MOL0     H65968   0.617   2.216   8.265  0.7815 -0.5923 -1.5068
  489MOL0     H65969   0.894   2.132   8.357 -2.4980 -2.2229  0.2844
  489MOL0     H65970   0.799   2.237   8.467  1.4926 -2.9662  1.1850
  489MOL0     H65971   0.792   2.399   8.279 -1.4128 -1.8433  1.1260
  489MOL0     H65972   0.907   2.299   8.192  0.5122  0.7534 -0.3484
  489MOL0     H65973   1.055   2.305   8.394 -0.0087 -0.7219  0.2502
  489MOL0     H65974   0.959   2.450   8.450 -2.9070  0.5774 -2.2357
  489MOL0     H65975   1.232   2.588   8.139 -1.6319 -0.1454 -0.7029
  489MOL0     H65976   1.380   2.759   8.074 -0.9918 -1.4715  1.2588
  489MOL0     H65977   1.308   2.918   8.029  1.2976  0.5801  0.1526
  489MOL0     H65978   1.394   2.898   8.178 -0.4575 -0.9959  1.8877
  489MOL0     H65979   1.200   3.247   7.925 -1.5317  1.6473 -3.0644
  489MOL0     H65980   1.134   3.486   7.886  0.8840 -1.8531 -0.9237
  489MOL0     H65981   1.052   3.755   7.951  1.1415 -2.7048  0.3806
  489MOL0     H65982   0.961   3.644   7.834  0.8238  0.1017  0.2777
  489MOL0     H65983   0.851   3.846   8.024 -1.3246  0.3969 -0.0966
  489MOL0     H65984   0.905   3.884   7.863  1.1695 -0.3232 -0.6541
  489MOL0     H65985   0.696   3.668   7.948 -2.2300  0.1614 -0.3691
  489MOL0     H65986   0.735   3.703   7.777  1.2060 -1.7926  0.8997
  489MOL0     H65987   0.596   3.874   7.972  5.5288  0.4418  1.4689
  489MOL0     H65988   0.643   3.959   7.828  0.6220 -0.5388 -1.9177
  489MOL0     H65989   0.484   3.704   7.810 -2.6936 -0.5926 -1.1347
  489MOL0     H65990   0.553   3.806   7.681 -0.4192  0.3463  0.1316
  489MOL0     H65991   0.367   3.939   7.870 -4.9446  0.5454 -3.0382
  489MOL0     H65992   0.430   3.996   7.719 -4.3538  1.9037  1.0574
  489MOL0     H65993   0.261   3.744   7.710 -0.1588 -0.8146  0.4533
  489MOL0     H65994   0.306   3.846   7.585 -0.2287 -2.9581  0.7189
  489MOL0     H65995   0.137   3.958   7.812 -1.9579 -1.0028  0.0080
  489MOL0     H65996   0.082   3.882   7.667 -1.0062  0.4763  1.6810
  489MOL0     H65997   0.853   3.448   8.198 -1.9664 -3.9175  0.9951
  489MOL0     H65998   0.925   3.220   8.260  2.5319 -4.5182 -1.6631
  489MOL0     H65999   0.968   2.902   8.406  1.4396  0.0342  1.3907
  489MOL0     H66000   0.915   2.661   8.415  1.9985 -2.3023  0.4799
  489MOL0     H66001   0.770   1.313   9.381 -0.3320  0.8787 -0.6783
  489MOL0     H66002   0.981   1.340   9.479 -0.7573 -0.3019 -2.0143
  489MOL0     H66003   1.267   1.697   9.900  0.4512  2.0893 -1.5480
  489MOL0     H66004   1.500   1.664   9.933 -1.9249  2.4541  0.3164
  489MOL0     H66005   1.727   1.306   9.753 -2.3744 -0.1550  1.4473
  489MOL0     H66006   1.713   1.440   9.640 -1.4692  0.7197 -0.0667
  489MOL0     H66007   1.948   1.390   9.716 -0.9602  0.1198 -0.1632
  489MOL0     H66008   1.909   1.413   9.875  0.8726  0.4259 -0.2087
  489MOL0     H66009   2.002   1.614   9.836  0.6391 -2.2059 -0.4585
  489MOL0     H66010   1.837   1.660   9.786  1.3747  2.3204  1.6127
  489MOL0     H66011   2.060   1.541   9.613  1.2284  0.5104  2.5920
  489MOL0     H66012   2.055   1.714   9.624 -0.5506  0.5629  1.8476
  489MOL0     H66013   1.729   1.664   9.356  2.2450  2.8111 -1.6214
  489MOL0     H66014   1.492   1.316   9.690 -0.0302  0.3033 -0.8596
  489MOL0     H66015   1.280   1.373   9.617  0.9300 -0.4474 -0.5475
  490MOL0     O66016   4.080   7.746  11.000  0.7292 -0.0070  0.7592
  490MOL0     C66017   4.196   7.737  11.034 -0.0117 -0.3801  0.4644
  490MOL0     O66018   4.261   7.621  11.070 -0.5436 -0.1623 -0.3383
  490MOL0     C66019   4.188   7.515  11.118  0.8425  0.0190  0.2163
  490MOL0     C66020   4.267   7.400  11.101 -0.0407 -0.8497  0.5429
  490MOL0     C66021   4.230   7.277  11.158  1.3998 -0.6209  0.5228
  490MOL0     C66022   4.103   7.268  11.218  0.8982 -0.7878  0.6012
  490MOL0     O66023   4.064   7.154  11.276  0.1433  0.8362  0.4661
  490MOL0     C66024   4.097   7.029  11.210 -0.0462 -0.4066 -0.1473
  490MOL0     C66025   4.022   6.909  11.279  0.1936 -0.1361  0.5101
  490MOL0     C66026   3.868   6.904  11.264 -0.8691 -0.2585  0.4798
  490MOL0     C66027   3.805   7.042  11.301 -0.3603 -0.6622 -0.1035
  490MOL0     C66028   3.648   7.046  11.302 -0.6875  0.0959  0.3377
  490MOL0     C66029   3.585   6.991  11.423  0.4143  0.8009  0.4698
  490MOL0     C66030   3.484   7.072  11.506 -0.1801  0.0206  0.6530
  490MOL0     C66031   3.534   7.211  11.539 -1.0897 -0.3466  0.2938
  490MOL0     N66032   3.484   7.276  11.660 -0.2800  0.3096  0.4647
  490MOL0     C66033   3.573   7.297  11.769  0.4585 -0.2430 -0.0031
  490MOL0     C66034   3.492   7.365  11.861 -0.4606 -0.1454 -0.1413
  490MOL0     C66035   3.540   7.414  11.996  0.3231  0.8198 -0.4942
  490MOL0     C66036   3.437   7.461  12.090  0.6436  0.1668  0.0229
  490MOL0     C66037   3.476   7.446  12.236 -0.3728  1.2810 -0.9392
  490MOL0     C66038   3.612   7.513  12.278  0.8379  0.1792  0.1704
  490MOL0     O66039   3.624   7.521  12.423 -0.3307  0.9548  0.2915
  490MOL0     C66040   3.674   7.421  12.502 -1.0712 -0.1722 -0.1883
  490MOL0     C66041   3.692   7.465  12.638 -1.2746 -0.0855 -0.5104
  490MOL0     C66042   3.724   7.375  12.736 -0.2321  1.2390 -0.1803
  490MOL0     C66043   3.745   7.427  12.877  0.0937  0.2948  0.7719
  490MOL0     C66044   3.743   7.234  12.696  0.4906 -0.2439 -0.1793
  490MOL0     C66045   3.752   7.126  12.807 -0.7495 -0.5880  0.2825
  490MOL0     O66046   3.812   7.010  12.749  0.4402 -0.6129 -0.6057
  490MOL0     C66047   3.895   6.950  12.829  1.1849  0.9022 -0.4002
  490MOL0     C66048   3.998   7.003  12.903  0.2894 -0.2020  0.6583
  490MOL0     C66049   4.080   6.927  12.975  0.5165 -0.6665 -0.7496
  490MOL0     C66050   4.065   6.785  12.982 -0.0826 -0.5576  0.0251
  490MOL0     O66051   4.138   6.703  13.066 -0.4140  0.4275  0.0824
  490MOL0     C66052   4.258   6.762  13.138  0.2726  0.3132  0.3912
  490MOL0     C66053   4.287   6.702  13.279  0.5415  0.0567 -0.3227
  490MOL0     C66054   4.433   6.701  13.332  0.1010 -0.3808 -0.5301
  490MOL0     C66055   4.430   6.667  13.481 -0.4020 -0.5657  0.0247
  490MOL0     C66056   4.563   6.688  13.550  0.0439  0.4740 -0.0703
  490MOL0     C66057   4.564   6.602  13.681  0.3141  0.2733  0.0936
  490MOL0     C66058   4.463   6.643  13.786 -0.1701 -0.0176 -0.3758
  490MOL0     C66059   4.501   6.577  13.914  0.1196 -0.0265 -1.1774
  490MOL0    Cl66060   4.382   6.634  14.038 -0.2246  0.1187 -0.0865
  490MOL0     C66061   3.957   6.730  12.908  0.1824  0.5032 -0.3242
  490MOL0     C66062   3.874   6.815  12.833  0.1821  0.0835 -1.2630
  490MOL0     O66063   3.718   7.154  12.921 -0.8286 -0.3700 -0.2221
  490MOL0     C66064   3.721   7.190  12.564  1.0286 -0.6326  0.2817
  490MOL0     C66065   3.708   7.287  12.462 -0.3920 -0.4630 -0.5060
  490MOL0     N66066   3.373   7.380  11.799  0.6772  0.2118 -0.8510
  490MOL0     N66067   3.370   7.340  11.678 -0.0788 -0.6055  0.0961
  490MOL0     C66068   4.017   7.381  11.230 -0.1879  0.3003  0.8145
  490MOL0     C66069   4.065   7.505  11.191 -0.3420 -0.5946  0.5568
  490MOL0     C66070   4.269   7.870  11.017 -0.8665 -0.4300 -0.3384
  490MOL0     C66071   4.407   7.863  11.046  1.1662  0.9660 -0.0952
  490MOL0     C66072   4.485   7.980  11.041  0.0418  1.5154 -0.0905
  490MOL0     C66073   4.437   8.099  10.996  0.9208  0.3069 -0.4256
  490MOL0     O66074   4.514   8.209  10.974 -0.0411  1.3742  0.0667
  490MOL0     C66075   4.633   8.233  11.044  0.1677 -0.3431  0.6634
  490MOL0     C66076   4.638   8.212  11.194 -0.0046  0.2115 -0.4985
  490MOL0     C66077   4.529   8.279  11.278  0.3420  0.5372  0.9507
  490MOL0     C66078   4.533   8.225  11.418  0.3925 -0.9612  0.2590
  490MOL0     C66079   4.415   8.280  11.492 -0.5586 -0.7401  0.3365
  490MOL0     C66080   4.304   8.323  11.536 -0.2504 -0.5455 -0.8526
  490MOL0     C66081   4.304   8.110  10.966  0.6741 -0.0163 -0.7961
  490MOL0     C66082   4.220   7.998  10.971 -0.0798 -0.3194  0.7042
  490MOL0     H66083   4.365   7.408  11.055  0.2714 -2.3847  0.8647
  490MOL0     H66084   4.284   7.186  11.134  1.7547 -0.2032 -0.3099
  490MOL0     H66085   4.077   7.024  11.103 -2.3889 -0.3135  0.2306
  490MOL0     H66086   4.205   7.027  11.230  0.4002  1.5662 -2.0166
  490MOL0     H66087   4.066   6.814  11.248  1.2478 -0.0393  1.6249
  490MOL0     H66088   4.043   6.925  11.385 -3.5092 -3.8456  2.0761
  490MOL0     H66089   3.846   6.916  11.158 -1.7221  2.3896  0.8756
  490MOL0     H66090   3.824   6.809  11.295 -0.2861 -0.9394 -0.7141
  490MOL0     H66091   3.842   7.069  11.401  2.0278 -2.8440 -0.2864
  490MOL0     H66092   3.846   7.112  11.227 -0.2917  0.1258  0.6597
  490MOL0     H66093   3.628   7.153  11.306 -1.6003 -0.0224 -0.6685
  490MOL0     H66094   3.626   6.990  11.210 -1.2727 -2.0757  1.7161
  490MOL0     H66095   3.537   6.895  11.400 -1.1709  1.4031  1.1255
  490MOL0     H66096   3.666   6.963  11.490  0.2549 -3.6821 -0.8785
  490MOL0     H66097   3.388   7.090  11.456  2.0410  1.8054 -3.4611
  490MOL0     H66098   3.475   7.017  11.600  3.3108 -0.4513  0.8286
  490MOL0     H66099   3.503   7.274  11.455 -4.0663  1.0792  2.2977
  490MOL0     H66100   3.643   7.203  11.547 -0.6506  1.9441 -2.1370
  490MOL0     H66101   3.677   7.266  11.780  0.0374 -0.7827  4.1207
  490MOL0     H66102   3.569   7.323  12.049 -2.3085  0.1057 -0.1459
  490MOL0     H66103   3.614   7.495  11.991 -0.4971  1.6178 -0.1837
  490MOL0     H66104   3.355   7.390  12.080  0.4384  0.3215  0.5669
  490MOL0     H66105   3.396   7.561  12.078 -0.4167 -0.3515 -0.8360
  490MOL0     H66106   3.484   7.340  12.264  4.1240  1.8676  0.8461
  490MOL0     H66107   3.398   7.489  12.299  0.6106 -0.6184  1.7363
  490MOL0     H66108   3.620   7.603  12.216 -0.6198 -1.7874 -3.1011
  490MOL0     H66109   3.702   7.457  12.251  2.2912  1.9679  0.9991
  490MOL0     H66110   3.683   7.572  12.653  4.4252  0.3510  2.4529
  490MOL0     H66111   3.851   7.404  12.892  0.6582 -2.1944 -4.5013
  490MOL0     H66112   3.723   7.534  12.886  1.1604  0.3592  3.4835
  490MOL0     H66113   3.684   7.389  12.959  0.0226 -2.0089 -0.2640
  490MOL0     H66114   4.011   7.110  12.912  2.2621  0.0074 -2.9165
  490MOL0     H66115   4.146   6.981  13.042  0.9128 -2.1672  0.1203
  490MOL0     H66116   4.345   6.737  13.077  1.1853  1.7240  1.0634
  490MOL0     H66117   4.259   6.871  13.149  0.5625  0.7318 -2.8174
  490MOL0     H66118   4.215   6.751  13.345 -1.1299  1.4652 -3.0061
  490MOL0     H66119   4.267   6.595  13.273 -0.0707  0.1378  0.2250
  490MOL0     H66120   4.489   6.795  13.322  1.1084 -0.9173 -0.0851
  490MOL0     H66121   4.490   6.624  13.279 -2.2072 -0.7337 -2.6705
  490MOL0     H66122   4.348   6.713  13.537 -1.0207 -0.6819 -0.7589
  490MOL0     H66123   4.402   6.562  13.496 -1.9427  0.2349  4.1259
  490MOL0     H66124   4.570   6.795  13.571  0.4826  0.1895  1.3297
  490MOL0     H66125   4.647   6.650  13.490 -0.2511 -2.4776  1.2527
  490MOL0     H66126   4.531   6.503  13.649 -0.0088  0.4112 -0.0180
  490MOL0     H66127   4.667   6.593  13.715  0.3964 -3.1044 -0.7307
  490MOL0     H66128   4.360   6.618  13.759 -0.4546  1.4327 -0.7331
  490MOL0     H66129   4.470   6.750  13.810  2.0246 -0.3012  0.4495
  490MOL0     H66130   4.603   6.602  13.947  0.0372 -1.8902  0.6890
  490MOL0     H66131   4.482   6.469  13.906  1.4646 -0.1843 -2.8979
  490MOL0     H66132   3.948   6.623  12.921  4.0926 -0.4422 -3.4426
  490MOL0     H66133   3.779   6.784  12.791 -0.2691 -2.0509  1.0625
  490MOL0     H66134   3.719   7.084  12.541  1.4096 -1.2903  2.9169
  490MOL0     H66135   3.682   7.253  12.362 -0.9974  0.4607 -0.6682
  490MOL0     H66136   3.924   7.385  11.285  0.5348  1.4777  2.0192
  490MOL0     H66137   3.997   7.590  11.180 -1.1668 -1.4339 -1.2540
  490MOL0     H66138   4.465   7.773  11.064  0.9178  0.7073 -0.5751
  490MOL0     H66139   4.593   7.967  11.043 -0.1212  0.1365  1.9260
  490MOL0     H66140   4.715   8.183  10.992  0.0718  2.0360 -2.0037
  490MOL0     H66141   4.646   8.336  11.012 -1.4131 -0.7944 -1.7075
  490MOL0     H66142   4.736   8.243  11.232 -0.4118 -1.0197  1.7200
  490MOL0     H66143   4.633   8.104  11.206 -2.7881  0.5407  2.9508
  490MOL0     H66144   4.432   8.253  11.235  2.1812 -3.9658 -1.1363
  490MOL0     H66145   4.553   8.385  11.263 -0.6122  0.5315 -0.8454
  490MOL0     H66146   4.629   8.253  11.462  0.2459 -2.8085  1.8824
  490MOL0     H66147   4.525   8.118  11.439  1.2465 -1.1470 -0.3102
  490MOL0     H66148   4.215   8.346  11.593  1.0464 -0.8828  1.4565
  490MOL0     H66149   4.257   8.196  10.919 -1.9213 -0.9479 -0.0854
  490MOL0     H66150   4.115   8.000  10.944 -0.3329 -0.0854  1.6655
  491MOL0     O66151   7.745   1.539   7.596 -0.1068 -0.0006 -0.9771
  491MOL0     C66152   7.631   1.525   7.569  0.3775  0.3586 -1.0694
  491MOL0     O66153   7.569   1.408   7.570 -0.7416  0.1026  0.2623
  491MOL0     C66154   7.652   1.305   7.584  0.0359  0.1294 -1.5674
  491MOL0     C66155   7.630   1.227   7.704 -0.0849  0.2445  0.5029
  491MOL0     C66156   7.705   1.112   7.716 -0.3404  0.5206 -0.2196
  491MOL0     C66157   7.803   1.062   7.624  0.2315 -1.2170 -0.2621
  491MOL0     O66158   7.869   0.936   7.646 -0.0610 -0.5632 -0.3619
  491MOL0     C66159   7.788   0.837   7.706 -0.3652  0.3908 -0.4136
  491MOL0     C66160   7.855   0.702   7.690  0.2993 -1.0850 -0.4101
  491MOL0     C66161   7.920   0.676   7.555  0.1680  1.1964  0.4367
  491MOL0     C66162   7.917   0.531   7.504  1.0753  0.0694  0.1823
  491MOL0     C66163   7.766   0.482   7.495  0.7206 -0.3458  0.8901
  491MOL0     C66164   7.749   0.335   7.446 -1.3944  0.5329 -0.3678
  491MOL0     C66165   7.605   0.293   7.468  0.1282 -0.2241 -0.7500
  491MOL0     C66166   7.603   0.146   7.413  0.5184 -0.1239  0.7810
  491MOL0     N66167   7.477   0.083   7.438  0.6591  0.4809 -0.0503
  491MOL0     C66168   7.437  -0.026   7.365  0.2493  0.7050  0.2240
  491MOL0     C66169   7.333  -0.066   7.431 -0.0224  0.3068 -0.1027
  491MOL0     C66170   7.262  -0.189   7.407  0.0589 -0.1753 -0.0958
  491MOL0     C66171   7.354  -0.309   7.427  0.0774 -0.6464 -0.4642
  491MOL0     C66172   7.295  -0.436   7.396  0.4649 -0.5012  0.8651
  491MOL0     C66173   7.376  -0.550   7.436  0.1272 -0.2083 -0.6091
  491MOL0     O66174   7.336  -0.659   7.348 -0.2675 -0.3533 -0.4540
  491MOL0     C66175   7.225  -0.720   7.396  0.7310  0.7569 -0.0376
  491MOL0     C66176   7.221  -0.794   7.515  0.5644 -0.5171 -0.8744
  491MOL0     C66177   7.122  -0.887   7.549 -0.4079  0.8450 -1.0299
  491MOL0     C66178   7.140  -0.986   7.666 -0.6414  0.0007  0.1065
  491MOL0     C66179   7.006  -0.890   7.468  1.3821 -0.9927 -0.0717
  491MOL0     C66180   6.893  -0.981   7.498 -0.4874 -0.1982 -1.0473
  491MOL0     O66181   6.930  -1.116   7.472 -0.1142 -0.6099 -0.3827
  491MOL0     C66182   6.845  -1.218   7.497 -1.2857 -0.3600 -0.5475
  491MOL0     C66183   6.763  -1.223   7.603  0.8436 -0.6126  1.0256
  491MOL0     C66184   6.687  -1.337   7.632 -0.0404 -0.6346 -0.6436
  491MOL0     C66185   6.695  -1.455   7.549  0.8625  0.0898 -0.0106
  491MOL0     O66186   6.637  -1.573   7.599  0.6292  0.3301  0.4605
  491MOL0     C66187   6.712  -1.689   7.560  0.6728 -0.2466  0.0126
  491MOL0     C66188   6.660  -1.808   7.652  0.6243  0.4206 -0.1854
  491MOL0     C66189   6.744  -1.928   7.642 -0.2204 -0.3674 -0.3019
  491MOL0     C66190   6.751  -1.975   7.498 -0.4714  1.3056  0.5583
  491MOL0     C66191   6.833  -2.109   7.488 -0.0077  0.2186 -0.2278
  491MOL0     C66192   6.780  -2.229   7.568 -0.8247  0.1489  0.5886
  491MOL0     C66193   6.894  -2.312   7.629  0.3020 -0.1786 -0.4406
  491MOL0     C66194   6.854  -2.398   7.746 -0.5085  0.4006  0.3091
  491MOL0    Cl66195   6.760  -2.540   7.678  0.1315  0.0606 -0.2441
  491MOL0     C66196   6.775  -1.447   7.435  0.0194 -1.0961 -0.4106
  491MOL0     C66197   6.851  -1.328   7.416 -0.1762 -0.0823 -0.2865
  491MOL0     O66198   6.787  -0.938   7.539 -0.0524 -0.4000  0.2010
  491MOL0     C66199   7.008  -0.828   7.341 -0.2309  0.1115  0.2133
  491MOL0     C66200   7.130  -0.764   7.298  0.3927  0.0589  0.0525
  491MOL0     N66201   7.313   0.016   7.542 -0.1919 -0.0630  0.2895
  491MOL0     N66202   7.388   0.117   7.536 -0.2714 -0.7003  0.3955
  491MOL0     C66203   7.816   1.141   7.510 -0.9307  0.2334 -0.3572
  491MOL0     C66204   7.746   1.261   7.497 -0.0343  0.0267  0.1885
  491MOL0     C66205   7.551   1.647   7.542  0.6428 -1.0215 -0.3218
  491MOL0     C66206   7.595   1.770   7.480 -0.2150  0.9645  0.9015
  491MOL0     C66207   7.500   1.873   7.465 -0.2858 -0.2408  0.0080
  491MOL0     C66208   7.364   1.861   7.496  0.2172  0.6795 -0.5069
  491MOL0     O66209   7.284   1.968   7.493  0.2857  0.9212 -0.6919
  491MOL0     C66210   7.300   2.073   7.595 -0.2711 -0.1733 -0.1705
  491MOL0     C66211   7.181   2.118   7.666 -0.1860  0.7608  0.2076
  491MOL0     C66212   7.188   2.237   7.756  0.6470  0.0941 -0.3153
  491MOL0     C66213   7.293   2.242   7.871 -0.0032  0.7757 -0.5143
  491MOL0     C66214   7.259   2.151   7.982 -0.1286  1.4378  0.7362
  491MOL0     C66215   7.241   2.072   8.073 -0.6730 -0.0868  0.5040
  491MOL0     C66216   7.322   1.736   7.535 -0.4293 -0.0323  0.1397
  491MOL0     C66217   7.407   1.632   7.563  0.4006  0.6445 -0.1474
  491MOL0     H66218   7.558   1.257   7.779 -0.2208  0.4352  0.2991
  491MOL0     H66219   7.696   1.044   7.800  1.0417  3.1303  2.2179
  491MOL0     H66220   7.786   0.857   7.813 -0.1868 -1.3519 -0.0473
  491MOL0     H66221   7.685   0.827   7.669 -0.2376 -0.0556 -0.6517
  491MOL0     H66222   7.927   0.699   7.773 -1.8627  0.3690  1.6504
  491MOL0     H66223   7.769   0.641   7.717 -0.7855  0.8008  0.6128
  491MOL0     H66224   7.869   0.739   7.481  0.3983 -0.6316 -1.3868
  491MOL0     H66225   8.024   0.710   7.556 -0.2846  3.2305 -3.0047
  491MOL0     H66226   7.965   0.514   7.407 -0.2245 -0.7429 -0.3389
  491MOL0     H66227   7.961   0.466   7.580  0.0136 -1.9201 -0.8391
  491MOL0     H66228   7.713   0.496   7.589  0.4131  0.1806  0.6455
  491MOL0     H66229   7.714   0.552   7.428 -1.0922 -1.4196  1.1116
  491MOL0     H66230   7.768   0.336   7.339 -2.5199 -1.1346 -0.6240
  491MOL0     H66231   7.819   0.267   7.496 -2.6880  1.2298  2.6218
  491MOL0     H66232   7.595   0.305   7.577  3.6213 -0.8484 -0.2254
  491MOL0     H66233   7.533   0.362   7.424  0.2167  1.7775  1.9969
  491MOL0     H66234   7.679   0.091   7.470 -0.9986 -2.2972  0.8305
  491MOL0     H66235   7.629   0.143   7.307 -0.4172  2.4735  0.4066
  491MOL0     H66236   7.488  -0.069   7.279  1.2719  3.1871 -0.5074
  491MOL0     H66237   7.181  -0.185   7.480 -2.1607 -0.5893 -2.3883
  491MOL0     H66238   7.210  -0.185   7.311 -0.9931 -0.9300  0.4235
  491MOL0     H66239   7.391  -0.317   7.530 -1.7153  0.1043  0.2677
  491MOL0     H66240   7.436  -0.303   7.355  2.8248 -0.4628  2.4314
  491MOL0     H66241   7.269  -0.433   7.289  1.3050  1.3115  0.6798
  491MOL0     H66242   7.202  -0.458   7.449 -0.3808 -2.9567 -1.4053
  491MOL0     H66243   7.369  -0.562   7.545 -0.0124 -1.4881 -0.7435
  491MOL0     H66244   7.476  -0.518   7.404 -0.1375  0.0012 -1.2343
  491MOL0     H66245   7.313  -0.789   7.572 -0.1883 -0.3889  0.3614
  491MOL0     H66246   7.234  -0.958   7.713 -0.0666 -0.7487 -0.5616
  491MOL0     H66247   7.061  -0.977   7.741  0.0124  2.8076  0.5519
  491MOL0     H66248   7.157  -1.087   7.628 -1.4044  1.1909 -3.8873
  491MOL0     H66249   6.762  -1.139   7.672  1.6048  1.2418 -1.0719
  491MOL0     H66250   6.643  -1.346   7.731  0.3291 -0.8636 -0.4982
  491MOL0     H66251   6.712  -1.708   7.452  4.5334  0.7928 -0.3143
  491MOL0     H66252   6.815  -1.675   7.592  0.6244  1.5574 -0.5228
  491MOL0     H66253   6.650  -1.775   7.755  1.4534  0.9917 -0.2806
  491MOL0     H66254   6.563  -1.834   7.608 -0.3322  1.5962  1.1636
  491MOL0     H66255   6.700  -2.006   7.705 -3.3912  0.9058 -0.7504
  491MOL0     H66256   6.840  -1.908   7.692 -0.8035 -4.0427  2.7480
  491MOL0     H66257   6.654  -1.998   7.453 -0.8127  0.4541  1.6675
  491MOL0     H66258   6.806  -1.899   7.443 -1.4231  3.6429  2.6508
  491MOL0     H66259   6.933  -2.082   7.523  0.6055 -0.6401 -1.2577
  491MOL0     H66260   6.843  -2.147   7.386 -2.8983 -0.1151 -0.4834
  491MOL0     H66261   6.712  -2.187   7.643 -1.3583 -0.3688  0.4075
  491MOL0     H66262   6.719  -2.295   7.505 -2.4776  2.2341 -0.0931
  491MOL0     H66263   6.981  -2.256   7.665  1.1984 -2.3493  1.0043
  491MOL0     H66264   6.940  -2.378   7.555  2.7156  0.0384  0.7389
  491MOL0     H66265   6.793  -2.349   7.823  0.9590 -0.6357  2.1908
  491MOL0     H66266   6.949  -2.442   7.778 -0.1808  0.0950 -1.0195
  491MOL0     H66267   6.808  -1.531   7.375  3.1578  0.6660 -1.3485
  491MOL0     H66268   6.936  -1.325   7.349  1.1013 -2.0288  1.1092
  491MOL0     H66269   6.924  -0.829   7.272 -4.4766  0.6962  4.7775
  491MOL0     H66270   7.133  -0.721   7.198  5.5513  0.5691  0.1622
  491MOL0     H66271   7.887   1.109   7.434 -0.3563  0.1784  0.1947
  491MOL0     H66272   7.764   1.331   7.416  2.7494  3.0454  3.1221
  491MOL0     H66273   7.702   1.777   7.459 -0.3240  1.4281  0.4702
  491MOL0     H66274   7.542   1.971   7.444  1.0723 -0.5521  1.1311
  491MOL0     H66275   7.363   2.029   7.673 -1.2865 -1.7315 -0.1797
  491MOL0     H66276   7.344   2.158   7.542  1.0448 -1.1746 -0.7533
  491MOL0     H66277   7.148   2.031   7.723  2.7782 -0.9020 -0.3726
  491MOL0     H66278   7.100   2.131   7.594  1.6449  0.6925 -1.9976
  491MOL0     H66279   7.092   2.230   7.809 -0.5253 -2.4954 -2.5385
  491MOL0     H66280   7.184   2.324   7.691 -4.8731 -0.8565 -1.7732
  491MOL0     H66281   7.292   2.343   7.913  0.0992 -0.2818  2.2461
  491MOL0     H66282   7.390   2.214   7.830  0.8778  0.3312  1.7189
  491MOL0     H66283   7.197   1.997   8.136  0.5119 -0.3222  1.0841
  491MOL0     H66284   7.219   1.716   7.563 -0.6640  0.2106 -0.5299
  491MOL0     H66285   7.366   1.545   7.613 -0.4558  0.2066 -1.5511
  492MOL0     O66286   5.470   2.462   3.687 -0.1544 -0.0302 -0.2564
  492MOL0     C66287   5.582   2.458   3.727  0.3694 -0.0015  0.5983
  492MOL0     O66288   5.656   2.348   3.761  0.4161 -0.5646 -0.2379
  492MOL0     C66289   5.605   2.210   3.759  0.3506 -0.7497 -0.9864
  492MOL0     C66290   5.689   2.099   3.734  0.0782 -0.8102 -0.5658
  492MOL0     C66291   5.641   1.969   3.730  0.0213  1.1647 -0.1539
  492MOL0     C66292   5.509   1.950   3.751  0.4876  0.4051 -0.5953
  492MOL0     O66293   5.444   1.824   3.763  0.0729 -0.7947 -0.5449
  492MOL0     C66294   5.484   1.721   3.678  0.0744 -0.2388 -0.4078
  492MOL0     C66295   5.591   1.630   3.741 -0.0983 -0.4560  0.1327
  492MOL0     C66296   5.553   1.485   3.725  0.8133  1.0051  0.2374
  492MOL0     C66297   5.439   1.450   3.825 -0.0135 -0.1818 -0.9147
  492MOL0     C66298   5.446   1.305   3.862  0.1536  0.3324  0.3797
  492MOL0     C66299   5.541   1.263   3.975  0.5748 -0.7989  0.0157
  492MOL0     C66300   5.527   1.112   4.006  0.1270  0.9687  1.0315
  492MOL0     C66301   5.640   1.057   4.083  1.1039 -0.3097  0.3900
  492MOL0     N66302   5.602   0.939   4.158  0.1760  0.3350  0.2250
  492MOL0     C66303   5.504   0.926   4.257  0.8258 -0.6084 -0.1849
  492MOL0     C66304   5.528   0.812   4.320  0.3057 -0.6298  0.2498
  492MOL0     C66305   5.480   0.740   4.440  0.8499  0.3004  0.1355
  492MOL0     C66306   5.336   0.690   4.414 -0.2690 -0.1308 -0.2562
  492MOL0     C66307   5.285   0.588   4.527  0.6647 -0.3192  0.4975
  492MOL0     C66308   5.162   0.521   4.483  0.7015  0.5287  0.4898
  492MOL0     O66309   5.208   0.435   4.378 -0.1831  0.2273 -0.9739
  492MOL0     C66310   5.103   0.389   4.313 -0.9601  0.6050  0.1370
  492MOL0     C66311   5.007   0.310   4.363  0.3991  0.4666  0.2838
  492MOL0     C66312   4.920   0.231   4.282  0.1721  0.7159 -0.6515
  492MOL0     C66313   4.816   0.138   4.348  1.1608  0.0122 -0.3110
  492MOL0     C66314   4.924   0.242   4.144 -0.9848  0.4044 -0.5713
  492MOL0     C66315   4.822   0.176   4.055  0.1304  0.6100  0.1692
  492MOL0     O66316   4.850   0.216   3.929  0.1546 -0.2776 -0.0924
  492MOL0     C66317   4.778   0.157   3.826  0.2506  0.1273  0.3668
  492MOL0     C66318   4.837   0.042   3.771 -1.3824  0.7437 -0.1166
  492MOL0     C66319   4.767  -0.031   3.677  0.2858 -0.4717  0.7787
  492MOL0     C66320   4.645   0.007   3.631 -0.5684 -0.1018  0.0604
  492MOL0     O66321   4.600  -0.073   3.523  0.3466  0.2308 -0.1428
  492MOL0     C66322   4.482  -0.031   3.443  0.5642  0.1043  0.5897
  492MOL0     C66323   4.453  -0.153   3.361 -0.4957  0.2997  0.7133
  492MOL0     C66324   4.571  -0.198   3.268  0.9521 -0.3267  0.1338
  492MOL0     C66325   4.552  -0.336   3.215 -0.7956  0.2821  0.6703
  492MOL0     C66326   4.683  -0.359   3.127  0.0230  0.1692 -0.2222
  492MOL0     C66327   4.810  -0.399   3.210 -0.2465  0.3820 -0.6473
  492MOL0     C66328   4.932  -0.462   3.148 -0.4613 -0.0175 -0.4509
  492MOL0     C66329   5.008  -0.375   3.033  0.3333 -0.0842  0.2915
  492MOL0    Cl66330   4.938  -0.397   2.863 -0.0224  0.6222  0.5403
  492MOL0     C66331   4.595   0.135   3.669  0.0983  0.4720  0.7163
  492MOL0     C66332   4.656   0.211   3.775 -1.1234 -0.5121 -0.2364
  492MOL0     O66333   4.745   0.087   4.086  0.0053  0.5961  0.2639
  492MOL0     C66334   5.032   0.327   4.093  0.3586  0.1549  0.5831
  492MOL0     C66335   5.115   0.401   4.175  0.5026 -0.0919 -0.0889
  492MOL0     N66336   5.633   0.750   4.249 -0.4824 -0.5525 -0.3029
  492MOL0     N66337   5.669   0.819   4.150 -0.9338  0.0029 -0.4649
  492MOL0     C66338   5.420   2.058   3.765 -0.4959  1.2180 -0.0754
  492MOL0     C66339   5.472   2.184   3.765  0.0320 -0.6666 -0.2428
  492MOL0     C66340   5.659   2.586   3.749  0.5720  0.2898  0.3657
  492MOL0     C66341   5.592   2.702   3.756 -1.0196 -0.5866 -0.6618
  492MOL0     C66342   5.665   2.827   3.759  0.8552 -0.6849  0.9351
  492MOL0     C66343   5.799   2.832   3.760  1.1718 -0.4192  0.0752
  492MOL0     O66344   5.880   2.942   3.764  0.2992  0.1463  0.8155
  492MOL0     C66345   5.861   3.031   3.653 -0.0086 -0.9280 -0.3357
  492MOL0     C66346   6.004   3.084   3.610 -0.7216  0.2189 -0.8538
  492MOL0     C66347   6.077   3.174   3.709 -0.4324 -0.8496 -0.2376
  492MOL0     C66348   6.216   3.230   3.657  0.0328 -0.4334 -0.8672
  492MOL0     C66349   6.318   3.128   3.637 -0.3436  1.0349  0.0592
  492MOL0     C66350   6.393   3.034   3.639 -0.0156 -0.2816 -1.0488
  492MOL0     C66351   5.865   2.712   3.731  0.1958  0.0042  0.5535
  492MOL0     C66352   5.803   2.580   3.733 -0.8465 -0.9283  0.0955
  492MOL0     H66353   5.792   2.109   3.699  1.0952 -4.2044  1.0824
  492MOL0     H66354   5.722   1.897   3.723 -1.4764 -1.0395  2.8849
  492MOL0     H66355   5.406   1.651   3.644  1.5748 -1.9620 -0.4784
  492MOL0     H66356   5.535   1.751   3.586  1.0147 -0.4522  0.0428
  492MOL0     H66357   5.682   1.638   3.680 -0.4089  0.3399 -0.2380
  492MOL0     H66358   5.617   1.652   3.845 -1.5543  0.1095  0.3959
  492MOL0     H66359   5.510   1.468   3.626 -0.4778 -0.7414  1.0328
  492MOL0     H66360   5.647   1.431   3.741  0.0316  0.1539  2.4871
  492MOL0     H66361   5.435   1.513   3.914 -6.3990 -2.8495  1.3356
  492MOL0     H66362   5.343   1.464   3.774 -0.7728 -0.8791  0.2750
  492MOL0     H66363   5.347   1.274   3.900  0.8135  1.8728  3.7469
  492MOL0     H66364   5.469   1.241   3.777 -3.7022  0.9575 -1.3490
  492MOL0     H66365   5.649   1.279   3.963  0.5436  4.2706  3.4460
  492MOL0     H66366   5.525   1.324   4.065 -0.4666  2.1149 -1.9910
  492MOL0     H66367   5.432   1.101   4.058 -0.3733 -0.7460 -0.1617
  492MOL0     H66368   5.516   1.062   3.909 -0.6663  0.6622  1.2743
  492MOL0     H66369   5.686   1.124   4.156  2.9627  0.8956 -1.7730
  492MOL0     H66370   5.715   1.014   4.016  2.5453  2.0939  0.3518
  492MOL0     H66371   5.426   0.995   4.287  0.0891 -1.9352  1.0440
  492MOL0     H66372   5.551   0.657   4.443  2.9961  1.9549 -1.6378
  492MOL0     H66373   5.487   0.799   4.532 -0.2144 -0.9458  1.0554
  492MOL0     H66374   5.330   0.651   4.312  2.2808  0.9344 -0.8930
  492MOL0     H66375   5.269   0.776   4.409  2.0431  1.7875  0.0683
  492MOL0     H66376   5.248   0.641   4.615  0.0159  0.9907 -0.5340
  492MOL0     H66377   5.360   0.511   4.546 -1.0073 -2.0904  0.2710
  492MOL0     H66378   5.088   0.588   4.440 -0.7151 -0.6686  0.9687
  492MOL0     H66379   5.115   0.462   4.563 -1.8429  1.0369 -0.5368
  492MOL0     H66380   5.001   0.307   4.472 -0.5030 -1.8217  0.2269
  492MOL0     H66381   4.815   0.173   4.452 -2.6649 -0.0269 -0.1860
  492MOL0     H66382   4.716   0.164   4.313  2.2062  0.9190 -2.8902
  492MOL0     H66383   4.847   0.038   4.316  0.6746 -0.8134  1.6545
  492MOL0     H66384   4.937   0.023   3.810 -1.0921 -0.9265 -1.5974
  492MOL0     H66385   4.797  -0.122   3.627  1.1373  0.3848 -0.3216
  492MOL0     H66386   4.395  -0.004   3.503 -0.5778  0.7984 -1.2642
  492MOL0     H66387   4.511   0.057   3.384  1.8834 -1.2303 -0.8417
  492MOL0     H66388   4.424  -0.236   3.425  0.4066 -0.2431  0.4481
  492MOL0     H66389   4.373  -0.123   3.292  0.5798  3.4075  0.6493
  492MOL0     H66390   4.659  -0.189   3.333 -1.4764  0.1056  3.7187
  492MOL0     H66391   4.574  -0.124   3.187 -0.1972  0.1333  0.4847
  492MOL0     H66392   4.545  -0.407   3.298  1.4285 -0.1750  0.5144
  492MOL0     H66393   4.460  -0.344   3.156 -2.2928  2.0940  2.5959
  492MOL0     H66394   4.705  -0.272   3.065  1.9641  1.7119  2.4234
  492MOL0     H66395   4.665  -0.439   3.054  1.5125  1.3691 -1.9846
  492MOL0     H66396   4.840  -0.307   3.260 -1.8597  0.7285 -0.2620
  492MOL0     H66397   4.775  -0.472   3.284 -1.5455  1.5526 -0.0627
  492MOL0     H66398   4.925  -0.565   3.111 -0.3377 -2.9121  6.1594
  492MOL0     H66399   5.016  -0.472   3.216  0.7310  1.7882 -1.5525
  492MOL0     H66400   5.115  -0.399   3.035  0.2206 -0.7663 -1.0509
  492MOL0     H66401   5.007  -0.271   3.066 -0.7787 -0.1507  0.5283
  492MOL0     H66402   4.509   0.174   3.616  1.5880  1.7371 -0.8980
  492MOL0     H66403   4.620   0.312   3.793 -0.8874  0.0905 -2.6912
  492MOL0     H66404   5.062   0.320   3.989 -0.6919  2.3346  0.0617
  492MOL0     H66405   5.194   0.463   4.133 -1.0386  1.4346 -0.8885
  492MOL0     H66406   5.315   2.033   3.761 -0.5215  1.1009 -4.5830
  492MOL0     H66407   5.396   2.260   3.787  1.6202  1.0096 -0.2959
  492MOL0     H66408   5.484   2.710   3.759 -0.9173  4.0362 -1.5108
  492MOL0     H66409   5.621   2.925   3.772  2.1034 -0.3242  2.8100
  492MOL0     H66410   5.809   2.996   3.564  1.2932  0.8146 -1.8761
  492MOL0     H66411   5.795   3.112   3.687 -1.0725 -2.3795  1.2026
  492MOL0     H66412   6.018   3.136   3.515  3.1802 -2.2690 -1.8660
  492MOL0     H66413   6.061   2.992   3.598 -1.0585 -0.0214 -0.6365
  492MOL0     H66414   6.100   3.120   3.802  0.4310  1.8347  1.2151
  492MOL0     H66415   6.007   3.253   3.739  0.0845  0.2715 -1.9049
  492MOL0     H66416   6.250   3.306   3.728 -0.2920 -2.5065  1.6540
  492MOL0     H66417   6.203   3.272   3.557 -0.1720 -2.5848 -1.7769
  492MOL0     H66418   6.451   2.947   3.615  1.9076  0.5191  0.3767
  492MOL0     H66419   5.972   2.716   3.713  0.2795  0.9144  1.1959
  492MOL0     H66420   5.867   2.495   3.710  0.3420  0.2393 -1.1690
  493MOL0     O66421   7.446   7.424  11.371 -0.6730 -0.2485 -1.0058
  493MOL0     C66422   7.376   7.392  11.468 -1.0433  0.4194 -0.5315
  493MOL0     O66423   7.406   7.293  11.558  0.2295  0.3389  0.0461
  493MOL0     C66424   7.518   7.210  11.535  0.1878 -0.1661 -0.5991
  493MOL0     C66425   7.652   7.256  11.531 -0.5390  0.5467  0.4064
  493MOL0     C66426   7.758   7.158  11.502  0.7047 -0.4185 -0.1775
  493MOL0     C66427   7.723   7.026  11.508  0.0807  0.6839  0.6070
  493MOL0     O66428   7.812   6.920  11.470  0.6055 -0.1537 -1.3113
  493MOL0     C66429   7.926   6.893  11.551 -0.3116  0.1696  0.3414
  493MOL0     C66430   8.025   6.788  11.488 -0.3483  0.2461  0.8197
  493MOL0     C66431   7.972   6.642  11.501 -0.2323 -0.3776 -0.2058
  493MOL0     C66432   8.044   6.540  11.414 -0.3379 -0.2109  0.9764
  493MOL0     C66433   8.004   6.403  11.439  0.1951  0.0699  0.6720
  493MOL0     C66434   8.052   6.312  11.324  0.5604 -0.3769 -0.6348
  493MOL0     C66435   8.015   6.157  11.348 -0.3180 -0.1470 -0.2030
  493MOL0     C66436   8.128   6.075  11.413  0.2521 -0.1609  0.3701
  493MOL0     N66437   8.128   6.097  11.558 -0.0411  0.4034  0.9960
  493MOL0     C66438   8.205   6.188  11.612 -0.5354 -0.4479 -0.7824
  493MOL0     C66439   8.183   6.174  11.750  0.9142  0.1359 -0.0984
  493MOL0     C66440   8.269   6.232  11.862  0.5310  0.2515  0.3824
  493MOL0     C66441   8.238   6.380  11.887  0.3071 -0.2428  0.2801
  493MOL0     C66442   8.086   6.407  11.922  0.9686 -0.9781 -0.2032
  493MOL0     C66443   8.049   6.548  11.971 -0.0470  0.8748  0.3328
  493MOL0     O66444   7.906   6.569  11.947 -0.8374  0.1106  0.7970
  493MOL0     C66445   7.865   6.694  11.931  0.0931 -0.2361 -0.1759
  493MOL0     C66446   7.726   6.698  11.917  0.0999  1.2238  0.8244
  493MOL0     C66447   7.657   6.820  11.900  0.1815 -1.0945 -0.8096
  493MOL0     C66448   7.516   6.822  11.859  1.0074 -0.2296  0.9653
  493MOL0     C66449   7.731   6.950  11.902 -0.1112 -0.4008  0.8806
  493MOL0     C66450   7.673   7.085  11.891  0.8230 -0.0123  0.4348
  493MOL0     O66451   7.758   7.187  11.854 -0.3377  0.2502 -0.6336
  493MOL0     C66452   7.711   7.315  11.847 -0.5323  0.1566 -0.7057
  493MOL0     C66453   7.810   7.409  11.801  0.4614 -0.5282  0.1445
  493MOL0     C66454   7.778   7.545  11.788  0.4657  0.6160  0.9794
  493MOL0     C66455   7.656   7.596  11.839 -0.0243 -0.5720  0.3113
  493MOL0     O66456   7.620   7.725  11.824 -0.9304 -0.1261 -0.4141
  493MOL0     C66457   7.502   7.734  11.741  0.8779  0.5458  0.9811
  493MOL0     C66458   7.395   7.839  11.791 -0.4669  0.3506  0.3781
  493MOL0     C66459   7.270   7.821  11.703  0.4399  0.7197 -0.1912
  493MOL0     C66460   7.189   7.954  11.712 -0.1905 -0.0988 -0.2314
  493MOL0     C66461   7.080   7.959  11.604 -0.3754  0.3363 -0.4766
  493MOL0     C66462   7.015   8.093  11.575 -1.0901 -0.2932  0.1450
  493MOL0     C66463   7.119   8.162  11.476 -0.2523  0.0999  0.0028
  493MOL0     C66464   7.081   8.315  11.449  0.6072  0.7540  0.1631
  493MOL0    Cl66465   7.077   8.407  11.595 -0.1087  0.1729 -0.8056
  493MOL0     C66466   7.566   7.503  11.893  0.6660 -0.8839  0.3880
  493MOL0     C66467   7.584   7.365  11.898 -0.4654 -0.5430 -0.1807
  493MOL0     O66468   7.545   7.094  11.911 -0.4291  0.4733  0.2053
  493MOL0     C66469   7.870   6.938  11.919  0.0283  0.3419  0.5763
  493MOL0     C66470   7.934   6.819  11.930 -0.3912  0.8277 -0.8521
  493MOL0     N66471   8.073   6.092  11.760  0.2480  0.0989  0.5680
  493MOL0     N66472   8.051   6.035  11.646  0.0767 -0.0071 -0.7197
  493MOL0     C66473   7.590   6.983  11.520 -0.3017 -0.7258  0.2372
  493MOL0     C66474   7.489   7.074  11.533 -0.0047  1.3215 -0.6936
  493MOL0     C66475   7.259   7.469  11.475  0.9873 -1.3119  0.6389
  493MOL0     C66476   7.150   7.448  11.562  0.0124 -0.2135  0.5887
  493MOL0     C66477   7.030   7.508  11.553  0.7836 -0.0417 -0.1453
  493MOL0     C66478   7.005   7.606  11.460 -0.0468  0.2928 -0.2860
  493MOL0     O66479   6.869   7.652  11.452 -0.3423  0.4109  0.5834
  493MOL0     C66480   6.844   7.756  11.354 -0.3571  0.5020  0.3964
  493MOL0     C66481   6.700   7.808  11.380  0.3521  0.1275  0.4394
  493MOL0     C66482   6.584   7.745  11.297  0.6870  0.4857 -0.3201
  493MOL0     C66483   6.569   7.594  11.319  0.6245  1.2978  0.4235
  493MOL0     C66484   6.430   7.560  11.295 -0.0809 -0.1022 -0.0130
  493MOL0     C66485   6.310   7.552  11.286 -0.6782 -0.1635 -0.5080
  493MOL0     C66486   7.113   7.648  11.387 -0.0141 -0.8092 -0.4220
  493MOL0     C66487   7.235   7.582  11.382 -1.2384  0.8251 -0.4088
  493MOL0     H66488   7.678   7.361  11.538  2.1470  0.2183 -2.6100
  493MOL0     H66489   7.853   7.196  11.468 -0.1182  0.2194 -1.8921
  493MOL0     H66490   7.985   6.985  11.557 -0.9895  0.7493 -1.3121
  493MOL0     H66491   7.907   6.865  11.655 -0.1961 -0.3285  0.2318
  493MOL0     H66492   8.047   6.814  11.384  2.4680  0.2070  1.3341
  493MOL0     H66493   8.115   6.794  11.550 -0.6691  1.1933  1.2109
  493MOL0     H66494   7.970   6.606  11.604  0.0928  2.3957  0.8583
  493MOL0     H66495   7.868   6.659  11.470  0.3860  2.2596 -1.1350
  493MOL0     H66496   8.014   6.568  11.312 -0.6143 -2.4347  0.3738
  493MOL0     H66497   8.153   6.542  11.422 -0.3672 -1.3066  1.8603
  493MOL0     H66498   8.019   6.365  11.540 -3.0668 -3.7704 -0.0243
  493MOL0     H66499   7.894   6.405  11.440  0.0954  4.7223  0.8072
  493MOL0     H66500   8.019   6.350  11.227  1.3255 -3.2357 -2.1390
  493MOL0     H66501   8.161   6.318  11.317  0.7046  3.5710  2.1073
  493MOL0     H66502   7.922   6.151  11.405  0.1067  3.2353  1.1294
  493MOL0     H66503   7.985   6.121  11.250  0.8747 -0.4413 -0.4804
  493MOL0     H66504   8.227   6.094  11.368 -0.1197 -3.9832 -2.6052
  493MOL0     H66505   8.117   5.968  11.391 -0.7775 -0.3695  1.8148
  493MOL0     H66506   8.285   6.248  11.569  2.0154 -2.4081  0.9600
  493MOL0     H66507   8.253   6.185  11.959  2.2948  0.3674  0.7656
  493MOL0     H66508   8.372   6.219  11.827  0.3191  0.1576 -0.2189
  493MOL0     H66509   8.255   6.436  11.794 -1.0598 -0.4884 -0.1289
  493MOL0     H66510   8.308   6.420  11.961  0.4775  1.8815 -0.9343
  493MOL0     H66511   8.054   6.335  11.998  2.4202 -0.3668  1.0614
  493MOL0     H66512   8.028   6.394  11.830 -0.8456 -0.1987  0.7748
  493MOL0     H66513   8.112   6.611  11.907  1.3235  0.1829  0.9593
  493MOL0     H66514   8.079   6.563  12.075  2.2233  0.8911 -0.2775
  493MOL0     H66515   7.666   6.609  11.899  0.7887  1.2873 -2.4916
  493MOL0     H66516   7.470   6.725  11.836 -1.2585  0.6277  1.5734
  493MOL0     H66517   7.445   6.849  11.937 -0.3965  1.6853 -0.8579
  493MOL0     H66518   7.509   6.884  11.768  1.0819 -1.4283  0.1158
  493MOL0     H66519   7.910   7.389  11.765  0.0441  0.3917 -1.6434
  493MOL0     H66520   7.846   7.622  11.753  0.2523  2.8060  4.7926
  493MOL0     H66521   7.536   7.746  11.638  0.1924  2.4648  0.9505
  493MOL0     H66522   7.441   7.643  11.738 -0.2804  1.3384 -0.3006
  493MOL0     H66523   7.375   7.830  11.898  1.3098 -2.4823  0.5964
  493MOL0     H66524   7.445   7.935  11.772 -2.0222  0.7837 -1.9481
  493MOL0     H66525   7.225   7.726  11.733  3.3391 -0.9475 -0.7285
  493MOL0     H66526   7.296   7.799  11.599  1.2333  0.4798  0.0514
  493MOL0     H66527   7.140   7.972  11.809 -0.8771 -0.9686 -0.4046
  493MOL0     H66528   7.257   8.040  11.702  3.5975 -2.5882  1.7675
  493MOL0     H66529   6.995   7.902  11.643 -1.2669  0.6523 -1.8917
  493MOL0     H66530   7.101   7.906  11.510 -2.4968  0.1305 -0.8956
  493MOL0     H66531   6.919   8.078  11.524 -0.5221  0.3167 -1.1544
  493MOL0     H66532   6.999   8.141  11.672  0.1872  0.4644  0.0080
  493MOL0     H66533   7.115   8.113  11.378 -1.9118  0.6610 -0.2402
  493MOL0     H66534   7.225   8.148  11.498 -0.3030 -0.2384  0.0350
  493MOL0     H66535   6.983   8.316  11.401  0.4739 -0.0645  0.3884
  493MOL0     H66536   7.158   8.343  11.377  0.6424  1.9232  0.6397
  493MOL0     H66537   7.474   7.541  11.936 -0.6648  0.7913 -3.4443
  493MOL0     H66538   7.495   7.318  11.939 -0.7891  1.1390  1.2042
  493MOL0     H66539   7.931   7.028  11.909 -5.7018  4.7951  0.2003
  493MOL0     H66540   8.042   6.822  11.924 -0.3235  2.8283  0.4042
  493MOL0     H66541   7.571   6.876  11.513 -0.3833 -0.7669  1.0358
  493MOL0     H66542   7.383   7.050  11.539  0.2677 -0.9739 -3.1316
  493MOL0     H66543   7.151   7.374  11.641  0.0053  0.0801  0.8644
  493MOL0     H66544   6.947   7.469  11.611  0.6386  0.8926  0.2833
  493MOL0     H66545   6.915   7.840  11.361 -1.6431  1.6037  0.7075
  493MOL0     H66546   6.864   7.713  11.255  0.8921 -0.0910  0.8909
  493MOL0     H66547   6.695   7.915  11.356 -0.5413  0.6490  2.7432
  493MOL0     H66548   6.677   7.802  11.487 -0.4774  1.9063  0.3991
  493MOL0     H66549   6.615   7.774  11.197  0.7901 -1.5371 -0.9156
  493MOL0     H66550   6.495   7.800  11.331  1.3150  2.9140 -2.3135
  493MOL0     H66551   6.609   7.565  11.417  0.1050  0.5466  0.4269
  493MOL0     H66552   6.619   7.542  11.236 -2.0165  2.4211 -2.0563
  493MOL0     H66553   6.204   7.558  11.274 -0.9642 -0.6361  1.5098
  493MOL0     H66554   7.100   7.733  11.320  1.9707 -1.5396 -1.8352
  493MOL0     H66555   7.313   7.614  11.315 -2.3364 -1.1391 -2.7733
  494MOL0     O66556   3.400   4.826   0.548  1.0957  1.4667  0.3279
  494MOL0     C66557   3.441   4.740   0.622  0.4405  0.3993  0.2170
  494MOL0     O66558   3.565   4.725   0.679  0.8081 -0.5216 -0.3571
  494MOL0     C66559   3.661   4.823   0.680 -0.5259  0.0166 -0.8387
  494MOL0     C66560   3.633   4.959   0.690 -1.0945 -0.3006  0.8784
  494MOL0     C66561   3.741   5.050   0.690  0.7275 -0.6834  0.5290
  494MOL0     C66562   3.879   5.013   0.680  0.4632  0.0339  0.5302
  494MOL0     O66563   3.976   5.105   0.665 -0.2552 -0.6568  0.0569
  494MOL0     C66564   4.020   5.168   0.790  0.9365 -0.0394  0.9602
  494MOL0     C66565   4.151   5.240   0.759  0.2212  0.5285 -0.8553
  494MOL0     C66566   4.135   5.365   0.683 -0.5737 -0.6970 -0.0791
  494MOL0     C66567   4.256   5.455   0.652  0.6238  1.2206 -0.6559
  494MOL0     C66568   4.245   5.521   0.513 -0.6835  0.3464 -0.5327
  494MOL0     C66569   4.374   5.572   0.440  1.1196  0.9656 -0.0416
  494MOL0     C66570   4.433   5.690   0.519 -0.3083 -0.0146 -0.5828
  494MOL0     C66571   4.577   5.710   0.485  0.1669 -0.1106  0.1434
  494MOL0     N66572   4.602   5.697   0.332 -0.2734 -0.8333 -0.2813
  494MOL0     C66573   4.624   5.804   0.247  1.1504  0.6317 -0.0736
  494MOL0     C66574   4.683   5.753   0.137 -0.7144  0.4467 -0.2674
  494MOL0     C66575   4.737   5.816   0.009 -0.1713  1.3716 -0.3371
  494MOL0     C66576   4.845   5.917   0.029 -0.1850 -1.3901 -0.0907
  494MOL0     C66577   4.986   5.863   0.018 -0.3972 -0.3899 -1.8022
  494MOL0     C66578   5.017   5.831  -0.117  0.5233 -0.6200  0.6771
  494MOL0     O66579   5.043   5.942  -0.204  0.5204  0.7905 -0.0638
  494MOL0     C66580   5.109   5.909  -0.319 -0.1267  1.2959 -0.0487
  494MOL0     C66581   5.156   6.011  -0.402 -0.0153  0.0317  0.7282
  494MOL0     C66582   5.238   5.988  -0.515  0.3995 -0.2110 -0.0943
  494MOL0     C66583   5.279   6.114  -0.585 -0.7576 -0.1157  0.9566
  494MOL0     C66584   5.276   5.860  -0.553 -0.6336  0.3300 -0.7499
  494MOL0     C66585   5.368   5.825  -0.651  0.8479  0.4824  1.2185
  494MOL0     O66586   5.472   5.748  -0.624 -0.3429 -0.2541 -0.7097
  494MOL0     C66587   5.575   5.749  -0.717  0.4999 -0.8274 -0.2645
  494MOL0     C66588   5.607   5.630  -0.774  0.0713 -0.4332 -0.9223
  494MOL0     C66589   5.725   5.620  -0.846  0.3972  0.6715 -0.2395
  494MOL0     C66590   5.813   5.730  -0.860 -0.1771  0.6330  0.3416
  494MOL0     O66591   5.937   5.716  -0.931 -0.0017  0.3390 -0.4066
  494MOL0     C66592   6.022   5.827  -0.932  0.4971 -0.7667  0.4562
  494MOL0     C66593   6.149   5.802  -1.013 -0.7663  0.4510 -0.2880
  494MOL0     C66594   6.232   5.680  -0.953 -0.8299 -0.3288 -0.6801
  494MOL0     C66595   6.371   5.670  -1.018 -0.0732 -0.1769 -0.3930
  494MOL0     C66596   6.364   5.619  -1.162  0.6485  0.4485 -0.2790
  494MOL0     C66597   6.508   5.601  -1.214 -0.8728  0.8009 -0.6459
  494MOL0     C66598   6.512   5.585  -1.367  0.0569 -0.9260 -0.4880
  494MOL0     C66599   6.656   5.621  -1.416 -0.1947  0.1829 -0.0486
  494MOL0    Cl66600   6.773   5.527  -1.318 -0.2251  0.1386 -0.0414
  494MOL0     C66601   5.775   5.847  -0.809 -0.0754 -0.3040  0.2790
  494MOL0     C66602   5.656   5.863  -0.735  0.1362  0.6765  0.6598
  494MOL0     O66603   5.353   5.886  -0.761  0.8906  0.1938 -0.7045
  494MOL0     C66604   5.235   5.756  -0.471  0.6662  1.2376  0.9134
  494MOL0     C66605   5.155   5.780  -0.364  0.5394 -0.3555 -0.5749
  494MOL0     N66606   4.689   5.609   0.162 -0.0058  0.8036  0.4266
  494MOL0     N66607   4.628   5.581   0.273  0.1632  0.1893  0.6361
  494MOL0     C66608   3.908   4.881   0.689 -0.3341 -0.0317 -0.3840
  494MOL0     C66609   3.798   4.787   0.689 -0.3112  0.4014  0.4866
  494MOL0     C66610   3.351   4.628   0.642 -0.1821 -0.5324 -0.1021
  494MOL0     C66611   3.216   4.632   0.605 -1.2760  0.3960  1.0601
  494MOL0     C66612   3.131   4.520   0.639 -0.9328  1.1428  0.0601
  494MOL0     C66613   3.179   4.407   0.704  0.2291  0.1151  1.1851
  494MOL0     O66614   3.104   4.293   0.738  0.1107  1.1949 -0.5111
  494MOL0     C66615   2.963   4.287   0.719 -0.2319  1.2726  0.1088
  494MOL0     C66616   2.901   4.161   0.781  0.6440 -0.0208 -0.6575
  494MOL0     C66617   2.912   4.173   0.936  0.1737  0.0995  0.1307
  494MOL0     C66618   2.966   4.048   0.985 -0.8194  0.4590  0.4283
  494MOL0     C66619   2.909   4.007   1.112  0.2275 -0.9232 -0.5547
  494MOL0     C66620   2.881   3.995   1.229 -0.4593  0.3057 -0.1507
  494MOL0     C66621   3.316   4.403   0.721 -0.4461 -0.2695  0.3609
  494MOL0     C66622   3.400   4.509   0.696  0.2691  0.9587  0.2753
  494MOL0     H66623   3.530   4.993   0.695 -1.9877 -2.4914 -1.0423
  494MOL0     H66624   3.721   5.156   0.691 -0.9820 -0.9684  1.6442
  494MOL0     H66625   3.947   5.241   0.828  0.8430  0.3700  0.0422
  494MOL0     H66626   4.037   5.087   0.860 -0.8542  0.5340  2.1456
  494MOL0     H66627   4.191   5.252   0.859 -4.0788 -1.3009  1.3515
  494MOL0     H66628   4.218   5.169   0.709  1.4565  1.9883 -1.3596
  494MOL0     H66629   4.090   5.341   0.586 -1.7177 -0.5972  0.4100
  494MOL0     H66630   4.067   5.429   0.739  0.1853 -1.4129  1.7440
  494MOL0     H66631   4.273   5.532   0.728  0.1233 -1.4459  2.3889
  494MOL0     H66632   4.337   5.381   0.658 -1.7504 -1.4719  0.6956
  494MOL0     H66633   4.191   5.456   0.444 -2.6742  0.7486  0.5503
  494MOL0     H66634   4.171   5.601   0.524  0.5690  1.3454  1.2246
  494MOL0     H66635   4.441   5.488   0.416  2.2493  1.6657  0.5548
  494MOL0     H66636   4.350   5.633   0.353  2.2472  0.3326 -0.8286
  494MOL0     H66637   4.369   5.776   0.498 -1.6991 -1.0146 -0.5541
  494MOL0     H66638   4.418   5.664   0.624  0.3981 -0.4345 -0.5852
  494MOL0     H66639   4.635   5.637   0.544 -0.4040 -0.9684 -0.3396
  494MOL0     H66640   4.615   5.806   0.523  1.8701 -0.9894  0.7776
  494MOL0     H66641   4.614   5.912   0.248  0.0804  0.5427 -0.2319
  494MOL0     H66642   4.776   5.728  -0.042  3.4172  2.6864 -0.1393
  494MOL0     H66643   4.663   5.864  -0.055 -0.0328  0.7302 -0.9949
  494MOL0     H66644   4.827   5.977   0.119  0.2368 -0.9459 -0.2967
  494MOL0     H66645   4.839   5.999  -0.044  5.3901 -1.8731 -1.5433
  494MOL0     H66646   4.994   5.771   0.077 -3.9691  0.0116 -0.4421
  494MOL0     H66647   5.058   5.933   0.062 -1.9046  2.4368 -3.5848
  494MOL0     H66648   4.947   5.761  -0.165 -2.3941  1.3590  1.7771
  494MOL0     H66649   5.118   5.789  -0.115  1.4137  1.4468  0.9632
  494MOL0     H66650   5.125   6.111  -0.373  2.2113  1.2834 -0.8787
  494MOL0     H66651   5.380   6.121  -0.544 -0.6003 -0.3798  0.6217
  494MOL0     H66652   5.274   6.116  -0.694 -2.4474  3.5430  0.9614
  494MOL0     H66653   5.220   6.197  -0.547 -0.0615 -0.0360  1.8955
  494MOL0     H66654   5.543   5.543  -0.770 -3.4023  1.8287 -2.2218
  494MOL0     H66655   5.751   5.525  -0.893 -0.0720  0.3527  0.1380
  494MOL0     H66656   5.977   5.921  -0.966  0.4039 -1.2356 -0.7683
  494MOL0     H66657   6.053   5.837  -0.827 -4.0283  1.3150  1.8507
  494MOL0     H66658   6.124   5.786  -1.118  0.9587  0.2762 -0.7060
  494MOL0     H66659   6.216   5.889  -1.011 -0.4717  0.2366 -0.7647
  494MOL0     H66660   6.180   5.584  -0.965  1.1593 -1.3762 -1.2239
  494MOL0     H66661   6.240   5.694  -0.845 -1.4394  0.8779 -0.7727
  494MOL0     H66662   6.436   5.758  -1.009  0.0598 -0.1412 -1.4975
  494MOL0     H66663   6.421   5.592  -0.960 -3.7242 -1.7827  0.8924
  494MOL0     H66664   6.310   5.681  -1.234  0.4989  0.4922 -0.1281
  494MOL0     H66665   6.306   5.528  -1.149  1.6067 -0.5846 -2.6314
  494MOL0     H66666   6.563   5.694  -1.193 -0.4367  0.8054 -1.7339
  494MOL0     H66667   6.549   5.508  -1.173  0.8151  1.5829 -0.4984
  494MOL0     H66668   6.430   5.635  -1.420  0.1205 -0.8069 -0.4744
  494MOL0     H66669   6.483   5.481  -1.384  1.7683 -0.9624 -4.1213
  494MOL0     H66670   6.672   5.729  -1.407 -1.3281  0.1859  3.1920
  494MOL0     H66671   6.665   5.606  -1.524 -1.9064  5.1004 -1.1457
  494MOL0     H66672   5.838   5.935  -0.810  1.2714 -1.2420  0.0070
  494MOL0     H66673   5.616   5.955  -0.693  1.3679  1.9149 -0.7413
  494MOL0     H66674   5.262   5.652  -0.483 -1.2702  0.0673  4.9877
  494MOL0     H66675   5.123   5.686  -0.321 -1.0108  0.4445  0.1273
  494MOL0     H66676   4.007   4.839   0.695 -1.0385 -1.5594  5.0173
  494MOL0     H66677   3.834   4.685   0.697  1.3171  0.9576  0.7539
  494MOL0     H66678   3.167   4.721   0.566 -1.1906 -0.3329 -0.8513
  494MOL0     H66679   3.025   4.516   0.614 -0.4932  0.5692 -1.8049
  494MOL0     H66680   2.917   4.377   0.762 -0.9358 -0.2353  2.6930
  494MOL0     H66681   2.957   4.277   0.610  4.5232 -0.5410 -0.2371
  494MOL0     H66682   2.962   4.076   0.748 -0.9845 -0.9678 -1.3528
  494MOL0     H66683   2.797   4.153   0.748  0.5049 -0.7869 -0.0577
  494MOL0     H66684   2.817   4.202   0.981  0.3020  0.8765 -0.0769
  494MOL0     H66685   2.976   4.252   0.977  0.7582  0.4383 -1.3898
  494MOL0     H66686   3.073   4.056   1.004 -0.9122 -1.2199  1.9170
  494MOL0     H66687   2.945   3.965   0.917 -1.1620 -0.0081  1.0995
  494MOL0     H66688   2.862   3.994   1.335 -1.2113 -3.9940 -0.1428
  494MOL0     H66689   3.347   4.312   0.772 -4.2612 -1.4859  0.8850
  494MOL0     H66690   3.505   4.506   0.722  0.4927 -1.1501 -0.6478
  495MOL0     O66691   8.234   4.770   9.955  0.6617  0.3537  0.1072
  495MOL0     C66692   8.246   4.708   9.853 -0.8460 -0.3538  1.0292
  495MOL0     O66693   8.196   4.579   9.821 -1.3800 -0.1124  0.2165
  495MOL0     C66694   8.127   4.498   9.915  0.1710 -0.4240 -0.1758
  495MOL0     C66695   8.010   4.432   9.876 -1.0000  0.4179 -0.2097
  495MOL0     C66696   7.936   4.353   9.966 -0.1288 -0.1975  0.3539
  495MOL0     C66697   7.967   4.373  10.103  0.0689 -0.4253 -0.3917
  495MOL0     O66698   7.887   4.315  10.195  1.3404 -0.4959 -0.3123
  495MOL0     C66699   7.784   4.406  10.237  0.9928 -0.5404  0.7374
  495MOL0     C66700   7.739   4.369  10.379  0.8947  0.2091 -1.2210
  495MOL0     C66701   7.850   4.342  10.483  0.0038  0.1708  0.0849
  495MOL0     C66702   7.768   4.326  10.614 -0.2941 -0.0309 -0.3488
  495MOL0     C66703   7.835   4.270  10.742 -0.2333  0.3816  1.0795
  495MOL0     C66704   7.923   4.370  10.810  0.0391  0.2038  0.6088
  495MOL0     C66705   7.999   4.277  10.910 -0.2929  0.9365  0.1621
  495MOL0     C66706   8.096   4.373  10.984  0.1472 -0.0448 -0.7576
  495MOL0     N66707   8.046   4.422  11.113 -0.0300 -0.3512  1.0445
  495MOL0     C66708   8.070   4.358  11.235  0.8359  0.1768 -0.9396
  495MOL0     C66709   8.004   4.442  11.323  0.4401  0.0242 -1.0837
  495MOL0     C66710   7.982   4.419  11.468 -0.0880  0.8253 -0.2413
  495MOL0     C66711   7.829   4.424  11.509  0.8351  0.7113  0.8069
  495MOL0     C66712   7.744   4.295  11.479 -0.0785 -0.0511  0.7466
  495MOL0     C66713   7.603   4.328  11.511  0.0417  0.0847 -0.2765
  495MOL0     O66714   7.540   4.442  11.449 -0.2910  0.7651  0.0765
  495MOL0     C66715   7.500   4.402  11.325  0.4846 -0.0774 -0.5121
  495MOL0     C66716   7.385   4.326  11.300 -0.7012 -0.5333 -0.1185
  495MOL0     C66717   7.371   4.269  11.169 -0.1881  0.7952 -0.0188
  495MOL0     C66718   7.249   4.181  11.153  0.3886  0.5517 -0.7541
  495MOL0     C66719   7.458   4.303  11.063 -0.6662  0.1550  0.9752
  495MOL0     C66720   7.422   4.277  10.921  0.6396  0.1683 -0.2716
  495MOL0     O66721   7.291   4.277  10.886 -0.6964  0.4762  0.8631
  495MOL0     C66722   7.255   4.257  10.753  0.6130 -0.7848 -0.8321
  495MOL0     C66723   7.332   4.281  10.642 -1.0438  0.3437  0.1846
  495MOL0     C66724   7.283   4.249  10.516  0.0025  0.5417 -0.5567
  495MOL0     C66725   7.142   4.222  10.496  0.3361 -0.3057  0.1775
  495MOL0     O66726   7.096   4.223  10.368  0.1512  0.3902 -0.3519
  495MOL0     C66727   6.954   4.222  10.343  0.7060 -0.5255  0.0596
  495MOL0     C66728   6.937   4.218  10.185 -0.0929  0.5058 -0.0077
  495MOL0     C66729   6.792   4.212  10.135  0.0002 -0.0315 -0.7581
  495MOL0     C66730   6.728   4.072  10.158  0.0251 -0.0514 -0.0434
  495MOL0     C66731   6.578   4.070  10.109  0.0737 -1.0134 -0.0683
  495MOL0     C66732   6.531   3.922  10.072  0.5995 -0.3044 -0.6451
  495MOL0     C66733   6.397   3.923  10.004  0.9161  1.3823 -0.4152
  495MOL0     C66734   6.311   3.793  10.033  0.3247 -0.0706  0.4853
  495MOL0    Cl66735   6.144   3.821   9.970 -0.1390  0.0364  0.2293
  495MOL0     C66736   7.068   4.226  10.610 -0.0066 -0.4538 -0.4219
  495MOL0     C66737   7.128   4.231  10.740  0.2455  2.0046  0.5686
  495MOL0     O66738   7.515   4.248  10.850  0.1732  0.5066 -0.1175
  495MOL0     C66739   7.571   4.382  11.088  0.3795  0.8716 -0.3311
  495MOL0     C66740   7.599   4.421  11.222 -0.1524 -0.2544 -0.4548
  495MOL0     N66741   7.936   4.541  11.250 -0.4144 -0.2564  0.3114
  495MOL0     N66742   7.951   4.523  11.126  0.9028 -0.4782 -1.0519
  495MOL0     C66743   8.086   4.437  10.141 -0.1220  0.1141 -0.8536
  495MOL0     C66744   8.170   4.497  10.049 -0.4305  0.5167 -0.2530
  495MOL0     C66745   8.300   4.780   9.729 -0.3130 -0.9696 -0.4404
  495MOL0     C66746   8.305   4.921   9.732  1.3532 -0.1274  0.3392
  495MOL0     C66747   8.361   4.991   9.623 -0.8714  1.1327 -0.4011
  495MOL0     C66748   8.411   4.924   9.513  0.6662  0.3625  0.5451
  495MOL0     O66749   8.479   4.976   9.408 -0.3353 -1.3140 -0.3249
  495MOL0     C66750   8.400   5.028   9.301  0.4973  0.5133 -0.2244
  495MOL0     C66751   8.491   5.029   9.178 -0.2434  0.6046  0.7875
  495MOL0     C66752   8.604   5.127   9.186 -0.1330 -0.3897  0.0234
  495MOL0     C66753   8.709   5.095   9.081 -0.0625  0.3321 -0.9557
  495MOL0     C66754   8.834   5.169   9.116  0.5967 -0.4753 -0.2027
  495MOL0     C66755   8.931   5.239   9.134  0.7386 -0.5090  1.0862
  495MOL0     C66756   8.394   4.793   9.513 -0.4022  0.0204  1.3675
  495MOL0     C66757   8.356   4.720   9.623 -0.8141  0.5187  0.2117
  495MOL0     H66758   7.975   4.441   9.774 -0.8677  1.5978 -0.1596
  495MOL0     H66759   7.853   4.295   9.928  1.9557 -1.7468 -2.1653
  495MOL0     H66760   7.808   4.512  10.245  0.6641 -0.5070  1.3477
  495MOL0     H66761   7.700   4.394  10.169 -0.7012 -1.0765  2.8083
  495MOL0     H66762   7.673   4.452  10.406 -0.3587 -1.3948  0.9913
  495MOL0     H66763   7.665   4.289  10.380 -1.5953  2.3582  0.4227
  495MOL0     H66764   7.900   4.252  10.448 -2.3768 -0.5773 -1.6886
  495MOL0     H66765   7.920   4.426  10.482 -0.1421  0.2898 -0.6220
  495MOL0     H66766   7.724   4.423  10.641  2.9553  1.4080  0.2007
  495MOL0     H66767   7.685   4.258  10.593 -0.8487  0.1643  1.0348
  495MOL0     H66768   7.771   4.242  10.826  0.7492  0.9774  2.0672
  495MOL0     H66769   7.889   4.178  10.715  2.7332  1.0686  3.9411
  495MOL0     H66770   7.987   4.423  10.739 -0.4754  0.2012  0.1374
  495MOL0     H66771   7.857   4.442  10.859 -0.5741  0.6986 -0.8923
  495MOL0     H66772   7.919   4.229  10.967  2.0025 -1.7881  1.3312
  495MOL0     H66773   8.063   4.212  10.850  0.6252  1.3848  0.6242
  495MOL0     H66774   8.133   4.464  10.934 -0.0395  1.9094  2.4011
  495MOL0     H66775   8.187   4.318  11.008 -0.3733  0.3984  2.7639
  495MOL0     H66776   8.116   4.261  11.255 -1.3180 -0.7534 -0.1290
  495MOL0     H66777   8.040   4.331  11.499  0.0688  0.9851 -0.0838
  495MOL0     H66778   8.029   4.495  11.530  1.4509 -1.3135  1.3853
  495MOL0     H66779   7.779   4.514  11.474 -0.8627  0.3716  2.2472
  495MOL0     H66780   7.825   4.433  11.618 -0.7355 -2.7069  1.1551
  495MOL0     H66781   7.783   4.206  11.529 -2.0200 -1.2284  0.2605
  495MOL0     H66782   7.752   4.275  11.372 -0.8404 -2.8615  1.1534
  495MOL0     H66783   7.606   4.335  11.620  0.7007 -1.4907 -0.1670
  495MOL0     H66784   7.533   4.243  11.503 -1.1332  0.5517  3.2411
  495MOL0     H66785   7.310   4.316  11.377 -0.0647  0.6008  0.6735
  495MOL0     H66786   7.204   4.158  11.250 -1.3575 -0.7378 -1.8119
  495MOL0     H66787   7.181   4.233  11.086 -1.0932 -2.7696 -2.0265
  495MOL0     H66788   7.285   4.087  11.110 -0.1532 -0.1915  0.3645
  495MOL0     H66789   7.433   4.320  10.649  0.0785 -2.2409 -0.4518
  495MOL0     H66790   7.353   4.236  10.434 -3.0588 -0.4676 -3.2431
  495MOL0     H66791   6.889   4.148  10.389 -1.6821  1.5901  0.3333
  495MOL0     H66792   6.917   4.318  10.382  0.5701 -0.2546 -0.7102
  495MOL0     H66793   6.971   4.309  10.135 -1.7538  0.5572 -1.1061
  495MOL0     H66794   7.006   4.138  10.157  2.9327  1.7047  3.2947
  495MOL0     H66795   6.803   4.223  10.027  3.7743 -2.9533 -0.8591
  495MOL0     H66796   6.728   4.288  10.181 -2.7811 -0.0083 -4.2257
  495MOL0     H66797   6.788   3.993  10.112  1.0088  1.6043 -1.7492
  495MOL0     H66798   6.719   4.047  10.264  1.9469 -2.2959 -0.3380
  495MOL0     H66799   6.569   4.122  10.014 -4.0857 -2.6274 -0.7359
  495MOL0     H66800   6.520   4.122  10.186  1.4771 -0.1622  0.4584
  495MOL0     H66801   6.605   3.882  10.003  3.2422  1.5618  0.9011
  495MOL0     H66802   6.527   3.856  10.159 -2.0037  0.3906 -0.1481
  495MOL0     H66803   6.424   3.934   9.899 -1.1671  3.9032 -0.7898
  495MOL0     H66804   6.344   4.017  10.021  0.0019  0.5440  1.7981
  495MOL0     H66805   6.312   3.778  10.142 -0.6296  0.2502  0.5500
  495MOL0     H66806   6.354   3.704   9.987 -3.2356 -1.9705  0.5543
  495MOL0     H66807   6.959   4.217  10.615  0.1372 -2.1670  0.4784
  495MOL0     H66808   7.067   4.232  10.830  1.0008 -1.5420  1.2609
  495MOL0     H66809   7.646   4.396  11.010  2.6637  0.6425  1.7076
  495MOL0     H66810   7.685   4.481  11.248 -0.0917  0.0654 -1.3666
  495MOL0     H66811   8.127   4.435  10.242  0.9178 -0.8096 -1.2717
  495MOL0     H66812   8.262   4.547  10.078 -0.6334  1.0992 -0.5924
  495MOL0     H66813   8.272   4.983   9.814 -0.0504  1.6014 -1.4341
  495MOL0     H66814   8.374   5.099   9.627  1.7019  0.8516  0.5393
  495MOL0     H66815   8.304   4.976   9.304 -0.1207  1.6159  2.1389
  495MOL0     H66816   8.376   5.132   9.327 -1.1981  0.2282 -0.5119
  495MOL0     H66817   8.437   5.068   9.091  2.6992 -0.0204 -1.4618
  495MOL0     H66818   8.522   4.926   9.160 -2.0750  0.1592 -0.1037
  495MOL0     H66819   8.647   5.123   9.286  1.5391 -3.7415 -0.6721
  495MOL0     H66820   8.570   5.229   9.163 -0.4120 -0.0973  1.6592
  495MOL0     H66821   8.678   5.139   8.986  3.5802  3.8680 -0.7128
  495MOL0     H66822   8.722   4.987   9.066 -1.0676 -0.3623  2.3190
  495MOL0     H66823   9.013   5.308   9.139  1.5388 -1.0735 -1.8757
  495MOL0     H66824   8.424   4.725   9.433 -0.7416 -1.5460  2.5252
  495MOL0     H66825   8.369   4.613   9.636  2.7670  0.9085  0.9143
  496MOL0     O66826   2.001   4.397  11.502  0.5111 -0.3761 -0.4658
  496MOL0     C66827   2.005   4.510  11.457  0.1815  0.2629  0.2232
  496MOL0     O66828   1.935   4.614  11.492  0.4263 -0.4410  0.0523
  496MOL0     C66829   1.847   4.591  11.596 -0.5939  0.4100  0.3089
  496MOL0     C66830   1.871   4.633  11.726  0.5471  0.3209 -1.1499
  496MOL0     C66831   1.772   4.622  11.822 -0.4156  0.0494  0.8753
  496MOL0     C66832   1.645   4.577  11.795 -0.6754 -0.1855 -0.3144
  496MOL0     O66833   1.529   4.575  11.870 -0.4778  0.8243  0.6140
  496MOL0     C66834   1.513   4.694  11.950  0.2814  1.1912  0.5325
  496MOL0     C66835   1.380   4.701  12.015  0.5531 -0.4394 -0.4745
  496MOL0     C66836   1.363   4.595  12.122  0.1476  0.0534  0.1951
  496MOL0     C66837   1.219   4.559  12.157  0.6081 -0.4474  0.1867
  496MOL0     C66838   1.202   4.474  12.278 -0.7340  0.5845  0.7213
  496MOL0     C66839   1.054   4.458  12.306  1.7573  0.3433  0.3706
  496MOL0     C66840   1.036   4.408  12.448 -0.0550 -0.3336 -0.2669
  496MOL0     C66841   0.896   4.398  12.485  0.2819  0.8095  0.5660
  496MOL0     N66842   0.879   4.327  12.614  0.5407 -0.3586  0.8056
  496MOL0     C66843   0.829   4.200  12.642 -0.0144  0.2026 -0.0667
  496MOL0     C66844   0.849   4.193  12.776  0.8897  0.8716 -0.4030
  496MOL0     C66845   0.796   4.078  12.859  0.1705  0.2942 -0.1047
  496MOL0     C66846   0.721   4.132  12.980  0.6497 -0.0097  0.1013
  496MOL0     C66847   0.600   4.054  13.025 -0.7328 -0.6721 -0.6648
  496MOL0     C66848   0.626   3.917  13.068 -0.9825  0.6078  0.0958
  496MOL0     O66849   0.651   3.835  12.949  0.5054 -0.0863  0.3247
  496MOL0     C66850   0.694   3.704  12.964  0.0574 -0.4329  0.4972
  496MOL0     C66851   0.702   3.623  12.851 -0.2372 -0.3624 -0.0761
  496MOL0     C66852   0.743   3.496  12.846 -1.3112 -0.2960  0.3922
  496MOL0     C66853   0.741   3.424  12.714  0.0969  0.0308  0.0241
  496MOL0     C66854   0.774   3.428  12.972  0.0467  0.5121  0.2622
  496MOL0     C66855   0.805   3.285  12.982 -0.1533 -0.1076  0.7423
  496MOL0     O66856   0.786   3.228  13.100 -0.1603  0.0039  0.2592
  496MOL0     C66857   0.746   3.100  13.113  0.7506 -0.4799  0.4611
  496MOL0     C66858   0.726   3.055  13.242 -0.2854  0.2520 -1.0385
  496MOL0     C66859   0.667   2.926  13.274  0.4311 -0.1325  0.3835
  496MOL0     C66860   0.625   2.842  13.170 -0.0770 -0.3927  0.0980
  496MOL0     O66861   0.548   2.731  13.174  0.3116  0.0672  0.1342
  496MOL0     C66862   0.478   2.700  13.294  0.2306 -0.5531  0.4424
  496MOL0     C66863   0.423   2.557  13.283  0.1333  0.6933 -0.4555
  496MOL0     C66864   0.426   2.480  13.147  0.3121  0.0440 -0.3981
  496MOL0     C66865   0.556   2.387  13.147  0.0140  0.0648 -0.3789
  496MOL0     C66866   0.572   2.304  13.019  0.7756  0.9190  0.5512
  496MOL0     C66867   0.458   2.194  13.009  0.1427 -0.0448  0.2276
  496MOL0     C66868   0.498   2.100  12.906 -0.1106  0.1819  0.0233
  496MOL0     C66869   0.403   1.987  12.884 -1.3885  0.7701 -0.1165
  496MOL0    Cl66870   0.463   1.848  12.986  0.2285 -0.2197 -0.1575
  496MOL0     C66871   0.656   2.882  13.045  0.0514 -0.0845 -0.4041
  496MOL0     C66872   0.723   3.001  13.017 -0.3928 -0.8763 -0.6308
  496MOL0     O66873   0.871   3.234  12.891 -0.4792  0.1425 -0.7708
  496MOL0     C66874   0.773   3.510  13.089  0.2045  0.7054  0.0201
  496MOL0     C66875   0.732   3.645  13.081  0.8832 -0.0153 -0.6021
  496MOL0     N66876   0.910   4.306  12.825 -0.0130  0.6033  0.1137
  496MOL0     N66877   0.923   4.391  12.726  0.7950  0.7179 -0.6058
  496MOL0     C66878   1.617   4.527  11.664 -0.6658  0.4786 -0.2132
  496MOL0     C66879   1.715   4.545  11.559  0.3026 -0.6163 -0.0366
  496MOL0     C66880   2.102   4.527  11.350 -0.1234 -0.5357 -0.7753
  496MOL0     C66881   2.206   4.429  11.334 -0.7169  0.0039 -0.5419
  496MOL0     C66882   2.298   4.442  11.223 -0.3986  0.4461 -0.7277
  496MOL0     C66883   2.291   4.568  11.155 -0.8516  1.0863 -0.5803
  496MOL0     O66884   2.378   4.607  11.064 -0.1235  0.0178  0.1571
  496MOL0     C66885   2.517   4.589  11.096  0.9254  0.4200 -0.3717
  496MOL0     C66886   2.603   4.692  11.018  0.4377  0.6693  0.4013
  496MOL0     C66887   2.571   4.840  11.046  0.3266 -0.0380  0.3366
  496MOL0     C66888   2.601   4.881  11.194 -0.4540 -0.7958  0.3520
  496MOL0     C66889   2.739   4.941  11.216  0.0865 -0.8103  0.0845
  496MOL0     C66890   2.850   4.986  11.234  0.3306  0.6392 -0.1308
  496MOL0     C66891   2.199   4.662  11.191  0.8346 -0.1813  0.4894
  496MOL0     C66892   2.096   4.639  11.282  0.1362  0.5346  0.0149
  496MOL0     H66893   1.960   4.690  11.750  0.1630  0.9678 -1.2272
  496MOL0     H66894   1.796   4.658  11.922 -2.7556 -2.8697  2.6505
  496MOL0     H66895   1.583   4.682  12.033  1.5270 -0.4380 -0.6867
  496MOL0     H66896   1.547   4.772  11.882  1.8725 -2.5264 -3.3847
  496MOL0     H66897   1.366   4.804  12.051 -1.9369 -0.4479 -1.2600
  496MOL0     H66898   1.300   4.684  11.943 -2.3088 -1.4293  2.6898
  496MOL0     H66899   1.418   4.508  12.085  1.7918  1.2994 -0.4521
  496MOL0     H66900   1.410   4.617  12.218 -2.8384  1.6050  1.4261
  496MOL0     H66901   1.170   4.655  12.178 -2.5968 -1.4802 -1.8533
  496MOL0     H66902   1.170   4.509  12.072  0.0776 -0.1646  0.3235
  496MOL0     H66903   1.247   4.378  12.253  0.5822  1.8170 -2.0273
  496MOL0     H66904   1.257   4.515  12.363  0.6579 -1.7956  1.0545
  496MOL0     H66905   0.997   4.550  12.293  2.7113  0.6109 -2.8631
  496MOL0     H66906   1.001   4.385  12.245 -0.2932 -1.5823  4.0837
  496MOL0     H66907   1.085   4.311  12.464 -4.1745 -2.2190  2.6650
  496MOL0     H66908   1.075   4.485  12.515 -3.3442  0.8780  0.3921
  496MOL0     H66909   0.832   4.350  12.410  0.1316  1.1470  0.4756
  496MOL0     H66910   0.857   4.500  12.488  0.2575  0.8766 -1.1238
  496MOL0     H66911   0.767   4.129  12.589 -2.3805  2.7950 -1.0442
  496MOL0     H66912   0.727   4.018  12.799  0.2945  0.3707 -0.3265
  496MOL0     H66913   0.884   4.021  12.888 -0.5671 -2.9771 -3.5330
  496MOL0     H66914   0.674   4.230  12.964 -2.0330 -1.5439 -2.6045
  496MOL0     H66915   0.795   4.136  13.060  2.2620  1.4325 -1.3667
  496MOL0     H66916   0.528   4.051  12.942 -1.4510 -2.1290 -0.0315
  496MOL0     H66917   0.556   4.113  13.107  3.6980  2.8151 -0.4404
  496MOL0     H66918   0.526   3.889  13.102 -0.3076  0.3221  1.9115
  496MOL0     H66919   0.708   3.895  13.137  1.0998 -0.2057 -2.4668
  496MOL0     H66920   0.671   3.663  12.755  0.6945 -2.3875 -1.2869
  496MOL0     H66921   0.682   3.336  12.740 -2.9070  2.0547  0.5930
  496MOL0     H66922   0.695   3.475  12.629  2.6982  1.2373 -0.7705
  496MOL0     H66923   0.842   3.396  12.681 -0.1407  2.6973 -3.6790
  496MOL0     H66924   0.766   3.119  13.321  1.8994  0.6245 -2.3590
  496MOL0     H66925   0.644   2.893  13.375  0.8493  0.5429  0.7058
  496MOL0     H66926   0.554   2.701  13.372  1.8951  1.2767 -1.1040
  496MOL0     H66927   0.395   2.768  13.314 -1.8067 -2.9915  0.8485
  496MOL0     H66928   0.477   2.499  13.359 -0.8580 -0.9087 -0.9206
  496MOL0     H66929   0.325   2.558  13.330  1.5156 -0.5873  2.7822
  496MOL0     H66930   0.422   2.546  13.061  1.7443  0.1976 -0.3736
  496MOL0     H66931   0.342   2.410  13.138  2.0808 -1.9496 -3.0608
  496MOL0     H66932   0.643   2.452  13.160  0.3813 -0.6367  0.8138
  496MOL0     H66933   0.565   2.318  13.231  2.9248 -0.7156 -1.2417
  496MOL0     H66934   0.672   2.260  13.008  0.1124 -0.1530 -1.8759
  496MOL0     H66935   0.566   2.361  12.926  0.5184 -1.0143 -0.6827
  496MOL0     H66936   0.446   2.150  13.109  0.2233 -1.2562 -0.2742
  496MOL0     H66937   0.360   2.239  12.990 -1.1975 -2.9107 -0.1876
  496MOL0     H66938   0.595   2.066  12.945 -1.1227  1.9831  4.7877
  496MOL0     H66939   0.515   2.149  12.810  3.3724  1.6060  1.1954
  496MOL0     H66940   0.416   1.947  12.783  0.9386 -1.3883  0.9329
  496MOL0     H66941   0.300   2.024  12.893 -1.1005  1.8213 -0.8047
  496MOL0     H66942   0.638   2.818  12.959  2.8513  0.1702 -1.2722
  496MOL0     H66943   0.748   3.028  12.915 -0.3698  1.0646 -0.1556
  496MOL0     H66944   0.794   3.471  13.189  0.2261  0.6498 -0.0059
  496MOL0     H66945   0.733   3.696  13.177  3.5998 -0.0794 -0.5242
  496MOL0     H66946   1.518   4.487  11.647  0.1730 -1.8568  0.0745
  496MOL0     H66947   1.692   4.524  11.455 -1.3370  3.0775 -0.6144
  496MOL0     H66948   2.210   4.341  11.398  1.4708  0.5729  0.1937
  496MOL0     H66949   2.374   4.365  11.210 -0.0169  0.9782 -1.8660
  496MOL0     H66950   2.540   4.591  11.203 -0.6171  0.8301 -0.0155
  496MOL0     H66951   2.549   4.497  11.047 -1.8995 -0.6092 -0.5090
  496MOL0     H66952   2.568   4.678  10.915 -0.6524 -0.1010  0.8588
  496MOL0     H66953   2.711   4.675  11.020  0.1306 -1.4486  1.7138
  496MOL0     H66954   2.464   4.848  11.025  0.7822  1.3669 -1.6948
  496MOL0     H66955   2.620   4.909  10.977 -1.4546  1.1987  0.2322
  496MOL0     H66956   2.582   4.808  11.273  0.9096 -0.4036  1.0849
  496MOL0     H66957   2.539   4.967  11.220 -1.3624 -0.4750 -2.5646
  496MOL0     H66958   2.945   5.018  11.271  0.3665  0.1464  0.2177
  496MOL0     H66959   2.192   4.759  11.141  0.1522  1.3214  3.3021
  496MOL0     H66960   2.021   4.716  11.297  0.8739  1.8162 -2.3849
  497MOL0     O66961   0.734   4.710   9.992  0.3900  0.2660  0.3338
  497MOL0     C66962   0.615   4.737   9.990 -0.1484  0.3449  0.9924
  497MOL0     O66963   0.523   4.705  10.081  0.2089  1.2409  0.3067
  497MOL0     C66964   0.555   4.659  10.203 -0.2277 -0.1291  0.9894
  497MOL0     C66965   0.453   4.605  10.281  0.5296  0.3417 -0.3178
  497MOL0     C66966   0.471   4.572  10.415 -0.0907  0.0374  0.2932
  497MOL0     C66967   0.598   4.588  10.472  0.0275  0.1618 -0.8457
  497MOL0     O66968   0.623   4.555  10.603 -0.2116  0.2343  0.3092
  497MOL0     C66969   0.516   4.507  10.693 -0.2621 -0.0244  0.0359
  497MOL0     C66970   0.571   4.476  10.832 -0.3200  0.1870 -0.4028
  497MOL0     C66971   0.677   4.359  10.826 -0.2376 -1.2814 -0.1404
  497MOL0     C66972   0.768   4.343  10.946 -0.8846  0.7019 -0.4395
  497MOL0     C66973   0.887   4.256  10.930 -0.3573 -0.6100 -0.1105
  497MOL0     C66974   1.003   4.321  10.846 -1.1829 -0.1922  0.1117
  497MOL0     C66975   1.113   4.229  10.800  0.0516 -0.1956 -0.0256
  497MOL0     C66976   1.210   4.288  10.700  0.4697 -0.1864  0.4159
  497MOL0     N66977   1.150   4.332  10.579 -1.2809 -0.4053  0.7661
  497MOL0     C66978   1.130   4.243  10.476  0.1351  0.2099  0.8100
  497MOL0     C66979   1.077   4.327  10.375  0.7245  0.2648  0.3045
  497MOL0     C66980   1.002   4.281  10.255  0.5439  0.3114  1.8889
  497MOL0     C66981   0.844   4.270  10.295 -0.0307  0.0130  0.0698
  497MOL0     C66982   0.748   4.277  10.176 -0.5281 -0.2274  0.4538
  497MOL0     C66983   0.771   4.165  10.081 -1.6138 -0.4458 -0.0042
  497MOL0     O66984   0.677   4.169   9.969 -0.4523  0.6923  0.3327
  497MOL0     C66985   0.707   4.106   9.851 -1.2804 -0.9392  0.6898
  497MOL0     C66986   0.802   4.005   9.840 -0.0513 -0.2560  0.0503
  497MOL0     C66987   0.838   3.953   9.713  0.0392  0.2460 -0.6282
  497MOL0     C66988   0.949   3.853   9.715 -0.0780 -0.4415  0.3123
  497MOL0     C66989   0.770   3.992   9.598  0.2329  0.3500  0.9147
  497MOL0     C66990   0.797   3.931   9.467  0.2508  0.6857  0.5288
  497MOL0     O66991   0.923   3.943   9.433  0.2414  0.2303  0.2005
  497MOL0     C66992   0.964   3.882   9.315  0.1768 -0.4575  0.1637
  497MOL0     C66993   1.040   3.951   9.225 -0.8704  0.6465 -1.7191
  497MOL0     C66994   1.079   3.906   9.105 -0.5914 -0.3661  0.5851
  497MOL0     C66995   1.054   3.776   9.071  0.1576  0.4079  0.0014
  497MOL0     O66996   1.107   3.741   8.947 -0.4123  0.4845  0.5653
  497MOL0     C66997   1.083   3.603   8.900  0.4562 -0.7554  0.2208
  497MOL0     C66998   1.208   3.518   8.917  0.0548  1.3825 -0.5066
  497MOL0     C66999   1.179   3.369   8.901 -0.1147 -0.1644 -0.0962
  497MOL0     C67000   1.305   3.275   8.897  0.2002 -0.6033  0.3897
  497MOL0     C67001   1.265   3.128   8.860  0.2122  0.3266 -0.0042
  497MOL0     C67002   1.272   3.103   8.708 -0.1864  0.7002 -0.2378
  497MOL0     C67003   1.230   2.959   8.672 -0.1935 -0.9185  0.5613
  497MOL0     C67004   1.316   2.859   8.747  0.1460  0.5320  0.0732
  497MOL0    Cl67005   1.319   2.699   8.662 -0.2147 -0.2076 -0.1624
  497MOL0     C67006   0.978   3.693   9.162 -0.0123 -0.7792  0.1051
  497MOL0     C67007   0.943   3.758   9.282  1.1122 -0.0114 -0.1108
  497MOL0     O67008   0.702   3.870   9.412 -0.0434 -0.3225 -0.1484
  497MOL0     C67009   0.667   4.090   9.612  0.3943  0.0328  0.6100
  497MOL0     C67010   0.639   4.140   9.736  0.0457  0.6715  0.9055
  497MOL0     N67011   1.087   4.458  10.420  0.5453  0.0003 -1.2304
  497MOL0     N67012   1.128   4.457  10.543  0.3103 -1.2341 -0.3657
  497MOL0     C67013   0.702   4.629  10.394  0.5491 -0.6615 -1.1817
  497MOL0     C67014   0.681   4.668  10.264  0.0299  0.6207 -0.2717
  497MOL0     C67015   0.559   4.807   9.868 -0.1967  0.1753 -0.3429
  497MOL0     C67016   0.647   4.873   9.777 -0.5506 -0.4789  0.1596
  497MOL0     C67017   0.601   4.916   9.654  0.0784  0.9927  0.1604
  497MOL0     C67018   0.461   4.905   9.623  0.9555 -0.5403 -0.5599
  497MOL0     O67019   0.419   4.952   9.496  0.4407 -1.4864 -0.4330
  497MOL0     C67020   0.316   4.874   9.435  0.3374  0.3647  0.0976
  497MOL0     C67021   0.262   4.950   9.323 -0.0776  0.7777  0.0747
  497MOL0     C67022   0.186   5.078   9.349  0.6072 -0.4624 -0.4960
  497MOL0     C67023   0.144   5.152   9.227  0.5017 -0.7528  0.6466
  497MOL0     C67024   0.126   5.289   9.253 -0.2299 -0.0598  1.0557
  497MOL0     C67025   0.105   5.408   9.277 -0.1845  0.2264  0.8273
  497MOL0     C67026   0.366   4.860   9.720  0.7458 -0.2946 -0.4639
  497MOL0     C67027   0.430   4.809   9.839  0.2205  0.0363  0.3829
  497MOL0     H67028   0.352   4.623  10.247  0.5338  1.0664  0.0300
  497MOL0     H67029   0.384   4.523  10.459 -0.7725 -2.3200 -3.2221
  497MOL0     H67030   0.453   4.595  10.712  1.4673  1.7076 -1.7316
  497MOL0     H67031   0.453   4.426  10.654 -3.9562  2.6142 -0.0148
  497MOL0     H67032   0.625   4.562  10.873 -0.7792 -1.3042  3.8007
  497MOL0     H67033   0.483   4.447  10.891  0.0573 -1.9577 -0.8392
  497MOL0     H67034   0.620   4.265  10.822 -2.3275 -0.0522 -2.0195
  497MOL0     H67035   0.741   4.377  10.739  1.4929  2.9444  1.7137
  497MOL0     H67036   0.804   4.436  10.990  2.2204  0.4333 -2.1176
  497MOL0     H67037   0.703   4.307  11.026 -4.1917  1.6171 -2.5231
  497MOL0     H67038   0.927   4.232  11.029 -1.8051 -2.6236  0.0482
  497MOL0     H67039   0.866   4.159  10.885  1.1193 -0.1849 -1.7928
  497MOL0     H67040   0.953   4.367  10.760  2.1029  1.0573 -1.3009
  497MOL0     H67041   1.051   4.402  10.901 -2.4157 -0.1697  1.2043
  497MOL0     H67042   1.159   4.199  10.895  0.7400  1.0721  0.0712
  497MOL0     H67043   1.055   4.151  10.750 -1.9488  3.8538 -4.8236
  497MOL0     H67044   1.274   4.204  10.671  2.7536  1.9715 -1.2454
  497MOL0     H67045   1.263   4.371  10.749 -1.3074  1.8568 -0.9569
  497MOL0     H67046   1.144   4.137  10.491  1.9274  0.4328  0.9964
  497MOL0     H67047   1.012   4.359  10.179 -1.1226  0.4730  1.8054
  497MOL0     H67048   1.038   4.192  10.204 -1.1402  0.8488 -0.3792
  497MOL0     H67049   0.808   4.340  10.370  1.6184 -0.6235  1.5434
  497MOL0     H67050   0.828   4.175  10.348  3.9027  1.2400  4.2129
  497MOL0     H67051   0.744   4.374  10.125  0.4105 -0.7338 -0.6301
  497MOL0     H67052   0.648   4.271  10.220 -1.7840 -1.9335 -2.3277
  497MOL0     H67053   0.769   4.074  10.141  0.3603 -1.3468 -1.2255
  497MOL0     H67054   0.870   4.180  10.038 -2.0095 -0.2985 -0.8841
  497MOL0     H67055   0.841   3.973   9.937 -2.0668  3.0251  2.1684
  497MOL0     H67056   0.938   3.767   9.648 -0.4075 -2.1741  2.4972
  497MOL0     H67057   1.048   3.899   9.714 -0.8370  1.2998  1.2633
  497MOL0     H67058   0.946   3.799   9.810 -2.7550  1.4081  1.3729
  497MOL0     H67059   1.049   4.053   9.262 -3.3951 -0.8059  4.0326
  497MOL0     H67060   1.120   3.977   9.034 -2.1503  3.4026  3.1159
  497MOL0     H67061   0.990   3.577   8.952  0.9651  0.1839  1.6611
  497MOL0     H67062   1.064   3.601   8.792  0.8535  2.2096  0.0214
  497MOL0     H67063   1.284   3.540   8.842  2.1432  1.1020  1.4178
  497MOL0     H67064   1.251   3.552   9.012 -0.7783 -1.6999  1.1059
  497MOL0     H67065   1.125   3.359   8.806  0.2387 -0.1097 -0.3080
  497MOL0     H67066   1.112   3.334   8.979 -0.0423  0.9473  0.4780
  497MOL0     H67067   1.376   3.308   8.820 -1.9247  1.2260 -0.9143
  497MOL0     H67068   1.350   3.263   8.996  1.3257 -2.2608 -0.2812
  497MOL0     H67069   1.160   3.114   8.889  0.6258 -0.0157  1.4219
  497MOL0     H67070   1.325   3.056   8.917 -0.2723  0.9332  1.3211
  497MOL0     H67071   1.206   3.174   8.659  0.2109  2.0039  1.0306
  497MOL0     H67072   1.373   3.111   8.667 -0.8581 -0.0261 -2.1570
  497MOL0     H67073   1.252   2.941   8.566  2.5107 -0.3853  0.9414
  497MOL0     H67074   1.129   2.938   8.707 -0.5244 -1.4989 -0.6748
  497MOL0     H67075   1.290   2.847   8.852  0.2121  5.5311  0.9478
  497MOL0     H67076   1.420   2.893   8.740  0.6612 -0.8270  0.7491
  497MOL0     H67077   0.962   3.588   9.138 -0.5099 -0.6325 -0.2122
  497MOL0     H67078   0.886   3.698   9.352  0.0609 -1.0700 -1.8164
  497MOL0     H67079   0.594   4.109   9.534 -1.0332  0.5133  1.9861
  497MOL0     H67080   0.552   4.203   9.753  0.7115  1.5093  1.3575
  497MOL0     H67081   0.800   4.621  10.439  0.7234  0.4163 -1.3447
  497MOL0     H67082   0.774   4.695  10.215  0.0546 -0.8353 -1.1007
  497MOL0     H67083   0.753   4.867   9.797 -0.9850 -0.9296  2.6391
  497MOL0     H67084   0.659   4.955   9.570  1.4536  1.5292  1.3126
  497MOL0     H67085   0.360   4.783   9.393 -2.1103 -0.8108 -0.1466
  497MOL0     H67086   0.235   4.838   9.500 -1.1355 -1.3621 -2.5068
  497MOL0     H67087   0.197   4.889   9.260 -2.0728  1.8206  1.0175
  497MOL0     H67088   0.345   4.968   9.255 -1.2129 -1.0375 -1.9294
  497MOL0     H67089   0.250   5.143   9.409 -1.7703  1.5428 -0.0103
  497MOL0     H67090   0.093   5.063   9.404  0.4282  0.9357 -0.3849
  497MOL0     H67091   0.046   5.116   9.197  0.5864  0.5155 -1.2821
  497MOL0     H67092   0.214   5.133   9.145 -1.9010 -0.5586 -1.5523
  497MOL0     H67093   0.072   5.510   9.279  0.5859  1.4294 -7.7918
  497MOL0     H67094   0.259   4.846   9.714  0.5679 -0.7008  2.3328
  497MOL0     H67095   0.366   4.764   9.914  0.6326  0.1444  0.8048
  498MOL0     O67096   7.273  10.823  10.123  0.2174 -0.5702  0.2429
  498MOL0     C67097   7.350  10.731  10.155  0.2826 -0.7363  0.6433
  498MOL0     O67098   7.451  10.671  10.069  0.4294  0.3222 -0.3661
  498MOL0     C67099   7.495  10.758   9.970 -0.9661  0.6461  0.8178
  498MOL0     C67100   7.622  10.822   9.971  0.3600  0.4327 -0.2403
  498MOL0     C67101   7.666  10.889   9.861  0.1990  0.7906 -1.0852
  498MOL0     C67102   7.593  10.892   9.742 -0.5329 -1.0417 -0.2722
  498MOL0     O67103   7.635  10.961   9.629  0.1828  0.5875 -0.2245
  498MOL0     C67104   7.766  11.026   9.633  0.4976 -0.1430  0.6380
  498MOL0     C67105   7.814  11.070   9.490 -0.0487 -0.1715  0.9690
  498MOL0     C67106   7.719  11.167   9.414 -0.5105  0.5504 -0.8305
  498MOL0     C67107   7.761  11.189   9.262  0.3436 -0.2521  0.0400
  498MOL0     C67108   7.686  11.316   9.218  0.3053  0.0234 -0.0057
  498MOL0     C67109   7.548  11.286   9.158  0.8350  0.0630 -0.7398
  498MOL0     C67110   7.545  11.197   9.028 -0.2367 -0.6710  0.0822
  498MOL0     C67111   7.603  11.276   8.903  0.1097 -0.6227  0.5722
  498MOL0     N67112   7.599  11.197   8.785  0.3245 -0.3981  0.8686
  498MOL0     C67113   7.496  11.192   8.689  0.1052  0.3339  0.3614
  498MOL0     C67114   7.536  11.101   8.594 -0.8003  0.0670 -0.2396
  498MOL0     C67115   7.466  11.041   8.476 -0.6509  0.3513  0.7524
  498MOL0     C67116   7.396  10.911   8.522  0.0545 -0.6444 -0.1369
  498MOL0     C67117   7.325  10.833   8.403  0.2318 -0.1501 -0.8319
  498MOL0     C67118   7.219  10.735   8.438 -0.6635 -0.8117  0.2305
  498MOL0     O67119   7.213  10.625   8.355  0.8403 -0.7479 -0.9811
  498MOL0     C67120   7.286  10.507   8.390  0.1623 -0.7742 -0.3440
  498MOL0     C67121   7.231  10.393   8.351 -0.6803 -0.0795  0.1122
  498MOL0     C67122   7.294  10.275   8.375 -0.0025 -0.3155  0.3426
  498MOL0     C67123   7.227  10.161   8.316 -0.0087 -1.0584  0.1824
  498MOL0     C67124   7.412  10.267   8.449 -0.5752  0.3261  1.3159
  498MOL0     C67125   7.490  10.144   8.482 -0.8437 -0.4247  0.0461
  498MOL0     O67126   7.503  10.041   8.393 -0.5430  0.1069  0.0849
  498MOL0     C67127   7.543   9.911   8.433  0.2269  0.2547 -0.0062
  498MOL0     C67128   7.469   9.802   8.384  0.1801  0.8765  0.3664
  498MOL0     C67129   7.495   9.669   8.411  0.5545 -0.2376  0.2344
  498MOL0     C67130   7.605   9.646   8.496  0.4239  0.9014  0.1999
  498MOL0     O67131   7.621   9.509   8.513  0.8116 -0.5480 -0.2876
  498MOL0     C67132   7.731   9.459   8.601  0.2163 -0.9051  0.7692
  498MOL0     C67133   7.753   9.313   8.614  0.2710 -0.5836 -0.5890
  498MOL0     C67134   7.748   9.241   8.477  1.2588  0.3149 -0.3536
  498MOL0     C67135   7.859   9.267   8.394 -0.5198 -0.1009 -0.6183
  498MOL0     C67136   7.840   9.197   8.257  0.0433 -0.0099 -0.0371
  498MOL0     C67137   7.975   9.160   8.197 -0.1853 -0.0828  0.1898
  498MOL0     C67138   8.007   9.022   8.240 -0.4787  0.8110 -0.0810
  498MOL0     C67139   8.159   8.996   8.241 -0.1104 -0.1129 -0.0816
  498MOL0    Cl67140   8.242   8.958   8.075  0.1957  0.6278  0.6031
  498MOL0     C67141   7.672   9.753   8.561  0.3932  0.0835 -0.5518
  498MOL0     C67142   7.644   9.886   8.529 -0.1083 -0.4440 -0.5398
  498MOL0     O67143   7.539  10.134   8.593 -0.3140  0.0540  0.7458
  498MOL0     C67144   7.461  10.391   8.492  0.1147  0.2329  0.2401
  498MOL0     C67145   7.401  10.507   8.472 -0.0998 -0.9426  1.1389
  498MOL0     N67146   7.654  11.050   8.643 -0.7104  0.1659 -0.9665
  498MOL0     N67147   7.696  11.107   8.750  0.8486 -0.3150  0.0006
  498MOL0     C67148   7.470  10.829   9.739  0.8556  0.8608 -0.4116
  498MOL0     C67149   7.417  10.760   9.848 -0.2890 -0.0246  0.2492
  498MOL0     C67150   7.343  10.682  10.292 -0.6229  0.4822 -0.5806
  498MOL0     C67151   7.222  10.693  10.351 -0.4535  0.0316 -0.2222
  498MOL0     C67152   7.225  10.634  10.479  0.5002 -0.4606 -0.4648
  498MOL0     C67153   7.327  10.581  10.555 -0.1290  0.0556  0.9865
  498MOL0     O67154   7.285  10.530  10.673  0.3833  0.6704 -0.1062
  498MOL0     C67155   7.394  10.519  10.769  0.1729 -0.1205 -0.0576
  498MOL0     C67156   7.339  10.460  10.894  0.8558  0.6187  0.2715
  498MOL0     C67157   7.314  10.312  10.874  0.6600  0.6079  0.0295
  498MOL0     C67158   7.298  10.236  11.000 -0.2889 -0.3717  0.3964
  498MOL0     C67159   7.287  10.094  10.980  0.8746 -0.4254  0.0374
  498MOL0     C67160   7.298   9.973  10.984  0.8559 -0.3589 -0.9068
  498MOL0     C67161   7.449  10.560  10.484 -0.0855 -0.4954  0.3871
  498MOL0     C67162   7.458  10.625  10.362  0.8384  0.0212  0.1902
  498MOL0     H67163   7.686  10.827  10.058  0.9451 -0.8100 -0.5693
  498MOL0     H67164   7.760  10.938   9.885 -0.1149  0.6536  0.5503
  498MOL0     H67165   7.750  11.105   9.708 -0.6322  1.1410 -0.8914
  498MOL0     H67166   7.841  10.953   9.664 -0.4728 -2.0317 -1.2123
  498MOL0     H67167   7.916  11.107   9.503 -0.5320  1.2251  1.0652
  498MOL0     H67168   7.819  10.979   9.431  0.0796  0.1671  0.4452
  498MOL0     H67169   7.624  11.114   9.407  0.5303 -1.4271 -0.7686
  498MOL0     H67170   7.712  11.261   9.468 -1.4153  0.7599 -1.2930
  498MOL0     H67171   7.869  11.199   9.276  0.3918 -0.5246 -0.1306
  498MOL0     H67172   7.755  11.101   9.197  0.5180 -0.5313  0.4012
  498MOL0     H67173   7.676  11.388   9.299  2.9950 -1.2889  1.6455
  498MOL0     H67174   7.748  11.365   9.142 -0.4350 -0.8544 -1.2042
  498MOL0     H67175   7.493  11.239   9.239 -0.4407  0.5278 -1.3069
  498MOL0     H67176   7.492  11.376   9.132 -0.2310 -0.5321 -0.5737
  498MOL0     H67177   7.611  11.111   9.041  0.3501 -0.2331  0.0393
  498MOL0     H67178   7.443  11.160   9.014  0.0378 -1.3129 -0.2528
  498MOL0     H67179   7.706  11.304   8.925  0.2128 -0.6208  0.0974
  498MOL0     H67180   7.549  11.369   8.882 -0.6612 -0.3161  3.4125
  498MOL0     H67181   7.400  11.242   8.687 -0.1659 -0.1355  1.1565
  498MOL0     H67182   7.399  11.106   8.418  0.5850  0.4903 -0.5606
  498MOL0     H67183   7.532  11.013   8.393 -0.9252 -2.9642  1.5330
  498MOL0     H67184   7.319  10.939   8.595 -1.1989 -1.8797 -0.9230
  498MOL0     H67185   7.459  10.843   8.581  0.4805  1.0079  1.4106
  498MOL0     H67186   7.410  10.794   8.347  1.1225  0.3528  0.1293
  498MOL0     H67187   7.277  10.903   8.335 -0.2291 -1.0103 -1.4036
  498MOL0     H67188   7.119  10.778   8.448  0.7157  2.6712  0.4215
  498MOL0     H67189   7.238  10.694   8.538 -3.5837  0.1124  1.2616
  498MOL0     H67190   7.138  10.403   8.296 -0.6800  1.9110  0.3853
  498MOL0     H67191   7.275  10.064   8.329  0.6956 -0.6451  0.7712
  498MOL0     H67192   7.122  10.160   8.346 -0.8292 -1.0108 -2.5062
  498MOL0     H67193   7.229  10.172   8.207 -1.8639 -2.2347 -0.0086
  498MOL0     H67194   7.391   9.824   8.311 -0.3866  1.5786  1.1625
  498MOL0     H67195   7.438   9.590   8.364 -0.5767  1.4924 -1.4605
  498MOL0     H67196   7.818   9.509   8.557 -2.2837  1.6700 -1.6544
  498MOL0     H67197   7.716   9.499   8.702 -2.3803 -2.4231  1.0568
  498MOL0     H67198   7.848   9.284   8.660 -1.2579 -2.2168  1.8096
  498MOL0     H67199   7.679   9.270   8.683  2.6745 -0.9769  1.9481
  498MOL0     H67200   7.650   9.271   8.437 -0.6467 -1.8722  2.2748
  498MOL0     H67201   7.735   9.134   8.499 -0.7893  0.3968 -0.8852
  498MOL0     H67202   7.879   9.373   8.379  1.2571 -0.6780 -2.9853
  498MOL0     H67203   7.944   9.214   8.439  2.1304  3.5090 -0.9450
  498MOL0     H67204   7.790   9.259   8.182  1.0548 -0.8235 -1.4447
  498MOL0     H67205   7.784   9.103   8.269  0.0603 -0.3016 -1.9706
  498MOL0     H67206   7.973   9.166   8.088 -1.2705  0.6672  0.2293
  498MOL0     H67207   8.053   9.228   8.232  0.5526 -0.5605 -0.5208
  498MOL0     H67208   7.953   8.955   8.173  1.4366 -2.3298  1.2958
  498MOL0     H67209   7.968   8.992   8.337  1.6007 -4.2781 -0.5433
  498MOL0     H67210   8.183   8.908   8.301 -0.9327  0.7405  1.5688
  498MOL0     H67211   8.209   9.079   8.291 -0.5098 -1.1276  2.1202
  498MOL0     H67212   7.742   9.742   8.643 -1.5993 -3.6499  0.8817
  498MOL0     H67213   7.705   9.963   8.574  1.5854 -1.9548 -0.1213
  498MOL0     H67214   7.544  10.417   8.556 -1.0628  1.6346  1.2616
  498MOL0     H67215   7.457  10.597   8.495  0.9640  0.2428 -4.5719
  498MOL0     H67216   7.412  10.836   9.648 -0.5395 -2.2579  0.0957
  498MOL0     H67217   7.316  10.720   9.843 -1.8033  3.5887 -1.9903
  498MOL0     H67218   7.133  10.739  10.310 -0.7647 -0.3811 -0.0248
  498MOL0     H67219   7.123  10.637  10.517  0.2317  3.1861 -1.0858
  498MOL0     H67220   7.475  10.459  10.726  0.9112  1.4760 -0.9852
  498MOL0     H67221   7.434  10.618  10.792 -1.5698  0.9892 -1.5161
  498MOL0     H67222   7.249  10.518  10.918  0.8902  0.5508  0.5668
  498MOL0     H67223   7.415  10.461  10.972 -1.2516  1.3026  2.4284
  498MOL0     H67224   7.401  10.273  10.820 -0.3476  1.7686 -2.5874
  498MOL0     H67225   7.226  10.303  10.810 -0.9703  1.7275  2.0092
  498MOL0     H67226   7.221  10.285  11.061  2.3076  3.9820  0.5784
  498MOL0     H67227   7.391  10.248  11.055 -0.4598  1.0461  0.4240
  498MOL0     H67228   7.284   9.867  10.985  1.0887 -0.4009 -1.5162
  498MOL0     H67229   7.534  10.501  10.516 -0.4565 -1.9587 -1.1918
  498MOL0     H67230   7.558  10.608  10.323  0.9687 -1.9131  1.2400
  499MOL0     O67231   6.839   5.916   3.014  1.6607  0.6829  0.4656
  499MOL0     C67232   6.879   6.025   3.035  0.1312  0.6093 -0.1272
  499MOL0     O67233   7.019   6.053   3.038 -0.3815 -0.0401 -0.4627
  499MOL0     C67234   7.093   5.948   3.007 -0.7060 -0.1873 -0.2445
  499MOL0     C67235   7.163   5.954   2.885  0.7173 -0.1317 -0.6603
  499MOL0     C67236   7.238   5.837   2.837  0.6634 -0.1384 -0.4769
  499MOL0     C67237   7.224   5.720   2.911 -0.3622 -0.6995 -0.1584
  499MOL0     O67238   7.283   5.602   2.866  0.5941  0.2289  0.0762
  499MOL0     C67239   7.425   5.588   2.857 -0.7941  0.4383 -0.4803
  499MOL0     C67240   7.485   5.596   2.711  1.3170 -1.2915  0.1185
  499MOL0     C67241   7.626   5.557   2.712  0.3313  0.5122  0.8637
  499MOL0     C67242   7.683   5.585   2.565 -0.3562  0.0935  0.0874
  499MOL0     C67243   7.829   5.543   2.547 -0.5534 -0.4218  0.1404
  499MOL0     C67244   7.841   5.398   2.528 -0.5389  0.6016  0.2250
  499MOL0     C67245   7.964   5.349   2.452 -0.8357 -0.0779 -0.9249
  499MOL0     C67246   8.083   5.398   2.530 -0.6578  0.6548 -0.1699
  499MOL0     N67247   8.212   5.365   2.471 -0.1064  0.2471  0.9631
  499MOL0     C67248   8.275   5.243   2.482 -0.5017  0.8195  0.5247
  499MOL0     C67249   8.386   5.254   2.405  0.6381  0.3810 -0.5103
  499MOL0     C67250   8.495   5.157   2.400  0.1043  0.2274  1.0836
  499MOL0     C67251   8.570   5.157   2.530 -0.1142  0.8592 -0.4799
  499MOL0     C67252   8.709   5.083   2.513 -0.9842 -0.1387  0.8507
  499MOL0     C67253   8.797   5.079   2.634  0.0671  0.6213  0.5497
  499MOL0     O67254   8.925   5.145   2.620 -0.0586  0.8043 -0.3359
  499MOL0     C67255   8.945   5.272   2.585  0.3565 -0.4071 -0.8454
  499MOL0     C67256   8.850   5.375   2.620  0.7145 -0.3307  0.5055
  499MOL0     C67257   8.873   5.511   2.606  0.7133  0.2839  0.4460
  499MOL0     C67258   8.767   5.604   2.669  0.5891 -0.0972  0.4585
  499MOL0     C67259   8.997   5.553   2.562 -0.9299 -0.0933  0.5790
  499MOL0     C67260   9.050   5.696   2.566  0.2848 -0.1332  0.7616
  499MOL0     O67261   9.177   5.712   2.590 -0.1692  0.1005 -0.0823
  499MOL0     C67262   9.232   5.839   2.599  0.0718  0.2388 -0.6217
  499MOL0     C67263   9.213   5.920   2.711 -0.1325 -0.1166  0.1485
  499MOL0     C67264   9.280   6.044   2.724 -0.1293 -1.2070  0.9398
  499MOL0     C67265   9.375   6.081   2.622 -0.3661  0.2472 -0.6975
  499MOL0     O67266   9.436   6.196   2.656  0.6255 -0.7738 -0.0167
  499MOL0     C67267   9.509   6.266   2.551  0.6273  0.8744 -0.6635
  499MOL0     C67268   9.418   6.330   2.456 -0.7613  0.0875  0.6509
  499MOL0     C67269   9.491   6.415   2.357 -0.0508 -0.2644 -0.0187
  499MOL0     C67270   9.395   6.490   2.260  0.5239  0.1999 -0.2363
  499MOL0     C67271   9.361   6.396   2.137  0.0246 -0.9016 -0.0121
  499MOL0     C67272   9.254   6.459   2.049  0.4077 -0.1893 -0.5573
  499MOL0     C67273   9.188   6.360   1.952  1.2484  0.6891  0.5523
  499MOL0     C67274   9.274   6.312   1.832  0.7108 -0.0926 -0.0255
  499MOL0    Cl67275   9.328   6.439   1.717  0.3657 -0.0726  0.2344
  499MOL0     C67276   9.395   6.007   2.512  1.1156 -0.4235  0.2932
  499MOL0     C67277   9.319   5.890   2.498  0.2646  0.0723  1.1552
  499MOL0     O67278   8.966   5.780   2.550  0.4957 -0.7590 -0.7936
  499MOL0     C67279   9.085   5.459   2.516 -1.4014  0.2840 -0.6443
  499MOL0     C67280   9.069   5.324   2.538  0.9042 -0.1271  0.1746
  499MOL0     N67281   8.381   5.370   2.328  0.6234  0.3620  0.4084
  499MOL0     N67282   8.280   5.439   2.376  1.4041  0.2183 -0.2425
  499MOL0     C67283   7.155   5.711   3.025  0.6796 -0.1578 -0.2870
  499MOL0     C67284   7.096   5.827   3.077  0.4385 -0.8301 -0.4366
  499MOL0     C67285   6.779   6.131   3.072 -0.0624 -0.0841 -0.3442
  499MOL0     C67286   6.652   6.102   3.103  0.1479  0.1634  0.1294
  499MOL0     C67287   6.558   6.193   3.141 -0.3913  0.1281  0.2238
  499MOL0     C67288   6.588   6.329   3.149 -0.8820  0.8549 -0.2711
  499MOL0     O67289   6.498   6.424   3.182 -0.0435 -0.2120 -0.2514
  499MOL0     C67290   6.380   6.432   3.100 -0.3917 -0.2440 -0.0445
  499MOL0     C67291   6.363   6.572   3.056  0.0809 -0.1940  0.9188
  499MOL0     C67292   6.341   6.669   3.178  0.1158 -0.2764  0.0725
  499MOL0     C67293   6.378   6.810   3.138 -1.0742 -0.2509 -1.0067
  499MOL0     C67294   6.289   6.867   3.039  0.7135 -0.1978  0.5879
  499MOL0     C67295   6.198   6.886   2.963  0.5980 -0.8551  0.3542
  499MOL0     C67296   6.720   6.363   3.136 -0.1606  0.3175  0.1887
  499MOL0     C67297   6.809   6.268   3.089 -0.6172 -0.7000 -0.1920
  499MOL0     H67298   7.171   6.047   2.829 -3.6466  0.9133  0.1157
  499MOL0     H67299   7.303   5.816   2.753  2.6545 -3.8654  1.7321
  499MOL0     H67300   7.491   5.653   2.914 -1.0661  0.3682 -0.0831
  499MOL0     H67301   7.452   5.493   2.905 -0.1256  1.8228  2.0265
  499MOL0     H67302   7.441   5.521   2.644 -0.8706  0.2594 -0.3012
  499MOL0     H67303   7.464   5.691   2.661  3.6338 -0.1575  1.1929
  499MOL0     H67304   7.680   5.625   2.778 -1.1603  0.3079  2.3553
  499MOL0     H67305   7.633   5.454   2.747  2.7837  0.7896  1.3227
  499MOL0     H67306   7.619   5.547   2.485  1.1764 -3.2451  0.2921
  499MOL0     H67307   7.667   5.693   2.556 -1.0768  0.0990  1.2658
  499MOL0     H67308   7.864   5.597   2.459 -1.9226  0.7381  0.2722
  499MOL0     H67309   7.882   5.581   2.635 -0.7317 -0.4434  0.2575
  499MOL0     H67310   7.834   5.340   2.621 -0.2559 -1.9828 -1.2781
  499MOL0     H67311   7.758   5.361   2.467 -0.5733 -0.2990  0.8025
  499MOL0     H67312   7.962   5.240   2.456 -1.2996 -0.0635 -0.6651
  499MOL0     H67313   7.973   5.385   2.349  1.3458  0.0974 -0.7123
  499MOL0     H67314   8.077   5.350   2.628 -0.8825  3.2850  1.1912
  499MOL0     H67315   8.077   5.507   2.526 -0.2360  0.7177  0.7235
  499MOL0     H67316   8.246   5.157   2.540 -0.9752  0.4457 -0.2518
  499MOL0     H67317   8.468   5.055   2.372  1.3571 -0.7287  3.1260
  499MOL0     H67318   8.562   5.193   2.321 -0.0403  3.0128  2.1294
  499MOL0     H67319   8.515   5.111   2.613  2.6272  2.6370  2.5715
  499MOL0     H67320   8.583   5.258   2.569 -2.9259  1.1060  0.0723
  499MOL0     H67321   8.762   5.138   2.435 -0.6992  2.8109  2.9673
  499MOL0     H67322   8.684   4.980   2.486  0.6117 -0.8390  1.8687
  499MOL0     H67323   8.816   4.971   2.631 -1.8915  0.2317  0.9136
  499MOL0     H67324   8.746   5.091   2.730 -1.0923  0.4443 -0.0261
  499MOL0     H67325   8.764   5.359   2.684  0.9124 -0.5483  0.7185
  499MOL0     H67326   8.692   5.643   2.600 -0.8021 -2.0263  0.8137
  499MOL0     H67327   8.708   5.553   2.745 -1.9801  3.6148  1.2078
  499MOL0     H67328   8.811   5.684   2.729 -1.3591  2.4642 -1.2729
  499MOL0     H67329   9.161   5.883   2.798 -0.4087  0.2770  0.1560
  499MOL0     H67330   9.252   6.108   2.806 -3.5169 -0.2637 -0.7591
  499MOL0     H67331   9.579   6.340   2.591  0.6113  2.0524 -2.6653
  499MOL0     H67332   9.567   6.190   2.499 -1.4168 -1.3951  0.1967
  499MOL0     H67333   9.356   6.269   2.390 -1.5721 -0.1464  1.5996
  499MOL0     H67334   9.344   6.396   2.504 -2.6400 -1.4994  0.0592
  499MOL0     H67335   9.567   6.358   2.304  0.1384  0.6349 -0.7255
  499MOL0     H67336   9.556   6.480   2.417 -0.6866  2.6747 -2.2914
  499MOL0     H67337   9.307   6.540   2.302  0.7831  2.2583 -1.9667
  499MOL0     H67338   9.471   6.561   2.225  2.8210 -2.6203 -1.3597
  499MOL0     H67339   9.323   6.297   2.164 -0.9568 -0.6719 -0.5397
  499MOL0     H67340   9.447   6.384   2.070 -0.3745  1.6869 -1.0704
  499MOL0     H67341   9.173   6.497   2.111  0.4526 -0.6578 -0.2091
  499MOL0     H67342   9.292   6.543   1.989 -2.1217  0.8447 -0.8584
  499MOL0     H67343   9.090   6.399   1.924 -0.4255 -2.1879  1.9284
  499MOL0     H67344   9.160   6.272   2.011 -0.8720  1.6697  1.1126
  499MOL0     H67345   9.217   6.238   1.776  0.6809 -0.0971  0.0105
  499MOL0     H67346   9.366   6.266   1.871  1.8222  1.1315 -1.1201
  499MOL0     H67347   9.456   6.039   2.428  1.8004  0.2184  1.0191
  499MOL0     H67348   9.340   5.818   2.419  0.8794  1.5471 -0.0688
  499MOL0     H67349   9.178   5.484   2.466 -1.9109 -2.5076 -3.3691
  499MOL0     H67350   9.156   5.264   2.515  1.4926  1.1254 -0.9978
  499MOL0     H67351   7.143   5.620   3.084 -1.9904  0.9465  1.0277
  499MOL0     H67352   7.051   5.827   3.176 -2.5875  1.7571 -1.6546
  499MOL0     H67353   6.626   5.997   3.108  0.5082  0.0277 -0.7046
  499MOL0     H67354   6.458   6.155   3.159 -0.8304  0.7342 -0.8130
  499MOL0     H67355   6.386   6.372   3.009  1.5984 -2.0218  1.1817
  499MOL0     H67356   6.298   6.405   3.168 -1.9948  2.5760 -0.6947
  499MOL0     H67357   6.273   6.574   2.994 -0.0407 -0.3067  1.0867
  499MOL0     H67358   6.451   6.599   2.997 -0.3024  1.5930  1.1187
  499MOL0     H67359   6.410   6.647   3.260  0.9511 -0.7239 -0.7416
  499MOL0     H67360   6.238   6.680   3.214 -1.1399  0.0295 -3.2349
  499MOL0     H67361   6.476   6.827   3.092 -1.2292  0.8491 -0.9484
  499MOL0     H67362   6.374   6.878   3.223 -0.0525  1.3720 -2.1882
  499MOL0     H67363   6.125   6.903   2.886 -0.9646 -2.6275  1.3622
  499MOL0     H67364   6.753   6.466   3.150 -0.2108  0.6331 -1.6942
  499MOL0     H67365   6.910   6.303   3.066 -1.6767  3.1468  0.3367
  500MOL0     O67366   4.460   5.403   6.253 -0.3486  0.3025  0.1599
  500MOL0     C67367   4.387   5.322   6.306  0.1137 -0.1454 -0.0388
  500MOL0     O67368   4.384   5.191   6.278 -0.0522 -0.0464 -0.5470
  500MOL0     C67369   4.477   5.138   6.195  0.6409  0.8242  0.6859
  500MOL0     C67370   4.585   5.199   6.135  0.1291  0.6530  0.1130
  500MOL0     C67371   4.682   5.126   6.064  0.2428 -0.8723 -0.6725
  500MOL0     C67372   4.680   4.989   6.047 -0.0634  0.3068 -0.0621
  500MOL0     O67373   4.781   4.937   5.969 -0.2730  0.5774 -0.0465
  500MOL0     C67374   4.763   4.800   5.957  0.9453 -0.1607  0.1372
  500MOL0     C67375   4.902   4.762   5.900  1.7074 -0.4063  0.3035
  500MOL0     C67376   4.930   4.607   5.912  0.0326  0.4098  0.0985
  500MOL0     C67377   4.817   4.522   5.867 -1.1820  0.0323  0.3036
  500MOL0     C67378   4.854   4.372   5.845  0.0166  0.7165  0.9472
  500MOL0     C67379   4.936   4.368   5.713  0.4001 -0.1586 -0.3904
  500MOL0     C67380   4.958   4.212   5.667  0.1374  0.0001  0.2957
  500MOL0     C67381   5.017   4.196   5.527  0.2973 -0.4154  0.0690
  500MOL0     N67382   5.173   4.199   5.539  0.2521  0.6149  0.2161
  500MOL0     C67383   5.251   4.113   5.620  0.4803  0.0982 -0.2335
  500MOL0     C67384   5.365   4.181   5.643  0.5635 -0.6720 -0.3357
  500MOL0     C67385   5.493   4.142   5.710  0.4249  0.1675  0.6131
  500MOL0     C67386   5.514   4.168   5.854 -0.1681 -0.2531 -0.0674
  500MOL0     C67387   5.445   4.294   5.895  0.4684 -0.0464  0.6750
  500MOL0     C67388   5.452   4.309   6.043  0.4651  0.4546 -0.0375
  500MOL0     O67389   5.586   4.317   6.083 -0.2259 -0.4804  0.1807
  500MOL0     C67390   5.636   4.442   6.109  0.7855  0.5041 -0.3316
  500MOL0     C67391   5.615   4.491   6.243  0.2284  0.3670  0.0124
  500MOL0     C67392   5.649   4.612   6.291 -0.1645 -0.4701  0.3127
  500MOL0     C67393   5.651   4.622   6.438  0.7754  0.3815  0.2398
  500MOL0     C67394   5.709   4.706   6.199  0.8956  0.8676 -0.9822
  500MOL0     C67395   5.736   4.852   6.230  0.6653  0.6071  1.1803
  500MOL0     O67396   5.793   4.926   6.127  0.5130  0.4788 -0.3453
  500MOL0     C67397   5.817   5.062   6.143 -0.6992  0.0848 -0.4791
  500MOL0     C67398   5.921   5.098   6.230 -0.2307 -0.4135  0.2710
  500MOL0     C67399   5.946   5.235   6.248  0.5834  0.6740  0.1589
  500MOL0     C67400   5.879   5.330   6.171 -0.4694  0.2520  0.2125
  500MOL0     O67401   5.927   5.456   6.191  0.0623  0.3967 -0.5020
  500MOL0     C67402   5.912   5.524   6.322 -0.7560  0.1045  0.8218
  500MOL0     C67403   5.944   5.672   6.334 -1.0163  0.0112 -0.2884
  500MOL0     C67404   6.095   5.695   6.308  0.7908 -1.1996 -0.0154
  500MOL0     C67405   6.185   5.633   6.419 -1.0220  0.0001  0.4646
  500MOL0     C67406   6.324   5.622   6.345 -0.0599  0.6977  0.9211
  500MOL0     C67407   6.438   5.563   6.434  0.2107 -0.1057  0.1618
  500MOL0     C67408   6.421   5.425   6.482  1.0046 -0.5334 -0.0212
  500MOL0     C67409   6.545   5.362   6.543 -0.8781 -0.7159 -0.6572
  500MOL0    Cl67410   6.604   5.446   6.700  0.2589 -0.3634  0.0105
  500MOL0     C67411   5.776   5.297   6.079  0.9182  0.8818 -0.1264
  500MOL0     C67412   5.738   5.156   6.075 -0.0912 -0.4209 -0.3056
  500MOL0     O67413   5.696   4.895   6.334 -0.3708  0.0025 -0.4124
  500MOL0     C67414   5.730   4.659   6.063 -0.7945  0.5218 -1.0764
  500MOL0     C67415   5.696   4.524   6.026 -0.3238  0.5559  0.3447
  500MOL0     N67416   5.350   4.307   5.580  0.5643 -0.4764 -0.7414
  500MOL0     N67417   5.249   4.315   5.525  0.0758  0.9086 -0.0655
  500MOL0     C67418   4.570   4.931   6.109 -0.4162  0.2627  0.5218
  500MOL0     C67419   4.474   4.997   6.185  0.3894 -1.1667  0.6493
  500MOL0     C67420   4.288   5.371   6.397  0.7496 -0.1256 -0.2691
  500MOL0     C67421   4.185   5.281   6.449  1.3896 -0.4127 -0.3431
  500MOL0     C67422   4.103   5.320   6.553  0.5120 -0.5984 -1.6267
  500MOL0     C67423   4.116   5.447   6.612 -0.9975 -0.0863 -0.5441
  500MOL0     O67424   4.028   5.479   6.719  0.0576  0.8358  0.2947
  500MOL0     C67425   4.011   5.612   6.759 -0.2761  0.4000 -0.1873
  500MOL0     C67426   3.909   5.682   6.665  0.0019 -0.1806  0.0116
  500MOL0     C67427   3.772   5.619   6.680 -1.8904  0.8689  0.3194
  500MOL0     C67428   3.665   5.688   6.604  0.8083  0.6615 -0.1784
  500MOL0     C67429   3.541   5.610   6.612 -0.2231  0.0146  0.2578
  500MOL0     C67430   3.452   5.536   6.620  0.4796  0.0777 -0.5737
  500MOL0     C67431   4.217   5.534   6.562  0.3958 -0.6308 -0.4148
  500MOL0     C67432   4.295   5.503   6.453  0.3324 -1.1286  0.1377
  500MOL0     H67433   4.620   5.302   6.136  0.5341  0.6025 -2.1931
  500MOL0     H67434   4.768   5.177   6.021 -0.1188  0.7080  0.4194
  500MOL0     H67435   4.734   4.747   6.048 -1.1678  1.4390  0.4677
  500MOL0     H67436   4.680   4.771   5.891  3.1378 -1.4931 -2.2339
  500MOL0     H67437   4.902   4.781   5.792  1.7220 -2.1414 -0.0479
  500MOL0     H67438   4.982   4.820   5.947 -0.8801  1.4669  2.6950
  500MOL0     H67439   5.024   4.581   5.863 -1.0205  0.6255 -2.1614
  500MOL0     H67440   4.959   4.582   6.014 -0.3674  1.0942  0.3862
  500MOL0     H67441   4.740   4.532   5.944 -0.6126  1.8139  0.7049
  500MOL0     H67442   4.764   4.559   5.779  0.6099 -0.7352 -1.1620
  500MOL0     H67443   4.922   4.328   5.919  1.6229  0.3707 -0.6599
  500MOL0     H67444   4.759   4.320   5.830  0.4928  0.1530 -0.2164
  500MOL0     H67445   4.888   4.422   5.631 -1.0408 -1.8769 -0.7386
  500MOL0     H67446   5.036   4.410   5.732  0.9270 -1.9703  1.1534
  500MOL0     H67447   5.027   4.169   5.741  0.4320 -1.9322 -1.0046
  500MOL0     H67448   4.863   4.157   5.665 -0.8160  1.6228 -0.0105
  500MOL0     H67449   4.983   4.275   5.459 -0.7767  0.2096  1.2991
  500MOL0     H67450   5.003   4.098   5.481  0.6135  0.7612 -2.7598
  500MOL0     H67451   5.227   4.013   5.653 -1.1713  0.4186 -0.4141
  500MOL0     H67452   5.500   4.034   5.692 -1.3700 -0.4941  3.2730
  500MOL0     H67453   5.578   4.181   5.654 -1.2127  2.5421 -0.3893
  500MOL0     H67454   5.618   4.167   5.887 -0.7515 -0.7164  1.8922
  500MOL0     H67455   5.471   4.087   5.913 -1.8262 -0.7620 -1.8703
  500MOL0     H67456   5.338   4.292   5.874  0.4022  1.5705  0.6980
  500MOL0     H67457   5.478   4.388   5.848  0.0812  0.3146  1.1069
  500MOL0     H67458   5.406   4.217   6.081  2.2587 -1.1044 -1.4423
  500MOL0     H67459   5.396   4.394   6.084  0.3996  0.7437 -0.7254
  500MOL0     H67460   5.568   4.422   6.312 -0.1503  1.1716  0.5706
  500MOL0     H67461   5.754   4.633   6.474  0.8107 -0.9574  0.6262
  500MOL0     H67462   5.605   4.713   6.477 -0.1706  0.1717 -0.3591
  500MOL0     H67463   5.607   4.536   6.489 -0.6414  2.0590  1.9934
  500MOL0     H67464   5.978   5.025   6.287  1.7578  1.3437  0.6457
  500MOL0     H67465   6.040   5.266   6.294  1.9123  0.0204 -1.9553
  500MOL0     H67466   5.804   5.521   6.334 -0.6227 -1.0818  2.0049
  500MOL0     H67467   5.967   5.466   6.398  1.3019  0.7028 -0.1397
  500MOL0     H67468   5.891   5.734   6.261 -0.0066 -1.8974 -2.7922
  500MOL0     H67469   5.910   5.712   6.430 -1.5886  1.6498 -1.1285
  500MOL0     H67470   6.126   5.800   6.305 -2.6724  0.0023  1.4070
  500MOL0     H67471   6.125   5.649   6.213 -1.1312  0.4049 -1.4637
  500MOL0     H67472   6.187   5.715   6.491 -1.0640  1.3045 -0.9773
  500MOL0     H67473   6.160   5.537   6.465 -2.1579  1.4507  3.0743
  500MOL0     H67474   6.361   5.721   6.317 -0.8932  1.2880  1.8240
  500MOL0     H67475   6.307   5.549   6.266 -1.1990  0.4336  1.3892
  500MOL0     H67476   6.527   5.558   6.371 -0.9046  1.7120 -1.6828
  500MOL0     H67477   6.456   5.634   6.516 -1.4679 -0.7041  1.0943
  500MOL0     H67478   6.385   5.363   6.400  2.7184 -1.7649  0.1201
  500MOL0     H67479   6.342   5.406   6.556 -0.6294  3.0759 -0.6238
  500MOL0     H67480   6.622   5.360   6.465  0.0163 -2.0147  0.2015
  500MOL0     H67481   6.517   5.259   6.567 -2.4786 -0.1222  0.1201
  500MOL0     H67482   5.728   5.368   6.012  1.9210  0.0546 -1.7854
  500MOL0     H67483   5.662   5.111   6.012  1.1807 -1.2729 -1.2805
  500MOL0     H67484   5.784   4.729   6.000 -2.1038  2.1011 -0.5248
  500MOL0     H67485   5.698   4.493   5.922 -2.8823  0.9224  0.1335
  500MOL0     H67486   4.544   4.826   6.119 -2.4280  0.8552  2.3096
  500MOL0     H67487   4.393   4.942   6.233 -1.0235  0.4176  0.1468
  500MOL0     H67488   4.178   5.176   6.420 -1.9988 -0.3997  0.0825
  500MOL0     H67489   4.022   5.260   6.594  0.6976 -1.0812 -1.9565
  500MOL0     H67490   3.960   5.625   6.855 -1.5994  0.4755 -0.8839
  500MOL0     H67491   4.111   5.659   6.762 -0.1146  0.0262  0.6498
  500MOL0     H67492   3.954   5.686   6.566  0.4584  2.5702  0.2521
  500MOL0     H67493   3.901   5.782   6.708 -0.8265  0.1941 -0.9607
  500MOL0     H67494   3.766   5.620   6.789  3.8918  3.3684  1.0350
  500MOL0     H67495   3.785   5.513   6.655  1.7552  0.6440  2.3753
  500MOL0     H67496   3.683   5.709   6.499 -0.0535  1.6923 -0.1315
  500MOL0     H67497   3.649   5.783   6.656 -0.6678 -0.6977  2.0751
  500MOL0     H67498   3.359   5.483   6.616  0.5150 -0.4716  2.7598
  500MOL0     H67499   4.230   5.637   6.594  1.9354 -0.7425 -0.6203
  500MOL0     H67500   4.357   5.575   6.400  1.3492 -0.2392  2.4279
  501MOL0     O67501   4.095   9.804   8.200  0.3195  0.5331 -0.0300
  501MOL0     C67502   4.160   9.784   8.303  0.3697 -0.3057  0.9159
  501MOL0     O67503   4.116   9.831   8.425 -0.6429 -1.0467 -0.1119
  501MOL0     C67504   4.010   9.908   8.439  0.1584 -0.5444  0.2123
  501MOL0     C67505   4.027  10.049   8.475 -1.2094  0.0653  0.6144
  501MOL0     C67506   3.925  10.141   8.460 -0.3055  0.0251  0.0148
  501MOL0     C67507   3.802  10.073   8.428 -0.0527 -0.7963 -0.0356
  501MOL0     O67508   3.700  10.165   8.396 -0.4692 -0.4019 -0.5304
  501MOL0     C67509   3.592  10.132   8.308  0.7289 -0.6176 -0.0370
  501MOL0     C67510   3.547  10.259   8.230 -0.7444 -0.6719  0.0905
  501MOL0     C67511   3.406  10.237   8.161  0.0621 -0.1660  0.0363
  501MOL0     C67512   3.294  10.259   8.263  0.2170 -0.0844 -1.5766
  501MOL0     C67513   3.165  10.259   8.192 -0.1720  0.2949  0.9237
  501MOL0     C67514   3.041  10.241   8.281 -0.4545  0.3714 -0.5447
  501MOL0     C67515   2.906  10.268   8.204 -0.3635 -1.3340  0.3972
  501MOL0     C67516   2.868  10.416   8.196  0.5107  0.0674 -0.9074
  501MOL0     N67517   2.936  10.481   8.089 -0.0403 -0.1899  0.2270
  501MOL0     C67518   2.990  10.430   7.973  0.3489 -0.5290  0.0344
  501MOL0     C67519   3.036  10.538   7.905  0.4738  0.0550  0.5094
  501MOL0     C67520   3.088  10.522   7.774  0.6809 -0.3577 -0.5374
  501MOL0     C67521   3.235  10.558   7.761  0.1143 -0.9496  0.6302
  501MOL0     C67522   3.327  10.501   7.865  0.2491  0.0706  0.4628
  501MOL0     C67523   3.448  10.450   7.797  0.1690 -0.8263 -0.5190
  501MOL0     O67524   3.509  10.564   7.747  0.6448  0.6006  0.4710
  501MOL0     C67525   3.602  10.556   7.636 -0.9099 -0.4265  0.1583
  501MOL0     C67526   3.650  10.438   7.580  0.5842  0.9269 -0.6517
  501MOL0     C67527   3.743  10.430   7.472  0.5932 -0.4301  0.8324
  501MOL0     C67528   3.768  10.300   7.402 -0.1168 -0.4134 -0.3438
  501MOL0     C67529   3.789  10.548   7.418 -0.3277 -0.8593  0.0923
  501MOL0     C67530   3.882  10.567   7.297  0.1318 -0.2200 -0.1355
  501MOL0     O67531   3.947  10.454   7.248 -0.0752 -0.4743 -0.0438
  501MOL0     C67532   4.027  10.471   7.132  0.0361  0.4683  0.2362
  501MOL0     C67533   3.997  10.405   7.010 -0.3532  0.0627  0.3818
  501MOL0     C67534   4.076  10.422   6.898  0.0663  0.8482  0.4157
  501MOL0     C67535   4.192  10.494   6.899 -1.3421 -0.2767  0.0258
  501MOL0     O67536   4.262  10.492   6.774 -0.2998 -0.1400 -0.4410
  501MOL0     C67537   4.370  10.583   6.762  0.5910  0.8834  0.3472
  501MOL0     C67538   4.515  10.526   6.795  0.9102  0.8267  0.3054
  501MOL0     C67539   4.549  10.386   6.751 -0.3574  0.2597 -0.0121
  501MOL0     C67540   4.520  10.347   6.606  0.3694  0.1441  0.7760
  501MOL0     C67541   4.613  10.414   6.512 -0.5214  0.0830  0.1196
  501MOL0     C67542   4.548  10.470   6.389 -0.0302 -0.4112 -0.3250
  501MOL0     C67543   4.640  10.569   6.304 -0.1341  0.6950  0.3057
  501MOL0     C67544   4.597  10.590   6.152  0.1917 -0.1795 -0.0047
  501MOL0    Cl67545   4.559  10.430   6.073  0.1855  0.0970 -0.1839
  501MOL0     C67546   4.220  10.566   7.021 -0.3061  0.1907  0.2278
  501MOL0     C67547   4.137  10.570   7.129 -0.5745  1.1756 -0.7224
  501MOL0     O67548   3.891  10.683   7.250  0.3734 -1.0711  0.0221
  501MOL0     C67549   3.741  10.670   7.475 -0.2375 -0.3678  0.2450
  501MOL0     C67550   3.648  10.680   7.585  0.0808 -0.7383  0.0024
  501MOL0     N67551   3.007  10.654   7.976 -0.0331  1.0480 -1.5614
  501MOL0     N67552   2.935  10.616   8.080 -0.0303 -0.2021 -0.2181
  501MOL0     C67553   3.771   9.939   8.427 -1.4488  0.2855 -0.5082
  501MOL0     C67554   3.877   9.856   8.429 -0.6583 -0.1681 -0.0517
  501MOL0     C67555   4.278   9.702   8.286  0.0831 -0.4668 -0.5889
  501MOL0     C67556   4.308   9.631   8.169  0.5994  0.3554  0.3517
  501MOL0     C67557   4.418   9.543   8.161  0.4032 -0.7181  0.3157
  501MOL0     C67558   4.496   9.530   8.276  0.3459 -0.1694  0.0308
  501MOL0     O67559   4.609   9.455   8.287  0.0878 -0.2064  0.7206
  501MOL0     C67560   4.669   9.408   8.169 -0.2839 -0.3534 -0.4464
  501MOL0     C67561   4.596   9.279   8.123 -0.2158 -0.0720  0.7348
  501MOL0     C67562   4.667   9.239   7.994 -0.4054  0.0184  0.4764
  501MOL0     C67563   4.607   9.117   7.918 -0.4601  0.6129 -0.6902
  501MOL0     C67564   4.580   9.007   8.007 -0.3083  0.2088 -0.0568
  501MOL0     C67565   4.563   8.909   8.076 -0.3606  0.0051 -0.1375
  501MOL0     C67566   4.455   9.592   8.396 -0.3966 -1.0064  0.4345
  501MOL0     C67567   4.359   9.690   8.395  0.5059 -0.0989 -0.2037
  501MOL0     H67568   4.132  10.076   8.485 -0.2783 -1.6454 -2.7572
  501MOL0     H67569   3.932  10.248   8.475  1.3010  0.0452 -0.7242
  501MOL0     H67570   3.617  10.057   8.233 -1.8966 -1.3589 -0.2849
  501MOL0     H67571   3.504  10.095   8.362  0.9623 -0.4973  0.4286
  501MOL0     H67572   3.528  10.345   8.295 -1.1547 -0.1975 -0.6346
  501MOL0     H67573   3.617  10.273   8.147 -1.2029 -0.8071 -0.3250
  501MOL0     H67574   3.390  10.310   8.082  1.2518 -0.1008 -0.1571
  501MOL0     H67575   3.410  10.140   8.111  1.2702 -0.5705  0.8569
  501MOL0     H67576   3.291  10.189   8.347  0.6502  1.1506 -0.4853
  501MOL0     H67577   3.303  10.354   8.317  0.4055 -1.2601  0.5588
  501MOL0     H67578   3.161  10.356   8.143  0.4895 -0.7277 -1.2874
  501MOL0     H67579   3.169  10.174   8.123 -0.8072  1.5120 -0.6723
  501MOL0     H67580   3.043  10.145   8.334  4.8211  0.5238  0.0864
  501MOL0     H67581   3.057  10.313   8.361  0.3899  0.5406 -0.8517
  501MOL0     H67582   2.904  10.217   8.107 -1.3497 -1.9829  0.7427
  501MOL0     H67583   2.816  10.227   8.252 -1.1779 -1.5982 -1.2683
  501MOL0     H67584   2.895  10.456   8.294 -2.1906  0.2162 -0.1306
  501MOL0     H67585   2.764  10.437   8.167 -0.6427 -1.7072  1.5780
  501MOL0     H67586   2.977  10.330   7.935  0.4922 -0.4891 -0.1223
  501MOL0     H67587   3.073  10.426   7.724 -2.3297  0.8283 -2.2116
  501MOL0     H67588   3.045  10.586   7.696 -1.2941  0.2901  1.0009
  501MOL0     H67589   3.249  10.666   7.751 -1.0967 -0.8232  0.0861
  501MOL0     H67590   3.261  10.523   7.661  1.2083 -1.3718  1.0513
  501MOL0     H67591   3.274  10.426   7.924 -1.3753 -1.0028 -2.1799
  501MOL0     H67592   3.363  10.573   7.939  1.3017  0.4673 -0.4040
  501MOL0     H67593   3.420  10.392   7.708 -0.9096 -2.7763  1.0015
  501MOL0     H67594   3.509  10.390   7.865 -1.6621  2.3055  4.4433
  501MOL0     H67595   3.595  10.352   7.616  0.2214  0.9890 -1.0411
  501MOL0     H67596   3.868  10.259   7.419  0.3523  0.5415 -0.7482
  501MOL0     H67597   3.702  10.229   7.454  1.1709  0.6195  2.9612
  501MOL0     H67598   3.751  10.303   7.294  0.2223 -0.5438 -0.4014
  501MOL0     H67599   3.911  10.341   6.997 -1.8246  1.5464  2.3134
  501MOL0     H67600   4.047  10.377   6.804  3.1564 -1.4816  0.4258
  501MOL0     H67601   4.392  10.607   6.657  4.0560 -1.2390  0.4149
  501MOL0     H67602   4.357  10.677   6.816  2.8839  1.9764 -0.8305
  501MOL0     H67603   4.593  10.596   6.764  2.1439 -0.1991  0.9640
  501MOL0     H67604   4.518  10.526   6.904 -0.1622  0.3038  0.3465
  501MOL0     H67605   4.497  10.310   6.810  1.0375 -0.8248 -0.1148
  501MOL0     H67606   4.658  10.371   6.757 -0.3400 -0.5404 -1.6894
  501MOL0     H67607   4.529  10.238   6.598  1.0072  0.0833  2.1830
  501MOL0     H67608   4.415  10.372   6.585  0.5619  1.8856  1.6941
  501MOL0     H67609   4.702  10.360   6.480  2.4256  5.0231 -0.9841
  501MOL0     H67610   4.665  10.497   6.561  0.3446  0.2547 -1.0493
  501MOL0     H67611   4.527  10.384   6.325 -1.8699  1.2424 -2.1213
  501MOL0     H67612   4.456  10.524   6.412  2.0370  2.4803  2.0061
  501MOL0     H67613   4.740  10.525   6.300 -0.3760  0.1554  0.1278
  501MOL0     H67614   4.654  10.660   6.363  3.4915  2.0424 -2.3149
  501MOL0     H67615   4.664  10.643   6.083  2.1243 -0.4281  1.6168
  501MOL0     H67616   4.500  10.640   6.140  0.3815 -0.3868 -4.0795
  501MOL0     H67617   4.307  10.630   7.026 -1.7176  2.5596 -2.4923
  501MOL0     H67618   4.163  10.629   7.216  0.7644 -4.5671  3.3618
  501MOL0     H67619   3.769  10.766   7.433 -1.0828 -0.0085  0.4762
  501MOL0     H67620   3.622  10.778   7.621 -1.6448  0.2504 -3.4902
  501MOL0     H67621   3.665   9.916   8.434 -1.1479 -0.8238  0.8086
  501MOL0     H67622   3.849   9.753   8.410  2.0950 -0.6602 -1.9772
  501MOL0     H67623   4.232   9.639   8.091  2.6173 -1.1224 -1.9057
  501MOL0     H67624   4.450   9.495   8.069  2.2682 -1.2950  1.2053
  501MOL0     H67625   4.659   9.486   8.093 -0.6919  0.3506  0.3228
  501MOL0     H67626   4.778   9.397   8.173 -0.1978  0.1935 -1.0323
  501MOL0     H67627   4.489   9.284   8.099  0.1387 -1.1631 -1.3068
  501MOL0     H67628   4.615   9.204   8.201  2.1587 -0.6636 -0.3380
  501MOL0     H67629   4.771   9.216   8.019  1.4248  3.9459 -2.5259
  501MOL0     H67630   4.665   9.325   7.928  1.0409 -1.0800 -1.0821
  501MOL0     H67631   4.692   9.076   7.862  0.4153  2.5727 -0.8842
  501MOL0     H67632   4.528   9.145   7.848  0.1234  1.0886 -1.1746
  501MOL0     H67633   4.555   8.819   8.134  2.2808 -0.6466 -0.6618
  501MOL0     H67634   4.522   9.596   8.482  1.7482  1.2821 -1.1941
  501MOL0     H67635   4.329   9.726   8.493  2.4423 -3.0105  1.6010
  502MOL0     O67636   8.680   2.553   3.403  0.3498 -0.2864  0.4056
  502MOL0     C67637   8.673   2.431   3.433  0.9911  0.6982  0.4109
  502MOL0     O67638   8.629   2.378   3.545  0.3983 -0.5858  0.0416
  502MOL0     C67639   8.558   2.446   3.644 -0.4265  0.3251 -0.3304
  502MOL0     C67640   8.558   2.390   3.775  0.3271 -0.3466 -0.1421
  502MOL0     C67641   8.482   2.445   3.882 -0.6046  1.5312  0.0756
  502MOL0     C67642   8.434   2.581   3.867 -0.1448  0.5103  0.1250
  502MOL0     O67643   8.389   2.640   3.977 -0.1896 -0.3243 -0.0691
  502MOL0     C67644   8.332   2.767   3.988  0.1606 -1.4811 -0.2984
  502MOL0     C67645   8.276   2.785   4.124  0.9020  0.4833 -0.4590
  502MOL0     C67646   8.146   2.708   4.146  0.1471  0.1618  0.1157
  502MOL0     C67647   8.165   2.550   4.148 -0.2697 -0.7356 -0.3216
  502MOL0     C67648   8.045   2.470   4.196  0.2179 -0.2991  0.3430
  502MOL0     C67649   8.015   2.489   4.350  0.3803  0.6630 -0.4059
  502MOL0     C67650   7.878   2.431   4.371  0.1691  0.1365 -0.0243
  502MOL0     C67651   7.853   2.415   4.526 -0.1947 -0.0735  0.2402
  502MOL0     N67652   7.738   2.318   4.530 -0.2812 -0.3671 -0.2123
  502MOL0     C67653   7.605   2.363   4.537 -0.1950 -0.6001  0.2660
  502MOL0     C67654   7.526   2.248   4.540 -0.4472  0.0078  0.7708
  502MOL0     C67655   7.374   2.255   4.541 -0.4925 -0.1008  0.1680
  502MOL0     C67656   7.310   2.212   4.670  0.4522  0.6444 -0.2722
  502MOL0     C67657   7.360   2.289   4.782  0.3179 -0.3766  0.7058
  502MOL0     C67658   7.250   2.339   4.878 -0.0277  1.1927  0.9473
  502MOL0     O67659   7.285   2.454   4.962 -0.8301 -0.1215 -0.4344
  502MOL0     C67660   7.375   2.435   5.070 -0.3261  0.1360  0.6564
  502MOL0     C67661   7.415   2.557   5.126 -0.2631  0.4952  0.3766
  502MOL0     C67662   7.500   2.552   5.242  0.2167 -0.4531 -0.2419
  502MOL0     C67663   7.547   2.690   5.295 -0.9772  0.4500  0.2656
  502MOL0     C67664   7.548   2.423   5.284 -0.5139 -0.3190 -0.4206
  502MOL0     C67665   7.633   2.412   5.408 -0.0361  0.5829  0.3748
  502MOL0     O67666   7.625   2.291   5.475  0.4544 -0.0097 -0.3409
  502MOL0     C67667   7.699   2.284   5.588  0.5608  1.0093  0.1092
  502MOL0     C67668   7.822   2.226   5.577  0.0464  0.3910  0.2709
  502MOL0     C67669   7.903   2.193   5.682  0.3821 -0.1972 -0.4300
  502MOL0     C67670   7.858   2.221   5.814 -0.6368 -0.0524 -0.5646
  502MOL0     O67671   7.927   2.171   5.917  0.1403 -0.0318  0.2432
  502MOL0     C67672   7.948   2.029   5.919 -0.1204 -0.6923 -0.1740
  502MOL0     C67673   7.959   1.989   6.064 -0.7123 -0.3006  0.0353
  502MOL0     C67674   8.081   2.061   6.126  0.4806  0.1999  1.1235
  502MOL0     C67675   8.102   2.015   6.263  0.3917 -0.6940  0.5214
  502MOL0     C67676   8.216   2.101   6.318  0.5647  0.3330  0.1609
  502MOL0     C67677   8.226   2.095   6.461 -0.6110  0.8452  0.5974
  502MOL0     C67678   8.140   2.173   6.555 -0.8650  0.2714 -0.0178
  502MOL0     C67679   8.182   2.125   6.690 -0.5884  0.0235 -0.2941
  502MOL0    Cl67680   8.153   1.963   6.733  0.7017  0.0995  0.3090
  502MOL0     C67681   7.740   2.306   5.826  0.7558  0.6745  0.4042
  502MOL0     C67682   7.646   2.322   5.716 -1.4202 -0.5103  0.7968
  502MOL0     O67683   7.723   2.495   5.415 -0.4342  0.5583 -0.4366
  502MOL0     C67684   7.491   2.302   5.226 -0.2469 -0.3749 -0.8503
  502MOL0     C67685   7.407   2.314   5.118 -0.2211  0.2971 -0.8448
  502MOL0     N67686   7.610   2.139   4.534  0.3274 -0.1805  0.1184
  502MOL0     N67687   7.740   2.178   4.524  0.2090 -0.0426  0.6595
  502MOL0     C67688   8.432   2.629   3.736 -0.4406 -0.7290 -0.3901
  502MOL0     C67689   8.489   2.571   3.626 -0.9733 -0.4108  0.4900
  502MOL0     C67690   8.740   2.319   3.343  0.4028 -1.1079  0.9095
  502MOL0     C67691   8.751   2.185   3.391 -0.6271  0.1654 -0.3723
  502MOL0     C67692   8.784   2.085   3.309  1.7129  0.2028 -0.4660
  502MOL0     C67693   8.837   2.108   3.179  0.1140 -0.5801  0.1126
  502MOL0     O67694   8.879   2.002   3.093  0.9720  0.2106 -0.3067
  502MOL0     C67695   8.904   1.877   3.148  0.8966 -0.8943  0.4013
  502MOL0     C67696   9.004   1.813   3.061  0.4861  0.1303  0.9658
  502MOL0     C67697   9.141   1.883   3.075  0.7381 -0.0641  0.8047
  502MOL0     C67698   9.242   1.808   2.990 -0.3010  0.0140  0.6726
  502MOL0     C67699   9.379   1.865   2.999  0.7170 -0.0101 -0.7304
  502MOL0     C67700   9.483   1.916   3.037  0.1479 -0.1014  0.0242
  502MOL0     C67701   8.853   2.246   3.143 -0.0457 -0.4113  0.1002
  502MOL0     C67702   8.798   2.345   3.219 -0.4070 -0.3484 -1.1381
  502MOL0     H67703   8.603   2.293   3.791  1.9246  0.3829 -0.0195
  502MOL0     H67704   8.464   2.387   3.971 -0.7189  2.0530  0.3937
  502MOL0     H67705   8.410   2.843   3.973 -2.0574  0.9256 -0.2439
  502MOL0     H67706   8.263   2.790   3.906  2.7182 -0.6730 -2.3790
  502MOL0     H67707   8.344   2.752   4.203 -1.4710  1.3214  2.0944
  502MOL0     H67708   8.246   2.890   4.131 -0.6035 -0.0088  1.4588
  502MOL0     H67709   8.090   2.732   4.237  3.0425  0.9499  1.8131
  502MOL0     H67710   8.079   2.727   4.061 -0.1613 -1.9338 -0.1600
  502MOL0     H67711   8.196   2.508   4.052  1.5404 -1.9158  0.7135
  502MOL0     H67712   8.254   2.525   4.206 -1.3440 -2.0964  0.7938
  502MOL0     H67713   7.956   2.503   4.142  0.2422 -0.1892  0.3694
  502MOL0     H67714   8.059   2.367   4.162 -1.0659 -0.0383 -1.0680
  502MOL0     H67715   8.078   2.431   4.417  1.4852  0.1265 -1.8492
  502MOL0     H67716   8.012   2.593   4.385 -1.3102  0.4108  0.2984
  502MOL0     H67717   7.810   2.496   4.314  0.9516  1.0202  0.0330
  502MOL0     H67718   7.877   2.332   4.324 -0.9264 -0.2093  0.6671
  502MOL0     H67719   7.832   2.508   4.579  0.0767 -0.4076  0.9584
  502MOL0     H67720   7.946   2.373   4.565  1.2950  2.0624 -0.8141
  502MOL0     H67721   7.566   2.464   4.527  1.5926 -0.0621 -2.4508
  502MOL0     H67722   7.358   2.361   4.518  0.5664 -0.1273 -0.7606
  502MOL0     H67723   7.334   2.200   4.455 -0.5159  0.9577 -0.5215
  502MOL0     H67724   7.330   2.109   4.704 -2.4140  1.3348  4.4057
  502MOL0     H67725   7.202   2.228   4.663  0.8800  4.4105 -0.0219
  502MOL0     H67726   7.402   2.382   4.743 -0.1624 -1.3364 -2.4075
  502MOL0     H67727   7.437   2.230   4.832  1.2057  0.3517  0.2295
  502MOL0     H67728   7.209   2.253   4.932  2.1498  0.2334  1.1949
  502MOL0     H67729   7.168   2.374   4.816  0.0863  0.4285  0.3449
  502MOL0     H67730   7.369   2.651   5.096  4.2951  2.8025 -0.1748
  502MOL0     H67731   7.534   2.685   5.404  4.5789  0.4172  1.2214
  502MOL0     H67732   7.652   2.716   5.287 -1.6555  2.8025 -2.2133
  502MOL0     H67733   7.475   2.765   5.262 -3.2813 -1.2125  1.1870
  502MOL0     H67734   7.853   2.205   5.475  2.9762  4.4447  0.0912
  502MOL0     H67735   7.995   2.136   5.670  0.4744  0.2043 -1.8794
  502MOL0     H67736   7.858   1.987   5.873 -0.5404  0.6729 -0.6683
  502MOL0     H67737   8.028   1.989   5.855 -0.1685 -0.4566 -0.3863
  502MOL0     H67738   7.873   2.019   6.124 -1.0158 -1.5051  0.2217
  502MOL0     H67739   7.950   1.880   6.066 -0.7239 -0.3962 -2.1538
  502MOL0     H67740   8.062   2.169   6.124  1.3190  0.3887  2.3076
  502MOL0     H67741   8.175   2.041   6.073 -0.1095 -0.5003  0.3044
  502MOL0     H67742   8.019   2.045   6.328  0.7972  0.5801  0.4733
  502MOL0     H67743   8.126   1.908   6.262  0.6021 -0.7110  2.6117
  502MOL0     H67744   8.197   2.208   6.301  0.2946  0.1247 -0.8849
  502MOL0     H67745   8.313   2.078   6.273  1.7041 -1.8700  3.4272
  502MOL0     H67746   8.223   1.987   6.483  1.1846  0.9055  1.3235
  502MOL0     H67747   8.326   2.134   6.482  0.1027 -1.8956  3.0127
  502MOL0     H67748   8.036   2.156   6.525  0.4790 -2.1801 -4.1567
  502MOL0     H67749   8.154   2.281   6.540 -1.4669  0.4092  0.3635
  502MOL0     H67750   8.132   2.182   6.769  1.5051 -1.8439  2.5612
  502MOL0     H67751   8.288   2.150   6.700 -1.0839  1.3911  2.2994
  502MOL0     H67752   7.720   2.335   5.928  1.5284 -0.1273  0.7950
  502MOL0     H67753   7.546   2.363   5.710 -2.7268 -3.7201 -1.8307
  502MOL0     H67754   7.528   2.205   5.256  0.7584  0.5546  1.1147
  502MOL0     H67755   7.384   2.224   5.063  2.7854 -1.3670  0.3803
  502MOL0     H67756   8.395   2.730   3.719  4.6347  1.1091 -2.6745
  502MOL0     H67757   8.476   2.628   3.535 -1.4238  1.0541  1.4304
  502MOL0     H67758   8.717   2.161   3.491  1.8234  0.2719  0.5559
  502MOL0     H67759   8.767   1.980   3.333  3.6987 -0.0208  0.1357
  502MOL0     H67760   8.937   1.890   3.251  1.1218  3.1255 -0.0255
  502MOL0     H67761   8.810   1.823   3.143 -0.7889  1.6280  2.2855
  502MOL0     H67762   8.967   1.813   2.958  2.0633 -0.4543  0.3538
  502MOL0     H67763   9.022   1.706   3.072  1.3430  0.1450 -0.0825
  502MOL0     H67764   9.164   1.889   3.182  1.8664 -0.8383  0.6215
  502MOL0     H67765   9.144   1.986   3.036  5.7838  0.6220  2.2412
  502MOL0     H67766   9.196   1.802   2.891 -0.0437  3.5948  0.2302
  502MOL0     H67767   9.262   1.706   3.025 -0.8549 -0.7678 -1.1985
  502MOL0     H67768   9.567   1.959   3.088 -1.0368  1.8436  0.4313
  502MOL0     H67769   8.892   2.264   3.044 -2.0405 -1.7188 -0.9911
  502MOL0     H67770   8.797   2.450   3.195  1.2792  0.0189  0.2173
  503MOL0     O67771   4.265   3.859   8.648  0.6431 -0.2324  0.1837
  503MOL0     C67772   4.254   3.869   8.527  0.0481 -0.3432  0.7873
  503MOL0     O67773   4.359   3.854   8.436  0.3358  0.0034  0.2210
  503MOL0     C67774   4.487   3.813   8.474 -0.1930  1.0048 -0.7176
  503MOL0     C67775   4.568   3.884   8.564  0.6415 -0.6086 -0.4223
  503MOL0     C67776   4.691   3.832   8.613  0.7797  1.0532  0.0113
  503MOL0     C67777   4.722   3.699   8.573 -1.2307 -0.9288 -0.4585
  503MOL0     O67778   4.835   3.646   8.604 -0.5517  0.1805 -0.0374
  503MOL0     C67779   4.946   3.726   8.654  0.2777 -0.0964  0.1115
  503MOL0     C67780   4.954   3.703   8.802 -0.3566  0.0217 -0.5474
  503MOL0     C67781   4.942   3.559   8.840 -0.4029  1.1235 -0.5570
  503MOL0     C67782   4.801   3.521   8.893 -0.4272  0.0362  0.0440
  503MOL0     C67783   4.787   3.364   8.925  0.3498 -0.8956 -0.4473
  503MOL0     C67784   4.859   3.308   9.043  0.0344 -0.7059 -0.4771
  503MOL0     C67785   4.809   3.168   9.069  0.6373  0.0898  0.4756
  503MOL0     C67786   4.921   3.090   9.146 -0.2270  0.8813  0.4659
  503MOL0     N67787   4.943   3.163   9.274 -0.0315  0.6828 -0.7015
  503MOL0     C67788   4.852   3.213   9.369  0.5749 -0.0963 -0.5253
  503MOL0     C67789   4.920   3.226   9.489 -0.0652 -0.3383 -0.3085
  503MOL0     C67790   4.861   3.298   9.611 -0.1642  0.2725 -0.5489
  503MOL0     C67791   4.844   3.193   9.725  0.5374 -0.8454 -0.5626
  503MOL0     C67792   4.688   3.166   9.730  0.5848  0.8692 -1.1667
  503MOL0     C67793   4.655   3.035   9.809 -0.3266  0.5054  0.0496
  503MOL0     O67794   4.526   2.993   9.758  0.2905  0.5196 -1.0562
  503MOL0     C67795   4.478   2.876   9.804 -0.2151  0.3999 -0.4828
  503MOL0     C67796   4.391   2.795   9.726  0.2274 -0.2293 -0.0274
  503MOL0     C67797   4.330   2.674   9.765  0.6047  0.0256  0.6048
  503MOL0     C67798   4.255   2.598   9.656 -0.1628 -0.7905  1.2720
  503MOL0     C67799   4.354   2.637   9.900 -0.5651 -0.0114 -0.2956
  503MOL0     C67800   4.285   2.526   9.959 -0.2813 -0.4071  0.4536
  503MOL0     O67801   4.338   2.472  10.073  0.1980 -0.8793  0.6831
  503MOL0     C67802   4.306   2.352  10.126  0.2731  0.3661  0.1723
  503MOL0     C67803   4.213   2.254  10.060  0.3061 -0.0292 -0.5991
  503MOL0     C67804   4.191   2.122  10.113  0.3690  0.1188 -0.4650
  503MOL0     C67805   4.265   2.082  10.218  0.7051 -0.0707  0.0782
  503MOL0     O67806   4.240   1.961  10.277 -0.6087  0.0348  0.8022
  503MOL0     C67807   4.343   1.868  10.251  0.2196  0.4390 -0.5939
  503MOL0     C67808   4.335   1.767  10.360  0.7683  0.5270 -0.7396
  503MOL0     C67809   4.384   1.815  10.496 -0.1100  0.2326 -0.3126
  503MOL0     C67810   4.397   1.690  10.597  0.1222  0.1866 -1.0178
  503MOL0     C67811   4.278   1.649  10.680 -0.5024 -0.1469  0.6710
  503MOL0     C67812   4.236   1.757  10.791  0.2046 -1.0166  0.3922
  503MOL0     C67813   4.134   1.694  10.898 -0.4600 -0.1463 -0.2738
  503MOL0     C67814   3.995   1.749  10.857 -0.0240  0.2726  0.6247
  503MOL0    Cl67815   3.896   1.772  10.996  0.4514 -0.0970 -0.3825
  503MOL0     C67816   4.349   2.175  10.287  0.3411  0.0609 -0.8119
  503MOL0     C67817   4.384   2.303  10.231 -0.1113 -0.1715  0.5083
  503MOL0     O67818   4.178   2.496   9.906  0.0173 -0.3083 -0.4670
  503MOL0     C67819   4.443   2.710   9.979 -0.4836  0.6705  0.3273
  503MOL0     C67820   4.505   2.826   9.932  0.7430  0.0598 -0.9651
  503MOL0     N67821   5.054   3.190   9.466  0.2024  0.0713 -0.6602
  503MOL0     N67822   5.056   3.146   9.344 -1.1173 -0.8192 -0.1448
  503MOL0     C67823   4.645   3.628   8.492  0.6718  0.3606 -1.1597
  503MOL0     C67824   4.534   3.682   8.434 -0.9831 -0.0653  0.0453
  503MOL0     C67825   4.120   3.932   8.491  0.0492 -0.4587 -0.0873
  503MOL0     C67826   4.043   3.883   8.384 -0.1010 -0.2409  0.0181
  503MOL0     C67827   3.933   3.962   8.331 -0.8153  0.5949 -0.7073
  503MOL0     C67828   3.893   4.079   8.397  0.7084  0.3430  0.2263
  503MOL0     O67829   3.794   4.153   8.338  0.9128 -0.4761  0.6262
  503MOL0     C67830   3.753   4.264   8.402  1.1158 -0.8334 -0.3085
  503MOL0     C67831   3.632   4.325   8.327  0.0265 -0.3116 -0.6489
  503MOL0     C67832   3.583   4.459   8.393 -0.1955  0.6986 -0.3754
  503MOL0     C67833   3.466   4.426   8.492  0.1827  0.1909  0.6180
  503MOL0     C67834   3.431   4.540   8.587  0.3464  0.0248 -0.2382
  503MOL0     C67835   3.390   4.616   8.678 -0.3992 -0.1202 -0.8343
  503MOL0     C67836   3.951   4.108   8.520  0.7269  0.3724 -0.2943
  503MOL0     C67837   4.066   4.044   8.558 -0.1817  0.6336 -0.0433
  503MOL0     H67838   4.540   3.984   8.595  1.5441  0.9006 -3.9165
  503MOL0     H67839   4.746   3.900   8.677  3.8622 -0.3464 -0.9533
  503MOL0     H67840   5.035   3.697   8.598 -1.9953 -1.7587 -2.9759
  503MOL0     H67841   4.931   3.829   8.619 -1.3258 -1.0187 -2.2373
  503MOL0     H67842   5.049   3.739   8.843 -0.3497  0.1287 -0.6581
  503MOL0     H67843   4.874   3.761   8.849  0.6586 -0.4418  1.8906
  503MOL0     H67844   4.964   3.485   8.762 -4.3082 -1.0433  0.1012
  503MOL0     H67845   5.009   3.534   8.922  0.4753  1.9300 -1.0176
  503MOL0     H67846   4.780   3.583   8.980 -2.0373 -1.0149  0.4458
  503MOL0     H67847   4.722   3.544   8.821  0.5495  1.6533 -0.5788
  503MOL0     H67848   4.679   3.357   8.943  0.0870  0.5264 -1.3052
  503MOL0     H67849   4.806   3.309   8.833 -1.2168 -0.5933 -0.9914
  503MOL0     H67850   4.968   3.304   9.049 -0.1020 -3.2545  1.9514
  503MOL0     H67851   4.822   3.363   9.130  0.6591  1.3510 -1.4349
  503MOL0     H67852   4.715   3.163   9.125  1.6238  1.3568  2.3107
  503MOL0     H67853   4.789   3.114   8.975 -1.4664 -0.7569  1.3440
  503MOL0     H67854   5.013   3.089   9.088  0.0387  0.5625  0.8880
  503MOL0     H67855   4.885   2.988   9.158  0.0883  0.8967  1.6027
  503MOL0     H67856   4.748   3.236   9.353  0.4804  1.3821  1.6292
  503MOL0     H67857   4.934   3.374   9.641  0.7651 -1.9147  3.3802
  503MOL0     H67858   4.770   3.352   9.582 -0.2110  0.4252 -0.1197
  503MOL0     H67859   4.883   3.232   9.819  1.4154  3.1890 -2.3661
  503MOL0     H67860   4.899   3.103   9.698 -1.8900 -1.8762 -2.4179
  503MOL0     H67861   4.649   3.132   9.634 -2.6778 -4.5917  1.5538
  503MOL0     H67862   4.635   3.246   9.782  3.8468  0.2720  3.7827
  503MOL0     H67863   4.653   3.047   9.918  1.5173  0.5479  0.1092
  503MOL0     H67864   4.734   2.962   9.787 -0.7736  0.7273 -2.6964
  503MOL0     H67865   4.374   2.839   9.628 -1.2941 -0.1783  0.2330
  503MOL0     H67866   4.314   2.507   9.641  2.3584  0.6180  1.9821
  503MOL0     H67867   4.152   2.573   9.681 -1.3046  0.0945 -2.0400
  503MOL0     H67868   4.253   2.648   9.559 -3.6744 -1.4521  0.8696
  503MOL0     H67869   4.159   2.280   9.969  3.7645  2.5622 -2.1359
  503MOL0     H67870   4.104   2.066  10.079  0.0940 -0.4056  1.0465
  503MOL0     H67871   4.315   1.815  10.160 -0.1686  0.5586 -0.5469
  503MOL0     H67872   4.447   1.900  10.245  0.8036 -1.4774 -1.0208
  503MOL0     H67873   4.230   1.741  10.372  1.4098 -1.3087  1.3966
  503MOL0     H67874   4.393   1.676  10.344  0.0752 -0.4941  2.0600
  503MOL0     H67875   4.307   1.877  10.543 -0.3080 -0.6576  0.5791
  503MOL0     H67876   4.481   1.865  10.485 -0.2180 -0.0525 -3.4759
  503MOL0     H67877   4.434   1.604  10.541 -2.1003 -1.8507  0.4624
  503MOL0     H67878   4.483   1.703  10.664 -1.1409 -0.6051  0.8341
  503MOL0     H67879   4.316   1.560  10.731  0.2928 -0.0880  0.2039
  503MOL0     H67880   4.199   1.619  10.610 -1.2966 -3.8591  2.8660
  503MOL0     H67881   4.326   1.789  10.845 -0.1299 -2.3895  1.8439
  503MOL0     H67882   4.202   1.854  10.754 -2.4691 -1.0040  2.5893
  503MOL0     H67883   4.160   1.718  11.001 -2.7680 -0.0389  0.3456
  503MOL0     H67884   4.121   1.585  10.900 -1.9289 -0.1827 -3.6904
  503MOL0     H67885   3.943   1.673  10.799  1.2408  0.2519 -0.5150
  503MOL0     H67886   3.998   1.825  10.779 -0.0120 -2.5186 -2.2645
  503MOL0     H67887   4.401   2.148  10.377 -0.3918 -0.0024 -0.3970
  503MOL0     H67888   4.466   2.358  10.279 -0.6604 -0.1740  1.4872
  503MOL0     H67889   4.465   2.678  10.080  0.5927  1.9637  0.5424
  503MOL0     H67890   4.575   2.881   9.994 -1.4388  0.2175  1.5221
  503MOL0     H67891   4.694   3.540   8.453  2.0852  1.0502 -1.0086
  503MOL0     H67892   4.497   3.604   8.368 -2.0302  1.5690 -1.3892
  503MOL0     H67893   4.098   3.817   8.318  1.3787 -0.9106  1.8181
  503MOL0     H67894   3.894   3.932   8.235 -2.9769 -1.9639  0.8152
  503MOL0     H67895   3.724   4.240   8.504  0.2521 -3.3955 -1.0875
  503MOL0     H67896   3.833   4.338   8.411 -1.9322  3.2391 -3.2146
  503MOL0     H67897   3.542   4.264   8.337 -0.4052  0.6038  1.7880
  503MOL0     H67898   3.664   4.336   8.223  3.0039 -1.1734  0.0844
  503MOL0     H67899   3.532   4.503   8.306 -3.2659 -2.1972 -0.2472
  503MOL0     H67900   3.672   4.513   8.427  1.3424 -0.2748 -2.6272
  503MOL0     H67901   3.497   4.341   8.555  1.8577  0.1155 -0.2519
  503MOL0     H67902   3.374   4.395   8.442 -2.2479  0.8815  4.2349
  503MOL0     H67903   3.352   4.692   8.742  1.0823  1.3802 -1.6532
  503MOL0     H67904   3.916   4.173   8.600  0.6245 -2.9502  2.5831
  503MOL0     H67905   4.121   4.088   8.641 -1.4272 -0.1432  1.2641
  504MOL0     O67906   7.399   6.393  10.110  0.2948  0.2081 -0.3902
  504MOL0     C67907   7.426   6.279  10.154  0.6179  0.5451 -0.5766
  504MOL0     O67908   7.543   6.244  10.203  0.1721 -1.0763 -0.1969
  504MOL0     C67909   7.655   6.314  10.172  0.9585  0.9653 -0.3745
  504MOL0     C67910   7.690   6.445  10.217 -0.3160  0.4214  0.5478
  504MOL0     C67911   7.805   6.505  10.168 -0.6962 -0.1745 -0.1778
  504MOL0     C67912   7.893   6.444  10.079  0.0021 -0.2753 -0.1670
  504MOL0     O67913   8.013   6.489  10.038 -0.3734 -0.4466 -0.4001
  504MOL0     C67914   8.053   6.625  10.078 -0.8498  0.5989  1.4782
  504MOL0     C67915   8.198   6.628  10.021  0.1074  0.8235  0.3934
  504MOL0     C67916   8.291   6.549  10.104 -0.6445 -0.3304  0.2967
  504MOL0     C67917   8.431   6.580  10.074 -0.1821 -0.6639 -0.4018
  504MOL0     C67918   8.538   6.478  10.136  0.5705  0.0641  0.5065
  504MOL0     C67919   8.675   6.527  10.089 -0.1079 -1.5480  0.3824
  504MOL0     C67920   8.776   6.432  10.141 -0.7008 -0.0240 -1.4041
  504MOL0     C67921   8.920   6.487  10.098 -0.0625 -0.0302  0.6126
  504MOL0     N67922   9.027   6.387  10.095  0.4811 -0.0773  0.0978
  504MOL0     C67923   9.026   6.261  10.148  0.3547  0.4297  0.2174
  504MOL0     C67924   9.153   6.221  10.145  0.9069  0.1333  0.1697
  504MOL0     C67925   9.204   6.079  10.165  0.1699 -1.0547 -0.5017
  504MOL0     C67926   9.201   6.006  10.032  0.0190  0.0228 -0.9109
  504MOL0     C67927   9.334   5.926  10.013 -0.0227 -1.1073  1.0155
  504MOL0     C67928   9.324   5.828   9.887  0.2045 -0.1545 -0.8852
  504MOL0     O67929   9.426   5.728   9.874  0.2584  0.4926 -0.7293
  504MOL0     C67930   9.534   5.753   9.792 -0.2761 -0.1017 -0.4355
  504MOL0     C67931   9.597   5.874   9.768 -0.4595  0.3572 -0.6024
  504MOL0     C67932   9.717   5.884   9.692 -0.5555  0.4948  0.6337
  504MOL0     C67933   9.773   6.024   9.681  0.0003 -0.1517 -0.5789
  504MOL0     C67934   9.776   5.763   9.636  0.0370 -0.6252 -0.8048
  504MOL0     C67935   9.895   5.768   9.555 -0.5599 -0.4597 -0.9508
  504MOL0     O67936   9.999   5.842   9.602  0.3649 -0.1223  0.3661
  504MOL0     C67937  10.127   5.823   9.556 -0.1642 -0.0258 -0.2316
  504MOL0     C67938  10.227   5.839   9.649  0.2608 -0.2002 -1.0056
  504MOL0     C67939  10.356   5.803   9.620 -0.5320  0.8816 -1.0761
  504MOL0     C67940  10.392   5.768   9.492 -0.1106  0.4840  0.0566
  504MOL0     O67941  10.530   5.744   9.469  0.0868  0.1006 -1.1065
  504MOL0     C67942  10.564   5.724   9.330 -0.5657 -0.2036 -0.0230
  504MOL0     C67943  10.706   5.671   9.321 -0.6371  0.7081  1.2758
  504MOL0     C67944  10.734   5.615   9.172  0.1982 -0.7852  0.0581
  504MOL0     C67945  10.875   5.587   9.124 -0.0348  0.2384  0.6027
  504MOL0     C67946  10.865   5.515   8.983 -0.7490  0.3772 -0.4889
  504MOL0     C67947  11.004   5.465   8.936 -0.7561 -0.1993 -0.5223
  504MOL0     C67948  11.006   5.470   8.787 -0.0785  1.2139 -0.2711
  504MOL0     C67949  11.094   5.349   8.747  0.3511 -0.7985  0.6575
  504MOL0    Cl67950  11.111   5.347   8.566  0.3121 -0.4642 -0.1364
  504MOL0     C67951  10.295   5.755   9.389  0.8519  0.2261  0.0223
  504MOL0     C67952  10.168   5.776   9.437  0.9272  0.1392 -0.0370
  504MOL0     O67953   9.894   5.691   9.462 -0.6906 -0.5717 -0.1515
  504MOL0     C67954   9.708   5.643   9.659  0.1155 -0.7472 -0.7722
  504MOL0     C67955   9.589   5.638   9.739  0.3657  0.4597 -0.0754
  504MOL0     N67956   9.238   6.325  10.119  0.2365 -1.3064  0.5707
  504MOL0     N67957   9.155   6.425  10.089  0.0086  0.4924  0.0372
  504MOL0     C67958   7.853   6.311  10.035  0.0212  0.0917  0.8685
  504MOL0     C67959   7.743   6.257  10.084 -0.5307 -0.4167 -0.4366
  504MOL0     C67960   7.306   6.189  10.172  0.4690 -0.1679  0.5112
  504MOL0     C67961   7.326   6.074  10.246  0.0055  0.5266  0.8017
  504MOL0     C67962   7.215   5.988  10.269 -1.2167 -0.3263  0.2840
  504MOL0     C67963   7.090   6.021  10.209 -0.1960 -0.7945 -0.6476
  504MOL0     O67964   6.973   5.943  10.215  0.3365 -0.1439  0.4781
  504MOL0     C67965   6.951   5.830  10.305 -1.0063 -0.6125  0.8347
  504MOL0     C67966   6.930   5.875  10.444  0.1292  0.1284  0.1459
  504MOL0     C67967   6.782   5.902  10.467 -0.5704  0.7664  1.0111
  504MOL0     C67968   6.743   5.927  10.604  0.6736 -0.6136 -0.2196
  504MOL0     C67969   6.804   6.058  10.646 -0.3431  0.1642  0.6183
  504MOL0     C67970   6.838   6.166  10.675  0.1830 -0.3759  0.5817
  504MOL0     C67971   7.078   6.135  10.138 -0.3365 -0.0902  0.1729
  504MOL0     C67972   7.181   6.223  10.127  0.8077 -0.3194 -0.0423
  504MOL0     H67973   7.638   6.510  10.286 -1.6108  0.4240 -0.3985
  504MOL0     H67974   7.821   6.606  10.206 -1.2999 -0.3670  0.6212
  504MOL0     H67975   7.993   6.700  10.026 -2.7983 -2.0475 -0.3678
  504MOL0     H67976   8.062   6.639  10.186  0.6449 -2.7740  1.9190
  504MOL0     H67977   8.214   6.590   9.919  0.2538  1.2773  0.2450
  504MOL0     H67978   8.229   6.733  10.018  2.4858  0.1566 -1.1244
  504MOL0     H67979   8.270   6.579  10.207  3.7668 -0.9705  1.6071
  504MOL0     H67980   8.283   6.440  10.093  0.5529 -0.3257 -0.9168
  504MOL0     H67981   8.441   6.572   9.966  2.4749 -1.4606 -0.1667
  504MOL0     H67982   8.452   6.686  10.091  0.9176 -1.3387  3.2767
  504MOL0     H67983   8.512   6.476  10.243  0.6961  1.0669  0.5698
  504MOL0     H67984   8.511   6.378  10.101 -0.9016  1.7238 -3.7549
  504MOL0     H67985   8.677   6.546   9.981 -0.8978  2.6975  0.9349
  504MOL0     H67986   8.678   6.625  10.136 -4.3698  0.3044 -2.5789
  504MOL0     H67987   8.760   6.434  10.250  2.3632 -0.2446 -0.8635
  504MOL0     H67988   8.768   6.329  10.105  1.0110 -1.4756  1.8684
  504MOL0     H67989   8.959   6.577  10.147  5.1185  0.0270 -2.8113
  504MOL0     H67990   8.906   6.531   9.998  2.5784  0.6239  0.4671
  504MOL0     H67991   8.941   6.199  10.176  0.4664 -0.6322 -1.6580
  504MOL0     H67992   9.292   6.083  10.230  0.0088 -0.1215 -0.3287
  504MOL0     H67993   9.135   6.036  10.237 -0.7457  3.9823  2.0609
  504MOL0     H67994   9.189   6.077   9.949 -4.8600  1.2099  0.4669
  504MOL0     H67995   9.115   5.937  10.030  0.2420 -0.3949  1.3603
  504MOL0     H67996   9.351   5.885  10.113 -0.9396  0.4579  1.8444
  504MOL0     H67997   9.413   5.993   9.978 -0.3269 -2.0359 -1.7222
  504MOL0     H67998   9.290   5.879   9.797 -1.6123 -0.9765 -0.6915
  504MOL0     H67999   9.232   5.773   9.907  1.1075 -1.1824  0.7169
  504MOL0     H68000   9.557   5.958   9.824  0.4431 -0.0055  0.6516
  504MOL0     H68001   9.864   6.006   9.739  0.6673 -3.6941 -2.4659
  504MOL0     H68002   9.784   6.051   9.575 -2.8556  1.3082 -0.6306
  504MOL0     H68003   9.709   6.086   9.745  0.5211  0.4514 -0.6348
  504MOL0     H68004  10.189   5.879   9.742 -2.2000 -0.0285 -2.0094
  504MOL0     H68005  10.426   5.820   9.701 -2.0260 -0.7326  0.6582
  504MOL0     H68006  10.499   5.657   9.272  2.4185  0.8393 -5.1928
  504MOL0     H68007  10.555   5.825   9.290  0.2263  1.7486  4.1587
  504MOL0     H68008  10.782   5.747   9.340 -1.2200  1.3344  1.1601
  504MOL0     H68009  10.709   5.585   9.389 -0.0791  0.5716  1.0804
  504MOL0     H68010  10.683   5.681   9.101 -0.9115  0.0132  1.5311
  504MOL0     H68011  10.677   5.522   9.164  2.3017 -2.1204 -0.1875
  504MOL0     H68012  10.918   5.688   9.122 -0.4644  0.4082 -0.6438
  504MOL0     H68013  10.911   5.513   9.196 -2.2809 -0.1657  1.4186
  504MOL0     H68014  10.818   5.584   8.913 -1.2335  0.4395 -0.1094
  504MOL0     H68015  10.799   5.428   8.983 -1.3331  0.8022  0.6877
  504MOL0     H68016  11.091   5.523   8.968 -0.7120  0.4545 -1.7335
  504MOL0     H68017  11.016   5.368   8.983  1.8921  0.7340  0.8738
  504MOL0     H68018  11.046   5.561   8.741  0.7792  1.0064  0.0374
  504MOL0     H68019  10.905   5.456   8.747  0.4881 -0.7110 -1.1403
  504MOL0     H68020  11.053   5.254   8.783  2.2327 -1.8252  0.1741
  504MOL0     H68021  11.195   5.358   8.788 -1.2645  0.6354  4.8715
  504MOL0     H68022  10.309   5.722   9.287 -2.0565 -2.4617  0.3368
  504MOL0     H68023  10.091   5.768   9.361 -0.6601 -1.4207  1.6418
  504MOL0     H68024   9.751   5.554   9.613 -0.2052 -1.3971  0.1545
  504MOL0     H68025   9.542   5.540   9.744 -0.7098  0.9595 -0.0882
  504MOL0     H68026   7.915   6.264   9.959  3.1800  4.4945  0.2768
  504MOL0     H68027   7.733   6.152  10.056 -2.0359 -0.7436  1.2101
  504MOL0     H68028   7.425   6.048  10.283  0.2526 -0.1111 -0.2694
  504MOL0     H68029   7.203   5.903  10.336 -2.1478 -1.1319 -0.8448
  504MOL0     H68030   6.865   5.779  10.261 -2.8168  3.3878 -0.8069
  504MOL0     H68031   7.034   5.759  10.302 -1.5171 -1.1854 -0.0394
  504MOL0     H68032   6.990   5.963  10.467 -1.6953  0.9332  2.1521
  504MOL0     H68033   6.957   5.792  10.510 -0.9032 -0.8121 -0.5822
  504MOL0     H68034   6.722   5.814  10.441  1.5334 -0.5830  0.4861
  504MOL0     H68035   6.747   5.986  10.407 -1.4127 -0.6187 -0.5388
  504MOL0     H68036   6.769   5.847  10.673 -0.8240  1.1223  2.5129
  504MOL0     H68037   6.636   5.947  10.604  0.6503 -0.3590 -2.7892
  504MOL0     H68038   6.860   6.269  10.697  0.0214 -0.1162 -0.4492
  504MOL0     H68039   6.976   6.158  10.113  0.1736  0.2849 -1.6969
  504MOL0     H68040   7.176   6.317  10.073  0.7623  1.0913  2.2707
  505MOL0     O68041   7.588   1.596   6.767  0.2517 -0.7753  0.2043
  505MOL0     C68042   7.711   1.620   6.777 -0.7673  0.1641 -0.1150
  505MOL0     O68043   7.781   1.698   6.683 -0.2447 -0.8896 -0.1697
  505MOL0     C68044   7.715   1.754   6.580 -0.3593 -0.1538  0.1519
  505MOL0     C68045   7.781   1.762   6.454  0.4486  0.2180 -0.3281
  505MOL0     C68046   7.731   1.814   6.338  0.0601  0.8452 -0.2577
  505MOL0     C68047   7.607   1.877   6.349 -0.7632  0.1948 -0.0708
  505MOL0     O68048   7.537   1.922   6.243  0.3181 -0.0344 -0.2374
  505MOL0     C68049   7.598   1.945   6.118  0.4524  0.2541  0.1950
  505MOL0     C68050   7.476   1.941   6.020  0.1677 -0.6662  0.1186
  505MOL0     C68051   7.532   1.979   5.885 -0.6656  0.4320 -0.1708
  505MOL0     C68052   7.432   1.909   5.786 -1.5848 -0.9321  0.2893
  505MOL0     C68053   7.475   1.938   5.636 -1.1770  0.1991  0.2473
  505MOL0     C68054   7.376   1.861   5.548 -0.4827  0.5182  1.0129
  505MOL0     C68055   7.383   1.911   5.396  0.3580  0.6778 -0.1778
  505MOL0     C68056   7.288   1.818   5.313 -0.4162 -0.4372 -0.3587
  505MOL0     N68057   7.268   1.872   5.183  0.2694  0.1536 -0.3018
  505MOL0     C68058   7.218   1.804   5.075  0.5984 -0.1628  0.4731
  505MOL0     C68059   7.216   1.907   4.980  0.6689  0.1498 -0.8141
  505MOL0     C68060   7.141   1.901   4.846  0.2225  0.3778 -0.8039
  505MOL0     C68061   6.996   1.927   4.860  0.5285 -0.1468 -0.2274
  505MOL0     C68062   6.931   1.913   4.712  0.6982 -0.4068 -0.2938
  505MOL0     C68063   6.774   1.944   4.713 -0.1514  0.0027  0.7258
  505MOL0     O68064   6.757   2.049   4.809  0.4345 -0.9509  0.1811
  505MOL0     C68065   6.650   2.067   4.892 -0.1350 -0.0618  0.6255
  505MOL0     C68066   6.519   2.082   4.851  0.0992  0.2188 -0.6320
  505MOL0     C68067   6.418   2.128   4.939  0.4727 -0.2061  0.2538
  505MOL0     C68068   6.273   2.133   4.898 -0.0785  0.0929 -0.2661
  505MOL0     C68069   6.465   2.169   5.070 -0.0123  0.4351 -0.7134
  505MOL0     C68070   6.378   2.228   5.176 -0.1195 -0.5855  2.0265
  505MOL0     O68071   6.424   2.227   5.308 -0.3759  0.3225 -0.0170
  505MOL0     C68072   6.386   2.314   5.402  0.6427 -0.2684 -0.2230
  505MOL0     C68073   6.292   2.280   5.497 -0.2146  0.2124  0.3606
  505MOL0     C68074   6.238   2.372   5.589  0.2773  0.3312  1.0203
  505MOL0     C68075   6.277   2.506   5.590 -1.8682 -0.6863 -0.2684
  505MOL0     O68076   6.223   2.587   5.684  0.3367  0.4677 -0.4858
  505MOL0     C68077   6.237   2.732   5.670 -0.0367 -0.1652  0.1036
  505MOL0     C68078   6.167   2.790   5.790 -0.3717  0.5382 -1.2748
  505MOL0     C68079   6.023   2.747   5.831 -0.6387  0.0989  0.5530
  505MOL0     C68080   5.965   2.816   5.956  0.3609 -1.0806 -0.1611
  505MOL0     C68081   5.839   2.747   6.009  0.1871 -0.7693 -0.6127
  505MOL0     C68082   5.727   2.734   5.912  0.2028 -0.3389 -0.1276
  505MOL0     C68083   5.610   2.676   5.979 -1.1325  0.5201  0.9767
  505MOL0     C68084   5.504   2.631   5.889  0.4423 -0.5012 -0.2110
  505MOL0    Cl68085   5.569   2.509   5.770 -0.1231  0.1610 -0.5262
  505MOL0     C68086   6.381   2.533   5.498 -0.6353  0.9690  0.2729
  505MOL0     C68087   6.436   2.438   5.410  0.1288  0.0255  0.7521
  505MOL0     O68088   6.288   2.294   5.121  0.0459 -0.4261  0.2052
  505MOL0     C68089   6.596   2.138   5.112  0.0724  0.4270  0.4617
  505MOL0     C68090   6.693   2.097   5.019 -0.4054 -1.0621 -0.6584
  505MOL0     N68091   7.286   2.022   5.029 -0.2519  0.5035  0.7438
  505MOL0     N68092   7.318   1.990   5.148 -0.1307  0.4752  0.4653
  505MOL0     C68093   7.545   1.893   6.477  0.0219 -0.5070  0.2274
  505MOL0     C68094   7.597   1.830   6.590 -0.3435  0.3024  0.2034
  505MOL0     C68095   7.791   1.575   6.902  0.3154  0.2444  0.1784
  505MOL0     C68096   7.919   1.618   6.923 -0.9364 -0.7735 -0.0759
  505MOL0     C68097   7.988   1.594   7.043  0.1005 -0.0286  0.5534
  505MOL0     C68098   7.921   1.539   7.153 -0.4987  0.0213  0.4736
  505MOL0     O68099   7.989   1.518   7.264 -0.3733  0.2754  0.0063
  505MOL0     C68100   8.101   1.591   7.304 -0.0536  0.1822  0.4821
  505MOL0     C68101   8.149   1.566   7.445 -0.0010 -1.1623 -1.0540
  505MOL0     C68102   8.141   1.692   7.545 -0.8631 -0.4936 -0.0201
  505MOL0     C68103   8.215   1.823   7.489 -0.1801  0.0381  0.1043
  505MOL0     C68104   8.353   1.801   7.445  0.6523 -0.8766 -0.0136
  505MOL0     C68105   8.468   1.773   7.427  0.2232 -0.7806  0.8282
  505MOL0     C68106   7.801   1.474   7.133 -0.6376 -0.4150  0.2862
  505MOL0     C68107   7.739   1.492   7.006  0.0090 -0.4224 -0.4542
  505MOL0     H68108   7.868   1.697   6.456  0.2404 -0.1178 -1.4327
  505MOL0     H68109   7.785   1.788   6.247 -1.6147  2.5111 -1.7942
  505MOL0     H68110   7.633   2.047   6.136 -0.0410 -0.0940  3.8960
  505MOL0     H68111   7.667   1.865   6.090 -1.2516  0.1503 -4.6989
  505MOL0     H68112   7.444   1.838   6.009  2.9900 -1.6672  0.3952
  505MOL0     H68113   7.390   2.005   6.041 -0.3518 -2.1139  2.8560
  505MOL0     H68114   7.534   2.086   5.867  1.7735  0.2459 -1.5351
  505MOL0     H68115   7.629   1.932   5.865 -0.9694  0.4355 -1.7281
  505MOL0     H68116   7.447   1.802   5.801  1.2861 -0.6187  0.1644
  505MOL0     H68117   7.327   1.937   5.801 -1.2159 -0.1917  1.6644
  505MOL0     H68118   7.466   2.045   5.615 -0.5973 -0.0174 -1.2144
  505MOL0     H68119   7.580   1.915   5.615 -0.6452  3.2286 -0.9689
  505MOL0     H68120   7.393   1.754   5.545  1.8100  0.8614 -0.2363
  505MOL0     H68121   7.276   1.873   5.591 -1.1310  3.1716 -0.9528
  505MOL0     H68122   7.346   2.014   5.396 -2.2954 -0.1736 -0.7308
  505MOL0     H68123   7.479   1.901   5.345  1.9918 -0.1323  2.8091
  505MOL0     H68124   7.193   1.801   5.364 -0.9954 -2.4506 -1.9950
  505MOL0     H68125   7.325   1.716   5.299 -1.8616 -1.3761  2.0631
  505MOL0     H68126   7.178   1.703   5.087  0.6424 -0.1959  0.3396
  505MOL0     H68127   7.190   1.979   4.787  1.3755 -2.0644 -3.3258
  505MOL0     H68128   7.152   1.808   4.790  0.0891  2.4439 -4.5598
  505MOL0     H68129   6.995   2.032   4.890  4.1296  0.2929 -1.1128
  505MOL0     H68130   6.959   1.857   4.936 -1.3720  0.8535 -0.1872
  505MOL0     H68131   6.933   1.810   4.675 -4.9580 -1.5284  1.4539
  505MOL0     H68132   6.974   1.983   4.640 -1.6570  2.4484  0.8795
  505MOL0     H68133   6.720   1.853   4.739  0.8306 -0.5848  0.7603
  505MOL0     H68134   6.741   1.978   4.614 -0.0060 -1.2199  0.2432
  505MOL0     H68135   6.495   2.046   4.751  1.1762 -1.3337 -0.3662
  505MOL0     H68136   6.251   2.231   4.855  2.4465  1.6824  1.7189
  505MOL0     H68137   6.252   2.056   4.824  0.4531  0.0776 -0.4074
  505MOL0     H68138   6.195   2.113   4.972  1.8395 -0.5551  1.7251
  505MOL0     H68139   6.255   2.179   5.488  1.6024 -0.3683 -1.3403
  505MOL0     H68140   6.176   2.345   5.673  2.9882  0.1180  3.0771
  505MOL0     H68141   6.345   2.747   5.665  0.1054 -1.1459  0.0904
  505MOL0     H68142   6.192   2.772   5.578  5.8252  1.4909 -2.5125
  505MOL0     H68143   6.225   2.774   5.882 -3.5388 -1.9553  0.5073
  505MOL0     H68144   6.152   2.895   5.766  0.7699  1.0765  0.2007
  505MOL0     H68145   6.034   2.641   5.856 -0.0405  0.4354  1.8209
  505MOL0     H68146   5.959   2.751   5.742 -2.1307  2.1252  1.6421
  505MOL0     H68147   6.039   2.819   6.036 -0.1542  1.6770  0.3154
  505MOL0     H68148   5.944   2.922   5.934  1.7797 -0.7125  0.1786
  505MOL0     H68149   5.811   2.796   6.103  1.3449  2.0444 -1.6160
  505MOL0     H68150   5.885   2.650   6.030 -0.4343 -1.3429 -1.8260
  505MOL0     H68151   5.718   2.837   5.874  0.7386  0.8077  2.6255
  505MOL0     H68152   5.769   2.667   5.837  1.4825 -2.1546  2.0957
  505MOL0     H68153   5.579   2.754   6.049  0.9247  3.8033 -1.4923
  505MOL0     H68154   5.645   2.587   6.033 -1.0557  1.2158  2.0883
  505MOL0     H68155   5.456   2.713   5.835  1.6402 -0.1553 -0.7857
  505MOL0     H68156   5.433   2.583   5.957  0.7067 -1.9491 -0.9079
  505MOL0     H68157   6.413   2.634   5.477  4.4688 -0.8463 -2.8630
  505MOL0     H68158   6.505   2.461   5.330  0.5538 -2.2271  0.4248
  505MOL0     H68159   6.631   2.168   5.210 -0.7118  1.4897  0.4340
  505MOL0     H68160   6.799   2.112   5.039 -0.0551  0.6083 -3.1668
  505MOL0     H68161   7.461   1.962   6.476  1.0971  0.8655 -1.5166
  505MOL0     H68162   7.552   1.864   6.683 -0.3961  3.3951 -0.8347
  505MOL0     H68163   7.968   1.690   6.859 -2.0007 -0.9248 -1.1082
  505MOL0     H68164   8.087   1.634   7.059  0.4308  1.1223 -3.2629
  505MOL0     H68165   8.183   1.562   7.237 -1.0249  0.4711 -0.8699
  505MOL0     H68166   8.077   1.697   7.300  1.0407  0.4925  1.5816
  505MOL0     H68167   8.252   1.528   7.437  1.0552  1.2142  0.2853
  505MOL0     H68168   8.086   1.487   7.487  0.9387 -0.1365  2.6301
  505MOL0     H68169   8.191   1.669   7.639 -4.7406 -1.3063  2.0150
  505MOL0     H68170   8.038   1.716   7.572 -1.2818 -1.9103 -0.2637
  505MOL0     H68171   8.228   1.900   7.566 -0.3744  1.2633 -1.0561
  505MOL0     H68172   8.152   1.864   7.409 -0.2112  4.2196  2.0075
  505MOL0     H68173   8.567   1.745   7.397  0.3067  1.0264 -0.7334
  505MOL0     H68174   7.745   1.409   7.199 -2.3588 -0.1843 -0.8814
  505MOL0     H68175   7.639   1.451   6.990 -0.9178  2.5883 -3.6010
  506MOL0     O68176   7.219   9.649  10.842 -0.2047 -0.8179  1.3112
  506MOL0     C68177   7.192   9.613  10.718 -0.1082 -0.2503 -0.4948
  506MOL0     O68178   7.143   9.494  10.673  0.1937  0.6267 -0.0025
  506MOL0     C68179   7.144   9.383  10.757  0.7279 -0.3306 -0.1541
  506MOL0     C68180   7.047   9.286  10.722  0.9670  0.1125 -0.8592
  506MOL0     C68181   7.029   9.174  10.800 -0.3692 -0.2735 -0.5707
  506MOL0     C68182   7.100   9.151  10.921  0.0520  0.3605  0.1988
  506MOL0     O68183   7.094   9.030  10.989  0.0161 -0.2084  0.3484
  506MOL0     C68184   6.993   9.014  11.088  0.0593 -0.6743 -0.3493
  506MOL0     C68185   6.960   9.136  11.167  0.5210 -0.7553  0.6913
  506MOL0     C68186   6.874   9.098  11.296  0.0163  0.7846  0.6090
  506MOL0     C68187   6.720   9.114  11.261 -0.0328 -0.0528  0.6533
  506MOL0     C68188   6.634   9.043  11.368  0.3189  0.0783  0.3353
  506MOL0     C68189   6.654   9.087  11.510  0.6723 -0.6650  0.2882
  506MOL0     C68190   6.533   9.026  11.582 -1.3486  0.0210  1.5412
  506MOL0     C68191   6.540   9.054  11.734  0.5231 -0.5064  0.3236
  506MOL0     N68192   6.416   9.001  11.787 -0.2767 -0.7006  0.2268
  506MOL0     C68193   6.358   8.877  11.752  0.5649  1.0636 -0.1416
  506MOL0     C68194   6.244   8.866  11.818 -0.1941 -1.2330  0.0119
  506MOL0     C68195   6.147   8.753  11.842 -0.0585  1.0972 -0.0044
  506MOL0     C68196   6.199   8.620  11.884 -0.6488 -0.3527  0.1182
  506MOL0     C68197   6.251   8.535  11.771 -0.6191  0.6843 -0.5664
  506MOL0     C68198   6.380   8.458  11.806 -0.3649  0.1457 -0.9795
  506MOL0     O68199   6.494   8.538  11.805  0.1424  0.2512 -0.5037
  506MOL0     C68200   6.554   8.558  11.683  0.8026 -0.7854 -0.6893
  506MOL0     C68201   6.666   8.637  11.669 -0.6515 -1.2698  0.8240
  506MOL0     C68202   6.744   8.657  11.553  0.5897  0.6246  0.2951
  506MOL0     C68203   6.871   8.735  11.569  0.4995 -1.0893  0.1792
  506MOL0     C68204   6.696   8.594  11.432 -0.0147  0.9002 -0.3377
  506MOL0     C68205   6.771   8.606  11.304  0.7572  0.0341  0.2399
  506MOL0     O68206   6.693   8.582  11.195  0.8680  0.0448 -0.0843
  506MOL0     C68207   6.737   8.636  11.075  0.5147  0.5572 -0.7745
  506MOL0     C68208   6.655   8.720  10.999 -0.2770 -0.2566 -0.8162
  506MOL0     C68209   6.704   8.772  10.877 -0.3674  0.0150  0.7299
  506MOL0     C68210   6.838   8.755  10.838 -1.1873 -0.3987 -0.2081
  506MOL0     O68211   6.864   8.804  10.709 -0.3100  0.0741 -0.2553
  506MOL0     C68212   6.974   8.740  10.651  0.9582 -0.0812  0.6171
  506MOL0     C68213   6.974   8.764  10.492  1.4766  1.6733  0.3053
  506MOL0     C68214   6.912   8.645  10.416 -0.0926 -0.7701 -0.5771
  506MOL0     C68215   6.758   8.622  10.466  0.3406  0.1357 -0.2590
  506MOL0     C68216   6.732   8.474  10.498 -0.1343  0.0936 -0.6288
  506MOL0     C68217   6.602   8.461  10.577  0.6328  0.1127  0.8422
  506MOL0     C68218   6.469   8.497  10.495 -0.6895  0.4501 -0.0590
  506MOL0     C68219   6.332   8.475  10.561  0.3339 -0.3573 -0.2250
  506MOL0    Cl68220   6.194   8.510  10.451 -0.0101 -0.4049 -0.5999
  506MOL0     C68221   6.919   8.660  10.911  0.5649  0.1147 -0.2162
  506MOL0     C68222   6.865   8.601  11.026 -0.0899  0.9703 -0.4817
  506MOL0     O68223   6.889   8.624  11.304 -0.4753 -0.8104 -1.7168
  506MOL0     C68224   6.567   8.539  11.443  0.6395 -0.1627 -0.6574
  506MOL0     C68225   6.492   8.518  11.564  0.3400  0.4088  0.2737
  506MOL0     N68226   6.233   8.986  11.891 -0.2654 -0.4583  0.3114
  506MOL0     N68227   6.341   9.058  11.879 -0.1488  0.1197 -0.1259
  506MOL0     C68228   7.198   9.242  10.952  0.7438  0.2646 -0.9521
  506MOL0     C68229   7.214   9.359  10.875 -0.1345 -0.6962 -0.3233
  506MOL0     C68230   7.190   9.723  10.617 -0.5153 -0.2941  0.5745
  506MOL0     C68231   7.183   9.855  10.665  0.3809  0.6858 -0.6105
  506MOL0     C68232   7.210   9.965  10.584 -0.7735  0.9371 -0.4266
  506MOL0     C68233   7.238   9.948  10.447  0.3434 -0.2725  0.2530
  506MOL0     O68234   7.272  10.045  10.353 -0.3050  0.5745 -0.6233
  506MOL0     C68235   7.403  10.098  10.380 -0.2941 -0.7776  0.2659
  506MOL0     C68236   7.468  10.166  10.250 -1.3743 -0.2539  0.3790
  506MOL0     C68237   7.403  10.121  10.121 -1.6659 -0.0036 -0.3451
  506MOL0     C68238   7.435   9.972  10.088  0.5987  0.3939 -1.2743
  506MOL0     C68239   7.572   9.967  10.047  0.0143  0.6537  0.4987
  506MOL0     C68240   7.684   9.963  10.003 -0.8316 -0.7463 -0.6144
  506MOL0     C68241   7.234   9.819  10.399  0.5628 -0.0876 -0.1768
  506MOL0     C68242   7.211   9.702  10.483  0.4822 -1.4619  0.0872
  506MOL0     H68243   6.995   9.306  10.629  0.0357  3.9536  0.3119
  506MOL0     H68244   6.949   9.104  10.775 -0.6546 -0.2918  0.3568
  506MOL0     H68245   6.904   8.977  11.037  1.0163  1.1546 -3.6795
  506MOL0     H68246   7.041   8.939  11.152  1.5809  0.2236 -0.3702
  506MOL0     H68247   7.053   9.188  11.191  0.0109  0.4071  0.2350
  506MOL0     H68248   6.913   9.215  11.107 -0.8098 -1.7583  0.3719
  506MOL0     H68249   6.899   8.999  11.333 -1.1831  1.6888  4.1726
  506MOL0     H68250   6.910   9.169  11.371  3.4111 -2.5253  2.4839
  506MOL0     H68251   6.697   9.220  11.253  1.9169  0.3639  0.1228
  506MOL0     H68252   6.700   9.064  11.166  0.2473  0.1581  0.4865
  506MOL0     H68253   6.530   9.052  11.335  0.3783  1.5108  0.5146
  506MOL0     H68254   6.638   8.933  11.361 -1.8078 -0.1100  1.3272
  506MOL0     H68255   6.753   9.053  11.541  0.6689 -3.5624 -2.3881
  506MOL0     H68256   6.640   9.195  11.523 -3.3104 -1.2877  2.8651
  506MOL0     H68257   6.438   9.070  11.552 -0.6767  0.3158 -0.2821
  506MOL0     H68258   6.539   8.919  11.564 -1.6085  0.3217 -0.6858
  506MOL0     H68259   6.547   9.162  11.753  1.9813 -0.6404  0.7246
  506MOL0     H68260   6.633   9.005  11.766  0.3466 -0.0115  1.6353
  506MOL0     H68261   6.403   8.800  11.690 -2.2117 -0.7057 -0.1238
  506MOL0     H68262   6.069   8.784  11.912  0.8393  1.4830  0.8504
  506MOL0     H68263   6.101   8.737  11.744 -2.9222  0.8027  1.2869
  506MOL0     H68264   6.115   8.576  11.939 -4.1875  2.5153 -2.4268
  506MOL0     H68265   6.282   8.638  11.954  0.8015 -0.8057 -1.4258
  506MOL0     H68266   6.246   8.590  11.676 -1.1241 -0.4392 -1.2019
  506MOL0     H68267   6.173   8.459  11.763 -0.9227  1.0940 -1.6675
  506MOL0     H68268   6.382   8.369  11.743 -3.6308 -1.7790  1.2880
  506MOL0     H68269   6.362   8.421  11.908 -0.2641 -1.4971 -1.5254
  506MOL0     H68270   6.701   8.683  11.761  0.2122 -0.1987 -0.0210
  506MOL0     H68271   6.872   8.779  11.669 -1.1038  2.7727 -1.3086
  506MOL0     H68272   6.956   8.670  11.549  0.7340 -0.5678 -0.5603
  506MOL0     H68273   6.860   8.810  11.490 -2.1116 -2.4014 -0.8107
  506MOL0     H68274   6.552   8.722  11.032 -0.0236  2.8203  0.1103
  506MOL0     H68275   6.647   8.840  10.815  2.0922  1.8621  0.3820
  506MOL0     H68276   7.056   8.799  10.692 -0.2861  1.8967  0.3806
  506MOL0     H68277   6.979   8.633  10.674 -0.9287 -0.5401 -0.8470
  506MOL0     H68278   6.922   8.859  10.478  2.8777  2.3190 -0.7524
  506MOL0     H68279   7.081   8.777  10.473  1.9779 -0.5250  1.3436
  506MOL0     H68280   6.972   8.556  10.442 -0.0543 -1.0559 -1.6004
  506MOL0     H68281   6.934   8.634  10.309  2.2803 -3.4642  0.0499
  506MOL0     H68282   6.733   8.684  10.553  1.2668 -3.2492  2.6649
  506MOL0     H68283   6.696   8.661  10.385  0.6017 -1.7363 -1.4131
  506MOL0     H68284   6.817   8.440  10.558 -0.6460  0.4786  0.3326
  506MOL0     H68285   6.725   8.409  10.410 -2.8053  2.1788 -2.1042
  506MOL0     H68286   6.608   8.356  10.607  0.8444 -0.0474  0.2523
  506MOL0     H68287   6.615   8.516  10.671  0.7718 -0.0043  0.8912
  506MOL0     H68288   6.469   8.432  10.407  0.2351 -0.2562  0.4418
  506MOL0     H68289   6.467   8.606  10.479  2.3365  0.2298 -3.1774
  506MOL0     H68290   6.330   8.542  10.648  1.5317  1.5425 -1.5630
  506MOL0     H68291   6.321   8.370  10.589  1.3251 -0.6342 -0.7913
  506MOL0     H68292   7.018   8.635  10.873  0.2857 -0.9868 -0.2411
  506MOL0     H68293   6.920   8.523  11.078 -2.6096 -0.9242 -0.4992
  506MOL0     H68294   6.504   8.501  11.363 -1.6468  0.9270  0.5309
  506MOL0     H68295   6.395   8.471  11.547  0.9074 -0.1199 -1.8296
  506MOL0     H68296   7.263   9.209  11.033 -1.4032 -1.4441  0.1909
  506MOL0     H68297   7.294   9.425  10.905  1.3177 -1.7521 -1.7157
  506MOL0     H68298   7.167   9.874  10.770 -2.1376 -0.8415 -0.6262
  506MOL0     H68299   7.197  10.065  10.622 -0.9098  0.3489  1.1822
  506MOL0     H68300   7.390  10.169  10.462 -3.3930 -1.0457  0.1097
  506MOL0     H68301   7.476  10.022  10.410 -0.3637 -0.3644  1.5217
  506MOL0     H68302   7.574  10.140  10.249 -1.5083 -0.9615 -2.1467
  506MOL0     H68303   7.453  10.271  10.274 -1.1118 -0.3041  0.7846
  506MOL0     H68304   7.447  10.190  10.049  0.7449 -1.6398 -0.5725
  506MOL0     H68305   7.295  10.136  10.128 -1.9978 -2.6128  2.3578
  506MOL0     H68306   7.373   9.934  10.006 -0.4919 -1.6994  0.4218
  506MOL0     H68307   7.415   9.916  10.180 -0.9068  1.9414 -0.5832
  506MOL0     H68308   7.779   9.973   9.954 -1.1614  1.2250 -0.9436
  506MOL0     H68309   7.271   9.807  10.298  2.5625 -1.6912  0.6853
  506MOL0     H68310   7.225   9.604  10.440  2.3217  0.0368 -3.1301
  507MOL0     O68311   3.341   9.979   5.527  0.5821 -0.0294 -0.7333
  507MOL0     C68312   3.344   9.966   5.410  1.2583 -0.1389  1.0394
  507MOL0     O68313   3.286   9.866   5.343 -0.1617 -0.6148  0.3576
  507MOL0     C68314   3.235   9.773   5.422 -0.3959  0.0136 -0.4149
  507MOL0     C68315   3.108   9.787   5.476  0.3573 -0.4672  0.0690
  507MOL0     C68316   3.072   9.704   5.578  0.1577  0.4566  0.6285
  507MOL0     C68317   3.152   9.593   5.620 -1.2800  0.3250 -0.4455
  507MOL0     O68318   3.101   9.491   5.696  0.3267 -0.9443 -0.0929
  507MOL0     C68319   3.016   9.533   5.815  0.1952  0.3832  0.1951
  507MOL0     C68320   3.024   9.435   5.931 -0.2100 -0.2958  0.2472
  507MOL0     C68321   2.942   9.484   6.045  0.4943 -0.8611 -0.9045
  507MOL0     C68322   2.999   9.446   6.181 -0.7926  0.4204  1.0142
  507MOL0     C68323   2.952   9.304   6.214 -0.1982  0.5599 -0.9934
  507MOL0     C68324   3.014   9.246   6.345 -0.5849  0.0650 -0.3051
  507MOL0     C68325   2.985   9.096   6.377 -0.5494  0.3044  0.2933
  507MOL0     C68326   3.036   8.993   6.265  0.8783 -0.1557 -0.8463
  507MOL0     N68327   3.182   8.986   6.256  0.5846  0.3652  0.5188
  507MOL0     C68328   3.262   8.876   6.277  0.2171  0.3099 -0.1497
  507MOL0     C68329   3.381   8.897   6.213 -0.0645 -0.1816 -0.0568
  507MOL0     C68330   3.513   8.814   6.212  0.4580 -0.3845  0.0218
  507MOL0     C68331   3.509   8.699   6.115 -1.3357  0.1552  0.0906
  507MOL0     C68332   3.652   8.644   6.101 -0.7564  0.2309  1.1051
  507MOL0     C68333   3.743   8.725   6.004 -0.4129 -0.0533  0.3284
  507MOL0     O68334   3.865   8.647   5.982 -0.1181 -0.1421 -1.0155
  507MOL0     C68335   3.973   8.720   5.927 -0.1489 -1.4338 -0.3706
  507MOL0     C68336   4.100   8.670   5.941  0.4662  0.3092 -0.4233
  507MOL0     C68337   4.209   8.719   5.865  0.1584  0.2251 -0.5499
  507MOL0     C68338   4.337   8.648   5.896 -0.9437  0.7284 -0.0665
  507MOL0     C68339   4.187   8.817   5.762  0.9717  0.0662 -0.6227
  507MOL0     C68340   4.304   8.870   5.681  0.6820  0.0186  0.1397
  507MOL0     O68341   4.346   9.000   5.692 -0.7478 -0.3158 -0.1040
  507MOL0     C68342   4.436   9.057   5.605  0.5996 -0.1714  0.1382
  507MOL0     C68343   4.559   9.010   5.577  1.0955 -0.1947  0.0730
  507MOL0     C68344   4.632   9.056   5.466 -0.4610  0.9183  0.4934
  507MOL0     C68345   4.599   9.179   5.416  0.2441  0.7634 -0.5567
  507MOL0     O68346   4.662   9.241   5.322 -0.2419  0.5036  0.2507
  507MOL0     C68347   4.805   9.223   5.312 -0.2041 -0.2002  0.2660
  507MOL0     C68348   4.868   9.359   5.276  0.1051  0.3235 -0.4462
  507MOL0     C68349   4.882   9.449   5.396 -0.3816 -0.1487  0.9489
  507MOL0     C68350   4.986   9.557   5.403 -0.4401 -0.3405  0.2894
  507MOL0     C68351   5.015   9.605   5.541  0.9956 -0.7746 -0.2074
  507MOL0     C68352   5.157   9.664   5.535  0.6391  0.0067 -0.3689
  507MOL0     C68353   5.196   9.743   5.660  0.7561 -0.2121  0.8646
  507MOL0     C68354   5.350   9.744   5.676  0.4420  0.0882  0.7324
  507MOL0    Cl68355   5.388   9.845   5.820 -0.8112 -0.0446  0.3142
  507MOL0     C68356   4.476   9.239   5.451 -1.0810  0.1613  0.2666
  507MOL0     C68357   4.386   9.177   5.542 -0.9403 -0.0649 -0.4694
  507MOL0     O68358   4.346   8.789   5.603 -0.2159  0.0781  0.2283
  507MOL0     C68359   4.047   8.864   5.751  0.2112 -0.8651  0.1009
  507MOL0     C68360   3.946   8.820   5.831 -0.2236  0.4986  0.8187
  507MOL0     N68361   3.363   9.022   6.152  0.2765  0.2137 -0.0044
  507MOL0     N68362   3.253   9.078   6.171  0.0915 -0.5797 -0.3942
  507MOL0     C68363   3.281   9.579   5.559 -0.2823  0.5872  0.1775
  507MOL0     C68364   3.316   9.661   5.457 -0.8033 -0.2901  0.3320
  507MOL0     C68365   3.389  10.083   5.320  0.8119  0.8848  0.2752
  507MOL0     C68366   3.372  10.093   5.185 -1.0357  0.0872  0.0909
  507MOL0     C68367   3.428  10.209   5.119  0.7058 -0.1554 -0.2603
  507MOL0     C68368   3.460  10.327   5.182  0.0921 -0.1783 -0.5298
  507MOL0     O68369   3.504  10.438   5.114  0.1902  0.1287  0.0252
  507MOL0     C68370   3.509  10.565   5.176 -0.1124  0.2679 -0.4635
  507MOL0     C68371   3.559  10.669   5.079 -0.1717  0.1629 -0.3569
  507MOL0     C68372   3.528  10.813   5.128 -0.8840 -1.0477  0.5748
  507MOL0     C68373   3.522  10.920   5.016 -0.5159 -1.1117  0.6078
  507MOL0     C68374   3.393  10.926   4.948  1.1908 -0.7105 -0.4623
  507MOL0     C68375   3.300  10.925   4.873  0.8464 -0.0134 -0.6296
  507MOL0     C68376   3.466  10.314   5.320 -0.5199 -0.5485  0.4739
  507MOL0     C68377   3.431  10.197   5.385  0.0019 -0.1844  0.0775
  507MOL0     H68378   3.043   9.871   5.452  0.0999 -0.0038  2.1169
  507MOL0     H68379   2.976   9.725   5.625 -0.2892 -2.8449  1.4751
  507MOL0     H68380   3.057   9.628   5.851 -0.7724  0.8615  0.0713
  507MOL0     H68381   2.914   9.547   5.777  1.2647  1.1533 -2.7359
  507MOL0     H68382   2.994   9.336   5.897 -0.6118 -0.8643  2.1644
  507MOL0     H68383   3.127   9.431   5.967 -0.1216 -0.3579 -0.0101
  507MOL0     H68384   2.936   9.593   6.037  1.7170 -0.6629  0.3892
  507MOL0     H68385   2.842   9.441   6.032  0.3097 -1.0786  0.9443
  507MOL0     H68386   3.107   9.451   6.166 -0.8410  3.1017  0.9867
  507MOL0     H68387   2.971   9.517   6.260 -2.6125  1.8941 -0.8385
  507MOL0     H68388   2.842   9.304   6.212 -0.2047  0.5200 -0.6953
  507MOL0     H68389   2.978   9.237   6.131  1.7813 -1.3824  1.0278
  507MOL0     H68390   3.119   9.274   6.358 -1.1207  1.5801  1.0813
  507MOL0     H68391   2.978   9.312   6.424  3.0706  0.2470  1.4356
  507MOL0     H68392   3.028   9.079   6.476  0.7615 -1.8540 -0.5896
  507MOL0     H68393   2.876   9.087   6.385 -1.0786  2.5506 -2.6304
  507MOL0     H68394   2.987   9.014   6.170 -1.2624 -1.3835 -0.0705
  507MOL0     H68395   2.996   8.895   6.292  1.9432 -0.0620  1.2893
  507MOL0     H68396   3.237   8.785   6.331  0.1042  0.4527  0.0413
  507MOL0     H68397   3.592   8.885   6.186 -0.6582  0.5531 -0.8961
  507MOL0     H68398   3.531   8.770   6.310  3.1937 -1.5631 -0.9112
  507MOL0     H68399   3.486   8.737   6.015  1.5629 -1.7928 -1.4771
  507MOL0     H68400   3.435   8.622   6.140 -0.9838 -0.4263 -0.5970
  507MOL0     H68401   3.627   8.552   6.045 -0.5469 -0.5606  2.2853
  507MOL0     H68402   3.691   8.615   6.199 -3.3168  1.2263  2.4899
  507MOL0     H68403   3.775   8.816   6.056 -0.4331 -0.0793  0.3869
  507MOL0     H68404   3.700   8.752   5.907  0.5202 -0.6055 -0.2460
  507MOL0     H68405   4.119   8.597   6.018  1.4827  4.0756  3.2662
  507MOL0     H68406   4.386   8.693   5.983 -0.7040 -0.7311  0.5812
  507MOL0     H68407   4.324   8.541   5.913  0.8919  0.1563 -1.9282
  507MOL0     H68408   4.399   8.654   5.806 -0.0551 -1.1476  0.3601
  507MOL0     H68409   4.583   8.920   5.633 -3.2758 -2.4403 -1.1739
  507MOL0     H68410   4.722   9.004   5.437 -0.0279  0.7123  2.1171
  507MOL0     H68411   4.851   9.176   5.399  3.4675  0.0160 -1.3604
  507MOL0     H68412   4.820   9.157   5.226 -0.5635 -0.1154  0.1372
  507MOL0     H68413   4.964   9.349   5.224 -0.8750 -0.5469 -2.1803
  507MOL0     H68414   4.806   9.410   5.202  0.3182  0.0050 -0.8515
  507MOL0     H68415   4.904   9.381   5.479 -0.2202 -1.7620 -0.3634
  507MOL0     H68416   4.785   9.495   5.419 -0.0948 -1.1038  4.6930
  507MOL0     H68417   5.076   9.520   5.353 -1.1486 -0.0098 -1.3256
  507MOL0     H68418   4.979   9.644   5.336  2.6523  1.8122  2.4902
  507MOL0     H68419   5.016   9.527   5.617  0.4217  0.4536  1.1165
  507MOL0     H68420   4.948   9.682   5.582 -1.3985 -2.0353 -1.5688
  507MOL0     H68421   5.224   9.581   5.513 -2.5969 -2.9156 -0.0712
  507MOL0     H68422   5.168   9.737   5.454  0.1094  0.4436 -0.0598
  507MOL0     H68423   5.158   9.699   5.753  1.0371 -2.2574  0.0454
  507MOL0     H68424   5.159   9.846   5.651 -3.4628 -1.4380  1.9400
  507MOL0     H68425   5.398   9.787   5.587 -0.6919  0.3866  0.2410
  507MOL0     H68426   5.385   9.640   5.681  1.1730  0.3744  1.8656
  507MOL0     H68427   4.446   9.327   5.395  0.1771 -0.2079 -1.0526
  507MOL0     H68428   4.286   9.213   5.561 -0.7625 -0.3255  1.0937
  507MOL0     H68429   4.041   8.927   5.663  1.1723  1.0689  1.3638
  507MOL0     H68430   3.848   8.843   5.790  0.6164  2.7036 -0.1272
  507MOL0     H68431   3.330   9.491   5.601 -2.2069 -0.5941  0.0707
  507MOL0     H68432   3.409   9.661   5.401 -0.8242  0.6151  0.2780
  507MOL0     H68433   3.348  10.009   5.121  0.8984  0.3893 -1.1105
  507MOL0     H68434   3.420  10.218   5.012 -2.5876 -1.3664 -0.2508
  507MOL0     H68435   3.412  10.590   5.218 -0.5697 -3.2364  0.9457
  507MOL0     H68436   3.573  10.538   5.261 -0.3948 -0.3545 -0.4450
  507MOL0     H68437   3.500  10.649   4.990 -1.4357 -3.1645  1.0748
  507MOL0     H68438   3.663  10.643   5.055 -0.2235  0.2044 -0.6298
  507MOL0     H68439   3.595  10.840   5.210 -1.3106  1.2736  0.2048
  507MOL0     H68440   3.432  10.806   5.180 -1.2937 -1.7493 -0.2434
  507MOL0     H68441   3.605  10.909   4.946 -0.8928 -0.5156  0.0548
  507MOL0     H68442   3.541  11.014   5.068 -1.3984 -0.9472  0.6455
  507MOL0     H68443   3.236  10.915   4.787  0.5776 -1.2873 -0.3062
  507MOL0     H68444   3.487  10.394   5.390 -1.9376  0.5815 -0.3253
  507MOL0     H68445   3.444  10.203   5.493 -0.1568 -1.3480  0.1661
  508MOL0     O68446   6.498   2.664   3.670  0.6076  0.4253  0.2923
  508MOL0     C68447   6.609   2.605   3.693 -0.7019  1.2007  0.3023
  508MOL0     O68448   6.730   2.667   3.713 -0.7579  0.4848 -0.2976
  508MOL0     C68449   6.743   2.809   3.701  1.5866  0.7317  0.0319
  508MOL0     C68450   6.754   2.883   3.815  0.3095 -0.4992 -0.0904
  508MOL0     C68451   6.758   3.027   3.814 -0.2072 -0.2543  0.2214
  508MOL0     C68452   6.743   3.095   3.693 -0.7719  0.6015 -0.4648
  508MOL0     O68453   6.744   3.233   3.703 -0.2342 -0.0169  0.1055
  508MOL0     C68454   6.748   3.312   3.586 -0.3390  0.8993 -0.7545
  508MOL0     C68455   6.724   3.458   3.629  0.4140  0.1033  0.1562
  508MOL0     C68456   6.586   3.519   3.670 -0.2138 -0.2365  0.3721
  508MOL0     C68457   6.491   3.497   3.552 -0.0768 -0.2554 -0.2241
  508MOL0     C68458   6.379   3.599   3.569 -0.1757  0.4777  0.1108
  508MOL0     C68459   6.295   3.599   3.443  0.4441  0.2202 -0.3333
  508MOL0     C68460   6.183   3.701   3.431  0.9783  1.7261  0.5939
  508MOL0     C68461   6.051   3.672   3.519 -0.0720  0.2415 -0.0487
  508MOL0     N68462   5.964   3.556   3.485 -0.6081  0.1546  0.4900
  508MOL0     C68463   5.957   3.511   3.359 -1.0849  0.4113  0.5018
  508MOL0     C68464   5.893   3.391   3.372 -0.7164 -0.2143  0.9040
  508MOL0     C68465   5.843   3.303   3.261 -0.2619 -0.2275  0.1353
  508MOL0     C68466   5.701   3.345   3.212 -1.1076  0.8088  0.2148
  508MOL0     C68467   5.654   3.266   3.088 -0.2624  0.0955 -1.1089
  508MOL0     C68468   5.651   3.108   3.101 -0.0840  0.3064 -0.1896
  508MOL0     O68469   5.518   3.061   3.087  0.8491 -0.3457 -0.3299
  508MOL0     C68470   5.460   3.068   2.957  0.6718 -0.5488 -0.1913
  508MOL0     C68471   5.320   3.041   2.943 -0.1371  0.0942 -0.5535
  508MOL0     C68472   5.248   3.061   2.820  0.3984 -0.3477 -0.1572
  508MOL0     C68473   5.091   3.042   2.843  0.5083  0.1277 -0.5477
  508MOL0     C68474   5.318   3.106   2.697  0.4350  0.3497 -0.8946
  508MOL0     C68475   5.255   3.110   2.558  0.4754  0.2407 -0.7553
  508MOL0     O68476   5.138   3.052   2.528  0.3286  0.1375  0.4696
  508MOL0     C68477   5.059   3.114   2.426 -0.7908 -0.0863 -1.3922
  508MOL0     C68478   5.042   3.052   2.304  0.5220  0.1909  0.1678
  508MOL0     C68479   4.963   3.110   2.205  0.3951  0.5584 -0.0586
  508MOL0     C68480   4.912   3.242   2.223 -0.5523  0.1122  0.0428
  508MOL0     O68481   4.831   3.289   2.132 -0.1340  0.0274  1.4192
  508MOL0     C68482   4.766   3.414   2.156 -0.3489  0.7345 -0.0959
  508MOL0     C68483   4.644   3.419   2.063  0.5959  0.1168  0.0268
  508MOL0     C68484   4.560   3.294   2.071 -0.9948 -0.2100 -0.7111
  508MOL0     C68485   4.562   3.211   1.938 -0.2106 -0.0771  0.4649
  508MOL0     C68486   4.495   3.076   1.947  0.3502 -1.0046 -0.4049
  508MOL0     C68487   4.484   3.015   1.807 -0.1208  0.7677  0.4233
  508MOL0     C68488   4.619   2.947   1.759  0.7278 -0.5889  0.3114
  508MOL0     C68489   4.590   2.826   1.667 -0.0084 -0.2549 -0.2998
  508MOL0    Cl68490   4.489   2.693   1.742  0.1633 -0.1433 -0.1319
  508MOL0     C68491   4.935   3.301   2.348 -0.1794 -0.8099 -0.4456
  508MOL0     C68492   5.002   3.238   2.445  0.3383 -0.1685 -0.7948
  508MOL0     O68493   5.320   3.180   2.478 -0.3335 -0.1673 -0.3183
  508MOL0     C68494   5.456   3.140   2.714 -0.1781 -0.0555 -1.1002
  508MOL0     C68495   5.528   3.113   2.836  0.4690 -0.6019 -0.5668
  508MOL0     N68496   5.868   3.376   3.504  0.3398  1.0726  0.8342
  508MOL0     N68497   5.910   3.474   3.577 -0.2270 -0.4684 -0.2202
  508MOL0     C68498   6.732   3.018   3.573  0.2390 -0.4067 -1.4550
  508MOL0     C68499   6.743   2.879   3.584  0.1104 -0.1528  0.6183
  508MOL0     C68500   6.608   2.457   3.702 -0.0326 -0.2288  0.8307
  508MOL0     C68501   6.486   2.373   3.699 -0.1165 -0.9969 -0.1808
  508MOL0     C68502   6.492   2.234   3.731  0.1633  0.0995  0.1395
  508MOL0     C68503   6.612   2.185   3.787  0.2137  0.0585 -0.2525
  508MOL0     O68504   6.628   2.059   3.845  0.4368  0.1476  0.0577
  508MOL0     C68505   6.510   1.986   3.880 -0.7052 -0.0956 -0.8214
  508MOL0     C68506   6.561   1.896   3.991  0.4453 -0.4012 -0.1775
  508MOL0     C68507   6.478   1.768   3.998 -0.6406 -0.1939  0.5744
  508MOL0     C68508   6.517   1.659   3.893  0.3895  0.7286 -0.3887
  508MOL0     C68509   6.452   1.527   3.926 -0.2029 -0.1010 -0.2868
  508MOL0     C68510   6.410   1.419   3.951  0.4806  0.0799 -0.5515
  508MOL0     C68511   6.730   2.259   3.791 -0.1173 -0.7490 -0.1856
  508MOL0     C68512   6.732   2.394   3.741  0.3213 -0.6057  0.3690
  508MOL0     H68513   6.753   2.829   3.909 -0.6077 -0.8706 -0.3044
  508MOL0     H68514   6.777   3.082   3.905 -2.7560  2.0262 -0.4771
  508MOL0     H68515   6.848   3.296   3.546 -0.5432 -1.0417 -0.5793
  508MOL0     H68516   6.675   3.282   3.511 -2.1744  3.6902 -0.2506
  508MOL0     H68517   6.797   3.467   3.710  1.4900  0.9920 -0.8711
  508MOL0     H68518   6.761   3.532   3.557 -3.6314  4.6298  2.1138
  508MOL0     H68519   6.535   3.477   3.757 -5.0587  0.9124 -1.5722
  508MOL0     H68520   6.603   3.626   3.684 -0.3776 -0.2443  0.6327
  508MOL0     H68521   6.541   3.506   3.455  0.7253 -1.1485  0.0916
  508MOL0     H68522   6.452   3.397   3.573  0.7156 -1.4422 -3.6887
  508MOL0     H68523   6.321   3.578   3.659 -2.0578  4.7499  0.1311
  508MOL0     H68524   6.421   3.699   3.580 -0.5081  0.5000  1.3012
  508MOL0     H68525   6.357   3.602   3.353 -2.4863  0.6212 -2.4883
  508MOL0     H68526   6.247   3.501   3.436  1.5927 -0.2694 -5.1291
  508MOL0     H68527   6.234   3.796   3.449  1.7429  1.2008  1.3100
  508MOL0     H68528   6.145   3.690   3.329 -0.0758 -0.7846  1.1698
  508MOL0     H68529   5.985   3.758   3.509  2.6319  2.6748  1.3229
  508MOL0     H68530   6.078   3.670   3.625  1.9131 -2.8511 -0.4667
  508MOL0     H68531   5.986   3.567   3.271  2.6405  0.8031  1.8066
  508MOL0     H68532   5.905   3.307   3.171 -0.1296  4.2314  0.1852
  508MOL0     H68533   5.842   3.196   3.283  3.3026 -0.9020 -2.1593
  508MOL0     H68534   5.707   3.452   3.190  0.3017  0.9306  1.0493
  508MOL0     H68535   5.648   3.318   3.304  3.5500 -0.9476  2.7420
  508MOL0     H68536   5.729   3.290   3.012  3.5780 -2.9598  1.3339
  508MOL0     H68537   5.551   3.298   3.068 -0.5102 -1.7671 -3.1858
  508MOL0     H68538   5.681   3.078   3.202 -1.6239  2.1954  0.8908
  508MOL0     H68539   5.718   3.057   3.032 -1.4298 -2.7236  0.5890
  508MOL0     H68540   5.271   2.998   3.030  0.1813  0.8673  0.0229
  508MOL0     H68541   5.049   3.140   2.871 -0.2678  0.1378 -1.6982
  508MOL0     H68542   5.046   3.014   2.747 -0.9638 -0.9088  0.3927
  508MOL0     H68543   5.073   2.966   2.920 -1.6669  1.6291  0.5745
  508MOL0     H68544   5.094   2.958   2.287 -1.9028 -1.0216 -1.2048
  508MOL0     H68545   4.967   3.062   2.108  0.7232 -3.4962  1.7523
  508MOL0     H68546   4.724   3.409   2.257  2.9181 -1.5551  1.2945
  508MOL0     H68547   4.822   3.508   2.149  1.8839 -0.3786  1.6841
  508MOL0     H68548   4.566   3.490   2.090  0.2081 -0.5219  0.6269
  508MOL0     H68549   4.687   3.422   1.962 -0.3087 -0.1299 -0.3714
  508MOL0     H68550   4.457   3.326   2.086 -0.1893  1.8935  0.8243
  508MOL0     H68551   4.580   3.221   2.150 -0.6431 -0.1946 -0.7851
  508MOL0     H68552   4.500   3.258   1.862 -3.8957 -0.7848  2.8043
  508MOL0     H68553   4.665   3.195   1.904 -1.3435 -3.3473 -2.0396
  508MOL0     H68554   4.398   3.098   1.993 -1.3782 -1.0463 -3.7089
  508MOL0     H68555   4.552   3.014   2.016  0.9133 -2.3810 -2.0213
  508MOL0     H68556   4.412   2.933   1.803 -0.6717  1.2819 -0.5570
  508MOL0     H68557   4.452   3.080   1.726 -0.7986 -0.2986 -0.1925
  508MOL0     H68558   4.680   2.912   1.843  0.3780 -1.0260  0.3832
  508MOL0     H68559   4.678   3.022   1.704 -1.2425 -0.8257 -2.3330
  508MOL0     H68560   4.685   2.777   1.641  0.8437  1.1312  0.1025
  508MOL0     H68561   4.533   2.855   1.578  0.6213  1.5178 -0.1584
  508MOL0     H68562   4.909   3.405   2.366  1.4472 -0.9076  3.3283
  508MOL0     H68563   5.025   3.299   2.531  0.1876  0.4402 -1.1821
  508MOL0     H68564   5.512   3.181   2.631  3.5009 -1.8366  0.2830
  508MOL0     H68565   5.633   3.139   2.842  0.8850 -1.9439 -1.4869
  508MOL0     H68566   6.733   3.052   3.470 -0.8776  1.6589 -0.8464
  508MOL0     H68567   6.748   2.826   3.490 -1.7411 -1.1453  1.0208
  508MOL0     H68568   6.388   2.415   3.679  0.4589 -0.2662 -1.5940
  508MOL0     H68569   6.401   2.174   3.732 -1.2145  2.0606  1.2572
  508MOL0     H68570   6.421   2.041   3.912  1.3728  3.6877 -1.0595
  508MOL0     H68571   6.480   1.937   3.787 -0.0660  0.5667 -1.3840
  508MOL0     H68572   6.559   1.953   4.084  1.7294  0.1346 -0.4631
  508MOL0     H68573   6.664   1.879   3.960 -0.3383 -2.1705 -2.0092
  508MOL0     H68574   6.370   1.786   3.992 -0.7757 -1.0369  0.4248
  508MOL0     H68575   6.500   1.726   4.097  1.1549 -1.0610 -0.1561
  508MOL0     H68576   6.626   1.656   3.898  0.5785  2.9158 -1.6618
  508MOL0     H68577   6.491   1.690   3.791 -0.3742 -0.5900 -0.6204
  508MOL0     H68578   6.335   1.346   3.975 -0.7753  1.8520  1.1632
  508MOL0     H68579   6.813   2.208   3.839  2.4195  0.9358 -2.4996
  508MOL0     H68580   6.821   2.452   3.761 -0.6926  0.9444  0.5134
  509MOL0     O68581   2.064   6.499   0.783 -0.4342 -0.6804 -0.2810
  509MOL0     C68582   2.016   6.595   0.729  0.2620 -0.4016 -0.3729
  509MOL0     O68583   1.966   6.598   0.601  0.4707 -1.1885  0.4840
  509MOL0     C68584   1.930   6.472   0.550  0.0546 -0.1300  1.3213
  509MOL0     C68585   1.797   6.420   0.576  0.0849 -1.0227 -0.3206
  509MOL0     C68586   1.745   6.312   0.501  0.1489  0.6131 -0.5469
  509MOL0     C68587   1.825   6.249   0.402 -0.4819 -0.3205 -0.6804
  509MOL0     O68588   1.791   6.143   0.320  0.0606 -0.9805 -0.8324
  509MOL0     C68589   1.654   6.089   0.327 -0.1646  0.4673  0.7565
  509MOL0     C68590   1.642   6.000   0.211  0.2650  0.6109 -0.1401
  509MOL0     C68591   1.638   6.068   0.073 -0.1956  0.6539 -0.4131
  509MOL0     C68592   1.715   5.982  -0.026  0.1868 -0.0551 -1.0352
  509MOL0     C68593   1.740   6.065  -0.150 -0.3165 -0.5876 -0.6013
  509MOL0     C68594   1.869   6.008  -0.205 -0.4946 -1.4378  1.0661
  509MOL0     C68595   1.907   6.081  -0.340 -0.2130 -0.3939 -0.2003
  509MOL0     C68596   1.961   5.984  -0.453 -0.7692 -1.1464  1.0676
  509MOL0     N68597   1.870   5.863  -0.465 -0.0512 -0.0345 -1.0196
  509MOL0     C68598   1.739   5.878  -0.497 -0.0947  0.4599  0.2237
  509MOL0     C68599   1.685   5.750  -0.513 -0.3573 -0.3170 -0.9290
  509MOL0     C68600   1.548   5.705  -0.547  0.0733  0.4168  0.3686
  509MOL0     C68601   1.536   5.681  -0.699  0.0488  0.1372  0.0579
  509MOL0     C68602   1.642   5.580  -0.759  0.5182  0.8234  0.5985
  509MOL0     C68603   1.653   5.443  -0.695  0.0869 -0.3782  0.4436
  509MOL0     O68604   1.732   5.348  -0.767 -0.0489  0.1217 -0.0072
  509MOL0     C68605   1.863   5.344  -0.744 -0.5647 -0.4342  0.8140
  509MOL0     C68606   1.942   5.426  -0.661 -0.6294 -0.8003 -0.1705
  509MOL0     C68607   2.081   5.410  -0.637 -0.6580  0.0751  1.0075
  509MOL0     C68608   2.147   5.510  -0.552  0.2289  0.2879  0.3150
  509MOL0     C68609   2.141   5.296  -0.705 -0.1943 -0.2276 -0.2144
  509MOL0     C68610   2.296   5.271  -0.703  0.0902 -0.9054  0.3223
  509MOL0     O68611   2.378   5.385  -0.706 -0.3206 -0.5554  0.4719
  509MOL0     C68612   2.511   5.370  -0.681  0.9222 -0.6049 -0.2269
  509MOL0     C68613   2.552   5.315  -0.555 -0.6120 -0.4982 -0.1951
  509MOL0     C68614   2.690   5.303  -0.527 -0.2571 -0.1635  0.5558
  509MOL0     C68615   2.773   5.354  -0.626 -0.1999  0.4495 -0.0414
  509MOL0     O68616   2.901   5.306  -0.611  0.7097 -0.2226 -0.6014
  509MOL0     C68617   2.912   5.176  -0.667  0.2890 -0.0738  0.0158
  509MOL0     C68618   3.035   5.104  -0.618 -0.2944  0.3221 -0.6287
  509MOL0     C68619   3.026   4.958  -0.661 -0.2995 -0.7137  1.4482
  509MOL0     C68620   3.131   4.861  -0.599 -0.0227 -1.5040  0.4102
  509MOL0     C68621   3.149   4.735  -0.672  0.0749  0.1914 -0.2424
  509MOL0     C68622   3.005   4.663  -0.680 -0.1386 -0.2181  0.3624
  509MOL0     C68623   3.013   4.508  -0.704  0.5764 -0.7095 -0.6295
  509MOL0     C68624   2.868   4.454  -0.734 -1.5068  0.0698 -0.2824
  509MOL0    Cl68625   2.820   4.517  -0.896 -0.0446  0.8012 -0.2030
  509MOL0     C68626   2.728   5.426  -0.738 -0.1038 -0.7942  1.3313
  509MOL0     C68627   2.593   5.439  -0.773  0.4851  1.2201  1.5613
  509MOL0     O68628   2.335   5.159  -0.715 -0.0738  0.6095  0.1487
  509MOL0     C68629   2.071   5.227  -0.801 -0.4923 -0.1045 -0.9070
  509MOL0     C68630   1.930   5.235  -0.803 -0.2972 -0.4227  0.6860
  509MOL0     N68631   1.783   5.659  -0.474 -1.1222  0.8670 -0.0753
  509MOL0     N68632   1.890   5.729  -0.438 -0.0210  0.5785 -0.4012
  509MOL0     C68633   1.958   6.294   0.389  0.4705 -0.0082 -0.8823
  509MOL0     C68634   2.005   6.407   0.449 -0.4014  0.1357 -1.3995
  509MOL0     C68635   2.012   6.736   0.783  0.1669  0.4149  1.1085
  509MOL0     C68636   1.985   6.844   0.701 -0.6997  0.1791 -0.1150
  509MOL0     C68637   1.965   6.972   0.764  0.0358  0.1789 -0.2305
  509MOL0     C68638   1.979   6.997   0.897  0.0290 -0.4568 -1.0426
  509MOL0     O68639   1.986   7.118   0.965 -0.1248 -0.2988 -0.3068
  509MOL0     C68640   1.991   7.233   0.877  0.2622 -0.9822  0.7160
  509MOL0     C68641   2.137   7.239   0.811  0.0792  0.2172  0.5344
  509MOL0     C68642   2.209   7.370   0.839  0.2450 -0.2004  0.1387
  509MOL0     C68643   2.333   7.391   0.759 -0.5294 -0.8270  0.2664
  509MOL0     C68644   2.400   7.521   0.758  0.5702 -0.4792  0.6020
  509MOL0     C68645   2.433   7.635   0.762  0.1710 -0.3612  0.1246
  509MOL0     C68646   2.010   6.882   0.980 -0.3576 -0.5470  0.3525
  509MOL0     C68647   2.016   6.759   0.916  0.0943  0.3818 -0.1444
  509MOL0     H68648   1.736   6.475   0.648 -1.8638 -1.2240 -1.7386
  509MOL0     H68649   1.642   6.283   0.518  0.2796  0.0837 -0.6355
  509MOL0     H68650   1.652   6.020   0.412  3.5571 -4.3676 -2.5268
  509MOL0     H68651   1.568   6.156   0.332 -1.5992 -1.3662  2.8082
  509MOL0     H68652   1.725   5.930   0.218  1.9810  1.9489 -4.0877
  509MOL0     H68653   1.547   5.948   0.223  1.5962 -1.8232  0.3616
  509MOL0     H68654   1.534   6.091   0.047 -0.7997  3.0307  3.3402
  509MOL0     H68655   1.697   6.160   0.083 -1.1214  1.1653  0.5316
  509MOL0     H68656   1.812   5.962   0.022 -1.6599 -1.2321  2.5106
  509MOL0     H68657   1.651   5.896  -0.044 -2.4738  1.6477 -0.3188
  509MOL0     H68658   1.659   6.053  -0.222 -0.7925 -0.7152 -0.0520
  509MOL0     H68659   1.766   6.169  -0.129  2.4706 -1.5475  1.4266
  509MOL0     H68660   1.956   6.022  -0.140  0.9333 -0.2315 -1.0031
  509MOL0     H68661   1.855   5.902  -0.227  0.8415 -1.1866 -1.3170
  509MOL0     H68662   1.831   6.135  -0.398  0.1212  0.0534 -0.2318
  509MOL0     H68663   1.971   6.168  -0.322  1.2827 -1.4330 -0.2935
  509MOL0     H68664   2.066   5.959  -0.433  1.0498  1.4734 -3.6942
  509MOL0     H68665   1.962   6.041  -0.546 -2.0289 -1.0894  1.0753
  509MOL0     H68666   1.683   5.971  -0.507 -3.3343 -1.3311  0.1749
  509MOL0     H68667   1.514   5.620  -0.487 -5.7845  3.1781  1.6185
  509MOL0     H68668   1.486   5.786  -0.508  0.9960 -0.2689  3.5320
  509MOL0     H68669   1.544   5.779  -0.746 -2.7759  1.2658  1.7058
  509MOL0     H68670   1.443   5.633  -0.730  0.9725  0.1923 -3.1595
  509MOL0     H68671   1.743   5.619  -0.746  1.3886 -0.8315 -0.7158
  509MOL0     H68672   1.625   5.581  -0.868  1.5999  1.0134  0.4180
  509MOL0     H68673   1.552   5.401  -0.692  0.2604 -0.9598 -1.1265
  509MOL0     H68674   1.685   5.440  -0.590 -0.3970  0.6060  0.6331
  509MOL0     H68675   1.904   5.521  -0.627  2.0002  1.3424 -2.7108
  509MOL0     H68676   2.194   5.594  -0.602  0.4963  1.3267  2.1969
  509MOL0     H68677   2.085   5.566  -0.481 -2.3058 -0.3844 -1.2400
  509MOL0     H68678   2.224   5.455  -0.496  3.6633  1.2727 -3.0816
  509MOL0     H68679   2.484   5.277  -0.480  0.1843 -0.0608  0.7763
  509MOL0     H68680   2.729   5.261  -0.436  2.3038  1.6301  0.3922
  509MOL0     H68681   2.821   5.114  -0.659 -0.4691  0.8160 -1.3856
  509MOL0     H68682   2.925   5.186  -0.775  1.4070 -2.2301 -0.0947
  509MOL0     H68683   3.123   5.143  -0.671 -0.5476 -0.4068 -1.6138
  509MOL0     H68684   3.050   5.102  -0.510  0.6437 -3.7728 -0.7071
  509MOL0     H68685   3.034   4.942  -0.769 -0.5148 -2.5420  1.6671
  509MOL0     H68686   2.930   4.917  -0.628 -0.8455  0.7616  1.7646
  509MOL0     H68687   3.220   4.923  -0.602 -2.5979  3.1704  4.6309
  509MOL0     H68688   3.110   4.843  -0.493  0.6328  1.8775  1.2286
  509MOL0     H68689   3.229   4.681  -0.621 -0.0615 -1.4146 -1.6367
  509MOL0     H68690   3.179   4.756  -0.775 -0.6522  1.6513 -0.1823
  509MOL0     H68691   2.951   4.674  -0.585  1.4192  0.6869  1.1919
  509MOL0     H68692   2.942   4.709  -0.756  0.1534  0.8212  0.7345
  509MOL0     H68693   3.055   4.450  -0.622 -0.6490 -1.3597 -0.4334
  509MOL0     H68694   3.068   4.490  -0.797 -2.6626 -1.1431 -2.6478
  509MOL0     H68695   2.801   4.495  -0.657  0.2931 -0.4398  1.6436
  509MOL0     H68696   2.870   4.345  -0.727  2.4909 -0.1505 -2.1758
  509MOL0     H68697   2.802   5.460  -0.809  0.6777 -0.3490  2.3473
  509MOL0     H68698   2.556   5.494  -0.859  3.5015  0.2933 -0.4883
  509MOL0     H68699   2.123   5.143  -0.847 -1.9124 -0.4694 -1.8956
  509MOL0     H68700   1.872   5.161  -0.857 -2.3161  1.5040  0.0612
  509MOL0     H68701   2.020   6.230   0.327  0.1947 -2.8877  1.5799
  509MOL0     H68702   2.099   6.444   0.411 -0.1257  0.8171 -0.1232
  509MOL0     H68703   1.972   6.840   0.594  1.4390  0.7788 -0.4426
  509MOL0     H68704   1.952   7.057   0.698  1.9010 -0.1333 -1.0679
  509MOL0     H68705   1.912   7.230   0.802  0.2929 -1.6453  0.7019
  509MOL0     H68706   1.982   7.325   0.936 -0.1867 -1.6623  1.7275
  509MOL0     H68707   2.132   7.238   0.702 -1.9803 -4.2393  0.4254
  509MOL0     H68708   2.193   7.150   0.842 -2.3773 -1.6081  0.0865
  509MOL0     H68709   2.235   7.381   0.945  1.4945 -2.5567  0.1463
  509MOL0     H68710   2.145   7.456   0.818  0.4159  0.0348  0.5788
  509MOL0     H68711   2.310   7.380   0.653  0.4193 -2.3788  0.1904
  509MOL0     H68712   2.410   7.319   0.788  1.0482  0.9885  0.8143
  509MOL0     H68713   2.447   7.740   0.773 -1.5787  0.1470 -1.8932
  509MOL0     H68714   2.045   6.886   1.082  3.4475 -3.6639 -0.5962
  509MOL0     H68715   2.039   6.680   0.987 -0.5264  2.9540  3.1681
  510MOL0     O68716   5.897   7.981   5.351 -0.1892  0.6582 -0.2175
  510MOL0     C68717   5.922   8.003   5.468 -0.0489  0.4408 -0.6697
  510MOL0     O68718   5.892   8.126   5.529 -0.4162  0.6853  0.0392
  510MOL0     C68719   5.788   8.210   5.483  0.6281 -0.3479 -0.5539
  510MOL0     C68720   5.783   8.279   5.362  0.1209  0.4719  0.3011
  510MOL0     C68721   5.686   8.369   5.346  0.8219 -0.1036  0.0155
  510MOL0     C68722   5.582   8.390   5.443  0.0144 -0.6371  0.6813
  510MOL0     O68723   5.464   8.460   5.429  0.0386  0.4924 -0.7481
  510MOL0     C68724   5.473   8.563   5.336 -0.1894  0.3948  0.5247
  510MOL0     C68725   5.340   8.649   5.350 -0.0583  0.9789  0.3129
  510MOL0     C68726   5.204   8.567   5.327 -0.6516  0.5256 -0.7509
  510MOL0     C68727   5.162   8.501   5.460 -1.2348  0.4857 -0.4032
  510MOL0     C68728   5.026   8.424   5.446  0.3365  0.2155 -1.1534
  510MOL0     C68729   5.007   8.333   5.569 -0.5431  0.5917  0.0821
  510MOL0     C68730   4.867   8.269   5.556 -0.1218  0.4594 -0.2549
  510MOL0     C68731   4.853   8.167   5.442  0.1477 -0.4979 -1.0906
  510MOL0     N68732   4.937   8.046   5.456 -0.1769  0.0904 -0.3746
  510MOL0     C68733   4.942   7.957   5.560 -0.0470 -0.2211  0.4803
  510MOL0     C68734   5.004   7.848   5.514 -0.2041  0.6053 -0.6087
  510MOL0     C68735   5.077   7.750   5.601  0.2499 -0.1292 -0.0963
  510MOL0     C68736   5.022   7.610   5.559  0.4524 -0.7834  1.2507
  510MOL0     C68737   5.099   7.500   5.604 -0.2563  0.5763 -0.4092
  510MOL0     C68738   5.141   7.518   5.758  0.2860 -0.4860  0.3287
  510MOL0     O68739   5.195   7.411   5.834  0.6138 -0.0725 -0.0821
  510MOL0     C68740   5.299   7.354   5.764  1.0460  1.0832 -0.0528
  510MOL0     C68741   5.410   7.421   5.726  0.6172  0.8961 -0.1250
  510MOL0     C68742   5.507   7.361   5.653 -1.1492  0.2030  0.3962
  510MOL0     C68743   5.632   7.442   5.632 -0.1451  0.2959 -0.0184
  510MOL0     C68744   5.494   7.235   5.596  0.1578  0.0265 -0.4511
  510MOL0     C68745   5.600   7.169   5.508 -0.5969 -0.0080 -0.5724
  510MOL0     O68746   5.596   7.034   5.504  0.7384 -0.1013 -0.6367
  510MOL0     C68747   5.709   6.966   5.454  0.1952  0.0940 -0.5126
  510MOL0     C68748   5.841   6.969   5.499 -0.0722 -0.7364  0.8803
  510MOL0     C68749   5.937   6.892   5.432 -0.8317 -0.7692 -0.3128
  510MOL0     C68750   5.917   6.819   5.318 -0.9805  0.1813 -0.3963
  510MOL0     O68751   6.017   6.747   5.257 -0.0020 -0.2679 -0.3517
  510MOL0     C68752   6.000   6.750   5.107 -0.1424  0.5840 -1.1471
  510MOL0     C68753   6.099   6.669   5.027  0.2157  0.6354 -0.8804
  510MOL0     C68754   6.119   6.527   5.095  0.0414  0.5695  1.3204
  510MOL0     C68755   6.126   6.415   4.984  0.7272  0.4122 -0.4123
  510MOL0     C68756   6.240   6.418   4.888  0.5849  0.4501 -0.0869
  510MOL0     C68757   6.266   6.279   4.830 -0.4389  0.0507 -0.1670
  510MOL0     C68758   6.369   6.305   4.720 -1.1908 -0.2770  0.1629
  510MOL0     C68759   6.386   6.206   4.604  0.8301 -0.0198  0.5340
  510MOL0    Cl68760   6.431   6.041   4.670 -0.5799 -0.3725  0.2423
  510MOL0     C68761   5.781   6.818   5.274  0.6783 -0.3590 -0.7055
  510MOL0     C68762   5.682   6.891   5.348 -0.2028  0.9580  0.2714
  510MOL0     O68763   5.684   7.238   5.454 -0.0692  0.0766 -0.9890
  510MOL0     C68764   5.381   7.162   5.639  0.8221 -1.2602  0.4945
  510MOL0     C68765   5.290   7.218   5.727 -0.3042 -0.1587 -0.0015
  510MOL0     N68766   5.033   7.865   5.379 -0.4595  0.4997 -1.1332
  510MOL0     N68767   5.002   7.992   5.351  0.7481  1.2771 -0.3963
  510MOL0     C68768   5.598   8.318   5.564 -0.3701 -0.9619 -0.5894
  510MOL0     C68769   5.700   8.228   5.583  0.1975 -0.2885 -0.6834
  510MOL0     C68770   5.982   7.882   5.541 -0.1279 -0.0188  0.7601
  510MOL0     C68771   5.985   7.871   5.686  0.1233  0.2616 -0.5911
  510MOL0     C68772   6.019   7.748   5.748 -0.0850  0.0662  0.7153
  510MOL0     C68773   6.044   7.632   5.675  0.7243  0.5469 -0.7653
  510MOL0     O68774   6.070   7.519   5.753  0.8264 -0.3642  0.2317
  510MOL0     C68775   6.139   7.407   5.698  0.0970 -0.4858  0.2609
  510MOL0     C68776   6.200   7.320   5.807  0.1720 -0.6073  0.2578
  510MOL0     C68777   6.296   7.400   5.893 -0.5970  0.7967 -0.3546
  510MOL0     C68778   6.375   7.322   6.000  1.1471  0.4232 -0.0250
  510MOL0     C68779   6.484   7.401   6.065  0.0782  0.6105  1.2455
  510MOL0     C68780   6.577   7.458   6.119 -0.6963 -0.4778  0.6384
  510MOL0     C68781   6.043   7.642   5.537  1.0764 -0.8256  0.2308
  510MOL0     C68782   6.006   7.763   5.472  1.2750 -0.2725  0.0080
  510MOL0     H68783   5.852   8.249   5.284  0.3856  0.9693  0.3394
  510MOL0     H68784   5.675   8.417   5.250  1.0586 -0.2858 -0.1051
  510MOL0     H68785   5.564   8.623   5.349  3.0270 -3.2209 -2.6302
  510MOL0     H68786   5.488   8.534   5.231 -0.3811  0.8750  0.3620
  510MOL0     H68787   5.340   8.693   5.450 -2.7685 -0.2027  0.9140
  510MOL0     H68788   5.344   8.736   5.284 -1.0376  2.1811  1.7759
  510MOL0     H68789   5.120   8.629   5.295 -0.9688 -0.1629 -1.2566
  510MOL0     H68790   5.228   8.498   5.246  2.7633 -3.4020  3.0778
  510MOL0     H68791   5.243   8.437   5.497 -1.8811 -1.3511 -1.9856
  510MOL0     H68792   5.148   8.574   5.540 -1.0496 -0.8686  0.9051
  510MOL0     H68793   4.944   8.497   5.455  2.7931  3.0293  0.1694
  510MOL0     H68794   5.026   8.379   5.346 -0.8590 -0.1908 -0.9929
  510MOL0     H68795   5.090   8.262   5.573  2.2799  3.6091 -0.5437
  510MOL0     H68796   5.020   8.380   5.667  1.1194  2.2698 -0.8580
  510MOL0     H68797   4.831   8.223   5.648 -0.3475  1.5754  0.2328
  510MOL0     H68798   4.801   8.354   5.538  0.9054  1.5024  0.8008
  510MOL0     H68799   4.864   8.225   5.350  3.4467  1.3525  0.2673
  510MOL0     H68800   4.755   8.124   5.464 -0.4906 -0.4921 -3.6389
  510MOL0     H68801   4.921   7.993   5.660 -1.9731  3.0893 -0.9730
  510MOL0     H68802   5.186   7.758   5.594  0.6196 -3.1507  0.8642
  510MOL0     H68803   5.038   7.772   5.701  0.3264 -0.5969  0.0417
  510MOL0     H68804   5.013   7.601   5.451  1.7953  1.4107  0.8780
  510MOL0     H68805   4.921   7.598   5.600  0.3092 -5.5220  0.1005
  510MOL0     H68806   5.186   7.492   5.538 -0.6477  2.2835 -1.1827
  510MOL0     H68807   5.048   7.404   5.597  5.0828 -2.5968 -1.8265
  510MOL0     H68808   5.046   7.540   5.807 -0.8860  0.2588 -2.0819
  510MOL0     H68809   5.201   7.609   5.768  2.6103 -1.5319 -2.7700
  510MOL0     H68810   5.417   7.523   5.762 -2.3973  1.2808 -0.4050
  510MOL0     H68811   5.714   7.374   5.656 -1.2542 -0.6638  1.2978
  510MOL0     H68812   5.627   7.475   5.528 -1.2556 -3.9851 -1.5458
  510MOL0     H68813   5.627   7.529   5.697 -1.9902  0.1547  0.1037
  510MOL0     H68814   5.881   7.014   5.589  0.3481  1.1390 -0.1984
  510MOL0     H68815   6.036   6.879   5.475 -0.2624  0.7826 -1.0503
  510MOL0     H68816   5.901   6.714   5.077 -0.5613  0.9388 -0.2610
  510MOL0     H68817   6.020   6.854   5.078  3.2092  0.7203  1.0119
  510MOL0     H68818   6.073   6.652   4.922 -0.4482  0.6252 -0.7229
  510MOL0     H68819   6.188   6.733   5.026 -0.3697  1.5557  0.9667
  510MOL0     H68820   6.025   6.507   5.147 -0.3096 -0.3436  0.3670
  510MOL0     H68821   6.202   6.529   5.166  0.9231  2.6192  0.3376
  510MOL0     H68822   6.130   6.321   5.040  0.1133  2.2406  2.9309
  510MOL0     H68823   6.032   6.411   4.927 -0.1183 -1.0248  0.9750
  510MOL0     H68824   6.324   6.446   4.951  0.9642 -0.1691 -0.3123
  510MOL0     H68825   6.218   6.496   4.815 -0.0628  1.7726  1.4552
  510MOL0     H68826   6.310   6.209   4.901 -1.2639  1.7952  2.1722
  510MOL0     H68827   6.170   6.245   4.789 -0.3119 -3.3764  2.0520
  510MOL0     H68828   6.461   6.339   4.768 -2.9550  3.0340  1.5320
  510MOL0     H68829   6.346   6.400   4.669 -1.1181 -1.4845 -2.2905
  510MOL0     H68830   6.463   6.247   4.539 -0.6308 -0.5139 -1.6182
  510MOL0     H68831   6.295   6.200   4.543  2.7778  4.5467 -3.3909
  510MOL0     H68832   5.743   6.745   5.203  1.8660 -3.5180  1.6623
  510MOL0     H68833   5.577   6.878   5.320  0.4017 -3.0338 -0.6764
  510MOL0     H68834   5.353   7.066   5.596  0.3982 -0.4332 -1.1670
  510MOL0     H68835   5.209   7.159   5.768  0.6466 -3.1975 -2.1534
  510MOL0     H68836   5.526   8.340   5.643  3.2618  1.3266  2.4346
  510MOL0     H68837   5.720   8.175   5.675 -1.7037 -0.3704 -0.2809
  510MOL0     H68838   5.959   7.955   5.750 -0.1886 -1.4875  1.6928
  510MOL0     H68839   6.032   7.738   5.855 -0.1952  0.9372  0.8239
  510MOL0     H68840   6.079   7.342   5.634 -0.7624  0.3946  0.1510
  510MOL0     H68841   6.213   7.451   5.630  1.4830  0.2246  2.1599
  510MOL0     H68842   6.242   7.228   5.765 -2.3056 -2.8813  2.4069
  510MOL0     H68843   6.102   7.292   5.847 -0.9749  2.9886  0.2988
  510MOL0     H68844   6.237   7.485   5.927 -0.6645  0.7050 -0.2419
  510MOL0     H68845   6.373   7.434   5.823 -1.7667  2.0896 -1.0724
  510MOL0     H68846   6.420   7.235   5.952 -2.9707 -2.6005  1.0367
  510MOL0     H68847   6.309   7.294   6.083 -0.4891  0.1192 -1.3743
  510MOL0     H68848   6.667   7.494   6.164 -1.2962  1.1591  0.5990
  510MOL0     H68849   6.049   7.554   5.474 -0.7276 -0.5093 -0.4626
  510MOL0     H68850   6.001   7.755   5.364  0.1299  2.5374 -0.2237
  511MOL0     O68851   8.480   0.111   3.275  0.1290  0.6444  0.0212
  511MOL0     C68852   8.473  -0.017   3.269  0.4479  0.1871  0.3210
  511MOL0     O68853   8.381  -0.088   3.197 -0.0216 -0.1992 -0.3876
  511MOL0     C68854   8.274  -0.033   3.136  0.1124 -0.8748 -0.2338
  511MOL0     C68855   8.289   0.020   3.013 -0.0906 -0.1998 -1.1451
  511MOL0     C68856   8.194   0.087   2.944  1.2462 -0.8700 -0.5329
  511MOL0     C68857   8.055   0.080   2.986 -0.5999 -0.0875 -0.6996
  511MOL0     O68858   7.951   0.118   2.905  0.9532 -0.0962  0.1331
  511MOL0     C68859   7.952   0.259   2.871 -0.4485 -0.8416 -0.8047
  511MOL0     C68860   7.809   0.303   2.887  0.3011  0.4879  0.5898
  511MOL0     C68861   7.789   0.460   2.916 -0.4769  0.6499  0.0265
  511MOL0     C68862   7.795   0.542   2.793 -0.2092 -0.3705 -0.5927
  511MOL0     C68863   7.765   0.688   2.810 -0.3856 -0.0525 -0.2230
  511MOL0     C68864   7.872   0.764   2.897 -0.6555  0.1988 -0.7433
  511MOL0     C68865   7.838   0.920   2.907  0.2718  0.0688  1.0472
  511MOL0     C68866   7.904   1.006   2.796  0.3274 -0.3778 -0.0768
  511MOL0     N68867   8.054   0.997   2.777  0.8066  0.0480 -0.0970
  511MOL0     C68868   8.129   0.898   2.724  0.8500 -0.3373 -0.0460
  511MOL0     C68869   8.248   0.958   2.697  0.0874  0.5087 -0.5316
  511MOL0     C68870   8.368   0.882   2.640 -0.8352 -0.2979 -0.4066
  511MOL0     C68871   8.432   0.802   2.763 -0.2111  0.3844  1.0172
  511MOL0     C68872   8.503   0.684   2.703 -0.3252  0.5098 -0.9339
  511MOL0     C68873   8.585   0.697   2.573 -0.2315 -0.4208  0.2042
  511MOL0     O68874   8.666   0.811   2.575  0.3018  0.4597  0.1040
  511MOL0     C68875   8.780   0.826   2.499 -0.7537 -0.0565 -0.2141
  511MOL0     C68876   8.814   0.749   2.388  0.1245  0.0347  0.3969
  511MOL0     C68877   8.929   0.775   2.307  1.0294 -0.2765 -0.7321
  511MOL0     C68878   8.953   0.690   2.186 -0.4431  0.0232 -0.1779
  511MOL0     C68879   9.008   0.885   2.350 -0.0222  0.2050  0.5506
  511MOL0     C68880   9.135   0.926   2.280  1.2767  0.6395 -0.4204
  511MOL0     O68881   9.208   1.013   2.353 -0.1410  0.4930  1.1940
  511MOL0     C68882   9.306   1.076   2.275 -0.2228 -0.0410 -0.9098
  511MOL0     C68883   9.313   1.214   2.242 -0.5769  0.2058 -0.1384
  511MOL0     C68884   9.426   1.277   2.197  0.9196 -0.2381 -0.5575
  511MOL0     C68885   9.543   1.198   2.188  0.2497  0.0903  0.0324
  511MOL0     O68886   9.651   1.273   2.147 -1.2193  0.1886  0.0086
  511MOL0     C68887   9.789   1.227   2.173  0.3516 -0.2887  0.5809
  511MOL0     C68888   9.881   1.294   2.078 -0.2002 -0.4465  0.8700
  511MOL0     C68889   9.910   1.210   1.960 -0.1034  1.0938  0.6070
  511MOL0     C68890  10.018   1.259   1.864  0.1281 -0.4360  1.0105
  511MOL0     C68891  10.041   1.177   1.726  0.9701  0.3084 -0.1715
  511MOL0     C68892   9.927   1.210   1.620  0.4912  0.4995  0.0239
  511MOL0     C68893   9.956   1.159   1.476 -0.3066 -0.4585  0.9080
  511MOL0     C68894   9.823   1.154   1.390  0.0337  0.2077 -0.3619
  511MOL0    Cl68895   9.687   1.052   1.446  0.5727  0.2842  0.1209
  511MOL0     C68896   9.538   1.059   2.202 -0.1872 -0.0010 -0.2622
  511MOL0     C68897   9.421   0.996   2.249 -0.7154 -0.5245  0.0822
  511MOL0     O68898   9.167   0.880   2.171  0.1263 -0.1402  0.1785
  511MOL0     C68899   8.971   0.972   2.452 -0.6236 -1.6415  0.5730
  511MOL0     C68900   8.854   0.941   2.520  0.4587  0.3092  0.6049
  511MOL0     N68901   8.249   1.084   2.755 -0.1820 -0.0816  0.0735
  511MOL0     N68902   8.140   1.105   2.808  0.2904  0.1998  0.4350
  511MOL0     C68903   8.037   0.001   3.098  0.2667 -0.3113 -0.2289
  511MOL0     C68904   8.143  -0.037   3.187 -0.7435 -0.7306 -0.1675
  511MOL0     C68905   8.553  -0.092   3.365  0.2079 -0.2109  0.5585
  511MOL0     C68906   8.673  -0.031   3.414  0.6541  0.5431  1.1513
  511MOL0     C68907   8.757  -0.088   3.508 -0.1539  0.9288  0.3480
  511MOL0     C68908   8.740  -0.221   3.534 -0.5099 -0.3192 -0.0977
  511MOL0     O68909   8.845  -0.273   3.602  0.3479  0.2147 -0.5201
  511MOL0     C68910   8.839  -0.413   3.650  0.2917 -0.8974  0.5779
  511MOL0     C68911   8.738  -0.442   3.766 -1.0768 -0.3044  0.3439
  511MOL0     C68912   8.802  -0.408   3.900 -0.4449  0.6373  0.5558
  511MOL0     C68913   8.694  -0.442   4.003  0.4527 -0.5785  0.1901
  511MOL0     C68914   8.702  -0.577   4.065 -0.6025  1.1954  0.3580
  511MOL0     C68915   8.697  -0.694   4.100  0.9223  0.5362 -0.0297
  511MOL0     C68916   8.621  -0.276   3.500  0.1040  0.2284 -0.3284
  511MOL0     C68917   8.527  -0.212   3.420  0.0282  0.7970  0.7547
  511MOL0     H68918   8.389   0.018   2.970  0.1864 -1.8425 -0.4796
  511MOL0     H68919   8.235   0.134   2.856  1.4455  0.5600  0.2979
  511MOL0     H68920   8.013   0.316   2.942 -0.4524  0.8342 -2.0854
  511MOL0     H68921   7.990   0.286   2.772  0.0258  0.8857 -0.1733
  511MOL0     H68922   7.754   0.277   2.796  1.3160  0.7143 -0.1047
  511MOL0     H68923   7.754   0.256   2.968 -2.1566  0.9161 -0.7257
  511MOL0     H68924   7.690   0.460   2.963  0.1652  1.6903  1.4693
  511MOL0     H68925   7.866   0.495   2.986 -2.1357  2.6831  0.9600
  511MOL0     H68926   7.898   0.534   2.758  0.3581  0.5770  0.7977
  511MOL0     H68927   7.742   0.499   2.707  3.1841 -2.5719 -1.7788
  511MOL0     H68928   7.750   0.746   2.718 -1.0839 -0.4556 -0.3675
  511MOL0     H68929   7.671   0.679   2.864 -1.4518  0.3898 -1.9332
  511MOL0     H68930   7.868   0.723   2.999 -0.9309 -0.3018 -0.9525
  511MOL0     H68931   7.974   0.738   2.869 -1.1232 -1.9327 -0.6564
  511MOL0     H68932   7.733   0.926   2.879  0.5436  3.3979  0.2325
  511MOL0     H68933   7.844   0.956   3.011 -1.5497  0.8985  0.9051
  511MOL0     H68934   7.882   1.113   2.798 -0.5820 -0.4258 -3.0088
  511MOL0     H68935   7.863   0.971   2.701  0.5068 -0.4198 -0.1377
  511MOL0     H68936   8.104   0.795   2.704 -1.9906  0.8217 -3.4742
  511MOL0     H68937   8.336   0.813   2.561  1.7232 -2.0986  0.0147
  511MOL0     H68938   8.435   0.958   2.600 -1.9259  1.7111  1.3889
  511MOL0     H68939   8.351   0.775   2.832 -0.9874 -0.0782 -0.0439
  511MOL0     H68940   8.506   0.861   2.816  2.4021 -1.8223  0.0550
  511MOL0     H68941   8.426   0.609   2.681 -0.5202 -0.4094  2.3575
  511MOL0     H68942   8.557   0.637   2.786 -3.2725 -1.7466 -0.1014
  511MOL0     H68943   8.523   0.697   2.483  1.6751  0.6425 -1.2019
  511MOL0     H68944   8.650   0.609   2.570  0.0339 -0.2717  1.1731
  511MOL0     H68945   8.767   0.659   2.351 -0.6312  1.0844 -1.3434
  511MOL0     H68946   9.018   0.606   2.210  2.9436  1.8362 -2.1587
  511MOL0     H68947   8.864   0.658   2.131  0.2885 -0.9784 -0.7985
  511MOL0     H68948   8.996   0.759   2.112  1.6807  0.3342  1.2515
  511MOL0     H68949   9.230   1.280   2.265 -2.1513 -2.1949  1.6349
  511MOL0     H68950   9.433   1.382   2.170  0.1001 -0.1541 -0.4722
  511MOL0     H68951   9.809   1.259   2.276 -3.7519 -1.2603  1.8584
  511MOL0     H68952   9.799   1.121   2.195  1.2501 -0.5589 -1.0093
  511MOL0     H68953   9.842   1.390   2.040  0.9782 -0.9409 -1.8007
  511MOL0     H68954   9.967   1.325   2.137  1.1558 -3.0613  0.3937
  511MOL0     H68955   9.819   1.186   1.904  0.5502  0.4056 -0.1821
  511MOL0     H68956   9.949   1.115   1.998 -0.1971 -0.6417 -3.2349
  511MOL0     H68957   9.988   1.361   1.838  2.1017 -0.6230 -2.6709
  511MOL0     H68958  10.116   1.265   1.912  0.2116 -3.5330  1.4236
  511MOL0     H68959  10.048   1.074   1.760  2.0577  0.6279  0.6393
  511MOL0     H68960  10.133   1.210   1.676 -0.1550  2.2658 -1.0843
  511MOL0     H68961   9.838   1.161   1.660 -0.3230 -0.1230 -2.3888
  511MOL0     H68962   9.928   1.319   1.611  0.7823  0.4878 -0.0979
  511MOL0     H68963  10.024   1.073   1.477  3.4050  2.2324  0.0267
  511MOL0     H68964  10.008   1.243   1.431  0.9192 -0.2139  2.6922
  511MOL0     H68965   9.851   1.107   1.296  0.1350  0.5840 -0.5215
  511MOL0     H68966   9.779   1.254   1.393 -2.8155 -0.9459  2.6227
  511MOL0     H68967   9.620   0.993   2.174 -0.7797 -1.1521  0.6143
  511MOL0     H68968   9.419   0.889   2.267  4.1532 -1.4898 -2.9782
  511MOL0     H68969   9.029   1.061   2.470  2.2224 -3.5622  1.6192
  511MOL0     H68970   8.808   1.018   2.582 -3.9117 -0.6632 -1.0399
  511MOL0     H68971   7.931  -0.025   3.103  1.1104 -4.1455  0.5231
  511MOL0     H68972   8.120  -0.075   3.286 -1.4675 -1.2809 -0.5339
  511MOL0     H68973   8.689   0.070   3.377  1.4200  0.4635  1.2462
  511MOL0     H68974   8.841  -0.034   3.549  0.6869  0.5222 -0.7811
  511MOL0     H68975   8.830  -0.480   3.564  3.8232  1.2194 -1.6881
  511MOL0     H68976   8.937  -0.451   3.681  0.4198 -2.1641 -1.2002
  511MOL0     H68977   8.712  -0.549   3.769 -1.2102 -0.2577  2.4656
  511MOL0     H68978   8.648  -0.381   3.755 -0.5101  0.6820  1.0574
  511MOL0     H68979   8.806  -0.299   3.909 -1.5085  0.8602 -1.2441
  511MOL0     H68980   8.903  -0.449   3.910 -0.4687  0.2453 -0.6724
  511MOL0     H68981   8.596  -0.410   3.964  1.2420  0.8655 -0.7279
  511MOL0     H68982   8.710  -0.370   4.083  2.7570  0.4111 -1.0544
  511MOL0     H68983   8.682  -0.796   4.128  0.6019  0.6532  0.2235
  511MOL0     H68984   8.616  -0.378   3.535  0.1591  0.2318 -0.3085
  511MOL0     H68985   8.435  -0.257   3.383 -1.6206  3.0758  1.8822
  512MOL0     O68986   3.517   8.048   7.786 -0.3259 -0.6265 -0.1650
  512MOL0     C68987   3.545   8.149   7.855  0.0547 -0.8822  0.0754
  512MOL0     O68988   3.662   8.224   7.839  0.1588 -0.0456  0.1370
  512MOL0     C68989   3.762   8.171   7.760 -0.1697 -1.0992  0.0127
  512MOL0     C68990   3.834   8.245   7.661 -0.3854 -0.2922 -0.4456
  512MOL0     C68991   3.931   8.183   7.580  0.5409  0.5017  0.5119
  512MOL0     C68992   3.946   8.040   7.590  1.0915  0.3069 -0.5095
  512MOL0     O68993   4.009   7.954   7.503 -0.4081 -0.5074  0.3157
  512MOL0     C68994   4.104   8.006   7.408 -0.7100  0.0704  0.5614
  512MOL0     C68995   4.161   7.882   7.335 -0.0264  0.0122  0.3318
  512MOL0     C68996   4.249   7.805   7.427  0.3255 -0.6808 -0.9763
  512MOL0     C68997   4.316   7.693   7.338 -0.0411 -0.2223 -0.4198
  512MOL0     C68998   4.423   7.623   7.423  0.4257  0.0652 -0.4301
  512MOL0     C68999   4.477   7.492   7.349 -0.3770 -0.4398 -0.5126
  512MOL0     C69000   4.534   7.380   7.449 -0.0266  1.0362  0.0863
  512MOL0     C69001   4.669   7.388   7.513 -0.1883  0.0599 -0.4969
  512MOL0     N69002   4.710   7.517   7.576 -0.5738  0.1920  0.3889
  512MOL0     C69003   4.670   7.567   7.696  0.0734  0.6520 -0.0455
  512MOL0     C69004   4.724   7.690   7.703 -0.4213  0.8384 -0.4735
  512MOL0     C69005   4.723   7.783   7.834 -0.2948 -0.0005  0.2975
  512MOL0     C69006   4.703   7.938   7.822 -0.5249 -1.0799 -1.0689
  512MOL0     C69007   4.553   7.973   7.793 -0.2669  0.3273  0.1227
  512MOL0     C69008   4.530   8.119   7.815  0.1371  0.2330  0.1041
  512MOL0     O69009   4.390   8.148   7.798 -0.2987 -0.1587 -0.2925
  512MOL0     C69010   4.344   8.283   7.810 -0.3261  0.7065  0.4950
  512MOL0     C69011   4.415   8.398   7.791  0.9935 -0.5879  0.3107
  512MOL0     C69012   4.355   8.526   7.803 -0.4691 -0.1418  0.3497
  512MOL0     C69013   4.444   8.645   7.785  0.4073  0.0043 -0.0549
  512MOL0     C69014   4.218   8.541   7.821  0.6641 -0.2910  0.2338
  512MOL0     C69015   4.146   8.669   7.850 -1.1715  0.2537 -0.9152
  512MOL0     O69016   4.012   8.668   7.823  0.0968 -0.2095 -0.1305
  512MOL0     C69017   3.927   8.774   7.807 -0.8790 -0.4030 -0.2081
  512MOL0     C69018   3.799   8.753   7.859  0.1394  0.5974 -0.1737
  512MOL0     C69019   3.704   8.854   7.840 -0.1452 -0.1907  0.4760
  512MOL0     C69020   3.735   8.976   7.778 -0.0173 -0.7714  0.3948
  512MOL0     O69021   3.657   9.093   7.753  0.2915  0.5211  0.3884
  512MOL0     C69022   3.516   9.095   7.800 -0.2427  0.4355  1.3367
  512MOL0     C69023   3.443   9.208   7.748  0.2388  0.4697 -0.8238
  512MOL0     C69024   3.292   9.177   7.734 -0.4559  0.3778  0.0463
  512MOL0     C69025   3.226   9.270   7.644  0.0634 -0.0078  0.0844
  512MOL0     C69026   3.094   9.217   7.591  0.5350  0.4352  0.2033
  512MOL0     C69027   2.997   9.185   7.705 -0.0067 -0.2353 -0.7324
  512MOL0     C69028   2.856   9.160   7.644  0.7075 -0.0193  0.2691
  512MOL0     C69029   2.759   9.101   7.739  0.0094  0.0183  0.7216
  512MOL0    Cl69030   2.598   9.095   7.660 -0.2196 -0.1644  0.0532
  512MOL0     C69031   3.858   8.990   7.738  0.5408 -0.4750 -0.1475
  512MOL0     C69032   3.957   8.896   7.748 -0.1630 -0.7850 -0.1215
  512MOL0     O69033   4.212   8.772   7.888 -0.2337  0.2144 -0.4338
  512MOL0     C69034   4.140   8.422   7.832  0.4515  0.3030  1.1693
  512MOL0     C69035   4.201   8.298   7.818  0.1626  0.0754  0.5636
  512MOL0     N69036   4.795   7.715   7.583  0.4255 -0.6260 -0.1165
  512MOL0     N69037   4.783   7.607   7.507  0.8772  0.6155 -0.3527
  512MOL0     C69038   3.887   7.968   7.697 -0.1636 -0.4195 -0.4064
  512MOL0     C69039   3.796   8.035   7.780 -0.0646 -0.0619 -1.1039
  512MOL0     C69040   3.430   8.206   7.938  0.0980  0.3649  0.7418
  512MOL0     C69041   3.313   8.140   7.952 -0.1512 -0.0315  0.3032
  512MOL0     C69042   3.210   8.195   8.030 -0.8499 -0.7784  0.2075
  512MOL0     C69043   3.240   8.299   8.123  0.0370  0.3357 -0.3328
  512MOL0     O69044   3.147   8.349   8.215  0.2951 -0.1470 -0.0919
  512MOL0     C69045   3.011   8.338   8.187 -0.1733  0.2643 -0.5393
  512MOL0     C69046   2.947   8.234   8.272 -0.2029  0.0168 -0.0884
  512MOL0     C69047   2.802   8.207   8.212 -0.3865 -0.1775  1.3651
  512MOL0     C69048   2.685   8.248   8.303 -1.4003  0.2322 -0.4425
  512MOL0     C69049   2.672   8.148   8.411  0.3392  0.2306  0.5120
  512MOL0     C69050   2.689   8.060   8.491  1.0918  0.4154 -0.2907
  512MOL0     C69051   3.369   8.350   8.120  0.2577 -0.1197  0.0457
  512MOL0     C69052   3.462   8.313   8.024 -0.3790 -0.0649  0.4820
  512MOL0     H69053   3.803   8.348   7.646  1.7065  1.0124  2.8987
  512MOL0     H69054   3.982   8.238   7.502 -2.6399 -0.7437 -2.6994
  512MOL0     H69055   4.061   8.061   7.324  2.9030 -1.0552 -2.3063
  512MOL0     H69056   4.188   8.052   7.463 -0.1444 -1.4050  0.9753
  512MOL0     H69057   4.087   7.811   7.297  0.5112 -1.5337  2.0649
  512MOL0     H69058   4.220   7.924   7.252 -1.7847  0.6433 -0.6498
  512MOL0     H69059   4.319   7.874   7.476  1.1309 -1.8807 -0.3875
  512MOL0     H69060   4.184   7.753   7.498 -0.7887  1.1184 -0.6205
  512MOL0     H69061   4.242   7.626   7.294  0.6326  0.5091 -2.7879
  512MOL0     H69062   4.367   7.746   7.257 -0.9478 -0.6319 -1.2689
  512MOL0     H69063   4.510   7.686   7.442 -1.6226  2.8296  0.4093
  512MOL0     H69064   4.367   7.593   7.512  0.1801 -1.0463 -0.9264
  512MOL0     H69065   4.392   7.444   7.299 -0.5127  0.3034 -1.0211
  512MOL0     H69066   4.544   7.527   7.270 -0.3008 -1.0011 -0.7017
  512MOL0     H69067   4.475   7.367   7.540 -0.5174 -1.4183 -0.5091
  512MOL0     H69068   4.545   7.287   7.393 -1.0690  1.0565 -0.1851
  512MOL0     H69069   4.738   7.352   7.436 -0.2209  0.3813 -0.6811
  512MOL0     H69070   4.672   7.307   7.587 -0.8306 -0.1661 -0.7183
  512MOL0     H69071   4.605   7.524   7.772  0.7535  1.7467  1.2053
  512MOL0     H69072   4.660   7.745   7.915 -3.2843 -1.5750 -2.5582
  512MOL0     H69073   4.825   7.784   7.874 -0.6822  1.7272  1.3765
  512MOL0     H69074   4.759   7.980   7.738  2.1602 -0.4623  0.9089
  512MOL0     H69075   4.753   7.974   7.912  0.3717 -3.0629 -0.7121
  512MOL0     H69076   4.499   7.922   7.873  1.5327 -1.2039  0.4295
  512MOL0     H69077   4.517   7.936   7.697  0.4984  0.4971 -0.2348
  512MOL0     H69078   4.587   8.176   7.741  1.2128 -0.3602  0.4538
  512MOL0     H69079   4.580   8.160   7.903 -0.4518  3.3260 -0.8742
  512MOL0     H69080   4.523   8.404   7.775  1.0763  3.9984  1.1664
  512MOL0     H69081   4.456   8.687   7.885 -1.3366 -0.9121  0.5726
  512MOL0     H69082   4.544   8.621   7.750  1.7736  2.6858  1.6136
  512MOL0     H69083   4.388   8.724   7.733 -1.2688  2.0378  4.2613
  512MOL0     H69084   3.779   8.652   7.893 -0.8980  0.4708 -1.1111
  512MOL0     H69085   3.601   8.828   7.866 -0.8435  0.8757 -1.0972
  512MOL0     H69086   3.469   9.004   7.762 -0.4991  1.1230 -0.0753
  512MOL0     H69087   3.504   9.099   7.908  1.1528 -0.7680  1.5622
  512MOL0     H69088   3.462   9.306   7.792 -1.2061  0.2160  0.4430
  512MOL0     H69089   3.490   9.226   7.651  2.5089  0.4054  0.1775
  512MOL0     H69090   3.245   9.181   7.833 -0.6666  0.6739 -0.0628
  512MOL0     H69091   3.286   9.072   7.701 -0.0173  0.0609  0.9612
  512MOL0     H69092   3.223   9.370   7.689  2.9590  0.3809 -0.3564
  512MOL0     H69093   3.295   9.288   7.560 -1.3652 -3.4306 -2.0297
  512MOL0     H69094   3.117   9.122   7.543 -1.4771  0.5151 -1.0222
  512MOL0     H69095   3.050   9.283   7.516 -1.8663 -2.5763 -1.2772
  512MOL0     H69096   3.042   9.112   7.773 -0.5001  0.4159  0.3233
  512MOL0     H69097   2.980   9.276   7.764  4.0390 -0.4038  0.9757
  512MOL0     H69098   2.863   9.091   7.559 -0.8607 -0.4623  0.4764
  512MOL0     H69099   2.816   9.249   7.594 -0.5987 -2.2795 -3.1344
  512MOL0     H69100   2.747   9.155   7.833 -1.9369 -0.5302  0.8302
  512MOL0     H69101   2.795   9.000   7.762 -1.2186 -0.4047  0.8619
  512MOL0     H69102   3.883   9.082   7.686  2.5885  1.0361  3.1857
  512MOL0     H69103   4.057   8.915   7.712 -0.1574  1.8899  1.0560
  512MOL0     H69104   4.032   8.435   7.833  0.7222  4.1804 -0.7053
  512MOL0     H69105   4.137   8.211   7.804  1.6856 -1.1334  0.8081
  512MOL0     H69106   3.894   7.860   7.704 -1.0585 -0.7983 -3.6906
  512MOL0     H69107   3.744   7.963   7.842  1.4170 -0.4871 -0.3089
  512MOL0     H69108   3.290   8.053   7.891 -0.3513  0.9781 -1.1368
  512MOL0     H69109   3.115   8.146   8.013 -0.0052 -1.7572 -2.1617
  512MOL0     H69110   2.970   8.439   8.186 -0.8185  0.0186  0.0484
  512MOL0     H69111   3.005   8.311   8.081 -3.8108 -1.5685 -0.0531
  512MOL0     H69112   2.948   8.261   8.378  0.6507  2.1649 -0.5820
  512MOL0     H69113   3.007   8.143   8.268  0.1602  0.1408  1.8145
  512MOL0     H69114   2.799   8.102   8.181  0.4445  0.6833 -2.1228
  512MOL0     H69115   2.785   8.269   8.123  2.3617 -0.9573  0.1865
  512MOL0     H69116   2.591   8.255   8.247 -2.0141 -3.5574 -0.1435
  512MOL0     H69117   2.727   8.342   8.341  3.6935 -1.7380 -0.3952
  512MOL0     H69118   2.707   7.990   8.570 -2.1762 -0.2199  0.0479
  512MOL0     H69119   3.408   8.431   8.181  0.1925  0.7321 -1.0179
  512MOL0     H69120   3.561   8.358   8.018 -0.5046  0.0237 -2.9259
  513MOL0     O69121  10.058   1.654   3.741  0.7485  0.2383 -0.7287
  513MOL0     C69122  10.122   1.546   3.747 -0.0428 -0.6716  0.0249
  513MOL0     O69123  10.112   1.458   3.851  0.5276  0.4262 -0.0884
  513MOL0     C69124  10.081   1.502   3.976  1.0078 -0.7676  0.1947
  513MOL0     C69125   9.965   1.580   4.005  0.4890 -0.9766 -0.0189
  513MOL0     C69126   9.930   1.601   4.138  1.2240  0.5090 -0.2654
  513MOL0     C69127  10.010   1.559   4.245 -0.4166 -0.2635  0.4570
  513MOL0     O69128   9.974   1.574   4.372 -0.1444  0.3967 -0.2501
  513MOL0     C69129  10.049   1.685   4.427  0.6950 -1.1974 -0.3361
  513MOL0     C69130  10.086   1.655   4.574 -0.1135  0.3488  0.7738
  513MOL0     C69131   9.965   1.670   4.663 -0.3137  0.9990 -0.5808
  513MOL0     C69132  10.022   1.687   4.804  0.1050 -0.0873  0.4220
  513MOL0     C69133   9.910   1.668   4.907  0.5160  0.4335  0.0227
  513MOL0     C69134   9.790   1.761   4.889 -0.9329  0.9432  0.3769
  513MOL0     C69135   9.669   1.688   4.962 -0.4688  0.2703 -0.8783
  513MOL0     C69136   9.534   1.759   4.965  0.4224 -0.5749  0.2989
  513MOL0     N69137   9.532   1.881   5.048  0.2885 -0.3017 -0.5660
  513MOL0     C69138   9.452   1.898   5.153  0.3600 -0.9510 -1.0172
  513MOL0     C69139   9.489   2.010   5.217 -1.2380 -0.7012  0.2680
  513MOL0     C69140   9.426   2.078   5.338 -0.2788 -0.1419  0.3197
  513MOL0     C69141   9.366   1.986   5.445 -0.6155 -0.7932  0.4789
  513MOL0     C69142   9.344   2.058   5.588  0.6498  0.2316  0.9191
  513MOL0     C69143   9.313   1.945   5.673  0.1504  0.2820 -0.3793
  513MOL0     O69144   9.322   1.981   5.812 -0.3356  0.0461 -0.3833
  513MOL0     C69145   9.265   1.902   5.909  0.9536 -0.1437  0.8837
  513MOL0     C69146   9.150   1.825   5.898 -0.6381 -0.1413  0.1495
  513MOL0     C69147   9.078   1.768   6.006 -0.3342 -0.0244 -0.1422
  513MOL0     C69148   8.957   1.685   5.961 -0.0755  0.8325 -0.4148
  513MOL0     C69149   9.127   1.791   6.136 -0.2967 -1.1070 -0.6111
  513MOL0     C69150   9.062   1.747   6.259  0.5700  0.0062  0.2601
  513MOL0     O69151   8.922   1.762   6.266  0.3654  0.3764  0.4137
  513MOL0     C69152   8.858   1.689   6.364  0.3884 -0.4991 -0.7252
  513MOL0     C69153   8.876   1.693   6.499  1.1947 -0.1330 -0.8975
  513MOL0     C69154   8.802   1.617   6.587  1.1198  0.0147 -0.2761
  513MOL0     C69155   8.689   1.545   6.547 -0.3384  0.3941  0.0008
  513MOL0     O69156   8.621   1.474   6.645  0.2340 -0.4881  0.5779
  513MOL0     C69157   8.702   1.399   6.745  0.1528 -0.9681  0.4610
  513MOL0     C69158   8.606   1.320   6.830 -0.6308  0.5853  0.2430
  513MOL0     C69159   8.509   1.416   6.904 -0.4366 -0.6843  0.1089
  513MOL0     C69160   8.422   1.359   7.011 -0.4048  0.1093 -0.2889
  513MOL0     C69161   8.500   1.350   7.145  0.2512  0.2121 -0.8900
  513MOL0     C69162   8.427   1.307   7.274 -0.3635  0.1761  0.2301
  513MOL0     C69163   8.343   1.185   7.275 -0.1238 -0.1664  0.4499
  513MOL0     C69164   8.270   1.169   7.405 -0.0840  1.0028 -0.3407
  513MOL0    Cl69165   8.225   0.994   7.434 -0.5820  0.0552 -0.4271
  513MOL0     C69166   8.652   1.548   6.414 -0.0667 -0.5033  0.0763
  513MOL0     C69167   8.743   1.618   6.326 -0.6956  0.6071  0.7469
  513MOL0     O69168   9.139   1.698   6.346 -0.8035 -0.3254  0.3446
  513MOL0     C69169   9.252   1.865   6.154 -0.8321  1.4970 -0.0608
  513MOL0     C69170   9.315   1.923   6.041  0.1288 -0.1201  0.2032
  513MOL0     N69171   9.590   2.072   5.145 -0.2551 -0.6069  0.0314
  513MOL0     N69172   9.613   1.996   5.046  0.0274  0.2040 -0.1404
  513MOL0     C69173  10.119   1.486   4.222 -0.7931  0.3866  0.2225
  513MOL0     C69174  10.163   1.466   4.088  0.4082 -0.5583  0.3196
  513MOL0     C69175  10.165   1.505   3.613  0.7998  0.0831 -0.6106
  513MOL0     C69176  10.211   1.597   3.525 -0.1797  0.2367  1.0228
  513MOL0     C69177  10.252   1.563   3.391 -0.8656  0.6453  0.3588
  513MOL0     C69178  10.253   1.421   3.360  0.0625 -0.7210  0.8064
  513MOL0     O69179  10.287   1.373   3.231 -0.5787  0.0615 -0.5036
  513MOL0     C69180  10.232   1.443   3.120  1.6128  0.4181 -0.0144
  513MOL0     C69181  10.089   1.462   3.130  0.3954 -0.2868  0.2786
  513MOL0     C69182  10.013   1.498   2.999 -0.4791 -0.3409 -0.0041
  513MOL0     C69183   9.877   1.554   3.042  0.5554 -0.5238 -0.7601
  513MOL0     C69184   9.887   1.701   3.063 -0.8995 -1.0724 -0.8823
  513MOL0     C69185   9.921   1.812   3.090  0.8737  0.1429  0.2581
  513MOL0     C69186  10.190   1.336   3.446  0.3227 -0.3364  1.1327
  513MOL0     C69187  10.146   1.371   3.568  0.1219 -0.9219  0.6377
  513MOL0     H69188   9.891   1.627   3.941 -1.8164  0.1268  3.1771
  513MOL0     H69189   9.837   1.645   4.174  1.3693 -1.2211  2.5072
  513MOL0     H69190  10.139   1.710   4.371  0.0974  3.2565  0.3207
  513MOL0     H69191   9.988   1.776   4.435 -0.2958 -1.9453  1.2538
  513MOL0     H69192  10.122   1.553   4.590 -0.6105  0.0169 -0.1344
  513MOL0     H69193  10.163   1.720   4.616  0.9057 -1.7979  2.4378
  513MOL0     H69194   9.903   1.755   4.633 -0.9423  0.8625  0.2947
  513MOL0     H69195   9.891   1.589   4.661  0.8005 -0.0428 -0.9756
  513MOL0     H69196  10.083   1.600   4.828 -0.6742 -0.5012  0.9170
  513MOL0     H69197  10.072   1.783   4.823 -2.0232  0.7158  2.4704
  513MOL0     H69198   9.892   1.560   4.908  1.7962  0.1642  2.3477
  513MOL0     H69199   9.960   1.688   5.003  0.9070  0.7116 -0.2332
  513MOL0     H69200   9.824   1.847   4.948  1.7259  0.5767 -0.4961
  513MOL0     H69201   9.756   1.795   4.790 -1.3742  1.9035  0.8430
  513MOL0     H69202   9.676   1.590   4.913 -0.4332 -1.0779  1.6501
  513MOL0     H69203   9.709   1.676   5.063  0.2780 -3.4270 -1.4596
  513MOL0     H69204   9.463   1.688   5.009 -0.4019  1.7789  3.1133
  513MOL0     H69205   9.507   1.793   4.865 -2.7804 -0.9158  0.9540
  513MOL0     H69206   9.368   1.835   5.181 -0.1953  0.4116  0.6030
  513MOL0     H69207   9.506   2.125   5.395  0.4256 -2.8019  1.6757
  513MOL0     H69208   9.352   2.153   5.310  0.5840  0.7052  0.2320
  513MOL0     H69209   9.437   1.903   5.447  0.5704  0.0942 -1.5950
  513MOL0     H69210   9.276   1.940   5.402 -0.2740  0.3465 -1.5795
  513MOL0     H69211   9.268   2.136   5.583  1.7686  1.5016  2.6970
  513MOL0     H69212   9.437   2.106   5.620  0.9621 -0.0682  0.4847
  513MOL0     H69213   9.399   1.879   5.656 -0.8299 -0.8137 -1.2150
  513MOL0     H69214   9.216   1.897   5.655  0.0505  0.6398 -0.8049
  513MOL0     H69215   9.116   1.799   5.799  0.2972 -1.6065  0.1892
  513MOL0     H69216   8.978   1.604   5.891 -2.4654  3.2920 -4.3716
  513MOL0     H69217   8.931   1.630   6.052 -3.1552  1.1802 -0.9715
  513MOL0     H69218   8.877   1.746   5.916  0.4356 -0.2784 -3.0209
  513MOL0     H69219   8.954   1.752   6.546  0.7006  0.9894 -1.4342
  513MOL0     H69220   8.822   1.621   6.694 -0.0174 -1.3972  0.0225
  513MOL0     H69221   8.780   1.347   6.690 -0.1053 -0.8595 -0.0187
  513MOL0     H69222   8.745   1.472   6.815 -0.0608 -0.5093  0.1213
  513MOL0     H69223   8.557   1.250   6.762  3.3259 -2.4256  0.1540
  513MOL0     H69224   8.667   1.264   6.901  0.3479 -0.0528 -1.0698
  513MOL0     H69225   8.461   1.479   6.828  1.7631  1.6855  0.5508
  513MOL0     H69226   8.571   1.495   6.948  0.8626 -1.3072 -0.5483
  513MOL0     H69227   8.324   1.408   7.005  0.0181  0.9234 -0.5665
  513MOL0     H69228   8.395   1.258   6.978  1.2138 -0.1536 -0.8579
  513MOL0     H69229   8.553   1.443   7.164 -0.2747  0.3562 -0.0882
  513MOL0     H69230   8.582   1.282   7.121 -0.8597 -1.3685 -0.3984
  513MOL0     H69231   8.507   1.287   7.345 -2.9264 -2.6218  2.6028
  513MOL0     H69232   8.373   1.396   7.309  1.3898  1.9013 -1.1683
  513MOL0     H69233   8.407   1.100   7.250 -1.9276 -0.8129 -2.5533
  513MOL0     H69234   8.269   1.185   7.194 -0.7737 -1.2005  1.0108
  513MOL0     H69235   8.174   1.221   7.410 -1.8858 -1.7337 -3.1413
  513MOL0     H69236   8.334   1.204   7.487  2.7916 -3.1314 -0.5150
  513MOL0     H69237   8.567   1.489   6.381 -1.8487  1.8115  0.2376
  513MOL0     H69238   8.715   1.622   6.221  0.4287  0.2583  0.4136
  513MOL0     H69239   9.292   1.875   6.254 -0.4417  2.2736 -0.2886
  513MOL0     H69240   9.399   1.987   6.064 -0.7507  0.3946  2.2205
  513MOL0     H69241  10.177   1.450   4.308 -1.3346  2.0939  1.3455
  513MOL0     H69242  10.261   1.419   4.083  1.7006  1.9685  0.0199
  513MOL0     H69243  10.218   1.699   3.563  2.7465  0.7430 -0.5082
  513MOL0     H69244  10.287   1.633   3.316  0.1691 -0.1586  0.0707
  513MOL0     H69245  10.278   1.542   3.106  3.8437 -0.5763 -0.2726
  513MOL0     H69246  10.259   1.373   3.040 -0.5303 -2.3095  1.4754
  513MOL0     H69247  10.068   1.544   3.199 -2.4060 -1.2688  0.7575
  513MOL0     H69248  10.043   1.375   3.178  3.8666 -2.0984  0.6059
  513MOL0     H69249  10.012   1.416   2.927  3.5008  1.1565 -2.1079
  513MOL0     H69250  10.067   1.582   2.954 -2.2793  0.3692 -0.9141
  513MOL0     H69251   9.850   1.520   3.142 -0.8336  3.1395  0.2675
  513MOL0     H69252   9.803   1.535   2.963 -0.7028 -1.7883  0.6672
  513MOL0     H69253   9.950   1.914   3.107 -0.6315  0.3462  1.8921
  513MOL0     H69254  10.164   1.234   3.417  0.0794  0.0139  0.0764
  513MOL0     H69255  10.104   1.295   3.633 -1.1111 -0.6437  0.1889
  514MOL0     O69256   0.614   5.145   8.180  0.0057  0.5539 -0.3027
  514MOL0     C69257   0.509   5.168   8.242  0.8840  0.1465 -0.3505
  514MOL0     O69258   0.380   5.194   8.182 -0.5665  0.0828  0.1144
  514MOL0     C69259   0.368   5.200   8.043  0.2962 -0.1917 -0.8033
  514MOL0     C69260   0.284   5.301   7.996  0.7587 -0.1954  0.0748
  514MOL0     C69261   0.252   5.308   7.859  0.1707  0.0635  1.0657
  514MOL0     C69262   0.304   5.217   7.769 -0.4969  0.0647 -0.3999
  514MOL0     O69263   0.261   5.214   7.635 -0.4164  0.4558  0.5676
  514MOL0     C69264   0.279   5.332   7.551 -0.2701 -0.0691 -0.3172
  514MOL0     C69265   0.252   5.327   7.400 -0.4904  0.1061  0.3888
  514MOL0     C69266   0.345   5.220   7.324  0.3153 -0.5584 -0.7863
  514MOL0     C69267   0.492   5.238   7.326 -0.1852 -0.0329 -1.1345
  514MOL0     C69268   0.563   5.119   7.258 -0.1481  0.1381  0.0504
  514MOL0     C69269   0.714   5.125   7.260 -0.6956 -0.3459  0.9324
  514MOL0     C69270   0.766   5.052   7.134  0.0093  0.0439  0.8887
  514MOL0     C69271   0.905   4.984   7.147  0.0779  0.0666 -1.1362
  514MOL0     N69272   1.014   5.085   7.149  0.9036  0.0863  0.6105
  514MOL0     C69273   1.051   5.155   7.259 -0.4802  0.6229  0.4292
  514MOL0     C69274   1.160   5.232   7.230 -0.1895 -0.0538 -0.1684
  514MOL0     C69275   1.229   5.334   7.319 -0.1851 -0.5591 -0.8516
  514MOL0     C69276   1.292   5.445   7.236 -0.6133  1.3335 -0.6467
  514MOL0     C69277   1.419   5.516   7.298  0.2744 -0.0843 -0.1895
  514MOL0     C69278   1.554   5.447   7.256  0.1747 -0.2474 -0.8060
  514MOL0     O69279   1.574   5.340   7.345  0.1227  0.6810  0.0893
  514MOL0     C69280   1.671   5.237   7.320  1.1378  0.7563 -0.6427
  514MOL0     C69281   1.680   5.127   7.401  0.3095 -0.3245  0.0824
  514MOL0     C69282   1.778   5.029   7.382 -0.1695  0.3616  0.1181
  514MOL0     C69283   1.768   4.913   7.484  0.4064  0.1299 -0.0407
  514MOL0     C69284   1.868   5.040   7.280 -0.2973 -0.8128  1.0427
  514MOL0     C69285   1.984   4.956   7.260  0.7611  0.6319  0.7639
  514MOL0     O69286   2.010   4.910   7.132  0.1994 -0.3502 -0.2105
  514MOL0     C69287   2.122   4.838   7.123 -0.2298 -0.9003 -1.3656
  514MOL0     C69288   2.229   4.899   7.069  0.8022 -0.3084 -0.3106
  514MOL0     C69289   2.347   4.823   7.065 -0.2864  1.5470  0.3204
  514MOL0     C69290   2.349   4.691   7.121 -1.1458  0.6821 -0.5892
  514MOL0     O69291   2.462   4.613   7.119 -0.1001 -0.0582 -0.5571
  514MOL0     C69292   2.596   4.677   7.112  0.6768  0.5591  0.0692
  514MOL0     C69293   2.703   4.591   7.173 -0.1833 -0.4216  0.1930
  514MOL0     C69294   2.729   4.470   7.078 -1.0510  0.1637 -0.3232
  514MOL0     C69295   2.876   4.424   7.081  0.1900 -0.2581 -0.4113
  514MOL0     C69296   2.930   4.389   7.221  0.8497  1.2023 -0.0652
  514MOL0     C69297   3.057   4.452   7.266  0.6743  0.5192 -0.0491
  514MOL0     C69298   3.186   4.393   7.191 -1.6610 -0.0397 -0.5097
  514MOL0     C69299   3.240   4.262   7.252 -0.7441  0.3306 -1.5359
  514MOL0    Cl69300   3.150   4.122   7.185 -0.0195  0.4542  0.1736
  514MOL0     C69301   2.241   4.633   7.179 -0.0580  0.3583  0.4596
  514MOL0     C69302   2.123   4.706   7.179 -0.5216 -0.2763  0.8189
  514MOL0     O69303   2.051   4.934   7.358  0.0859 -0.3368  0.2130
  514MOL0     C69304   1.852   5.148   7.190 -0.6463  0.5106 -1.0864
  514MOL0     C69305   1.752   5.239   7.205  0.4392  0.2514 -0.0956
  514MOL0     N69306   1.197   5.201   7.094 -0.1199 -0.8921 -0.1285
  514MOL0     N69307   1.107   5.114   7.054  0.1012 -0.4272  0.7242
  514MOL0     C69308   0.384   5.117   7.822  0.0407  0.0529  0.7157
  514MOL0     C69309   0.419   5.107   7.958  0.8363  0.5093 -0.2559
  514MOL0     C69310   0.521   5.188   8.388 -0.1644 -0.9092 -0.8244
  514MOL0     C69311   0.439   5.277   8.450  0.5458  0.0058 -0.6732
  514MOL0     C69312   0.455   5.319   8.581  0.8618  0.6895  0.6082
  514MOL0     C69313   0.559   5.249   8.661  1.0077  0.3533  0.0176
  514MOL0     O69314   0.570   5.257   8.800 -0.6866 -0.1450  0.1896
  514MOL0     C69315   0.597   5.387   8.843 -0.9229  0.9937 -0.1726
  514MOL0     C69316   0.580   5.401   8.998  0.6814  0.1570 -0.4696
  514MOL0     C69317   0.694   5.319   9.078  0.7428 -0.3663  0.9276
  514MOL0     C69318   0.698   5.364   9.227  0.1388 -0.6900  0.1532
  514MOL0     C69319   0.719   5.513   9.244  0.5970  0.9642  0.7884
  514MOL0     C69320   0.730   5.633   9.230  0.3369  0.5507 -0.4768
  514MOL0     C69321   0.637   5.151   8.595  0.1951  0.9521 -0.4075
  514MOL0     C69322   0.631   5.130   8.454  1.2565  0.7134 -0.4895
  514MOL0     H69323   0.251   5.375   8.069 -0.6573 -0.3051 -0.4353
  514MOL0     H69324   0.185   5.387   7.826  0.4447 -0.3586 -0.5574
  514MOL0     H69325   0.208   5.404   7.591 -1.8617 -1.7344  0.0062
  514MOL0     H69326   0.385   5.357   7.561 -0.2166 -0.6393  0.7103
  514MOL0     H69327   0.150   5.291   7.389  0.0546 -0.6848 -3.2942
  514MOL0     H69328   0.267   5.424   7.350  0.9424  0.0049  0.5595
  514MOL0     H69329   0.320   5.133   7.385 -1.7496  0.2811 -0.3451
  514MOL0     H69330   0.306   5.196   7.225 -1.5905  0.1852 -0.2523
  514MOL0     H69331   0.523   5.314   7.254  2.1237 -0.4959 -0.7192
  514MOL0     H69332   0.537   5.253   7.425  2.7726 -0.7532 -2.2574
  514MOL0     H69333   0.530   5.026   7.306  0.3883  0.9950  2.2073
  514MOL0     H69334   0.522   5.117   7.157 -1.3912 -1.5461  0.5301
  514MOL0     H69335   0.748   5.228   7.267 -0.9814 -0.2516  0.9672
  514MOL0     H69336   0.748   5.082   7.355  0.3142 -0.3845  0.5614
  514MOL0     H69337   0.699   4.968   7.113  1.6338 -0.1816 -5.6252
  514MOL0     H69338   0.761   5.114   7.044  1.5666 -1.0170  0.0151
  514MOL0     H69339   0.918   4.910   7.068  1.4731  0.1393 -0.9995
  514MOL0     H69340   0.909   4.944   7.248 -4.3122 -0.2541 -0.9067
  514MOL0     H69341   0.987   5.159   7.346  0.6356  1.2137  1.2472
  514MOL0     H69342   1.155   5.386   7.381  3.2133  2.8845  0.6564
  514MOL0     H69343   1.305   5.288   7.382  0.9407  4.2061  1.7504
  514MOL0     H69344   1.212   5.520   7.228 -2.2610 -0.3993 -1.0795
  514MOL0     H69345   1.313   5.407   7.135 -0.6798 -2.8855  0.7457
  514MOL0     H69346   1.410   5.508   7.407 -0.4208  0.5648 -0.1901
  514MOL0     H69347   1.419   5.622   7.269  1.1715 -0.2549 -0.8452
  514MOL0     H69348   1.628   5.523   7.285 -1.9231  0.9305  1.8949
  514MOL0     H69349   1.554   5.424   7.149  2.2992  2.3983 -1.4872
  514MOL0     H69350   1.599   5.095   7.467  0.2182 -2.4757 -0.9703
  514MOL0     H69351   1.784   4.819   7.432 -2.0304  1.2263 -3.1100
  514MOL0     H69352   1.849   4.937   7.554 -1.0093  2.4136  0.9615
  514MOL0     H69353   1.669   4.915   7.532 -0.3102  2.9965 -1.3683
  514MOL0     H69354   2.219   5.003   7.042 -2.0065  0.3504  2.5930
  514MOL0     H69355   2.432   4.853   7.004 -0.7903 -0.6308 -1.6119
  514MOL0     H69356   2.627   4.693   7.008  2.0743 -2.4063 -0.0963
  514MOL0     H69357   2.600   4.776   7.158  0.1560  0.9294 -0.6676
  514MOL0     H69358   2.783   4.663   7.196 -0.4899 -0.3086  0.9228
  514MOL0     H69359   2.658   4.554   7.265 -3.3747 -0.7615 -1.3818
  514MOL0     H69360   2.705   4.481   6.972  0.1952 -2.1897 -0.9467
  514MOL0     H69361   2.658   4.394   7.112  0.8336 -2.1627 -1.2960
  514MOL0     H69362   2.889   4.341   7.010 -0.1019 -0.6368 -0.0279
  514MOL0     H69363   2.929   4.508   7.037  0.6128  1.1813  2.6259
  514MOL0     H69364   2.938   4.280   7.227  2.3334  1.3246  0.8659
  514MOL0     H69365   2.842   4.405   7.284  1.0409 -4.3917  2.2766
  514MOL0     H69366   3.054   4.560   7.248 -0.2951  1.3199  4.0705
  514MOL0     H69367   3.069   4.432   7.373 -0.3049 -0.0545 -0.0306
  514MOL0     H69368   3.270   4.459   7.213 -0.9682 -1.7326  2.3992
  514MOL0     H69369   3.187   4.382   7.082  1.0587  1.2748 -0.6935
  514MOL0     H69370   3.219   4.275   7.359 -0.7484 -0.2479 -1.4640
  514MOL0     H69371   3.349   4.255   7.256 -0.8311 -1.2719 -1.0752
  514MOL0     H69372   2.237   4.530   7.214 -1.4437  0.1844 -0.1424
  514MOL0     H69373   2.041   4.661   7.232  1.0563 -1.9272  1.9814
  514MOL0     H69374   1.927   5.167   7.114  0.3056 -0.9460 -0.5611
  514MOL0     H69375   1.760   5.324   7.138 -2.7943  0.2784 -0.6122
  514MOL0     H69376   0.416   5.043   7.750 -0.8328  0.4870 -0.1349
  514MOL0     H69377   0.485   5.027   7.990  2.2846  0.1453 -3.7604
  514MOL0     H69378   0.359   5.324   8.394 -2.3974 -0.7456  2.5939
  514MOL0     H69379   0.393   5.401   8.617 -0.9585  0.5486 -1.9503
  514MOL0     H69380   0.704   5.399   8.823 -1.0196  1.0232 -0.6848
  514MOL0     H69381   0.554   5.468   8.784  1.4985  2.2225 -0.3821
  514MOL0     H69382   0.478   5.381   9.032 -0.6980  1.7254 -3.3258
  514MOL0     H69383   0.591   5.508   9.017  1.4899 -0.3012  2.0916
  514MOL0     H69384   0.788   5.328   9.024 -0.9521 -0.9277 -2.3893
  514MOL0     H69385   0.663   5.214   9.066 -2.6498  0.5659  0.2703
  514MOL0     H69386   0.782   5.313   9.275 -1.0228 -2.3483  0.4919
  514MOL0     H69387   0.605   5.339   9.277 -0.8994 -1.4371 -2.0314
  514MOL0     H69388   0.735   5.739   9.214  0.9986  0.9741  2.1038
  514MOL0     H69389   0.726   5.118   8.648 -0.7825  1.9884  2.0090
  514MOL0     H69390   0.692   5.055   8.406 -0.5177 -1.5115  0.5430
  515MOL0     O69391   7.815   0.761   9.173  0.7818  0.1427  0.7052
  515MOL0     C69392   7.890   0.672   9.148 -0.0112 -0.5702 -0.0170
  515MOL0     O69393   7.964   0.606   9.236 -0.7196 -1.0395  0.1459
  515MOL0     C69394   7.939   0.629   9.368 -0.9510  0.0101  0.1369
  515MOL0     C69395   7.807   0.627   9.418  0.1450  0.9777 -0.1636
  515MOL0     C69396   7.785   0.643   9.550 -0.1797  0.5512  0.3594
  515MOL0     C69397   7.894   0.673   9.638  0.6615 -0.0852  0.3434
  515MOL0     O69398   7.876   0.692   9.770 -0.7389  0.1779  0.4675
  515MOL0     C69399   7.765   0.630   9.848  0.2786  0.6791  0.1543
  515MOL0     C69400   7.814   0.611   9.987 -0.4175  0.4842 -0.1595
  515MOL0     C69401   7.887   0.742  10.035  0.3781 -0.2910 -0.9371
  515MOL0     C69402   7.905   0.746  10.189  0.7115 -0.5312  0.5359
  515MOL0     C69403   7.956   0.608  10.243  0.1484  0.2081 -0.6897
  515MOL0     C69404   8.049   0.630  10.375 -0.2912  0.4558 -0.0943
  515MOL0     C69405   8.001   0.733  10.475 -0.4383  0.3477  0.3893
  515MOL0     C69406   8.070   0.714  10.613  0.5202  0.2739  0.3023
  515MOL0     N69407   8.015   0.806  10.719 -0.1863 -0.0264 -0.4897
  515MOL0     C69408   8.096   0.904  10.778 -0.3215  0.1563 -0.5421
  515MOL0     C69409   8.017   0.984  10.843 -0.3417 -0.2788 -0.2049
  515MOL0     C69410   8.062   1.110  10.911  0.0409 -0.4450  0.0638
  515MOL0     C69411   7.941   1.206  10.944  0.6150  0.3567  0.6537
  515MOL0     C69412   7.868   1.254  10.816  0.2436 -0.9368  1.1540
  515MOL0     C69413   7.789   1.391  10.838 -0.6149 -0.8335 -0.6480
  515MOL0     O69414   7.889   1.497  10.859  0.1940 -0.7612  0.1494
  515MOL0     C69415   7.853   1.632  10.867  0.9387  0.1432  0.3391
  515MOL0     C69416   7.716   1.678  10.885  0.5804  0.1098  0.6335
  515MOL0     C69417   7.688   1.812  10.901 -0.5659 -0.4530  0.5094
  515MOL0     C69418   7.540   1.864  10.908  0.2068 -1.0831  0.7178
  515MOL0     C69419   7.800   1.904  10.918 -0.4711 -0.0796  1.0428
  515MOL0     C69420   7.781   2.056  10.939  0.4488 -0.1105  1.1001
  515MOL0     O69421   7.890   2.132  10.907  0.9612 -0.6786  0.7781
  515MOL0     C69422   7.860   2.260  10.914 -0.1488 -0.0663  0.0408
  515MOL0     C69423   7.912   2.332  11.022 -0.0553 -0.3956 -0.3859
  515MOL0     C69424   7.890   2.471  11.037  0.3387  0.3714 -0.3121
  515MOL0     C69425   7.805   2.541  10.943  0.1741  0.4191  0.0392
  515MOL0     O69426   7.797   2.678  10.964  0.4478  0.3464  0.3435
  515MOL0     C69427   7.718   2.766  10.881 -0.3672 -0.3776 -0.2440
  515MOL0     C69428   7.564   2.749  10.903  0.7009  0.1758 -0.7689
  515MOL0     C69429   7.515   2.836  11.015  0.4311  0.1183 -0.8541
  515MOL0     C69430   7.364   2.816  11.048 -0.1609  0.2022 -0.1299
  515MOL0     C69431   7.316   2.934  11.134  1.0150  0.5841  0.2726
  515MOL0     C69432   7.168   2.955  11.125 -0.2491 -0.0981  0.0940
  515MOL0     C69433   7.115   3.066  11.218  0.0303 -0.4944 -0.0403
  515MOL0     C69434   6.969   3.079  11.200 -0.3596  0.3037 -0.4768
  515MOL0    Cl69435   6.915   3.216  11.297 -0.2522  0.1396 -0.2382
  515MOL0     C69436   7.764   2.473  10.837  0.5903 -1.0209  0.7268
  515MOL0     C69437   7.790   2.339  10.818 -1.8729  0.7528  0.9346
  515MOL0     O69438   7.669   2.100  10.983  0.0235 -0.4813 -0.3695
  515MOL0     C69439   7.932   1.859  10.900 -0.0835 -0.4454  0.3906
  515MOL0     C69440   7.961   1.724  10.866  0.0208  0.3719  0.4667
  515MOL0     N69441   7.889   0.933  10.843 -0.3389  0.2338  0.2572
  515MOL0     N69442   7.886   0.835  10.760  0.1899  0.3992 -0.5126
  515MOL0     C69443   8.023   0.684   9.587  0.5750  0.6438 -0.6320
  515MOL0     C69444   8.052   0.660   9.453 -0.0848  0.6967  0.1499
  515MOL0     C69445   7.926   0.628   9.008 -0.3911 -0.0228  0.8065
  515MOL0     C69446   7.951   0.493   8.977 -0.1444  0.4458  0.4727
  515MOL0     C69447   7.958   0.454   8.844 -0.4090  0.2886  0.0630
  515MOL0     C69448   7.950   0.545   8.739 -0.4808 -0.6086  0.4641
  515MOL0     O69449   7.951   0.513   8.608 -0.1478  1.0284  0.2447
  515MOL0     C69450   7.987   0.379   8.562 -0.0163 -0.6576 -0.0285
  515MOL0     C69451   8.144   0.362   8.573 -0.1592  0.1431 -0.0249
  515MOL0     C69452   8.202   0.225   8.524  0.2718  0.0280  0.1228
  515MOL0     C69453   8.353   0.244   8.521 -0.6893 -0.1946 -0.1407
  515MOL0     C69454   8.396   0.104   8.512 -0.7786 -0.0910  0.0828
  515MOL0     C69455   8.436  -0.012   8.498  0.2242 -0.0729 -0.1258
  515MOL0     C69456   7.933   0.681   8.768 -0.0174 -0.2591  0.2595
  515MOL0     C69457   7.925   0.721   8.901 -0.6531 -0.2575 -1.1417
  515MOL0     H69458   7.727   0.612   9.346  0.3769  2.6701 -0.8168
  515MOL0     H69459   7.687   0.664   9.592  0.3961  1.2528  1.4028
  515MOL0     H69460   7.687   0.707   9.845 -0.1512  0.2997  1.2858
  515MOL0     H69461   7.725   0.537   9.807 -2.5198  1.8583 -0.0011
  515MOL0     H69462   7.735   0.583  10.057  1.7524  0.8133  2.6259
  515MOL0     H69463   7.890   0.532   9.988  0.0449  0.7074 -4.0819
  515MOL0     H69464   7.987   0.727   9.995  2.3267  1.9584  2.6328
  515MOL0     H69465   7.832   0.829  10.000 -0.6569 -0.3172  0.5067
  515MOL0     H69466   7.985   0.818  10.207 -0.5572  1.2932 -0.8228
  515MOL0     H69467   7.814   0.775  10.242 -0.7277  1.7934 -2.8739
  515MOL0     H69468   7.871   0.547  10.274  1.2595 -0.2163  1.7747
  515MOL0     H69469   8.016   0.558  10.167  0.7027 -1.9826  1.0778
  515MOL0     H69470   8.036   0.530  10.418 -2.3102 -0.2850 -2.2378
  515MOL0     H69471   8.151   0.656  10.346 -0.0340 -1.1152 -0.6770
  515MOL0     H69472   8.013   0.836  10.442  2.6483 -0.8784 -2.8665
  515MOL0     H69473   7.896   0.709  10.496 -0.5445 -1.5312 -1.9053
  515MOL0     H69474   8.176   0.731  10.597  0.4608  2.3383  1.6783
  515MOL0     H69475   8.070   0.612  10.651  5.0557  0.2072  0.5671
  515MOL0     H69476   8.200   0.919  10.751  0.4735 -2.7703  0.5509
  515MOL0     H69477   8.122   1.074  10.996  2.8075 -1.6115 -2.2128
  515MOL0     H69478   8.133   1.169  10.853  0.9802 -1.2038  0.4064
  515MOL0     H69479   7.970   1.301  10.990  0.4766  0.4217  0.6069
  515MOL0     H69480   7.870   1.167  11.018  0.2423 -0.6082 -0.1896
  515MOL0     H69481   7.793   1.185  10.778 -3.2848  4.4529 -3.3949
  515MOL0     H69482   7.931   1.255  10.727 -2.2045 -1.6030 -0.6965
  515MOL0     H69483   7.724   1.378  10.925  1.9655  1.6492  1.8376
  515MOL0     H69484   7.744   1.421  10.743  1.8533  1.6932 -1.1539
  515MOL0     H69485   7.629   1.614  10.891  0.2473  0.5178  0.2265
  515MOL0     H69486   7.520   1.894  11.011  0.5682  1.2336  0.1755
  515MOL0     H69487   7.533   1.952  10.843  0.5109 -1.5196  0.0836
  515MOL0     H69488   7.470   1.783  10.886  0.5784 -1.3055  0.3265
  515MOL0     H69489   7.969   2.287  11.103  1.4389  2.3511  0.1873
  515MOL0     H69490   7.941   2.512  11.123 -2.6128 -1.6420  2.6487
  515MOL0     H69491   7.749   2.865  10.914 -0.0942 -0.2588 -0.8381
  515MOL0     H69492   7.756   2.758  10.779  2.1921 -3.7345  0.7743
  515MOL0     H69493   7.518   2.777  10.808 -0.6796 -1.0090 -0.4864
  515MOL0     H69494   7.548   2.643  10.928 -1.7132  0.2984 -1.5050
  515MOL0     H69495   7.532   2.943  11.004 -2.5476  0.5740 -1.9267
  515MOL0     H69496   7.569   2.802  11.104  2.7251  0.3355 -2.0925
  515MOL0     H69497   7.312   2.828  10.952  2.1479 -1.4211 -1.6985
  515MOL0     H69498   7.337   2.722  11.096  1.7617 -1.0620 -1.3959
  515MOL0     H69499   7.362   3.027  11.100 -0.1456  0.5089 -1.6200
  515MOL0     H69500   7.340   2.904  11.237 -3.5438  0.9857  1.6887
  515MOL0     H69501   7.144   2.975  11.020  0.1891  0.5674  0.1145
  515MOL0     H69502   7.127   2.856  11.150  3.1197 -1.3720  1.0743
  515MOL0     H69503   7.165   3.160  11.195  0.9600 -0.1890  2.8416
  515MOL0     H69504   7.140   3.040  11.321  0.4463 -0.2560 -0.0783
  515MOL0     H69505   6.926   2.987  11.240  3.8364 -0.0949  3.9935
  515MOL0     H69506   6.942   3.082  11.094  0.0691  0.9680 -0.5739
  515MOL0     H69507   7.703   2.525  10.763  2.3581 -1.0630 -0.8361
  515MOL0     H69508   7.742   2.281  10.740  1.9494 -2.2647  0.5480
  515MOL0     H69509   8.020   1.922  10.913 -1.2748  1.8251 -1.7400
  515MOL0     H69510   8.062   1.687  10.852 -0.9862 -2.1074 -0.8719
  515MOL0     H69511   8.099   0.729   9.651  0.0281  1.4137 -0.4989
  515MOL0     H69512   8.154   0.669   9.419 -0.1361  1.6640  0.2256
  515MOL0     H69513   7.963   0.411   9.047 -0.2394 -0.3332 -0.4081
  515MOL0     H69514   7.970   0.346   8.839  0.3482  0.4224 -3.6173
  515MOL0     H69515   7.946   0.299   8.623  1.1298 -0.4115  1.1038
  515MOL0     H69516   7.956   0.378   8.457  1.7425  1.1032 -0.6264
  515MOL0     H69517   8.186   0.375   8.673  1.8092  0.9605 -0.9176
  515MOL0     H69518   8.188   0.435   8.505  1.6105 -0.1048  0.7971
  515MOL0     H69519   8.168   0.202   8.422  2.0854  0.2995 -0.5677
  515MOL0     H69520   8.154   0.152   8.590  1.3547 -1.6742 -0.9117
  515MOL0     H69521   8.397   0.290   8.610  0.1292  2.2830 -1.7272
  515MOL0     H69522   8.375   0.312   8.438 -1.6606  0.8917  0.4713
  515MOL0     H69523   8.472  -0.113   8.498 -0.9771 -0.5651  1.4498
  515MOL0     H69524   7.922   0.763   8.698  2.4594 -1.5466 -1.8273
  515MOL0     H69525   7.897   0.823   8.924 -1.7187 -0.9388  0.8442
  516MOL0     O69526   3.549  10.745   4.711  0.4042 -0.2269  0.1351
  516MOL0     C69527   3.573  10.626   4.674 -0.9427 -0.3952 -0.9762
  516MOL0     O69528   3.680  10.593   4.597  0.1564 -0.5132 -0.2420
  516MOL0     C69529   3.789  10.669   4.559  0.1627 -0.3838 -0.4723
  516MOL0     C69530   3.865  10.618   4.455 -0.2898 -0.3031  0.7494
  516MOL0     C69531   3.970  10.699   4.414 -0.3262  0.0587 -0.1085
  516MOL0     C69532   4.007  10.823   4.464 -0.4198  0.6637  0.0979
  516MOL0     O69533   4.126  10.872   4.414 -0.0755  0.4981  0.4241
  516MOL0     C69534   4.141  11.014   4.398 -0.7170  1.0666  0.3813
  516MOL0     C69535   4.057  11.061   4.278 -0.4638 -0.5025 -0.2433
  516MOL0     C69536   4.096  10.994   4.151 -0.7604  0.3660  0.7920
  516MOL0     C69537   4.024  11.058   4.027  1.4010 -0.3531 -0.8494
  516MOL0     C69538   4.058  11.010   3.887  0.2136  0.2889  0.7974
  516MOL0     C69539   3.973  10.878   3.847 -0.4083 -0.7361 -0.3002
  516MOL0     C69540   3.978  10.847   3.701  0.9949  0.3999  0.6633
  516MOL0     C69541   3.922  10.704   3.668  0.2640 -0.0559 -0.0837
  516MOL0     N69542   3.772  10.696   3.651 -0.5402 -0.4420 -0.2128
  516MOL0     C69543   3.675  10.735   3.739  0.4159 -0.1413 -0.4553
  516MOL0     C69544   3.550  10.698   3.697 -0.0309  0.4820  1.1061
  516MOL0     C69545   3.419  10.718   3.769  0.0516  0.8971  1.5450
  516MOL0     C69546   3.294  10.724   3.678  0.1135 -0.3840 -0.8600
  516MOL0     C69547   3.183  10.790   3.767 -0.3139  0.4663  0.1764
  516MOL0     C69548   3.192  10.943   3.768  0.0272 -0.5401  0.1160
  516MOL0     O69549   3.116  11.000   3.878  0.4773 -1.4103  0.3248
  516MOL0     C69550   3.135  11.134   3.903  1.0664  0.3155 -1.0772
  516MOL0     C69551   3.228  11.223   3.848  0.4396  0.5687  0.0699
  516MOL0     C69552   3.237  11.359   3.890  0.2753 -0.4937  0.0962
  516MOL0     C69553   3.365  11.440   3.843 -0.3192 -0.6132  0.3682
  516MOL0     C69554   3.144  11.414   3.974  0.0578 -0.6299  0.8291
  516MOL0     C69555   3.155  11.549   4.025  0.6684 -0.1059 -0.5494
  516MOL0     O69556   3.281  11.598   4.044 -0.0640 -0.1367  0.0821
  516MOL0     C69557   3.310  11.636   4.174 -0.2471  0.7969 -0.0688
  516MOL0     C69558   3.288  11.763   4.220 -0.1001  0.1869 -0.0671
  516MOL0     C69559   3.314  11.792   4.352 -0.0488  1.0114  0.6471
  516MOL0     C69560   3.365  11.700   4.434  0.1366 -0.7243  0.7720
  516MOL0     O69561   3.387  11.726   4.571  0.2407 -0.1064  0.4065
  516MOL0     C69562   3.341  11.852   4.629  0.3302 -0.0630  0.0897
  516MOL0     C69563   3.298  11.821   4.771  0.3018  0.2574  0.2992
  516MOL0     C69564   3.417  11.794   4.861 -0.1461 -0.5188  1.7821
  516MOL0     C69565   3.383  11.778   5.012 -0.1112  0.3620  0.4636
  516MOL0     C69566   3.514  11.794   5.101 -0.6622  1.1794  0.5655
  516MOL0     C69567   3.509  11.742   5.243 -0.1884  0.5106  1.1671
  516MOL0     C69568   3.427  11.829   5.337 -0.8532 -1.1776 -0.9059
  516MOL0     C69569   3.452  11.793   5.488 -0.4587 -0.1981  0.7609
  516MOL0    Cl69570   3.382  11.642   5.542  0.3682 -0.4155 -0.2491
  516MOL0     C69571   3.383  11.573   4.396  0.1601  0.8583 -0.2588
  516MOL0     C69572   3.359  11.542   4.262  1.2621  0.1944  1.4013
  516MOL0     O69573   3.049  11.600   4.060 -0.6186 -0.0008  0.3589
  516MOL0     C69574   3.037  11.338   4.011 -0.2907  0.2802  0.1137
  516MOL0     C69575   3.029  11.196   3.986  0.1523  0.1554 -0.2142
  516MOL0     N69576   3.570  10.633   3.570  0.0971  0.0910 -0.6811
  516MOL0     N69577   3.699  10.639   3.544  0.2052  0.3968 -0.6769
  516MOL0     C69578   3.938  10.861   4.570 -0.1980 -0.3798 -0.1648
  516MOL0     C69579   3.832  10.785   4.621  0.5356 -0.4452 -0.5319
  516MOL0     C69580   3.478  10.519   4.704  0.0100 -0.8158  0.5935
  516MOL0     C69581   3.359  10.559   4.762  0.7469  0.7869  0.3804
  516MOL0     C69582   3.264  10.445   4.796 -0.7826 -0.2177 -0.0702
  516MOL0     C69583   3.298  10.313   4.774  0.2965 -0.0196 -0.0229
  516MOL0     O69584   3.200  10.216   4.806  0.6638  0.6087 -0.6247
  516MOL0     C69585   3.192  10.089   4.731 -0.0828 -0.9391 -0.4850
  516MOL0     C69586   3.281   9.982   4.798 -0.9470  0.3057  0.8072
  516MOL0     C69587   3.311   9.857   4.703  0.3704  0.5172 -0.4181
  516MOL0     C69588   3.370   9.737   4.797  0.5482 -0.0563 -0.3647
  516MOL0     C69589   3.349   9.606   4.724  0.1651  0.4495  0.0493
  516MOL0     C69590   3.313   9.504   4.678  0.9114 -0.0982  0.0166
  516MOL0     C69591   3.418  10.290   4.714 -0.7630  0.5784 -0.3492
  516MOL0     C69592   3.501  10.388   4.659 -0.1493  0.1423  0.0132
  516MOL0     H69593   3.838  10.527   4.404  2.1853 -0.2192 -0.9226
  516MOL0     H69594   4.037  10.659   4.339  0.0171 -0.0840  0.2667
  516MOL0     H69595   4.106  11.076   4.481  2.8243  4.4786 -0.3839
  516MOL0     H69596   4.247  11.031   4.375 -0.7103  0.7672  0.1931
  516MOL0     H69597   3.954  11.043   4.309 -0.0787 -1.1993  0.6807
  516MOL0     H69598   4.070  11.169   4.267  0.9997 -0.6312  0.0063
  516MOL0     H69599   4.203  11.008   4.136 -1.1459  1.9795 -0.7256
  516MOL0     H69600   4.081  10.886   4.158 -3.6634  0.6499  0.2115
  516MOL0     H69601   3.920  11.038   4.054  1.9467  1.6015  3.6505
  516MOL0     H69602   4.027  11.168   4.020  1.4920 -0.4302 -2.4966
  516MOL0     H69603   4.028  11.086   3.814 -1.2013 -0.9975 -0.0190
  516MOL0     H69604   4.164  10.986   3.878 -0.0349 -0.1492 -1.7289
  516MOL0     H69605   4.011  10.795   3.907 -0.4888  0.2148  1.1129
  516MOL0     H69606   3.867  10.893   3.869 -0.5496 -1.7347 -0.2552
  516MOL0     H69607   3.911  10.909   3.641 -3.6344 -5.6037 -1.3600
  516MOL0     H69608   4.087  10.854   3.688  0.7103  1.3673 -1.7802
  516MOL0     H69609   3.952  10.641   3.753 -0.2759  1.8003  1.5668
  516MOL0     H69610   3.958  10.673   3.570 -0.4375  0.9940 -0.6886
  516MOL0     H69611   3.700  10.757   3.842  1.0531 -1.2349 -0.3593
  516MOL0     H69612   3.402  10.641   3.845  0.3171  0.6301  1.3368
  516MOL0     H69613   3.432  10.815   3.818 -1.5765  1.1587  1.5264
  516MOL0     H69614   3.269  10.622   3.644 -1.5892 -0.6777  1.0651
  516MOL0     H69615   3.299  10.783   3.586 -0.7905 -0.9520 -1.3046
  516MOL0     H69616   3.199  10.751   3.868  1.8689  1.3396  0.2462
  516MOL0     H69617   3.083  10.759   3.738  0.2082 -0.8668 -0.2778
  516MOL0     H69618   3.145  10.975   3.674  0.6209  0.7811  0.2396
  516MOL0     H69619   3.297  10.972   3.777  0.5810 -2.8085  1.9656
  516MOL0     H69620   3.308  11.190   3.783  1.8452  4.2566 -0.3294
  516MOL0     H69621   3.423  11.387   3.767 -2.6559 -2.2483 -0.4363
  516MOL0     H69622   3.334  11.534   3.797 -2.0392 -0.6126  1.4087
  516MOL0     H69623   3.439  11.464   3.919 -1.5666  0.5828  1.2513
  516MOL0     H69624   3.266  11.844   4.152  1.6018 -1.2674 -2.5247
  516MOL0     H69625   3.285  11.893   4.379 -0.5710  0.7500  1.0850
  516MOL0     H69626   3.416  11.930   4.612  3.2894 -1.9801  3.1991
  516MOL0     H69627   3.246  11.872   4.577 -0.5463 -1.2300  1.2032
  516MOL0     H69628   3.253  11.915   4.806  1.2728  0.4039  1.1918
  516MOL0     H69629   3.231  11.735   4.766 -0.0907  0.5923 -0.6027
  516MOL0     H69630   3.496  11.867   4.844  1.6556 -2.5383  1.0509
  516MOL0     H69631   3.463  11.701   4.826  0.2657  1.2720 -3.2512
  516MOL0     H69632   3.307  11.849   5.046 -2.1963 -1.9419  0.9339
  516MOL0     H69633   3.329  11.684   5.026  3.1512 -1.4360  1.8201
  516MOL0     H69634   3.538  11.901   5.105  1.1088  0.7740  3.3447
  516MOL0     H69635   3.587  11.738   5.042 -1.8662 -0.9578  0.9920
  516MOL0     H69636   3.477  11.638   5.252  2.3252 -0.6392 -1.5223
  516MOL0     H69637   3.610  11.737   5.285  0.3834 -3.1851 -0.2785
  516MOL0     H69638   3.321  11.803   5.325 -0.3572 -6.2637  2.8064
  516MOL0     H69639   3.461  11.930   5.312  2.8707 -2.8214 -3.2587
  516MOL0     H69640   3.405  11.869   5.551  0.5949 -0.2707  1.6734
  516MOL0     H69641   3.560  11.792   5.506 -0.0699 -2.4094 -1.2319
  516MOL0     H69642   3.419  11.510   4.478 -0.1319  1.7039  0.5319
  516MOL0     H69643   3.367  11.438   4.232  1.2179  0.1924  1.3963
  516MOL0     H69644   2.954  11.376   4.071 -0.9218 -0.8326 -0.0165
  516MOL0     H69645   2.951  11.132   4.024  0.1256  0.0086 -0.5178
  516MOL0     H69646   3.980  10.951   4.615 -0.9785  1.5627 -3.0295
  516MOL0     H69647   3.789  10.816   4.715  0.8539 -0.7909 -0.2714
  516MOL0     H69648   3.321  10.655   4.794  1.5029  0.4363  2.4604
  516MOL0     H69649   3.163  10.479   4.817 -1.1188 -0.8183 -0.6891
  516MOL0     H69650   3.088  10.056   4.734 -0.4962  0.3776  1.7940
  516MOL0     H69651   3.209  10.115   4.627 -0.5202 -0.0771 -0.3419
  516MOL0     H69652   3.248   9.941   4.894 -0.1955 -3.8300 -0.4915
  516MOL0     H69653   3.375  10.029   4.826  1.8801 -4.1333 -0.1906
  516MOL0     H69654   3.383   9.884   4.625 -0.1586 -2.1062 -1.9125
  516MOL0     H69655   3.218   9.835   4.649  0.9006  0.9880 -1.5667
  516MOL0     H69656   3.320   9.736   4.894  1.5465 -4.5664  0.3309
  516MOL0     H69657   3.478   9.733   4.813  0.7627  0.7788 -1.4143
  516MOL0     H69658   3.286   9.411   4.631  2.2702 -0.2306 -0.5574
  516MOL0     H69659   3.448  10.190   4.683 -0.2753 -0.2315  2.4798
  516MOL0     H69660   3.586  10.370   4.594  1.5350 -1.1609  2.4510
  517MOL0     O69661   3.058   5.657   9.263 -0.8429 -0.2451 -0.6953
  517MOL0     C69662   2.963   5.579   9.298 -0.3291  0.8353  1.0298
  517MOL0     O69663   2.906   5.563   9.419 -0.5007 -0.2382  0.2345
  517MOL0     C69664   2.935   5.653   9.522 -0.2951 -0.6842  0.4168
  517MOL0     C69665   3.001   5.624   9.649  0.9481 -0.7888 -0.8729
  517MOL0     C69666   3.018   5.727   9.736  0.2498  0.3064 -0.7728
  517MOL0     C69667   2.955   5.852   9.728  0.2132 -0.5320 -0.4617
  517MOL0     O69668   2.955   5.925   9.837  0.9782  1.0013 -0.3860
  517MOL0     C69669   2.909   6.060   9.829 -0.6463  0.0451 -0.0106
  517MOL0     C69670   2.887   6.103   9.978  0.5170 -0.1414  0.3176
  517MOL0     C69671   2.815   6.236   9.988 -0.1885 -0.0301 -0.5813
  517MOL0     C69672   2.780   6.281  10.134 -0.9083 -0.4591  0.7512
  517MOL0     C69673   2.675   6.386  10.126 -0.2944  0.5423 -0.3169
  517MOL0     C69674   2.528   6.331  10.080  0.3806  0.5973 -0.4698
  517MOL0     C69675   2.435   6.451  10.059  0.2904 -0.1410 -0.3878
  517MOL0     C69676   2.317   6.413   9.976 -0.1074  0.6350  0.2281
  517MOL0     N69677   2.224   6.529   9.958 -0.0675  0.1631  0.0352
  517MOL0     C69678   2.210   6.611   9.851  0.2187 -0.7433  0.3714
  517MOL0     C69679   2.141   6.715   9.892  0.1666 -0.5703 -0.0843
  517MOL0     C69680   2.111   6.836   9.812  0.2949  0.2473  0.2612
  517MOL0     C69681   1.993   6.817   9.703  0.4535  0.5298 -1.0546
  517MOL0     C69682   1.982   6.937   9.611 -0.1060  0.4310  0.6965
  517MOL0     C69683   1.884   6.925   9.491 -0.6741  0.4230 -0.8571
  517MOL0     O69684   1.920   7.038   9.402  0.0562 -0.7688 -0.8949
  517MOL0     C69685   1.809   7.085   9.336 -0.7143 -0.1475  0.0410
  517MOL0     C69686   1.816   7.215   9.292 -0.6472  0.0526  0.9736
  517MOL0     C69687   1.702   7.270   9.231  0.1920 -0.8520  0.1780
  517MOL0     C69688   1.728   7.403   9.166 -0.0753  0.4238 -0.6365
  517MOL0     C69689   1.591   7.193   9.207  0.2937 -0.2742  0.5396
  517MOL0     C69690   1.471   7.249   9.151 -0.2988  0.6817  0.4628
  517MOL0     O69691   1.439   7.206   9.023 -0.8677  0.2362 -0.6754
  517MOL0     C69692   1.336   7.269   8.959 -0.0133 -0.0125  0.2208
  517MOL0     C69693   1.218   7.207   8.955 -0.2305 -0.9367  1.1121
  517MOL0     C69694   1.107   7.285   8.914 -0.4629  0.8230  0.0776
  517MOL0     C69695   1.116   7.422   8.877 -0.3473 -0.0428  1.5982
  517MOL0     O69696   1.003   7.495   8.859  0.1817 -0.0499  0.8056
  517MOL0     C69697   0.973   7.588   8.962 -0.4339  0.3222  0.5944
  517MOL0     C69698   0.963   7.544   9.111 -0.2087 -0.5426 -0.6525
  517MOL0     C69699   0.823   7.492   9.146  0.0730 -0.0520  0.4090
  517MOL0     C69700   0.809   7.457   9.291  0.4622 -0.1474  0.3042
  517MOL0     C69701   0.671   7.495   9.336 -0.3493 -0.6588  0.0205
  517MOL0     C69702   0.635   7.451   9.479 -1.0621 -2.2508  0.5332
  517MOL0     C69703   0.640   7.304   9.503 -0.2369  0.2484 -0.7167
  517MOL0     C69704   0.627   7.275   9.654 -0.4575 -0.5893 -0.0078
  517MOL0    Cl69705   0.483   7.177   9.689  0.1112  0.4510  0.6352
  517MOL0     C69706   1.242   7.480   8.865 -0.4379  0.6100 -0.3685
  517MOL0     C69707   1.353   7.405   8.914 -0.0345 -0.2881 -0.4962
  517MOL0     O69708   1.401   7.328   9.223  0.0878  0.1903 -0.0148
  517MOL0     C69709   1.590   7.060   9.234 -0.0807 -0.2427  0.1421
  517MOL0     C69710   1.694   7.002   9.301 -0.4243 -0.1289 -0.4398
  517MOL0     N69711   2.111   6.703  10.028  0.5315  0.4108 -0.0227
  517MOL0     N69712   2.155   6.593  10.056  0.1598 -0.2007 -0.3735
  517MOL0     C69713   2.899   5.881   9.604 -0.7066 -0.1991 -0.0825
  517MOL0     C69714   2.888   5.783   9.499 -0.6791 -0.7465  0.1876
  517MOL0     C69715   2.927   5.487   9.187 -0.1887  0.1716 -0.1779
  517MOL0     C69716   2.794   5.441   9.189 -0.3387 -0.1157  0.5659
  517MOL0     C69717   2.741   5.364   9.084  0.0614 -0.6899 -0.9593
  517MOL0     C69718   2.817   5.336   8.971  1.6383 -0.7430  0.6971
  517MOL0     O69719   2.778   5.245   8.866 -0.0079 -0.8790  0.5413
  517MOL0     C69720   2.714   5.128   8.904  0.7052  0.3972  0.8955
  517MOL0     C69721   2.790   5.016   8.842 -0.1744  0.5006  0.1277
  517MOL0     C69722   2.918   4.982   8.913 -0.8436 -0.6133 -1.2149
  517MOL0     C69723   2.962   4.846   8.877  0.2028  0.0219  1.2595
  517MOL0     C69724   3.106   4.837   8.916  0.4221 -0.2155 -0.0968
  517MOL0     C69725   3.211   4.839   8.963  0.0701 -0.2006 -0.1657
  517MOL0     C69726   2.955   5.369   8.969 -0.5704 -0.5145  0.9787
  517MOL0     C69727   3.004   5.445   9.076 -0.1533  0.2885  0.2712
  517MOL0     H69728   3.038   5.524   9.667 -1.5424 -1.3697  1.7992
  517MOL0     H69729   3.056   5.686   9.829 -0.5933 -1.6429 -1.2337
  517MOL0     H69730   2.986   6.127   9.789 -0.3146  2.2342  3.7396
  517MOL0     H69731   2.812   6.070   9.781  1.0157  0.8405 -3.4789
  517MOL0     H69732   2.828   6.017  10.010  2.0534 -2.4937 -2.6040
  517MOL0     H69733   2.983   6.108  10.029  0.7607 -0.3403 -0.1127
  517MOL0     H69734   2.878   6.318   9.953 -0.7064  2.5266  3.6717
  517MOL0     H69735   2.722   6.233   9.929 -0.6213  0.6660  0.0374
  517MOL0     H69736   2.740   6.191  10.181  1.4435 -2.2892 -0.4931
  517MOL0     H69737   2.863   6.325  10.189 -2.6428  1.2504  2.1492
  517MOL0     H69738   2.676   6.438  10.221  1.9495  2.8468 -1.4721
  517MOL0     H69739   2.706   6.455  10.047 -1.3178 -2.1540 -3.3570
  517MOL0     H69740   2.532   6.265   9.994  3.7633 -2.6558  1.8852
  517MOL0     H69741   2.477   6.266  10.152  1.6578 -1.7226 -1.5834
  517MOL0     H69742   2.427   6.519  10.144  2.2443 -0.5974  0.2054
  517MOL0     H69743   2.493   6.513   9.990  2.3671  0.0344  1.3914
  517MOL0     H69744   2.250   6.338  10.018 -2.3536 -0.0832 -4.0356
  517MOL0     H69745   2.350   6.388   9.874 -3.7042 -1.2928 -0.6248
  517MOL0     H69746   2.255   6.601   9.752  1.7609  1.4422  0.7923
  517MOL0     H69747   2.090   6.914   9.886  0.1970 -0.2061  0.7156
  517MOL0     H69748   2.199   6.872   9.758  0.2914  0.8907  0.6681
  517MOL0     H69749   1.900   6.809   9.760 -0.3699  2.4374 -2.0613
  517MOL0     H69750   2.003   6.724   9.645 -0.1962  0.7019 -1.4508
  517MOL0     H69751   2.078   6.960   9.565 -0.1831 -0.9487 -0.2077
  517MOL0     H69752   1.946   7.021   9.672 -2.8300  0.9642 -1.4346
  517MOL0     H69753   1.790   6.923   9.546  0.3023 -3.5174  1.0523
  517MOL0     H69754   1.883   6.837   9.425 -1.5842  2.3353 -3.6084
  517MOL0     H69755   1.910   7.269   9.286 -2.1934  2.7718 -2.2709
  517MOL0     H69756   1.773   7.475   9.235  0.8041 -1.7018  1.1383
  517MOL0     H69757   1.786   7.396   9.074  0.3944  2.2997 -0.5189
  517MOL0     H69758   1.630   7.447   9.146 -0.4297  0.3426  0.7853
  517MOL0     H69759   1.209   7.105   8.991 -0.1985 -1.1899  0.4181
  517MOL0     H69760   1.006   7.248   8.905 -0.5486  1.3564 -1.3901
  517MOL0     H69761   1.049   7.666   8.956  2.1573 -2.0188  0.8325
  517MOL0     H69762   0.876   7.637   8.955  0.0975  1.5970  1.7091
  517MOL0     H69763   1.040   7.471   9.136 -0.4752 -0.7174 -0.3283
  517MOL0     H69764   0.975   7.623   9.186  2.6153  0.2422 -1.8010
  517MOL0     H69765   0.803   7.398   9.094 -0.6083  0.2666  0.0786
  517MOL0     H69766   0.757   7.576   9.123 -1.6269 -1.0332  1.4527
  517MOL0     H69767   0.816   7.352   9.319 -4.8845 -0.7567  0.3979
  517MOL0     H69768   0.876   7.520   9.350 -0.7889  1.0573  0.5101
  517MOL0     H69769   0.603   7.444   9.268 -0.7510 -0.2442  0.1131
  517MOL0     H69770   0.651   7.600   9.315 -3.2889 -1.0773  0.3144
  517MOL0     H69771   0.705   7.489   9.555 -1.6821 -4.0647  2.1072
  517MOL0     H69772   0.536   7.479   9.518 -0.6796 -2.1032  1.4181
  517MOL0     H69773   0.733   7.258   9.466 -0.8599 -0.1770 -1.7825
  517MOL0     H69774   0.557   7.250   9.458  0.5495 -1.8370  0.1943
  517MOL0     H69775   0.622   7.372   9.704  2.8574 -0.9201  1.2082
  517MOL0     H69776   0.720   7.231   9.691  0.6234  0.4576 -1.3763
  517MOL0     H69777   1.253   7.586   8.843 -2.8516  1.7145  3.0306
  517MOL0     H69778   1.455   7.441   8.911 -0.9587  2.5890 -0.7742
  517MOL0     H69779   1.499   7.005   9.216  0.1247 -0.5942  0.1698
  517MOL0     H69780   1.699   6.894   9.315  1.3122  0.0106  0.2698
  517MOL0     H69781   2.874   5.986   9.589  1.3463  0.4118  0.4292
  517MOL0     H69782   2.846   5.821   9.407  0.4316 -1.3908 -0.6026
  517MOL0     H69783   2.730   5.477   9.269  2.4309  0.4015  2.7103
  517MOL0     H69784   2.636   5.340   9.094  0.1948 -0.3887  2.2324
  517MOL0     H69785   2.709   5.113   9.012 -0.6129 -1.7411  0.6006
  517MOL0     H69786   2.613   5.115   8.864  1.0399 -0.1825  0.2133
  517MOL0     H69787   2.804   5.040   8.736 -3.6004 -2.3142 -1.1767
  517MOL0     H69788   2.731   4.925   8.828 -1.8062  1.3361  1.2255
  517MOL0     H69789   2.913   4.978   9.022  0.7936  0.7047 -1.0383
  517MOL0     H69790   2.990   5.059   8.884  1.9680 -3.1764 -1.5246
  517MOL0     H69791   2.936   4.828   8.773  1.6409  1.8005  0.5318
  517MOL0     H69792   2.918   4.769   8.941  0.1076 -0.6289  0.4137
  517MOL0     H69793   3.314   4.836   8.994  1.0990  0.0428 -3.2690
  517MOL0     H69794   3.010   5.323   8.888 -0.2209  0.4546  0.6455
  517MOL0     H69795   3.112   5.453   9.067 -0.1861 -1.0376 -3.4205
  518MOL0     O69796   1.940   9.544   6.559  0.4172  0.3356 -0.6833
  518MOL0     C69797   1.854   9.456   6.558 -0.1394  0.5579 -0.4801
  518MOL0     O69798   1.745   9.447   6.481 -0.6719 -1.0372 -0.0494
  518MOL0     C69799   1.721   9.565   6.403 -0.3036 -0.3471  1.1478
  518MOL0     C69800   1.667   9.682   6.454 -1.5336  0.2844  0.3415
  518MOL0     C69801   1.644   9.796   6.373 -0.0849  0.2780 -0.3715
  518MOL0     C69802   1.680   9.796   6.237 -0.0360  0.5278 -0.1457
  518MOL0     O69803   1.639   9.903   6.165  0.7136  0.1596  0.5590
  518MOL0     C69804   1.672   9.919   6.030  0.2904  1.1678 -0.0301
  518MOL0     C69805   1.815   9.938   6.007  0.5524 -0.1305  0.1096
  518MOL0     C69806   1.842   9.975   5.859 -0.6401 -0.6207 -0.3261
  518MOL0     C69807   1.765  10.091   5.787 -0.0825  0.7620  0.9799
  518MOL0     C69808   1.792  10.085   5.633 -0.1561 -0.9852  0.7202
  518MOL0     C69809   1.706  10.194   5.557 -0.3333  0.0021  0.0170
  518MOL0     C69810   1.719  10.182   5.406 -0.1148  0.2820  0.3029
  518MOL0     C69811   1.838  10.257   5.348  0.0919  0.5813 -0.7910
  518MOL0     N69812   1.974  10.211   5.400 -0.1401  0.3127 -1.0460
  518MOL0     C69813   2.041  10.104   5.350  0.2761  0.9759 -0.3926
  518MOL0     C69814   2.171  10.123   5.393  1.0965  0.9195 -0.3397
  518MOL0     C69815   2.266  10.011   5.352  0.6495 -0.4069 -0.0314
  518MOL0     C69816   2.402  10.019   5.423 -0.5156  1.5008  0.0814
  518MOL0     C69817   2.398   9.984   5.576  0.0025 -0.2234 -0.0300
  518MOL0     C69818   2.527   9.932   5.642  0.9142 -0.9186 -0.2620
  518MOL0     O69819   2.491   9.866   5.761 -0.6950 -0.2868  0.1271
  518MOL0     C69820   2.585   9.856   5.875 -0.1603  0.7328 -0.2056
  518MOL0     C69821   2.540   9.848   6.007  0.3535  0.5106 -0.2708
  518MOL0     C69822   2.626   9.832   6.117  0.8063 -0.4577 -0.3800
  518MOL0     C69823   2.554   9.818   6.250 -0.5626 -1.0479  0.0281
  518MOL0     C69824   2.766   9.821   6.095  0.8701 -0.5182 -0.2963
  518MOL0     C69825   2.860   9.803   6.205 -1.2795 -0.7463 -1.4508
  518MOL0     O69826   2.826   9.746   6.328  0.6590  0.1297  0.0060
  518MOL0     C69827   2.898   9.793   6.436 -0.1730 -0.3620  0.4449
  518MOL0     C69828   2.882   9.926   6.481  0.2405 -0.1794 -0.2841
  518MOL0     C69829   2.954   9.949   6.597 -0.2821  1.1045  0.1664
  518MOL0     C69830   3.036   9.861   6.666 -0.8955  0.2015 -1.3906
  518MOL0     O69831   3.104   9.903   6.789 -0.4191 -0.4886 -0.3168
  518MOL0     C69832   3.196   9.811   6.840  0.3536 -0.6684  0.5743
  518MOL0     C69833   3.225   9.873   6.974 -0.0101 -0.2213  0.2692
  518MOL0     C69834   3.112   9.875   7.073  0.5179 -0.4151 -0.4775
  518MOL0     C69835   3.141   9.959   7.201  0.7485  0.0564 -0.1802
  518MOL0     C69836   3.154  10.107   7.194 -0.3574  0.1230  1.0603
  518MOL0     C69837   3.189  10.169   7.329 -0.1777 -0.4535  0.7194
  518MOL0     C69838   3.263  10.302   7.308  0.1263  1.2814 -0.9893
  518MOL0     C69839   3.411  10.274   7.304 -0.0997 -1.0847 -0.0407
  518MOL0    Cl69840   3.498  10.432   7.265  0.0680  0.0549  0.2669
  518MOL0     C69841   3.045   9.732   6.615 -0.8109 -0.5404  0.7837
  518MOL0     C69842   2.984   9.701   6.495  0.2935  0.4690 -0.1053
  518MOL0     O69843   2.982   9.825   6.174  0.1144  0.0862  0.3724
  518MOL0     C69844   2.811   9.835   5.958  0.5364 -1.0437  0.4399
  518MOL0     C69845   2.720   9.854   5.853 -0.0594 -0.2001 -0.3563
  518MOL0     N69846   2.178  10.243   5.464 -0.2791  0.2634  0.4902
  518MOL0     N69847   2.063  10.290   5.468  0.6275  0.1684  0.0083
  518MOL0     C69848   1.717   9.664   6.179 -0.1754 -0.5871  0.0575
  518MOL0     C69849   1.739   9.555   6.260  0.6435 -0.4282 -0.7892
  518MOL0     C69850   1.872   9.341   6.656 -0.3565 -0.2882 -0.2124
  518MOL0     C69851   1.964   9.353   6.763 -0.1039 -0.2561 -0.8491
  518MOL0     C69852   1.974   9.253   6.857 -0.4134 -0.1982 -0.2066
  518MOL0     C69853   1.903   9.137   6.835 -0.2552 -0.4169 -0.0190
  518MOL0     O69854   1.929   9.018   6.894 -0.2260  0.1990  0.9830
  518MOL0     C69855   2.053   8.991   6.973 -0.2978  0.4200  0.3076
  518MOL0     C69856   2.141   8.927   6.863 -1.0467 -0.5941  0.1965
  518MOL0     C69857   2.206   8.801   6.922  0.2010  0.3456 -0.4042
  518MOL0     C69858   2.287   8.835   7.053 -0.9043  0.1876  0.6562
  518MOL0     C69859   2.395   8.738   7.070 -0.7840  0.2264  0.1019
  518MOL0     C69860   2.505   8.672   7.052  0.9452  0.1203 -0.8287
  518MOL0     C69861   1.805   9.129   6.738  1.1263  0.3000  0.2585
  518MOL0     C69862   1.798   9.230   6.645 -0.2931  0.3917  0.6654
  518MOL0     H69863   1.648   9.697   6.560 -2.0159  0.1995  0.2685
  518MOL0     H69864   1.609   9.889   6.415  2.9080  2.6154 -2.5910
  518MOL0     H69865   1.626   9.847   5.962  1.0080  0.8039 -0.1360
  518MOL0     H69866   1.617  10.007   5.995 -1.8977 -0.9358 -2.3642
  518MOL0     H69867   1.855  10.020   6.066  0.1798  0.1140  0.0194
  518MOL0     H69868   1.854   9.839   6.034  0.9627  0.1769  0.6715
  518MOL0     H69869   1.950   9.992   5.854 -0.7370  0.5608  0.9361
  518MOL0     H69870   1.823   9.879   5.809  0.6880 -1.1224  0.0690
  518MOL0     H69871   1.658  10.071   5.795 -0.2015  0.1597 -1.3860
  518MOL0     H69872   1.801  10.186   5.828  2.6797 -0.4774  1.6624
  518MOL0     H69873   1.897  10.093   5.604 -0.5225  2.2820 -0.1598
  518MOL0     H69874   1.766   9.987   5.592 -0.0061 -0.9320  0.4989
  518MOL0     H69875   1.603  10.184   5.592 -0.9273  0.5993 -1.4544
  518MOL0     H69876   1.730  10.296   5.587 -4.2674  1.8169 -2.2339
  518MOL0     H69877   1.726  10.083   5.361 -2.9131  0.4433 -0.7006
  518MOL0     H69878   1.631  10.222   5.354  1.3628 -2.0740 -4.5843
  518MOL0     H69879   1.830  10.365   5.360 -1.5091  0.2319  2.6445
  518MOL0     H69880   1.850  10.243   5.241  3.1916  1.4981 -0.6680
  518MOL0     H69881   1.990  10.035   5.283 -1.0747  2.8974 -1.4585
  518MOL0     H69882   2.219   9.913   5.368 -0.9244  0.0414 -1.6107
  518MOL0     H69883   2.292  10.028   5.247  1.2509 -0.5613  0.0873
  518MOL0     H69884   2.456  10.112   5.405 -0.3142  0.7107 -4.5709
  518MOL0     H69885   2.464   9.940   5.378 -0.0848  1.3326  0.9436
  518MOL0     H69886   2.326   9.904   5.594 -0.0028  0.3296  2.8204
  518MOL0     H69887   2.362  10.071   5.631 -0.0980  1.1147 -2.1094
  518MOL0     H69888   2.613   9.999   5.652  1.6882 -2.0041  0.7043
  518MOL0     H69889   2.572   9.867   5.566 -1.5197 -2.9649 -0.0846
  518MOL0     H69890   2.432   9.847   6.018  0.4241  0.0128  0.4926
  518MOL0     H69891   2.578   9.906   6.310 -0.1898 -1.0909 -0.0566
  518MOL0     H69892   2.446   9.811   6.235 -1.3389  0.5609  3.7800
  518MOL0     H69893   2.575   9.721   6.296  2.4580 -0.2715  0.5095
  518MOL0     H69894   2.817   9.999   6.432  3.3914  2.8659 -0.2529
  518MOL0     H69895   2.932  10.034   6.660 -0.3002  0.6168  0.8273
  518MOL0     H69896   3.163   9.708   6.854 -2.2691  0.2693  2.0576
  518MOL0     H69897   3.278   9.826   6.768 -2.7544  3.1187 -2.6979
  518MOL0     H69898   3.310   9.820   7.019  2.5097  4.0176  1.1691
  518MOL0     H69899   3.256   9.978   6.965 -2.8792  0.7378  0.5061
  518MOL0     H69900   3.100   9.769   7.100  0.4985 -0.7627 -1.7697
  518MOL0     H69901   3.019   9.917   7.036  1.5175  1.5107 -0.9385
  518MOL0     H69902   3.057   9.939   7.268  0.4673 -0.0322 -0.5493
  518MOL0     H69903   3.228   9.906   7.241 -0.3934 -0.8371  1.2107
  518MOL0     H69904   3.073  10.154   7.138 -0.5538  1.2997  2.2730
  518MOL0     H69905   3.240  10.116   7.127 -0.5052 -1.4572  0.6358
  518MOL0     H69906   3.098  10.183   7.389 -0.0389  0.6614  0.6991
  518MOL0     H69907   3.255  10.104   7.386  2.0110  0.4786 -0.6183
  518MOL0     H69908   3.251  10.371   7.392 -1.7928 -0.7950  0.5526
  518MOL0     H69909   3.228  10.356   7.219 -3.7508  1.9498  0.7150
  518MOL0     H69910   3.439  10.218   7.214 -1.0476 -0.9142 -0.4551
  518MOL0     H69911   3.440  10.215   7.391 -1.4372  2.0266  2.7269
  518MOL0     H69912   3.094   9.643   6.654 -1.2706 -1.7204 -1.1862
  518MOL0     H69913   2.991   9.604   6.449 -3.0388  0.4300 -0.7393
  518MOL0     H69914   2.918   9.827   5.939  1.8350  4.6464  3.1434
  518MOL0     H69915   2.761   9.852   5.753  0.3902 -0.7533 -0.1666
  518MOL0     H69916   1.736   9.645   6.074  0.0541 -4.5042  0.6511
  518MOL0     H69917   1.783   9.472   6.206  3.8867 -0.6133  1.8217
  518MOL0     H69918   2.019   9.443   6.788 -0.4497 -0.0949 -0.6564
  518MOL0     H69919   2.054   9.270   6.929  0.1143  0.5679 -0.9482
  518MOL0     H69920   2.097   9.083   7.014  0.1904  1.4779 -2.3473
  518MOL0     H69921   2.034   8.924   7.057 -2.3314 -0.6325 -0.9266
  518MOL0     H69922   2.226   8.991   6.841  0.7476 -1.5355  3.6014
  518MOL0     H69923   2.085   8.901   6.773 -2.9750  3.8695 -0.1446
  518MOL0     H69924   2.265   8.754   6.843  0.7866  3.6519 -2.1486
  518MOL0     H69925   2.136   8.728   6.964  2.0593 -1.1708  0.1343
  518MOL0     H69926   2.212   8.826   7.132 -1.4809  0.2206  0.1182
  518MOL0     H69927   2.329   8.935   7.049  3.9587 -1.6285  0.2071
  518MOL0     H69928   2.599   8.634   7.019  1.8052  0.9081  0.6158
  518MOL0     H69929   1.740   9.042   6.735  0.8439  0.5140  0.0958
  518MOL0     H69930   1.723   9.219   6.567 -2.3692 -1.4039  2.7526
  519MOL0     O69931   2.740   5.219   0.599 -0.3993 -0.0976 -0.5439
  519MOL0     C69932   2.741   5.297   0.699 -0.7030  0.1982 -0.3528
  519MOL0     O69933   2.672   5.284   0.812 -0.8228 -0.7365 -0.1267
  519MOL0     C69934   2.578   5.181   0.817 -0.6180 -1.0531  0.1876
  519MOL0     C69935   2.618   5.071   0.903  0.0808 -0.0180  0.3397
  519MOL0     C69936   2.532   4.961   0.908  0.1093  0.1455  0.0135
  519MOL0     C69937   2.408   4.963   0.841 -0.6027  0.1415  0.5467
  519MOL0     O69938   2.322   4.855   0.865  0.5535  0.1630  0.8094
  519MOL0     C69939   2.184   4.881   0.895  0.8579 -0.4525 -0.5159
  519MOL0     C69940   2.106   4.748   0.911 -0.6287 -0.6297  0.2500
  519MOL0     C69941   1.954   4.744   0.864 -1.1692 -0.4824  0.3964
  519MOL0     C69942   1.923   4.603   0.814  0.7233  0.2115 -0.2125
  519MOL0     C69943   1.779   4.599   0.760 -0.5515 -0.0500  0.0214
  519MOL0     C69944   1.722   4.457   0.767 -0.5934  0.3224  0.0516
  519MOL0     C69945   1.766   4.362   0.659 -0.5214  0.6091  0.0157
  519MOL0     C69946   1.721   4.390   0.513  0.1957 -0.0149  0.2893
  519MOL0     N69947   1.673   4.283   0.429 -0.8989  0.4456 -0.5949
  519MOL0     C69948   1.699   4.256   0.305 -0.4208  0.6434  0.1552
  519MOL0     C69949   1.606   4.162   0.265  0.7703  0.2710 -0.1058
  519MOL0     C69950   1.626   4.083   0.146 -0.3777 -0.1859  0.8921
  519MOL0     C69951   1.600   4.176   0.021 -0.6741  0.4548  0.4513
  519MOL0     C69952   1.540   4.096  -0.097 -0.0150 -0.0247  0.1837
  519MOL0     C69953   1.512   4.195  -0.214  0.4734  1.4056 -0.6499
  519MOL0     O69954   1.625   4.278  -0.235  0.6392 -0.4011 -0.0313
  519MOL0     C69955   1.718   4.238  -0.329 -0.1761  0.6393  0.4033
  519MOL0     C69956   1.743   4.111  -0.380 -0.9337  0.8213 -0.5389
  519MOL0     C69957   1.827   4.089  -0.490  0.3157 -1.0432  0.3925
  519MOL0     C69958   1.823   3.952  -0.542  0.1204  0.0655 -0.9180
  519MOL0     C69959   1.911   4.197  -0.538  0.4191 -0.8127  0.0627
  519MOL0     C69960   2.025   4.177  -0.640 -0.2571  0.1122  0.1773
  519MOL0     O69961   2.101   4.291  -0.673 -0.1355  0.2739  0.3905
  519MOL0     C69962   2.199   4.282  -0.764 -0.4007  0.6799  0.3685
  519MOL0     C69963   2.181   4.287  -0.896 -0.0604 -0.4279  0.7465
  519MOL0     C69964   2.288   4.291  -0.979 -0.8327 -0.4786  0.6634
  519MOL0     C69965   2.422   4.288  -0.929  1.2479  0.1297  0.2593
  519MOL0     O69966   2.533   4.288  -1.007 -0.5352  0.3435  0.2288
  519MOL0     C69967   2.521   4.320  -1.148 -0.2449 -0.1712 -0.1259
  519MOL0     C69968   2.662   4.365  -1.207 -0.0497  0.9849  0.1673
  519MOL0     C69969   2.768   4.251  -1.182 -0.7297  0.0919 -0.1448
  519MOL0     C69970   2.719   4.105  -1.184 -0.5895  0.0487  0.2761
  519MOL0     C69971   2.833   3.993  -1.160  0.3757  0.0929 -0.2657
  519MOL0     C69972   2.948   4.004  -1.261 -0.0643 -0.7417 -0.9438
  519MOL0     C69973   3.039   3.879  -1.248 -0.3566 -0.2367 -0.4022
  519MOL0     C69974   3.164   3.902  -1.332 -1.3706  0.8835 -0.4121
  519MOL0    Cl69975   3.276   3.767  -1.335  0.1516  0.5764  0.0331
  519MOL0     C69976   2.439   4.297  -0.795 -0.2101  0.1697 -0.7321
  519MOL0     C69977   2.332   4.277  -0.712  0.0690 -0.6168 -0.4833
  519MOL0     O69978   2.051   4.062  -0.683  0.0813  0.0187 -0.6097
  519MOL0     C69979   1.910   4.319  -0.459  0.5083  0.0117  0.1379
  519MOL0     C69980   1.805   4.337  -0.364  0.3216 -0.5442 -0.8156
  519MOL0     N69981   1.529   4.137   0.379  0.9233  0.0293  1.3588
  519MOL0     N69982   1.565   4.208   0.466 -0.4057 -0.3841  0.7262
  519MOL0     C69983   2.373   5.076   0.769  0.0777  0.7535 -0.2811
  519MOL0     C69984   2.455   5.190   0.756  0.0279  0.8504 -0.6150
  519MOL0     C69985   2.829   5.423   0.675  1.2693  1.0493 -0.2131
  519MOL0     C69986   2.892   5.449   0.553  0.9427 -0.5162 -0.2409
  519MOL0     C69987   2.979   5.557   0.534 -0.1413  0.1557 -0.1307
  519MOL0     C69988   3.015   5.637   0.640  0.0173 -0.3759 -0.8025
  519MOL0     O69989   3.117   5.725   0.620 -0.0730 -0.2979 -0.6745
  519MOL0     C69990   3.141   5.827   0.717  0.8188  0.5680  0.3583
  519MOL0     C69991   3.255   5.798   0.813 -0.3838  0.2465 -0.5347
  519MOL0     C69992   3.389   5.760   0.731 -0.5499 -0.3864  0.5158
  519MOL0     C69993   3.426   5.849   0.614  0.4562 -0.4545 -0.1406
  519MOL0     C69994   3.476   5.981   0.661 -0.6064  0.0669  0.1544
  519MOL0     C69995   3.511   6.095   0.692  1.2002  0.4173  0.4899
  519MOL0     C69996   2.955   5.607   0.764 -0.3461 -0.6910 -0.0074
  519MOL0     C69997   2.861   5.506   0.783  0.0159 -0.4760 -0.1709
  519MOL0     H69998   2.711   5.081   0.958  0.3108 -1.7451  0.3167
  519MOL0     H69999   2.563   4.875   0.967  1.5002  2.6027  3.1130
  519MOL0     H70000   2.171   4.935   0.989  0.3131 -1.4128 -0.0368
  519MOL0     H70001   2.134   4.934   0.813 -0.2882 -2.9610 -1.5281
  519MOL0     H70002   2.168   4.675   0.859 -0.2943  1.6852 -2.9167
  519MOL0     H70003   2.116   4.704   1.010  2.5736 -2.4921 -0.7323
  519MOL0     H70004   1.892   4.759   0.953 -0.2116 -3.0177  1.5699
  519MOL0     H70005   1.935   4.822   0.789 -0.1370  0.8329  1.4599
  519MOL0     H70006   1.994   4.567   0.740  2.3794 -3.2699  2.7119
  519MOL0     H70007   1.935   4.532   0.897  1.4205 -0.1439 -0.6135
  519MOL0     H70008   1.716   4.662   0.824 -0.4412 -0.8117  0.8907
  519MOL0     H70009   1.783   4.639   0.658  0.6547  1.1659  0.5174
  519MOL0     H70010   1.726   4.405   0.864 -3.1408 -2.0095 -0.9591
  519MOL0     H70011   1.614   4.471   0.758 -0.9270  0.5362  3.2136
  519MOL0     H70012   1.872   4.336   0.668 -1.5124 -3.1903  4.5800
  519MOL0     H70013   1.712   4.270   0.682 -1.8133  0.5173 -2.8852
  519MOL0     H70014   1.794   4.458   0.469 -1.3202  0.9517 -0.8589
  519MOL0     H70015   1.633   4.452   0.537  0.4188  0.3923  0.0583
  519MOL0     H70016   1.786   4.283   0.246  0.1953 -0.0673  0.7169
  519MOL0     H70017   1.733   4.061   0.152  1.2735  5.8659  0.0792
  519MOL0     H70018   1.577   3.986   0.133 -2.3410  0.7196  1.1296
  519MOL0     H70019   1.691   4.227  -0.013  1.0086 -2.1777  0.7311
  519MOL0     H70020   1.525   4.255   0.033 -1.2930  0.1400 -1.0392
  519MOL0     H70021   1.444   4.049  -0.075 -1.1618  2.1051  0.0203
  519MOL0     H70022   1.612   4.018  -0.122 -3.0241 -2.9586  0.0425
  519MOL0     H70023   1.431   4.260  -0.180 -2.0615 -1.7418 -0.2352
  519MOL0     H70024   1.481   4.135  -0.300  3.2499 -0.5688 -0.4029
  519MOL0     H70025   1.681   4.036  -0.331 -1.6455  3.0286  2.1602
  519MOL0     H70026   1.810   3.948  -0.650 -1.6618 -1.1473 -0.6971
  519MOL0     H70027   1.923   3.919  -0.511  1.1522  3.7901  0.2299
  519MOL0     H70028   1.740   3.891  -0.506  0.4405 -1.5248 -2.6764
  519MOL0     H70029   2.079   4.275  -0.933  0.5616 -0.9889 -0.9050
  519MOL0     H70030   2.273   4.306  -1.086 -1.8734 -0.8034  0.7544
  519MOL0     H70031   2.488   4.236  -1.211 -0.5575 -0.3258  0.2372
  519MOL0     H70032   2.462   4.411  -1.164  1.9334  1.2863 -0.2649
  519MOL0     H70033   2.652   4.379  -1.315  1.5171  3.2805  0.2533
  519MOL0     H70034   2.701   4.455  -1.159  1.8613 -1.1260  2.9022
  519MOL0     H70035   2.804   4.264  -1.079 -0.8041  1.8345 -0.2939
  519MOL0     H70036   2.848   4.266  -1.256 -1.1734  2.9724 -0.1798
  519MOL0     H70037   2.642   4.086  -1.109 -0.2717 -1.3497  0.2885
  519MOL0     H70038   2.675   4.085  -1.282 -0.0447 -3.5246  0.5978
  519MOL0     H70039   2.784   3.895  -1.164 -0.1572  0.2848  1.2388
  519MOL0     H70040   2.881   4.024  -1.067 -1.7891  3.7716 -0.2167
  519MOL0     H70041   2.896   4.005  -1.357 -1.3401 -0.3112 -0.2761
  519MOL0     H70042   2.990   4.105  -1.254 -1.4160 -0.2435  0.9103
  519MOL0     H70043   2.983   3.798  -1.295  2.8583 -1.1594 -2.9941
  519MOL0     H70044   3.072   3.852  -1.147  0.1255  2.2701  0.1892
  519MOL0     H70045   3.220   3.989  -1.297 -0.2637 -0.6311  1.8604
  519MOL0     H70046   3.145   3.922  -1.438  1.4286 -1.0847 -1.4123
  519MOL0     H70047   2.536   4.318  -0.750 -0.9232  1.0496  0.4740
  519MOL0     H70048   2.334   4.284  -0.604 -1.3435  1.1646 -0.5179
  519MOL0     H70049   1.986   4.396  -0.468  2.2322 -1.3579  2.0183
  519MOL0     H70050   1.800   4.439  -0.327 -2.2806  0.2269 -2.9608
  519MOL0     H70051   2.275   5.083   0.722  0.4718  1.0842 -1.0641
  519MOL0     H70052   2.423   5.280   0.705 -1.2654  0.5000 -0.4800
  519MOL0     H70053   2.895   5.383   0.467  2.0811  2.4641 -2.6883
  519MOL0     H70054   3.028   5.576   0.439  0.3374  2.3960  0.5056
  519MOL0     H70055   3.160   5.920   0.662  1.7897  0.7409  0.9617
  519MOL0     H70056   3.047   5.845   0.770 -0.8715  1.6862 -2.7141
  519MOL0     H70057   3.218   5.710   0.867 -2.3839 -0.2420 -2.5202
  519MOL0     H70058   3.272   5.893   0.864 -2.2277  0.7237 -0.7452
  519MOL0     H70059   3.375   5.660   0.687 -0.1454 -0.7194  1.1280
  519MOL0     H70060   3.474   5.747   0.798 -2.6111 -3.8244  2.8224
  519MOL0     H70061   3.340   5.862   0.547 -0.4479 -0.2567  1.0273
  519MOL0     H70062   3.498   5.805   0.544  0.5380  0.5012 -0.6724
  519MOL0     H70063   3.535   6.197   0.713  1.4145  1.1017 -2.5383
  519MOL0     H70064   2.987   5.657   0.855 -2.5441  2.0685 -0.5975
  519MOL0     H70065   2.837   5.484   0.886 -2.0818  1.8597 -0.0529
  520MOL0     O70066   9.670   0.550   9.854 -0.5540 -0.3062 -0.9599
  520MOL0     C70067   9.673   0.497   9.735 -0.5227 -0.2552  1.1305
  520MOL0     O70068   9.724   0.371   9.705  0.9109  0.3742  0.4185
  520MOL0     C70069   9.754   0.286   9.806 -0.9565 -0.7681 -0.2610
  520MOL0     C70070   9.876   0.295   9.882  1.0811  0.3333  1.1267
  520MOL0     C70071   9.910   0.203   9.982  0.1386  0.6928  0.8291
  520MOL0     C70072   9.817   0.116  10.032 -1.0738 -0.1212  0.3816
  520MOL0     O70073   9.856   0.053  10.150  0.2550 -0.1832  0.3296
  520MOL0     C70074   9.793  -0.074  10.192  0.4115  0.3710 -0.6979
  520MOL0     C70075   9.859  -0.154  10.310  0.5147 -0.2319 -0.2604
  520MOL0     C70076   9.974  -0.081  10.379  0.1037  0.5743 -0.2005
  520MOL0     C70077  10.105  -0.077  10.300 -0.5865 -0.4634  0.0564
  520MOL0     C70078  10.163   0.069  10.287  0.4948  1.4974  0.8632
  520MOL0     C70079  10.265   0.078  10.166  0.3464 -0.7176 -0.2281
  520MOL0     C70080  10.372   0.191  10.181 -0.4060  0.0612  0.3553
  520MOL0     C70081  10.491   0.177  10.073  0.2961  0.4429 -0.4718
  520MOL0     N70082  10.444   0.174   9.936  0.3984 -0.4846  0.0183
  520MOL0     C70083  10.343   0.246   9.878 -0.1493  0.0878 -0.1119
  520MOL0     C70084  10.314   0.194   9.752  0.3000 -0.0513  0.8568
  520MOL0     C70085  10.211   0.232   9.645  0.4346 -0.2861 -1.0405
  520MOL0     C70086  10.100   0.121   9.645  0.3677  0.2035  0.0037
  520MOL0     C70087  10.014   0.135   9.526  0.0121 -0.7854  0.2037
  520MOL0     C70088   9.948   0.274   9.507 -0.2917  0.1455 -0.5910
  520MOL0     O70089  10.006   0.325   9.392 -0.6754 -0.3889 -0.4650
  520MOL0     C70090   9.983   0.460   9.364 -0.3597 -0.3318 -0.1716
  520MOL0     C70091   9.966   0.569   9.457  0.0067  0.1658  0.3623
  520MOL0     C70092   9.945   0.706   9.412 -0.2528  0.6750  0.5137
  520MOL0     C70093   9.938   0.810   9.520 -0.4240 -0.2798  0.3917
  520MOL0     C70094   9.946   0.726   9.264  0.4442  1.0797  0.3281
  520MOL0     C70095   9.925   0.855   9.203 -0.4220 -0.3055  0.5475
  520MOL0     O70096   9.956   0.853   9.073  0.4817 -0.2699  0.6974
  520MOL0     C70097   9.924   0.964   8.999  0.5942  0.9706  0.4740
  520MOL0     C70098   9.788   0.982   8.964 -0.6680 -0.1312  0.2000
  520MOL0     C70099   9.762   1.093   8.883  0.5902  1.2381  0.7396
  520MOL0     C70100   9.859   1.174   8.832 -0.1273  0.1695  0.3674
  520MOL0     O70101   9.825   1.271   8.740 -0.7103  0.6184  0.1106
  520MOL0     C70102   9.713   1.353   8.783 -0.5611  0.7887 -0.3121
  520MOL0     C70103   9.579   1.324   8.709 -0.8266  0.4623 -0.0787
  520MOL0     C70104   9.483   1.440   8.741 -0.5284  0.6531 -0.3346
  520MOL0     C70105   9.359   1.436   8.659 -0.0432 -0.7354  0.2895
  520MOL0     C70106   9.264   1.548   8.687  1.0251 -0.0982  0.0592
  520MOL0     C70107   9.128   1.536   8.602  0.1469  0.8316  0.0738
  520MOL0     C70108   9.153   1.602   8.467  0.5408 -0.4647 -0.5681
  520MOL0     C70109   9.155   1.754   8.469 -0.8633 -0.8479 -1.3261
  520MOL0    Cl70110   8.991   1.814   8.516 -0.6048  0.0537 -0.4661
  520MOL0     C70111   9.991   1.143   8.847 -1.2963  0.4963 -0.7442
  520MOL0     C70112  10.024   1.044   8.942 -0.0062  0.7745  0.8771
  520MOL0     O70113   9.890   0.950   9.264 -0.0530  0.5682 -0.7995
  520MOL0     C70114   9.973   0.616   9.174 -0.6226  0.5129 -0.8649
  520MOL0     C70115   9.977   0.487   9.225  0.2451 -0.0812 -1.3273
  520MOL0     N70116  10.402   0.092   9.740 -0.2601 -0.4468 -0.5200
  520MOL0     N70117  10.470   0.078   9.849  0.0251  0.5681  0.1374
  520MOL0     C70118   9.700   0.113   9.962  0.7895  0.2717 -0.0476
  520MOL0     C70119   9.668   0.186   9.847 -0.8330 -0.0138  0.4561
  520MOL0     C70120   9.638   0.592   9.628 -0.4684  1.3204  0.2913
  520MOL0     C70121   9.604   0.727   9.647 -0.0007  1.1039  0.5708
  520MOL0     C70122   9.567   0.804   9.536 -0.2157  0.2822 -0.1778
  520MOL0     C70123   9.567   0.756   9.409 -0.0788  0.3452 -0.3367
  520MOL0     O70124   9.536   0.812   9.287 -0.3534  0.6470  0.1112
  520MOL0     C70125   9.510   0.951   9.290  0.0819 -0.2964 -0.2488
  520MOL0     C70126   9.440   0.996   9.162  0.8720  0.6168 -0.3712
  520MOL0     C70127   9.413   1.145   9.188 -1.1570 -0.8867  0.8007
  520MOL0     C70128   9.351   1.200   9.066  0.4313 -0.6335 -0.1961
  520MOL0     C70129   9.296   1.331   9.069  0.4630 -0.7462  0.6287
  520MOL0     C70130   9.248   1.441   9.059  0.0186  0.3376 -0.0780
  520MOL0     C70131   9.611   0.628   9.384 -0.1854  0.0890 -0.2283
  520MOL0     C70132   9.648   0.549   9.497  0.2197  0.1170 -0.1583
  520MOL0     H70133   9.946   0.372   9.848  1.2426 -0.4420 -0.4016
  520MOL0     H70134  10.004   0.206  10.037  1.2137  0.8679 -0.9457
  520MOL0     H70135   9.698  -0.035  10.230  1.2210  0.5601  1.2622
  520MOL0     H70136   9.783  -0.141  10.107  3.3043 -0.0252 -0.8336
  520MOL0     H70137   9.779  -0.169  10.383 -0.7270 -3.2389 -2.0121
  520MOL0     H70138   9.880  -0.256  10.278 -0.1976 -0.6523  0.5594
  520MOL0     H70139   9.937   0.016  10.414 -0.5401 -0.1591  1.2209
  520MOL0     H70140  10.005  -0.128  10.472  4.5378  1.7773 -0.8277
  520MOL0     H70141  10.187  -0.136  10.341 -2.0738 -1.7512  1.3000
  520MOL0     H70142  10.083  -0.108  10.197 -2.5066 -4.4669  1.4580
  520MOL0     H70143  10.089   0.147  10.269 -0.0986  0.2725 -2.9510
  520MOL0     H70144  10.196   0.106  10.385 -0.7689  3.9715  0.4426
  520MOL0     H70145  10.316  -0.018  10.157  1.3261 -0.0755 -1.9977
  520MOL0     H70146  10.220   0.094  10.068 -0.0417  0.1412  0.0791
  520MOL0     H70147  10.315   0.283  10.166  1.1770  1.0625  0.3269
  520MOL0     H70148  10.407   0.205  10.283 -1.8010  4.6594  0.3928
  520MOL0     H70149  10.541   0.087  10.110  0.8864  1.5843  1.6534
  520MOL0     H70150  10.561   0.260  10.086  0.8213  0.0123 -0.5039
  520MOL0     H70151  10.293   0.334   9.917  0.0565  0.8771 -1.5622
  520MOL0     H70152  10.178   0.333   9.669  2.7145  0.4073 -0.5686
  520MOL0     H70153  10.260   0.238   9.547 -0.0569 -0.5312 -1.3058
  520MOL0     H70154  10.043   0.130   9.737  2.1375  0.8283  1.0995
  520MOL0     H70155  10.159   0.029   9.648  1.8659  1.1382  2.6203
  520MOL0     H70156   9.930   0.066   9.515 -0.7359 -0.4137  2.7700
  520MOL0     H70157  10.080   0.115   9.442 -0.2309  0.1000 -0.2118
  520MOL0     H70158   9.958   0.345   9.590  0.7993 -0.5448 -0.1120
  520MOL0     H70159   9.844   0.248   9.487  0.1949 -4.8387  1.8227
  520MOL0     H70160   9.965   0.549   9.564 -0.9862  3.3173  1.0305
  520MOL0     H70161   9.865   0.888   9.497  1.3484  1.2903 -0.2107
  520MOL0     H70162   9.907   0.763   9.614 -2.2795 -0.4658 -0.2627
  520MOL0     H70163  10.034   0.860   9.535 -0.8742  1.6589 -2.4266
  520MOL0     H70164   9.718   0.906   8.997  0.2595 -1.2941 -0.4510
  520MOL0     H70165   9.659   1.098   8.848 -0.0930  0.1159  2.4656
  520MOL0     H70166   9.704   1.339   8.892  0.6407 -1.4966 -0.4586
  520MOL0     H70167   9.740   1.459   8.777 -2.6869  1.4548  0.6235
  520MOL0     H70168   9.606   1.315   8.603 -0.4157 -0.5216  0.1034
  520MOL0     H70169   9.536   1.229   8.740  1.8837 -0.3173  1.7071
  520MOL0     H70170   9.532   1.536   8.726 -0.5184  0.5668 -0.8598
  520MOL0     H70171   9.459   1.438   8.848 -1.4608 -1.0844 -0.5425
  520MOL0     H70172   9.412   1.447   8.564 -1.9313 -0.4654 -0.8073
  520MOL0     H70173   9.299   1.344   8.660 -0.2905 -0.5728  1.0854
  520MOL0     H70174   9.313   1.637   8.648  1.0441 -0.0723  0.1420
  520MOL0     H70175   9.245   1.548   8.795 -0.7147 -0.5949 -0.2238
  520MOL0     H70176   9.103   1.430   8.595  0.6447  0.7780 -1.1994
  520MOL0     H70177   9.054   1.584   8.667 -0.3946 -1.5970  1.3794
  520MOL0     H70178   9.070   1.565   8.407  0.0734 -0.5362  0.1130
  520MOL0     H70179   9.240   1.556   8.419  0.0966 -1.6290 -0.2833
  520MOL0     H70180   9.165   1.784   8.365 -0.6875 -1.3362 -1.4511
  520MOL0     H70181   9.236   1.796   8.529  0.1643 -1.2752 -2.3666
  520MOL0     H70182  10.074   1.194   8.799 -2.9243  1.2130 -2.9603
  520MOL0     H70183  10.127   1.016   8.960  0.5935  0.0132 -2.8650
  520MOL0     H70184   9.984   0.618   9.066 -0.5884 -3.0833 -1.0492
  520MOL0     H70185   9.984   0.401   9.160  0.5970 -0.8008 -0.3653
  520MOL0     H70186   9.623   0.042   9.990  0.5712 -0.0929 -1.4879
  520MOL0     H70187   9.568   0.173   9.807 -1.7680  3.1157  1.5021
  520MOL0     H70188   9.613   0.776   9.744  2.6579  1.6296  0.1490
  520MOL0     H70189   9.552   0.910   9.555  3.5670  0.8694  0.3076
  520MOL0     H70190   9.441   0.973   9.372  2.9694  0.3834  2.1798
  520MOL0     H70191   9.607   0.998   9.309 -0.5445 -0.3528  4.1749
  520MOL0     H70192   9.345   0.945   9.143  2.3359 -2.0498 -1.1415
  520MOL0     H70193   9.501   0.969   9.075  0.5143 -2.0706  0.1256
  520MOL0     H70194   9.508   1.193   9.214 -1.9227 -0.7832  3.7246
  520MOL0     H70195   9.345   1.145   9.274 -1.6131  2.2708  0.5624
  520MOL0     H70196   9.272   1.129   9.040  0.3331  0.1082 -2.0500
  520MOL0     H70197   9.417   1.199   8.980  2.2727  1.0948  1.0969
  520MOL0     H70198   9.193   1.530   9.039 -0.7752 -0.0976  0.1174
  520MOL0     H70199   9.621   0.599   9.280  2.4678  1.5766 -0.4798
  520MOL0     H70200   9.687   0.454   9.463 -2.0661 -0.6194 -0.8874
  521MOL0     O70201   6.910   2.164   6.304  0.1839  0.3708 -1.0275
  521MOL0     C70202   7.001   2.157   6.221 -1.3675  0.2026  0.5916
  521MOL0     O70203   7.133   2.160   6.255  0.1618 -0.9939 -0.0420
  521MOL0     C70204   7.153   2.185   6.395 -0.4087  1.0060  0.0608
  521MOL0     C70205   7.192   2.063   6.471 -0.4641 -0.2656 -0.4216
  521MOL0     C70206   7.227   2.075   6.606  0.1578  0.1301 -0.3792
  521MOL0     C70207   7.215   2.198   6.677  0.1504 -0.1928  1.0798
  521MOL0     O70208   7.260   2.179   6.803 -0.1687  0.0057  0.6622
  521MOL0     C70209   7.225   2.281   6.897  0.5707  0.6392  0.8254
  521MOL0     C70210   7.314   2.265   7.025 -0.1159  0.6248 -0.1033
  521MOL0     C70211   7.297   2.378   7.131 -0.6042 -0.5112 -0.0381
  521MOL0     C70212   7.370   2.355   7.262 -0.2044  0.5786  0.6218
  521MOL0     C70213   7.521   2.393   7.266 -0.3044  0.2153 -0.0601
  521MOL0     C70214   7.575   2.366   7.407 -0.5754 -0.5157  0.0169
  521MOL0     C70215   7.728   2.386   7.426 -0.6685 -0.4293  1.2707
  521MOL0     C70216   7.819   2.295   7.353  0.1455  0.2854 -0.5537
  521MOL0     N70217   7.867   2.185   7.442  0.1811 -0.7687 -1.0687
  521MOL0     C70218   7.962   2.217   7.530 -0.4841 -0.3196 -0.4206
  521MOL0     C70219   7.983   2.111   7.609  0.1793 -0.2607  0.9099
  521MOL0     C70220   8.091   2.100   7.709  0.5770 -0.8065 -0.7481
  521MOL0     C70221   8.072   1.974   7.781 -0.6769 -0.3732  0.4912
  521MOL0     C70222   8.176   1.947   7.890 -0.0388  0.1109 -0.2443
  521MOL0     C70223   8.305   1.883   7.841  0.2202  0.7116 -0.0974
  521MOL0     O70224   8.367   1.860   7.968  0.1327  0.3208  0.4118
  521MOL0     C70225   8.497   1.808   7.967 -0.0580 -0.7580  0.3181
  521MOL0     C70226   8.555   1.774   8.090  0.9794 -1.1079  0.5941
  521MOL0     C70227   8.680   1.728   8.109  1.4266  1.1577 -0.6017
  521MOL0     C70228   8.701   1.712   8.253 -0.1164 -0.3942 -0.3648
  521MOL0     C70229   8.766   1.706   7.997  0.2291  0.9027 -0.4656
  521MOL0     C70230   8.899   1.661   8.004 -1.0529  0.4846  0.0953
  521MOL0     O70231   8.980   1.654   7.898 -0.0760 -0.4074 -1.0037
  521MOL0     C70232   9.114   1.618   7.927 -0.8160  0.9667  0.4168
  521MOL0     C70233   9.157   1.492   7.871 -0.0611 -0.5240 -0.5658
  521MOL0     C70234   9.293   1.447   7.873 -0.3693 -0.4744 -0.0647
  521MOL0     C70235   9.382   1.528   7.937  0.5214 -0.9709  0.2579
  521MOL0     O70236   9.509   1.481   7.941  0.7240 -0.5557 -0.3359
  521MOL0     C70237   9.613   1.561   7.880  0.5857  0.5697  0.7413
  521MOL0     C70238   9.719   1.456   7.826 -0.2264 -0.7668  0.2845
  521MOL0     C70239   9.677   1.358   7.722 -0.1132 -0.2348 -0.7768
  521MOL0     C70240   9.781   1.247   7.719 -0.4069 -0.4012 -0.3616
  521MOL0     C70241   9.919   1.285   7.676 -1.1427 -0.4972 -0.0449
  521MOL0     C70242  10.005   1.312   7.801 -0.3164  0.3738  0.6194
  521MOL0     C70243  10.147   1.335   7.752  0.6464 -0.8315  0.6531
  521MOL0     C70244  10.240   1.213   7.779  0.4795  0.1053  0.1752
  521MOL0    Cl70245  10.341   1.251   7.921  0.1740 -0.1975  0.5364
  521MOL0     C70246   9.344   1.656   7.986 -0.6170  0.3851 -0.3826
  521MOL0     C70247   9.211   1.702   7.983  0.3199  0.1515 -0.6833
  521MOL0     O70248   8.942   1.630   8.118 -0.4127 -0.3122  0.0766
  521MOL0     C70249   8.715   1.737   7.876  0.2606  0.6435  0.0535
  521MOL0     C70250   8.586   1.784   7.857 -0.6451 -0.3248 -0.4557
  521MOL0     N70251   7.896   2.012   7.553  0.6551 -0.2276 -0.6154
  521MOL0     N70252   7.815   2.067   7.472  0.2353  0.6683 -0.1369
  521MOL0     C70253   7.163   2.308   6.614 -0.4897 -0.1579  0.4248
  521MOL0     C70254   7.137   2.303   6.468 -1.0637  0.2462  0.9528
  521MOL0     C70255   6.960   2.126   6.079  0.1320 -1.1558 -0.6138
  521MOL0     C70256   7.064   2.109   5.983  0.1372  1.2989  0.4284
  521MOL0     C70257   7.030   2.065   5.860 -0.6049  0.2856  0.0082
  521MOL0     C70258   6.890   2.065   5.829 -1.0358 -0.4443 -0.0779
  521MOL0     O70259   6.865   2.012   5.709  0.3888  0.0241  0.0207
  521MOL0     C70260   6.723   2.001   5.663  0.3684 -0.4306  0.2730
  521MOL0     C70261   6.707   2.027   5.509 -0.2392 -0.0885  0.0448
  521MOL0     C70262   6.752   1.903   5.421  0.2957  0.4044  0.2110
  521MOL0     C70263   6.892   1.845   5.434 -0.1604  0.2609 -0.6149
  521MOL0     C70264   6.989   1.950   5.410  1.0594  1.1120  0.6077
  521MOL0     C70265   7.059   2.044   5.382 -0.3616 -0.2204 -0.4429
  521MOL0     C70266   6.796   2.114   5.914 -1.0556  0.5727 -0.2276
  521MOL0     C70267   6.824   2.145   6.044  0.7979 -0.3939 -0.1681
  521MOL0     H70268   7.164   1.967   6.429 -3.2836  0.9696 -1.6689
  521MOL0     H70269   7.258   1.983   6.656  2.0876 -1.4877 -4.0887
  521MOL0     H70270   7.229   2.383   6.857 -2.3573  0.1871 -0.9056
  521MOL0     H70271   7.119   2.270   6.921  0.5399 -0.6529  0.1744
  521MOL0     H70272   7.288   2.172   7.078  0.1503 -0.0985 -1.2068
  521MOL0     H70273   7.421   2.268   7.001  0.4319  3.5443  2.1575
  521MOL0     H70274   7.336   2.468   7.082  1.1893 -0.9260  0.5544
  521MOL0     H70275   7.197   2.403   7.167  1.3098  4.2863  2.9989
  521MOL0     H70276   7.341   2.427   7.339 -0.9786  0.3030  0.5953
  521MOL0     H70277   7.367   2.249   7.289 -1.2981  1.3557  4.1295
  521MOL0     H70278   7.586   2.333   7.201 -0.0191  0.5822 -0.1183
  521MOL0     H70279   7.532   2.496   7.232  2.8293 -0.6715 -2.2520
  521MOL0     H70280   7.516   2.421   7.482  0.4862 -0.1447  0.6068
  521MOL0     H70281   7.557   2.263   7.439  0.8271 -1.0662 -0.9246
  521MOL0     H70282   7.754   2.488   7.395  0.1423 -0.3793  2.0655
  521MOL0     H70283   7.759   2.388   7.531 -1.6538 -1.4889  1.5917
  521MOL0     H70284   7.910   2.344   7.317  0.3166 -2.0045 -3.6727
  521MOL0     H70285   7.782   2.257   7.258  3.8759  2.0450 -2.9646
  521MOL0     H70286   8.016   2.311   7.536 -1.0984  0.0215 -0.1502
  521MOL0     H70287   8.187   2.095   7.657  0.8454 -3.5767 -0.1515
  521MOL0     H70288   8.089   2.188   7.773 -0.5920 -0.9329 -0.5856
  521MOL0     H70289   8.068   1.896   7.704  0.2805  1.3486 -1.4104
  521MOL0     H70290   7.975   1.978   7.832 -0.5205 -0.3887  0.7859
  521MOL0     H70291   8.125   1.892   7.969 -3.9545  1.6749 -1.4452
  521MOL0     H70292   8.209   2.045   7.928 -0.5764  0.2708 -0.1862
  521MOL0     H70293   8.362   1.950   7.775  0.5527 -1.3134 -2.0000
  521MOL0     H70294   8.281   1.790   7.789 -0.1785 -0.2250  1.6915
  521MOL0     H70295   8.495   1.808   8.174 -0.5612 -1.2191 -0.3977
  521MOL0     H70296   8.708   1.811   8.299  0.0020 -0.4790 -0.1974
  521MOL0     H70297   8.608   1.671   8.294  0.3177  0.1216  1.2397
  521MOL0     H70298   8.786   1.652   8.287  0.4123 -0.2144 -1.3465
  521MOL0     H70299   9.077   1.428   7.834 -1.1150 -1.2847  2.6517
  521MOL0     H70300   9.322   1.351   7.833  3.1310 -0.1467  1.3107
  521MOL0     H70301   9.588   1.626   7.795 -0.7162  1.3222  1.6679
  521MOL0     H70302   9.656   1.629   7.953  1.0673  3.0581 -1.6831
  521MOL0     H70303   9.796   1.519   7.782 -4.0357  3.4477 -1.0606
  521MOL0     H70304   9.755   1.409   7.919  0.9389  1.4620  1.0217
  521MOL0     H70305   9.680   1.410   7.626 -0.2013 -0.3305 -0.8317
  521MOL0     H70306   9.575   1.327   7.747  0.2877 -0.0147  1.2981
  521MOL0     H70307   9.787   1.194   7.815 -0.6457 -0.4014 -0.3455
  521MOL0     H70308   9.750   1.166   7.651 -1.4051  1.1261 -1.8042
  521MOL0     H70309   9.924   1.376   7.615 -1.4303  1.8710  3.2412
  521MOL0     H70310   9.965   1.200   7.624 -0.6137 -0.1788 -0.1052
  521MOL0     H70311   9.965   1.383   7.874  0.1421 -1.6801  3.0041
  521MOL0     H70312  10.011   1.224   7.866 -2.2646 -0.9360 -0.8388
  521MOL0     H70313  10.197   1.424   7.791 -0.1536 -0.0779  0.0033
  521MOL0     H70314  10.146   1.343   7.643  0.6632 -0.5950  0.6701
  521MOL0     H70315  10.316   1.198   7.701  0.3256 -0.7615  0.1776
  521MOL0     H70316  10.183   1.120   7.784  1.2156 -0.3906 -0.3315
  521MOL0     H70317   9.417   1.734   8.005 -1.3809  1.1298 -0.4167
  521MOL0     H70318   9.176   1.793   8.030 -0.7508 -0.7951  0.4333
  521MOL0     H70319   8.781   1.717   7.792  1.1812 -0.6335  1.0613
  521MOL0     H70320   8.555   1.808   7.756  0.5022 -0.6924 -0.9196
  521MOL0     H70321   7.134   2.393   6.675  1.4829  0.1478  0.9864
  521MOL0     H70322   7.100   2.388   6.413 -0.3510 -2.2711 -3.9143
  521MOL0     H70323   7.163   2.101   6.026  1.2165 -1.1731 -2.1829
  521MOL0     H70324   7.097   2.024   5.786 -0.9809  0.2849 -0.3390
  521MOL0     H70325   6.691   1.902   5.696  1.3162 -1.0263 -0.5378
  521MOL0     H70326   6.657   2.079   5.703 -0.6119  1.0295 -3.6961
  521MOL0     H70327   6.755   2.119   5.475  0.8989 -1.4316 -2.2896
  521MOL0     H70328   6.602   2.047   5.486 -0.2442  0.3503  0.4322
  521MOL0     H70329   6.751   1.946   5.321  1.0822  1.7254  0.7353
  521MOL0     H70330   6.680   1.821   5.430  2.5939 -1.6284  1.0662
  521MOL0     H70331   6.898   1.768   5.356 -0.2835 -0.5164  0.1281
  521MOL0     H70332   6.913   1.804   5.533  0.5855 -1.8348 -1.5770
  521MOL0     H70333   7.130   2.122   5.369  1.1162 -1.2504  1.0591
  521MOL0     H70334   6.693   2.116   5.880 -0.3997 -2.8687 -3.0577
  521MOL0     H70335   6.741   2.147   6.113  1.6694 -1.1903  0.9473
  522MOL0     O70336   4.741   9.159   1.231 -0.0409  0.0210  0.2682
  522MOL0     C70337   4.836   9.233   1.249 -0.3553  0.8066 -1.2445
  522MOL0     O70338   4.949   9.216   1.180 -0.0089  0.1478 -0.5780
  522MOL0     C70339   4.956   9.139   1.064 -0.2146 -0.3332  0.1844
  522MOL0     C70340   5.068   9.055   1.041  0.9133 -0.0490 -0.7335
  522MOL0     C70341   5.081   9.000   0.910  0.0703 -0.1382 -0.0552
  522MOL0     C70342   4.990   9.021   0.807 -0.0765 -0.1032 -0.0393
  522MOL0     O70343   4.990   8.962   0.685 -0.5025 -0.3550  0.5492
  522MOL0     C70344   5.088   8.865   0.648  0.0053  0.1085  0.5338
  522MOL0     C70345   5.087   8.816   0.504 -0.5111  0.9727  0.1079
  522MOL0     C70346   5.199   8.715   0.469 -0.0866  0.3490 -0.2726
  522MOL0     C70347   5.201   8.680   0.325 -0.0249 -0.4937  0.3882
  522MOL0     C70348   5.289   8.755   0.228 -0.2488 -0.5724  0.8206
  522MOL0     C70349   5.386   8.658   0.168 -0.0653  0.1998 -0.0832
  522MOL0     C70350   5.487   8.728   0.075  0.0715 -0.3850 -0.1576
  522MOL0     C70351   5.600   8.792   0.162  0.8118 -0.1916  0.2704
  522MOL0     N70352   5.697   8.836   0.064 -0.0825  0.6185  0.7257
  522MOL0     C70353   5.683   8.920  -0.038 -0.0561 -1.0019  0.1252
  522MOL0     C70354   5.789   8.907  -0.118 -0.2031 -0.7226  0.1385
  522MOL0     C70355   5.822   8.976  -0.250  0.2227  0.0685 -0.8427
  522MOL0     C70356   5.781   8.885  -0.359 -0.5050  0.6280 -0.5657
  522MOL0     C70357   5.813   8.909  -0.509  1.0761  0.4444  0.5025
  522MOL0     C70358   5.722   8.817  -0.599 -0.2142 -0.0233 -0.1675
  522MOL0     O70359   5.585   8.841  -0.572 -0.3484  0.3346 -0.5215
  522MOL0     C70360   5.516   8.856  -0.690  0.4014 -1.2778 -0.1834
  522MOL0     C70361   5.517   8.986  -0.745  0.5145 -0.2645 -0.1899
  522MOL0     C70362   5.468   9.011  -0.875  0.0168  0.3640  0.0448
  522MOL0     C70363   5.466   9.156  -0.917 -0.9953  0.2073  0.4494
  522MOL0     C70364   5.421   8.900  -0.947  0.3543  0.5019  0.8073
  522MOL0     C70365   5.373   8.912  -1.092 -0.5036  0.2734  0.9498
  522MOL0     O70366   5.378   8.798  -1.165 -0.3093  0.4535  0.2854
  522MOL0     C70367   5.325   8.809  -1.295 -0.0666  0.0662 -0.1603
  522MOL0     C70368   5.219   8.724  -1.325 -0.1608  0.0483  0.8992
  522MOL0     C70369   5.171   8.732  -1.456  0.0607 -0.0585 -0.5104
  522MOL0     C70370   5.215   8.823  -1.552  0.2594 -0.8781 -0.6112
  522MOL0     O70371   5.169   8.808  -1.680  0.4311 -0.3037  0.3059
  522MOL0     C70372   5.189   8.919  -1.767  0.1139  1.2822 -1.4531
  522MOL0     C70373   5.084   8.903  -1.880  0.0170 -0.2235  0.4932
  522MOL0     C70374   5.045   8.764  -1.935  0.2678  0.1909 -0.1422
  522MOL0     C70375   5.153   8.687  -2.005  0.1890 -0.5228 -0.8292
  522MOL0     C70376   5.092   8.587  -2.097  0.3780 -0.0635 -0.5542
  522MOL0     C70377   5.187   8.489  -2.161 -0.8397 -0.2104  0.1870
  522MOL0     C70378   5.308   8.559  -2.219 -1.1364  0.0933  0.1020
  522MOL0     C70379   5.286   8.656  -2.326 -0.1031 -0.9199  0.0272
  522MOL0    Cl70380   5.230   8.566  -2.476 -0.4758 -0.0526 -0.1789
  522MOL0     C70381   5.333   8.897  -1.531 -0.2360  0.0159 -0.1400
  522MOL0     C70382   5.390   8.888  -1.401  0.7672  0.6162 -0.1445
  522MOL0     O70383   5.318   9.020  -1.125  0.2918 -0.1873 -0.6376
  522MOL0     C70384   5.428   8.774  -0.886  0.1725  0.5901  0.2918
  522MOL0     C70385   5.465   8.750  -0.755 -0.1750 -0.0277 -0.7458
  522MOL0     N70386   5.862   8.802  -0.064 -0.2412  0.5432 -0.8707
  522MOL0     N70387   5.822   8.777   0.045  0.1459 -0.1242 -0.2376
  522MOL0     C70388   4.885   9.112   0.836  0.9038  0.6595 -0.4534
  522MOL0     C70389   4.873   9.169   0.963  0.3832  0.0867 -0.6717
  522MOL0     C70390   4.828   9.334   1.362 -0.4429  0.0032  0.7366
  522MOL0     C70391   4.722   9.329   1.459 -0.2774  0.5584 -0.2230
  522MOL0     C70392   4.705   9.428   1.557  0.5686  0.3866  0.2725
  522MOL0     C70393   4.797   9.529   1.563  0.4003  0.1264 -0.3087
  522MOL0     O70394   4.795   9.630   1.653 -0.2972  1.0176 -0.1389
  522MOL0     C70395   4.670   9.701   1.649 -1.0266  0.2302  0.1047
  522MOL0     C70396   4.698   9.802   1.754 -0.0518 -0.0937 -0.9672
  522MOL0     C70397   4.582   9.868   1.815 -0.0430 -0.1289 -0.2539
  522MOL0     C70398   4.482   9.937   1.733 -0.6330 -0.1510  0.5381
  522MOL0     C70399   4.543  10.033   1.641  0.5600  0.6384 -0.1300
  522MOL0     C70400   4.596  10.119   1.579  0.0023 -0.2152 -0.1243
  522MOL0     C70401   4.905   9.532   1.476 -0.5880  0.6018 -0.1780
  522MOL0     C70402   4.920   9.434   1.374  0.2662  0.5428  0.1046
  522MOL0     H70403   5.136   9.010   1.113  0.5745  0.3993 -0.1228
  522MOL0     H70404   5.159   8.927   0.891 -0.8203 -0.9270 -0.8051
  522MOL0     H70405   5.180   8.924   0.653  0.0240  0.6838 -3.7398
  522MOL0     H70406   5.091   8.782   0.719 -1.3399 -1.3308 -1.0087
  522MOL0     H70407   4.988   8.776   0.477 -0.7912 -1.3065  3.8336
  522MOL0     H70408   5.107   8.900   0.436  0.9579  0.0632 -0.6455
  522MOL0     H70409   5.290   8.769   0.494  1.2832 -2.6124  1.7173
  522MOL0     H70410   5.196   8.628   0.535  0.8578 -0.9069 -1.7964
  522MOL0     H70411   5.228   8.575   0.309  1.3546 -0.0044 -0.6847
  522MOL0     H70412   5.096   8.691   0.296 -0.2303 -3.0650 -0.0704
  522MOL0     H70413   5.227   8.790   0.145  1.6796  0.9106 -0.0714
  522MOL0     H70414   5.335   8.838   0.283 -2.3623  1.4712 -0.3310
  522MOL0     H70415   5.435   8.599   0.247  0.0141 -0.9217 -0.9406
  522MOL0     H70416   5.337   8.585   0.104  1.5967 -0.7156 -0.3671
  522MOL0     H70417   5.544   8.659   0.012 -0.6064 -1.5453  0.4675
  522MOL0     H70418   5.448   8.806   0.010  0.1631  0.7212  1.0879
  522MOL0     H70419   5.633   8.706   0.222 -1.7846 -1.7471 -0.3471
  522MOL0     H70420   5.560   8.875   0.220 -0.6141 -0.0880 -0.8104
  522MOL0     H70421   5.601   8.984  -0.069  0.4133  0.5749  1.9093
  522MOL0     H70422   5.763   9.067  -0.242 -1.8823 -1.3647  0.9625
  522MOL0     H70423   5.929   8.998  -0.260  0.0330  0.1246 -3.4525
  522MOL0     H70424   5.674   8.863  -0.350 -0.8125  2.1373 -0.3410
  522MOL0     H70425   5.838   8.792  -0.346 -1.5841 -0.1932 -1.5354
  522MOL0     H70426   5.920   8.892  -0.526  0.8354  0.5511 -1.2540
  522MOL0     H70427   5.794   9.014  -0.532 -3.4484 -0.2225  0.3334
  522MOL0     H70428   5.741   8.711  -0.581  2.7276  0.6514  1.1611
  522MOL0     H70429   5.753   8.825  -0.704  0.2379 -0.6988 -0.0887
  522MOL0     H70430   5.557   9.068  -0.687 -1.5001  0.2170  0.5699
  522MOL0     H70431   5.502   9.182  -1.017 -1.3473 -0.1035  0.2443
  522MOL0     H70432   5.365   9.196  -0.924  1.1124  7.0451  1.0392
  522MOL0     H70433   5.512   9.226  -0.846  1.3420 -1.2277  0.4691
  522MOL0     H70434   5.178   8.649  -1.259 -0.7115  0.6211  1.2238
  522MOL0     H70435   5.094   8.662  -1.487 -0.9821 -0.1165  1.9770
  522MOL0     H70436   5.180   9.016  -1.717  5.4675  0.5688  1.6852
  522MOL0     H70437   5.279   8.899  -1.827  0.1990 -1.5954 -0.5412
  522MOL0     H70438   4.993   8.952  -1.845 -0.2397  0.1964 -0.7059
  522MOL0     H70439   5.113   8.962  -1.967  0.7688 -1.4204 -0.1008
  522MOL0     H70440   4.953   8.774  -1.993 -0.3448  2.3841  1.0757
  522MOL0     H70441   5.030   8.694  -1.853 -0.3695 -1.2062 -1.4082
  522MOL0     H70442   5.218   8.758  -2.058  1.5898 -1.6900 -0.7277
  522MOL0     H70443   5.222   8.641  -1.934  0.4263  1.2064  0.1115
  522MOL0     H70444   5.041   8.645  -2.175  3.6235  1.3646 -1.8253
  522MOL0     H70445   5.023   8.523  -2.042  0.7212  1.1686  1.4208
  522MOL0     H70446   5.221   8.409  -2.095 -3.2224 -2.5475 -1.1908
  522MOL0     H70447   5.128   8.441  -2.240 -0.5258 -1.4318  0.6672
  522MOL0     H70448   5.360   8.474  -2.265 -1.5861 -0.0998 -0.0648
  522MOL0     H70449   5.366   8.604  -2.139  1.3244 -1.1064 -0.9160
  522MOL0     H70450   5.381   8.706  -2.347  1.0334 -1.8438  2.6425
  522MOL0     H70451   5.225   8.742  -2.297 -0.0198 -0.0787 -2.0715
  522MOL0     H70452   5.386   8.951  -1.609 -2.9575  2.5416 -0.4273
  522MOL0     H70453   5.478   8.946  -1.375 -0.8457  3.1056  0.0693
  522MOL0     H70454   5.379   8.686  -0.927  0.4383  0.9450 -0.8287
  522MOL0     H70455   5.448   8.651  -0.714  0.7145  0.7424  1.6208
  522MOL0     H70456   4.820   9.131   0.751  1.9826  0.1246 -1.4347
  522MOL0     H70457   4.796   9.243   0.984  1.9998  1.4455  0.7352
  522MOL0     H70458   4.645   9.253   1.450  1.3308 -0.8709 -3.1310
  522MOL0     H70459   4.625   9.430   1.631  1.5955 -1.3578  1.4882
  522MOL0     H70460   4.648   9.735   1.547  1.3688 -2.7627 -1.6005
  522MOL0     H70461   4.594   9.632   1.685 -1.4778  0.4549 -0.3992
  522MOL0     H70462   4.754   9.887   1.712 -3.4477  1.4061 -2.8393
  522MOL0     H70463   4.746   9.754   1.840  2.2498  1.8885 -1.0260
  522MOL0     H70464   4.626   9.948   1.877  1.2379 -2.7183  2.4311
  522MOL0     H70465   4.531   9.797   1.881 -0.3808  1.8522  1.7612
  522MOL0     H70466   4.410   9.993   1.794 -4.8811  0.6382 -4.5037
  522MOL0     H70467   4.420   9.870   1.674 -0.0466 -0.1465 -0.0978
  522MOL0     H70468   4.641  10.203   1.529 -1.8737  1.4670  0.8876
  522MOL0     H70469   4.971   9.617   1.478 -0.1348  0.3030 -1.4361
  522MOL0     H70470   4.992   9.448   1.294 -0.4234 -0.2383 -0.6887
  523MOL0     O70471   3.902  10.027   4.496  0.3267 -0.3040 -0.8488
  523MOL0     C70472   3.970  10.016   4.596 -0.8534 -1.0218 -0.2610
  523MOL0     O70473   3.974   9.904   4.679 -0.0573 -0.2736 -0.0804
  523MOL0     C70474   3.931   9.787   4.619 -1.0657 -0.9100 -0.0299
  523MOL0     C70475   3.813   9.717   4.658  0.2757 -0.0446 -0.1637
  523MOL0     C70476   3.785   9.596   4.580 -0.9139 -0.2760  0.5137
  523MOL0     C70477   3.875   9.538   4.485  0.3628 -0.8393  0.1984
  523MOL0     O70478   3.836   9.419   4.421 -0.4224 -0.2102 -0.5799
  523MOL0     C70479   3.770   9.315   4.495  0.8995 -0.9284 -0.2123
  523MOL0     C70480   3.726   9.201   4.406  0.6922 -0.5305 -0.3587
  523MOL0     C70481   3.617   9.253   4.320  0.2119  1.1251 -0.2989
  523MOL0     C70482   3.483   9.247   4.400 -0.4803  0.6143  0.8372
  523MOL0     C70483   3.356   9.283   4.311 -0.6647  0.5291 -0.5220
  523MOL0     C70484   3.331   9.427   4.272  0.3638  0.3839 -0.8713
  523MOL0     C70485   3.192   9.418   4.199 -0.1833 -0.5128  0.8947
  523MOL0     C70486   3.067   9.374   4.278 -0.6348 -0.6347 -0.4610
  523MOL0     N70487   3.057   9.451   4.407  0.4041  0.0375  0.0602
  523MOL0     C70488   3.056   9.590   4.425 -0.0070 -0.1407  0.5003
  523MOL0     C70489   3.003   9.605   4.554  0.9005  0.1825  0.6752
  523MOL0     C70490   2.947   9.732   4.619  1.5769 -0.2518 -0.1349
  523MOL0     C70491   2.796   9.731   4.623  0.9537 -0.4866 -0.1786
  523MOL0     C70492   2.734   9.856   4.690 -0.0356 -0.2159  0.7879
  523MOL0     C70493   2.580   9.844   4.679  0.3048 -0.1905 -0.1309
  523MOL0     O70494   2.517   9.722   4.745  0.1786  0.2898  0.6965
  523MOL0     C70495   2.545   9.690   4.875  0.4814  0.1941  1.0849
  523MOL0     C70496   2.546   9.557   4.928 -0.4487  0.6741  0.0658
  523MOL0     C70497   2.549   9.517   5.062  0.2464  0.8716 -0.7247
  523MOL0     C70498   2.513   9.376   5.107 -0.5742  0.3943  0.4174
  523MOL0     C70499   2.566   9.625   5.157  0.4146  1.3146  0.4094
  523MOL0     C70500   2.557   9.603   5.312  0.0850 -0.2733 -0.1068
  523MOL0     O70501   2.491   9.493   5.370  0.5044  0.3133 -0.3793
  523MOL0     C70502   2.505   9.469   5.504  0.3481  0.1807  0.4669
  523MOL0     C70503   2.431   9.545   5.597 -0.5548  0.0199 -0.3703
  523MOL0     C70504   2.448   9.529   5.738  0.7274 -0.8033  0.2451
  523MOL0     C70505   2.533   9.437   5.777  0.0012  0.6207 -0.6472
  523MOL0     O70506   2.550   9.403   5.909 -0.8921 -0.1081  0.0971
  523MOL0     C70507   2.502   9.483   6.015 -0.4938 -0.2691 -0.0340
  523MOL0     C70508   2.514   9.399   6.145 -0.4229 -0.1303 -0.8645
  523MOL0     C70509   2.400   9.408   6.248  0.8626 -0.4257 -0.7538
  523MOL0     C70510   2.393   9.298   6.350  0.2579  0.3163  0.0766
  523MOL0     C70511   2.514   9.283   6.444  0.0254 -0.0472  0.4219
  523MOL0     C70512   2.539   9.404   6.521  0.5202 -0.1298  0.4740
  523MOL0     C70513   2.631   9.404   6.639  0.1371  0.7999 -0.4948
  523MOL0     C70514   2.779   9.376   6.608  1.1052 -0.1448 -1.3782
  523MOL0    Cl70515   2.870   9.363   6.765  0.8124 -0.0792 -0.2620
  523MOL0     C70516   2.600   9.352   5.689  0.5145  0.1905  0.4404
  523MOL0     C70517   2.591   9.371   5.547  0.1306 -0.5387  0.6145
  523MOL0     O70518   2.613   9.693   5.367 -0.9471 -1.0273 -0.6978
  523MOL0     C70519   2.575   9.755   5.111  1.0166  0.1359 -0.0876
  523MOL0     C70520   2.564   9.785   4.973  0.0859 -0.8456  0.2494
  523MOL0     N70521   2.990   9.475   4.601  1.0201 -0.3675 -0.4615
  523MOL0     N70522   3.024   9.388   4.523 -0.3777 -0.3466  0.0530
  523MOL0     C70523   3.986   9.611   4.454  0.2779 -0.2665 -0.0646
  523MOL0     C70524   4.008   9.739   4.511  0.0323  1.3421  0.1298
  523MOL0     C70525   4.045  10.132   4.646  0.4539 -0.2049 -1.1304
  523MOL0     C70526   4.049  10.247   4.572 -0.2351  0.1863 -0.3275
  523MOL0     C70527   4.128  10.357   4.615  0.2111  1.0997  0.7957
  523MOL0     C70528   4.207  10.346   4.731  0.6459 -0.2294 -0.4174
  523MOL0     O70529   4.283  10.443   4.787 -0.5837 -0.1502  0.6761
  523MOL0     C70530   4.295  10.583   4.748  0.6242 -0.1821 -0.0645
  523MOL0     C70531   4.165  10.662   4.751  0.1779 -0.0620 -0.6426
  523MOL0     C70532   4.115  10.678   4.895 -0.1352 -0.6932 -0.3837
  523MOL0     C70533   3.964  10.731   4.914 -0.4424  1.0849  0.9475
  523MOL0     C70534   3.912  10.750   5.057  0.1521 -0.2657  0.4300
  523MOL0     C70535   3.871  10.776   5.163  1.0061 -0.1243 -0.3776
  523MOL0     C70536   4.205  10.233   4.806 -1.3809 -0.8179  0.3390
  523MOL0     C70537   4.129  10.125   4.761 -0.1012 -0.3018 -0.8235
  523MOL0     H70538   3.748   9.759   4.734 -3.7416 -3.8443 -1.0827
  523MOL0     H70539   3.695   9.542   4.605 -2.3722  1.9247  0.3097
  523MOL0     H70540   3.842   9.285   4.572 -1.6302 -3.2598  1.4445
  523MOL0     H70541   3.682   9.345   4.554  0.6128 -1.6322 -0.2705
  523MOL0     H70542   3.811   9.186   4.337 -2.6029  0.4841 -5.1365
  523MOL0     H70543   3.703   9.116   4.471  5.4969 -1.7483  0.1580
  523MOL0     H70544   3.649   9.354   4.293  2.5670  0.4612 -0.2410
  523MOL0     H70545   3.613   9.190   4.231 -0.3658 -0.7144  0.9602
  523MOL0     H70546   3.486   9.153   4.457  1.5406  3.5599  6.2819
  523MOL0     H70547   3.488   9.318   4.484  0.0294  1.8307 -0.1952
  523MOL0     H70548   3.370   9.217   4.225 -0.4953 -0.8815  0.5506
  523MOL0     H70549   3.271   9.238   4.363 -0.0656  0.1178  0.1200
  523MOL0     H70550   3.312   9.490   4.359  0.1378 -0.2870 -0.4241
  523MOL0     H70551   3.406   9.468   4.204  1.5760 -2.0535 -1.1205
  523MOL0     H70552   3.173   9.515   4.152  0.7408  0.2179  1.9648
  523MOL0     H70553   3.208   9.339   4.125 -3.9442 -1.2200  0.6380
  523MOL0     H70554   3.087   9.270   4.309 -0.1793 -0.5174 -0.3422
  523MOL0     H70555   2.969   9.375   4.229 -0.7091 -3.1811 -0.5042
  523MOL0     H70556   3.063   9.665   4.347 -1.2088 -0.2422  0.2734
  523MOL0     H70557   2.993   9.752   4.716  1.0899  2.2445 -0.3499
  523MOL0     H70558   2.979   9.818   4.558 -1.4353  0.8262 -0.3885
  523MOL0     H70559   2.761   9.652   4.691  1.2140  1.3987  2.2783
  523MOL0     H70560   2.757   9.728   4.521 -1.3230  4.3489  0.2646
  523MOL0     H70561   2.779   9.944   4.644  4.2217 -1.1153  2.7830
  523MOL0     H70562   2.781   9.862   4.788  0.7337  0.1075  0.4091
  523MOL0     H70563   2.549   9.860   4.576  4.5545  3.3306 -1.1829
  523MOL0     H70564   2.541   9.930   4.736  2.6479  2.9970 -2.9322
  523MOL0     H70565   2.529   9.479   4.854 -1.2280  0.8477  0.0492
  523MOL0     H70566   2.432   9.378   5.181 -1.7849  1.1551 -0.8848
  523MOL0     H70567   2.481   9.312   5.024  0.9826 -1.7073  1.3361
  523MOL0     H70568   2.600   9.331   5.156 -0.7259  0.3152  0.6132
  523MOL0     H70569   2.369   9.618   5.545 -3.2294 -2.3316 -0.7614
  523MOL0     H70570   2.411   9.607   5.804  1.5791 -1.6804  1.8429
  523MOL0     H70571   2.550   9.581   6.026 -0.6482 -0.2488  0.4972
  523MOL0     H70572   2.394   9.491   5.997 -1.1832 -3.3907  1.8415
  523MOL0     H70573   2.523   9.293   6.119  3.8828 -1.1684  3.2989
  523MOL0     H70574   2.612   9.416   6.190 -2.0467 -0.5650  3.2125
  523MOL0     H70575   2.303   9.406   6.197 -0.8178  2.1422  2.0014
  523MOL0     H70576   2.402   9.496   6.312  0.4789 -1.9305  1.4535
  523MOL0     H70577   2.296   9.307   6.401  0.4848  0.9153  0.4085
  523MOL0     H70578   2.378   9.199   6.306 -1.4540  0.1340  0.9796
  523MOL0     H70579   2.603   9.254   6.388 -1.0405 -3.1083  0.1135
  523MOL0     H70580   2.491   9.197   6.508  0.5410 -2.4197 -2.3699
  523MOL0     H70581   2.566   9.483   6.450 -0.9222 -3.1268 -3.7906
  523MOL0     H70582   2.447   9.439   6.570  1.5392  1.5110  1.3032
  523MOL0     H70583   2.598   9.334   6.717 -1.3160  1.1454 -0.7796
  523MOL0     H70584   2.609   9.493   6.698 -2.5252 -2.4733  4.1129
  523MOL0     H70585   2.822   9.466   6.563 -0.9877  0.9101 -1.3926
  523MOL0     H70586   2.791   9.286   6.548 -1.1863 -0.5597 -1.3188
  523MOL0     H70587   2.656   9.267   5.727 -1.1960 -2.0927 -1.7228
  523MOL0     H70588   2.635   9.298   5.479  1.0960 -0.4796  1.1498
  523MOL0     H70589   2.566   9.837   5.182 -0.2746  1.8837 -2.1306
  523MOL0     H70590   2.574   9.890   4.947 -0.9647 -1.0816 -1.2619
  523MOL0     H70591   4.052   9.565   4.381  0.0588 -0.3809 -0.1927
  523MOL0     H70592   4.091   9.797   4.471  2.4474 -0.7259  1.8680
  523MOL0     H70593   3.985  10.246   4.485  0.1004 -0.3686 -0.5739
  523MOL0     H70594   4.128  10.445   4.551  0.1161 -1.0103 -2.3213
  523MOL0     H70595   4.369  10.632   4.811 -0.7209  1.0760  0.5961
  523MOL0     H70596   4.321  10.589   4.642  0.7643 -3.1857 -0.2874
  523MOL0     H70597   4.092  10.597   4.700  1.6897 -2.3047 -0.0803
  523MOL0     H70598   4.173  10.758   4.700 -1.6014  0.0583 -0.7811
  523MOL0     H70599   4.175  10.756   4.942 -2.7689  2.0680 -1.2655
  523MOL0     H70600   4.113  10.577   4.937 -2.0727 -0.9706 -1.0267
  523MOL0     H70601   3.903  10.656   4.861 -0.2094 -0.2869  2.5397
  523MOL0     H70602   3.956  10.828   4.865 -0.6418  2.1424  2.9578
  523MOL0     H70603   3.838  10.812   5.259 -1.7400 -1.2445 -0.8251
  523MOL0     H70604   4.257  10.238   4.901 -1.1892 -2.1557  0.3265
  523MOL0     H70605   4.129  10.040   4.829  0.9209 -0.0679 -0.5044
  524MOL0     O70606   1.242   6.222   8.501  0.5002  0.9285  0.6087
  524MOL0     C70607   1.285   6.202   8.618  0.4834 -0.6382 -0.2451
  524MOL0     O70608   1.213   6.187   8.729  0.0548 -0.2204 -0.1857
  524MOL0     C70609   1.084   6.160   8.732 -0.0298 -0.3241 -1.3245
  524MOL0     C70610   1.038   6.083   8.843  1.7452  0.8186  0.5635
  524MOL0     C70611   0.900   6.052   8.860 -0.1194  0.0442  0.2920
  524MOL0     C70612   0.800   6.118   8.788  0.7214 -0.2830  0.2622
  524MOL0     O70613   0.664   6.107   8.816 -0.1013  0.4751 -0.8646
  524MOL0     C70614   0.619   6.219   8.880 -0.5606 -0.3922 -0.5162
  524MOL0     C70615   0.487   6.181   8.961  0.5385 -0.5834  0.3652
  524MOL0     C70616   0.499   6.059   9.060 -1.5522 -0.1081  0.4419
  524MOL0     C70617   0.370   6.009   9.106  0.4090 -0.2829 -0.7070
  524MOL0     C70618   0.372   5.882   9.197  0.0126 -0.6781 -0.4336
  524MOL0     C70619   0.237   5.857   9.269 -0.9225 -0.7596 -0.1034
  524MOL0     C70620   0.251   5.790   9.411 -0.1208 -0.8383  0.1641
  524MOL0     C70621   0.108   5.771   9.468 -0.2881 -0.0899 -0.5061
  524MOL0     N70622   0.038   5.887   9.520 -0.0175  0.0225  0.2773
  524MOL0     C70623  -0.098   5.899   9.479 -0.2927  0.3516  0.7434
  524MOL0     C70624  -0.147   5.990   9.555 -0.0740  0.4551  0.9635
  524MOL0     C70625  -0.286   6.029   9.538 -0.4328 -0.2639  0.2937
  524MOL0     C70626  -0.359   5.999   9.667 -0.4762  1.0231 -0.0466
  524MOL0     C70627  -0.512   5.999   9.647 -0.1691  0.1120 -0.4930
  524MOL0     C70628  -0.575   6.086   9.539 -0.2950 -0.1331 -0.9900
  524MOL0     O70629  -0.718   6.099   9.567 -0.5979  1.1069 -0.2178
  524MOL0     C70630  -0.770   6.183   9.660  0.1309  0.1248  0.1499
  524MOL0     C70631  -0.900   6.184   9.659  0.2151 -0.2464  0.1734
  524MOL0     C70632  -0.973   6.270   9.750  0.4099 -0.2536  0.6411
  524MOL0     C70633  -1.124   6.257   9.747 -1.0555  0.6037 -1.1163
  524MOL0     C70634  -0.888   6.355   9.832  0.0645  0.5004  0.4493
  524MOL0     C70635  -0.944   6.443   9.925 -0.0049  0.0930  0.2524
  524MOL0     O70636  -1.022   6.551   9.883 -0.1589 -0.0479 -0.2182
  524MOL0     C70637  -1.065   6.644   9.972  0.0622 -0.1413 -0.3188
  524MOL0     C70638  -0.989   6.711  10.068  0.0286  0.5598  0.7939
  524MOL0     C70639  -1.051   6.785  10.155  0.4377  0.5385 -0.4685
  524MOL0     C70640  -1.189   6.788  10.172 -0.0700 -0.3677  0.3129
  524MOL0     O70641  -1.251   6.864  10.268  0.3610 -0.9625 -0.1349
  524MOL0     C70642  -1.184   6.917  10.389  1.6206  0.1178  1.0025
  524MOL0     C70643  -1.283   7.013  10.459 -0.2015  0.3472 -1.4299
  524MOL0     C70644  -1.227   7.037  10.605 -0.3417 -0.0272  0.9507
  524MOL0     C70645  -1.221   6.920  10.698 -0.5454 -0.0202 -1.4231
  524MOL0     C70646  -1.193   6.961  10.844 -0.3287  1.2704  0.4832
  524MOL0     C70647  -1.292   6.905  10.950 -0.1247  0.5177 -0.0705
  524MOL0     C70648  -1.218   6.898  11.084 -1.1852 -0.8388 -0.0868
  524MOL0     C70649  -1.281   6.788  11.162 -0.2750  0.5101 -0.1175
  524MOL0    Cl70650  -1.234   6.790  11.338 -0.1318  0.3096  0.3178
  524MOL0     C70651  -1.262   6.725  10.075  0.3963  0.3277 -0.9489
  524MOL0     C70652  -1.205   6.652   9.972  0.8387  0.5766  0.4036
  524MOL0     O70653  -0.915   6.430  10.038 -1.5379 -1.0658 -0.8164
  524MOL0     C70654  -0.751   6.365   9.819 -0.5876 -0.3950  0.0305
  524MOL0     C70655  -0.689   6.267   9.741  0.4903  0.2483 -0.3091
  524MOL0     N70656  -0.056   6.029   9.654 -0.3486 -0.5564  0.6583
  524MOL0     N70657   0.056   5.970   9.621 -0.6409  0.1914 -0.5566
  524MOL0     C70658   0.844   6.216   8.697  0.7036 -0.6018 -0.0553
  524MOL0     C70659   0.983   6.239   8.658  0.0374  0.2131 -0.0662
  524MOL0     C70660   1.431   6.177   8.635 -0.0709 -0.1539 -0.6861
  524MOL0     C70661   1.476   6.134   8.758 -0.3458  0.5472  0.7814
  524MOL0     C70662   1.610   6.112   8.778 -0.3020  0.2206  0.4487
  524MOL0     C70663   1.710   6.118   8.673  0.7597  0.2128  0.2726
  524MOL0     O70664   1.844   6.127   8.707 -0.4726  0.0163  0.8226
  524MOL0     C70665   1.953   6.155   8.612  0.5457 -0.1596 -0.0831
  524MOL0     C70666   2.011   6.030   8.549  0.0679  0.1558  0.8485
  524MOL0     C70667   2.146   6.064   8.475 -0.1130 -0.5332  1.0538
  524MOL0     C70668   2.166   5.969   8.359 -0.0904 -0.5293 -0.9916
  524MOL0     C70669   2.194   5.824   8.390 -0.0187 -0.4425  0.9552
  524MOL0     C70670   2.233   5.710   8.395  0.7429 -0.3289  0.9079
  524MOL0     C70671   1.654   6.127   8.537 -0.7191 -0.6144 -0.7678
  524MOL0     C70672   1.521   6.168   8.521 -0.1512  0.1626 -0.4982
  524MOL0     H70673   1.107   6.037   8.913 -1.2639 -0.4522  2.9480
  524MOL0     H70674   0.871   5.996   8.948 -2.4184  1.8690  0.7837
  524MOL0     H70675   0.692   6.254   8.953 -0.9401 -2.1551  0.7526
  524MOL0     H70676   0.595   6.304   8.814 -3.4543 -2.5191 -2.4722
  524MOL0     H70677   0.453   6.265   9.023  0.6975 -1.2096  1.3357
  524MOL0     H70678   0.415   6.142   8.888  2.7555 -2.8311 -0.7815
  524MOL0     H70679   0.552   5.975   9.013  3.0041  2.9147 -0.5423
  524MOL0     H70680   0.560   6.077   9.149 -0.1533  1.5067 -0.7721
  524MOL0     H70681   0.320   6.088   9.163  0.7788 -0.0873 -0.6570
  524MOL0     H70682   0.314   5.992   9.013  3.3010 -1.5543 -2.3262
  524MOL0     H70683   0.402   5.807   9.124  2.0076 -1.2825  0.9140
  524MOL0     H70684   0.461   5.891   9.260  2.2981 -4.6824 -2.6398
  524MOL0     H70685   0.204   5.961   9.282  2.0379  0.2065  0.3535
  524MOL0     H70686   0.177   5.811   9.190 -0.5028  2.0667 -2.2727
  524MOL0     H70687   0.294   5.690   9.394  1.0078 -0.0994 -1.6993
  524MOL0     H70688   0.301   5.857   9.481 -1.4271 -1.7640  2.0786
  524MOL0     H70689   0.121   5.688   9.538  1.9053  2.3583  2.2546
  524MOL0     H70690   0.047   5.728   9.388 -3.1724  0.5908  1.1741
  524MOL0     H70691  -0.156   5.832   9.416 -3.9319 -0.1215  4.2059
  524MOL0     H70692  -0.298   6.135   9.515 -3.7773 -1.0629 -2.2977
  524MOL0     H70693  -0.329   5.967   9.459  0.5547  1.9795 -2.1652
  524MOL0     H70694  -0.327   6.064   9.748  2.7712 -1.9565  1.3172
  524MOL0     H70695  -0.332   5.901   9.708  0.7023  0.6070 -1.7140
  524MOL0     H70696  -0.562   6.032   9.738  3.9956  2.1098  1.3565
  524MOL0     H70697  -0.534   5.894   9.626 -0.3679  0.6413 -3.2169
  524MOL0     H70698  -0.562   6.039   9.441 -0.4417  1.1751 -1.6607
  524MOL0     H70699  -0.529   6.186   9.532  2.6628 -1.2717  0.2868
  524MOL0     H70700  -0.952   6.119   9.590 -1.8860  1.8000 -0.2913
  524MOL0     H70701  -1.178   6.248   9.653  0.3443  0.8878 -1.9709
  524MOL0     H70702  -1.152   6.176   9.815  3.2381 -0.6467 -0.5357
  524MOL0     H70703  -1.163   6.352   9.787 -0.3597  0.6411 -0.5066
  524MOL0     H70704  -0.881   6.709  10.069  0.0773  2.0202  2.5223
  524MOL0     H70705  -1.004   6.843  10.234 -1.5592  0.3914  0.9104
  524MOL0     H70706  -1.189   6.824  10.447 -2.8575 -1.8304 -1.9357
  524MOL0     H70707  -1.083   6.959  10.382  1.1824  2.0829  4.4175
  524MOL0     H70708  -1.301   7.111  10.413 -1.2662  1.2134  0.6408
  524MOL0     H70709  -1.371   6.951  10.475  0.9789 -0.6257  2.2333
  524MOL0     H70710  -1.281   7.120  10.652 -2.4307  0.5815 -2.1842
  524MOL0     H70711  -1.123   7.065  10.586 -1.4073  3.5881 -0.4763
  524MOL0     H70712  -1.313   6.860  10.697 -2.1334  2.0396  2.6414
  524MOL0     H70713  -1.136   6.860  10.662  0.4186  0.6315 -0.2841
  524MOL0     H70714  -1.199   7.070  10.849 -2.0783  1.3344 -1.4878
  524MOL0     H70715  -1.094   6.918  10.862 -1.3903 -2.0791 -0.8588
  524MOL0     H70716  -1.370   6.981  10.948 -0.2162  0.4107 -1.1818
  524MOL0     H70717  -1.335   6.807  10.928  0.3371  0.4304 -0.6032
  524MOL0     H70718  -1.229   6.999  11.124 -1.5407 -0.5954 -0.7970
  524MOL0     H70719  -1.110   6.881  11.081 -1.6213 -4.0881 -1.8155
  524MOL0     H70720  -1.267   6.689  11.118 -1.9837  1.2724 -2.5999
  524MOL0     H70721  -1.390   6.804  11.162 -0.5773 -1.3176 -0.5929
  524MOL0     H70722  -1.369   6.739  10.081  0.4028  1.4561 -2.8245
  524MOL0     H70723  -1.271   6.601   9.904  1.6756  0.9005 -0.6753
  524MOL0     H70724  -0.692   6.437   9.874  0.9112 -3.8525  3.3688
  524MOL0     H70725  -0.581   6.272   9.739  0.5177  0.1109  0.5177
  524MOL0     H70726   0.776   6.280   8.641  1.9695 -0.3894 -1.3827
  524MOL0     H70727   1.023   6.306   8.582 -1.3386  0.2370 -0.7939
  524MOL0     H70728   1.413   6.118   8.845 -0.2084 -0.8333  0.6594
  524MOL0     H70729   1.654   6.103   8.877  3.6113 -2.2792 -1.2591
  524MOL0     H70730   1.926   6.228   8.536  0.9893 -0.4759 -0.5570
  524MOL0     H70731   2.028   6.196   8.681  0.7744  1.8827 -1.4633
  524MOL0     H70732   1.933   5.994   8.481  0.0211  0.6137  0.6606
  524MOL0     H70733   2.025   5.944   8.615  0.3984 -0.1409  0.4045
  524MOL0     H70734   2.243   6.058   8.525  0.1036  0.5984  0.7944
  524MOL0     H70735   2.126   6.161   8.429 -0.7081 -1.3088 -0.3761
  524MOL0     H70736   2.236   6.020   8.292 -1.9955 -0.6145 -3.1541
  524MOL0     H70737   2.072   5.975   8.303 -0.1352  0.7880 -0.8130
  524MOL0     H70738   2.289   5.619   8.386 -1.1936 -1.3877 -0.9836
  524MOL0     H70739   1.726   6.118   8.456  2.1950 -3.0704  1.7977
  524MOL0     H70740   1.471   6.181   8.425 -0.0335 -1.2019 -0.7602
  525MOL0     O70741  10.887  11.288   2.209  0.2140  0.5523 -0.4936
  525MOL0     C70742  10.972  11.270   2.297 -0.3622 -0.0798 -0.1539
  525MOL0     O70743  11.099  11.325   2.303  0.3155  0.1785  0.1230
  525MOL0     C70744  11.151  11.415   2.211  0.4496 -0.4028 -0.0231
  525MOL0     C70745  11.269  11.458   2.242  0.4869 -0.0313  0.3170
  525MOL0     C70746  11.338  11.560   2.166  0.3096  0.1801  0.2268
  525MOL0     C70747  11.279  11.601   2.039 -0.7746  0.1158 -0.5039
  525MOL0     O70748  11.344  11.686   1.946  0.0477 -0.0792 -0.0731
  525MOL0     C70749  11.485  11.719   1.966  0.5421 -0.2011  0.6871
  525MOL0     C70750  11.538  11.843   1.876 -0.0178  0.5239  0.5694
  525MOL0     C70751  11.673  11.907   1.926  0.2361 -0.5991  0.4603
  525MOL0     C70752  11.707  12.003   1.814  0.3908  0.4674 -0.5599
  525MOL0     C70753  11.831  12.086   1.845  0.2070 -0.0271 -0.4293
  525MOL0     C70754  11.947  11.993   1.895  0.9306  0.1451  0.6264
  525MOL0     C70755  12.072  12.075   1.884 -0.8663  0.2165  0.6073
  525MOL0     C70756  12.193  11.982   1.904 -0.0258  0.1236  0.3680
  525MOL0     N70757  12.194  11.912   2.032 -0.1880  0.1087 -1.1800
  525MOL0     C70758  12.285  11.947   2.138  0.7332  0.4114  0.2534
  525MOL0     C70759  12.294  11.833   2.204 -0.4744 -1.0130 -0.1937
  525MOL0     C70760  12.412  11.815   2.297  0.2539 -0.5778  0.0253
  525MOL0     C70761  12.378  11.710   2.413  0.4992  0.3672 -0.6110
  525MOL0     C70762  12.470  11.723   2.534 -1.0980  0.3562  0.1935
  525MOL0     C70763  12.426  11.608   2.626 -0.4205  0.1498  0.1318
  525MOL0     O70764  12.534  11.601   2.720 -1.1706  0.9211 -0.2088
  525MOL0     C70765  12.519  11.501   2.814  0.6392 -0.0028  0.4489
  525MOL0     C70766  12.611  11.496   2.917 -0.6878 -0.2081  0.2465
  525MOL0     C70767  12.615  11.414   3.025 -0.8603  0.3349 -0.1762
  525MOL0     C70768  12.739  11.426   3.109 -0.2422 -0.1649 -0.5438
  525MOL0     C70769  12.507  11.327   3.033  0.6398  0.4799  0.0977
  525MOL0     C70770  12.490  11.236   3.151  0.2170  0.3936 -0.1911
  525MOL0     O70771  12.401  11.139   3.140  0.0950 -0.8169 -0.1164
  525MOL0     C70772  12.417  11.046   3.231  0.3719 -0.9426 -0.3364
  525MOL0     C70773  12.507  10.943   3.219 -1.1292 -0.4393  0.6290
  525MOL0     C70774  12.512  10.840   3.312  0.9265 -0.3314 -1.2384
  525MOL0     C70775  12.438  10.851   3.433 -0.1725 -0.1005 -0.0411
  525MOL0     O70776  12.458  10.764   3.541 -0.2744  0.4801  0.2536
  525MOL0     C70777  12.418  10.807   3.664 -0.1314  0.5605 -0.5635
  525MOL0     C70778  12.451  10.700   3.771  0.2707 -0.5525  0.0645
  525MOL0     C70779  12.603  10.688   3.793  0.2876  0.0426  0.0423
  525MOL0     C70780  12.613  10.588   3.915  0.3625 -0.0243  0.3403
  525MOL0     C70781  12.747  10.525   3.912 -0.2605 -1.1643 -0.0894
  525MOL0     C70782  12.769  10.434   4.038  0.1472  0.9641  0.1637
  525MOL0     C70783  12.891  10.340   4.033  0.6261 -0.0278 -0.0557
  525MOL0     C70784  12.894  10.256   4.161  0.4170 -0.3489  0.2369
  525MOL0    Cl70785  12.944  10.347   4.314  0.6876  0.2664 -0.0362
  525MOL0     C70786  12.344  10.953   3.442  0.4605  0.4619 -0.0068
  525MOL0     C70787  12.338  11.049   3.349  0.4738 -0.7883 -0.0813
  525MOL0     O70788  12.554  11.258   3.254 -0.2427  0.4396 -0.4364
  525MOL0     C70789  12.406  11.323   2.936  0.4015 -0.2742 -0.3235
  525MOL0     C70790  12.411  11.406   2.820 -0.0889  0.0919  0.2794
  525MOL0     N70791  12.192  11.750   2.170 -0.3554  0.5756 -0.3726
  525MOL0     N70792  12.136  11.790   2.059 -0.6390 -0.5517 -0.6375
  525MOL0     C70793  11.154  11.545   2.008  0.2407 -0.6529 -0.6260
  525MOL0     C70794  11.085  11.450   2.094 -0.8518 -0.2789 -1.0693
  525MOL0     C70795  10.946  11.171   2.399 -0.0612  0.6784  0.6655
  525MOL0     C70796  11.042  11.143   2.509  0.5231  0.4384 -0.8441
  525MOL0     C70797  11.016  11.026   2.587  0.3240  0.2350 -0.1807
  525MOL0     C70798  10.913  10.937   2.556  1.1543 -0.5093  0.0703
  525MOL0     O70799  10.883  10.839   2.647  0.3415 -0.0479 -0.3871
  525MOL0     C70800  10.766  10.753   2.642  0.8666  0.4186  0.5356
  525MOL0     C70801  10.771  10.634   2.545  0.5430  0.2064  0.0682
  525MOL0     C70802  10.655  10.527   2.589  0.1202 -0.1517  0.6579
  525MOL0     C70803  10.628  10.438   2.466 -0.9472  0.3342 -0.0747
  525MOL0     C70804  10.530  10.327   2.488 -0.4758 -0.0191  0.1302
  525MOL0     C70805  10.471  10.227   2.517  0.4263  0.5345  0.5552
  525MOL0     C70806  10.822  10.967   2.446 -0.7267  0.4714 -0.4096
  525MOL0     C70807  10.839  11.079   2.372  0.2883  0.3838  1.3163
  525MOL0     H70808  11.310  11.429   2.338  3.8603  0.8346 -0.7210
  525MOL0     H70809  11.436  11.589   2.205 -0.2835  1.5430  0.7856
  525MOL0     H70810  11.507  11.734   2.072 -0.6947  0.0570  0.9176
  525MOL0     H70811  11.556  11.641   1.938  0.3712 -0.8354  1.9439
  525MOL0     H70812  11.567  11.811   1.776 -0.4758 -0.4469  0.7349
  525MOL0     H70813  11.452  11.911   1.873 -0.5833 -0.1442 -3.0928
  525MOL0     H70814  11.649  11.957   2.021  0.3398 -0.9627  0.6775
  525MOL0     H70815  11.748  11.833   1.953 -1.9979 -2.9408  0.6471
  525MOL0     H70816  11.739  11.951   1.723  0.1517  0.8977 -0.8936
  525MOL0     H70817  11.619  12.064   1.795 -0.5072  0.1953  2.3059
  525MOL0     H70818  11.861  12.120   1.745  3.8265 -2.7710 -0.4724
  525MOL0     H70819  11.809  12.165   1.917 -1.1064 -2.1848  1.7086
  525MOL0     H70820  11.926  11.962   1.998  1.8107 -2.0338  0.2016
  525MOL0     H70821  11.948  11.905   1.831  0.3166 -0.7615  1.8259
  525MOL0     H70822  12.078  12.128   1.789 -0.8484  0.0298  0.5064
  525MOL0     H70823  12.080  12.148   1.966  2.1065 -0.0321  0.6369
  525MOL0     H70824  12.288  12.036   1.901  2.4626 -3.8778  0.7139
  525MOL0     H70825  12.192  11.910   1.823 -1.9471 -1.1551  1.4371
  525MOL0     H70826  12.355  12.029   2.126 -0.3441  1.3975  0.5666
  525MOL0     H70827  12.497  11.776   2.241 -2.0035 -1.6726 -2.9250
  525MOL0     H70828  12.435  11.913   2.339 -1.5057  2.0281 -4.3816
  525MOL0     H70829  12.401  11.610   2.373  2.0991  0.3528  0.2990
  525MOL0     H70830  12.274  11.718   2.446  0.8766  0.6336  0.5493
  525MOL0     H70831  12.449  11.823   2.574  0.5336  1.0490 -0.5598
  525MOL0     H70832  12.576  11.713   2.506 -0.4484  2.1756  1.7683
  525MOL0     H70833  12.406  11.516   2.571  0.3275 -1.8269  2.9283
  525MOL0     H70834  12.330  11.631   2.675  1.8978 -0.3313  5.6037
  525MOL0     H70835  12.694  11.566   2.911 -2.4365  1.9442 -0.1550
  525MOL0     H70836  12.712  11.448   3.213  0.5445  2.3816 -0.8053
  525MOL0     H70837  12.793  11.332   3.118 -1.2947 -0.6264  2.0469
  525MOL0     H70838  12.811  11.498   3.070  1.0426 -0.3330  1.3873
  525MOL0     H70839  12.577  10.941   3.136  0.6387  0.7364  1.9924
  525MOL0     H70840  12.588  10.765   3.292  1.6792  0.2402 -0.5370
  525MOL0     H70841  12.486  10.890   3.683 -1.6579  1.8297 -0.4234
  525MOL0     H70842  12.310  10.825   3.669 -1.0207 -3.2991 -1.8405
  525MOL0     H70843  12.403  10.736   3.863 -0.9506  0.0069 -0.7728
  525MOL0     H70844  12.411  10.605   3.738 -0.0255 -0.5489  0.4038
  525MOL0     H70845  12.641  10.785   3.826  0.8622 -0.4414  0.8674
  525MOL0     H70846  12.661  10.656   3.706 -0.1904 -2.7142  0.6321
  525MOL0     H70847  12.603  10.659   3.998 -1.9330  2.0191 -1.5352
  525MOL0     H70848  12.536  10.510   3.912  2.1310 -1.8700  0.7633
  525MOL0     H70849  12.835  10.591   3.907 -1.0215 -0.2072 -3.6251
  525MOL0     H70850  12.756  10.470   3.818 -0.1158 -0.3634 -0.5556
  525MOL0     H70851  12.781  10.492   4.130  0.3754  0.1085  0.6877
  525MOL0     H70852  12.671  10.387   4.051 -0.2071  1.5397 -0.4141
  525MOL0     H70853  12.981  10.402   4.032 -0.2361  1.2878  0.5710
  525MOL0     H70854  12.897  10.283   3.940  4.6799 -0.1611  0.1094
  525MOL0     H70855  12.983  10.193   4.156  0.9614  0.4806 -1.2495
  525MOL0     H70856  12.810  10.187   4.170  1.8907 -2.3138 -0.3168
  525MOL0     H70857  12.256  10.958   3.505 -1.0947  0.0576 -2.0490
  525MOL0     H70858  12.267  11.131   3.350  0.1876 -0.8965 -2.7242
  525MOL0     H70859  12.324  11.253   2.952 -0.1789  0.1197 -1.4341
  525MOL0     H70860  12.332  11.392   2.747  1.9167  1.1530 -2.2467
  525MOL0     H70861  11.120  11.574   1.909  4.0393 -1.5796 -2.3870
  525MOL0     H70862  10.988  11.424   2.053 -0.0113 -3.2250 -1.4128
  525MOL0     H70863  11.126  11.207   2.535  1.2459 -1.7612  3.1574
  525MOL0     H70864  11.080  10.990   2.668 -0.3857 -3.9732 -1.2367
  525MOL0     H70865  10.742  10.720   2.744  1.2680 -1.8211 -0.0528
  525MOL0     H70866  10.678  10.809   2.607 -0.6797 -2.9885 -1.4488
  525MOL0     H70867  10.871  10.590   2.547  0.0075 -1.0256  0.4509
  525MOL0     H70868  10.763  10.659   2.438 -0.4801  1.3793  0.3948
  525MOL0     H70869  10.558  10.568   2.620 -1.2486 -0.9403 -2.2332
  525MOL0     H70870  10.684  10.463   2.672  5.2591  0.0618 -0.6574
  525MOL0     H70871  10.722  10.397   2.428 -3.0085 -1.1422 -4.2833
  525MOL0     H70872  10.601  10.501   2.380  0.8775  3.3180  1.3441
  525MOL0     H70873  10.425  10.132   2.537 -0.8425  1.2109  0.9572
  525MOL0     H70874  10.740  10.904   2.413  0.1611 -1.0141  0.1297
  525MOL0     H70875  10.785  11.093   2.279  0.1520  1.6493  1.5689
  526MOL0     O70876   2.817   3.698   2.737  0.3290 -0.3760  0.1914
  526MOL0     C70877   2.876   3.762   2.820 -1.0242 -0.4755 -0.3857
  526MOL0     O70878   2.868   3.739   2.952 -0.0337 -0.3348 -0.2026
  526MOL0     C70879   2.802   3.623   2.990  0.0362  0.1630  0.3043
  526MOL0     C70880   2.827   3.494   2.945 -0.1636  0.3263 -0.8463
  526MOL0     C70881   2.761   3.382   2.996 -0.1864  0.2155 -0.2215
  526MOL0     C70882   2.662   3.397   3.097 -0.6610 -0.7712 -0.0349
  526MOL0     O70883   2.602   3.287   3.152 -0.1911  0.0897  0.1602
  526MOL0     C70884   2.516   3.295   3.264 -0.0945  0.2952 -0.5357
  526MOL0     C70885   2.530   3.164   3.324  1.1106  0.1652 -0.3410
  526MOL0     C70886   2.409   3.065   3.311 -0.1117  0.1503 -0.5349
  526MOL0     C70887   2.403   3.015   3.162 -0.0636 -0.5449  0.1817
  526MOL0     C70888   2.313   2.888   3.146 -0.3014 -0.0603  0.3020
  526MOL0     C70889   2.303   2.836   3.008 -0.2455 -0.0645  0.4577
  526MOL0     C70890   2.203   2.714   3.005 -0.0139  0.6639 -0.1199
  526MOL0     C70891   2.209   2.633   2.873  0.2374 -0.2810 -0.0989
  526MOL0     N70892   2.102   2.533   2.866  0.2888 -0.4113  0.3709
  526MOL0     C70893   2.058   2.444   2.964 -0.4301 -0.6224 -0.7077
  526MOL0     C70894   2.014   2.336   2.895 -0.7501 -0.6984  0.0905
  526MOL0     C70895   1.933   2.225   2.949 -0.1212  0.3545  0.6938
  526MOL0     C70896   2.014   2.087   2.957 -0.6766  0.2119 -1.1154
  526MOL0     C70897   1.986   1.992   2.841  0.1316  0.4669  1.2898
  526MOL0     C70898   2.052   1.845   2.851 -0.1167 -0.7391 -0.1099
  526MOL0     O70899   2.018   1.787   2.982  0.2061 -1.0157  0.3253
  526MOL0     C70900   2.122   1.720   3.038  0.0913 -0.6577 -0.2373
  526MOL0     C70901   2.177   1.766   3.157 -1.3027 -0.0447  0.1665
  526MOL0     C70902   2.285   1.693   3.210  0.3429 -0.6068 -0.0672
  526MOL0     C70903   2.355   1.765   3.331  0.0868  0.3445 -0.3322
  526MOL0     C70904   2.320   1.564   3.164  0.0834  1.0951  0.3439
  526MOL0     C70905   2.410   1.475   3.234 -0.8244 -0.4535  1.1053
  526MOL0     O70906   2.439   1.360   3.171 -0.7156 -0.2354 -0.2221
  526MOL0     C70907   2.525   1.264   3.218  0.6643  0.7038  1.0392
  526MOL0     C70908   2.663   1.265   3.240  0.1657  0.1404 -0.6032
  526MOL0     C70909   2.735   1.149   3.277  0.6488 -0.1127 -0.3143
  526MOL0     C70910   2.682   1.022   3.286 -0.5239  0.6445 -0.5210
  526MOL0     O70911   2.762   0.924   3.331 -0.3608 -0.2914 -0.0783
  526MOL0     C70912   2.731   0.785   3.301 -0.6118 -0.0194  0.4732
  526MOL0     C70913   2.861   0.711   3.257 -0.9149 -0.1933 -0.6234
  526MOL0     C70914   2.832   0.568   3.220  0.3571 -0.1400  1.0477
  526MOL0     C70915   2.781   0.505   3.351  0.1882 -0.6798 -0.5475
  526MOL0     C70916   2.821   0.366   3.374  1.0183  0.4957  0.0590
  526MOL0     C70917   2.729   0.256   3.319 -1.2902 -0.2430  1.0039
  526MOL0     C70918   2.708   0.274   3.160  0.2497  0.2929  0.0329
  526MOL0     C70919   2.724   0.138   3.091 -0.4675 -0.1744  0.4988
  526MOL0    Cl70920   2.661  -0.006   3.176  0.2141 -0.5805 -0.0454
  526MOL0     C70921   2.540   1.017   3.266 -0.1489 -1.8471 -0.6961
  526MOL0     C70922   2.469   1.128   3.213 -0.7582  0.1710  0.8539
  526MOL0     O70923   2.461   1.504   3.342 -0.3057  0.6628  0.5407
  526MOL0     C70924   2.254   1.522   3.041 -0.2935  0.7961  0.0517
  526MOL0     C70925   2.167   1.604   2.978  0.5599 -0.5501  0.6208
  526MOL0     N70926   2.020   2.374   2.756  0.7944  0.1661  0.4253
  526MOL0     N70927   2.051   2.488   2.743 -0.5966 -0.2433  0.9602
  526MOL0     C70928   2.639   3.527   3.139 -0.2415  0.6152  0.5189
  526MOL0     C70929   2.705   3.636   3.087  0.3782  0.1444  0.4731
  526MOL0     C70930   2.947   3.889   2.781 -0.0597  0.2900 -0.2996
  526MOL0     C70931   3.009   3.962   2.883  0.6747 -0.1057 -0.3012
  526MOL0     C70932   3.068   4.087   2.853 -0.2838  0.2923 -0.0981
  526MOL0     C70933   3.063   4.130   2.720  0.7598  0.4185  0.5450
  526MOL0     O70934   3.136   4.241   2.690 -0.3395 -0.0493 -0.0822
  526MOL0     C70935   3.174   4.271   2.555 -0.0876  0.6765 -1.1728
  526MOL0     C70936   3.286   4.380   2.573 -0.4557 -0.2696  0.7926
  526MOL0     C70937   3.420   4.305   2.554 -0.4733  0.2638  0.4430
  526MOL0     C70938   3.542   4.395   2.532  0.1382  0.2458  0.6374
  526MOL0     C70939   3.660   4.310   2.540 -0.6377 -0.9860  0.2164
  526MOL0     C70940   3.761   4.234   2.532  0.5158  0.8791 -0.4690
  526MOL0     C70941   2.985   4.062   2.619  0.4768 -0.1203 -0.7219
  526MOL0     C70942   2.942   3.935   2.648 -0.5264 -0.3486 -0.1276
  526MOL0     H70943   2.881   3.476   2.852 -2.5793  0.8664 -2.4672
  526MOL0     H70944   2.767   3.278   2.965 -1.1745  0.6974 -2.2045
  526MOL0     H70945   2.563   3.364   3.334 -0.1736  1.1330 -1.2907
  526MOL0     H70946   2.410   3.315   3.249 -1.1522 -0.1583  4.6793
  526MOL0     H70947   2.615   3.107   3.285  2.0289  0.2284  1.4682
  526MOL0     H70948   2.550   3.181   3.430  2.9501  1.1731 -0.8160
  526MOL0     H70949   2.434   2.986   3.382  3.3546  2.6055  1.2693
  526MOL0     H70950   2.314   3.109   3.342  1.7329  0.7402  5.4475
  526MOL0     H70951   2.357   3.096   3.105  1.0562 -0.0115  0.0136
  526MOL0     H70952   2.503   2.994   3.122 -0.1523  0.3387 -0.5362
  526MOL0     H70953   2.353   2.816   3.217  1.6249  0.4219 -0.2492
  526MOL0     H70954   2.213   2.916   3.180 -0.5186 -2.6744  2.1049
  526MOL0     H70955   2.266   2.917   2.945  4.6636  2.2846  0.0658
  526MOL0     H70956   2.403   2.809   2.972 -0.1648  0.4789  0.2611
  526MOL0     H70957   2.237   2.644   3.081 -0.3061 -1.4348 -1.8221
  526MOL0     H70958   2.099   2.749   3.006 -0.4266 -0.4950  1.8435
  526MOL0     H70959   2.299   2.572   2.873 -1.3377 -2.7530 -1.0842
  526MOL0     H70960   2.217   2.705   2.790  0.4790 -1.1799 -0.8685
  526MOL0     H70961   2.058   2.457   3.072  2.8198  1.4659 -0.8345
  526MOL0     H70962   1.906   2.255   3.050 -1.0774  0.1679  0.4985
  526MOL0     H70963   1.838   2.207   2.899  0.1126  0.5077  0.1900
  526MOL0     H70964   1.984   2.035   3.048 -3.2474  0.2607 -1.8546
  526MOL0     H70965   2.120   2.108   2.976 -1.2049  0.8025  1.5814
  526MOL0     H70966   2.011   2.050   2.751 -2.9815  0.6467  0.4232
  526MOL0     H70967   1.879   1.986   2.820 -0.1422  2.2892  2.0144
  526MOL0     H70968   2.160   1.859   2.846  0.0252 -0.5063  2.3727
  526MOL0     H70969   2.017   1.785   2.766 -1.5997  1.4278 -1.1366
  526MOL0     H70970   2.143   1.854   3.211  3.4319  0.4011  3.0284
  526MOL0     H70971   2.459   1.738   3.351 -0.1914  0.8189  2.0855
  526MOL0     H70972   2.351   1.873   3.314  1.1806  0.3321 -0.7836
  526MOL0     H70973   2.305   1.738   3.425  3.0187  0.6435  1.4504
  526MOL0     H70974   2.730   1.350   3.227  0.8653 -0.6522 -2.4748
  526MOL0     H70975   2.842   1.161   3.286  0.4741  2.9795 -1.0141
  526MOL0     H70976   2.699   0.748   3.399  1.3559  1.0065  1.5527
  526MOL0     H70977   2.645   0.767   3.236 -1.6350 -1.2594  2.0858
  526MOL0     H70978   2.921   0.750   3.175  1.0297 -0.1781  0.7388
  526MOL0     H70979   2.921   0.726   3.348  1.1537 -0.6576 -1.8637
  526MOL0     H70980   2.921   0.522   3.177  0.5698  3.3250 -2.7548
  526MOL0     H70981   2.750   0.568   3.147 -0.0200  1.8986  1.4036
  526MOL0     H70982   2.828   0.554   3.437 -1.6053 -1.2078  0.8102
  526MOL0     H70983   2.673   0.516   3.363  0.5725  2.3452  0.9603
  526MOL0     H70984   2.810   0.358   3.483 -1.6237 -2.3059 -0.3051
  526MOL0     H70985   2.924   0.344   3.345  0.8975 -2.2964  1.3757
  526MOL0     H70986   2.771   0.158   3.344 -0.4608  0.0703  0.8776
  526MOL0     H70987   2.629   0.255   3.363 -2.1760 -0.5331 -0.8980
  526MOL0     H70988   2.781   0.343   3.118  2.3129 -0.6366  1.8653
  526MOL0     H70989   2.610   0.311   3.130 -0.0015 -1.0092 -0.8455
  526MOL0     H70990   2.833   0.129   3.084 -0.6123 -1.1383 -1.0028
  526MOL0     H70991   2.682   0.150   2.990 -0.3672 -1.1343  0.3386
  526MOL0     H70992   2.486   0.927   3.294 -0.1246 -1.4096  0.8313
  526MOL0     H70993   2.364   1.110   3.195 -0.3627 -2.9748  1.1801
  526MOL0     H70994   2.281   1.424   3.003  0.1336  1.1418 -0.5733
  526MOL0     H70995   2.103   1.575   2.896 -1.4657  0.7542  1.6410
  526MOL0     H70996   2.553   3.558   3.198 -1.7709  1.3398 -1.9242
  526MOL0     H70997   2.686   3.736   3.124  1.2629  0.8118 -0.7689
  526MOL0     H70998   3.004   3.927   2.986 -0.8845  0.3729 -0.1803
  526MOL0     H70999   3.123   4.148   2.924  2.5438  0.8100 -2.5472
  526MOL0     H71000   3.220   4.187   2.504  0.6546  0.3621 -0.0182
  526MOL0     H71001   3.087   4.313   2.504  0.1977  2.2288 -0.4605
  526MOL0     H71002   3.275   4.431   2.670 -0.5836 -1.3942  1.3831
  526MOL0     H71003   3.273   4.448   2.489  4.8605  0.7199  0.3982
  526MOL0     H71004   3.411   4.235   2.471 -2.9131  3.5027 -2.2949
  526MOL0     H71005   3.445   4.256   2.649 -2.3799 -1.3629  0.1703
  526MOL0     H71006   3.548   4.478   2.603  1.8355 -0.6202  1.5825
  526MOL0     H71007   3.547   4.439   2.432  0.3509  0.7820  0.8809
  526MOL0     H71008   3.842   4.166   2.551  0.1022  0.9902  1.9943
  526MOL0     H71009   2.967   4.085   2.514  0.5235 -2.6881 -1.3572
  526MOL0     H71010   2.902   3.878   2.565 -1.3382  0.6641 -0.4512
  527MOL0     O71011   3.305   2.763   8.368 -0.4935 -0.3322 -0.0255
  527MOL0     C71012   3.243   2.686   8.441 -0.3660  0.6667 -0.8825
  527MOL0     O71013   3.205   2.551   8.411 -1.2075  0.2573  0.0625
  527MOL0     C71014   3.220   2.511   8.276 -0.1527  0.1184  0.4180
  527MOL0     C71015   3.341   2.465   8.232 -0.5331 -1.2815  0.3788
  527MOL0     C71016   3.362   2.408   8.103 -0.4357 -1.9652 -0.2481
  527MOL0     C71017   3.252   2.386   8.025 -0.6886  0.2373  0.2050
  527MOL0     O71018   3.276   2.334   7.894 -0.3888  0.3365  0.6906
  527MOL0     C71019   3.210   2.210   7.860  0.4884  0.1643 -0.6277
  527MOL0     C71020   3.275   2.142   7.743  0.2969 -0.7573 -0.5272
  527MOL0     C71021   3.429   2.142   7.763 -0.9669  0.6851  0.1122
  527MOL0     C71022   3.494   2.002   7.710  0.1094  0.9158  0.5759
  527MOL0     C71023   3.507   2.019   7.557  0.6811  0.2379 -0.3603
  527MOL0     C71024   3.584   1.897   7.515 -0.0686  0.0302 -1.0979
  527MOL0     C71025   3.575   1.892   7.364 -1.0250 -0.4634  0.4830
  527MOL0     C71026   3.657   1.768   7.306  0.5265 -0.0023 -0.5803
  527MOL0     N71027   3.606   1.645   7.380  0.4349 -0.4367  0.6944
  527MOL0     C71028   3.477   1.610   7.404  0.9665 -0.5308  0.3320
  527MOL0     C71029   3.485   1.517   7.497  0.0755  0.1459 -0.3368
  527MOL0     C71030   3.367   1.464   7.576  0.0969 -0.5564 -0.1952
  527MOL0     C71031   3.305   1.562   7.675  0.1148  0.3360  0.7800
  527MOL0     C71032   3.191   1.645   7.602 -0.5245 -0.2754 -0.6112
  527MOL0     C71033   3.139   1.753   7.703  0.4922 -0.3778 -0.6614
  527MOL0     O71034   3.028   1.820   7.631 -0.1833 -0.2054  0.3961
  527MOL0     C71035   2.941   1.880   7.714  0.4167 -0.1060  0.9844
  527MOL0     C71036   2.820   1.923   7.657 -0.8544 -0.0443  0.6474
  527MOL0     C71037   2.729   2.007   7.726 -0.3794  0.3481 -0.1458
  527MOL0     C71038   2.598   2.024   7.660 -0.2558 -0.5532  0.3241
  527MOL0     C71039   2.757   2.051   7.859  1.3316  0.3954  0.0089
  527MOL0     C71040   2.669   2.133   7.935  0.2281 -0.4873  0.1006
  527MOL0     O71041   2.536   2.130   7.921 -0.3261  0.1303 -0.1866
  527MOL0     C71042   2.458   2.230   7.971 -0.2243  0.0812  1.0962
  527MOL0     C71043   2.381   2.299   7.876  0.3550  0.7779 -0.0238
  527MOL0     C71044   2.289   2.391   7.934  1.2703  0.2650 -0.3723
  527MOL0     C71045   2.279   2.412   8.069  0.1506 -0.3078 -0.0280
  527MOL0     O71046   2.195   2.497   8.126  0.4807  1.1751 -0.3030
  527MOL0     C71047   2.252   2.632   8.145 -0.9589 -1.1294 -0.5381
  527MOL0     C71048   2.156   2.741   8.084 -0.2046  0.5463 -0.0620
  527MOL0     C71049   2.238   2.864   8.043  0.2059 -0.3274  0.1547
  527MOL0     C71050   2.154   2.963   7.963 -1.1631 -0.1169 -0.0312
  527MOL0     C71051   2.245   3.063   7.891  0.4940  0.0425 -0.7239
  527MOL0     C71052   2.344   3.141   7.990 -0.1461  0.9150  1.2714
  527MOL0     C71053   2.451   3.212   7.908  0.1247  0.0234 -0.7223
  527MOL0     C71054   2.462   3.354   7.975  0.2532  0.4277  0.2373
  527MOL0    Cl71055   2.559   3.475   7.879  0.6508  0.4336 -0.2021
  527MOL0     C71056   2.368   2.347   8.157 -0.8112 -0.3271  0.3544
  527MOL0     C71057   2.462   2.256   8.110 -1.0095 -0.6038 -0.3364
  527MOL0     O71058   2.731   2.208   8.007 -0.0524  0.1079 -0.6684
  527MOL0     C71059   2.867   1.999   7.920  0.2026 -0.4105 -0.2627
  527MOL0     C71060   2.960   1.920   7.851  0.6939  0.1702 -0.4180
  527MOL0     N71061   3.627   1.478   7.498 -0.1824 -0.0060 -0.3006
  527MOL0     N71062   3.696   1.551   7.423 -0.0754 -0.0117 -0.1834
  527MOL0     C71063   3.124   2.422   8.064 -0.3703  0.5608  0.4200
  527MOL0     C71064   3.114   2.483   8.192  0.1231  0.6456  0.0097
  527MOL0     C71065   3.217   2.723   8.583 -0.7954  1.1609 -0.3686
  527MOL0     C71066   3.157   2.625   8.671  0.7508 -0.4011 -0.3173
  527MOL0     C71067   3.140   2.651   8.808 -0.4305 -0.9855  0.4579
  527MOL0     C71068   3.175   2.778   8.868 -0.1419 -0.5750 -0.1202
  527MOL0     O71069   3.139   2.787   9.000 -0.3226  0.4326  0.5459
  527MOL0     C71070   3.134   2.915   9.069  0.9770 -0.2235  0.2139
  527MOL0     C71071   3.173   2.901   9.210 -0.0584 -0.0740 -0.3869
  527MOL0     C71072   3.320   2.877   9.225 -0.7698 -0.1047  0.6738
  527MOL0     C71073   3.353   2.870   9.371 -0.1911  0.2937 -0.1053
  527MOL0     C71074   3.406   2.741   9.397  0.0976  0.3003 -0.0878
  527MOL0     C71075   3.448   2.632   9.422  0.1813  1.2852  0.5544
  527MOL0     C71076   3.214   2.873   8.780 -0.3076  0.2936  0.0643
  527MOL0     C71077   3.234   2.846   8.644  0.3798 -0.2526 -0.1486
  527MOL0     H71078   3.427   2.487   8.295 -0.9432  0.5516  0.3358
  527MOL0     H71079   3.467   2.384   8.087  0.1951 -1.2360  2.3223
  527MOL0     H71080   3.206   2.150   7.951 -5.8339  1.2850  0.3171
  527MOL0     H71081   3.103   2.220   7.837 -0.4456 -1.4099  2.4322
  527MOL0     H71082   3.231   2.042   7.742  6.1243 -3.7825  1.0124
  527MOL0     H71083   3.256   2.191   7.647 -3.4264 -3.5862 -1.4769
  527MOL0     H71084   3.484   2.225   7.716 -1.2755 -0.7411 -2.9908
  527MOL0     H71085   3.458   2.141   7.869  0.3778 -0.9205 -0.2280
  527MOL0     H71086   3.592   1.991   7.757  0.9917  2.1258 -0.9033
  527MOL0     H71087   3.425   1.921   7.734 -0.4306  0.6429 -1.6580
  527MOL0     H71088   3.411   2.017   7.505 -1.0965  1.0348  2.6628
  527MOL0     H71089   3.548   2.119   7.536  0.6061  1.3727  4.0260
  527MOL0     H71090   3.691   1.903   7.540 -0.5887  2.8145  0.9257
  527MOL0     H71091   3.536   1.810   7.560  0.1073  1.0584  1.2331
  527MOL0     H71092   3.469   1.893   7.338 -1.1918 -1.1072  1.1131
  527MOL0     H71093   3.624   1.982   7.325  1.6581 -1.8171  0.5171
  527MOL0     H71094   3.766   1.778   7.309  0.7273 -1.7921 -0.8551
  527MOL0     H71095   3.636   1.754   7.199 -0.1071  0.7485 -0.5663
  527MOL0     H71096   3.384   1.644   7.359  1.5337  1.5886  0.6471
  527MOL0     H71097   3.295   1.435   7.499  1.0635 -0.7072 -1.0760
  527MOL0     H71098   3.411   1.375   7.622  1.6352  0.5134  0.4901
  527MOL0     H71099   3.375   1.632   7.721 -0.1216  2.2110 -1.5389
  527MOL0     H71100   3.245   1.507   7.748 -0.8937  0.6616  0.2087
  527MOL0     H71101   3.110   1.578   7.572 -2.2433  1.7703 -0.7950
  527MOL0     H71102   3.232   1.704   7.519 -0.9717  3.3629  1.5386
  527MOL0     H71103   3.204   1.836   7.732 -1.5470  1.3077 -0.6598
  527MOL0     H71104   3.100   1.703   7.792  1.4026  1.2365  0.7126
  527MOL0     H71105   2.806   1.903   7.551  3.0832  1.4856 -0.3451
  527MOL0     H71106   2.592   1.969   7.565 -2.2899  0.8471 -0.4438
  527MOL0     H71107   2.509   1.990   7.714  0.5497 -0.2321  1.8915
  527MOL0     H71108   2.585   2.130   7.637 -1.9999 -0.5247  1.2585
  527MOL0     H71109   2.391   2.262   7.774 -2.6810 -1.0078  0.1917
  527MOL0     H71110   2.212   2.430   7.869  0.0708 -1.8258 -0.2897
  527MOL0     H71111   2.261   2.654   8.252 -2.1746  1.2526 -0.8436
  527MOL0     H71112   2.354   2.646   8.108 -1.9528  3.7433 -2.1966
  527MOL0     H71113   2.101   2.705   7.997  2.1548 -2.0758 -0.5801
  527MOL0     H71114   2.084   2.762   8.164 -1.3355 -3.9581  0.3465
  527MOL0     H71115   2.330   2.840   7.988 -0.4362 -0.7685 -0.7661
  527MOL0     H71116   2.273   2.913   8.134 -0.7182  0.5132  0.0783
  527MOL0     H71117   2.070   2.915   7.913 -2.0498 -3.9852  4.4960
  527MOL0     H71118   2.098   3.023   8.035  0.0085 -0.0709  0.8765
  527MOL0     H71119   2.195   3.133   7.822  0.3927  2.2691  1.4705
  527MOL0     H71120   2.288   2.992   7.820 -0.4287 -0.1878 -1.0740
  527MOL0     H71121   2.284   3.205   8.054 -1.8328 -2.6183  3.5552
  527MOL0     H71122   2.401   3.061   8.038 -3.6155 -1.3328  2.0596
  527MOL0     H71123   2.434   3.225   7.801  0.4341 -1.5041 -0.9832
  527MOL0     H71124   2.544   3.156   7.918  1.0150  1.3249 -1.4191
  527MOL0     H71125   2.498   3.330   8.075  0.7549 -0.9002 -0.2381
  527MOL0     H71126   2.363   3.399   7.984 -0.0622 -0.5015  1.7473
  527MOL0     H71127   2.350   2.374   8.260 -0.7231  0.0414  0.2729
  527MOL0     H71128   2.517   2.189   8.176  1.4337  0.3205 -1.2950
  527MOL0     H71129   2.890   2.027   8.022 -4.4470 -2.6649  1.6467
  527MOL0     H71130   3.060   1.908   7.892  0.0310 -0.9365  0.9363
  527MOL0     H71131   3.046   2.381   8.000  0.3513  0.1406 -0.2058
  527MOL0     H71132   3.021   2.489   8.247  0.0868  0.1044  0.0102
  527MOL0     H71133   3.131   2.527   8.633  0.7169  1.3645 -5.5799
  527MOL0     H71134   3.115   2.571   8.877  1.8514 -2.7038 -0.5706
  527MOL0     H71135   3.206   2.983   9.024  1.3828 -1.2095 -0.6776
  527MOL0     H71136   3.040   2.966   9.044  1.3875 -0.3526 -1.6946
  527MOL0     H71137   3.109   2.825   9.257 -0.7664  1.2243  0.8280
  527MOL0     H71138   3.173   2.995   9.266  2.2501 -0.3952  0.2480
  527MOL0     H71139   3.377   2.956   9.176 -2.3876 -0.6335 -2.3308
  527MOL0     H71140   3.349   2.783   9.176 -1.0775 -0.1985  0.6647
  527MOL0     H71141   3.262   2.878   9.430  0.2859 -2.3375  1.1045
  527MOL0     H71142   3.419   2.955   9.392 -3.2778  2.3764  2.0019
  527MOL0     H71143   3.501   2.543   9.452  1.7817  1.7826 -0.6525
  527MOL0     H71144   3.235   2.974   8.811  0.8646  0.4494 -1.1168
  527MOL0     H71145   3.248   2.930   8.576 -4.5952  1.0680  0.0384
  528MOL0     O71146   8.797   5.985   4.938  0.7196 -0.6092 -0.2143
  528MOL0     C71147   8.915   5.980   4.958 -0.3163 -0.0278 -0.4275
  528MOL0     O71148   8.991   5.870   4.983 -0.9324 -0.1121  0.4591
  528MOL0     C71149   8.939   5.747   4.959  0.7003  0.0351 -0.0987
  528MOL0     C71150   8.996   5.645   5.037  0.5926  0.1918 -0.0328
  528MOL0     C71151   8.970   5.512   5.012  0.1895  1.8761 -1.3078
  528MOL0     C71152   8.890   5.479   4.893  0.6906 -0.4651  0.3039
  528MOL0     O71153   8.853   5.349   4.861  0.3496 -0.3202 -0.4976
  528MOL0     C71154   8.878   5.238   4.949 -0.8991 -0.7765  0.1207
  528MOL0     C71155   8.775   5.223   5.065  0.7039 -0.4555  0.3015
  528MOL0     C71156   8.806   5.099   5.147 -0.5523 -0.6462 -0.2417
  528MOL0     C71157   8.722   5.068   5.264  0.4353  0.1683  0.6378
  528MOL0     C71158   8.791   4.963   5.360  0.3366  0.0706  0.0133
  528MOL0     C71159   8.791   4.823   5.297 -0.1020  0.2343 -0.5824
  528MOL0     C71160   8.651   4.761   5.277 -0.3853  0.8717  0.2458
  528MOL0     C71161   8.663   4.601   5.267 -0.2121 -0.5794 -1.3793
  528MOL0     N71162   8.521   4.568   5.236 -0.3879  0.1206  0.6786
  528MOL0     C71163   8.458   4.552   5.119  0.8081  0.2180  0.2077
  528MOL0     C71164   8.320   4.565   5.138 -0.2052 -0.2801  0.7161
  528MOL0     C71165   8.228   4.561   5.017  0.1816 -0.1256  0.1886
  528MOL0     C71166   8.272   4.656   4.901  0.8363  0.0491  0.0315
  528MOL0     C71167   8.363   4.590   4.789  0.2269  0.4120  0.7617
  528MOL0     C71168   8.277   4.536   4.672 -0.0063 -0.2525  0.2610
  528MOL0     O71169   8.242   4.397   4.705 -0.8410  0.4014  0.1545
  528MOL0     C71170   8.171   4.325   4.610 -0.4518 -0.6691  0.3896
  528MOL0     C71171   8.064   4.253   4.657 -0.6245  1.3939  0.7298
  528MOL0     C71172   8.006   4.151   4.567  0.8466  0.2757  0.1472
  528MOL0     C71173   7.901   4.071   4.639  0.6382  0.5754 -0.7112
  528MOL0     C71174   8.068   4.122   4.440  0.5834 -0.9365 -0.0760
  528MOL0     C71175   8.008   4.028   4.341  0.4478 -0.1831 -0.5927
  528MOL0     O71176   8.074   4.025   4.222 -0.1330 -0.0452  0.6322
  528MOL0     C71177   8.057   3.930   4.119 -0.8551  0.2110  0.2477
  528MOL0     C71178   7.935   3.885   4.083  0.6076  0.1102  0.1762
  528MOL0     C71179   7.923   3.783   3.990  1.2760  0.0026 -0.4722
  528MOL0     C71180   8.036   3.735   3.923 -1.2108  0.8594 -0.5416
  528MOL0     O71181   8.026   3.630   3.827  0.1273  0.5712 -0.1449
  528MOL0     C71182   7.902   3.568   3.813 -0.0782  0.5554  0.1090
  528MOL0     C71183   7.913   3.472   3.690  0.8009  0.1689 -0.3888
  528MOL0     C71184   7.968   3.535   3.561  0.8949  0.3125  0.3038
  528MOL0     C71185   7.971   3.435   3.433  0.6136 -0.7296 -0.0320
  528MOL0     C71186   7.839   3.419   3.357 -0.8692  0.2360 -0.8908
  528MOL0     C71187   7.802   3.528   3.251  0.0493  0.1941 -0.3725
  528MOL0     C71188   7.875   3.547   3.119 -0.2253  0.0494 -0.2011
  528MOL0     C71189   7.804   3.662   3.039  0.0918  0.1727  0.2192
  528MOL0    Cl71190   7.638   3.617   3.011 -0.1145 -0.2573  0.1687
  528MOL0     C71191   8.163   3.779   3.966  0.6619 -0.5800  0.2542
  528MOL0     C71192   8.173   3.877   4.063 -0.9829  0.0880  0.5818
  528MOL0     O71193   7.920   3.953   4.372 -0.3193 -0.1114  0.1222
  528MOL0     C71194   8.183   4.198   4.407  0.2464  1.0390  0.4549
  528MOL0     C71195   8.231   4.298   4.486  0.1534 -0.5222 -0.3672
  528MOL0     N71196   8.299   4.570   5.277  0.4253  0.3460  0.3006
  528MOL0     N71197   8.420   4.572   5.329 -1.1524 -0.4619 -0.9356
  528MOL0     C71198   8.821   5.582   4.826  1.4777 -0.3546 -0.1629
  528MOL0     C71199   8.845   5.716   4.856 -0.0490 -0.1178 -0.0048
  528MOL0     C71200   8.990   6.110   4.931  0.2674  1.0868 -0.4138
  528MOL0     C71201   8.921   6.230   4.964 -0.2037  0.1251 -0.3980
  528MOL0     C71202   8.981   6.352   4.934  0.0662  0.0134 -1.2202
  528MOL0     C71203   9.112   6.352   4.872  0.2313  0.6209  0.7920
  528MOL0     O71204   9.184   6.468   4.843 -0.3999 -0.0465 -0.2667
  528MOL0     C71205   9.119   6.597   4.815  0.1788 -0.3941 -0.2952
  528MOL0     C71206   9.069   6.589   4.672  0.7096  0.4007  0.4640
  528MOL0     C71207   8.998   6.711   4.619  0.0609  0.2943 -0.4980
  528MOL0     C71208   9.069   6.772   4.498 -0.3754  0.0863  0.8263
  528MOL0     C71209   9.034   6.913   4.465 -0.0276  0.3658 -0.6009
  528MOL0     C71210   9.005   7.025   4.426  0.0343  0.6297  0.1043
  528MOL0     C71211   9.179   6.231   4.854  0.9715 -0.1268 -0.3718
  528MOL0     C71212   9.117   6.101   4.878  0.5600 -0.4110  0.4430
  528MOL0     H71213   9.061   5.679   5.117 -1.6447  1.4700  1.3477
  528MOL0     H71214   9.024   5.436   5.066 -1.1939  2.0098  0.3646
  528MOL0     H71215   8.874   5.149   4.885 -0.7963 -1.2183  0.7222
  528MOL0     H71216   8.979   5.247   4.990 -0.1236  0.4536 -1.9072
  528MOL0     H71217   8.765   5.318   5.119 -1.4774 -0.0504 -0.7211
  528MOL0     H71218   8.675   5.206   5.023  0.9019 -2.2210  0.4823
  528MOL0     H71219   8.799   5.011   5.081 -1.7558 -0.5320 -0.2888
  528MOL0     H71220   8.909   5.118   5.176 -0.3824 -1.2911 -0.3989
  528MOL0     H71221   8.702   5.163   5.313  3.6044  0.7523  0.9837
  528MOL0     H71222   8.626   5.026   5.231  0.7786 -1.6368  1.7664
  528MOL0     H71223   8.894   4.990   5.386 -0.1846  1.3361  0.8449
  528MOL0     H71224   8.730   4.953   5.450  0.5602 -0.8009  0.0759
  528MOL0     H71225   8.845   4.826   5.201 -0.6456  0.2365 -0.8915
  528MOL0     H71226   8.834   4.755   5.371 -2.6015 -2.3013 -1.2686
  528MOL0     H71227   8.590   4.797   5.360  1.2311  1.6888  1.1112
  528MOL0     H71228   8.603   4.794   5.184 -1.9752  0.4919  0.8909
  528MOL0     H71229   8.682   4.569   5.370  0.0041  2.0702 -0.5053
  528MOL0     H71230   8.740   4.564   5.199  4.5808  1.7707  2.1883
  528MOL0     H71231   8.503   4.550   5.020 -1.4217 -1.6812 -0.8838
  528MOL0     H71232   8.237   4.458   4.983  2.9134 -0.4211  1.5405
  528MOL0     H71233   8.129   4.586   5.054 -1.0565 -2.1132 -1.5562
  528MOL0     H71234   8.326   4.734   4.956 -0.3419  0.2915  0.9016
  528MOL0     H71235   8.186   4.710   4.861  0.2195 -0.7268  0.2959
  528MOL0     H71236   8.430   4.509   4.821 -0.0811 -1.1336 -2.1637
  528MOL0     H71237   8.427   4.664   4.741 -0.2211  0.0988 -0.3410
  528MOL0     H71238   8.328   4.542   4.575  3.0024  2.1433  1.8323
  528MOL0     H71239   8.187   4.597   4.657  1.4415  2.0904  0.6265
  528MOL0     H71240   8.032   4.254   4.761 -0.7476 -0.5306  0.7436
  528MOL0     H71241   7.931   3.966   4.646  0.7597  0.6602  0.2300
  528MOL0     H71242   7.888   4.114   4.739  3.0924  1.2981 -0.6205
  528MOL0     H71243   7.810   4.083   4.581  1.3100  2.1542 -1.5199
  528MOL0     H71244   7.846   3.922   4.133 -1.7950 -4.4961 -0.1885
  528MOL0     H71245   7.823   3.744   3.973  1.7343  0.4017 -5.4586
  528MOL0     H71246   7.878   3.508   3.901  1.3945  1.2916  1.0408
  528MOL0     H71247   7.832   3.646   3.782 -1.6841 -1.8005 -2.7481
  528MOL0     H71248   7.979   3.388   3.717  1.8940  0.3402 -2.3084
  528MOL0     H71249   7.808   3.447   3.674  0.7369  1.7672 -3.0519
  528MOL0     H71250   8.073   3.553   3.583  1.6132 -0.2748 -2.3554
  528MOL0     H71251   7.914   3.630   3.556 -0.2755 -0.0619  3.3261
  528MOL0     H71252   8.051   3.461   3.364 -0.3917 -1.9105 -1.7049
  528MOL0     H71253   7.997   3.343   3.486 -2.5317 -1.7535 -0.0832
  528MOL0     H71254   7.768   3.408   3.439  0.4344 -0.1982  0.2199
  528MOL0     H71255   7.845   3.329   3.295 -1.6162 -1.9702  2.0460
  528MOL0     H71256   7.700   3.511   3.217  1.7171 -2.3691 -5.0082
  528MOL0     H71257   7.804   3.624   3.304  0.5134  0.8722 -1.5873
  528MOL0     H71258   7.874   3.455   3.059 -1.4999 -0.1565  0.0915
  528MOL0     H71259   7.971   3.595   3.135 -0.3994  0.8895 -1.5111
  528MOL0     H71260   7.858   3.678   2.946 -0.1109 -1.1494 -0.1567
  528MOL0     H71261   7.809   3.761   3.085  0.3133  0.7105 -0.9167
  528MOL0     H71262   8.250   3.752   3.907 -1.4452  0.5549 -3.7502
  528MOL0     H71263   8.265   3.915   4.107 -0.8296 -0.4209  0.7102
  528MOL0     H71264   8.237   4.174   4.317  0.0128  0.8241  0.3717
  528MOL0     H71265   8.319   4.354   4.456 -2.3847  2.8471 -2.3094
  528MOL0     H71266   8.746   5.553   4.753  2.4132  1.7590 -2.0615
  528MOL0     H71267   8.790   5.785   4.793  1.1888 -0.1396 -1.1432
  528MOL0     H71268   8.823   6.225   5.010 -0.4416 -0.9609 -1.0012
  528MOL0     H71269   8.929   6.442   4.965  2.7139  0.3104  3.1334
  528MOL0     H71270   9.040   6.610   4.889  1.7170  2.5300  0.9937
  528MOL0     H71271   9.181   6.685   4.832 -0.6967  0.2851 -0.5558
  528MOL0     H71272   9.003   6.502   4.678  1.5001 -0.4596 -1.9542
  528MOL0     H71273   9.147   6.554   4.603 -0.4702 -2.0841  0.2632
  528MOL0     H71274   8.995   6.787   4.697  1.1791  1.1914 -1.2869
  528MOL0     H71275   8.896   6.685   4.589  0.3434 -0.6524 -0.6704
  528MOL0     H71276   9.034   6.728   4.404  2.2618  2.1656 -1.2746
  528MOL0     H71277   9.176   6.754   4.485 -0.4334 -1.1017  1.8215
  528MOL0     H71278   8.958   7.116   4.394  0.0493  2.4409  4.5989
  528MOL0     H71279   9.284   6.231   4.829  0.7059 -1.0327 -1.5790
  528MOL0     H71280   9.161   6.003   4.865  2.4485  0.1401  2.1134
  529MOL0     O71281  11.511   4.985   8.117  0.6400  0.2347 -0.1218
  529MOL0     C71282  11.586   4.983   8.023  0.2382 -0.6837  0.3474
  529MOL0     O71283  11.714   4.930   8.023  0.2292 -0.0402  0.1514
  529MOL0     C71284  11.774   4.876   8.133 -0.0638  0.0757  0.7580
  529MOL0     C71285  11.804   4.736   8.129 -0.1765 -0.0112 -0.6025
  529MOL0     C71286  11.851   4.675   8.241 -1.1910  0.9582  0.9789
  529MOL0     C71287  11.876   4.743   8.362  0.5665  0.1942 -0.0678
  529MOL0     O71288  11.946   4.706   8.474  0.7859 -0.5760  0.2175
  529MOL0     C71289  11.941   4.571   8.507 -0.2947  0.1085 -0.3741
  529MOL0     C71290  12.001   4.543   8.648  1.2023 -0.3883  0.2277
  529MOL0     C71291  11.975   4.398   8.695 -0.1337 -0.1614 -0.7430
  529MOL0     C71292  11.985   4.376   8.849  1.0716  0.5262 -0.0970
  529MOL0     C71293  11.991   4.224   8.875 -0.1777  0.2262 -0.7170
  529MOL0     C71294  12.119   4.168   8.831  0.1500  0.3035 -0.2518
  529MOL0     C71295  12.156   4.041   8.919 -0.0302  0.2124 -0.0893
  529MOL0     C71296  12.071   3.916   8.905  0.8967  0.2491 -0.1761
  529MOL0     N71297  12.042   3.877   8.766 -0.5239 -0.0260  0.5781
  529MOL0     C71298  12.147   3.830   8.684  0.3364  0.2650 -0.3191
  529MOL0     C71299  12.087   3.813   8.567 -0.0693 -0.6662  0.2284
  529MOL0     C71300  12.170   3.768   8.443 -0.3670 -0.2656 -0.4982
  529MOL0     C71301  12.208   3.624   8.426 -0.1657  0.0259  0.4817
  529MOL0     C71302  12.317   3.558   8.512  0.1302 -0.2940  0.3202
  529MOL0     C71303  12.291   3.415   8.554  0.2306  0.0970  0.4574
  529MOL0     O71304  12.305   3.329   8.445  0.1192 -0.1981  0.4294
  529MOL0     C71305  12.285   3.195   8.469 -0.9606  0.2185 -0.4344
  529MOL0     C71306  12.334   3.130   8.578  0.6950  1.3780 -0.0416
  529MOL0     C71307  12.306   2.997   8.609  0.5447 -0.1003  0.1944
  529MOL0     C71308  12.378   2.930   8.720  0.3317  0.1472  0.3258
  529MOL0     C71309  12.206   2.932   8.540  0.4556  0.2237  0.2021
  529MOL0     C71310  12.161   2.793   8.583 -0.4956 -1.0239  0.4506
  529MOL0     O71311  12.032   2.781   8.629  0.5529  0.1712  0.0307
  529MOL0     C71312  12.004   2.679   8.716 -0.2020  0.1664 -0.4183
  529MOL0     C71313  11.972   2.555   8.670  0.3582 -0.0129 -0.4583
  529MOL0     C71314  11.927   2.441   8.748 -0.1356 -0.5271  0.8271
  529MOL0     C71315  11.933   2.459   8.885 -0.2153 -0.5602  0.6196
  529MOL0     O71316  11.899   2.343   8.952  0.0982 -0.0392 -0.8739
  529MOL0     C71317  11.839   2.354   9.085 -0.1953  1.2938 -0.0762
  529MOL0     C71318  11.796   2.206   9.126  0.9999 -0.1600 -0.9675
  529MOL0     C71319  11.686   2.161   9.033  0.4892 -0.7510 -0.2167
  529MOL0     C71320  11.641   2.032   9.089  0.1068  0.7119  0.8967
  529MOL0     C71321  11.548   1.968   8.987  0.7493  1.6805 -0.5835
  529MOL0     C71322  11.477   1.845   9.045  0.3201  0.8233  0.2037
  529MOL0     C71323  11.375   1.785   8.949  0.5496  0.3274 -0.2534
  529MOL0     C71324  11.395   1.639   8.910  0.0321 -0.3840 -0.3558
  529MOL0    Cl71325  11.563   1.595   8.893 -0.2715 -0.1562 -0.2167
  529MOL0     C71326  11.964   2.588   8.943  0.1784 -0.3425  0.8542
  529MOL0     C71327  11.999   2.700   8.858 -0.1172  1.0945  0.4604
  529MOL0     O71328  12.238   2.704   8.586 -0.5094  0.1928 -0.3227
  529MOL0     C71329  12.145   2.996   8.425  0.2308  1.1205  0.6708
  529MOL0     C71330  12.198   3.122   8.385  0.2559  0.1875 -0.3209
  529MOL0     N71331  11.949   3.846   8.572  0.1531  0.4903  0.5394
  529MOL0     N71332  11.933   3.894   8.695 -0.1088  0.7197  0.6249
  529MOL0     C71333  11.839   4.881   8.362  0.1931  0.8056  0.3350
  529MOL0     C71334  11.777   4.943   8.260 -0.2671  0.4608  1.7631
  529MOL0     C71335  11.528   5.040   7.896  0.5701  0.2859 -0.1776
  529MOL0     C71336  11.601   5.017   7.776  0.8004  0.0879  0.2068
  529MOL0     C71337  11.541   5.065   7.655 -0.5628 -0.2913  0.5990
  529MOL0     C71338  11.416   5.134   7.657 -0.9587 -0.6046  0.1704
  529MOL0     O71339  11.366   5.157   7.528  0.0851 -0.1527 -0.5648
  529MOL0     C71340  11.266   5.256   7.520  0.7791 -0.2171  0.3354
  529MOL0     C71341  11.235   5.336   7.395 -0.8432  0.2949  0.9752
  529MOL0     C71342  11.179   5.232   7.299 -0.4230  0.0260 -0.5279
  529MOL0     C71343  11.142   5.312   7.166 -0.1642  1.1202 -0.9824
  529MOL0     C71344  11.269   5.378   7.104 -0.2606 -0.7528  0.5460
  529MOL0     C71345  11.358   5.436   7.051 -0.8858  0.7995 -0.2637
  529MOL0     C71346  11.355   5.157   7.777  0.9255  0.5271 -0.4851
  529MOL0     C71347  11.408   5.114   7.897  0.1671 -0.0571  0.7922
  529MOL0     H71348  11.786   4.667   8.047  3.0602 -1.9678  0.1079
  529MOL0     H71349  11.864   4.568   8.255  0.0193  0.6501 -1.6853
  529MOL0     H71350  11.843   4.524   8.492 -0.7390  1.5646 -2.4466
  529MOL0     H71351  12.013   4.527   8.437  2.5604  1.4268  1.5587
  529MOL0     H71352  12.108   4.564   8.640  1.1264 -0.7741 -4.6327
  529MOL0     H71353  11.958   4.604   8.727  1.7054 -1.2362  1.1749
  529MOL0     H71354  11.880   4.359   8.659 -1.6609  0.7834  1.9353
  529MOL0     H71355  12.050   4.337   8.644 -0.0104 -1.8020  1.2773
  529MOL0     H71356  12.070   4.429   8.895 -1.1371  1.6882  2.9584
  529MOL0     H71357  11.895   4.415   8.897  1.6770  3.0947 -0.9064
  529MOL0     H71358  11.980   4.208   8.983  4.2456  1.6081  0.1656
  529MOL0     H71359  11.908   4.170   8.829 -0.6280 -1.6889  2.0407
  529MOL0     H71360  12.117   4.163   8.722  0.6240  5.9052 -0.8272
  529MOL0     H71361  12.206   4.229   8.858 -1.2992  1.7094  1.4359
  529MOL0     H71362  12.255   4.003   8.893 -0.7836  0.1437 -3.3688
  529MOL0     H71363  12.156   4.065   9.025  0.2733  1.4087 -0.3448
  529MOL0     H71364  11.977   3.942   8.954  1.8424 -1.0588  2.5163
  529MOL0     H71365  12.103   3.833   8.969 -0.7526 -1.7609 -1.8209
  529MOL0     H71366  12.245   3.803   8.722 -1.7705 -4.3933  2.7462
  529MOL0     H71367  12.120   3.799   8.351 -4.5154 -1.2587  1.1938
  529MOL0     H71368  12.260   3.830   8.447 -0.9929  0.8315 -2.2753
  529MOL0     H71369  12.264   3.628   8.332  4.4205 -0.2525  2.8998
  529MOL0     H71370  12.113   3.571   8.425  0.0374 -0.3473 -0.8390
  529MOL0     H71371  12.321   3.626   8.597  2.8203  2.7401 -1.9636
  529MOL0     H71372  12.412   3.568   8.458  1.3352  1.4307  2.6013
  529MOL0     H71373  12.192   3.420   8.600  0.1848  4.7169  0.2353
  529MOL0     H71374  12.362   3.384   8.632  1.0796  1.3286  0.2051
  529MOL0     H71375  12.417   3.169   8.637  2.4833 -3.1949  0.9732
  529MOL0     H71376  12.297   2.885   8.779 -1.0774  0.2357 -1.4338
  529MOL0     H71377  12.455   2.859   8.689  3.0338  1.8404  2.6258
  529MOL0     H71378  12.438   2.998   8.781  1.9348 -0.3639 -0.6388
  529MOL0     H71379  11.981   2.546   8.562  0.9645  1.9941 -0.6053
  529MOL0     H71380  11.890   2.351   8.698  1.4235 -1.1091  0.6774
  529MOL0     H71381  11.918   2.388   9.152  1.9225  2.0793 -2.7913
  529MOL0     H71382  11.754   2.423   9.088 -2.2644 -0.8854 -2.8073
  529MOL0     H71383  11.873   2.130   9.137  1.3888  0.4938  1.8603
  529MOL0     H71384  11.748   2.210   9.224 -1.4985  1.6779 -2.1583
  529MOL0     H71385  11.727   2.163   8.932 -1.9458  4.4599 -1.4583
  529MOL0     H71386  11.614   2.244   9.035  0.4252 -0.6236 -3.2480
  529MOL0     H71387  11.727   1.966   9.098  2.7419  3.7521 -0.1130
  529MOL0     H71388  11.599   2.034   9.190  0.6948  1.8464  1.1370
  529MOL0     H71389  11.616   1.924   8.913  0.3131 -0.4812  0.2394
  529MOL0     H71390  11.471   2.026   8.934 -0.7684 -1.8268 -2.5905
  529MOL0     H71391  11.552   1.767   9.061 -0.9791 -0.9857 -1.9615
  529MOL0     H71392  11.425   1.863   9.139  1.7258 -2.7221  1.8539
  529MOL0     H71393  11.360   1.861   8.871  0.4548  0.7532  0.1777
  529MOL0     H71394  11.282   1.786   9.007  0.6791 -1.5674  0.0424
  529MOL0     H71395  11.333   1.629   8.820 -1.3526  0.2278  0.5081
  529MOL0     H71396  11.341   1.584   8.988 -0.3536  2.9623  1.9125
  529MOL0     H71397  11.964   2.601   9.050 -1.0643  4.0142  0.5230
  529MOL0     H71398  12.049   2.792   8.888 -2.7265  2.6008  0.4765
  529MOL0     H71399  12.072   2.937   8.371  1.1688  1.4230 -1.0130
  529MOL0     H71400  12.178   3.160   8.285  2.0369  1.8161 -0.1062
  529MOL0     H71401  11.869   4.933   8.452 -0.5728  0.9455  0.5199
  529MOL0     H71402  11.760   5.049   8.271  2.9904  0.9691  3.1139
  529MOL0     H71403  11.694   4.963   7.781  1.1546  0.6446 -0.2605
  529MOL0     H71404  11.580   5.054   7.555 -2.0224 -1.2799  0.1050
  529MOL0     H71405  11.175   5.207   7.556  0.2582 -0.2953 -1.0559
  529MOL0     H71406  11.291   5.337   7.589 -0.2509  0.9702 -0.6416
  529MOL0     H71407  11.326   5.389   7.366 -0.3615  0.5721  2.8738
  529MOL0     H71408  11.175   5.422   7.424  0.2855  1.4710 -0.0370
  529MOL0     H71409  11.085   5.208   7.349  0.1325  0.6348  0.8494
  529MOL0     H71410  11.253   5.153   7.287  1.7823  1.1816  3.6099
  529MOL0     H71411  11.077   5.394   7.196  1.5492  2.3404 -0.4895
  529MOL0     H71412  11.093   5.241   7.099  2.2847  0.5830 -2.3321
  529MOL0     H71413  11.441   5.489   7.007 -0.4591  1.2241  0.9931
  529MOL0     H71414  11.250   5.184   7.776  0.5939 -0.7372 -0.7775
  529MOL0     H71415  11.348   5.132   7.986 -2.2944  1.2406 -1.0141
  530MOL0     O71416   1.001   9.554   0.361  0.1131 -0.2149 -0.0041
  530MOL0     C71417   0.949   9.469   0.293 -0.1525  0.3352  0.7113
  530MOL0     O71418   0.875   9.361   0.335  0.2028  0.2638  0.0524
  530MOL0     C71419   0.888   9.340   0.474  0.4683  0.4025 -0.9905
  530MOL0     C71420   0.982   9.247   0.518  0.7834 -0.6245  1.2183
  530MOL0     C71421   0.991   9.230   0.660 -1.0265 -0.7126 -0.6157
  530MOL0     C71422   0.901   9.290   0.749  0.9420  0.7016 -0.3884
  530MOL0     O71423   0.912   9.225   0.870 -0.8457 -0.4768 -0.0907
  530MOL0     C71424   0.811   9.231   0.971 -0.9200 -0.5191  0.0937
  530MOL0     C71425   0.876   9.201   1.104  0.9979  0.1551 -0.6180
  530MOL0     C71426   0.775   9.178   1.228  0.0049  0.3885  0.1391
  530MOL0     C71427   0.743   9.023   1.253  0.0513  0.1983  0.6773
  530MOL0     C71428   0.698   8.947   1.135 -0.1176 -0.4925 -0.3271
  530MOL0     C71429   0.644   8.804   1.156 -0.3215 -0.1211 -0.4815
  530MOL0     C71430   0.696   8.735   1.279  0.2226 -0.6247 -0.5872
  530MOL0     C71431   0.599   8.631   1.303  0.3678  0.5460  0.4437
  530MOL0     N71432   0.643   8.546   1.421  0.3444  0.1668  0.6099
  530MOL0     C71433   0.602   8.586   1.538 -0.5679  0.9170  0.4927
  530MOL0     C71434   0.628   8.476   1.623  0.0883  0.0140  0.9550
  530MOL0     C71435   0.610   8.451   1.768 -0.6202  0.7409 -1.1934
  530MOL0     C71436   0.514   8.558   1.825 -0.4098 -0.2345  0.2078
  530MOL0     C71437   0.478   8.527   1.966  0.5316  0.4266  0.4829
  530MOL0     C71438   0.594   8.553   2.066 -0.1324  0.2511  0.4363
  530MOL0     O71439   0.527   8.555   2.191 -0.3281 -0.1531  0.0232
  530MOL0     C71440   0.551   8.457   2.273  0.3735  0.7383 -0.3121
  530MOL0     C71441   0.535   8.483   2.411  0.7174  0.3500 -0.3508
  530MOL0     C71442   0.552   8.392   2.516  0.1275 -0.9864 -0.2542
  530MOL0     C71443   0.541   8.447   2.655 -0.1071  0.0911 -0.1049
  530MOL0     C71444   0.577   8.260   2.481  0.8335  0.2988  0.2352
  530MOL0     C71445   0.580   8.151   2.579 -0.7562  1.1467  0.6811
  530MOL0     O71446   0.644   8.046   2.533 -0.3352 -0.6835 -0.0063
  530MOL0     C71447   0.626   7.928   2.596  0.0230 -0.4786 -0.2194
  530MOL0     C71448   0.700   7.899   2.714  0.7665 -0.3392 -0.4666
  530MOL0     C71449   0.673   7.785   2.789  0.4995  0.0052 -0.3754
  530MOL0     C71450   0.586   7.691   2.745 -0.4487 -0.1362  0.7324
  530MOL0     O71451   0.561   7.567   2.784  0.0619 -0.0567  0.3309
  530MOL0     C71452   0.587   7.552   2.922  0.1812 -0.3461  0.2258
  530MOL0     C71453   0.513   7.425   2.979  0.3834 -0.4567  0.4014
  530MOL0     C71454   0.557   7.413   3.122 -0.5780 -0.1905  0.4948
  530MOL0     C71455   0.496   7.301   3.192 -0.0251  0.3388  0.6003
  530MOL0     C71456   0.356   7.321   3.242  0.6414 -0.1138 -0.5790
  530MOL0     C71457   0.313   7.198   3.323 -0.9202 -0.3666 -0.1543
  530MOL0     C71458   0.180   7.208   3.391  0.2926  0.7927 -0.5116
  530MOL0     C71459   0.144   7.095   3.477  0.6764  0.6680 -0.2302
  530MOL0    Cl71460   0.251   7.076   3.607 -0.4723 -0.0158 -0.2997
  530MOL0     C71461   0.531   7.713   2.619  1.0683  0.8362  0.4734
  530MOL0     C71462   0.545   7.829   2.550  0.8111 -0.5021  0.8606
  530MOL0     O71463   0.521   8.165   2.683 -1.0632  0.3310 -0.0117
  530MOL0     C71464   0.593   8.225   2.336 -0.0195 -0.0625 -0.2767
  530MOL0     C71465   0.575   8.322   2.241 -0.3516 -0.4334  0.8035
  530MOL0     N71466   0.684   8.377   1.543 -0.1051 -0.3975  0.4600
  530MOL0     N71467   0.675   8.410   1.419 -0.2303  0.1066 -1.8173
  530MOL0     C71468   0.804   9.385   0.707 -0.3674  0.8861  0.0905
  530MOL0     C71469   0.800   9.414   0.568 -0.4122 -0.7704  0.4119
  530MOL0     C71470   0.994   9.471   0.154 -0.2415  0.7017 -1.0506
  530MOL0     C71471   0.967   9.357   0.067  0.9895 -0.5023  0.2539
  530MOL0     C71472   0.989   9.353  -0.074 -0.9324 -0.0173 -0.7357
  530MOL0     C71473   1.039   9.460  -0.137  0.1523  0.4606  0.5750
  530MOL0     O71474   1.054   9.455  -0.270 -0.7454  0.0399  0.8636
  530MOL0     C71475   1.061   9.571  -0.352  1.1188 -0.1591 -0.1625
  530MOL0     C71476   0.915   9.636  -0.382  0.9108  0.5184 -0.4835
  530MOL0     C71477   0.933   9.763  -0.468 -0.3503 -0.0817  0.7640
  530MOL0     C71478   0.940   9.744  -0.619 -0.4845  0.9265  0.9579
  530MOL0     C71479   1.073   9.695  -0.672 -0.4072  0.6273 -0.5038
  530MOL0     C71480   1.180   9.646  -0.692  0.6562 -0.6343 -0.0167
  530MOL0     C71481   1.072   9.570  -0.054 -0.2578  0.0264  0.3310
  530MOL0     C71482   1.048   9.578   0.082  1.8210 -0.4207 -0.0108
  530MOL0     H71483   1.054   9.208   0.446  1.0290  1.5955  0.1454
  530MOL0     H71484   1.072   9.167   0.696 -1.3035 -1.2888 -0.9908
  530MOL0     H71485   0.764   9.329   0.977 -0.1861 -0.0139 -1.7803
  530MOL0     H71486   0.726   9.171   0.937 -1.1741  1.0265 -2.1933
  530MOL0     H71487   0.943   9.115   1.098 -1.1435 -1.6808  0.2255
  530MOL0     H71488   0.922   9.299   1.124 -0.7463  0.6281  1.4614
  530MOL0     H71489   0.831   9.211   1.316 -0.6060  1.3128  0.2035
  530MOL0     H71490   0.685   9.240   1.214  0.1971  0.4624 -0.8554
  530MOL0     H71491   0.836   8.982   1.296 -1.2505 -1.4971  2.0781
  530MOL0     H71492   0.668   9.011   1.332 -0.4535 -1.5599 -0.0132
  530MOL0     H71493   0.610   8.998   1.094 -0.3269 -1.6686 -1.4190
  530MOL0     H71494   0.769   8.945   1.052 -0.9623  1.6153 -1.1679
  530MOL0     H71495   0.537   8.813   1.176 -0.0053 -0.5453  1.7191
  530MOL0     H71496   0.666   8.741   1.070  0.0366 -0.4745 -0.1327
  530MOL0     H71497   0.798   8.697   1.272 -0.5082 -2.8740  0.1100
  530MOL0     H71498   0.687   8.807   1.361 -0.5422 -0.9459 -0.3862
  530MOL0     H71499   0.589   8.567   1.215  1.5741  1.0082 -0.0630
  530MOL0     H71500   0.499   8.674   1.314  0.4354  0.4626  1.5201
  530MOL0     H71501   0.554   8.683   1.554 -1.7513  0.4180  0.0872
  530MOL0     H71502   0.570   8.350   1.773 -1.4424  0.8004 -4.3732
  530MOL0     H71503   0.712   8.460   1.807 -0.6790  1.1776 -1.1300
  530MOL0     H71504   0.422   8.550   1.766 -1.8443  0.5042  2.2414
  530MOL0     H71505   0.549   8.661   1.812 -3.2186  1.0889  2.1468
  530MOL0     H71506   0.436   8.426   1.968  1.6774 -0.3163 -3.7881
  530MOL0     H71507   0.397   8.598   1.984 -2.4435 -2.1254 -1.8590
  530MOL0     H71508   0.635   8.650   2.037 -3.6539  0.8363 -3.6089
  530MOL0     H71509   0.680   8.487   2.071  1.6245  2.3703 -0.4563
  530MOL0     H71510   0.514   8.585   2.442 -6.0558 -0.4453 -0.9529
  530MOL0     H71511   0.566   8.552   2.670  2.1545 -0.7434  3.1082
  530MOL0     H71512   0.440   8.445   2.697 -0.3577  2.8465 -0.3953
  530MOL0     H71513   0.599   8.398   2.735  0.2924 -0.5386 -0.7704
  530MOL0     H71514   0.755   7.985   2.750 -0.7730  1.0975 -1.3771
  530MOL0     H71515   0.716   7.777   2.889 -1.3012 -1.3717  0.3379
  530MOL0     H71516   0.692   7.541   2.950  0.5984  2.4649  0.0427
  530MOL0     H71517   0.543   7.635   2.977 -1.0110 -1.3264  0.8070
  530MOL0     H71518   0.407   7.453   2.983  0.7581  1.3878 -1.1286
  530MOL0     H71519   0.529   7.335   2.919 -1.9761 -0.7894  0.1938
  530MOL0     H71520   0.531   7.501   3.181  3.0706  0.2498  1.6583
  530MOL0     H71521   0.662   7.384   3.127 -0.3706  0.6898  1.4310
  530MOL0     H71522   0.499   7.213   3.126  2.2963  0.1345  0.9184
  530MOL0     H71523   0.561   7.266   3.272  1.6885  1.2552 -0.3352
  530MOL0     H71524   0.295   7.345   3.154  2.3306  0.0047 -1.7700
  530MOL0     H71525   0.356   7.406   3.311  0.7523  0.1671 -0.9246
  530MOL0     H71526   0.323   7.112   3.255  1.5278 -1.1411  1.0599
  530MOL0     H71527   0.392   7.173   3.394  1.6482  2.3781 -1.8203
  530MOL0     H71528   0.099   7.212   3.317 -0.7221  3.9022  0.5719
  530MOL0     H71529   0.169   7.302   3.446 -2.1185 -0.8169  2.0440
  530MOL0     H71530   0.137   7.010   3.408 -0.1284 -1.1504  1.9542
  530MOL0     H71531   0.043   7.105   3.517  0.7535 -0.7302  0.3543
  530MOL0     H71532   0.480   7.630   2.571  1.4290  1.2621 -0.6821
  530MOL0     H71533   0.504   7.838   2.450  1.2820  0.3983  0.7449
  530MOL0     H71534   0.628   8.127   2.302  1.3234  0.5495 -0.7285
  530MOL0     H71535   0.596   8.290   2.140 -2.4997  1.7570 -0.4502
  530MOL0     H71536   0.747   9.440   0.781  0.7054  3.5910 -0.9703
  530MOL0     H71537   0.722   9.481   0.533  1.6704  1.7202  0.2349
  530MOL0     H71538   0.928   9.264   0.108 -1.8168  0.2387 -0.5154
  530MOL0     H71539   0.954   9.273  -0.139  2.7449 -0.5158 -2.3164
  530MOL0     H71540   1.130   9.641  -0.303  0.6637 -0.2605  0.6369
  530MOL0     H71541   1.097   9.552  -0.453  0.7026  1.7081 -0.7059
  530MOL0     H71542   0.873   9.653  -0.282 -0.2458 -2.2634 -0.4094
  530MOL0     H71543   0.849   9.562  -0.427  1.3208 -0.4735  0.4931
  530MOL0     H71544   1.017   9.822  -0.429 -3.7721  4.5261  1.9321
  530MOL0     H71545   0.844   9.823  -0.449  0.3993  1.1503  0.4722
  530MOL0     H71546   0.939   9.845  -0.661  1.4062  0.1288 -1.2434
  530MOL0     H71547   0.858   9.675  -0.641  1.6219 -1.2028 -0.7466
  530MOL0     H71548   1.277   9.609  -0.720  1.5385  0.3062  1.6604
  530MOL0     H71549   1.107   9.666  -0.091 -0.5273  0.4213  1.0690
  530MOL0     H71550   1.068   9.675   0.127 -0.6560 -0.1014  0.5635
  531MOL0     O71551   0.162   9.177   9.580 -0.3682  0.2152  0.9688
  531MOL0     C71552   0.142   9.201   9.698  0.4037  0.7171 -0.0926
  531MOL0     O71553   0.152   9.113   9.798  0.6989  0.2540 -0.0473
  531MOL0     C71554   0.210   8.988   9.793 -0.1096 -0.4339  0.6655
  531MOL0     C71555   0.188   8.895   9.896 -0.6458 -0.4489 -0.2627
  531MOL0     C71556   0.239   8.762   9.888 -0.0279  0.0661  0.1034
  531MOL0     C71557   0.314   8.721   9.774 -0.2761  0.2025 -0.8615
  531MOL0     O71558   0.369   8.592   9.754  0.0444  0.4678 -0.1586
  531MOL0     C71559   0.304   8.480   9.802  0.7876  0.1556 -0.7212
  531MOL0     C71560   0.249   8.413   9.675 -0.1867  0.1501 -0.3107
  531MOL0     C71561   0.182   8.277   9.698  0.6267 -0.1596  0.4624
  531MOL0     C71562   0.147   8.210   9.569 -0.0966 -0.2844 -0.1552
  531MOL0     C71563   0.079   8.072   9.587 -0.2155  0.5683 -0.1364
  531MOL0     C71564   0.055   7.993   9.454  1.1502 -0.2132 -1.2645
  531MOL0     C71565   0.176   7.952   9.383  0.2583  0.0573  1.0401
  531MOL0     C71566   0.150   7.876   9.248 -0.5079  0.1983 -0.4706
  531MOL0     N71567   0.265   7.822   9.191 -0.6471  0.1405  0.4604
  531MOL0     C71568   0.265   7.770   9.069  0.0796  0.1230  0.2755
  531MOL0     C71569   0.397   7.750   9.031  0.6192  0.5731 -0.8137
  531MOL0     C71570   0.442   7.681   8.904 -0.4630  0.5832 -0.6766
  531MOL0     C71571   0.446   7.779   8.787  0.7621  0.3161  0.5006
  531MOL0     C71572   0.554   7.895   8.810  0.0137  0.5822  0.3830
  531MOL0     C71573   0.701   7.847   8.807  0.2675  0.1449 -0.0340
  531MOL0     O71574   0.729   7.743   8.713 -0.5376  0.3773  0.1918
  531MOL0     C71575   0.861   7.717   8.656 -0.0440 -0.1327  0.6312
  531MOL0     C71576   0.970   7.794   8.690 -0.7357 -0.2405 -0.1178
  531MOL0     C71577   1.095   7.766   8.627  0.3533 -0.8154 -0.5081
  531MOL0     C71578   1.205   7.859   8.674  0.1238  0.3980  0.9272
  531MOL0     C71579   1.109   7.662   8.534  0.7155  0.8899 -0.2173
  531MOL0     C71580   1.238   7.625   8.479 -1.0232 -0.3064 -0.3553
  531MOL0     O71581   1.340   7.601   8.564  0.3705  1.5677 -0.9463
  531MOL0     C71582   1.469   7.581   8.520 -0.2070 -0.0887 -0.7083
  531MOL0     C71583   1.543   7.676   8.441  0.6771  0.1771  0.2569
  531MOL0     C71584   1.686   7.666   8.433  0.6969 -0.4956  0.0929
  531MOL0     C71585   1.753   7.562   8.487 -1.0419  0.0813 -0.3271
  531MOL0     O71586   1.885   7.547   8.485  0.3001  0.4778 -0.0263
  531MOL0     C71587   1.978   7.641   8.432  0.3762  0.5211 -0.6060
  531MOL0     C71588   2.111   7.576   8.472 -0.1802 -0.2552 -0.1957
  531MOL0     C71589   2.243   7.667   8.439  0.2444  0.2961 -0.1357
  531MOL0     C71590   2.257   7.805   8.512  0.2819  0.3664  0.6505
  531MOL0     C71591   2.389   7.873   8.478 -0.7150  0.4855 -0.4727
  531MOL0     C71592   2.437   7.873   8.331 -0.4405  0.5893  0.0533
  531MOL0     C71593   2.338   7.938   8.228 -1.4123 -0.5683 -0.8096
  531MOL0     C71594   2.411   7.931   8.087  0.1312 -0.2155  0.5704
  531MOL0    Cl71595   2.317   8.017   7.966  0.0357 -0.2195  0.5462
  531MOL0     C71596   1.676   7.463   8.552  0.2610  0.4470 -0.4103
  531MOL0     C71597   1.538   7.475   8.574  0.6592  0.2892 -0.3146
  531MOL0     O71598   1.246   7.606   8.359 -0.0257  0.0845  0.5948
  531MOL0     C71599   0.995   7.577   8.508  0.1161  0.1686  0.4142
  531MOL0     C71600   0.877   7.608   8.569  0.4737 -0.0536 -0.1429
  531MOL0     N71601   0.480   7.775   9.138 -0.1489  0.3245  0.2580
  531MOL0     N71602   0.397   7.824   9.227  0.4133  0.7643  0.4130
  531MOL0     C71603   0.347   8.811   9.683  0.6395  0.1671  1.1395
  531MOL0     C71604   0.293   8.943   9.688  0.4810  0.7757  0.0938
  531MOL0     C71605   0.072   9.329   9.723  0.3291  0.6345  0.4766
  531MOL0     C71606   0.055   9.425   9.623 -0.8063 -0.4255 -0.1972
  531MOL0     C71607  -0.023   9.540   9.652  0.3766 -0.4613 -0.3322
  531MOL0     C71608  -0.091   9.560   9.771  0.0056 -0.4020  0.1011
  531MOL0     O71609  -0.154   9.683   9.780 -1.1666 -0.7453 -0.3916
  531MOL0     C71610  -0.276   9.693   9.708 -0.0707 -0.0505 -0.2575
  531MOL0     C71611  -0.397   9.627   9.785  0.8753 -0.3377  0.5317
  531MOL0     C71612  -0.522   9.614   9.698  0.5803  0.5933 -0.7863
  531MOL0     C71613  -0.612   9.498   9.742  0.5650  0.0799  0.7618
  531MOL0     C71614  -0.705   9.460   9.629 -0.1160 -0.0199 -0.2209
  531MOL0     C71615  -0.774   9.446   9.531  1.0848  0.1951 -0.1602
  531MOL0     C71616  -0.069   9.462   9.876 -0.0945 -0.3811 -0.3697
  531MOL0     C71617   0.005   9.353   9.844 -0.9353 -0.0188 -0.4701
  531MOL0     H71618   0.121   8.923   9.978  3.5747  3.8014  2.2462
  531MOL0     H71619   0.208   8.691   9.964  1.4421 -1.3336 -0.5280
  531MOL0     H71620   0.377   8.426   9.864 -0.5742  1.1595  1.9522
  531MOL0     H71621   0.218   8.494   9.868 -0.9431  2.1416 -3.2150
  531MOL0     H71622   0.174   8.481   9.633 -0.7128 -1.3153 -1.8272
  531MOL0     H71623   0.337   8.406   9.610  1.5068 -0.5145  1.9195
  531MOL0     H71624   0.244   8.205   9.752 -1.1395 -2.8282 -0.8469
  531MOL0     H71625   0.093   8.301   9.756 -0.3213 -0.1700 -0.9374
  531MOL0     H71626   0.082   8.273   9.508  1.8292  1.2364 -0.7234
  531MOL0     H71627   0.247   8.203   9.524  1.0715  6.7013  0.2122
  531MOL0     H71628   0.144   8.013   9.652 -0.3937 -0.1520 -0.6065
  531MOL0     H71629  -0.015   8.080   9.643 -1.7024  3.2777 -2.7131
  531MOL0     H71630  -0.002   7.904   9.480 -0.8868  0.8814 -1.7945
  531MOL0     H71631  -0.014   8.059   9.400 -0.3585 -0.2994  0.4873
  531MOL0     H71632   0.221   8.046   9.351 -2.4213  1.9115  2.3735
  531MOL0     H71633   0.240   7.894   9.451 -0.2717 -0.9489  0.6931
  531MOL0     H71634   0.106   7.944   9.174 -0.9650 -0.3934 -0.7480
  531MOL0     H71635   0.074   7.799   9.262 -2.2005  2.0192  0.9465
  531MOL0     H71636   0.175   7.754   9.011 -0.2557 -2.4693  1.3297
  531MOL0     H71637   0.542   7.642   8.927 -1.5906 -0.9823  2.1122
  531MOL0     H71638   0.372   7.599   8.888 -1.0865  1.4587 -2.8807
  531MOL0     H71639   0.346   7.824   8.793  0.8529  0.5605  0.1949
  531MOL0     H71640   0.459   7.727   8.691  0.3129 -2.0849  1.6724
  531MOL0     H71641   0.534   7.948   8.904 -1.1002  1.2149 -0.1868
  531MOL0     H71642   0.550   7.970   8.730 -1.1251  2.2532  1.9161
  531MOL0     H71643   0.728   7.839   8.913 -0.3493 -1.7551  0.0226
  531MOL0     H71644   0.770   7.923   8.770  0.2787 -1.2502 -3.1308
  531MOL0     H71645   0.958   7.876   8.760  0.7816 -0.7585  0.8051
  531MOL0     H71646   1.267   7.801   8.743 -0.7613  0.3259  1.7029
  531MOL0     H71647   1.266   7.896   8.592  2.4159 -2.9524  0.9482
  531MOL0     H71648   1.165   7.941   8.735  3.8959 -0.5863  5.2625
  531MOL0     H71649   1.485   7.761   8.406 -1.4627 -0.2382  2.4717
  531MOL0     H71650   1.722   7.737   8.360 -3.9744  3.0139  0.6788
  531MOL0     H71651   1.974   7.657   8.323 -0.7183 -0.6112 -0.7539
  531MOL0     H71652   1.968   7.736   8.485 -1.4144  0.4944 -0.8520
  531MOL0     H71653   2.103   7.544   8.576 -1.0268 -2.6791 -0.9349
  531MOL0     H71654   2.127   7.479   8.424  3.4529 -2.8711  5.2647
  531MOL0     H71655   2.246   7.698   8.334  0.4072 -1.2148 -0.6018
  531MOL0     H71656   2.332   7.608   8.462  0.2627 -0.0993 -1.1441
  531MOL0     H71657   2.179   7.869   8.472  0.9545  0.2394 -0.9306
  531MOL0     H71658   2.248   7.798   8.621  0.8629 -1.0678  0.6306
  531MOL0     H71659   2.466   7.824   8.537 -2.4342 -0.1612  1.3477
  531MOL0     H71660   2.395   7.975   8.517 -0.4764 -0.6803  2.8631
  531MOL0     H71661   2.535   7.919   8.317 -0.7226  0.7114 -1.7428
  531MOL0     H71662   2.458   7.770   8.303  1.5233  1.8008 -3.5530
  531MOL0     H71663   2.319   8.043   8.251  2.6914  0.4141 -1.1516
  531MOL0     H71664   2.244   7.882   8.225 -1.8907  0.0755  1.0073
  531MOL0     H71665   2.400   7.829   8.049 -1.1616  1.0215 -2.7486
  531MOL0     H71666   2.518   7.955   8.093  0.6944 -2.4209  0.3213
  531MOL0     H71667   1.727   7.375   8.588 -2.8001 -1.2180  0.1731
  531MOL0     H71668   1.482   7.405   8.634 -2.3732  1.2581 -1.8179
  531MOL0     H71669   0.996   7.489   8.444  2.0952 -0.7477  1.6086
  531MOL0     H71670   0.798   7.533   8.571 -0.9581  1.3543  2.4851
  531MOL0     H71671   0.409   8.786   9.598  0.6362 -1.8026  1.6537
  531MOL0     H71672   0.329   9.002   9.604 -0.7106  0.9640 -0.2978
  531MOL0     H71673   0.085   9.420   9.519 -1.3540  0.3018 -0.3945
  531MOL0     H71674  -0.038   9.616   9.576 -3.8321 -1.6876 -1.0143
  531MOL0     H71675  -0.299   9.798   9.685 -3.6503 -0.5517  0.3327
  531MOL0     H71676  -0.268   9.644   9.611 -2.1682  0.9887 -1.0314
  531MOL0     H71677  -0.424   9.668   9.883 -0.9269 -1.9147  0.7585
  531MOL0     H71678  -0.357   9.528   9.809 -1.5575 -0.9485  2.3939
  531MOL0     H71679  -0.477   9.597   9.600  2.2167  4.2844 -0.8836
  531MOL0     H71680  -0.575   9.710   9.696 -1.8559 -0.6464  0.0248
  531MOL0     H71681  -0.659   9.501   9.840  2.1686  1.3960  1.5523
  531MOL0     H71682  -0.537   9.418   9.748  0.1980 -0.3682 -0.3818
  531MOL0     H71683  -0.828   9.442   9.439  0.0143  1.9065  0.3588
  531MOL0     H71684  -0.127   9.472   9.966  2.2379  1.7067  1.0357
  531MOL0     H71685   0.027   9.281   9.922  0.2784  1.5970  0.7418
  532MOL0     O71686   0.678   4.671   7.048  0.2778 -0.7214  0.0238
  532MOL0     C71687   0.576   4.716   7.094  0.4334 -0.8894 -0.6471
  532MOL0     O71688   0.456   4.738   7.025  0.5508  0.4422  0.6547
  532MOL0     C71689   0.460   4.742   6.889  0.2699  0.8636  0.7973
  532MOL0     C71690   0.559   4.801   6.811  0.5645 -0.4518  0.5159
  532MOL0     C71691   0.540   4.811   6.675  0.4655  0.0234  0.4408
  532MOL0     C71692   0.444   4.753   6.602 -0.5607 -0.8882  0.8447
  532MOL0     O71693   0.438   4.775   6.461 -0.5640  0.6925 -0.1446
  532MOL0     C71694   0.351   4.694   6.381 -0.0645  0.1072  0.1400
  532MOL0     C71695   0.378   4.736   6.231 -0.1403  0.9324  0.3959
  532MOL0     C71696   0.527   4.710   6.202  0.0527 -1.0148 -1.1732
  532MOL0     C71697   0.600   4.841   6.168 -0.4309 -0.4959 -0.1415
  532MOL0     C71698   0.752   4.802   6.144  0.7425  0.1759 -0.0680
  532MOL0     C71699   0.834   4.918   6.087  0.1134  0.4272 -1.2509
  532MOL0     C71700   0.814   4.930   5.933  0.5741 -0.1691 -0.0321
  532MOL0     C71701   0.714   5.040   5.885 -0.2755  0.0709 -1.1935
  532MOL0     N71702   0.745   5.180   5.921  0.7958 -0.9808  0.5144
  532MOL0     C71703   0.688   5.256   6.007  0.0185  0.4092  0.3868
  532MOL0     C71704   0.761   5.368   6.001  0.1298  0.0387 -0.5320
  532MOL0     C71705   0.731   5.493   6.062 -0.3580 -0.1634  0.5531
  532MOL0     C71706   0.768   5.483   6.211  0.6705 -0.0063 -0.1995
  532MOL0     C71707   0.793   5.621   6.272 -0.1661  0.7125 -0.0578
  532MOL0     C71708   0.935   5.669   6.231  0.5794  0.3385  0.2843
  532MOL0     O71709   0.957   5.805   6.262 -0.3157  0.5812 -0.0798
  532MOL0     C71710   1.080   5.863   6.229  1.4248  0.4233 -0.0053
  532MOL0     C71711   1.198   5.800   6.258 -0.5114 -1.4200 -0.0037
  532MOL0     C71712   1.321   5.857   6.210  0.3399  0.4991  0.3549
  532MOL0     C71713   1.446   5.776   6.265  0.2025 -0.5083 -0.3578
  532MOL0     C71714   1.320   5.976   6.132 -0.3155  0.0565 -1.0861
  532MOL0     C71715   1.428   6.044   6.059  0.3476  0.9113  0.2855
  532MOL0     O71716   1.493   5.972   5.969  0.4470  0.2393  0.3611
  532MOL0     C71717   1.619   6.012   5.933  0.6076  0.2845  0.5879
  532MOL0     C71718   1.652   6.142   5.887 -0.2230 -0.6685 -0.2217
  532MOL0     C71719   1.781   6.176   5.851  0.3909 -0.1503  0.9145
  532MOL0     C71720   1.889   6.082   5.863  0.8321  0.1729  0.1706
  532MOL0     O71721   2.021   6.115   5.836  0.2090 -0.0205  0.4093
  532MOL0     C71722   2.109   6.008   5.838 -0.1288  0.5591 -0.9891
  532MOL0     C71723   2.228   6.045   5.759 -0.4415 -0.5012 -0.0790
  532MOL0     C71724   2.297   6.164   5.834 -0.3470  0.2669 -0.0640
  532MOL0     C71725   2.448   6.177   5.796  0.1291 -0.3228 -0.4642
  532MOL0     C71726   2.540   6.286   5.859  0.4951 -0.9848 -0.4260
  532MOL0     C71727   2.477   6.426   5.870 -0.1344 -0.7886 -0.8363
  532MOL0     C71728   2.499   6.512   5.743 -0.4750  0.3679 -0.4864
  532MOL0     C71729   2.395   6.621   5.724  0.1063  1.1036 -0.9403
  532MOL0    Cl71730   2.227   6.568   5.692  0.4606 -0.3233  0.3149
  532MOL0     C71731   1.851   5.957   5.911 -0.1278  0.0234  0.0294
  532MOL0     C71732   1.719   5.919   5.947 -0.4617  0.1766  0.5172
  532MOL0     O71733   1.435   6.164   6.079 -0.3460  0.4198  0.4745
  532MOL0     C71734   1.190   6.041   6.131 -0.1613  0.3147  1.2662
  532MOL0     C71735   1.070   5.985   6.174  0.3203  0.8642 -0.3618
  532MOL0     N71736   0.865   5.346   5.919  0.1715 -0.6198  0.5118
  532MOL0     N71737   0.855   5.230   5.873  0.0704  0.3250  0.3164
  532MOL0     C71738   0.341   4.681   6.671 -0.3347  1.1783  0.2617
  532MOL0     C71739   0.349   4.683   6.814 -0.6608 -0.3969 -0.2187
  532MOL0     C71740   0.577   4.723   7.243 -0.4213 -0.1720  0.0632
  532MOL0     C71741   0.460   4.759   7.314 -0.3713 -0.5373  0.6129
  532MOL0     C71742   0.459   4.772   7.453 -0.3484  0.6652  0.0328
  532MOL0     C71743   0.574   4.756   7.526  1.4322  0.0172  0.0079
  532MOL0     O71744   0.571   4.773   7.664  0.6350 -1.6941  1.5959
  532MOL0     C71745   0.692   4.836   7.706  0.0711  0.6977 -0.4415
  532MOL0     C71746   0.664   4.857   7.847 -0.7941  0.5897  0.7267
  532MOL0     C71747   0.657   4.729   7.933 -0.0207 -0.4139 -0.8698
  532MOL0     C71748   0.592   4.761   8.069  0.2981  0.3537  0.1111
  532MOL0     C71749   0.600   4.652   8.158 -0.0992  0.5008 -0.2133
  532MOL0     C71750   0.621   4.550   8.217  0.1759  0.4086  0.1541
  532MOL0     C71751   0.687   4.726   7.454  0.5768 -0.2733  0.8392
  532MOL0     C71752   0.695   4.708   7.312 -0.7455 -0.0020 -1.2843
  532MOL0     H71753   0.652   4.839   6.854  2.1739 -1.8786 -1.5279
  532MOL0     H71754   0.621   4.857   6.618  0.0934  1.0443  0.7040
  532MOL0     H71755   0.376   4.589   6.398  1.1454  0.3177 -0.2874
  532MOL0     H71756   0.246   4.711   6.407  0.7881  2.5302  2.4223
  532MOL0     H71757   0.321   4.666   6.170  1.7189 -1.4224  1.1842
  532MOL0     H71758   0.358   4.843   6.226  0.0911  0.9545 -0.2057
  532MOL0     H71759   0.576   4.655   6.283 -2.1622  1.2345  1.9371
  532MOL0     H71760   0.545   4.652   6.111  1.2996 -0.5106 -1.2687
  532MOL0     H71761   0.559   4.889   6.079 -0.8206 -1.0390 -0.2579
  532MOL0     H71762   0.589   4.918   6.245  0.0376  0.9197 -1.4217
  532MOL0     H71763   0.784   4.765   6.241  4.7988  1.1965 -0.8292
  532MOL0     H71764   0.751   4.718   6.073 -2.0513 -0.8271  1.0346
  532MOL0     H71765   0.777   5.007   6.115 -1.0392  0.3159 -3.0611
  532MOL0     H71766   0.935   4.926   6.129 -0.2068 -3.5986  0.8349
  532MOL0     H71767   0.912   4.948   5.888  0.3413 -2.7700 -1.8326
  532MOL0     H71768   0.796   4.831   5.889  1.1182  0.3273 -1.4386
  532MOL0     H71769   0.613   5.013   5.916 -0.8284  3.6903  0.7201
  532MOL0     H71770   0.714   5.024   5.777 -2.6711 -2.1930 -0.9620
  532MOL0     H71771   0.596   5.226   6.057 -0.5779  0.7306 -0.4866
  532MOL0     H71772   0.775   5.582   6.016 -0.0689  1.1173  3.1471
  532MOL0     H71773   0.624   5.510   6.046 -0.0616  0.1477 -1.2746
  532MOL0     H71774   0.855   5.418   6.221  0.1227 -0.7367 -0.0390
  532MOL0     H71775   0.683   5.439   6.265 -1.0937  0.0289 -2.7381
  532MOL0     H71776   0.803   5.611   6.380 -2.1835  1.3946  0.2397
  532MOL0     H71777   0.718   5.700   6.255  0.4149  1.4381  0.6669
  532MOL0     H71778   0.944   5.655   6.123  0.1144 -2.9174  0.5522
  532MOL0     H71779   1.009   5.608   6.284  0.8833  0.3535 -0.1225
  532MOL0     H71780   1.192   5.702   6.305 -1.8116 -3.1173 -3.3736
  532MOL0     H71781   1.527   5.768   6.191 -0.4458 -2.3918 -0.9176
  532MOL0     H71782   1.511   5.824   6.339  2.8769  3.4591 -4.6701
  532MOL0     H71783   1.410   5.680   6.303 -0.4366 -0.5182 -0.9756
  532MOL0     H71784   1.567   6.209   5.885  0.7681  0.6169 -1.3889
  532MOL0     H71785   1.809   6.278   5.825  0.0122 -0.3060 -0.1655
  532MOL0     H71786   2.147   5.989   5.938  2.4534 -0.9621 -2.1552
  532MOL0     H71787   2.070   5.920   5.786  4.0328 -1.5607 -0.9235
  532MOL0     H71788   2.302   5.966   5.744  0.3765  0.3618 -0.7365
  532MOL0     H71789   2.197   6.080   5.660 -1.4137 -2.4093 -0.4802
  532MOL0     H71790   2.301   6.139   5.940 -1.2098 -0.6882 -0.2418
  532MOL0     H71791   2.243   6.259   5.823 -1.4124 -0.3427 -0.2172
  532MOL0     H71792   2.500   6.083   5.817 -0.4363 -0.7401 -0.9004
  532MOL0     H71793   2.463   6.185   5.688  1.3254 -2.2022 -0.4853
  532MOL0     H71794   2.624   6.288   5.790  2.2869  0.3458  1.6498
  532MOL0     H71795   2.560   6.253   5.962  3.4468 -3.9353 -1.8032
  532MOL0     H71796   2.368   6.426   5.877 -0.1727 -0.2716 -1.3491
  532MOL0     H71797   2.518   6.485   5.952 -1.9093  1.6603 -1.6026
  532MOL0     H71798   2.487   6.444   5.658 -4.8932 -0.7196  0.7341
  532MOL0     H71799   2.599   6.554   5.729 -0.6248  1.6377  1.8701
  532MOL0     H71800   2.429   6.688   5.645  2.6604 -0.6427 -1.4736
  532MOL0     H71801   2.402   6.669   5.822  4.2050 -0.0892 -0.4351
  532MOL0     H71802   1.924   5.876   5.915 -2.6949 -2.4070  2.2678
  532MOL0     H71803   1.690   5.817   5.971  2.9602 -0.7024  1.5400
  532MOL0     H71804   1.175   6.142   6.094 -0.2919  1.1164  3.3643
  532MOL0     H71805   0.975   6.037   6.173 -0.6297 -0.7455  1.1334
  532MOL0     H71806   0.258   4.630   6.623 -1.2545 -0.5849  3.4650
  532MOL0     H71807   0.278   4.622   6.869  0.0535 -1.8241 -0.8240
  532MOL0     H71808   0.372   4.776   7.253 -0.1279  0.8487  0.6044
  532MOL0     H71809   0.356   4.778   7.489  0.3840  0.3656  2.3537
  532MOL0     H71810   0.790   4.787   7.697 -0.1887 -0.6043  2.4249
  532MOL0     H71811   0.701   4.936   7.664 -0.6066  3.1393  4.4241
  532MOL0     H71812   0.566   4.906   7.840 -1.2375 -0.1218  1.6717
  532MOL0     H71813   0.741   4.928   7.880 -0.3506  1.8703 -2.7023
  532MOL0     H71814   0.754   4.682   7.950  0.4535  1.4852  2.6353
  532MOL0     H71815   0.598   4.658   7.874 -1.9977  0.9407 -0.6328
  532MOL0     H71816   0.488   4.786   8.045  0.2672 -0.1075 -0.2633
  532MOL0     H71817   0.627   4.854   8.116 -0.6187  0.5746  0.3718
  532MOL0     H71818   0.631   4.450   8.254  0.0024 -0.7666 -2.6509
  532MOL0     H71819   0.778   4.706   7.511  2.5915 -0.7381 -2.3056
  532MOL0     H71820   0.787   4.696   7.256  1.9656  0.4464  2.6572
  533MOL0     O71821   7.103   2.511  10.051 -0.6436 -0.6739  1.0057
  533MOL0     C71822   7.083   2.434  10.146  0.8095 -0.8086  0.0363
  533MOL0     O71823   7.010   2.474  10.253  0.1383 -0.2737 -0.4949
  533MOL0     C71824   6.963   2.600  10.285  0.1297 -0.0670  1.0840
  533MOL0     C71825   6.994   2.721  10.219 -0.2159  0.1019 -0.4001
  533MOL0     C71826   6.929   2.843  10.257  0.5587 -0.6981 -0.5388
  533MOL0     C71827   6.834   2.846  10.366  0.4738  0.7948 -0.0410
  533MOL0     O71828   6.776   2.960  10.410  1.1181  0.2967 -1.0368
  533MOL0     C71829   6.824   3.094  10.393 -0.3398 -0.4740 -0.4075
  533MOL0     C71830   6.721   3.200  10.442 -0.0277 -0.6029  0.3264
  533MOL0     C71831   6.763   3.347  10.406  0.1872  1.3782  0.6126
  533MOL0     C71832   6.643   3.441  10.434  0.5524  1.0817  0.0005
  533MOL0     C71833   6.691   3.588  10.421  0.1698  0.1248 -0.1045
  533MOL0     C71834   6.610   3.691  10.501 -0.7370  1.0048 -0.2146
  533MOL0     C71835   6.605   3.837  10.448 -0.0030 -0.2752 -0.8639
  533MOL0     C71836   6.597   3.943  10.552 -0.2506 -1.5178 -0.5358
  533MOL0     N71837   6.527   4.063  10.493  0.6121  0.9215  0.2499
  533MOL0     C71838   6.385   4.077  10.497 -1.3577 -0.8295 -0.1982
  533MOL0     C71839   6.363   4.207  10.458 -0.5571 -0.0324  0.1545
  533MOL0     C71840   6.226   4.256  10.447  0.5375  0.9490  0.9306
  533MOL0     C71841   6.164   4.203  10.318  0.4612 -0.1672  0.2574
  533MOL0     C71842   6.016   4.215  10.320 -0.7424 -0.5641 -0.3080
  533MOL0     C71843   5.945   4.142  10.435 -0.0147  0.0631  0.4078
  533MOL0     O71844   5.932   4.212  10.560 -0.1089  0.3824 -0.3033
  533MOL0     C71845   5.818   4.275  10.588 -0.7021  0.0276 -0.9129
  533MOL0     C71846   5.718   4.323  10.504 -0.3731 -0.0781  0.0793
  533MOL0     C71847   5.620   4.409  10.548  0.4457  0.3857 -0.1429
  533MOL0     C71848   5.536   4.473  10.446  0.1990  0.2198 -0.2634
  533MOL0     C71849   5.601   4.430  10.687  0.4877  0.0977 -0.2444
  533MOL0     C71850   5.510   4.526  10.762 -0.4284  0.2590  0.2239
  533MOL0     O71851   5.561   4.582  10.873  0.1920 -0.0893  0.2820
  533MOL0     C71852   5.479   4.645  10.956  0.2039 -0.4424 -0.0910
  533MOL0     C71853   5.550   4.724  11.050  0.0456 -0.4966 -0.4834
  533MOL0     C71854   5.480   4.768  11.166 -0.8025  0.0742  0.9389
  533MOL0     C71855   5.343   4.753  11.185  0.1575  0.1249  0.4897
  533MOL0     O71856   5.275   4.799  11.296  0.2422 -0.5804  0.2071
  533MOL0     C71857   5.291   4.945  11.309 -0.5029 -0.2880  0.0606
  533MOL0     C71858   5.178   5.001  11.398 -0.5236 -0.2074  0.7331
  533MOL0     C71859   5.036   4.984  11.353  1.1051  0.6285  0.0144
  533MOL0     C71860   4.945   5.000  11.469 -0.0840  0.1707  0.2110
  533MOL0     C71861   4.794   5.002  11.442  0.2281 -0.2149  0.3170
  533MOL0     C71862   4.716   5.040  11.573 -0.3472 -0.3567  0.1475
  533MOL0     C71863   4.724   5.194  11.585  0.8560  0.3791 -1.0339
  533MOL0     C71864   4.636   5.228  11.694 -0.2516  0.4770 -0.1619
  533MOL0    Cl71865   4.675   5.141  11.842  0.2269 -0.3029  0.1522
  533MOL0     C71866   5.272   4.665  11.102 -0.1087  0.1177 -0.0568
  533MOL0     C71867   5.342   4.619  10.984  0.4633 -0.7983 -0.8334
  533MOL0     O71868   5.414   4.556  10.701 -0.4503 -0.4277 -0.6432
  533MOL0     C71869   5.688   4.352  10.775  0.5637  0.1318  0.4019
  533MOL0     C71870   5.797   4.290  10.728  0.5914  0.3330  1.0684
  533MOL0     N71871   6.484   4.270  10.429 -0.4520  0.1034 -0.0785
  533MOL0     N71872   6.582   4.185  10.446  0.4278 -0.0300  0.4236
  533MOL0     C71873   6.814   2.725  10.430 -0.0824 -0.5257 -0.2001
  533MOL0     C71874   6.877   2.608  10.392 -0.1956 -0.1020  0.5300
  533MOL0     C71875   7.145   2.301  10.156  0.0851  0.1258  0.6820
  533MOL0     C71876   7.118   2.213  10.261 -0.1308 -0.0355 -0.7081
  533MOL0     C71877   7.198   2.103  10.269  0.5444  1.1261  1.0525
  533MOL0     C71878   7.285   2.058  10.171  0.9874  0.8577 -1.1124
  533MOL0     O71879   7.339   1.930  10.170 -1.5074 -0.1983  0.4083
  533MOL0     C71880   7.325   1.822  10.262 -0.4402 -0.0793  0.6548
  533MOL0     C71881   7.407   1.840  10.387 -0.1378 -0.2260  0.2955
  533MOL0     C71882   7.556   1.817  10.369  0.2199  0.9272  0.0210
  533MOL0     C71883   7.641   1.847  10.496  0.8626 -0.0260 -0.7482
  533MOL0     C71884   7.776   1.848  10.454  0.1623  0.1794  0.4243
  533MOL0     C71885   7.884   1.880  10.411 -0.5004 -0.5107 -0.7176
  533MOL0     C71886   7.293   2.138  10.065 -0.7272  0.1575  0.8264
  533MOL0     C71887   7.244   2.268  10.066  0.0421  0.6956  0.4279
  533MOL0     H71888   7.056   2.720  10.130 -0.5093 -0.2402 -0.6015
  533MOL0     H71889   6.948   2.940  10.214  1.3045  0.9063  3.0317
  533MOL0     H71890   6.918   3.101  10.448  0.2230  7.5137 -1.1524
  533MOL0     H71891   6.836   3.119  10.287 -0.5806 -1.4009 -0.6584
  533MOL0     H71892   6.628   3.185  10.387  0.4109  3.5608 -1.9507
  533MOL0     H71893   6.716   3.185  10.551  0.4087  0.0744  0.4434
  533MOL0     H71894   6.855   3.382  10.455  1.0760  0.7713 -0.5877
  533MOL0     H71895   6.781   3.352  10.299 -0.9227  1.2532  0.4155
  533MOL0     H71896   6.547   3.406  10.395  0.3886  2.4963 -0.9477
  533MOL0     H71897   6.626   3.444  10.542  0.0459  4.5215 -0.0475
  533MOL0     H71898   6.797   3.597  10.447 -0.1072  0.1992  1.0589
  533MOL0     H71899   6.681   3.610  10.314  0.9115  1.7673  0.1416
  533MOL0     H71900   6.509   3.649  10.506  0.8218 -3.0547  0.4614
  533MOL0     H71901   6.654   3.682  10.600 -4.6034  3.0571  1.9178
  533MOL0     H71902   6.694   3.861  10.389  1.5343 -1.0880  1.0141
  533MOL0     H71903   6.516   3.843  10.384  1.6473 -0.3945 -3.3099
  533MOL0     H71904   6.688   3.978  10.601  0.1494  2.0650 -3.3758
  533MOL0     H71905   6.533   3.914  10.636 -0.4872  5.1697  2.2694
  533MOL0     H71906   6.315   4.007  10.543  0.6915 -1.1834  2.7092
  533MOL0     H71907   6.174   4.228  10.539 -3.4792 -0.3275 -1.5218
  533MOL0     H71908   6.242   4.364  10.447  0.1131  1.0514 -1.0893
  533MOL0     H71909   6.194   4.100  10.297 -1.5052 -0.6122 -0.6716
  533MOL0     H71910   6.196   4.267  10.235 -1.1013  3.7982  2.4292
  533MOL0     H71911   5.967   4.183  10.228 -1.3022  2.9685 -1.3619
  533MOL0     H71912   6.006   4.323  10.331  2.8594  0.1091 -2.1298
  533MOL0     H71913   5.993   4.045  10.452  1.2872  0.1106 -2.5496
  533MOL0     H71914   5.845   4.121  10.394 -1.3963  2.3016  2.3636
  533MOL0     H71915   5.732   4.318  10.396 -1.1711  1.8053 -0.1347
  533MOL0     H71916   5.570   4.577  10.447  5.4857 -1.2255  1.0758
  533MOL0     H71917   5.546   4.427  10.347  0.2934 -0.1517 -0.0823
  533MOL0     H71918   5.432   4.475  10.479 -0.1409 -0.2911 -1.2625
  533MOL0     H71919   5.653   4.759  11.040 -0.8876  2.9058  0.3978
  533MOL0     H71920   5.532   4.835  11.233 -4.1474  1.4735  2.3325
  533MOL0     H71921   5.392   4.966  11.342 -0.1959 -1.1839 -0.2606
  533MOL0     H71922   5.288   4.984  11.207  1.1410 -1.1291 -0.3371
  533MOL0     H71923   5.185   4.966  11.502 -0.5810 -5.5074 -0.7845
  533MOL0     H71924   5.197   5.108  11.415  0.0052 -0.2191  0.2418
  533MOL0     H71925   5.038   4.877  11.331 -0.8794  0.4351  0.5343
  533MOL0     H71926   5.016   5.045  11.265  0.5502  2.5349  1.3793
  533MOL0     H71927   4.974   4.924  11.541  4.4833  3.2161  2.0805
  533MOL0     H71928   4.973   5.092  11.521  3.4125  0.6802 -2.2628
  533MOL0     H71929   4.760   4.904  11.409 -0.6135 -0.3132  1.4288
  533MOL0     H71930   4.783   5.077  11.363  2.3865  0.1949  0.3408
  533MOL0     H71931   4.612   5.004  11.574 -0.3003 -0.7380  3.3473
  533MOL0     H71932   4.777   4.997  11.653  0.7954 -0.1715 -0.6067
  533MOL0     H71933   4.678   5.236  11.495 -0.1501 -0.2085 -0.8088
  533MOL0     H71934   4.824   5.228  11.611  0.4523 -0.2888  1.6754
  533MOL0     H71935   4.531   5.207  11.671 -0.5663 -2.1970  2.9108
  533MOL0     H71936   4.650   5.333  11.721 -3.7267  1.4787 -1.6612
  533MOL0     H71937   5.165   4.648  11.106  0.0426 -1.3086 -1.0739
  533MOL0     H71938   5.297   4.544  10.920  0.0985 -0.6216 -0.7863
  533MOL0     H71939   5.663   4.342  10.880  1.0105 -1.8850  0.3442
  533MOL0     H71940   5.857   4.261  10.813 -0.0884 -0.2134  1.3707
  533MOL0     H71941   6.752   2.731  10.519  3.1779 -0.3837  2.2593
  533MOL0     H71942   6.877   2.520  10.454  2.5599 -0.7772 -0.2958
  533MOL0     H71943   7.049   2.227  10.343  1.2759 -4.4463  1.5970
  533MOL0     H71944   7.188   2.038  10.355  1.8882 -0.0223  0.3905
  533MOL0     H71945   7.221   1.795  10.285  0.1723 -2.6944  0.6092
  533MOL0     H71946   7.365   1.739  10.203 -0.5639  1.3969 -1.6402
  533MOL0     H71947   7.380   1.766  10.462 -1.7210 -2.4612 -2.2962
  533MOL0     H71948   7.391   1.934  10.440  0.4937 -1.7959  3.5361
  533MOL0     H71949   7.592   1.873  10.282  1.7701 -1.8087 -1.2599
  533MOL0     H71950   7.573   1.710  10.353  2.6170  1.1727  0.6614
  533MOL0     H71951   7.619   1.769  10.569 -0.5729 -0.3784 -1.5205
  533MOL0     H71952   7.608   1.941  10.540  3.3043  0.6667 -0.2773
  533MOL0     H71953   7.985   1.914  10.398 -0.0376  1.2068  4.7425
  533MOL0     H71954   7.373   2.101  10.002  0.2295  0.8687  1.6073
  533MOL0     H71955   7.253   2.333   9.980 -1.9261  0.7448  0.2024
  534MOL0     O71956  10.251   0.857   7.323 -0.2374  0.0570  1.1188
  534MOL0     C71957  10.158   0.854   7.404  0.5517  0.4991  0.7401
  534MOL0     O71958  10.088   0.960   7.453 -0.3394  0.8115 -0.3376
  534MOL0     C71959  10.115   1.085   7.411  0.0983 -0.6199 -0.2198
  534MOL0     C71960  10.241   1.140   7.423 -1.0064  0.6600  0.6810
  534MOL0     C71961  10.281   1.260   7.395 -0.3845 -0.4155 -0.5438
  534MOL0     C71962  10.191   1.350   7.337  0.5534 -0.4226 -0.4152
  534MOL0     O71963  10.213   1.477   7.310 -0.2537 -0.2694  0.4053
  534MOL0     C71964  10.291   1.551   7.416  0.1897  0.7026  0.5087
  534MOL0     C71965  10.376   1.646   7.366 -1.1090  0.2358 -0.4407
  534MOL0     C71966  10.310   1.755   7.277 -0.1191 -0.0230  0.5638
  534MOL0     C71967  10.276   1.731   7.132 -0.7658  0.2402 -1.0111
  534MOL0     C71968  10.274   1.864   7.058 -0.8287  0.1753 -0.6914
  534MOL0     C71969  10.247   1.857   6.898 -0.6633  0.2035 -0.8819
  534MOL0     C71970  10.106   1.800   6.862  1.0848  1.5472  0.5869
  534MOL0     C71971  10.085   1.815   6.713  0.5939 -0.1406 -0.1377
  534MOL0     N71972   9.974   1.723   6.665  0.7395 -0.4467 -0.6699
  534MOL0     C71973   9.918   1.722   6.535 -0.4334 -0.2849  0.3664
  534MOL0     C71974   9.821   1.626   6.544 -0.0725  0.7108  0.9139
  534MOL0     C71975   9.735   1.586   6.430 -0.4097 -0.0931  0.4479
  534MOL0     C71976   9.591   1.645   6.448 -0.1814 -0.3375 -0.9594
  534MOL0     C71977   9.477   1.571   6.367 -0.0373 -0.3200 -0.4122
  534MOL0     C71978   9.493   1.558   6.216 -0.5294  0.3895  0.0333
  534MOL0     O71979   9.539   1.672   6.152 -0.2754 -0.2696 -0.4399
  534MOL0     C71980   9.559   1.670   6.017  0.7389 -0.1139  0.1613
  534MOL0     C71981   9.527   1.566   5.925 -0.9297  0.4979  0.5504
  534MOL0     C71982   9.570   1.565   5.790  0.4149 -0.9169  0.6037
  534MOL0     C71983   9.559   1.430   5.720 -0.1776 -0.3397  0.0049
  534MOL0     C71984   9.615   1.692   5.736  0.7186 -0.3591 -0.1050
  534MOL0     C71985   9.684   1.702   5.603 -1.0661 -0.0412 -0.3824
  534MOL0     O71986   9.720   1.588   5.541 -0.3396  0.6862 -0.5091
  534MOL0     C71987   9.840   1.584   5.473 -1.1551 -0.5262 -0.0808
  534MOL0     C71988   9.917   1.470   5.506  0.5762  0.0708  0.6268
  534MOL0     C71989  10.029   1.437   5.437  0.1373  0.4168  0.1999
  534MOL0     C71990  10.087   1.535   5.356  0.5448  0.3727 -0.7709
  534MOL0     O71991  10.209   1.531   5.299  0.5181  0.7417 -0.4683
  534MOL0     C71992  10.315   1.489   5.382 -0.8848 -0.1625  0.2934
  534MOL0     C71993  10.445   1.503   5.292 -0.0663  0.3326 -0.4519
  534MOL0     C71994  10.569   1.461   5.375  0.3713  0.7323  0.2060
  534MOL0     C71995  10.683   1.444   5.278  0.6022  0.9319  0.4718
  534MOL0     C71996  10.823   1.440   5.349 -0.3110  1.2431 -0.2406
  534MOL0     C71997  10.863   1.549   5.445  0.3982 -0.1253  0.5489
  534MOL0     C71998  11.021   1.561   5.451  0.8594 -0.1955 -0.4897
  534MOL0     C71999  11.050   1.693   5.531  0.9290  0.8731 -0.0234
  534MOL0    Cl72000  10.980   1.663   5.694 -0.3998  0.1459 -0.2736
  534MOL0     C72001  10.011   1.641   5.317 -0.0199  0.3832 -0.5232
  534MOL0     C72002   9.883   1.666   5.365 -0.3701 -0.1638  0.2036
  534MOL0     O72003   9.716   1.815   5.566  0.1153 -0.7735 -0.2168
  534MOL0     C72004   9.628   1.799   5.826  1.2073 -0.7363  0.5218
  534MOL0     C72005   9.616   1.787   5.963 -0.2693 -0.7450  0.2004
  534MOL0     N72006   9.826   1.565   6.666 -0.4596  0.5711 -0.6562
  534MOL0     N72007   9.919   1.624   6.742  0.8113  0.2369  0.5413
  534MOL0     C72008  10.055   1.304   7.331 -0.4874  0.0412  0.8303
  534MOL0     C72009  10.016   1.175   7.375 -0.3471 -0.7365 -0.0899
  534MOL0     C72010  10.100   0.715   7.436  0.0161 -0.2121  0.7741
  534MOL0     C72011  10.003   0.690   7.531  0.3859 -0.6013 -0.0047
  534MOL0     C72012   9.958   0.556   7.565  0.2072  0.5725 -0.2517
  534MOL0     C72013  10.014   0.450   7.495 -0.1761 -0.2098  0.9439
  534MOL0     O72014   9.967   0.330   7.530  0.0241 -0.4836  0.9660
  534MOL0     C72015   9.991   0.227   7.432  0.2723 -1.5211  0.4987
  534MOL0     C72016  10.106   0.133   7.475 -0.4039 -1.1675  0.4123
  534MOL0     C72017  10.065   0.052   7.602 -0.3755  0.3292  0.4487
  534MOL0     C72018  10.184   0.002   7.683 -0.0393  1.1876 -0.4359
  534MOL0     C72019  10.242  -0.118   7.626  0.0918 -0.1832  0.7671
  534MOL0     C72020  10.269  -0.227   7.571 -0.4032  0.2438 -0.2836
  534MOL0     C72021  10.108   0.474   7.396 -0.1957 -0.6568  0.0919
  534MOL0     C72022  10.162   0.601   7.370  0.4236 -0.5578 -0.0884
  534MOL0     H72023  10.322   1.072   7.447 -0.1367  0.5640 -2.1594
  534MOL0     H72024  10.382   1.296   7.414 -0.2349 -1.3273  0.4579
  534MOL0     H72025  10.221   1.600   7.485 -0.9997 -2.9264  2.1439
  534MOL0     H72026  10.349   1.482   7.478  0.4235 -0.8594 -1.3709
  534MOL0     H72027  10.416   1.708   7.447 -0.6130 -0.3132 -0.2578
  534MOL0     H72028  10.464   1.592   7.330  0.4586  0.6607  2.4045
  534MOL0     H72029  10.214   1.772   7.326  0.2198 -4.0545  3.0533
  534MOL0     H72030  10.375   1.843   7.272  1.6634 -1.2803  0.9471
  534MOL0     H72031  10.355   1.671   7.086  0.2224  2.2163 -1.9649
  534MOL0     H72032  10.180   1.680   7.115 -0.9684  0.7272 -1.3535
  534MOL0     H72033  10.198   1.929   7.102  0.0455  1.3037 -0.8268
  534MOL0     H72034  10.376   1.903   7.059  0.5238 -3.0239  0.0038
  534MOL0     H72035  10.253   1.961   6.863 -2.5887  0.9306  0.7345
  534MOL0     H72036  10.331   1.798   6.862 -0.7802 -2.8179  3.0947
  534MOL0     H72037  10.099   1.695   6.892  1.3565  0.8794 -1.5323
  534MOL0     H72038  10.024   1.848   6.916 -1.9065  3.3185 -4.7685
  534MOL0     H72039  10.174   1.789   6.655  3.3988  3.6029  2.0405
  534MOL0     H72040  10.061   1.921   6.699 -2.6487 -0.5602  1.2863
  534MOL0     H72041   9.930   1.793   6.454  1.7851  0.7696  1.5292
  534MOL0     H72042   9.777   1.627   6.337  1.1936  2.9773  2.3649
  534MOL0     H72043   9.739   1.478   6.409  1.8181  0.4760 -2.8207
  534MOL0     H72044   9.593   1.752   6.425 -0.5020  0.3898  1.9641
  534MOL0     H72045   9.569   1.637   6.555  1.5196  2.0319 -0.3417
  534MOL0     H72046   9.380   1.618   6.385 -0.6936 -1.4043 -0.9872
  534MOL0     H72047   9.464   1.468   6.399  1.6964 -0.7909 -1.1004
  534MOL0     H72048   9.392   1.547   6.175 -0.5110 -0.6995  0.2611
  534MOL0     H72049   9.553   1.468   6.198  1.5479  1.7229 -0.1541
  534MOL0     H72050   9.472   1.480   5.964  0.5780  0.5784  3.1237
  534MOL0     H72051   9.495   1.434   5.631  0.0587  1.8582 -0.1223
  534MOL0     H72052   9.653   1.376   5.704 -0.2869 -1.0035  1.4566
  534MOL0     H72053   9.497   1.366   5.784 -0.6391 -1.2179 -1.2682
  534MOL0     H72054   9.877   1.384   5.559  1.5789 -1.4663 -1.0118
  534MOL0     H72055  10.096   1.351   5.436 -1.2267 -0.7562 -3.0510
  534MOL0     H72056  10.308   1.537   5.481  1.2736  0.9679 -0.0326
  534MOL0     H72057  10.306   1.382   5.401  1.5051 -1.4614 -4.3507
  534MOL0     H72058  10.435   1.439   5.203  0.4964  1.0095 -1.0117
  534MOL0     H72059  10.465   1.606   5.261  4.2012  0.0576  0.7976
  534MOL0     H72060  10.550   1.358   5.406  4.8899  0.7339  4.1471
  534MOL0     H72061  10.577   1.533   5.457 -0.3362 -0.1692  1.0851
  534MOL0     H72062  10.670   1.351   5.221  0.3987  1.7413 -0.8481
  534MOL0     H72063  10.686   1.531   5.211  0.2314 -0.4483 -1.4312
  534MOL0     H72064  10.891   1.448   5.263 -1.2341  2.0528 -0.9099
  534MOL0     H72065  10.836   1.343   5.397  2.1967  2.1294  1.0816
  534MOL0     H72066  10.804   1.639   5.425  1.3746  0.6054  0.8922
  534MOL0     H72067  10.821   1.522   5.542 -1.3114 -1.0288 -0.3933
  534MOL0     H72068  11.073   1.554   5.355 -2.9055 -1.1118 -2.6639
  534MOL0     H72069  11.068   1.479   5.507  1.7757 -1.1933 -2.5968
  534MOL0     H72070  11.001   1.780   5.486  0.6818  0.1654 -1.1741
  534MOL0     H72071  11.157   1.713   5.546  1.5160 -0.9987 -1.3445
  534MOL0     H72072  10.055   1.705   5.241  2.8296 -1.0372 -0.1967
  534MOL0     H72073   9.829   1.753   5.330  3.7988  2.2658 -0.8751
  534MOL0     H72074   9.675   1.892   5.798  1.4198 -1.1869 -0.6756
  534MOL0     H72075   9.646   1.867   6.030  0.1413 -2.7166  2.4937
  534MOL0     H72076   9.976   1.363   7.286 -2.6313 -2.9475  0.3251
  534MOL0     H72077   9.911   1.147   7.372  0.0196 -2.5666  1.8185
  534MOL0     H72078   9.965   0.767   7.598 -2.1020 -2.9780  1.5203
  534MOL0     H72079   9.883   0.538   7.642 -0.0128  0.9387 -0.3774
  534MOL0     H72080   9.901   0.165   7.427 -0.4307 -0.4788  0.0747
  534MOL0     H72081  10.013   0.267   7.333  0.8603  1.4714  1.7464
  534MOL0     H72082  10.198   0.184   7.505  0.8382 -3.3837  0.6036
  534MOL0     H72083  10.130   0.069   7.389  1.8969 -0.8361  0.7475
  534MOL0     H72084  10.001  -0.031   7.573  3.0606 -1.6727 -2.1397
  534MOL0     H72085  10.020   0.124   7.671 -1.8616 -0.3693  0.2528
  534MOL0     H72086  10.154  -0.024   7.785  1.2492 -1.8215 -0.7078
  534MOL0     H72087  10.255   0.082   7.704  0.7250 -0.1171  2.4119
  534MOL0     H72088  10.286  -0.325   7.532 -3.1666 -1.1954  1.7800
  534MOL0     H72089  10.161   0.399   7.339 -1.1103 -0.4848 -1.0145
  534MOL0     H72090  10.248   0.601   7.303 -0.8023 -1.1868 -1.7234
  535MOL0     O72091  11.550   4.322   6.296  1.0952  0.6870  0.3126
  535MOL0     C72092  11.670   4.316   6.326  1.1587 -0.0713 -0.2391
  535MOL0     O72093  11.769   4.319   6.240  0.7259  0.2579 -0.5617
  535MOL0     C72094  11.733   4.295   6.109  0.8754  0.4716 -0.3181
  535MOL0     C72095  11.811   4.368   6.008  1.3248  0.1104 -0.6265
  535MOL0     C72096  11.798   4.321   5.879 -0.0596 -0.3382 -0.3733
  535MOL0     C72097  11.711   4.220   5.839 -0.1512  0.5153  0.5373
  535MOL0     O72098  11.691   4.187   5.703  0.4088 -0.2728  0.0128
  535MOL0     C72099  11.686   4.295   5.606 -0.7035  0.3049 -0.1225
  535MOL0     C72100  11.725   4.221   5.478 -0.1518 -0.2846 -0.3405
  535MOL0     C72101  11.736   4.314   5.362  0.0115 -0.0954 -0.4686
  535MOL0     C72102  11.778   4.229   5.241  0.4745  0.4868 -0.4901
  535MOL0     C72103  11.653   4.193   5.151  0.2958  0.4773  0.9797
  535MOL0     C72104  11.569   4.090   5.220  0.6919 -0.3784 -0.1096
  535MOL0     C72105  11.475   4.025   5.125  0.1695 -0.7541 -0.0781
  535MOL0     C72106  11.399   3.912   5.180  0.2497  0.7968  0.8734
  535MOL0     N72107  11.291   3.955   5.273  0.2087  0.1794 -0.8784
  535MOL0     C72108  11.179   4.027   5.248  0.3704  0.4191  0.4049
  535MOL0     C72109  11.108   4.035   5.364 -0.5233  0.6730  0.1758
  535MOL0     C72110  10.981   4.102   5.366  0.5243  0.7899 -0.4695
  535MOL0     C72111  10.869   3.996   5.345  0.5072 -0.1265  0.7220
  535MOL0     C72112  10.721   4.043   5.385 -0.1238 -0.1409 -0.2328
  535MOL0     C72113  10.621   3.959   5.314  0.1364  0.1678 -0.2343
  535MOL0     O72114  10.621   4.003   5.180  0.0601  0.4318 -0.4235
  535MOL0     C72115  10.566   3.912   5.096  0.2907  0.2966  0.2360
  535MOL0     C72116  10.653   3.849   4.998 -0.0462 -0.1932  0.4173
  535MOL0     C72117  10.611   3.736   4.931 -0.1704  0.1534  0.1411
  535MOL0     C72118  10.710   3.678   4.828  0.6083  0.1843  0.7680
  535MOL0     C72119  10.495   3.683   4.959 -0.7055 -0.3926  0.2624
  535MOL0     C72120  10.426   3.574   4.876  0.9915 -0.8822 -0.3961
  535MOL0     O72121  10.470   3.555   4.758  0.3863 -0.2942 -0.2378
  535MOL0     C72122  10.419   3.439   4.694  0.1361 -0.2820 -0.0325
  535MOL0     C72123  10.290   3.400   4.659  0.6766  0.0401  0.5978
  535MOL0     C72124  10.255   3.284   4.587 -0.2090  0.3117  0.1394
  535MOL0     C72125  10.361   3.200   4.547 -0.3890  0.0522 -0.2694
  535MOL0     O72126  10.330   3.084   4.478 -0.7146  0.1297 -0.2267
  535MOL0     C72127  10.343   3.104   4.339 -0.7589 -0.3376 -0.0012
  535MOL0     C72128  10.265   2.986   4.267  0.2492 -0.4037 -0.0199
  535MOL0     C72129  10.267   3.015   4.113  0.8952 -0.2898 -0.7758
  535MOL0     C72130  10.393   2.991   4.056 -0.1679 -0.3832  0.4253
  535MOL0     C72131  10.393   3.035   3.907  0.5835  0.2328  0.0260
  535MOL0     C72132  10.287   2.968   3.817  0.1088 -1.0782 -0.2214
  535MOL0     C72133  10.269   2.816   3.850 -0.6142 -0.1545  0.5014
  535MOL0     C72134  10.214   2.744   3.724 -0.6139 -0.6927  0.2564
  535MOL0    Cl72135  10.064   2.834   3.670  0.0455 -0.0600 -0.3324
  535MOL0     C72136  10.493   3.239   4.583  0.1724  0.3632  0.7796
  535MOL0     C72137  10.523   3.346   4.668 -1.4694  0.6035  1.3634
  535MOL0     O72138  10.336   3.513   4.930 -0.5341  0.8682 -0.2445
  535MOL0     C72139  10.413   3.749   5.065  0.7601 -0.0295 -0.2447
  535MOL0     C72140  10.445   3.868   5.127 -0.6234  0.7235 -0.6619
  535MOL0     N72141  11.194   3.980   5.466 -0.0736  0.7522 -0.7823
  535MOL0     N72142  11.297   3.926   5.405 -0.8297 -0.4419  0.1544
  535MOL0     C72143  11.640   4.146   5.938 -0.9280 -0.3739  0.7043
  535MOL0     C72144  11.653   4.178   6.073 -0.7172 -0.7814 -0.5171
  535MOL0     C72145  11.694   4.319   6.473 -0.4928  0.1649 -0.2906
  535MOL0     C72146  11.588   4.345   6.564 -0.2097  0.7731 -0.3368
  535MOL0     C72147  11.607   4.338   6.698 -0.0406 -0.1732  0.7167
  535MOL0     C72148  11.739   4.318   6.748 -0.3193  1.2972  0.4382
  535MOL0     O72149  11.740   4.320   6.880 -0.5774 -0.5983 -0.4787
  535MOL0     C72150  11.872   4.339   6.943  1.1780  0.5124 -0.0187
  535MOL0     C72151  11.864   4.370   7.092 -0.1739 -0.2198 -0.4048
  535MOL0     C72152  11.765   4.486   7.131 -0.2520 -0.9445 -0.8902
  535MOL0     C72153  11.685   4.444   7.246 -0.1534 -0.0710 -0.2085
  535MOL0     C72154  11.750   4.426   7.375  0.1412  0.5954  0.1570
  535MOL0     C72155  11.823   4.440   7.468  0.4719 -0.2048 -0.8941
  535MOL0     C72156  11.839   4.287   6.655 -0.2759  1.0947 -0.7948
  535MOL0     C72157  11.819   4.284   6.517  0.1921  0.6368  0.3053
  535MOL0     H72158  11.872   4.446   6.051  0.6366 -0.5190  1.6577
  535MOL0     H72159  11.849   4.369   5.797 -1.2314  3.4596  0.8849
  535MOL0     H72160  11.590   4.342   5.587  0.4679  2.4057 -1.2145
  535MOL0     H72161  11.739   4.381   5.648 -1.9920  0.5128  1.1454
  535MOL0     H72162  11.816   4.164   5.497  0.7667  0.5397 -2.0572
  535MOL0     H72163  11.646   4.148   5.461 -0.4926  0.2080 -0.9011
  535MOL0     H72164  11.635   4.356   5.352 -0.0144  1.2391  3.4537
  535MOL0     H72165  11.809   4.388   5.396 -2.5224  2.6460 -0.5522
  535MOL0     H72166  11.849   4.291   5.186  2.2009 -0.2852  0.7851
  535MOL0     H72167  11.845   4.147   5.269  2.5141  2.5474  1.0226
  535MOL0     H72168  11.602   4.287   5.127 -0.4521 -0.0654  0.4018
  535MOL0     H72169  11.682   4.167   5.049  0.4744  3.8740  0.0366
  535MOL0     H72170  11.638   4.012   5.253  0.9236 -0.2843 -0.3631
  535MOL0     H72171  11.518   4.126   5.310  1.2487 -1.2318  0.5642
  535MOL0     H72172  11.402   4.096   5.084  1.5545 -0.2861 -1.9143
  535MOL0     H72173  11.530   3.986   5.038  0.8767  2.7306 -1.3863
  535MOL0     H72174  11.470   3.844   5.227  1.4334  1.2950 -0.1582
  535MOL0     H72175  11.355   3.857   5.097  0.3414  0.8036  0.8209
  535MOL0     H72176  11.136   4.051   5.151  1.0007  1.9560  0.4885
  535MOL0     H72177  10.956   4.157   5.457 -2.6885  0.1805 -0.8653
  535MOL0     H72178  10.970   4.184   5.295 -2.2751 -0.7402 -1.9686
  535MOL0     H72179  10.891   3.901   5.395  1.7020 -0.1280  0.2294
  535MOL0     H72180  10.872   3.976   5.238  2.0234  0.3837  0.6400
  535MOL0     H72181  10.709   4.148   5.355 -0.7048 -0.5049 -1.3066
  535MOL0     H72182  10.710   4.032   5.494 -2.2141  3.8551  0.1817
  535MOL0     H72183  10.524   3.980   5.359 -0.3694  1.2792 -1.7337
  535MOL0     H72184  10.642   3.854   5.338  3.1938  0.5557 -0.6954
  535MOL0     H72185  10.749   3.898   4.983 -0.7876  1.0858 -0.3397
  535MOL0     H72186  10.798   3.740   4.811  0.9030 -0.6612 -0.9649
  535MOL0     H72187  10.742   3.580   4.864  0.1459  0.2801  1.4778
  535MOL0     H72188  10.660   3.664   4.732  3.2339  2.4809 -1.0675
  535MOL0     H72189  10.206   3.465   4.680 -2.2523 -3.1117 -0.3947
  535MOL0     H72190  10.153   3.250   4.573 -0.0072 -0.3772  0.3217
  535MOL0     H72191  10.314   3.202   4.300 -0.9799 -0.5401 -0.3474
  535MOL0     H72192  10.450   3.105   4.317 -1.0729 -0.6225 -1.6864
  535MOL0     H72193  10.300   2.886   4.293  1.5693  0.4881  1.8157
  535MOL0     H72194  10.161   2.989   4.302  0.6121  2.2669  1.1068
  535MOL0     H72195  10.238   3.120   4.099  0.8670 -0.1938 -0.0212
  535MOL0     H72196  10.186   2.959   4.064  3.3584 -1.2509 -4.1498
  535MOL0     H72197  10.459   3.067   4.099  0.2687 -0.3084 -0.3467
  535MOL0     H72198  10.425   2.887   4.070 -2.1114 -1.1183 -0.2595
  535MOL0     H72199  10.495   3.030   3.868  0.5007  4.2935 -1.1642
  535MOL0     H72200  10.370   3.142   3.915  1.1548  0.3595 -0.0190
  535MOL0     H72201  10.198   3.029   3.832 -0.6461 -1.9858 -0.8605
  535MOL0     H72202  10.314   2.988   3.713 -0.9773  1.7828 -0.0298
  535MOL0     H72203  10.209   2.810   3.941  1.7961 -1.7930  2.0946
  535MOL0     H72204  10.370   2.775   3.858  0.2827  1.4252 -1.6152
  535MOL0     H72205  10.198   2.638   3.746 -2.7678 -0.0001  2.5699
  535MOL0     H72206  10.289   2.744   3.644 -0.4989  0.0964  0.3634
  535MOL0     H72207  10.560   3.179   4.522 -2.7811 -1.7542 -0.6486
  535MOL0     H72208  10.619   3.374   4.709 -0.6363 -2.1297  1.4627
  535MOL0     H72209  10.309   3.719   5.079 -0.1875  2.8770 -0.3880
  535MOL0     H72210  10.393   3.935   5.195 -0.1445  0.4476 -0.0174
  535MOL0     H72211  11.596   4.053   5.906  0.9432 -0.1359 -3.0649
  535MOL0     H72212  11.606   4.134   6.160 -1.8453  0.8063 -0.2801
  535MOL0     H72213  11.487   4.365   6.530 -0.8034 -1.1114  0.1826
  535MOL0     H72214  11.524   4.346   6.766 -1.3559 -2.6014 -0.4738
  535MOL0     H72215  11.939   4.253   6.934  0.4266  0.0272 -1.2104
  535MOL0     H72216  11.928   4.422   6.900  0.1304  2.2462  1.7914
  535MOL0     H72217  11.959   4.404   7.135 -0.3586  1.0660 -0.9561
  535MOL0     H72218  11.820   4.283   7.142 -1.0835  0.9926  0.9810
  535MOL0     H72219  11.701   4.517   7.048 -2.2356  3.7807  1.9966
  535MOL0     H72220  11.817   4.574   7.169 -0.6104 -0.5827 -1.2302
  535MOL0     H72221  11.640   4.346   7.225  3.6771 -1.8279 -1.1056
  535MOL0     H72222  11.603   4.516   7.254  1.1127  1.3415  0.4884
  535MOL0     H72223  11.895   4.478   7.538 -1.1381 -1.3136  1.5029
  535MOL0     H72224  11.943   4.275   6.682 -0.8751 -4.5828  0.1486
  535MOL0     H72225  11.899   4.279   6.444  1.4045 -1.3188  1.6999
  536MOL0     O72226   2.695   9.886  10.692 -0.0718 -0.4118 -0.2808
  536MOL0     C72227   2.646   9.815  10.780 -1.2633  0.0095 -1.2408
  536MOL0     O72228   2.711   9.746  10.885 -0.6365 -0.8728  0.2001
  536MOL0     C72229   2.833   9.805  10.921 -0.0876 -0.0055  0.4382
  536MOL0     C72230   2.822   9.878  11.041 -0.0002  0.1180  0.9783
  536MOL0     C72231   2.924   9.960  11.073 -0.0326  0.3778  0.1685
  536MOL0     C72232   3.041   9.964  10.992  0.0110  1.4090 -0.0642
  536MOL0     O72233   3.146  10.049  10.995 -0.8162  0.4848 -0.3509
  536MOL0     C72234   3.157  10.131  11.115 -0.9919 -0.2767 -0.2098
  536MOL0     C72235   3.097  10.277  11.110 -0.1563  0.3920 -0.5639
  536MOL0     C72236   2.966  10.302  11.178 -0.1081 -0.8088 -1.1514
  536MOL0     C72237   2.849  10.340  11.085  0.2317  0.1248  0.5342
  536MOL0     C72238   2.704  10.371  11.143 -0.4112  0.2834 -0.5075
  536MOL0     C72239   2.624  10.253  11.207 -0.0943 -0.3390 -1.0098
  536MOL0     C72240   2.548  10.176  11.107 -0.6716  0.4557  0.1676
  536MOL0     C72241   2.511  10.041  11.166 -0.2939  0.1106  0.5457
  536MOL0     N72242   2.408  10.059  11.262 -0.8613  1.1381 -0.5241
  536MOL0     C72243   2.278  10.102  11.235 -0.5244 -0.0745 -1.2792
  536MOL0     C72244   2.219  10.100  11.363  0.5310  0.2247  0.5019
  536MOL0     C72245   2.078  10.158  11.386  0.3983  0.2310 -0.4562
  536MOL0     C72246   2.073  10.308  11.385  0.7296 -0.2740  0.7558
  536MOL0     C72247   1.940  10.368  11.353 -0.0308  0.6080 -0.0865
  536MOL0     C72248   1.930  10.521  11.382 -0.1519  1.0114 -0.7550
  536MOL0     O72249   1.827  10.574  11.304 -0.1227  0.1739  0.1499
  536MOL0     C72250   1.806  10.709  11.314  0.9330 -0.4582 -0.4174
  536MOL0     C72251   1.778  10.763  11.435  0.4601 -0.4765 -0.1958
  536MOL0     C72252   1.721  10.896  11.436 -0.0149 -0.4160  0.0581
  536MOL0     C72253   1.714  10.944  11.579 -0.5754 -0.4861  0.5932
  536MOL0     C72254   1.700  10.973  11.314 -0.1695  0.6871 -0.0957
  536MOL0     C72255   1.641  11.107  11.316  0.3376 -0.3497  0.9883
  536MOL0     O72256   1.563  11.141  11.210 -0.4977  0.1896 -0.5171
  536MOL0     C72257   1.563  11.279  11.205 -0.0550 -0.1455  0.4876
  536MOL0     C72258   1.673  11.350  11.149 -0.6017 -0.0281  0.6518
  536MOL0     C72259   1.657  11.492  11.118  0.3000 -0.1061 -0.7400
  536MOL0     C72260   1.534  11.554  11.144 -0.7042  0.4200 -0.2492
  536MOL0     O72261   1.507  11.682  11.106 -0.3940  0.4585 -0.2136
  536MOL0     C72262   1.607  11.779  11.147 -0.7537 -0.2142 -0.8817
  536MOL0     C72263   1.665  11.850  11.020 -0.2365  0.5372  0.3056
  536MOL0     C72264   1.722  11.994  11.038 -0.6106  0.0101  0.1690
  536MOL0     C72265   1.765  12.065  10.907 -0.6696 -0.3599 -0.2723
  536MOL0     C72266   1.850  12.187  10.951  0.4751  1.2065 -0.0836
  536MOL0     C72267   1.898  12.268  10.842  0.2081  0.0405  0.3429
  536MOL0     C72268   1.927  12.430  10.869 -0.4976  0.8591  0.2502
  536MOL0     C72269   1.901  12.495  10.732 -0.2643 -1.1537 -0.0795
  536MOL0    Cl72270   2.016  12.438  10.610  0.3787  0.0157 -0.1416
  536MOL0     C72271   1.425  11.481  11.203  1.1636  0.7542 -0.4139
  536MOL0     C72272   1.440  11.343  11.232 -0.1586 -0.9140  0.0125
  536MOL0     O72273   1.655  11.182  11.418  0.3569 -0.4652  0.4150
  536MOL0     C72274   1.749  10.911  11.196  0.2476 -1.1873  0.7009
  536MOL0     C72275   1.792  10.779  11.197 -0.8314 -0.0323  0.5705
  536MOL0     N72276   2.300  10.037  11.447  0.0438  0.1490 -0.0775
  536MOL0     N72277   2.419  10.014  11.390  0.6893  0.7441 -0.4237
  536MOL0     C72278   3.055   9.867  10.892 -0.5669 -1.0723 -0.3584
  536MOL0     C72279   2.951   9.790  10.851 -0.1135  1.1662  0.1584
  536MOL0     C72280   2.508   9.769  10.758  0.6238  0.0414  1.2611
  536MOL0     C72281   2.438   9.755  10.631  0.0724  0.3611 -0.1295
  536MOL0     C72282   2.306   9.726  10.626  1.0031 -0.9001 -0.0560
  536MOL0     C72283   2.232   9.695  10.742 -0.7988  1.4176  0.0886
  536MOL0     O72284   2.098   9.676  10.736 -0.4836  0.6425  0.2192
  536MOL0     C72285   2.058   9.567  10.650 -0.8377  0.0067 -0.4569
  536MOL0     C72286   1.935   9.501  10.700  0.0759 -0.2129 -0.4801
  536MOL0     C72287   1.804   9.564  10.660 -0.2675  0.0007 -0.3725
  536MOL0     C72288   1.682   9.510  10.736  0.1109  0.9774 -0.3485
  536MOL0     C72289   1.567   9.565  10.679 -0.2215 -1.6557  0.8810
  536MOL0     C72290   1.471   9.600  10.625  0.6730  0.6228  0.1558
  536MOL0     C72291   2.306   9.690  10.855 -0.5401  0.1075 -0.1002
  536MOL0     C72292   2.441   9.726  10.868  1.2159 -0.1348 -0.6109
  536MOL0     H72293   2.720   9.879  11.078 -1.2181 -0.2856 -2.0610
  536MOL0     H72294   2.914  10.035  11.151  1.2174 -0.1578  0.8683
  536MOL0     H72295   3.121  10.083  11.207  2.0269  3.0501  3.0585
  536MOL0     H72296   3.264  10.130  11.138 -1.1464 -2.7975  0.7847
  536MOL0     H72297   3.166  10.343  11.162 -0.8557  0.0075  0.8996
  536MOL0     H72298   3.095  10.314  11.007 -2.9361 -3.5850 -2.2513
  536MOL0     H72299   2.948  10.232  11.261  0.8602  0.7196  0.4175
  536MOL0     H72300   2.982  10.392  11.238 -0.3870 -1.5340  0.0518
  536MOL0     H72301   2.877  10.430  11.030 -0.8096  0.0721 -0.0940
  536MOL0     H72302   2.844  10.257  11.014  1.1658 -0.5943  1.2845
  536MOL0     H72303   2.723  10.452  11.214  0.7865 -0.2414 -0.2068
  536MOL0     H72304   2.638  10.415  11.068 -1.6535  1.5168  1.2094
  536MOL0     H72305   2.700  10.190  11.255  1.8066  2.8784  0.6430
  536MOL0     H72306   2.554  10.298  11.278 -0.6894 -0.7433 -1.3425
  536MOL0     H72307   2.462  10.222  11.057 -0.6917  0.6947  0.4245
  536MOL0     H72308   2.622  10.154  11.029 -1.8176 -2.1885 -0.3276
  536MOL0     H72309   2.601  10.004  11.217 -1.1346 -0.8327  1.3882
  536MOL0     H72310   2.484   9.968  11.090  1.1792  1.3070 -1.2276
  536MOL0     H72311   2.238  10.143  11.143 -3.0996  0.1447 -0.1586
  536MOL0     H72312   2.009  10.117  11.312 -0.8856 -4.6633  2.9815
  536MOL0     H72313   2.042  10.115  11.480 -3.8290  3.3758 -0.3259
  536MOL0     H72314   2.142  10.343  11.308  1.0519 -0.1471  1.1007
  536MOL0     H72315   2.105  10.353  11.479 -0.8712  0.9427  0.7733
  536MOL0     H72316   1.864  10.314  11.411  1.2955 -1.8375 -0.5129
  536MOL0     H72317   1.918  10.349  11.247  1.9283 -0.1559 -0.3876
  536MOL0     H72318   2.032  10.557  11.369  1.3229 -2.3650  0.3656
  536MOL0     H72319   1.912  10.536  11.489 -0.3243 -1.5192 -0.3474
  536MOL0     H72320   1.797  10.707  11.526  0.2589 -2.5661 -1.3822
  536MOL0     H72321   1.685  10.862  11.646 -1.6548  0.2241  1.0153
  536MOL0     H72322   1.798  10.999  11.623 -1.5268 -1.0823  3.3257
  536MOL0     H72323   1.631  11.015  11.586 -1.1512 -0.8231 -1.8508
  536MOL0     H72324   1.764  11.301  11.117  0.7031  3.3777 -1.4783
  536MOL0     H72325   1.739  11.548  11.074  1.1233 -1.3908 -0.8801
  536MOL0     H72326   1.567  11.852  11.218 -0.5933 -0.9510 -0.0187
  536MOL0     H72327   1.684  11.737  11.212  0.9173  2.5203 -0.9668
  536MOL0     H72328   1.743  11.779  10.993 -1.6688 -1.7992  1.9310
  536MOL0     H72329   1.597  11.854  10.933  0.8507 -1.9530 -0.7714
  536MOL0     H72330   1.815  11.971  11.092  0.9757 -1.6493 -2.9811
  536MOL0     H72331   1.647  12.049  11.095 -2.6640 -2.1649 -0.2715
  536MOL0     H72332   1.821  11.996  10.844 -2.7932 -3.4291  0.9776
  536MOL0     H72333   1.679  12.105  10.853  0.9939  2.9054 -0.7920
  536MOL0     H72334   1.936  12.148  11.007 -0.7053 -3.3051 -1.0366
  536MOL0     H72335   1.790  12.255  11.012  0.8949  1.8212 -0.3425
  536MOL0     H72336   1.997  12.234  10.808  0.6088  1.0183  0.5110
  536MOL0     H72337   1.828  12.248  10.760  0.9709 -0.1072 -0.2849
  536MOL0     H72338   2.032  12.449  10.896 -1.2029  4.0519  1.2177
  536MOL0     H72339   1.861  12.477  10.943 -1.0332  1.3120 -0.5046
  536MOL0     H72340   1.927  12.597  10.763 -4.0089 -0.7442  2.4917
  536MOL0     H72341   1.796  12.485  10.700  0.1918 -0.5934 -1.8416
  536MOL0     H72342   1.332  11.530  11.229  1.4721  2.1125 -1.7645
  536MOL0     H72343   1.370  11.275  11.278 -1.8165  0.1242 -0.8695
  536MOL0     H72344   1.749  10.959  11.098  2.3212 -1.8651  0.3151
  536MOL0     H72345   1.811  10.731  11.101  0.1770 -0.2050  0.8383
  536MOL0     H72346   3.148   9.866  10.836 -0.6671  4.1494 -1.0377
  536MOL0     H72347   2.953   9.720  10.768 -0.9281  3.2790 -1.7367
  536MOL0     H72348   2.487   9.794  10.542  1.7102 -3.3109 -1.0403
  536MOL0     H72349   2.255   9.717  10.531 -0.5853  0.8064  0.5758
  536MOL0     H72350   2.030   9.599  10.549  0.2683 -0.7140 -1.0092
  536MOL0     H72351   2.133   9.487  10.646 -0.2687  0.2322  2.6665
  536MOL0     H72352   1.945   9.501  10.809  2.9539 -2.5187 -0.6058
  536MOL0     H72353   1.926   9.393  10.681 -0.7283 -0.7996  2.6767
  536MOL0     H72354   1.797   9.531  10.556  3.8047  0.7516 -1.0493
  536MOL0     H72355   1.809   9.673  10.669 -2.1615  0.0370  0.8991
  536MOL0     H72356   1.699   9.517  10.844  2.7811 -2.2649 -0.3819
  536MOL0     H72357   1.671   9.403  10.713  1.5131  0.6376  0.3921
  536MOL0     H72358   1.383   9.635  10.574  1.2057  1.9608  0.0997
  536MOL0     H72359   2.253   9.679  10.950  1.6456  0.1077  1.1797
  536MOL0     H72360   2.485   9.733  10.967  3.4278  0.6285 -1.5938
  537MOL0     O72361   4.552   4.371   0.447  0.4460  0.0984  1.1908
  537MOL0     C72362   4.519   4.474   0.390  0.5294  0.5853 -0.8993
  537MOL0     O72363   4.408   4.549   0.417  0.3516  0.8142 -0.1659
  537MOL0     C72364   4.311   4.505   0.506 -0.5977  0.3808  0.0892
  537MOL0     C72365   4.333   4.454   0.639  0.1177  0.4417 -0.3219
  537MOL0     C72366   4.221   4.451   0.731 -0.1662  0.6624  0.3726
  537MOL0     C72367   4.090   4.482   0.679  0.2737 -0.5533 -0.4091
  537MOL0     O72368   3.976   4.439   0.752 -0.3561 -0.6345  1.2327
  537MOL0     C72369   3.989   4.386   0.886 -0.1260 -0.3987 -0.0570
  537MOL0     C72370   4.038   4.491   0.997  0.3506  0.3798  0.7196
  537MOL0     C72371   3.911   4.573   1.032  0.2506 -0.9150 -0.5703
  537MOL0     C72372   3.950   4.713   1.081 -0.3008  0.3761  0.4407
  537MOL0     C72373   3.827   4.813   1.078  0.9212 -0.9614 -0.1056
  537MOL0     C72374   3.882   4.956   1.115 -0.5474  0.9040 -0.7632
  537MOL0     C72375   3.774   5.055   1.078 -0.0664  0.2486 -0.0971
  537MOL0     C72376   3.826   5.199   1.102  0.9362 -0.4130  0.8307
  537MOL0     N72377   3.735   5.285   1.027 -0.2305  0.9317  0.5990
  537MOL0     C72378   3.609   5.245   0.975  0.8555  0.5280  0.3260
  537MOL0     C72379   3.558   5.355   0.925 -1.1710  0.2235  0.4945
  537MOL0     C72380   3.419   5.384   0.883  0.1408  0.3458  0.1654
  537MOL0     C72381   3.403   5.338   0.740 -0.5361 -0.7924  0.0856
  537MOL0     C72382   3.264   5.347   0.688  0.4066  0.9725 -0.3240
  537MOL0     C72383   3.187   5.210   0.671  0.2206 -0.0532  0.0666
  537MOL0     O72384   3.122   5.191   0.797  0.1063  0.2547 -0.2748
  537MOL0     C72385   3.103   5.053   0.818  0.7232 -0.8484  0.0473
  537MOL0     C72386   2.975   4.997   0.810  1.3922 -0.8339 -0.8177
  537MOL0     C72387   2.957   4.865   0.823  0.7540 -0.2515  1.1224
  537MOL0     C72388   2.817   4.805   0.779 -0.5772 -0.4239 -1.6937
  537MOL0     C72389   3.071   4.779   0.874  0.6086  1.0182  0.9128
  537MOL0     C72390   3.048   4.634   0.915 -0.7083 -0.9814  0.6146
  537MOL0     O72391   3.161   4.588   0.976 -0.4011  0.0765  0.3447
  537MOL0     C72392   3.146   4.483   1.069 -1.0518  0.5025  0.8869
  537MOL0     C72393   3.072   4.500   1.184 -0.6939 -0.4743  0.3868
  537MOL0     C72394   3.079   4.410   1.284  0.5187 -0.0438 -0.3603
  537MOL0     C72395   3.163   4.302   1.284 -0.4991  0.4647 -0.5395
  537MOL0     O72396   3.160   4.233   1.407 -0.0708 -0.2922 -0.7175
  537MOL0     C72397   3.244   4.122   1.418  0.5831  0.0498 -0.6697
  537MOL0     C72398   3.182   4.014   1.340 -1.0681  1.3764 -0.9295
  537MOL0     C72399   3.277   3.882   1.339  0.0239 -0.5372  0.2472
  537MOL0     C72400   3.206   3.754   1.281 -0.9734 -0.5307  0.4531
  537MOL0     C72401   3.286   3.622   1.326 -0.0988  0.2485  0.2321
  537MOL0     C72402   3.432   3.616   1.267  0.2049  0.7085 -0.2956
  537MOL0     C72403   3.500   3.474   1.259  0.7931 -1.2767  0.0695
  537MOL0     C72404   3.644   3.471   1.209  0.3086 -0.2389  0.6483
  537MOL0    Cl72405   3.702   3.301   1.199 -0.8908  0.0452  0.4992
  537MOL0     C72406   3.236   4.276   1.171 -0.4179 -1.3941  0.8685
  537MOL0     C72407   3.231   4.369   1.066  0.1640 -1.3896 -0.4451
  537MOL0     O72408   2.933   4.579   0.912 -0.0676 -0.3551 -0.4276
  537MOL0     C72409   3.194   4.840   0.878 -0.2285 -0.6073 -0.5128
  537MOL0     C72410   3.206   4.983   0.863 -0.8372  0.2021 -1.4124
  537MOL0     N72411   3.661   5.445   0.923 -0.2113 -0.0919  0.0817
  537MOL0     N72412   3.765   5.408   0.992 -0.8231  0.8447  0.0361
  537MOL0     C72413   4.073   4.540   0.549  0.3071  0.5061 -1.7151
  537MOL0     C72414   4.184   4.550   0.458 -0.2276 -0.1319 -0.1041
  537MOL0     C72415   4.617   4.536   0.292  0.3942 -0.0406 -0.5317
  537MOL0     C72416   4.581   4.637   0.192 -0.3211  0.2251 -0.6776
  537MOL0     C72417   4.673   4.662   0.097  0.2942 -0.8617 -0.2275
  537MOL0     C72418   4.800   4.612   0.083 -0.3041 -0.4312 -0.4904
  537MOL0     O72419   4.882   4.652  -0.019  0.0728  0.4648  0.0064
  537MOL0     C72420   4.839   4.594  -0.143  0.2750  0.0529  0.6983
  537MOL0     C72421   4.901   4.455  -0.173  0.8167 -1.3796  0.0822
  537MOL0     C72422   5.049   4.458  -0.218 -0.0140 -0.8231  0.8555
  537MOL0     C72423   5.102   4.325  -0.245 -0.2573  0.6034 -0.4885
  537MOL0     C72424   5.243   4.331  -0.263  0.1151 -0.1427 -0.9150
  537MOL0     C72425   5.364   4.341  -0.264 -0.3979 -0.1287 -0.7633
  537MOL0     C72426   4.843   4.521   0.178 -0.2105  0.3241  0.9653
  537MOL0     C72427   4.748   4.479   0.268  1.0576 -0.4956  0.0086
  537MOL0     H72428   4.426   4.411   0.674 -0.1376  0.8625  0.9128
  537MOL0     H72429   4.247   4.382   0.811  0.1617 -0.6025 -0.7849
  537MOL0     H72430   3.890   4.346   0.910 -1.9519  3.8495  0.2909
  537MOL0     H72431   4.061   4.304   0.880  1.6335  1.1105 -0.5225
  537MOL0     H72432   4.081   4.438   1.082 -1.5172  0.2779  1.6337
  537MOL0     H72433   4.106   4.567   0.958  0.0600  0.6313  0.6971
  537MOL0     H72434   3.832   4.577   0.957 -2.8540  1.3047  2.5046
  537MOL0     H72435   3.862   4.515   1.111  0.6343  1.5074  1.6061
  537MOL0     H72436   3.974   4.718   1.187 -0.6639  3.3791  0.4646
  537MOL0     H72437   4.029   4.764   1.024  0.5332 -1.9225 -0.6204
  537MOL0     H72438   3.804   4.806   0.971  1.7315 -0.5149 -0.3232
  537MOL0     H72439   3.740   4.790   1.139 -0.0285  0.7102 -0.7700
  537MOL0     H72440   3.886   4.955   1.224  0.5414 -4.0733 -0.6380
  537MOL0     H72441   3.982   4.984   1.081 -0.4296  0.5335 -0.7273
  537MOL0     H72442   3.746   5.033   0.974 -1.7514 -0.1987  0.4112
  537MOL0     H72443   3.682   5.045   1.137 -1.8586  2.3229 -2.3092
  537MOL0     H72444   3.923   5.226   1.057  0.6665 -2.0480 -0.8453
  537MOL0     H72445   3.818   5.230   1.207 -5.4004 -1.2178  0.9753
  537MOL0     H72446   3.569   5.146   0.993 -1.5797  1.3227 -0.3187
  537MOL0     H72447   3.350   5.330   0.948  1.1610  1.6084  2.3999
  537MOL0     H72448   3.407   5.493   0.882 -0.9538  0.2662  1.5371
  537MOL0     H72449   3.455   5.244   0.723  0.3981 -0.1752 -0.5674
  537MOL0     H72450   3.462   5.406   0.678  2.6718 -0.6749  2.9755
  537MOL0     H72451   3.284   5.394   0.591  3.6939  0.7632  0.1537
  537MOL0     H72452   3.200   5.409   0.752 -0.8482 -1.2036  0.6475
  537MOL0     H72453   3.267   5.137   0.655  1.6145  0.9191  2.0363
  537MOL0     H72454   3.104   5.213   0.600 -1.2383 -3.2780  1.4176
  537MOL0     H72455   2.894   5.062   0.779  2.7429 -0.1307 -3.1844
  537MOL0     H72456   2.744   4.871   0.731 -0.0947  0.7735 -0.8165
  537MOL0     H72457   2.833   4.711   0.726 -1.8898 -0.7189 -1.5867
  537MOL0     H72458   2.769   4.769   0.870 -2.3034  0.0795 -2.3700
  537MOL0     H72459   2.996   4.577   1.181  1.1848  1.4802  0.2196
  537MOL0     H72460   3.016   4.430   1.370  0.8492  0.3401 -0.2063
  537MOL0     H72461   3.344   4.121   1.373  1.7057 -2.5203  1.6078
  537MOL0     H72462   3.263   4.087   1.520  1.6937  0.6434 -0.6499
  537MOL0     H72463   3.090   3.995   1.396 -0.2405 -3.1816 -0.7142
  537MOL0     H72464   3.175   4.048   1.236  1.8010  1.6736 -1.0889
  537MOL0     H72465   3.309   3.856   1.440  3.3398 -3.7872 -1.4138
  537MOL0     H72466   3.363   3.916   1.281 -0.6147  0.3670 -0.2077
  537MOL0     H72467   3.111   3.754   1.334 -0.4791  0.9766  1.3923
  537MOL0     H72468   3.192   3.751   1.172 -0.7210 -0.1727  0.4071
  537MOL0     H72469   3.226   3.537   1.292 -0.3987  1.1465 -1.5627
  537MOL0     H72470   3.298   3.600   1.433 -0.3342 -0.7578  0.0639
  537MOL0     H72471   3.423   3.664   1.169  0.2324  1.2791 -0.0246
  537MOL0     H72472   3.497   3.677   1.329  0.9575  0.2725 -0.6480
  537MOL0     H72473   3.441   3.407   1.196  1.3982 -1.2351 -0.5631
  537MOL0     H72474   3.499   3.426   1.357  2.1724 -2.1278 -0.3031
  537MOL0     H72475   3.708   3.523   1.281  0.3086  2.4135 -1.1205
  537MOL0     H72476   3.657   3.507   1.107 -3.3824 -1.3317 -0.3658
  537MOL0     H72477   3.304   4.196   1.144  1.0882  0.0670  0.1776
  537MOL0     H72478   3.306   4.363   0.988 -0.2344  1.0703 -1.1016
  537MOL0     H72479   3.286   4.788   0.902  1.8978  2.8783 -0.5102
  537MOL0     H72480   3.300   5.036   0.877 -1.0875  0.1736  0.6882
  537MOL0     H72481   3.980   4.589   0.522  1.3967  2.0080 -2.9581
  537MOL0     H72482   4.176   4.596   0.360 -0.0602 -1.6881 -0.8831
  537MOL0     H72483   4.483   4.683   0.199 -0.1697  0.4815 -0.2256
  537MOL0     H72484   4.643   4.734   0.022  1.4726  0.7701  0.8161
  537MOL0     H72485   4.732   4.584  -0.157  0.5480 -0.8663 -0.9139
  537MOL0     H72486   4.876   4.661  -0.222  0.4591 -2.3560 -1.3749
  537MOL0     H72487   4.843   4.412  -0.255  0.9462  0.2848 -0.9444
  537MOL0     H72488   4.883   4.401  -0.080  2.4699  0.7725  1.7516
  537MOL0     H72489   5.108   4.522  -0.151 -0.1472  0.0044  0.1991
  537MOL0     H72490   5.049   4.496  -0.321 -3.1280 -2.2307  0.2172
  537MOL0     H72491   5.048   4.285  -0.331 -0.6366 -1.8706  0.8048
  537MOL0     H72492   5.091   4.259  -0.159  0.8514 -0.8621 -1.4297
  537MOL0     H72493   5.470   4.341  -0.280  0.1265 -1.9498  1.9112
  537MOL0     H72494   4.947   4.494   0.162 -0.7673 -0.9456 -0.8823
  537MOL0     H72495   4.788   4.414   0.345  0.7894 -0.7743 -0.0851
  538MOL0     O72496   7.575   2.006   3.119 -0.1557 -1.0066 -0.4882
  538MOL0     C72497   7.660   2.085   3.148  0.5310 -0.9239  0.0781
  538MOL0     O72498   7.648   2.197   3.224  0.3112 -0.7284 -0.1956
  538MOL0     C72499   7.529   2.214   3.287 -0.2717  0.0302  0.7825
  538MOL0     C72500   7.524   2.200   3.426  0.9912  0.5911  0.0769
  538MOL0     C72501   7.398   2.219   3.488 -0.9418 -0.8661  0.2271
  538MOL0     C72502   7.284   2.261   3.418  0.0276 -0.5977 -0.2827
  538MOL0     O72503   7.155   2.299   3.470 -0.8449  0.3846 -0.7494
  538MOL0     C72504   7.135   2.419   3.551  0.1429 -0.5340  0.5403
  538MOL0     C72505   7.211   2.538   3.495  0.0576 -0.3435  0.5468
  538MOL0     C72506   7.354   2.568   3.555 -0.5125 -0.4743  0.0242
  538MOL0     C72507   7.346   2.584   3.713  0.1405 -0.3152 -1.2671
  538MOL0     C72508   7.235   2.673   3.763  0.8495  0.4220 -0.3659
  538MOL0     C72509   7.223   2.700   3.912  0.0315 -0.1322  0.6134
  538MOL0     C72510   7.127   2.807   3.942  0.2111 -0.6517 -0.6695
  538MOL0     C72511   7.114   2.830   4.090  0.2805 -1.1800 -0.3816
  538MOL0     N72512   7.000   2.912   4.127  0.7256 -0.0792  0.0095
  538MOL0     C72513   7.004   3.052   4.108  0.6778 -0.1948 -0.0422
  538MOL0     C72514   6.877   3.097   4.162 -1.0211 -0.1942  0.0731
  538MOL0     C72515   6.830   3.243   4.186  0.5761 -0.1779 -0.1594
  538MOL0     C72516   6.931   3.352   4.225 -0.8686 -0.3823 -1.1296
  538MOL0     C72517   6.997   3.331   4.361 -0.3124 -0.2981 -0.7455
  538MOL0     C72518   6.889   3.304   4.472 -0.1183 -0.1900 -0.0938
  538MOL0     O72519   6.947   3.317   4.601  0.3328  0.4982  0.5348
  538MOL0     C72520   7.025   3.210   4.644 -0.3502 -0.2433 -0.1329
  538MOL0     C72521   6.976   3.090   4.693 -0.0984 -0.0822 -0.0214
  538MOL0     C72522   7.054   2.988   4.761  0.3215 -0.7574 -0.2461
  538MOL0     C72523   6.983   2.871   4.816 -0.0501 -0.3615  0.0725
  538MOL0     C72524   7.197   3.009   4.767  0.1623 -0.1912 -0.1075
  538MOL0     C72525   7.293   2.908   4.826  1.0522 -0.5287  0.4869
  538MOL0     O72526   7.410   2.892   4.760  0.0343 -0.0258  0.3836
  538MOL0     C72527   7.507   2.818   4.818  0.6791  0.4897  0.1784
  538MOL0     C72528   7.556   2.867   4.941 -0.6590  0.5862 -0.4885
  538MOL0     C72529   7.659   2.800   5.005  0.2334  1.2226 -1.7351
  538MOL0     C72530   7.708   2.677   4.964 -0.6666  0.1397  1.2451
  538MOL0     O72531   7.819   2.617   5.026 -0.5134 -0.2772  0.8924
  538MOL0     C72532   7.809   2.479   5.058 -0.3390  0.4868 -0.6848
  538MOL0     C72533   7.905   2.414   4.967 -0.4455  0.9749  0.0448
  538MOL0     C72534   7.906   2.260   4.955 -0.0089 -0.0062  0.6162
  538MOL0     C72535   7.969   2.213   4.818 -0.2385  0.0952 -0.2637
  538MOL0     C72536   7.989   2.053   4.815 -0.1733 -0.2641 -0.9210
  538MOL0     C72537   8.027   1.989   4.685 -0.6419  0.5680 -0.2002
  538MOL0     C72538   8.097   1.853   4.696 -0.2300  0.1942 -0.2874
  538MOL0     C72539   8.106   1.777   4.559 -0.4263 -0.3123 -0.2779
  538MOL0    Cl72540   8.190   1.867   4.427 -0.4981 -0.0186  0.1212
  538MOL0     C72541   7.673   2.639   4.834 -0.4004 -0.4583  0.5371
  538MOL0     C72542   7.562   2.701   4.772  0.0212  0.7186  0.9296
  538MOL0     O72543   7.266   2.867   4.941 -0.1146  0.8313  0.9770
  538MOL0     C72544   7.248   3.134   4.715 -0.4338  0.1426  0.5591
  538MOL0     C72545   7.165   3.232   4.661 -0.0771 -0.0716 -0.4266
  538MOL0     N72546   6.805   2.981   4.194 -0.0568 -0.4630 -0.3939
  538MOL0     N72547   6.873   2.871   4.169 -0.4608  1.0775  0.1348
  538MOL0     C72548   7.294   2.238   3.282  0.4322 -1.6157 -0.3712
  538MOL0     C72549   7.415   2.222   3.214 -0.2625 -0.0812 -0.0968
  538MOL0     C72550   7.794   2.057   3.089 -0.1901  1.2112 -0.8212
  538MOL0     C72551   7.814   2.009   2.959 -0.4515 -0.1978  0.5441
  538MOL0     C72552   7.944   2.001   2.908 -0.1578 -0.2022 -1.0922
  538MOL0     C72553   8.051   2.042   2.990 -1.0730 -0.2167  0.0925
  538MOL0     O72554   8.182   2.046   2.942 -0.0021 -0.4769 -0.4676
  538MOL0     C72555   8.221   1.949   2.849  0.2475  0.2691  0.1405
  538MOL0     C72556   8.361   1.919   2.864 -0.3085  0.5340 -0.2316
  538MOL0     C72557   8.393   1.857   3.015  0.4436  0.0010 -0.5229
  538MOL0     C72558   8.324   1.727   3.030  0.4726 -0.4432  0.1211
  538MOL0     C72559   8.196   1.744   3.103 -0.8460 -0.0330 -0.1485
  538MOL0     C72560   8.088   1.737   3.163  1.5527 -0.4450  0.2262
  538MOL0     C72561   8.031   2.085   3.122 -0.6274  0.1634  0.1348
  538MOL0     C72562   7.902   2.077   3.169 -0.1999 -0.0139 -0.9666
  538MOL0     H72563   7.607   2.185   3.494 -0.9648 -0.0404  2.4447
  538MOL0     H72564   7.401   2.202   3.595 -1.4409 -1.3131  0.1764
  538MOL0     H72565   7.027   2.435   3.564  0.1614 -1.0369  1.3876
  538MOL0     H72566   7.182   2.398   3.648 -0.8234  1.1717  1.4219
  538MOL0     H72567   7.225   2.514   3.389 -4.9936 -1.7127 -0.0514
  538MOL0     H72568   7.150   2.628   3.501 -2.3395 -1.7822 -0.7484
  538MOL0     H72569   7.427   2.491   3.528 -1.4544 -1.4492  0.1723
  538MOL0     H72570   7.378   2.664   3.510  3.0076 -1.1913  0.0978
  538MOL0     H72571   7.330   2.489   3.765 -2.1337  1.8715  2.5228
  538MOL0     H72572   7.443   2.626   3.741 -1.0847  0.9246  1.4432
  538MOL0     H72573   7.254   2.767   3.710  1.6879  0.0313 -0.7844
  538MOL0     H72574   7.143   2.623   3.731  0.2658  1.4250 -0.3173
  538MOL0     H72575   7.196   2.608   3.964  2.9769 -1.8195 -0.6100
  538MOL0     H72576   7.322   2.725   3.951 -0.3160 -1.8953  2.8136
  538MOL0     H72577   7.147   2.902   3.890  1.7284  3.1696  5.8201
  538MOL0     H72578   7.031   2.771   3.903  0.4560  0.1763 -2.1210
  538MOL0     H72579   7.206   2.884   4.114 -0.2460 -0.2220 -0.4566
  538MOL0     H72580   7.117   2.741   4.154 -3.7952 -0.1130  1.6387
  538MOL0     H72581   7.086   3.109   4.065  0.2656  2.1403  2.0328
  538MOL0     H72582   6.775   3.269   4.095 -0.7014 -1.7460  0.1179
  538MOL0     H72583   6.752   3.233   4.261  2.9823  1.0243  2.7168
  538MOL0     H72584   6.888   3.452   4.235  0.3194  0.2080 -1.6314
  538MOL0     H72585   7.010   3.367   4.151 -0.0399  2.4723  0.2002
  538MOL0     H72586   7.068   3.411   4.384  0.5194 -1.5655  1.3437
  538MOL0     H72587   7.064   3.244   4.356  0.0755 -0.0063 -0.6555
  538MOL0     H72588   6.839   3.210   4.449 -1.1473  1.0255 -3.4385
  538MOL0     H72589   6.815   3.383   4.455  0.9590  0.8632 -0.0664
  538MOL0     H72590   6.868   3.082   4.685  0.0607 -1.2267 -1.5411
  538MOL0     H72591   7.042   2.783   4.790 -0.7639 -0.0377 -3.0902
  538MOL0     H72592   6.968   2.863   4.924 -0.6524 -4.3284 -0.1543
  538MOL0     H72593   6.885   2.876   4.769  1.6657  1.1537 -3.7953
  538MOL0     H72594   7.522   2.962   4.982 -1.8384  0.6901 -1.6460
  538MOL0     H72595   7.705   2.855   5.087  4.2679 -1.9108 -1.5493
  538MOL0     H72596   7.850   2.462   5.158  1.2966 -3.3218 -1.8373
  538MOL0     H72597   7.708   2.439   5.050 -0.3603  0.0695  1.2620
  538MOL0     H72598   7.890   2.456   4.867  2.2332  1.9062 -0.0437
  538MOL0     H72599   8.009   2.440   4.988  0.6278 -0.9768 -2.3258
  538MOL0     H72600   7.805   2.218   4.952 -0.4603  0.6938  3.2525
  538MOL0     H72601   7.953   2.210   5.040 -0.1822 -1.2320  0.0202
  538MOL0     H72602   7.904   2.234   4.732 -0.6457 -6.0505 -1.9661
  538MOL0     H72603   8.062   2.268   4.806  0.2163 -0.9362 -1.8356
  538MOL0     H72604   7.890   2.010   4.833  0.0581  0.2453  2.2076
  538MOL0     H72605   8.055   2.040   4.901 -0.8708  1.2918 -0.0892
  538MOL0     H72606   7.940   1.986   4.618  0.8835  0.8412 -2.3205
  538MOL0     H72607   8.098   2.056   4.635  1.7388 -1.2268  0.6247
  538MOL0     H72608   8.049   1.782   4.763 -2.0903  0.6010 -1.1069
  538MOL0     H72609   8.193   1.886   4.737  1.2376  1.9070 -4.5015
  538MOL0     H72610   8.004   1.742   4.541 -1.3879  1.3394  1.5613
  538MOL0     H72611   8.170   1.690   4.578  0.1371 -0.2687 -1.8248
  538MOL0     H72612   7.728   2.566   4.775  1.0479 -0.0636  1.3513
  538MOL0     H72613   7.516   2.671   4.679  1.4382  1.6203 -0.1020
  538MOL0     H72614   7.356   3.149   4.723  0.3185 -2.5985 -2.2998
  538MOL0     H72615   7.215   3.323   4.629 -2.1667  1.4449  0.3405
  538MOL0     H72616   7.199   2.260   3.234 -0.2378 -2.0186  0.7293
  538MOL0     H72617   7.424   2.220   3.106 -0.4822  0.6719 -0.1352
  538MOL0     H72618   7.731   1.987   2.893  1.5323 -1.1912 -1.8037
  538MOL0     H72619   7.960   1.963   2.807  0.4168 -1.3800 -0.5836
  538MOL0     H72620   8.160   1.858   2.858  2.9858 -1.8268 -0.9887
  538MOL0     H72621   8.211   2.006   2.756 -2.3523  0.0067  0.1867
  538MOL0     H72622   8.413   2.012   2.839  2.2979  0.0224  2.6491
  538MOL0     H72623   8.393   1.840   2.795 -2.4390 -1.2373  0.6792
  538MOL0     H72624   8.377   1.932   3.093  1.3514  2.2423 -2.3586
  538MOL0     H72625   8.496   1.826   3.034  0.7807  1.4723  0.2460
  538MOL0     H72626   8.384   1.653   3.085  1.4108  0.4909  0.3868
  538MOL0     H72627   8.313   1.689   2.928  2.0760  1.3812 -0.7940
  538MOL0     H72628   7.990   1.733   3.204  1.1306  4.1546  0.2107
  538MOL0     H72629   8.117   2.111   3.184  0.4930 -3.6011  0.3735
  538MOL0     H72630   7.881   2.101   3.273  0.8860  2.5585 -1.2522
  539MOL0     O72631   0.082  10.697   9.566  0.2401 -0.0305  0.4322
  539MOL0     C72632   0.007  10.648   9.478  0.6483  0.9260  0.2316
  539MOL0     O72633   0.021  10.666   9.341 -0.4308 -0.7089  0.6862
  539MOL0     C72634   0.133  10.732   9.305  0.3428 -0.5254  0.3804
  539MOL0     C72635   0.152  10.877   9.312  0.4826 -0.8349 -0.2279
  539MOL0     C72636   0.271  10.926   9.261 -0.8875 -0.9620  0.6861
  539MOL0     C72637   0.375  10.843   9.209 -0.5437  0.3431 -0.4169
  539MOL0     O72638   0.489  10.906   9.151  0.8377  0.1814  0.1660
  539MOL0     C72639   0.590  10.831   9.077 -0.6959 -0.5795  0.8301
  539MOL0     C72640   0.710  10.919   9.043  0.2676  0.5260 -0.9577
  539MOL0     C72641   0.774  10.844   8.929 -0.3820  0.2444  0.3474
  539MOL0     C72642   0.923  10.894   8.906 -0.0183  1.3301 -0.6200
  539MOL0     C72643   0.943  11.028   8.850 -0.4570  0.7325 -0.5633
  539MOL0     C72644   1.081  11.081   8.887  0.2814  0.7358  0.3845
  539MOL0     C72645   1.089  11.225   8.850 -0.4356 -0.0266  0.6759
  539MOL0     C72646   1.230  11.271   8.894 -0.5741  0.6353  0.4010
  539MOL0     N72647   1.342  11.233   8.809  0.3584  0.0993  0.3946
  539MOL0     C72648   1.391  11.312   8.713  0.1453  0.7096  1.6952
  539MOL0     C72649   1.501  11.253   8.660  0.7828 -0.0840  0.3294
  539MOL0     C72650   1.579  11.307   8.542 -0.4353  0.8916  0.5507
  539MOL0     C72651   1.575  11.205   8.429  0.0308  0.0127  0.1029
  539MOL0     C72652   1.426  11.178   8.385  0.5817 -0.7618  0.4098
  539MOL0     C72653   1.343  11.296   8.329  0.5125  0.7848  0.7548
  539MOL0     O72654   1.207  11.241   8.338 -0.8064 -0.3585 -0.3689
  539MOL0     C72655   1.104  11.285   8.253 -0.5468 -0.5536 -0.2859
  539MOL0     C72656   0.968  11.258   8.278  0.4364  0.2506 -0.3927
  539MOL0     C72657   0.866  11.313   8.210 -0.1919 -0.0930  0.5909
  539MOL0     C72658   0.716  11.281   8.254 -0.0707  0.2190 -0.2118
  539MOL0     C72659   0.889  11.393   8.100  0.3090  0.1064 -0.3387
  539MOL0     C72660   0.789  11.468   8.019  0.1695  0.9106  1.0115
  539MOL0     O72661   0.838  11.573   7.946 -0.1239  0.1542  0.4019
  539MOL0     C72662   0.761  11.670   7.886 -1.1115  0.7965 -1.2788
  539MOL0     C72663   0.640  11.715   7.948  0.2437 -0.2496 -0.8686
  539MOL0     C72664   0.583  11.838   7.897 -0.1956 -0.3572  0.4965
  539MOL0     C72665   0.643  11.903   7.793 -0.2948  0.2889  0.9359
  539MOL0     O72666   0.578  12.017   7.729  0.4187 -0.1344 -0.1058
  539MOL0     C72667   0.654  12.118   7.655 -0.0424  0.6319  0.2364
  539MOL0     C72668   0.653  12.102   7.500  0.2786  0.6877 -0.4159
  539MOL0     C72669   0.792  12.149   7.456 -0.2073  0.6480  0.5841
  539MOL0     C72670   0.810  12.297   7.438 -0.2702  0.8225 -0.6282
  539MOL0     C72671   0.950  12.348   7.474 -0.1254 -0.8780  0.3122
  539MOL0     C72672   1.065  12.297   7.389 -0.4998  0.1293  0.3280
  539MOL0     C72673   1.204  12.354   7.407  0.3978 -0.3715  0.0267
  539MOL0     C72674   1.271  12.271   7.520 -0.8396 -0.3781 -0.5258
  539MOL0    Cl72675   1.439  12.264   7.488 -0.1237  0.0282 -0.0893
  539MOL0     C72676   0.759  11.850   7.733  0.2143  0.0045  0.1260
  539MOL0     C72677   0.812  11.729   7.776 -0.1099 -0.4948 -0.2503
  539MOL0     O72678   0.674  11.425   8.003 -0.1788 -0.2886 -0.6273
  539MOL0     C72679   1.025  11.401   8.057 -0.2468 -0.0520 -0.7059
  539MOL0     C72680   1.128  11.346   8.133  0.2089 -0.2326 -0.0904
  539MOL0     N72681   1.509  11.130   8.723 -0.4841 -0.0484 -0.2370
  539MOL0     N72682   1.416  11.119   8.812 -0.5800  0.9294  0.3765
  539MOL0     C72683   0.342  10.713   9.195  0.0268  0.3529  0.5068
  539MOL0     C72684   0.225  10.655   9.239 -0.3747 -1.0958 -0.6964
  539MOL0     C72685  -0.116  10.578   9.535 -0.7646  0.3273 -0.7961
  539MOL0     C72686  -0.208  10.515   9.450 -0.0804 -0.1885 -0.8999
  539MOL0     C72687  -0.323  10.443   9.510 -1.0154 -0.3912  0.3005
  539MOL0     C72688  -0.347  10.440   9.642 -0.1073  0.1184 -0.5517
  539MOL0     O72689  -0.458  10.374   9.691  0.0035  0.8496  0.2440
  539MOL0     C72690  -0.428  10.243   9.734 -0.2752  0.1458 -0.0401
  539MOL0     C72691  -0.537  10.131   9.724  0.2481 -0.6258  0.0597
  539MOL0     C72692  -0.573  10.105   9.576  0.5671  0.3597  1.7822
  539MOL0     C72693  -0.517   9.984   9.500  0.6131 -0.0338  0.1346
  539MOL0     C72694  -0.380   9.994   9.482  0.3367 -0.4727 -0.7193
  539MOL0     C72695  -0.261  10.017   9.466  0.2746  0.1318  0.0310
  539MOL0     C72696  -0.257  10.503   9.725 -0.1854  0.4455  0.3712
  539MOL0     C72697  -0.148  10.569   9.677  0.0987  0.2923 -0.8726
  539MOL0     H72698   0.071  10.929   9.361  0.2484 -0.3696 -1.0784
  539MOL0     H72699   0.301  11.030   9.261  3.5608 -2.0686  0.6111
  539MOL0     H72700   0.618  10.746   9.139 -0.1713 -1.5685 -0.7270
  539MOL0     H72701   0.542  10.805   8.982 -0.3987  4.5498 -1.0983
  539MOL0     H72702   0.687  11.025   9.028  1.4434  1.5997  3.4638
  539MOL0     H72703   0.772  10.928   9.133 -3.1812  1.2551  1.5337
  539MOL0     H72704   0.765  10.738   8.954  0.0686  0.6629  2.4256
  539MOL0     H72705   0.719  10.858   8.835 -1.7987 -1.5314  0.8457
  539MOL0     H72706   0.963  10.883   9.007 -1.4670 -1.2393 -0.2516
  539MOL0     H72707   0.978  10.827   8.840 -0.7168 -2.6307  2.4607
  539MOL0     H72708   0.933  11.028   8.741 -0.1920  1.4123 -0.5892
  539MOL0     H72709   0.871  11.100   8.890 -2.0953 -0.7750 -0.6564
  539MOL0     H72710   1.103  11.057   8.991 -0.5263 -0.1009  0.3791
  539MOL0     H72711   1.159  11.025   8.834  3.2115  2.9485  2.0602
  539MOL0     H72712   1.092  11.238   8.741  4.9982 -0.1938  0.5414
  539MOL0     H72713   1.004  11.283   8.887  0.1014  1.1398  0.1545
  539MOL0     H72714   1.246  11.236   8.996  3.3750 -0.2110 -0.3380
  539MOL0     H72715   1.233  11.380   8.900 -0.5575  0.6472  0.1889
  539MOL0     H72716   1.358  11.408   8.676 -1.7232 -0.1169  1.0797
  539MOL0     H72717   1.540  11.402   8.504 -0.6283  0.1713 -1.1946
  539MOL0     H72718   1.685  11.324   8.561 -0.0649  0.6620 -1.1324
  539MOL0     H72719   1.628  11.111   8.451 -2.0373 -0.7349  2.3239
  539MOL0     H72720   1.617  11.253   8.341 -2.1183  0.6665 -0.6261
  539MOL0     H72721   1.375  11.130   8.469  1.4628  1.4911  2.3408
  539MOL0     H72722   1.429  11.117   8.294  1.2518  0.2212 -0.2437
  539MOL0     H72723   1.375  11.316   8.226  0.4140 -3.3710 -0.2314
  539MOL0     H72724   1.354  11.385   8.392  0.7114  1.4901 -0.2412
  539MOL0     H72725   0.949  11.211   8.374  0.0028  1.9793  0.4143
  539MOL0     H72726   0.651  11.264   8.167  4.1401 -0.5973 -3.5219
  539MOL0     H72727   0.711  11.199   8.326  4.1702  0.5012  0.6620
  539MOL0     H72728   0.669  11.362   8.311  0.3777  2.5146 -2.8581
  539MOL0     H72729   0.602  11.652   8.027  1.7405 -0.5800 -0.3937
  539MOL0     H72730   0.488  11.874   7.935 -1.0020 -0.0220 -1.6434
  539MOL0     H72731   0.612  12.215   7.683 -2.2957  0.1090 -1.0017
  539MOL0     H72732   0.756  12.120   7.694  0.0736  2.7602 -0.0455
  539MOL0     H72733   0.631  12.000   7.469 -1.6439  0.8902  0.1061
  539MOL0     H72734   0.575  12.170   7.463 -0.0799  1.2920  1.3449
  539MOL0     H72735   0.810  12.098   7.361 -4.0570  1.0296 -0.5146
  539MOL0     H72736   0.862  12.108   7.528 -1.2183 -1.1276  0.6184
  539MOL0     H72737   0.790  12.311   7.332  0.1490 -0.5144 -0.9005
  539MOL0     H72738   0.727  12.356   7.480 -2.3149 -2.5449  0.4054
  539MOL0     H72739   0.980  12.322   7.576  3.4267 -0.3639 -0.4799
  539MOL0     H72740   0.959  12.457   7.469  2.4138 -1.0834 -1.0648
  539MOL0     H72741   1.065  12.189   7.404 -1.7336  0.0546 -0.0840
  539MOL0     H72742   1.026  12.321   7.289  0.0794  0.0379  0.0765
  539MOL0     H72743   1.195  12.462   7.420 -3.7996 -0.0801 -3.0133
  539MOL0     H72744   1.256  12.330   7.313 -1.4788 -2.0993 -0.6655
  539MOL0     H72745   1.236  12.168   7.521  0.2900 -0.8619  2.7276
  539MOL0     H72746   1.251  12.323   7.614 -1.0796  1.3860 -1.4984
  539MOL0     H72747   0.821  11.889   7.653  0.8953  1.3512  1.2681
  539MOL0     H72748   0.905  11.680   7.748  0.4670 -1.3292  2.7246
  539MOL0     H72749   1.054  11.451   7.966  0.0480 -1.1415 -1.2221
  539MOL0     H72750   1.219  11.345   8.074 -1.0957  2.0711 -2.3284
  539MOL0     H72751   0.405  10.648   9.135  0.2383 -0.5465  1.6516
  539MOL0     H72752   0.203  10.550   9.220  1.3256 -1.9359  1.4243
  539MOL0     H72753  -0.176  10.501   9.347 -1.0926  0.0420 -1.2500
  539MOL0     H72754  -0.391  10.398   9.439 -3.8392  2.1690  1.1690
  539MOL0     H72755  -0.336  10.215   9.683  0.6156 -1.5364  2.3283
  539MOL0     H72756  -0.418  10.240   9.842  0.7986  1.0119 -0.1043
  539MOL0     H72757  -0.627  10.154   9.782  0.0507 -3.7467  1.1947
  539MOL0     H72758  -0.513  10.032   9.764  3.0019 -0.2045 -0.3864
  539MOL0     H72759  -0.562  10.203   9.529  4.7851 -0.6759  0.2561
  539MOL0     H72760  -0.678  10.073   9.580  1.2443 -2.0581  2.1924
  539MOL0     H72761  -0.560   9.975   9.400  1.2895 -0.2385 -0.1407
  539MOL0     H72762  -0.548   9.905   9.569 -2.3279  0.3463 -0.6076
  539MOL0     H72763  -0.156  10.038   9.461  0.1882  1.4614  2.4905
  539MOL0     H72764  -0.270  10.502   9.833  2.0497 -3.8642  0.8389
  539MOL0     H72765  -0.079  10.633   9.731  0.3155 -1.0687  0.5320
  540MOL0     O72766   3.310   7.191   9.250 -0.5512  0.5081 -0.8233
  540MOL0     C72767   3.306   7.149   9.136 -0.3969  0.2754 -0.2143
  540MOL0     O72768   3.333   7.209   9.014 -0.4531 -0.0383 -0.9602
  540MOL0     C72769   3.366   7.342   9.009 -0.9191  0.2618 -0.2629
  540MOL0     C72770   3.424   7.414   9.112 -0.3577 -0.3056  0.3348
  540MOL0     C72771   3.452   7.546   9.099 -0.9031  0.3431  0.9996
  540MOL0     C72772   3.417   7.612   8.974 -0.6100 -0.3756 -0.5072
  540MOL0     O72773   3.420   7.747   8.951 -1.4631 -0.3701  0.8972
  540MOL0     C72774   3.517   7.819   9.047  1.2678  0.0943 -0.5628
  540MOL0     C72775   3.534   7.960   8.993 -0.2817 -0.5266 -0.9240
  540MOL0     C72776   3.633   8.061   9.066 -1.7411 -0.4225  0.5649
  540MOL0     C72777   3.587   8.144   9.189 -0.5642  0.1080  0.0309
  540MOL0     C72778   3.707   8.233   9.230 -0.0246 -0.1751  0.5223
  540MOL0     C72779   3.674   8.367   9.293  0.5409  0.3931  0.4219
  540MOL0     C72780   3.630   8.479   9.190 -0.2188 -0.2530  0.6695
  540MOL0     C72781   3.537   8.586   9.257 -0.2034  0.1036  0.0610
  540MOL0     N72782   3.415   8.532   9.320  0.3794 -1.5144  0.2870
  540MOL0     C72783   3.309   8.485   9.261 -0.2933  0.1369 -0.1673
  540MOL0     C72784   3.209   8.469   9.356  0.6938 -0.3515  0.1413
  540MOL0     C72785   3.065   8.440   9.332  0.1645  0.0567  0.2812
  540MOL0     C72786   3.010   8.341   9.425 -0.1948  0.3100 -1.4221
  540MOL0     C72787   2.855   8.331   9.429  0.4224 -0.5888  0.2935
  540MOL0     C72788   2.823   8.209   9.504 -0.2987 -1.0454  0.0466
  540MOL0     O72789   2.902   8.101   9.458  1.5277  0.8278  0.0938
  540MOL0     C72790   2.921   8.000   9.546 -0.0951  1.3883 -1.2831
  540MOL0     C72791   2.890   7.867   9.492 -0.2783  1.0038 -0.1167
  540MOL0     C72792   2.918   7.754   9.564  0.4737  0.5961  0.0494
  540MOL0     C72793   2.887   7.617   9.505 -0.4207  0.5646  0.5543
  540MOL0     C72794   2.961   7.768   9.698  0.5009  0.4330  0.1730
  540MOL0     C72795   3.007   7.657   9.781 -0.5832  1.2040  0.1212
  540MOL0     O72796   3.139   7.612   9.767  0.7790  0.8284  0.1169
  540MOL0     C72797   3.167   7.485   9.822  0.2313  1.0893  0.1214
  540MOL0     C72798   3.231   7.480   9.947 -0.8914 -0.0209  0.0442
  540MOL0     C72799   3.271   7.357  10.001  0.1819  0.8265 -0.3561
  540MOL0     C72800   3.244   7.232   9.933 -0.8389  0.4295  0.1706
  540MOL0     O72801   3.265   7.110   9.979  0.0423  0.5307 -0.1061
  540MOL0     C72802   3.381   7.086  10.062 -0.6222  0.4309 -0.4966
  540MOL0     C72803   3.519   7.092  10.000 -0.5956  0.6777 -0.1669
  540MOL0     C72804   3.521   6.984   9.886 -0.8268 -0.2545 -0.7662
  540MOL0     C72805   3.534   6.839   9.948 -0.0600 -0.3973  0.1860
  540MOL0     C72806   3.574   6.734   9.837 -0.8917 -0.4624 -0.6527
  540MOL0     C72807   3.620   6.599   9.897  0.4814 -0.7067 -0.5802
  540MOL0     C72808   3.702   6.529   9.800 -0.7373 -0.4293  0.0437
  540MOL0     C72809   3.768   6.406   9.867  0.6313 -0.1920  0.1082
  540MOL0    Cl72810   3.859   6.331   9.731  0.0599  0.4570  0.2419
  540MOL0     C72811   3.179   7.230   9.815  0.6197  0.4906  0.7565
  540MOL0     C72812   3.147   7.359   9.760 -0.2370  0.4194  0.2281
  540MOL0     O72813   2.917   7.603   9.838 -0.9550  0.2593 -0.3923
  540MOL0     C72814   2.978   7.897   9.758  0.2890 -0.2530 -0.2928
  540MOL0     C72815   2.944   8.009   9.684 -1.2887 -0.5302  0.0192
  540MOL0     N72816   3.266   8.512   9.468  0.1050 -0.6256  0.8356
  540MOL0     N72817   3.387   8.542   9.451 -0.4096 -0.4311 -0.6946
  540MOL0     C72818   3.347   7.538   8.880  0.0263 -0.8185  0.5402
  540MOL0     C72819   3.327   7.404   8.892 -0.1140 -0.9527 -0.3839
  540MOL0     C72820   3.244   7.015   9.115 -0.1442  0.2209 -0.1204
  540MOL0     C72821   3.278   6.938   9.003  0.1907 -1.1791 -0.0616
  540MOL0     C72822   3.227   6.804   8.994  0.5887  0.4003  0.8587
  540MOL0     C72823   3.126   6.756   9.084  0.1639 -0.7220 -0.3539
  540MOL0     O72824   3.083   6.628   9.087  0.0228  0.2998  0.5272
  540MOL0     C72825   3.154   6.540   9.179  0.1844  0.2493  0.2420
  540MOL0     C72826   3.108   6.394   9.155  0.3318 -0.0809  0.0025
  540MOL0     C72827   3.128   6.342   9.000 -0.0659  0.5751  0.0147
  540MOL0     C72828   3.122   6.188   9.006 -1.0670 -0.4157 -0.2507
  540MOL0     C72829   3.194   6.130   8.892  0.0748  0.3824  0.0810
  540MOL0     C72830   3.241   6.066   8.797  0.3983 -0.6267 -0.1918
  540MOL0     C72831   3.076   6.840   9.183  0.6259  0.2271 -0.3891
  540MOL0     C72832   3.144   6.963   9.201 -0.7755  1.4951 -0.1052
  540MOL0     H72833   3.455   7.372   9.208  0.0305  1.7373  1.1617
  540MOL0     H72834   3.501   7.600   9.180  0.1359 -1.4617  1.6336
  540MOL0     H72835   3.471   7.826   9.145 -2.7531 -3.0993 -1.9269
  540MOL0     H72836   3.613   7.767   9.059  1.6455  1.2672  2.0144
  540MOL0     H72837   3.569   7.957   8.889  1.6063 -0.8518 -0.3258
  540MOL0     H72838   3.436   8.007   8.980  0.1568  1.0358  0.8983
  540MOL0     H72839   3.715   7.997   9.099 -1.4988 -0.8605 -0.8101
  540MOL0     H72840   3.677   8.136   9.000  1.4876  1.0973  4.1212
  540MOL0     H72841   3.489   8.190   9.173 -0.1886  0.8812 -0.0776
  540MOL0     H72842   3.576   8.084   9.280 -7.4413  3.1856  1.9337
  540MOL0     H72843   3.756   8.181   9.313 -3.2604 -2.1285  1.4070
  540MOL0     H72844   3.781   8.257   9.153 -1.6959  0.1164 -1.0769
  540MOL0     H72845   3.586   8.342   9.354  1.8355  2.2933  3.3183
  540MOL0     H72846   3.756   8.401   9.357  1.4250 -2.0922  0.6944
  540MOL0     H72847   3.719   8.528   9.148 -2.2128  1.2981 -2.0780
  540MOL0     H72848   3.573   8.433   9.109 -2.0555 -1.5567  2.6037
  540MOL0     H72849   3.510   8.654   9.176 -2.5100  0.5625  1.1467
  540MOL0     H72850   3.594   8.644   9.330  0.8564 -0.8723  0.0427
  540MOL0     H72851   3.290   8.480   9.154 -2.4406 -1.1462  0.2050
  540MOL0     H72852   3.020   8.538   9.345 -0.0366  0.0422 -0.2979
  540MOL0     H72853   3.056   8.409   9.228 -5.0854  1.4059  0.0940
  540MOL0     H72854   3.047   8.355   9.527 -1.5549  2.2984 -1.1517
  540MOL0     H72855   3.055   8.253   9.378 -0.6973 -0.9088  0.2888
  540MOL0     H72856   2.807   8.336   9.331 -3.0057  0.4698  1.8848
  540MOL0     H72857   2.816   8.417   9.484  0.3405 -2.8613  4.1700
  540MOL0     H72858   2.716   8.190   9.495  0.1367 -2.5172 -3.2795
  540MOL0     H72859   2.843   8.244   9.606 -2.4953 -1.2641  0.6023
  540MOL0     H72860   2.863   7.850   9.388 -0.2340 -0.8035  0.1354
  540MOL0     H72861   2.914   7.618   9.399  0.6757  0.3406  0.8255
  540MOL0     H72862   2.923   7.526   9.553 -0.8751  0.1810  0.1755
  540MOL0     H72863   2.781   7.588   9.510  0.4295 -2.9195  0.5611
  540MOL0     H72864   3.247   7.578   9.991 -1.6792 -0.6438  1.7931
  540MOL0     H72865   3.324   7.351  10.096  1.2219  0.5465 -0.9325
  540MOL0     H72866   3.383   7.148  10.152  1.5598 -2.2835  1.4688
  540MOL0     H72867   3.375   6.985  10.101  1.2590  0.6050  0.3176
  540MOL0     H72868   3.523   7.190   9.953 -2.3773  1.4902  1.2250
  540MOL0     H72869   3.598   7.074  10.074  0.2191  2.4305 -0.5779
  540MOL0     H72870   3.609   6.995   9.823 -2.1937 -0.4315 -2.8064
  540MOL0     H72871   3.433   6.970   9.822 -2.1139  0.2676  0.8201
  540MOL0     H72872   3.611   6.840  10.026 -0.5094 -2.3852  0.7149
  540MOL0     H72873   3.448   6.806  10.007  1.4040 -2.2314  1.4177
  540MOL0     H72874   3.649   6.782   9.775 -1.5081  3.7432  1.5203
  540MOL0     H72875   3.482   6.715   9.780 -2.5755 -0.6837  1.9673
  540MOL0     H72876   3.669   6.626   9.991 -3.4983  0.0013  1.4940
  540MOL0     H72877   3.526   6.544   9.910  0.1094 -1.2073 -4.3709
  540MOL0     H72878   3.786   6.595   9.779  0.4009 -2.1971 -1.1716
  540MOL0     H72879   3.656   6.503   9.705  2.0162 -0.7982 -1.2519
  540MOL0     H72880   3.693   6.343   9.915  1.6037 -1.3909  0.1208
  540MOL0     H72881   3.838   6.438   9.945 -1.4626 -0.0949  2.0487
  540MOL0     H72882   3.153   7.136   9.767 -1.0689  1.1552  0.2985
  540MOL0     H72883   3.101   7.346   9.662 -2.3492  1.6464  0.9953
  540MOL0     H72884   3.011   7.897   9.861  1.1010 -2.0174 -0.5055
  540MOL0     H72885   2.947   8.105   9.735 -2.3532 -1.5355  2.0697
  540MOL0     H72886   3.310   7.601   8.799  1.6150 -0.5428 -0.0011
  540MOL0     H72887   3.271   7.369   8.806  2.4669 -0.1665 -2.4946
  540MOL0     H72888   3.350   6.976   8.932 -0.1204 -1.7837 -0.7211
  540MOL0     H72889   3.249   6.745   8.906  0.0918 -0.0354  1.0282
  540MOL0     H72890   3.263   6.552   9.172  0.3040 -0.3121  1.0321
  540MOL0     H72891   3.130   6.571   9.281 -1.9840  0.2727 -0.2295
  540MOL0     H72892   3.003   6.383   9.185  0.5973 -0.0869  0.9670
  540MOL0     H72893   3.162   6.323   9.217 -0.7163  0.1776  1.2566
  540MOL0     H72894   3.225   6.378   8.964 -0.2025 -0.1615 -1.1224
  540MOL0     H72895   3.060   6.386   8.927  0.9992  1.2992 -0.5558
  540MOL0     H72896   3.018   6.161   8.985 -1.6653  1.4085  0.1956
  540MOL0     H72897   3.140   6.142   9.104  1.6732 -2.0152 -1.4025
  540MOL0     H72898   3.288   6.030   8.708 -2.5127  1.0266 -2.5804
  540MOL0     H72899   3.000   6.814   9.256  0.9487  2.1752  0.7123
  540MOL0     H72900   3.131   7.026   9.289  1.5629  1.6676  0.1792
  541MOL0     O72901   1.814   4.895   5.110  0.5419 -0.7269 -0.7203
  541MOL0     C72902   1.806   4.872   4.991 -0.2721  0.4325 -0.2092
  541MOL0     O72903   1.693   4.886   4.913  0.2760  0.6061 -0.5326
  541MOL0     C72904   1.580   4.933   4.978  0.4601  0.8787  0.4919
  541MOL0     C72905   1.494   5.020   4.906  0.2030  1.1372  0.4531
  541MOL0     C72906   1.372   5.045   4.956  0.0115  0.5851 -0.1200
  541MOL0     C72907   1.329   4.991   5.079  0.1753 -0.5056  0.0677
  541MOL0     O72908   1.204   5.005   5.133  0.2353 -1.0577 -0.3937
  541MOL0     C72909   1.157   5.147   5.160 -0.4557 -0.2045 -0.5566
  541MOL0     C72910   1.031   5.163   5.069  0.2334 -0.7592  0.4601
  541MOL0     C72911   0.918   5.083   5.131 -0.0910 -0.4010  0.0175
  541MOL0     C72912   0.856   5.143   5.250  0.5800 -0.3430  0.1557
  541MOL0     C72913   0.736   5.054   5.300  0.5672 -0.0302  0.4839
  541MOL0     C72914   0.686   5.118   5.430  0.2875  0.0379  0.1202
  541MOL0     C72915   0.611   5.243   5.428 -0.0748 -0.4384  0.8332
  541MOL0     C72916   0.640   5.330   5.552  0.3537  0.8319 -0.6938
  541MOL0     N72917   0.536   5.432   5.580  0.1477 -0.2227  0.6422
  541MOL0     C72918   0.555   5.565   5.587  0.6238 -0.2152 -0.1625
  541MOL0     C72919   0.433   5.614   5.633 -0.0070  0.7191 -0.2863
  541MOL0     C72920   0.387   5.754   5.637  0.2442  0.9334 -0.8314
  541MOL0     C72921   0.454   5.816   5.752 -0.3410  0.0447 -0.5194
  541MOL0     C72922   0.471   5.740   5.877 -0.4087  0.4426 -0.2407
  541MOL0     C72923   0.339   5.713   5.953  1.1651 -0.5389  0.5342
  541MOL0     O72924   0.382   5.650   6.075  0.5588 -0.5666 -0.2193
  541MOL0     C72925   0.277   5.623   6.161 -0.3504  0.5506  0.5360
  541MOL0     C72926   0.311   5.569   6.287  0.6508  0.0830 -0.2491
  541MOL0     C72927   0.213   5.550   6.397 -0.6976 -0.9990 -0.5297
  541MOL0     C72928   0.260   5.510   6.530  0.7337  0.3374 -0.2738
  541MOL0     C72929   0.076   5.551   6.357 -0.3902 -0.1887  0.4289
  541MOL0     C72930  -0.039   5.517   6.448  0.6122  0.1207  0.1118
  541MOL0     O72931  -0.019   5.456   6.565 -0.2915 -0.1332 -1.0068
  541MOL0     C72932  -0.132   5.397   6.622 -0.4569 -0.9623 -0.2528
  541MOL0     C72933  -0.142   5.269   6.656 -0.1776 -0.0295 -0.7384
  541MOL0     C72934  -0.256   5.209   6.719 -0.8809  0.0051  0.2916
  541MOL0     C72935  -0.362   5.293   6.768 -0.4981  0.3321 -0.9068
  541MOL0     O72936  -0.479   5.245   6.833 -0.7901 -0.0543 -0.2973
  541MOL0     C72937  -0.498   5.105   6.842 -0.0098 -0.1782  0.4414
  541MOL0     C72938  -0.639   5.071   6.870 -0.0084  0.1225 -0.0544
  541MOL0     C72939  -0.734   5.109   6.760 -0.7970 -1.0019  0.3598
  541MOL0     C72940  -0.780   4.977   6.689  0.2467 -1.0207  0.3641
  541MOL0     C72941  -0.897   5.004   6.589 -0.2286  0.5494 -0.1473
  541MOL0     C72942  -0.935   4.870   6.513  1.3284 -0.0442 -0.9651
  541MOL0     C72943  -1.014   4.887   6.389 -0.3278 -0.3927 -0.3005
  541MOL0     C72944  -1.050   4.756   6.319  0.7840 -0.5040 -0.4891
  541MOL0    Cl72945  -1.117   4.632   6.431  0.2519 -0.1244  0.0918
  541MOL0     C72946  -0.356   5.433   6.737 -0.2608  1.0623 -0.2994
  541MOL0     C72947  -0.247   5.477   6.667 -0.3828 -1.0780 -0.6384
  541MOL0     O72948  -0.145   5.563   6.407  0.0943  0.6384 -0.2873
  541MOL0     C72949   0.043   5.602   6.231 -0.0028 -0.8561  0.0527
  541MOL0     C72950   0.137   5.624   6.129 -0.6007 -0.8129  0.1444
  541MOL0     N72951   0.349   5.510   5.658  1.4045  0.3443 -0.8048
  541MOL0     N72952   0.406   5.401   5.623 -0.7954 -0.0376  0.7057
  541MOL0     C72953   1.409   4.911   5.154 -0.1068  0.9701  0.2956
  541MOL0     C72954   1.530   4.875   5.101 -1.3692 -0.2636  0.3462
  541MOL0     C72955   1.925   4.819   4.923 -0.1020 -0.1841  0.1272
  541MOL0     C72956   2.051   4.822   4.998 -0.4014  0.8594  0.2701
  541MOL0     C72957   2.167   4.785   4.932 -0.4546  0.3526  0.3848
  541MOL0     C72958   2.167   4.743   4.800  0.2566  0.5200 -0.2275
  541MOL0     O72959   2.278   4.687   4.740 -0.2937  0.5265 -0.5564
  541MOL0     C72960   2.412   4.705   4.789  0.0063  0.3031 -0.8324
  541MOL0     C72961   2.452   4.568   4.851  0.1873 -0.8965  0.3392
  541MOL0     C72962   2.593   4.558   4.918  0.1834 -0.6552 -0.4000
  541MOL0     C72963   2.600   4.419   4.979 -0.4474  1.2520 -1.1127
  541MOL0     C72964   2.724   4.389   5.053  0.4513  0.0594  0.8099
  541MOL0     C72965   2.825   4.361   5.124  0.1293 -0.9401 -0.2731
  541MOL0     C72966   2.049   4.743   4.721  0.2040  0.2295 -0.5392
  541MOL0     C72967   1.932   4.777   4.786  1.2664  0.6646  0.1533
  541MOL0     H72968   1.531   5.061   4.813  1.4032  0.4473  0.6133
  541MOL0     H72969   1.295   5.102   4.906 -1.5766 -0.5870  0.8800
  541MOL0     H72970   1.135   5.172   5.264 -2.1249  1.9694 -1.3659
  541MOL0     H72971   1.233   5.214   5.121  0.8533 -0.2468  1.7666
  541MOL0     H72972   0.995   5.266   5.058 -4.3277 -2.2608 -1.2707
  541MOL0     H72973   1.050   5.123   4.969  3.7616  2.3690 -0.3444
  541MOL0     H72974   0.850   5.057   5.050 -0.2826 -2.2752  0.7374
  541MOL0     H72975   0.954   4.985   5.165 -2.0419 -1.2015 -0.1192
  541MOL0     H72976   0.921   5.160   5.336  3.5540  0.2234 -2.0181
  541MOL0     H72977   0.823   5.247   5.240  1.0345  0.0055  2.0357
  541MOL0     H72978   0.658   5.065   5.224  1.7470 -0.6140 -0.8639
  541MOL0     H72979   0.767   4.950   5.314  0.0465 -0.3868 -0.8334
  541MOL0     H72980   0.620   5.049   5.483 -0.4421 -1.6948 -2.8094
  541MOL0     H72981   0.762   5.135   5.507  3.0652  2.5803 -2.8901
  541MOL0     H72982   0.637   5.294   5.335 -0.2024 -0.9045  0.5404
  541MOL0     H72983   0.502   5.232   5.423  0.1506 -2.7574 -2.2141
  541MOL0     H72984   0.741   5.371   5.551  1.5993 -1.8897  1.2073
  541MOL0     H72985   0.621   5.264   5.637 -5.5804 -0.3955 -2.4716
  541MOL0     H72986   0.645   5.621   5.566  0.0541  1.0745  0.7028
  541MOL0     H72987   0.418   5.802   5.544 -0.9007 -1.5376 -2.6020
  541MOL0     H72988   0.278   5.758   5.647  0.0096  0.7552 -2.9127
  541MOL0     H72989   0.395   5.906   5.772 -1.5412 -0.8707  0.2391
  541MOL0     H72990   0.555   5.847   5.724  1.4371 -2.4736  2.4116
  541MOL0     H72991   0.532   5.798   5.946 -0.0907  0.6115 -0.6663
  541MOL0     H72992   0.520   5.642   5.873 -0.4146  0.4845 -2.1537
  541MOL0     H72993   0.271   5.658   5.887 -0.6138  1.4954  0.5538
  541MOL0     H72994   0.283   5.806   5.967 -1.8124 -1.6025 -2.7526
  541MOL0     H72995   0.411   5.537   6.313 -0.0464 -1.5449  0.5529
  541MOL0     H72996   0.200   5.534   6.618  0.2795  1.4370 -0.8645
  541MOL0     H72997   0.262   5.402   6.515  1.9343 -0.2027  2.9122
  541MOL0     H72998   0.356   5.560   6.550  2.1652 -1.6487 -1.8133
  541MOL0     H72999  -0.052   5.212   6.637  1.7876  3.3966 -2.8303
  541MOL0     H73000  -0.248   5.106   6.753  0.8859 -0.4000 -1.1519
  541MOL0     H73001  -0.478   5.068   6.741 -1.9946  2.4953 -1.0636
  541MOL0     H73002  -0.436   5.048   6.912  3.0661 -2.1264 -3.4579
  541MOL0     H73003  -0.631   4.964   6.891  0.4975  0.3835  1.1752
  541MOL0     H73004  -0.655   5.131   6.960  1.4820 -0.7577  0.8291
  541MOL0     H73005  -0.696   5.189   6.697  0.4024 -0.9713  1.0950
  541MOL0     H73006  -0.827   5.153   6.796 -0.3072  0.3934 -0.0253
  541MOL0     H73007  -0.685   4.945   6.645  0.6377  0.4233  0.1214
  541MOL0     H73008  -0.817   4.905   6.762 -2.5844  0.7497  0.8215
  541MOL0     H73009  -0.857   5.085   6.526  0.1464  1.6436  1.4345
  541MOL0     H73010  -0.974   5.049   6.652 -0.0622  0.2624  0.2623
  541MOL0     H73011  -0.849   4.809   6.482  2.1930 -0.6654  2.2463
  541MOL0     H73012  -0.996   4.816   6.586 -0.4900  2.1897 -0.7162
  541MOL0     H73013  -0.960   4.948   6.316 -0.8674 -0.5219 -0.8099
  541MOL0     H73014  -1.101   4.945   6.419  0.3267  0.3370  0.2251
  541MOL0     H73015  -0.963   4.711   6.270  1.4088  1.3147 -1.1361
  541MOL0     H73016  -1.114   4.780   6.233 -1.4607 -1.1218  0.9341
  541MOL0     H73017  -0.442   5.491   6.770 -2.6219 -0.3332 -3.5023
  541MOL0     H73018  -0.237   5.584   6.655 -0.8933 -1.0554 -0.9120
  541MOL0     H73019  -0.062   5.618   6.210  0.5628  0.6429 -2.0113
  541MOL0     H73020   0.106   5.644   6.027 -1.6437  0.0148  0.5971
  541MOL0     H73021   1.377   4.879   5.253 -1.1036 -0.2467 -0.3827
  541MOL0     H73022   1.575   4.784   5.139  0.4214  0.4465 -0.0134
  541MOL0     H73023   2.041   4.856   5.101 -1.2325 -1.3417  0.9619
  541MOL0     H73024   2.257   4.774   4.992 -0.2566 -0.2320 -0.0019
  541MOL0     H73025   2.488   4.711   4.710  3.7415  0.4163  2.4513
  541MOL0     H73026   2.432   4.785   4.861 -1.8449 -0.3132  0.4543
  541MOL0     H73027   2.436   4.493   4.773  2.9769 -1.8841  0.6134
  541MOL0     H73028   2.374   4.557   4.927  0.6342  2.8607  1.5521
  541MOL0     H73029   2.607   4.644   4.984 -0.5039 -2.0770  1.7146
  541MOL0     H73030   2.673   4.561   4.843  0.4706  1.1608 -0.0633
  541MOL0     H73031   2.599   4.333   4.911 -0.5722  0.7144 -0.4435
  541MOL0     H73032   2.523   4.408   5.055 -0.2287 -2.7334 -1.2161
  541MOL0     H73033   2.914   4.337   5.178  1.0129  0.0076 -1.2540
  541MOL0     H73034   2.042   4.727   4.614 -0.5811 -2.0736 -0.2056
  541MOL0     H73035   1.837   4.778   4.732  1.6709  1.6481 -0.5659
  542MOL0     O73036   1.821   4.170   5.297  0.7415 -0.2064  0.0300
  542MOL0     C73037   1.762   4.074   5.240  0.5612  0.9914 -0.3498
  542MOL0     O73038   1.809   3.951   5.230 -0.8613  0.1010  0.4885
  542MOL0     C73039   1.940   3.911   5.255  0.2629  0.2225  0.5719
  542MOL0     C73040   2.051   3.993   5.273  0.4523 -0.0949  0.1361
  542MOL0     C73041   2.185   3.942   5.286  0.9541  0.0921 -0.5466
  542MOL0     C73042   2.199   3.802   5.267 -0.5786 -0.1334 -0.2139
  542MOL0     O73043   2.317   3.728   5.289 -0.4476 -0.1594 -0.6685
  542MOL0     C73044   2.450   3.776   5.306  0.3024  0.3777  0.1426
  542MOL0     C73045   2.479   3.736   5.444  0.0179 -0.9165  0.7375
  542MOL0     C73046   2.607   3.822   5.483 -0.3421 -0.4190  0.6779
  542MOL0     C73047   2.667   3.801   5.627 -0.0088  0.3523 -0.2388
  542MOL0     C73048   2.797   3.883   5.650 -0.5636  0.3999 -0.5707
  542MOL0     C73049   2.843   3.869   5.801 -0.0778  0.2864  0.6515
  542MOL0     C73050   2.904   3.729   5.814 -0.3762 -0.9047 -0.5587
  542MOL0     C73051   2.985   3.731   5.951 -0.2311 -0.8192  0.7469
  542MOL0     N73052   3.120   3.780   5.933 -0.5035  0.2929  0.5010
  542MOL0     C73053   3.169   3.896   5.978 -1.1085 -0.3399  0.3349
  542MOL0     C73054   3.302   3.910   5.944 -0.2451 -0.0784  0.4051
  542MOL0     C73055   3.385   4.031   5.963 -0.3908  0.2095  0.2388
  542MOL0     C73056   3.381   4.089   6.104  0.1953 -0.0742 -0.0262
  542MOL0     C73057   3.499   4.187   6.139 -0.2858 -0.9313  0.9460
  542MOL0     C73058   3.506   4.308   6.044  0.3113 -0.9479 -0.3517
  542MOL0     O73059   3.583   4.424   6.109 -0.2113  0.6274  0.9744
  542MOL0     C73060   3.566   4.545   6.049 -0.1270  0.0976  0.7599
  542MOL0     C73061   3.454   4.589   5.980  0.1168 -0.0334 -0.5622
  542MOL0     C73062   3.447   4.719   5.927 -1.1617  0.2382  0.0443
  542MOL0     C73063   3.311   4.764   5.877 -0.0291  0.4028  0.0914
  542MOL0     C73064   3.563   4.806   5.929 -0.5803  0.2014 -0.0088
  542MOL0     C73065   3.569   4.938   5.852  0.1286 -0.0749  0.2494
  542MOL0     O73066   3.677   5.019   5.882 -0.9539  0.3149 -0.2557
  542MOL0     C73067   3.678   5.142   5.830  0.3492  0.2564  0.2901
  542MOL0     C73068   3.628   5.240   5.910 -0.5006  0.0475 -0.4743
  542MOL0     C73069   3.633   5.375   5.868 -0.1066  0.3127 -0.2814
  542MOL0     C73070   3.683   5.407   5.741 -0.1733 -0.2955  0.3470
  542MOL0     O73071   3.679   5.541   5.706 -0.3731 -0.3473  0.2707
  542MOL0     C73072   3.747   5.598   5.587  0.0262  0.4917 -0.9550
  542MOL0     C73073   3.716   5.744   5.603  0.2850  0.6364 -0.3416
  542MOL0     C73074   3.835   5.823   5.657 -0.4519 -0.3903 -0.1968
  542MOL0     C73075   3.794   5.972   5.691  0.0205 -0.3435  0.2514
  542MOL0     C73076   3.789   5.997   5.840 -0.4319 -0.3621 -0.3578
  542MOL0     C73077   3.737   6.146   5.867 -0.1877  1.0943  0.8701
  542MOL0     C73078   3.720   6.184   6.019 -0.9021  1.1132  0.7988
  542MOL0     C73079   3.841   6.198   6.112  0.4606  0.8565 -0.2700
  542MOL0    Cl73080   3.904   6.039   6.153 -0.1858 -0.6204 -0.0850
  542MOL0     C73081   3.742   5.313   5.664  0.5901 -0.2219 -0.4385
  542MOL0     C73082   3.742   5.180   5.709  0.3333 -1.6335  0.1426
  542MOL0     O73083   3.476   4.976   5.779  0.9764 -0.7133 -0.0527
  542MOL0     C73084   3.665   4.757   6.007 -0.3300 -0.8938  0.4318
  542MOL0     C73085   3.666   4.631   6.072  0.3313  0.3466  0.3320
  542MOL0     N73086   3.336   3.794   5.884  0.0185  0.0704 -0.4161
  542MOL0     N73087   3.231   3.721   5.889  1.3626 -0.2781 -0.6030
  542MOL0     C73088   2.091   3.722   5.245  0.5488 -0.0467  0.7204
  542MOL0     C73089   1.964   3.772   5.235 -0.0865  0.2391 -0.9894
  542MOL0     C73090   1.639   4.101   5.169 -0.2220 -0.1099  0.2464
  542MOL0     C73091   1.582   4.018   5.072 -0.2231  0.2166  0.5528
  542MOL0     C73092   1.452   4.054   5.014  0.6837 -0.6525 -0.6500
  542MOL0     C73093   1.381   4.167   5.056  0.0342 -0.5502 -0.5404
  542MOL0     O73094   1.262   4.213   4.995 -0.3017  0.3549 -0.6460
  542MOL0     C73095   1.190   4.137   4.890  0.0267 -0.0149  1.1051
  542MOL0     C73096   1.261   4.154   4.744 -0.1633 -0.1525  0.7007
  542MOL0     C73097   1.169   4.088   4.639  0.6153  0.5403 -1.2290
  542MOL0     C73098   1.251   4.040   4.523 -0.5629  0.3323  0.1502
  542MOL0     C73099   1.167   3.971   4.416 -0.0218  0.1546 -0.5187
  542MOL0     C73100   1.102   3.931   4.323  0.4857 -0.8551  0.9205
  542MOL0     C73101   1.435   4.255   5.157 -0.0803 -0.5354  0.5881
  542MOL0     C73102   1.561   4.221   5.203 -0.0690 -0.7893  0.2044
  542MOL0     H73103   2.044   4.101   5.277  2.0093  0.0023  1.0020
  542MOL0     H73104   2.272   4.003   5.309  1.4678 -0.8881  0.1867
  542MOL0     H73105   2.511   3.728   5.229 -0.3107  2.6022 -1.8333
  542MOL0     H73106   2.461   3.884   5.296 -3.9112  0.8007 -2.4182
  542MOL0     H73107   2.398   3.755   5.515 -0.0808 -0.4127  0.4944
  542MOL0     H73108   2.501   3.630   5.453 -1.4252 -1.2222  0.8757
  542MOL0     H73109   2.689   3.790   5.418  0.9595  1.6689  1.1965
  542MOL0     H73110   2.588   3.929   5.468  0.3595 -0.0611  2.2072
  542MOL0     H73111   2.595   3.823   5.706  0.2703  4.3380 -0.9192
  542MOL0     H73112   2.705   3.698   5.632  2.6792  1.2165 -1.1812
  542MOL0     H73113   2.883   3.855   5.589 -1.4078  0.7374 -1.9554
  542MOL0     H73114   2.794   3.992   5.641  1.2663  0.9849  3.5489
  542MOL0     H73115   2.918   3.945   5.826  0.2149  1.1786 -2.4763
  542MOL0     H73116   2.754   3.889   5.861 -0.8156 -0.5142 -0.1580
  542MOL0     H73117   2.820   3.659   5.817 -0.4535 -0.7951  0.9072
  542MOL0     H73118   2.972   3.699   5.734 -0.9771  0.3821 -1.5927
  542MOL0     H73119   3.011   3.632   5.991  1.1094 -0.2524  1.3524
  542MOL0     H73120   2.936   3.795   6.025  0.4184  1.3045 -0.5839
  542MOL0     H73121   3.101   3.971   6.018 -0.5033  0.2537  0.2705
  542MOL0     H73122   3.484   4.003   5.928 -0.6888  1.0227 -1.3230
  542MOL0     H73123   3.352   4.105   5.890 -3.4813 -1.6704 -0.4557
  542MOL0     H73124   3.384   4.007   6.176 -0.9258 -0.1045 -0.0075
  542MOL0     H73125   3.289   4.145   6.123  0.9885  0.4727  2.5388
  542MOL0     H73126   3.588   4.124   6.137 -0.5699 -1.4100 -2.3704
  542MOL0     H73127   3.492   4.240   6.235 -0.2223  2.5260 -0.8060
  542MOL0     H73128   3.401   4.333   6.025  0.4606  1.2876  1.2840
  542MOL0     H73129   3.566   4.279   5.958  4.7180  3.3223  0.7994
  542MOL0     H73130   3.365   4.527   5.977 -1.1931  1.7668 -1.1174
  542MOL0     H73131   3.223   4.707   5.908 -0.9975  0.9262 -1.5412
  542MOL0     H73132   3.299   4.872   5.895 -1.3696  0.3232 -0.2054
  542MOL0     H73133   3.311   4.740   5.771  1.8179 -0.4291  0.2377
  542MOL0     H73134   3.584   5.216   6.006 -1.9489 -0.6167 -1.2726
  542MOL0     H73135   3.587   5.450   5.930  0.1335  0.1304  0.1179
  542MOL0     H73136   3.855   5.584   5.581 -0.2022 -1.1985 -1.6451
  542MOL0     H73137   3.693   5.573   5.495  4.0380  0.8980 -3.6782
  542MOL0     H73138   3.677   5.788   5.510  0.1126 -2.8020 -2.0396
  542MOL0     H73139   3.634   5.759   5.674  2.1215  0.3424  1.9652
  542MOL0     H73140   3.912   5.826   5.579 -0.0620 -3.2097 -0.0234
  542MOL0     H73141   3.878   5.775   5.745  1.1995 -2.3969 -1.9897
  542MOL0     H73142   3.853   6.052   5.647  0.4711 -1.2197 -0.7613
  542MOL0     H73143   3.693   5.995   5.655  0.1200 -0.6987 -0.2602
  542MOL0     H73144   3.889   5.992   5.886 -1.5563 -0.0657  2.3115
  542MOL0     H73145   3.726   5.921   5.887 -2.0628  2.3749  2.1987
  542MOL0     H73146   3.813   6.215   5.829 -0.5654  0.4518 -1.1576
  542MOL0     H73147   3.651   6.165   5.803 -0.3334 -1.3099  0.2305
  542MOL0     H73148   3.661   6.104   6.066  0.0686  0.2274  0.5505
  542MOL0     H73149   3.658   6.273   6.009 -2.9071  0.1052  3.2270
  542MOL0     H73150   3.805   6.237   6.207  0.1276  0.1029 -0.0823
  542MOL0     H73151   3.928   6.256   6.077  1.4285  1.0729  2.2873
  542MOL0     H73152   3.773   5.348   5.566  2.3277  1.4546  0.6335
  542MOL0     H73153   3.800   5.126   5.635  2.5686 -0.0393  0.6223
  542MOL0     H73154   3.743   4.831   6.019 -3.5929  3.3380 -1.6957
  542MOL0     H73155   3.745   4.596   6.138 -0.4391 -2.8880 -0.3171
  542MOL0     H73156   2.119   3.621   5.217 -0.8375  0.3849 -2.7498
  542MOL0     H73157   1.892   3.693   5.217  0.4462 -1.4998  3.2860
  542MOL0     H73158   1.637   3.934   5.031  2.3996  0.8887  2.4392
  542MOL0     H73159   1.411   3.985   4.940  1.0258 -1.3883 -0.1636
  542MOL0     H73160   1.168   4.033   4.916 -2.5717  0.4190  0.9468
  542MOL0     H73161   1.089   4.178   4.886  0.0179  0.1520  2.4439
  542MOL0     H73162   1.362   4.117   4.763 -0.1439 -3.1452 -3.8176
  542MOL0     H73163   1.272   4.261   4.725  2.0567  0.0231  2.5966
  542MOL0     H73164   1.093   4.152   4.592  1.4148  1.0602 -1.8243
  542MOL0     H73165   1.117   4.002   4.682 -1.7094  1.9041 -1.0990
  542MOL0     H73166   1.334   3.971   4.544 -0.5380 -0.0038 -0.9790
  542MOL0     H73167   1.303   4.127   4.482 -0.0660 -0.4388 -0.9015
  542MOL0     H73168   1.050   3.893   4.237 -0.3964 -1.0688  1.5322
  542MOL0     H73169   1.387   4.352   5.167  1.0518  0.2127 -0.8248
  542MOL0     H73170   1.609   4.291   5.271 -0.0304 -0.0906 -0.5265
  543MOL0     O73171  10.237   5.652   1.821 -0.2683  0.4867  0.1410
  543MOL0     C73172  10.119   5.676   1.780 -0.4521 -0.3756 -0.5995
  543MOL0     O73173  10.012   5.590   1.794 -0.4062  0.1755  0.5956
  543MOL0     C73174  10.028   5.457   1.841 -0.7929 -0.1394  1.3914
  543MOL0     C73175  10.113   5.379   1.772 -0.2457  0.0992 -0.0631
  543MOL0     C73176  10.119   5.243   1.817 -0.5161 -1.3639 -0.5029
  543MOL0     C73177  10.021   5.192   1.902 -0.6830  0.4226  0.5801
  543MOL0     O73178  10.012   5.055   1.935 -0.5595  1.0017  0.7337
  543MOL0     C73179  10.071   4.954   1.848  0.3058 -0.2748 -0.2705
  543MOL0     C73180  10.070   4.812   1.885  0.7365 -0.3212 -0.9198
  543MOL0     C73181   9.931   4.769   1.892 -0.2200  0.8317 -0.8119
  543MOL0     C73182   9.924   4.616   1.889  0.7585 -0.0339 -0.0536
  543MOL0     C73183   9.776   4.555   1.879  0.7690  0.7467 -0.6203
  543MOL0     C73184   9.775   4.435   1.794  0.5567  0.2679  0.3709
  543MOL0     C73185   9.808   4.302   1.877  0.4790  0.2005 -0.2774
  543MOL0     C73186   9.678   4.216   1.916 -0.1049 -0.0162  0.2567
  543MOL0     N73187   9.610   4.276   2.026 -0.6066  0.6439  0.2924
  543MOL0     C73188   9.522   4.380   2.010  0.1991 -0.3579 -0.4913
  543MOL0     C73189   9.502   4.429   2.132 -1.4751  0.5560  0.2496
  543MOL0     C73190   9.427   4.554   2.169 -0.5389  0.2898  0.5763
  543MOL0     C73191   9.284   4.522   2.221 -0.3569 -0.0716 -0.6281
  543MOL0     C73192   9.186   4.652   2.237  0.3425  0.0894 -0.4424
  543MOL0     C73193   9.189   4.689   2.385 -0.1764  0.6460  0.2893
  543MOL0     O73194   9.061   4.729   2.431  0.1799  0.3205  0.2443
  543MOL0     C73195   9.006   4.833   2.366  0.6331 -0.4440 -0.1714
  543MOL0     C73196   9.056   4.958   2.338  0.0223  0.5559 -0.2741
  543MOL0     C73197   8.986   5.044   2.240 -0.7361  0.4441 -0.4227
  543MOL0     C73198   9.035   5.185   2.226 -0.1706  0.0737 -0.0494
  543MOL0     C73199   8.858   5.000   2.183  0.6372 -0.0962 -0.1144
  543MOL0     C73200   8.790   5.075   2.081  0.7593  0.8744 -0.7838
  543MOL0     O73201   8.694   5.010   2.004  0.6874 -0.0338 -0.1478
  543MOL0     C73202   8.630   5.096   1.915 -0.0047  0.7031 -0.1857
  543MOL0     C73203   8.502   5.156   1.938  0.0812 -0.4643 -0.9061
  543MOL0     C73204   8.443   5.231   1.845  0.0378  0.3437  0.1092
  543MOL0     C73205   8.508   5.262   1.725  0.0073  0.2826  0.0940
  543MOL0     O73206   8.452   5.351   1.634  0.2760 -0.4860 -1.1278
  543MOL0     C73207   8.532   5.463   1.587 -0.3313  0.5830 -0.8429
  543MOL0     C73208   8.454   5.557   1.501 -0.5194  0.3605 -0.3071
  543MOL0     C73209   8.390   5.494   1.384 -0.1722  0.5730 -0.4518
  543MOL0     C73210   8.262   5.582   1.351 -0.5538  0.4340 -0.8038
  543MOL0     C73211   8.169   5.507   1.249 -0.7273 -0.3090 -0.0054
  543MOL0     C73212   8.039   5.578   1.208  0.4265 -0.4216 -0.0109
  543MOL0     C73213   7.929   5.600   1.313 -0.8606  0.9016 -0.1573
  543MOL0     C73214   7.789   5.605   1.256  0.2159  0.3419 -0.4396
  543MOL0    Cl73215   7.758   5.438   1.184  0.0347  0.1807  0.2155
  543MOL0     C73216   8.634   5.196   1.700 -0.0708  1.3541  0.4245
  543MOL0     C73217   8.700   5.112   1.789  0.4157 -1.1472 -0.0102
  543MOL0     O73218   8.807   5.192   2.095  0.1673 -0.0149  0.5827
  543MOL0     C73219   8.810   4.878   2.225  0.5501 -0.7684 -0.3435
  543MOL0     C73220   8.885   4.798   2.311  0.8887 -0.1890  0.4280
  543MOL0     N73221   9.559   4.332   2.220  0.5850 -0.2671 -0.5929
  543MOL0     N73222   9.618   4.236   2.157 -0.0215 -0.1871  0.8995
  543MOL0     C73223   9.940   5.279   1.980 -0.2228  0.0169 -0.0157
  543MOL0     C73224   9.952   5.416   1.951  0.2080  0.3871  0.5350
  543MOL0     C73225  10.093   5.799   1.699  0.3670  0.4872  0.1819
  543MOL0     C73226  10.205   5.873   1.649 -0.1034  1.0760 -0.3813
  543MOL0     C73227  10.189   5.985   1.560 -0.6090  0.3608 -0.7054
  543MOL0     C73228  10.061   6.042   1.543 -0.8892  0.3255 -0.7966
  543MOL0     O73229  10.031   6.159   1.475 -1.4470  0.4098 -0.0157
  543MOL0     C73230   9.947   6.251   1.541 -0.3133  0.9463  0.8921
  543MOL0     C73231  10.008   6.387   1.534 -0.2141  0.5353 -0.5319
  543MOL0     C73232   9.910   6.490   1.579  0.1516  0.4533 -0.3159
  543MOL0     C73233   9.981   6.623   1.633 -0.9608  0.6403  0.4013
  543MOL0     C73234  10.048   6.707   1.535  0.4025  0.2471 -0.0305
  543MOL0     C73235  10.132   6.780   1.480  0.3667 -0.0172  0.3305
  543MOL0     C73236   9.948   5.980   1.615  0.6802 -0.5158 -0.4304
  543MOL0     C73237   9.968   5.858   1.690 -1.2702  0.0134 -0.0203
  543MOL0     H73238  10.195   5.413   1.709  0.3284 -0.3260  0.4440
  543MOL0     H73239  10.200   5.181   1.782  1.0160  0.9803 -1.3292
  543MOL0     H73240  10.049   4.969   1.742 -0.8857 -1.2080 -0.1831
  543MOL0     H73241  10.179   4.968   1.856 -0.0419  3.8807 -0.5217
  543MOL0     H73242  10.131   4.751   1.818  0.6487  0.0818 -1.3690
  543MOL0     H73243  10.113   4.801   1.985 -0.4575 -0.6657 -0.4208
  543MOL0     H73244   9.877   4.804   1.981 -0.5578  3.0514 -1.8127
  543MOL0     H73245   9.881   4.805   1.801 -1.3769  1.5367  0.0568
  543MOL0     H73246   9.976   4.597   1.794 -0.8554 -4.5801 -0.2963
  543MOL0     H73247   9.976   4.572   1.975 -0.8259  1.4945  1.7546
  543MOL0     H73248   9.739   4.526   1.978  0.5013  1.3000 -0.5509
  543MOL0     H73249   9.709   4.631   1.837 -0.4466 -2.3939 -5.0090
  543MOL0     H73250   9.676   4.425   1.747  1.1534 -2.9022 -0.4666
  543MOL0     H73251   9.845   4.459   1.713  2.7590 -3.0689  1.0631
  543MOL0     H73252   9.873   4.241   1.815 -0.0174 -2.3346  1.5248
  543MOL0     H73253   9.865   4.333   1.965  0.1302  3.2081 -0.9971
  543MOL0     H73254   9.705   4.111   1.931 -0.6994 -0.8279 -3.4945
  543MOL0     H73255   9.614   4.216   1.828 -1.1362 -0.7058  0.9750
  543MOL0     H73256   9.504   4.430   1.916  2.6896  0.9998 -0.3358
  543MOL0     H73257   9.483   4.612   2.243  0.7316  0.8335 -0.7856
  543MOL0     H73258   9.413   4.615   2.080 -2.1749 -0.6033  0.1743
  543MOL0     H73259   9.298   4.459   2.309  0.4962  1.0621  0.0596
  543MOL0     H73260   9.228   4.461   2.149  1.0555 -4.5373  1.6834
  543MOL0     H73261   9.087   4.615   2.209  0.9345 -0.8781 -1.2694
  543MOL0     H73262   9.225   4.744   2.193 -0.6513  0.7750  0.0627
  543MOL0     H73263   9.258   4.773   2.399  0.4082  0.5938 -1.9518
  543MOL0     H73264   9.219   4.615   2.460 -3.1001  1.0520  1.9998
  543MOL0     H73265   9.139   5.000   2.394  0.6845 -0.4026 -0.5268
  543MOL0     H73266   8.965   5.248   2.281  1.6213  0.6182  1.7073
  543MOL0     H73267   9.127   5.194   2.284 -1.2912  0.1929  1.7937
  543MOL0     H73268   9.052   5.205   2.120  2.6849 -2.4852 -0.2244
  543MOL0     H73269   8.452   5.133   2.032  1.7729  0.7573  0.3617
  543MOL0     H73270   8.348   5.278   1.870  1.0439  0.8813  3.3524
  543MOL0     H73271   8.552   5.537   1.664  0.2511 -0.0724 -0.3469
  543MOL0     H73272   8.625   5.434   1.536 -0.2775 -0.7702 -0.0350
  543MOL0     H73273   8.380   5.616   1.557  1.2387  3.6263 -1.1929
  543MOL0     H73274   8.522   5.639   1.475  0.0901 -0.2791 -0.7556
  543MOL0     H73275   8.372   5.392   1.421 -3.1237  1.0582 -0.2740
  543MOL0     H73276   8.460   5.489   1.301  1.6066  1.5274  0.9308
  543MOL0     H73277   8.198   5.587   1.440 -3.4414 -0.2030 -2.7210
  543MOL0     H73278   8.297   5.680   1.317 -1.0320  0.8772 -0.0606
  543MOL0     H73279   8.143   5.413   1.298  3.9274 -0.1355  3.5412
  543MOL0     H73280   8.223   5.489   1.156 -2.2278  0.6826 -1.1122
  543MOL0     H73281   8.062   5.666   1.148  2.0030 -1.4788 -1.0248
  543MOL0     H73282   8.001   5.504   1.137 -2.0003  0.3641  0.3874
  543MOL0     H73283   7.947   5.696   1.362  1.9508  0.1594  0.4632
  543MOL0     H73284   7.933   5.521   1.388 -0.7263  1.2629  0.2187
  543MOL0     H73285   7.789   5.690   1.187  1.7908  0.9298  0.2546
  543MOL0     H73286   7.718   5.627   1.336  3.9288 -0.8502  3.5519
  543MOL0     H73287   8.676   5.216   1.602 -0.0129  0.7770  0.3257
  543MOL0     H73288   8.796   5.069   1.764  1.7646 -0.4154  3.3523
  543MOL0     H73289   8.716   4.840   2.188 -0.4929  2.4582 -1.3262
  543MOL0     H73290   8.833   4.705   2.336 -3.3197  0.1289 -5.2321
  543MOL0     H73291   9.869   5.230   2.045 -0.1925 -0.0092 -0.0024
  543MOL0     H73292   9.897   5.492   2.005 -2.7981 -0.4569 -1.0751
  543MOL0     H73293  10.305   5.832   1.656 -0.6915 -0.6455 -1.4448
  543MOL0     H73294  10.279   6.024   1.514 -0.4325 -0.6199 -1.2396
  543MOL0     H73295   9.848   6.235   1.495  0.4749 -0.2648 -0.4764
  543MOL0     H73296   9.944   6.226   1.648  0.6058  0.3140  0.7808
  543MOL0     H73297  10.034   6.430   1.436  2.9528  2.3869  0.9560
  543MOL0     H73298  10.102   6.377   1.588  0.1262 -2.0763 -1.4870
  543MOL0     H73299   9.847   6.467   1.666 -0.3023  3.6307  0.2954
  543MOL0     H73300   9.839   6.521   1.502  3.0481  2.4811 -2.3646
  543MOL0     H73301  10.049   6.588   1.711 -1.9790 -1.5944  0.3625
  543MOL0     H73302   9.904   6.682   1.685 -1.1836 -1.7995  3.0650
  543MOL0     H73303  10.206   6.825   1.416 -0.2949  0.3825 -0.1657
  543MOL0     H73304   9.851   6.029   1.603  1.1346  0.6780  0.5193
  543MOL0     H73305   9.893   5.807   1.749 -2.9460 -2.3673 -3.8226
  544MOL0     O73306  10.831   6.750   2.511  0.2138  0.2082 -0.1810
  544MOL0     C73307  10.890   6.691   2.419 -0.3874 -0.6750 -0.1660
  544MOL0     O73308  10.835   6.657   2.294 -0.1264  0.0130  0.2375
  544MOL0     C73309  10.706   6.691   2.259 -0.5608 -0.0195  0.3127
  544MOL0     C73310  10.670   6.822   2.235  1.0800  0.1194  0.2285
  544MOL0     C73311  10.541   6.863   2.229 -0.8470 -0.5474 -0.6984
  544MOL0     C73312  10.442   6.776   2.253  0.1651 -0.2404 -1.3916
  544MOL0     O73313  10.313   6.817   2.247  0.5319  0.7687  0.0692
  544MOL0     C73314  10.262   6.868   2.366  0.4167  0.8439 -0.9843
  544MOL0     C73315  10.240   7.024   2.348  0.9331 -0.8580 -0.4248
  544MOL0     C73316  10.136   7.072   2.450 -0.6410  0.5569  1.1991
  544MOL0     C73317  10.182   7.120   2.589  0.4552 -0.1238 -0.6921
  544MOL0     C73318  10.061   7.171   2.671  0.0703 -0.9358 -1.0178
  544MOL0     C73319  10.093   7.252   2.798  1.6142  0.9172  0.1622
  544MOL0     C73320  10.013   7.191   2.927 -0.6501 -1.4495  0.6230
  544MOL0     C73321  10.017   7.280   3.053  0.3461  0.4530 -0.2671
  544MOL0     N73322   9.909   7.238   3.148  0.5185 -0.1088 -0.8914
  544MOL0     C73323   9.920   7.254   3.281  0.0993 -0.3321  0.1957
  544MOL0     C73324   9.804   7.190   3.318  0.9409 -0.1939 -0.0708
  544MOL0     C73325   9.750   7.183   3.453  0.1848  0.8027  0.9571
  544MOL0     C73326   9.743   7.039   3.522 -0.3689 -0.3437 -0.0927
  544MOL0     C73327   9.641   6.939   3.460  0.7804 -0.1079 -0.1606
  544MOL0     C73328   9.607   6.825   3.550 -0.5877 -0.9079  0.1249
  544MOL0     O73329   9.721   6.765   3.601 -1.2315  0.7382 -0.2430
  544MOL0     C73330   9.709   6.649   3.683 -0.1536 -0.5160  0.0805
  544MOL0     C73331   9.594   6.568   3.710 -0.6275  0.0717  0.3104
  544MOL0     C73332   9.607   6.443   3.771  0.4700 -0.3187  1.0403
  544MOL0     C73333   9.485   6.359   3.789  0.4167 -0.6368 -1.3354
  544MOL0     C73334   9.732   6.396   3.812  0.5469  0.8147 -0.1384
  544MOL0     C73335   9.743   6.254   3.877 -0.4589 -0.2590  1.6250
  544MOL0     O73336   9.735   6.155   3.798  0.3521  1.1611 -0.2988
  544MOL0     C73337   9.799   6.037   3.830 -0.9876 -0.1840  0.0544
  544MOL0     C73338   9.743   5.929   3.756 -0.6147  0.3164 -0.2358
  544MOL0     C73339   9.800   5.805   3.761 -0.8208 -0.3259 -0.2308
  544MOL0     C73340   9.903   5.784   3.853  0.7639 -0.4444  0.4595
  544MOL0     O73341   9.962   5.667   3.861 -0.1506 -0.1255  0.5992
  544MOL0     C73342   9.882   5.547   3.878  0.6186 -0.6682  0.9893
  544MOL0     C73343   9.948   5.453   3.973  0.0488 -0.2442  0.8747
  544MOL0     C73344   9.877   5.319   3.982  0.5929 -0.4599 -0.6508
  544MOL0     C73345   9.971   5.218   4.037 -0.3012  0.7727 -0.3480
  544MOL0     C73346   9.973   5.227   4.192 -0.1724 -1.0842  0.2843
  544MOL0     C73347   9.845   5.181   4.256  0.2190 -0.1683 -0.1775
  544MOL0     C73348   9.850   5.177   4.410  0.5633  0.7993  0.4765
  544MOL0     C73349   9.828   5.313   4.486 -1.4137  0.0341 -0.3109
  544MOL0    Cl73350   9.979   5.409   4.475 -0.2421 -0.2800 -0.1987
  544MOL0     C73351   9.967   5.890   3.915  0.2058 -0.3668  0.6035
  544MOL0     C73352   9.919   6.024   3.905 -0.4691 -0.3432 -0.5513
  544MOL0     O73353   9.759   6.252   3.999  0.1303 -0.4472  0.4668
  544MOL0     C73354   9.837   6.477   3.792 -0.4415 -0.9678 -0.0865
  544MOL0     C73355   9.825   6.602   3.731  0.0883 -0.2122  0.0668
  544MOL0     N73356   9.729   7.156   3.211 -0.9624  0.7525  0.2298
  544MOL0     N73357   9.791   7.197   3.109 -0.6564  0.1682  0.5738
  544MOL0     C73358  10.471   6.644   2.292  0.4684  0.4087  0.3779
  544MOL0     C73359  10.608   6.602   2.298  0.2443  0.7094 -0.0603
  544MOL0     C73360  11.028   6.640   2.447  0.1922 -0.1308 -0.4410
  544MOL0     C73361  11.095   6.551   2.358  0.9022 -0.7172  0.4918
  544MOL0     C73362  11.227   6.497   2.384  1.0126  0.3826 -1.0080
  544MOL0     C73363  11.288   6.527   2.507 -0.3724  0.7023  0.9045
  544MOL0     O73364  11.399   6.465   2.552 -0.4665  0.5214  0.0563
  544MOL0     C73365  11.441   6.337   2.486  0.2194 -0.3700 -0.1684
  544MOL0     C73366  11.575   6.302   2.533  1.2644 -0.1282  0.0331
  544MOL0     C73367  11.681   6.415   2.495 -0.0283  0.6678 -0.1124
  544MOL0     C73368  11.756   6.394   2.369 -1.0155 -0.9393 -0.5843
  544MOL0     C73369  11.842   6.280   2.391  0.8623  0.7228  0.6067
  544MOL0     C73370  11.910   6.178   2.407 -0.4820 -0.1676  0.1613
  544MOL0     C73371  11.222   6.621   2.593  0.0719 -0.6949 -0.5941
  544MOL0     C73372  11.093   6.678   2.573 -0.5444  0.2528  0.9713
  544MOL0     H73373  10.753   6.891   2.225  0.2676  0.9058 -1.4951
  544MOL0     H73374  10.528   6.965   2.193  0.0395 -0.1201  0.1546
  544MOL0     H73375  10.166   6.821   2.387  0.7934  1.5173  3.0534
  544MOL0     H73376  10.320   6.859   2.459  0.3292 -2.4396 -1.1314
  544MOL0     H73377  10.338   7.072   2.354  0.4716 -0.0572  2.1113
  544MOL0     H73378  10.199   7.036   2.248 -1.9014 -1.4734  0.5772
  544MOL0     H73379  10.095   7.162   2.403 -3.7382 -0.8186  1.0094
  544MOL0     H73380  10.049   7.008   2.466  1.3271 -1.7112  3.5120
  544MOL0     H73381  10.202   7.027   2.644 -0.8029 -0.3190 -0.5215
  544MOL0     H73382  10.267   7.188   2.597 -0.9696  1.4536  2.2977
  544MOL0     H73383  10.001   7.229   2.599  2.3025 -0.7071 -2.8129
  544MOL0     H73384   9.993   7.090   2.697 -0.4333  0.5220  2.9320
  544MOL0     H73385  10.201   7.249   2.818  1.5023 -1.3289  0.7428
  544MOL0     H73386  10.060   7.353   2.773 -0.8188  0.4459  1.1442
  544MOL0     H73387   9.912   7.171   2.889  0.2168 -1.2014 -1.9841
  544MOL0     H73388  10.055   7.093   2.953  2.9096 -0.9166 -2.3257
  544MOL0     H73389   9.995   7.384   3.026  2.8926  1.0125 -0.4621
  544MOL0     H73390  10.111   7.269   3.107 -0.6488  0.8806  1.6239
  544MOL0     H73391   9.998   7.309   3.332  0.1700 -0.8305  0.6286
  544MOL0     H73392   9.815   7.234   3.525  3.3760 -1.8049  0.1858
  544MOL0     H73393   9.655   7.236   3.447 -0.4615 -0.4550 -2.3107
  544MOL0     H73394   9.704   7.065   3.621 -1.1424 -2.3451  0.1779
  544MOL0     H73395   9.846   7.001   3.522 -0.8248 -1.6619 -1.4517
  544MOL0     H73396   9.688   6.904   3.367 -1.9005  3.2178 -3.0565
  544MOL0     H73397   9.553   6.997   3.431  2.1486  2.2289  0.0954
  544MOL0     H73398   9.552   6.754   3.488  1.4688 -0.7092 -2.0392
  544MOL0     H73399   9.543   6.852   3.635 -1.2304 -2.5982  0.2323
  544MOL0     H73400   9.504   6.620   3.679 -0.8543  0.3941  1.4566
  544MOL0     H73401   9.404   6.428   3.761  0.2300  0.1970  1.0412
  544MOL0     H73402   9.490   6.263   3.737 -2.7407 -1.0735 -0.9999
  544MOL0     H73403   9.471   6.335   3.895 -2.7643 -1.9149 -1.9290
  544MOL0     H73404   9.668   5.959   3.683 -0.2692  1.7200 -0.0375
  544MOL0     H73405   9.764   5.721   3.703  0.7352 -1.4585  0.3825
  544MOL0     H73406   9.787   5.570   3.927  0.3417 -0.1476  0.2349
  544MOL0     H73407   9.865   5.491   3.786  0.8712 -1.7762  1.6072
  544MOL0     H73408  10.037   5.418   3.920 -0.0447 -0.5934  0.9466
  544MOL0     H73409   9.973   5.493   4.072 -1.5102 -2.6006  2.3246
  544MOL0     H73410   9.839   5.280   3.887 -2.6878 -1.1800  0.8050
  544MOL0     H73411   9.788   5.331   4.044  1.6446  1.2859  0.6220
  544MOL0     H73412   9.937   5.116   4.019 -1.3453  0.7406  1.5539
  544MOL0     H73413  10.072   5.218   3.995 -1.4322 -2.0196 -3.5199
  544MOL0     H73414  10.003   5.329   4.218  2.0566 -0.7029 -3.0873
  544MOL0     H73415  10.056   5.168   4.232  1.1109  1.2620  1.3283
  544MOL0     H73416   9.766   5.250   4.226  1.6067  1.9135  0.7033
  544MOL0     H73417   9.836   5.076   4.225  2.6976 -1.5268  3.0535
  544MOL0     H73418   9.946   5.134   4.440  0.0260 -0.3248  0.6046
  544MOL0     H73419   9.778   5.110   4.457 -0.0427  0.7323 -0.5172
  544MOL0     H73420   9.811   5.297   4.592 -0.9265  0.4309 -0.1673
  544MOL0     H73421   9.746   5.372   4.445  0.0307  0.5569 -2.6595
  544MOL0     H73422  10.045   5.855   3.981 -0.5122 -0.2353  1.5371
  544MOL0     H73423   9.970   6.100   3.963 -4.6073 -0.4915  3.9667
  544MOL0     H73424   9.937   6.449   3.823  0.3974  1.3645 -0.4775
  544MOL0     H73425   9.907   6.667   3.704 -1.5716  1.6380 -0.7647
  544MOL0     H73426  10.381   6.587   2.316 -0.3569  1.6038  0.2321
  544MOL0     H73427  10.636   6.504   2.333  3.9052  1.9550  1.0021
  544MOL0     H73428  11.034   6.528   2.272  2.4292  1.2374 -1.2514
  544MOL0     H73429  11.265   6.444   2.298 -0.8084 -1.8599 -0.5570
  544MOL0     H73430  11.361   6.262   2.495 -2.3190  1.9615 -1.5851
  544MOL0     H73431  11.446   6.355   2.378  0.1720 -2.5906 -0.5906
  544MOL0     H73432  11.599   6.204   2.491 -0.7246  0.2073 -2.0895
  544MOL0     H73433  11.568   6.298   2.642  4.9188  1.2497  0.4543
  544MOL0     H73434  11.742   6.430   2.585 -0.2016 -1.0256  0.3275
  544MOL0     H73435  11.632   6.512   2.487 -0.9136  0.0895 -2.6070
  544MOL0     H73436  11.804   6.489   2.343 -2.9271 -0.5864 -3.2834
  544MOL0     H73437  11.685   6.379   2.286  1.8143  0.3164 -3.4625
  544MOL0     H73438  11.983   6.103   2.429  1.4874  0.5347 -3.2679
  544MOL0     H73439  11.272   6.637   2.688  0.2287  1.7964 -1.0235
  544MOL0     H73440  11.053   6.747   2.646 -2.2074  1.3871 -0.8984
  545MOL0     O73441   7.493   6.600   3.066 -0.0377  0.2312  0.4133
  545MOL0     C73442   7.420   6.583   2.967 -0.7694 -0.0770 -0.8387
  545MOL0     O73443   7.429   6.484   2.873  0.3471 -0.3060 -0.8926
  545MOL0     C73444   7.492   6.373   2.902  0.5463 -0.2646 -1.0932
  545MOL0     C73445   7.550   6.324   3.025 -0.5935 -0.5040 -0.5855
  545MOL0     C73446   7.624   6.204   3.030 -0.5845 -0.2534 -0.8095
  545MOL0     C73447   7.623   6.120   2.911 -0.5401 -0.3817 -0.2057
  545MOL0     O73448   7.686   5.997   2.894 -0.2105  0.2033 -0.3414
  545MOL0     C73449   7.725   5.924   3.010  0.0430 -0.7965  0.3920
  545MOL0     C73450   7.768   5.778   3.021  0.7939 -0.3449 -0.6092
  545MOL0     C73451   7.873   5.761   3.135 -1.0998 -0.6466 -0.0267
  545MOL0     C73452   7.906   5.616   3.176  0.4322 -0.6077  0.1386
  545MOL0     C73453   7.793   5.564   3.266  0.1797 -0.0217  0.5725
  545MOL0     C73454   7.813   5.418   3.302  0.6064  0.8261  0.3410
  545MOL0     C73455   7.940   5.388   3.388 -0.4994  0.3562  0.0354
  545MOL0     C73456   7.932   5.422   3.531 -0.8981 -0.6919  0.4847
  545MOL0     N73457   7.831   5.340   3.591  0.4391 -0.0727  0.4598
  545MOL0     C73458   7.841   5.203   3.617  0.0838  0.1826 -0.1420
  545MOL0     C73459   7.712   5.161   3.631  0.1599  0.2750 -0.3067
  545MOL0     C73460   7.688   5.019   3.654 -0.6924  0.9778  0.2503
  545MOL0     C73461   7.542   4.982   3.674  0.3516  0.2826  0.0920
  545MOL0     C73462   7.487   5.056   3.804 -0.1213 -0.1002  0.5629
  545MOL0     C73463   7.376   4.996   3.881  0.1005  0.5457 -0.6623
  545MOL0     O73464   7.243   5.047   3.844 -0.2736  0.1094  0.4589
  545MOL0     C73465   7.135   4.998   3.918 -0.2861 -0.3205  0.3975
  545MOL0     C73466   7.020   5.068   3.895  0.8101 -0.3037  0.8585
  545MOL0     C73467   6.897   5.012   3.929  0.4168 -0.3722 -0.0530
  545MOL0     C73468   6.778   5.088   3.878  0.5095  0.1318 -0.0334
  545MOL0     C73469   6.894   4.907   4.018  0.0812  0.1396  1.2959
  545MOL0     C73470   6.762   4.849   4.065 -0.1140 -0.8587  0.5216
  545MOL0     O73471   6.758   4.789   4.182  0.1853  0.1152 -0.0159
  545MOL0     C73472   6.644   4.721   4.218 -0.7861 -0.2942 -0.2254
  545MOL0     C73473   6.581   4.617   4.151 -1.1111  0.4903 -0.8504
  545MOL0     C73474   6.482   4.545   4.217  0.6909  0.1986  0.0013
  545MOL0     C73475   6.434   4.567   4.346  1.1327 -0.1587 -0.1964
  545MOL0     O73476   6.338   4.484   4.404 -0.3568  0.0220  0.1779
  545MOL0     C73477   6.247   4.555   4.484 -0.3733 -0.4955 -0.0374
  545MOL0     C73478   6.108   4.494   4.498 -1.4611  0.6173  0.2070
  545MOL0     C73479   6.113   4.345   4.530  0.0578  0.4552  0.5166
  545MOL0     C73480   5.980   4.275   4.518 -0.3784 -0.1578 -0.2352
  545MOL0     C73481   5.939   4.184   4.628 -0.8348  0.2701  0.0549
  545MOL0     C73482   5.790   4.167   4.621 -0.1756  0.2829  0.8473
  545MOL0     C73483   5.720   4.120   4.495 -0.1415  0.3343  0.2093
  545MOL0     C73484   5.770   3.983   4.449  0.2787  0.7354 -0.8477
  545MOL0    Cl73485   5.645   3.862   4.514  0.1135 -0.4557 -0.0443
  545MOL0     C73486   6.470   4.696   4.395 -0.2318  0.1098  0.0524
  545MOL0     C73487   6.575   4.767   4.330  0.2450 -0.1648  0.1368
  545MOL0     O73488   6.673   4.845   3.981  0.7214 -0.0535  0.5072
  545MOL0     C73489   7.012   4.852   4.054 -0.0943 -0.4808  0.8566
  545MOL0     C73490   7.134   4.894   4.000  0.1011  0.6463 -1.0959
  545MOL0     N73491   7.629   5.270   3.604 -0.0911 -0.4772  0.7022
  545MOL0     N73492   7.696   5.379   3.587  0.3162 -0.3078 -0.2632
  545MOL0     C73493   7.576   6.174   2.791  0.8172 -0.5938 -0.1675
  545MOL0     C73494   7.504   6.297   2.795 -0.0340 -0.3617  0.3121
  545MOL0     C73495   7.331   6.696   2.936  0.7013  0.4357  0.3491
  545MOL0     C73496   7.269   6.758   3.049  0.4706  0.0081  0.0623
  545MOL0     C73497   7.177   6.861   3.012  0.1897  0.2668 -0.1932
  545MOL0     C73498   7.170   6.925   2.889  0.0270 -0.5144  0.5152
  545MOL0     O73499   7.092   7.035   2.862  0.2690 -1.2697  0.3682
  545MOL0     C73500   7.032   7.124   2.954  0.5804 -0.2492  0.2764
  545MOL0     C73501   7.143   7.215   3.025 -0.2478  0.7641  0.2653
  545MOL0     C73502   7.083   7.320   3.111  1.0332  0.2457  1.0734
  545MOL0     C73503   6.983   7.414   3.046  0.3109  0.3658  0.3323
  545MOL0     C73504   6.999   7.541   3.113 -0.2318  0.5783  0.4182
  545MOL0     C73505   7.033   7.638   3.182  0.3243 -0.2577 -0.0181
  545MOL0     C73506   7.226   6.851   2.786 -0.0262  0.2941  0.8229
  545MOL0     C73507   7.297   6.740   2.804 -0.5368  0.4776 -0.6088
  545MOL0     H73508   7.549   6.379   3.119  1.5421  1.3235 -1.5242
  545MOL0     H73509   7.673   6.184   3.125 -1.1638 -2.5086 -0.9270
  545MOL0     H73510   7.820   5.970   3.038 -0.0605 -0.5408  0.3235
  545MOL0     H73511   7.654   5.933   3.092  1.6706  0.7552  1.7264
  545MOL0     H73512   7.680   5.727   3.062  1.7398  0.6923  3.0718
  545MOL0     H73513   7.802   5.739   2.925 -1.4779  2.5473 -2.7641
  545MOL0     H73514   7.963   5.788   3.078 -2.7280  0.8116 -2.0678
  545MOL0     H73515   7.855   5.830   3.218 -4.0191 -3.0019  1.4998
  545MOL0     H73516   7.913   5.539   3.099  3.0091  0.0061 -0.3338
  545MOL0     H73517   7.993   5.611   3.243 -0.8355 -1.3575  1.8062
  545MOL0     H73518   7.781   5.625   3.356 -2.3848  0.3991  0.0221
  545MOL0     H73519   7.696   5.572   3.216 -0.4009 -1.2042  1.4494
  545MOL0     H73520   7.724   5.370   3.344  2.3690 -1.0131  2.1964
  545MOL0     H73521   7.813   5.372   3.203  1.4393  0.1266  0.6596
  545MOL0     H73522   7.978   5.285   3.377 -1.9448  0.0743 -3.6042
  545MOL0     H73523   8.025   5.441   3.344 -0.8443 -0.4284 -1.6597
  545MOL0     H73524   7.891   5.523   3.539 -0.5436 -0.5180  0.1186
  545MOL0     H73525   8.029   5.399   3.576 -0.3599  0.8034  0.1428
  545MOL0     H73526   7.928   5.137   3.619  1.7862  2.3313 -0.5290
  545MOL0     H73527   7.713   4.955   3.569 -1.9983  0.9644 -0.1598
  545MOL0     H73528   7.741   4.966   3.733  1.2259 -2.7401 -3.1262
  545MOL0     H73529   7.523   4.874   3.678 -2.7630  0.6200 -2.0392
  545MOL0     H73530   7.486   5.007   3.583 -1.4469  1.2352  1.3912
  545MOL0     H73531   7.454   5.152   3.764 -0.3393  0.2604  1.5852
  545MOL0     H73532   7.569   5.073   3.874  1.1527 -3.4737  0.0663
  545MOL0     H73533   7.380   5.011   3.990 -2.0002 -0.3693 -0.4120
  545MOL0     H73534   7.374   4.889   3.860 -2.9861  0.3883  0.0324
  545MOL0     H73535   7.025   5.143   3.817  0.6645 -0.9964  0.1673
  545MOL0     H73536   6.740   5.025   3.797 -1.7222 -0.1241  1.1255
  545MOL0     H73537   6.698   5.112   3.950  2.6939  3.9558  1.4064
  545MOL0     H73538   6.804   5.187   3.839  2.0985  0.2869  1.2985
  545MOL0     H73539   6.614   4.603   4.049  1.6703  1.5847 -0.1684
  545MOL0     H73540   6.435   4.462   4.164  0.8881 -0.0208  0.1678
  545MOL0     H73541   6.301   4.576   4.576  1.2252  0.5410 -1.1563
  545MOL0     H73542   6.228   4.654   4.441  0.9846 -0.1270  0.1518
  545MOL0     H73543   6.040   4.547   4.565 -1.0816  1.5793 -0.1572
  545MOL0     H73544   6.053   4.500   4.404 -0.7788 -0.4498 -0.2833
  545MOL0     H73545   6.161   4.318   4.625  1.8801  1.0360 -0.1816
  545MOL0     H73546   6.184   4.294   4.463 -0.9912  0.4737 -0.6373
  545MOL0     H73547   5.904   4.352   4.500 -0.3585 -0.6820 -3.0619
  545MOL0     H73548   5.974   4.219   4.424 -0.8626 -0.2753 -0.1360
  545MOL0     H73549   5.971   4.224   4.725 -0.1757  1.1914 -0.5250
  545MOL0     H73550   5.987   4.086   4.622 -0.8074  0.0558  2.5483
  545MOL0     H73551   5.760   4.097   4.700  0.5890 -1.6873 -0.5389
  545MOL0     H73552   5.749   4.266   4.645 -0.5499 -0.2002  2.3516
  545MOL0     H73553   5.756   4.191   4.420 -0.9357  1.1669  0.5963
  545MOL0     H73554   5.611   4.126   4.498 -0.4022 -1.4798 -2.1974
  545MOL0     H73555   5.864   3.965   4.502 -1.2072  0.3231  1.8234
  545MOL0     H73556   5.784   3.979   4.341 -3.0239  0.1028 -1.3536
  545MOL0     H73557   6.448   4.733   4.495  1.4750  4.3959 -0.9515
  545MOL0     H73558   6.622   4.856   4.368  0.8115 -0.1259 -0.6298
  545MOL0     H73559   6.997   4.758   4.107 -0.9646 -2.4591 -2.5332
  545MOL0     H73560   7.217   4.834   4.037 -1.6505 -0.9270  0.4431
  545MOL0     H73561   7.582   6.116   2.699 -2.2984 -0.4393 -0.5696
  545MOL0     H73562   7.463   6.344   2.706 -1.2211  1.8716  1.9149
  545MOL0     H73563   7.278   6.727   3.152  1.7335 -0.4700 -0.1760
  545MOL0     H73564   7.116   6.911   3.087  1.2481 -0.0038  0.8642
  545MOL0     H73565   6.950   7.171   2.898 -2.1945 -1.7827  2.7631
  545MOL0     H73566   6.985   7.062   3.032  0.8470 -2.5408 -1.2965
  545MOL0     H73567   7.219   7.258   2.960  1.8212 -2.5619  0.2947
  545MOL0     H73568   7.205   7.157   3.094  4.4078  2.3576 -2.1395
  545MOL0     H73569   7.166   7.381   3.147  1.0647  2.1550 -1.9688
  545MOL0     H73570   7.034   7.267   3.194  1.2902  0.8457  1.6091
  545MOL0     H73571   6.880   7.376   3.053  1.0888 -2.2732 -1.2063
  545MOL0     H73572   7.017   7.429   2.943  1.9523 -0.6504  0.7000
  545MOL0     H73573   7.065   7.725   3.235 -1.1766  1.1122 -1.2212
  545MOL0     H73574   7.209   6.886   2.684  2.4385 -1.0660 -0.1419
  545MOL0     H73575   7.335   6.692   2.714 -2.5048 -1.1664 -0.6350
  546MOL0     O73576   5.899   5.844   1.914  0.4705 -0.2728 -0.6592
  546MOL0     C73577   5.778   5.822   1.915  0.6588  0.1752  0.1940
  546MOL0     O73578   5.675   5.896   1.974 -0.4755  0.5375  0.1158
  546MOL0     C73579   5.717   5.997   2.059 -0.6666 -0.9728 -1.3913
  546MOL0     C73580   5.763   6.119   2.008  0.4021 -0.2978  0.9763
  546MOL0     C73581   5.818   6.212   2.088 -0.6182 -0.6141  0.0611
  546MOL0     C73582   5.807   6.195   2.225  0.3837 -0.2929  0.6142
  546MOL0     O73583   5.853   6.282   2.314 -0.6805  1.2428  0.0391
  546MOL0     C73584   5.827   6.419   2.290  0.0004 -0.8808  0.5400
  546MOL0     C73585   5.884   6.515   2.399  0.7100  0.7294 -0.3227
  546MOL0     C73586   6.037   6.531   2.376  1.4537 -0.4373 -0.2186
  546MOL0     C73587   6.110   6.570   2.505 -0.6976 -0.0888 -0.7278
  546MOL0     C73588   6.255   6.571   2.487  0.3510 -0.4248 -0.6124
  546MOL0     C73589   6.322   6.617   2.612  0.3949  0.1550 -0.5611
  546MOL0     C73590   6.470   6.590   2.606 -0.2823  0.4348  0.3792
  546MOL0     C73591   6.573   6.693   2.547  0.2877  0.0853 -0.5864
  546MOL0     N73592   6.546   6.726   2.399 -0.3086 -0.1950  0.1578
  546MOL0     C73593   6.532   6.642   2.292  0.0587  0.4092  0.7728
  546MOL0     C73594   6.499   6.711   2.183  0.3926  0.2630 -0.6705
  546MOL0     C73595   6.482   6.645   2.054 -0.1713 -0.4944 -0.7302
  546MOL0     C73596   6.556   6.709   1.938  0.3294  0.1579  1.0048
  546MOL0     C73597   6.700   6.729   1.960 -0.5137 -0.4783 -0.0967
  546MOL0     C73598   6.763   6.810   1.856 -0.1145  0.2952 -0.1018
  546MOL0     O73599   6.894   6.853   1.890  0.6268  0.1365 -0.5234
  546MOL0     C73600   7.001   6.769   1.893  0.8843 -0.4148 -0.9120
  546MOL0     C73601   7.006   6.638   1.841 -0.0903  1.0826 -0.8651
  546MOL0     C73602   7.120   6.557   1.864 -0.9697  0.7514 -0.3875
  546MOL0     C73603   7.119   6.416   1.810  0.0511  0.4716 -0.0764
  546MOL0     C73604   7.232   6.614   1.925 -0.9158 -1.0215 -0.4335
  546MOL0     C73605   7.369   6.546   1.938 -0.5283  0.5456  0.8794
  546MOL0     O73606   7.450   6.606   2.033 -0.1129 -0.1148 -0.0074
  546MOL0     C73607   7.578   6.560   2.042  0.2407  0.2732  0.1445
  546MOL0     C73608   7.667   6.672   2.045  0.3227 -0.0463 -0.2433
  546MOL0     C73609   7.809   6.651   2.068  0.2829  0.2508 -1.1173
  546MOL0     C73610   7.845   6.517   2.083  0.6320  0.5079 -0.3192
  546MOL0     O73611   7.964   6.477   2.115 -0.4073  0.3263  0.2716
  546MOL0     C73612   8.049   6.568   2.202 -0.6639  0.8185  0.6444
  546MOL0     C73613   8.166   6.494   2.253 -0.5597  0.0642  0.8993
  546MOL0     C73614   8.241   6.593   2.346  1.1784 -0.1758  0.0638
  546MOL0     C73615   8.303   6.506   2.465 -0.3013  0.0526  0.2027
  546MOL0     C73616   8.411   6.416   2.400 -0.5370  0.5242 -0.2615
  546MOL0     C73617   8.472   6.312   2.496 -0.0585 -0.9415 -0.1032
  546MOL0     C73618   8.515   6.372   2.625 -0.3018 -0.9004 -0.4270
  546MOL0     C73619   8.551   6.261   2.723  1.1701 -0.8782  1.2586
  546MOL0    Cl73620   8.662   6.130   2.666 -0.3700  0.3253 -0.1210
  546MOL0     C73621   7.752   6.406   2.108  0.4959  0.1532 -0.6845
  546MOL0     C73622   7.617   6.428   2.072 -0.3869 -0.8047 -0.0068
  546MOL0     O73623   7.400   6.450   1.859  0.4538 -0.0913 -0.1090
  546MOL0     C73624   7.228   6.753   1.961  0.4742  0.0053 -0.3420
  546MOL0     C73625   7.114   6.830   1.945  0.0090  0.2317 -0.8931
  546MOL0     N73626   6.501   6.841   2.234  0.2496  0.2207  0.5311
  546MOL0     N73627   6.522   6.859   2.355  0.2653 -0.2775 -0.4867
  546MOL0     C73628   5.775   6.073   2.283 -0.1243 -0.6316  0.0221
  546MOL0     C73629   5.724   5.975   2.198  0.1252 -0.1452  1.4695
  546MOL0     C73630   5.724   5.720   1.815  0.3671  0.0927  0.4526
  546MOL0     C73631   5.591   5.670   1.820  0.4015 -0.5751  0.5529
  546MOL0     C73632   5.556   5.571   1.721  0.1639  0.2609  0.2825
  546MOL0     C73633   5.643   5.517   1.626 -0.0890  0.3465 -0.5453
  546MOL0     O73634   5.593   5.419   1.546  0.2179  0.0294 -0.5511
  546MOL0     C73635   5.552   5.476   1.426  0.4989 -0.3812  0.4740
  546MOL0     C73636   5.493   5.365   1.342 -0.0445  0.1237  0.5681
  546MOL0     C73637   5.354   5.306   1.390  0.1828 -1.1632 -0.5144
  546MOL0     C73638   5.274   5.228   1.283  0.6039 -0.0952  0.0164
  546MOL0     C73639   5.351   5.114   1.224 -0.3864 -0.0380 -0.3005
  546MOL0     C73640   5.406   5.021   1.164 -0.7250 -1.1167  0.4703
  546MOL0     C73641   5.770   5.577   1.622 -0.4104 -0.1453 -0.3273
  546MOL0     C73642   5.808   5.672   1.718  0.4074  0.9970 -0.7115
  546MOL0     H73643   5.749   6.129   1.900  0.1685 -0.5209  0.9839
  546MOL0     H73644   5.871   6.303   2.058  1.3695 -1.9609 -0.7078
  546MOL0     H73645   5.870   6.439   2.192 -0.8365 -4.4352 -0.7184
  546MOL0     H73646   5.722   6.444   2.270  0.9503  0.0954 -4.6680
  546MOL0     H73647   5.839   6.614   2.397 -5.5644 -1.6854 -0.7137
  546MOL0     H73648   5.863   6.470   2.496  3.1625 -0.6116 -0.3170
  546MOL0     H73649   6.074   6.432   2.347  0.1762 -0.3564 -2.3188
  546MOL0     H73650   6.059   6.592   2.288  0.5616  1.9622  1.1168
  546MOL0     H73651   6.084   6.667   2.547  0.5971  1.1403 -2.6273
  546MOL0     H73652   6.089   6.489   2.575  1.2187 -0.1755 -0.1972
  546MOL0     H73653   6.289   6.474   2.452 -3.0664 -1.0798 -2.5266
  546MOL0     H73654   6.285   6.639   2.407  0.9973  1.2377  0.9594
  546MOL0     H73655   6.300   6.720   2.641  1.5203  0.3434 -0.3337
  546MOL0     H73656   6.284   6.548   2.688 -1.2607  0.0280 -1.4407
  546MOL0     H73657   6.504   6.571   2.708  0.1790 -0.9381 -0.0191
  546MOL0     H73658   6.499   6.495   2.562  3.9865  2.2519 -1.2331
  546MOL0     H73659   6.678   6.662   2.554  0.5880  0.9845 -0.9052
  546MOL0     H73660   6.565   6.781   2.611  0.0567 -1.5597  1.7732
  546MOL0     H73661   6.550   6.535   2.292  1.9395  0.6904 -0.3275
  546MOL0     H73662   6.523   6.544   2.057  1.1333 -0.0438 -2.2586
  546MOL0     H73663   6.375   6.647   2.030 -0.1247  0.4257 -0.9167
  546MOL0     H73664   6.513   6.810   1.933  0.0823  0.1205  2.1645
  546MOL0     H73665   6.518   6.668   1.844  2.1683 -1.4387  0.9085
  546MOL0     H73666   6.758   6.636   1.967  0.5839  0.1655 -0.3713
  546MOL0     H73667   6.712   6.779   2.056  3.2002 -3.2525  1.1429
  546MOL0     H73668   6.709   6.902   1.834  1.0646  0.6475 -1.6914
  546MOL0     H73669   6.764   6.759   1.759 -0.3411  2.3853 -1.2445
  546MOL0     H73670   6.914   6.589   1.808  0.0227  1.0369 -1.1134
  546MOL0     H73671   7.154   6.416   1.706 -0.0995 -1.8835 -0.1697
  546MOL0     H73672   7.183   6.344   1.861 -0.0340 -3.1169 -4.4129
  546MOL0     H73673   7.015   6.384   1.803  0.7462 -2.3602  1.3430
  546MOL0     H73674   7.636   6.773   2.017  0.8378  0.1794 -0.0125
  546MOL0     H73675   7.877   6.736   2.065  0.2362  0.6131  2.8080
  546MOL0     H73676   8.077   6.649   2.133 -1.1263 -0.9044 -1.6851
  546MOL0     H73677   7.995   6.606   2.289 -0.1365  0.1229  1.2924
  546MOL0     H73678   8.132   6.406   2.307 -2.5003  0.3958  0.2771
  546MOL0     H73679   8.230   6.453   2.174 -3.0119  2.3143 -2.5261
  546MOL0     H73680   8.180   6.672   2.392  2.2207  0.6933 -0.0266
  546MOL0     H73681   8.324   6.637   2.291 -0.7712 -0.6418 -3.5147
  546MOL0     H73682   8.353   6.572   2.536 -2.4875  0.7414  1.1770
  546MOL0     H73683   8.229   6.441   2.511 -0.6838 -0.0263 -0.5180
  546MOL0     H73684   8.491   6.484   2.368 -1.3246  1.1486 -0.9583
  546MOL0     H73685   8.363   6.364   2.317  1.4023 -0.7259 -0.6529
  546MOL0     H73686   8.389   6.242   2.510 -2.5797  1.1108 -3.2180
  546MOL0     H73687   8.560   6.269   2.448  1.9894  3.0932 -0.4070
  546MOL0     H73688   8.437   6.416   2.687 -0.0701 -3.4534  1.8822
  546MOL0     H73689   8.591   6.446   2.600 -0.5739 -0.9407 -1.4310
  546MOL0     H73690   8.451   6.226   2.752  0.9236 -1.1340  0.1231
  546MOL0     H73691   8.598   6.311   2.808 -0.5823 -1.1113  2.4258
  546MOL0     H73692   7.778   6.311   2.152 -0.8683  0.7063  1.4557
  546MOL0     H73693   7.548   6.344   2.068 -0.2788 -0.9389  0.7751
  546MOL0     H73694   7.317   6.795   2.005 -0.3286  0.0532  1.3125
  546MOL0     H73695   7.101   6.928   1.990 -4.0911  0.5372 -2.2961
  546MOL0     H73696   5.797   6.060   2.388  1.7927  0.0326 -0.2553
  546MOL0     H73697   5.709   5.873   2.231 -0.8888 -0.6781 -0.5107
  546MOL0     H73698   5.521   5.707   1.895  0.6970  1.6560 -0.2082
  546MOL0     H73699   5.453   5.538   1.728  0.6693 -1.3074  0.7257
  546MOL0     H73700   5.475   5.551   1.448  0.5892 -1.1852  4.2280
  546MOL0     H73701   5.642   5.516   1.377  1.1762 -4.0638 -1.6344
  546MOL0     H73702   5.563   5.281   1.350  1.5642  1.1881 -1.2825
  546MOL0     H73703   5.474   5.407   1.243  1.8953  0.8978  0.4599
  546MOL0     H73704   5.290   5.371   1.449  1.8158 -1.3964  1.6615
  546MOL0     H73705   5.392   5.233   1.463  3.5455  1.6746  0.8554
  546MOL0     H73706   5.241   5.293   1.201 -1.8041 -0.4652  0.6172
  546MOL0     H73707   5.182   5.199   1.333  0.2042  2.1918  0.7520
  546MOL0     H73708   5.442   4.930   1.121  2.2172  1.1213 -2.2207
  546MOL0     H73709   5.846   5.545   1.551 -1.4710 -0.3603 -1.3841
  546MOL0     H73710   5.912   5.701   1.709  1.8011 -2.7742  0.9816
  547MOL0     O73711   7.052   8.151   5.764  0.0093 -0.6846  0.3227
  547MOL0     C73712   7.020   8.102   5.662 -0.5070  0.2033  0.8672
  547MOL0     O73713   6.911   8.133   5.594  0.2110  0.5377  0.3558
  547MOL0     C73714   6.823   8.225   5.649 -0.4848 -0.3814 -0.4413
  547MOL0     C73715   6.846   8.361   5.618 -0.2007  0.1157  0.6381
  547MOL0     C73716   6.776   8.456   5.684  0.1314  0.1636 -0.0203
  547MOL0     C73717   6.671   8.429   5.767  0.5621  0.2853 -0.6788
  547MOL0     O73718   6.610   8.537   5.829 -0.4822 -0.2229  0.0040
  547MOL0     C73719   6.474   8.533   5.873 -1.0590  0.2981 -0.3635
  547MOL0     C73720   6.405   8.647   5.794 -0.3713  0.0520  0.6080
  547MOL0     C73721   6.390   8.623   5.650  0.4186  0.5703  1.2757
  547MOL0     C73722   6.357   8.745   5.560 -0.6877  0.8860  0.3573
  547MOL0     C73723   6.356   8.703   5.413 -0.6545 -0.3366 -0.0306
  547MOL0     C73724   6.282   8.793   5.315 -0.0794 -0.0324 -0.8163
  547MOL0     C73725   6.323   8.774   5.172 -0.0132  0.2941  1.0326
  547MOL0     C73726   6.244   8.856   5.069  0.1840  0.8457  0.7379
  547MOL0     N73727   6.320   8.972   5.009 -0.4130  0.0997  0.5808
  547MOL0     C73728   6.412   9.052   5.074 -0.3563 -0.4479 -0.7154
  547MOL0     C73729   6.438   9.163   4.994 -0.4646  0.5761  0.6344
  547MOL0     C73730   6.527   9.281   5.043  0.3912 -0.5083  0.1962
  547MOL0     C73731   6.457   9.382   5.143 -0.8993 -0.6146 -0.8202
  547MOL0     C73732   6.429   9.515   5.079  0.5980  0.1501 -0.1514
  547MOL0     C73733   6.316   9.497   4.978  0.1919  1.3122  0.3868
  547MOL0     O73734   6.316   9.622   4.905  0.7368  0.2516  0.0728
  547MOL0     C73735   6.227   9.635   4.807 -0.0871 -0.2532  0.6701
  547MOL0     C73736   6.245   9.580   4.681  0.0119  0.8703  0.0547
  547MOL0     C73737   6.171   9.625   4.570  0.0131 -0.6894  0.3754
  547MOL0     C73738   6.170   9.537   4.449 -0.4387 -0.8773  0.3522
  547MOL0     C73739   6.085   9.735   4.579 -0.5813 -0.0045  0.2486
  547MOL0     C73740   6.031   9.796   4.452  0.9717  0.1232 -0.1529
  547MOL0     O73741   6.075   9.920   4.418 -0.1707  0.2567  0.0900
  547MOL0     C73742   6.119   9.937   4.289 -1.7832 -0.4100  0.3464
  547MOL0     C73743   6.140  10.067   4.239  1.0862 -0.0173  0.0782
  547MOL0     C73744   6.201  10.095   4.113 -0.1525 -0.7565 -0.8654
  547MOL0     C73745   6.240   9.985   4.038  0.6964  0.1608  0.2772
  547MOL0     O73746   6.285  10.008   3.917 -0.3493  0.2280 -0.1528
  547MOL0     C73747   6.417   9.978   3.885  0.7643  0.5622  0.3272
  547MOL0     C73748   6.443   9.974   3.734  0.2163 -0.0270 -1.2583
  547MOL0     C73749   6.350   9.859   3.667 -0.5727 -0.9239 -0.0736
  547MOL0     C73750   6.438   9.732   3.677 -0.3467  0.2859  0.1976
  547MOL0     C73751   6.393   9.605   3.601 -1.4892 -0.4060 -0.0713
  547MOL0     C73752   6.255   9.549   3.618  0.8922  0.1426 -0.7098
  547MOL0     C73753   6.226   9.416   3.547  0.0304 -0.4055 -0.0906
  547MOL0     C73754   6.102   9.346   3.598  0.5966  0.6087 -1.2022
  547MOL0    Cl73755   5.967   9.456   3.568  0.2721 -0.2041 -0.0443
  547MOL0     C73756   6.217   9.854   4.081  0.3236  0.2776  0.9019
  547MOL0     C73757   6.161   9.825   4.203  0.7569 -1.3024  0.1591
  547MOL0     O73758   5.938   9.741   4.396 -0.2865 -0.7175 -0.0800
  547MOL0     C73759   6.061   9.795   4.701 -0.2613  0.5549  0.7499
  547MOL0     C73760   6.128   9.730   4.816 -0.4329 -0.6217 -0.1731
  547MOL0     N73761   6.357   9.148   4.884  0.1049 -0.0417  0.2091
  547MOL0     N73762   6.285   9.035   4.888 -0.7930 -0.4057 -0.9277
  547MOL0     C73763   6.650   8.298   5.810 -0.0645 -0.1581  0.9995
  547MOL0     C73764   6.726   8.197   5.748  0.5821  0.9994 -0.4692
  547MOL0     C73765   7.098   7.982   5.615  0.0441  0.0469  0.0464
  547MOL0     C73766   7.197   7.915   5.700 -0.7415 -0.1440 -0.1277
  547MOL0     C73767   7.260   7.811   5.650  0.4699  0.5908 -0.0872
  547MOL0     C73768   7.226   7.743   5.525  0.6305 -0.0246 -0.7707
  547MOL0     O73769   7.302   7.643   5.474  0.0672  0.4770 -0.1017
  547MOL0     C73770   7.354   7.541   5.574  0.0053  0.3907 -0.6554
  547MOL0     C73771   7.399   7.420   5.491 -0.3342  0.6329  0.3117
  547MOL0     C73772   7.280   7.357   5.415  0.5845  0.6634 -0.9030
  547MOL0     C73773   7.314   7.224   5.359  0.2997  0.1683 -1.0982
  547MOL0     C73774   7.203   7.161   5.290  0.7170  0.0376 -0.1918
  547MOL0     C73775   7.090   7.122   5.256 -0.6100  0.0988 -0.3374
  547MOL0     C73776   7.135   7.811   5.442  0.2906 -0.9569  0.3404
  547MOL0     C73777   7.069   7.915   5.496 -0.1608 -0.4052 -0.5425
  547MOL0     H73778   6.927   8.382   5.549 -0.4889  2.7759  1.0096
  547MOL0     H73779   6.799   8.555   5.647 -0.2337  0.0343 -0.6106
  547MOL0     H73780   6.428   8.442   5.834 -1.4272  1.3239 -2.4938
  547MOL0     H73781   6.457   8.555   5.979 -0.2556 -1.1249  0.0828
  547MOL0     H73782   6.307   8.658   5.841  0.6595  1.2425  2.6013
  547MOL0     H73783   6.456   8.742   5.813  0.3964 -0.1848 -0.1550
  547MOL0     H73784   6.473   8.565   5.607 -0.9705 -0.7338  0.2664
  547MOL0     H73785   6.312   8.550   5.631  1.0850 -0.3528  2.0023
  547MOL0     H73786   6.260   8.789   5.583 -0.0567  2.0615  0.8580
  547MOL0     H73787   6.431   8.824   5.575  1.3032 -1.1998  2.2447
  547MOL0     H73788   6.460   8.700   5.380 -0.5461 -0.9810  0.3500
  547MOL0     H73789   6.307   8.607   5.398  0.4677 -0.9875  0.3570
  547MOL0     H73790   6.173   8.783   5.315 -0.0342 -0.5856 -0.9446
  547MOL0     H73791   6.292   8.894   5.354 -4.0908 -0.0698  0.7442
  547MOL0     H73792   6.430   8.790   5.158  0.2762 -1.1712  1.4864
  547MOL0     H73793   6.304   8.668   5.152 -0.6174  0.4957  0.5056
  547MOL0     H73794   6.152   8.903   5.105 -0.3546  0.1480  0.2889
  547MOL0     H73795   6.220   8.793   4.984  0.5953  1.2019  0.3516
  547MOL0     H73796   6.457   9.039   5.172  3.2650 -1.4262 -2.3366
  547MOL0     H73797   6.618   9.240   5.088  1.0285  0.5776 -0.0466
  547MOL0     H73798   6.570   9.342   4.963 -1.3440 -0.4206 -0.7055
  547MOL0     H73799   6.538   9.399   5.213  1.6391 -0.9889 -3.4750
  547MOL0     H73800   6.363   9.352   5.189 -1.3138  2.1307  0.3206
  547MOL0     H73801   6.522   9.554   5.037 -0.0667  2.4087  0.3213
  547MOL0     H73802   6.406   9.584   5.161 -0.6918 -0.6690  0.2072
  547MOL0     H73803   6.226   9.486   5.038  0.7837 -0.4444  0.9943
  547MOL0     H73804   6.330   9.409   4.915 -3.3271  0.8505  0.0686
  547MOL0     H73805   6.313   9.495   4.680 -1.6704 -0.5402 -0.8928
  547MOL0     H73806   6.260   9.569   4.394 -0.6435 -2.0629 -0.7007
  547MOL0     H73807   6.207   9.440   4.482  1.2373 -0.8783 -1.3828
  547MOL0     H73808   6.087   9.533   4.379 -0.3528  2.4400 -0.1302
  547MOL0     H73809   6.092  10.146   4.296 -0.8778  1.1078 -2.8980
  547MOL0     H73810   6.220  10.198   4.086  3.5523 -1.1306 -0.1313
  547MOL0     H73811   6.481  10.052   3.933  0.4364 -0.3505  2.2861
  547MOL0     H73812   6.448   9.882   3.929  0.5035 -0.5064 -1.7137
  547MOL0     H73813   6.433  10.077   3.697 -0.8955  1.7233  3.2434
  547MOL0     H73814   6.548   9.957   3.710  0.5698 -0.7225  0.6504
  547MOL0     H73815   6.331   9.880   3.561  0.3079 -3.5906 -0.8326
  547MOL0     H73816   6.256   9.851   3.723  0.0366 -0.4992  1.0467
  547MOL0     H73817   6.540   9.748   3.641  1.5135 -1.5815  4.0756
  547MOL0     H73818   6.438   9.705   3.783 -0.2216  1.1781  0.4332
  547MOL0     H73819   6.453   9.534   3.659  1.4889  5.3890  5.2112
  547MOL0     H73820   6.407   9.613   3.493  2.2158  2.4501  0.4184
  547MOL0     H73821   6.248   9.527   3.725 -0.0085 -1.8505 -1.1251
  547MOL0     H73822   6.177   9.616   3.581 -0.1351 -1.8978 -2.4672
  547MOL0     H73823   6.314   9.352   3.564  0.3862 -0.2942 -1.4069
  547MOL0     H73824   6.205   9.418   3.440 -1.3682  0.7296  0.1771
  547MOL0     H73825   6.100   9.326   3.705  0.8950 -1.5932 -1.5545
  547MOL0     H73826   6.102   9.255   3.538 -0.2858  0.0455 -0.3640
  547MOL0     H73827   6.223   9.767   4.017 -2.7271  1.0344 -0.6251
  547MOL0     H73828   6.157   9.719   4.228  2.8816 -1.5033 -0.1327
  547MOL0     H73829   5.992   9.879   4.707 -1.0961 -0.1033  0.6927
  547MOL0     H73830   6.100   9.771   4.912 -0.7153 -0.3371 -0.3754
  547MOL0     H73831   6.573   8.279   5.885  0.1689  2.9565  2.2107
  547MOL0     H73832   6.696   8.095   5.769  3.5977 -0.5279 -2.6870
  547MOL0     H73833   7.236   7.957   5.792 -1.1715  2.0410 -0.8846
  547MOL0     H73834   7.345   7.769   5.701  0.9473  1.8732  0.2231
  547MOL0     H73835   7.445   7.572   5.627  0.6932 -2.0459 -0.2617
  547MOL0     H73836   7.286   7.529   5.659  2.3899  0.3027  1.3817
  547MOL0     H73837   7.429   7.346   5.566 -0.9717  0.4164  0.3566
  547MOL0     H73838   7.487   7.440   5.428 -0.4481  3.1420  0.8510
  547MOL0     H73839   7.260   7.423   5.330  1.9294  0.7380 -1.1813
  547MOL0     H73840   7.193   7.358   5.482 -0.2906  1.6047 -2.0025
  547MOL0     H73841   7.325   7.167   5.453 -0.1448  2.3534  0.3476
  547MOL0     H73842   7.409   7.225   5.305  1.6117 -3.4504  0.7357
  547MOL0     H73843   7.000   7.098   5.204 -2.0898 -3.2688  3.2084
  547MOL0     H73844   7.114   7.780   5.340  0.5555 -0.5434  0.1628
  547MOL0     H73845   6.993   7.966   5.438  0.2412  1.7797  0.7163
  548MOL0     O73846   4.203   4.541   3.781  0.1118  0.2762  0.5487
  548MOL0     C73847   4.154   4.573   3.884  0.3948 -0.2890 -0.0182
  548MOL0     O73848   4.022   4.622   3.905 -0.4218 -0.1004  0.0889
  548MOL0     C73849   3.925   4.626   3.809 -0.0202  0.8767 -0.3542
  548MOL0     C73850   3.796   4.592   3.841 -0.5668  0.3046  0.4785
  548MOL0     C73851   3.694   4.604   3.743  0.3811  0.6433 -0.7783
  548MOL0     C73852   3.716   4.639   3.610 -0.1888  0.4159  0.5198
  548MOL0     O73853   3.606   4.643   3.533  0.2653  0.2704 -1.1693
  548MOL0     C73854   3.627   4.661   3.394 -0.8105 -0.1042  0.1505
  548MOL0     C73855   3.677   4.531   3.338 -0.0621 -0.1487  1.0949
  548MOL0     C73856   3.613   4.408   3.399 -0.0742 -0.1443  0.1916
  548MOL0     C73857   3.654   4.288   3.311 -0.1683  0.7936 -1.3349
  548MOL0     C73858   3.603   4.156   3.383  0.1549 -0.0360 -0.1950
  548MOL0     C73859   3.653   4.031   3.304  0.7761  0.3855 -0.1535
  548MOL0     C73860   3.625   3.900   3.396  0.0816 -0.3015  0.3816
  548MOL0     C73861   3.743   3.862   3.477  0.2692 -0.5625 -1.0913
  548MOL0     N73862   3.732   3.775   3.594 -0.2140  0.2757  0.5510
  548MOL0     C73863   3.812   3.777   3.708 -0.2905  0.3415  0.2250
  548MOL0     C73864   3.769   3.671   3.780 -0.3809  0.1216  1.1736
  548MOL0     C73865   3.833   3.623   3.902  0.1417  0.0507 -0.3331
  548MOL0     C73866   3.748   3.644   4.026  0.8866  0.0269 -0.8202
  548MOL0     C73867   3.780   3.555   4.151 -0.4777 -0.2144  0.1699
  548MOL0     C73868   3.913   3.589   4.217 -1.0951  0.2521 -0.3081
  548MOL0     O73869   4.026   3.536   4.138  0.3654  0.0146 -0.0625
  548MOL0     C73870   4.157   3.583   4.164 -0.1476  0.6655 -0.5143
  548MOL0     C73871   4.191   3.681   4.262 -0.6397 -0.0707 -0.0150
  548MOL0     C73872   4.323   3.738   4.255  0.4758  0.7144 -0.3539
  548MOL0     C73873   4.348   3.848   4.349 -0.0881 -0.0945  0.0799
  548MOL0     C73874   4.410   3.704   4.152  0.9725  0.1866 -0.2622
  548MOL0     C73875   4.541   3.760   4.143 -1.2838  0.4814 -0.6557
  548MOL0     O73876   4.628   3.649   4.162 -0.2746  0.1268 -0.1958
  548MOL0     C73877   4.760   3.681   4.169  0.7488  2.0017 -0.8746
  548MOL0     C73878   4.814   3.742   4.284  0.6234  0.7437  0.4828
  548MOL0     C73879   4.959   3.771   4.293  0.9389 -0.0068 -0.9882
  548MOL0     C73880   5.032   3.744   4.175 -0.9827  0.7039 -0.0643
  548MOL0     O73881   5.164   3.799   4.160 -0.3875  0.1694 -0.6228
  548MOL0     C73882   5.284   3.717   4.166  0.5964  0.4843 -0.0073
  548MOL0     C73883   5.380   3.777   4.070 -0.8589 -0.1757  0.5062
  548MOL0     C73884   5.396   3.935   4.069 -0.1296  0.5359 -0.5079
  548MOL0     C73885   5.476   3.994   4.187  0.4940  0.5225 -0.6339
  548MOL0     C73886   5.476   4.141   4.187  0.2132 -0.7299 -0.3628
  548MOL0     C73887   5.571   4.194   4.077 -0.6232 -0.5632  0.4436
  548MOL0     C73888   5.609   4.340   4.098  0.2380  0.2359  0.5363
  548MOL0     C73889   5.720   4.368   4.004  0.5953  0.7088 -0.1149
  548MOL0    Cl73890   5.867   4.265   4.038 -0.8960  0.1643  0.0483
  548MOL0     C73891   4.969   3.684   4.059  0.2933  0.0809  0.1263
  548MOL0     C73892   4.836   3.654   4.061 -0.4071 -0.8932  0.3617
  548MOL0     O73893   4.571   3.879   4.157 -0.9924 -0.8051  0.2777
  548MOL0     C73894   4.372   3.607   4.061  0.4857  0.5777 -0.9235
  548MOL0     C73895   4.253   3.543   4.073  0.3155  0.1075 -0.2076
  548MOL0     N73896   3.658   3.617   3.717 -0.2921  0.7207  1.0839
  548MOL0     N73897   3.629   3.692   3.617  0.1467 -0.5296  0.0599
  548MOL0     C73898   3.849   4.681   3.580 -0.6385 -0.2855 -0.6286
  548MOL0     C73899   3.953   4.680   3.680 -0.2868 -0.6841  0.4326
  548MOL0     C73900   4.233   4.555   4.006 -0.0538  0.6350  0.1633
  548MOL0     C73901   4.365   4.598   4.026 -0.3180  0.2151  0.2851
  548MOL0     C73902   4.428   4.582   4.150  0.0909 -0.1759 -0.2012
  548MOL0     C73903   4.367   4.502   4.249 -1.5216 -0.3486  0.8744
  548MOL0     O73904   4.456   4.465   4.349 -0.2942 -0.0300 -0.0844
  548MOL0     C73905   4.427   4.359   4.426 -0.5374 -0.3989  0.3151
  548MOL0     C73906   4.560   4.297   4.491  0.0370 -0.7480  0.6380
  548MOL0     C73907   4.624   4.233   4.378 -0.0096  0.3276  0.9493
  548MOL0     C73908   4.739   4.148   4.416 -0.2437  0.0141 -0.2425
  548MOL0     C73909   4.703   4.042   4.524  0.0266  0.5396  1.3869
  548MOL0     C73910   4.680   3.945   4.590 -0.0697 -0.1655  0.2067
  548MOL0     C73911   4.233   4.454   4.235 -0.0411  0.5017  1.3273
  548MOL0     C73912   4.166   4.481   4.111  0.5062  0.2281 -0.3504
  548MOL0     H73913   3.769   4.566   3.943  2.0392  3.7175  2.2332
  548MOL0     H73914   3.591   4.589   3.772  1.8039 -1.6736  4.1552
  548MOL0     H73915   3.540   4.679   3.331 -1.8315 -1.2002  1.1935
  548MOL0     H73916   3.691   4.744   3.365 -0.6276  0.3743  1.8043
  548MOL0     H73917   3.656   4.533   3.231  2.1211  0.5996  0.6150
  548MOL0     H73918   3.787   4.524   3.336  0.0294  1.0878  0.3070
  548MOL0     H73919   3.657   4.399   3.499 -0.1279  3.4791  0.7076
  548MOL0     H73920   3.504   4.399   3.396  0.0622 -4.0719 -4.5159
  548MOL0     H73921   3.612   4.285   3.211 -2.3869  1.3433 -0.4704
  548MOL0     H73922   3.764   4.281   3.307 -0.0049  3.0517 -2.1765
  548MOL0     H73923   3.632   4.153   3.488 -0.7353  5.7806  0.5294
  548MOL0     H73924   3.495   4.148   3.369  0.2719 -1.0609 -0.6814
  548MOL0     H73925   3.597   4.014   3.212  2.1155  0.9991 -1.0988
  548MOL0     H73926   3.754   4.045   3.265  0.9267 -1.7918 -0.6675
  548MOL0     H73927   3.536   3.932   3.451 -0.6338  0.0141 -0.9122
  548MOL0     H73928   3.601   3.824   3.321  0.4936  1.5273 -1.6934
  548MOL0     H73929   3.797   3.949   3.516  0.5893 -1.0726 -0.3539
  548MOL0     H73930   3.824   3.818   3.418  0.9290 -4.5209  2.2887
  548MOL0     H73931   3.892   3.846   3.735  2.1525 -1.0315 -2.8774
  548MOL0     H73932   3.857   3.519   3.880 -0.4603  0.3128 -2.4367
  548MOL0     H73933   3.930   3.672   3.914  1.7173 -2.5103 -1.6397
  548MOL0     H73934   3.647   3.619   3.994  0.9515 -1.7596  0.2363
  548MOL0     H73935   3.737   3.749   4.055 -0.9194  0.4682 -2.8362
  548MOL0     H73936   3.779   3.449   4.123 -2.0814 -0.3536  0.6453
  548MOL0     H73937   3.696   3.571   4.220 -0.6587  0.3911 -0.1933
  548MOL0     H73938   3.931   3.554   4.319 -0.4453  0.7680 -0.2409
  548MOL0     H73939   3.928   3.697   4.228 -2.0139  0.4454 -0.8405
  548MOL0     H73940   4.125   3.705   4.344  1.4269 -0.6674  1.9364
  548MOL0     H73941   4.301   3.843   4.448  0.9583  1.2669  0.6796
  548MOL0     H73942   4.457   3.850   4.364 -0.2631  1.6038  1.4273
  548MOL0     H73943   4.319   3.943   4.304  0.3492  0.5667  1.1429
  548MOL0     H73944   4.755   3.759   4.373 -2.9689 -5.2893 -0.2336
  548MOL0     H73945   4.997   3.825   4.379  0.2576 -1.8888  0.5493
  548MOL0     H73946   5.317   3.724   4.270 -3.0484  0.8295  1.2736
  548MOL0     H73947   5.254   3.614   4.145 -0.3969  0.9940 -1.2115
  548MOL0     H73948   5.478   3.731   4.085 -1.0822 -1.1913 -0.9705
  548MOL0     H73949   5.334   3.752   3.974 -2.1390 -2.0386  1.5569
  548MOL0     H73950   5.294   3.974   4.057  0.0294  0.7752 -1.1645
  548MOL0     H73951   5.446   3.943   3.972 -0.4218 -3.9558 -1.2593
  548MOL0     H73952   5.426   3.965   4.280 -0.6920 -1.9189 -1.9240
  548MOL0     H73953   5.578   3.955   4.195 -0.2889 -1.7998 -1.1750
  548MOL0     H73954   5.517   4.166   4.285 -0.2012 -0.0511 -0.3538
  548MOL0     H73955   5.374   4.182   4.180  1.3793  2.4145 -0.5769
  548MOL0     H73956   5.660   4.132   4.068  0.2962  0.7349  0.3160
  548MOL0     H73957   5.508   4.192   3.988 -0.7409  2.0130  0.3900
  548MOL0     H73958   5.636   4.350   4.203  1.1947  0.9129  0.2341
  548MOL0     H73959   5.526   4.411   4.090  0.4950  0.7106  1.8436
  548MOL0     H73960   5.725   4.476   4.021 -0.6430  0.5757  1.4296
  548MOL0     H73961   5.681   4.353   3.903 -0.4573  1.0578  0.2225
  548MOL0     H73962   5.016   3.663   3.964  2.5821  1.3206  0.9059
  548MOL0     H73963   4.792   3.593   3.983 -0.1644  2.4175 -2.6225
  548MOL0     H73964   4.449   3.578   3.990  1.2780  2.4503 -0.8779
  548MOL0     H73965   4.219   3.462   4.009 -0.0917 -0.3038  0.5114
  548MOL0     H73966   3.887   4.735   3.495  2.3835  1.9251  1.9048
  548MOL0     H73967   4.055   4.714   3.670 -1.4336  3.0438 -0.0524
  548MOL0     H73968   4.416   4.651   3.947 -0.9530 -1.9902 -1.7005
  548MOL0     H73969   4.519   4.633   4.179  0.1987 -0.4392 -0.0721
  548MOL0     H73970   4.353   4.386   4.501 -2.8220 -2.2092 -1.1606
  548MOL0     H73971   4.373   4.279   4.374 -1.0346 -2.8970  4.2146
  548MOL0     H73972   4.530   4.235   4.575  0.7440 -1.3441  0.4597
  548MOL0     H73973   4.628   4.373   4.530 -2.3706  1.6117  0.5360
  548MOL0     H73974   4.657   4.308   4.305  1.1071  0.4759  1.5945
  548MOL0     H73975   4.555   4.167   4.324 -2.0206  1.9708  1.3407
  548MOL0     H73976   4.830   4.200   4.449 -0.5767 -0.3755  1.3812
  548MOL0     H73977   4.775   4.096   4.327 -1.7785  0.3271 -1.0705
  548MOL0     H73978   4.653   3.855   4.642 -2.1753  0.2754 -0.0491
  548MOL0     H73979   4.186   4.393   4.311  1.5742  0.1319  2.0719
  548MOL0     H73980   4.065   4.446   4.091  1.5585 -1.7684 -2.7385
  549MOL0     O73981   2.808   5.552   0.209  0.2381 -0.2045 -0.7521
  549MOL0     C73982   2.895   5.597   0.132 -0.0691 -1.2811 -0.1986
  549MOL0     O73983   3.019   5.547   0.105 -0.0018  0.4821  0.4783
  549MOL0     C73984   3.036   5.414   0.134 -0.5204 -1.1397 -0.5980
  549MOL0     C73985   2.976   5.309   0.063 -0.7534  0.3708  0.1216
  549MOL0     C73986   3.010   5.183   0.115 -0.1170 -0.1381 -0.3505
  549MOL0     C73987   3.106   5.158   0.211  0.3781 -0.0681 -0.2718
  549MOL0     O73988   3.137   5.035   0.259 -0.3728  0.6048 -0.7710
  549MOL0     C73989   3.102   4.990   0.392  0.1568  0.0335 -0.3359
  549MOL0     C73990   2.951   5.000   0.412  0.2457 -0.0124  0.2791
  549MOL0     C73991   2.867   4.877   0.362 -1.1736  0.1643 -0.8529
  549MOL0     C73992   2.723   4.912   0.401 -0.4111  0.4824 -0.5044
  549MOL0     C73993   2.644   4.800   0.350 -0.2755  0.5172 -0.0831
  549MOL0     C73994   2.602   4.711   0.466  1.0949 -0.0314 -0.9987
  549MOL0     C73995   2.499   4.777   0.556 -0.0459  0.1451  0.2007
  549MOL0     C73996   2.367   4.830   0.495 -0.3935  0.6979  0.7472
  549MOL0     N73997   2.288   4.735   0.425 -0.1131 -0.7241  0.6747
  549MOL0     C73998   2.270   4.608   0.463 -0.8852 -0.4952 -0.1076
  549MOL0     C73999   2.222   4.533   0.363  0.8108 -0.5414  1.3240
  549MOL0     C74000   2.189   4.383   0.360  0.0254 -0.2274 -0.1921
  549MOL0     C74001   2.089   4.340   0.255  0.0719 -0.5291  0.7778
  549MOL0     C74002   2.082   4.186   0.250  0.1291 -0.3435 -0.5713
  549MOL0     C74003   2.119   4.137   0.112  0.9813 -0.1440 -0.4744
  549MOL0     O74004   2.166   4.000   0.113 -0.4693  0.2545 -0.2756
  549MOL0     C74005   2.175   3.924  -0.001  0.5819  0.4318  0.3182
  549MOL0     C74006   2.149   3.969  -0.121 -0.1083 -0.9546 -0.2629
  549MOL0     C74007   2.167   3.894  -0.241  0.0485 -0.0738  0.4351
  549MOL0     C74008   2.164   3.983  -0.366 -0.1754  0.2347  0.1096
  549MOL0     C74009   2.203   3.756  -0.237  0.0286  0.2833  0.5617
  549MOL0     C74010   2.218   3.677  -0.360  0.3770 -0.4144 -0.3811
  549MOL0     O74011   2.297   3.572  -0.354  0.0300  0.4340  0.0866
  549MOL0     C74012   2.427   3.588  -0.319  0.8494 -0.3754 -1.0468
  549MOL0     C74013   2.500   3.685  -0.381 -0.3338  0.7046  0.5436
  549MOL0     C74014   2.633   3.693  -0.359  0.9322 -0.7970 -0.0433
  549MOL0     C74015   2.698   3.607  -0.265  1.0818  0.6618 -0.4713
  549MOL0     O74016   2.827   3.623  -0.233 -0.5415  0.5663 -0.3285
  549MOL0     C74017   2.888   3.745  -0.275 -0.3614 -0.5120  0.2843
  549MOL0     C74018   3.013   3.780  -0.197 -0.7286  0.0386 -0.5602
  549MOL0     C74019   3.032   3.938  -0.182 -1.6034  0.1478 -0.1553
  549MOL0     C74020   2.956   3.976  -0.059  0.0321  1.4162 -0.1241
  549MOL0     C74021   2.962   4.130  -0.048  0.2779  1.5670  0.5158
  549MOL0     C74022   2.915   4.162   0.090 -1.2078 -0.0603  0.5362
  549MOL0     C74023   2.928   4.314   0.131  0.5341 -0.2641 -0.1949
  549MOL0     C74024   2.911   4.319   0.283 -0.2516 -0.3047  0.4240
  549MOL0    Cl74025   2.872   4.478   0.356 -0.1723 -0.3934  0.0873
  549MOL0     C74026   2.622   3.494  -0.216  0.0082 -0.2089 -0.1123
  549MOL0     C74027   2.485   3.488  -0.234  0.1211 -0.4833  0.9889
  549MOL0     O74028   2.149   3.703  -0.459 -0.9646  0.0493 -0.4291
  549MOL0     C74029   2.224   3.711  -0.110  0.8461 -0.7972 -0.6830
  549MOL0     C74030   2.209   3.794   0.006  0.1592 -0.6688 -0.5331
  549MOL0     N74031   2.225   4.618   0.250  0.3258  0.3294  0.8909
  549MOL0     N74032   2.272   4.735   0.292 -0.2853 -0.3100 -0.1564
  549MOL0     C74033   3.168   5.260   0.277  0.4501 -0.5461  0.5180
  549MOL0     C74034   3.129   5.389   0.243  0.4885 -0.3253  0.5215
  549MOL0     C74035   2.856   5.725   0.063 -0.4352 -0.2332 -0.4848
  549MOL0     C74036   2.951   5.787  -0.021  0.6535  0.1082 -0.4596
  549MOL0     C74037   2.928   5.926  -0.051  0.3988  0.4010  0.2064
  549MOL0     C74038   2.804   5.983  -0.030  0.6238  0.8827 -0.1505
  549MOL0     O74039   2.769   6.101  -0.091 -0.1032 -0.7020  0.1473
  549MOL0     C74040   2.859   6.207  -0.127 -0.2452  0.1875  0.1115
  549MOL0     C74041   2.924   6.260   0.002  0.0059  0.1683 -0.7820
  549MOL0     C74042   2.819   6.292   0.112  0.8532  0.1409 -0.8728
  549MOL0     C74043   2.885   6.389   0.210  0.9744 -0.0905  0.4190
  549MOL0     C74044   2.912   6.520   0.155 -1.4779  0.1174  0.7937
  549MOL0     C74045   2.921   6.638   0.109 -0.5102 -1.2360 -0.0880
  549MOL0     C74046   2.711   5.923   0.047 -0.4234  0.0838 -1.0172
  549MOL0     C74047   2.737   5.795   0.096  0.4148 -0.3003  0.0383
  549MOL0     H74048   2.902   5.311  -0.017 -1.8334  4.2510  1.0054
  549MOL0     H74049   2.951   5.111   0.059 -2.9387  2.7534 -1.4146
  549MOL0     H74050   3.119   4.883   0.409 -1.2193  0.0446  1.4105
  549MOL0     H74051   3.154   5.040   0.474  3.0321 -0.6484 -1.6086
  549MOL0     H74052   2.944   5.011   0.520  3.7184  0.9327  0.5138
  549MOL0     H74053   2.914   5.085   0.354 -0.1648 -0.8745 -0.7630
  549MOL0     H74054   2.886   4.849   0.258 -1.6762  1.0248 -1.1890
  549MOL0     H74055   2.896   4.792   0.424 -0.5817  1.6244  0.9544
  549MOL0     H74056   2.710   4.919   0.510 -0.7805 -2.3420 -0.2983
  549MOL0     H74057   2.687   5.003   0.353  1.9276  3.2907  2.5514
  549MOL0     H74058   2.555   4.849   0.309 -2.3244 -0.6030  2.7617
  549MOL0     H74059   2.684   4.741   0.267 -3.0565  0.4697 -1.4938
  549MOL0     H74060   2.564   4.615   0.430  0.2058  0.0645 -0.3622
  549MOL0     H74061   2.691   4.689   0.527  0.7809 -1.9253 -1.1685
  549MOL0     H74062   2.477   4.692   0.622 -0.8327 -3.4106 -4.1172
  549MOL0     H74063   2.538   4.860   0.615  1.2327  0.9831 -1.7261
  549MOL0     H74064   2.388   4.914   0.428 -1.8825  1.0040  0.6205
  549MOL0     H74065   2.308   4.870   0.579 -0.6252 -0.0518  0.9466
  549MOL0     H74066   2.290   4.579   0.566 -0.9653  1.3900  0.4805
  549MOL0     H74067   2.286   4.335   0.341 -1.5573 -4.1320  0.6471
  549MOL0     H74068   2.153   4.348   0.457  3.5257 -2.5816  0.4395
  549MOL0     H74069   2.130   4.369   0.158  2.0429  0.1047  1.7509
  549MOL0     H74070   1.997   4.394   0.279  1.2188  1.5635  0.6527
  549MOL0     H74071   1.982   4.151   0.276  0.1077 -0.1835 -0.4354
  549MOL0     H74072   2.158   4.146   0.318  0.1761  0.8277  0.1005
  549MOL0     H74073   2.204   4.191   0.069  1.2469 -0.9916 -1.0524
  549MOL0     H74074   2.034   4.155   0.046 -0.7498  3.0862  2.2800
  549MOL0     H74075   2.129   4.075  -0.133 -2.3800 -1.0508  2.0375
  549MOL0     H74076   2.065   3.984  -0.412  0.9277  0.4796 -2.4505
  549MOL0     H74077   2.188   4.087  -0.341 -0.8604  0.4325 -0.0479
  549MOL0     H74078   2.231   3.945  -0.443 -1.0133  1.9974 -1.5744
  549MOL0     H74079   2.456   3.750  -0.456 -3.2674 -2.2668 -0.5282
  549MOL0     H74080   2.687   3.770  -0.414 -1.2250  2.7878  2.3959
  549MOL0     H74081   2.913   3.746  -0.382 -0.0734  1.0902  0.3321
  549MOL0     H74082   2.824   3.833  -0.262  2.5715  1.7294  0.6153
  549MOL0     H74083   3.014   3.730  -0.099  1.9189 -2.4232 -1.6915
  549MOL0     H74084   3.101   3.741  -0.248 -1.2739  0.1917 -1.6318
  549MOL0     H74085   3.008   3.994  -0.273 -0.3202  1.3383  0.2197
  549MOL0     H74086   3.135   3.955  -0.151 -2.4483  0.9275  2.5013
  549MOL0     H74087   2.851   3.946  -0.055  0.4619 -0.0221  1.2845
  549MOL0     H74088   3.012   3.940   0.028 -2.7095 -0.3388  1.0762
  549MOL0     H74089   2.885   4.172  -0.113 -0.5297  0.5797  0.8117
  549MOL0     H74090   3.062   4.172  -0.068  2.5010 -2.3031  2.4324
  549MOL0     H74091   2.816   4.116   0.102 -0.3112 -3.5935 -3.4719
  549MOL0     H74092   2.975   4.109   0.164 -1.0606 -1.9951 -0.9121
  549MOL0     H74093   2.835   4.359   0.094  0.2481 -2.5405 -2.5046
  549MOL0     H74094   3.016   4.362   0.088  1.1171 -3.5595 -3.0857
  549MOL0     H74095   3.000   4.279   0.331 -1.3367 -1.9885  1.1274
  549MOL0     H74096   2.828   4.263   0.326 -0.1038  0.4887  1.7938
  549MOL0     H74097   2.676   3.419  -0.159  0.4287 -0.9502 -1.4498
  549MOL0     H74098   2.429   3.411  -0.181  1.8072 -1.4295  1.4701
  549MOL0     H74099   2.246   3.605  -0.096 -1.7682 -1.5766 -1.8549
  549MOL0     H74100   2.225   3.743   0.100  0.7088  0.9975  0.3105
  549MOL0     H74101   3.248   5.242   0.348  1.1752 -2.7622 -0.7535
  549MOL0     H74102   3.189   5.472   0.280  1.2467 -0.8235  0.4327
  549MOL0     H74103   3.042   5.742  -0.060  0.3359 -0.1046 -0.9765
  549MOL0     H74104   3.006   5.979  -0.105  1.3251 -0.6649  0.4493
  549MOL0     H74105   2.914   6.177  -0.217  2.8639 -2.5027  2.6518
  549MOL0     H74106   2.803   6.299  -0.147  0.0835  0.8320  2.0118
  549MOL0     H74107   2.965   6.355  -0.035  2.5146 -1.5382 -2.7258
  549MOL0     H74108   3.007   6.194   0.027 -0.2408  0.0096 -0.3703
  549MOL0     H74109   2.800   6.194   0.157 -1.0707  0.1620 -1.5330
  549MOL0     H74110   2.723   6.326   0.071  1.3257  1.9457 -0.5928
  549MOL0     H74111   2.983   6.347   0.236  3.1089  2.6896 -2.3196
  549MOL0     H74112   2.813   6.401   0.292 -3.0326 -0.1468 -2.7787
  549MOL0     H74113   2.924   6.734   0.062 -0.4002 -1.0100  0.3745
  549MOL0     H74114   2.620   5.976   0.073  0.6753  1.9496 -0.7143
  549MOL0     H74115   2.662   5.748   0.159  3.7398 -2.9191  2.3519
  550MOL0     O74116  10.040   2.980   9.530  0.1204 -0.3826  0.1394
  550MOL0     C74117  10.074   3.082   9.482  0.6321 -0.0890  0.0715
  550MOL0     O74118  10.199   3.125   9.468  0.4778 -0.5096 -0.0376
  550MOL0     C74119  10.310   3.052   9.473 -0.3842 -0.1310 -0.2230
  550MOL0     C74120  10.418   3.127   9.456 -0.1628 -0.6438  0.8365
  550MOL0     C74121  10.544   3.070   9.479  0.1272  0.3268  0.8531
  550MOL0     C74122  10.557   2.933   9.506  0.2464  0.2281 -0.1329
  550MOL0     O74123  10.673   2.861   9.533  0.1338 -0.2959 -0.0978
  550MOL0     C74124  10.756   2.930   9.622 -0.3002 -1.2740  0.4404
  550MOL0     C74125  10.881   2.852   9.650  0.5309  0.3158  0.6552
  550MOL0     C74126  10.978   2.923   9.756  0.7528  0.1923  0.2214
  550MOL0     C74127  11.116   2.868   9.739  0.2798  0.1057  0.1819
  550MOL0     C74128  11.124   2.727   9.794  0.4424  0.6094 -0.4161
  550MOL0     C74129  11.276   2.682   9.788  1.0093 -0.2982 -0.8192
  550MOL0     C74130  11.282   2.523   9.790  0.0379  0.4892 -0.3185
  550MOL0     C74131  11.411   2.452   9.741  0.6104 -0.8159  0.1679
  550MOL0     N74132  11.520   2.482   9.832 -0.6515 -0.4443  0.9084
  550MOL0     C74133  11.560   2.407   9.932  0.2516 -1.2321  0.1531
  550MOL0     C74134  11.673   2.462   9.975  0.5208  0.6023  0.5567
  550MOL0     C74135  11.754   2.413  10.090  0.4221  0.9098 -0.4757
  550MOL0     C74136  11.883   2.357  10.035 -0.5530  0.3774  0.3643
  550MOL0     C74137  11.953   2.259  10.130  0.8158  0.2537 -0.2443
  550MOL0     C74138  12.080   2.210  10.082 -0.6525  0.8397  0.3887
  550MOL0     O74139  12.184   2.308  10.074 -0.6509 -0.0898 -0.4845
  550MOL0     C74140  12.196   2.382   9.965 -0.1643  0.3678 -0.0012
  550MOL0     C74141  12.262   2.500   9.968  0.5371  0.0209 -0.3605
  550MOL0     C74142  12.284   2.580   9.857  1.3052 -0.4510 -0.0017
  550MOL0     C74143  12.346   2.708   9.878  0.5943 -0.2269 -0.2554
  550MOL0     C74144  12.241   2.541   9.730  0.7083 -0.1148 -0.2422
  550MOL0     C74145  12.238   2.628   9.603 -0.2870 -0.3342  0.3392
  550MOL0     O74146  12.215   2.570   9.472 -0.0280  0.0214  0.0468
  550MOL0     C74147  12.279   2.618   9.363 -0.7215 -0.5198 -0.5977
  550MOL0     C74148  12.208   2.642   9.255  0.9298 -0.3798 -0.4588
  550MOL0     C74149  12.269   2.679   9.130  0.5956  0.6414 -1.1656
  550MOL0     C74150  12.401   2.707   9.126  0.4544  0.3027  0.6068
  550MOL0     O74151  12.450   2.765   9.011 -0.2699 -0.7228 -0.1046
  550MOL0     C74152  12.587   2.751   8.966 -0.7255  0.7138 -0.3959
  550MOL0     C74153  12.616   2.605   8.940 -0.1383  0.3996  0.0682
  550MOL0     C74154  12.559   2.569   8.794  0.8204  0.6362 -0.8029
  550MOL0     C74155  12.499   2.425   8.781 -0.3457 -0.3315 -0.3955
  550MOL0     C74156  12.376   2.387   8.865 -0.2187  0.0999 -0.1005
  550MOL0     C74157  12.336   2.245   8.841 -1.0579  0.2209 -0.9075
  550MOL0     C74158  12.446   2.141   8.879  0.0351  1.1961  0.0982
  550MOL0     C74159  12.390   1.996   8.921  0.2373  0.1054  0.0774
  550MOL0    Cl74160  12.299   2.024   9.074  0.2740  0.0956 -0.1568
  550MOL0     C74161  12.476   2.685   9.243  0.4683 -0.2287 -0.7787
  550MOL0     C74162  12.418   2.635   9.359 -0.4350 -0.0700 -1.2929
  550MOL0     O74163  12.240   2.752   9.620  0.6844  0.0063  0.0533
  550MOL0     C74164  12.189   2.412   9.726 -0.6099  0.2384  0.1451
  550MOL0     C74165  12.156   2.338   9.835 -0.0589  0.3568 -0.5990
  550MOL0     N74166  11.688   2.575   9.907 -0.1490 -0.0812 -0.2256
  550MOL0     N74167  11.602   2.597   9.827  0.7165  0.5046 -0.0347
  550MOL0     C74168  10.446   2.860   9.518 -0.7693 -0.2148 -1.4555
  550MOL0     C74169  10.318   2.915   9.512 -0.6726 -0.4597  0.0022
  550MOL0     C74170   9.968   3.171   9.427  0.9082 -0.2766  0.7160
  550MOL0     C74171   9.852   3.123   9.372  0.4863  0.0866 -0.0458
  550MOL0     C74172   9.751   3.213   9.331 -0.7450 -0.2221  0.4072
  550MOL0     C74173   9.757   3.349   9.335 -0.1505 -0.7090 -0.0410
  550MOL0     O74174   9.660   3.430   9.282  0.0055 -0.8403  0.9448
  550MOL0     C74175   9.691   3.575   9.270 -0.0996  1.0422 -0.2982
  550MOL0     C74176   9.572   3.631   9.193 -0.0649 -0.2463  0.2117
  550MOL0     C74177   9.568   3.778   9.174 -0.5283 -0.6033 -0.2628
  550MOL0     C74178   9.612   3.818   9.036 -0.6145  1.1875 -0.3677
  550MOL0     C74179   9.532   3.773   8.928  0.7909  1.0971 -0.1039
  550MOL0     C74180   9.472   3.726   8.835 -0.8427  0.2513 -0.0037
  550MOL0     C74181   9.885   3.397   9.381 -0.6335  0.8898  0.2299
  550MOL0     C74182   9.987   3.308   9.427  0.5858 -0.3053  1.1702
  550MOL0     H74183  10.403   3.234   9.446 -2.5418 -0.9776  0.3313
  550MOL0     H74184  10.634   3.131   9.479 -1.8058  3.6344  4.7269
  550MOL0     H74185  10.787   3.027   9.581 -2.4572  1.0708  3.8812
  550MOL0     H74186  10.695   2.942   9.712  0.5147 -3.0775  1.2837
  550MOL0     H74187  10.844   2.755   9.685 -3.0445  0.6858 -1.6301
  550MOL0     H74188  10.936   2.827   9.558 -1.2084  2.6309 -1.1434
  550MOL0     H74189  10.975   3.030   9.732 -0.3298  0.6161  2.0891
  550MOL0     H74190  10.942   2.910   9.858 -1.9373 -0.5445 -0.7335
  550MOL0     H74191  11.150   2.860   9.635 -2.7442  0.3571 -0.9494
  550MOL0     H74192  11.181   2.931   9.799 -1.6632 -0.0715  2.6455
  550MOL0     H74193  11.080   2.722   9.894 -0.1673 -1.4525 -0.7318
  550MOL0     H74194  11.060   2.662   9.734  0.1521 -2.0848  2.5668
  550MOL0     H74195  11.320   2.722   9.697  3.2381 -0.5468  0.0983
  550MOL0     H74196  11.327   2.711   9.881  1.7134 -5.2391  0.6605
  550MOL0     H74197  11.254   2.478   9.885  1.8666  0.5526  0.2871
  550MOL0     H74198  11.201   2.495   9.722 -0.2559  0.2093  0.1467
  550MOL0     H74199  11.437   2.495   9.644  1.4714 -0.5780  0.4951
  550MOL0     H74200  11.399   2.344   9.729  0.8640 -0.8604  0.3140
  550MOL0     H74201  11.525   2.309   9.963 -0.3909 -0.3672  2.4460
  550MOL0     H74202  11.771   2.491  10.165  1.0438  0.2534  0.0835
  550MOL0     H74203  11.684   2.346  10.141 -0.4854  1.3371 -1.1307
  550MOL0     H74204  11.953   2.437  10.008  2.0489 -2.0750 -0.7220
  550MOL0     H74205  11.865   2.310   9.938  0.2181  0.5919  0.1116
  550MOL0     H74206  11.887   2.174  10.150 -1.6071  2.3658  1.3574
  550MOL0     H74207  11.968   2.307  10.227  2.4075  0.1686 -0.4299
  550MOL0     H74208  12.063   2.152   9.991 -2.5993  0.4355  0.9586
  550MOL0     H74209  12.117   2.136  10.154  2.8432 -1.8179 -3.6866
  550MOL0     H74210  12.296   2.543  10.062 -0.0373 -1.1528  0.4196
  550MOL0     H74211  12.274   2.774   9.927 -0.7978 -1.3546 -0.6950
  550MOL0     H74212  12.422   2.698   9.956 -1.8015  1.1676  2.4212
  550MOL0     H74213  12.386   2.760   9.790  0.4261 -1.8992 -1.3706
  550MOL0     H74214  12.106   2.615   9.229 -0.1457  1.4616  1.5234
  550MOL0     H74215  12.203   2.684   9.044 -0.7038  4.0985 -0.1477
  550MOL0     H74216  12.605   2.812   8.877 -0.0952 -1.8762 -2.1498
  550MOL0     H74217  12.656   2.787   9.042 -2.7075 -0.3756  2.0536
  550MOL0     H74218  12.724   2.593   8.940  0.5278  4.7198  0.6775
  550MOL0     H74219  12.584   2.540   9.022 -1.1077  2.9324  1.8495
  550MOL0     H74220  12.635   2.599   8.721  4.4645 -0.3675  2.2330
  550MOL0     H74221  12.474   2.637   8.792  1.8855  2.3412  2.7074
  550MOL0     H74222  12.486   2.416   8.673  1.3794  2.0977 -0.9071
  550MOL0     H74223  12.590   2.375   8.816  1.6758  2.9054 -0.5665
  550MOL0     H74224  12.290   2.439   8.821 -0.3964 -0.6457 -0.6462
  550MOL0     H74225  12.374   2.396   8.974  2.5728 -3.7083  0.4578
  550MOL0     H74226  12.246   2.222   8.898  0.1348 -1.1919  0.4992
  550MOL0     H74227  12.315   2.241   8.733  2.2166 -1.7013 -1.6254
  550MOL0     H74228  12.504   2.186   8.960  1.9975  2.0158 -1.6600
  550MOL0     H74229  12.517   2.124   8.797  1.2209  2.1404  0.8772
  550MOL0     H74230  12.472   1.925   8.928  0.6411  0.5871  0.2666
  550MOL0     H74231  12.322   1.945   8.852  0.7742  0.7634 -0.9680
  550MOL0     H74232  12.583   2.707   9.239  0.4611 -0.2261 -0.9834
  550MOL0     H74233  12.479   2.630   9.449  0.9120  3.1296 -1.9070
  550MOL0     H74234  12.154   2.371   9.632 -0.6894  0.8856 -0.1109
  550MOL0     H74235  12.103   2.244   9.827 -1.9702  1.2793  0.5072
  550MOL0     H74236  10.458   2.755   9.541  1.0054 -0.1970 -2.1028
  550MOL0     H74237  10.235   2.851   9.541  0.3204 -1.0253  1.7177
  550MOL0     H74238   9.819   3.020   9.360 -3.2498  1.1853 -0.7740
  550MOL0     H74239   9.663   3.179   9.279 -1.3472  2.1563 -0.2478
  550MOL0     H74240   9.707   3.617   9.370  2.1690  0.6621 -0.4694
  550MOL0     H74241   9.785   3.592   9.218 -0.8815  2.0733 -1.4590
  550MOL0     H74242   9.488   3.597   9.254 -0.7458 -2.2983 -1.7365
  550MOL0     H74243   9.557   3.569   9.104 -2.0866 -0.7597  0.8778
  550MOL0     H74244   9.635   3.817   9.251  1.2502 -0.7024 -1.6962
  550MOL0     H74245   9.462   3.801   9.192 -0.6097 -2.5144  2.3348
  550MOL0     H74246   9.712   3.775   9.020 -1.3379 -0.6024 -0.3052
  550MOL0     H74247   9.620   3.926   9.024  1.4588  1.1898  0.5100
  550MOL0     H74248   9.407   3.707   8.751 -2.1496 -2.4282  1.4986
  550MOL0     H74249   9.891   3.505   9.389 -3.2832  1.3445 -2.1605
  550MOL0     H74250  10.080   3.352   9.463  1.2504 -0.9384  0.2385
  551MOL0     O74251   5.318   8.497   6.410  0.4345 -0.2547 -0.4566
  551MOL0     C74252   5.307   8.575   6.502  1.4149  0.4957 -1.0313
  551MOL0     O74253   5.321   8.539   6.637 -0.1082 -0.7778 -0.3764
  551MOL0     C74254   5.395   8.420   6.653  0.7103  0.8850  0.3975
  551MOL0     C74255   5.326   8.294   6.653 -0.0879  0.3000  1.5004
  551MOL0     C74256   5.390   8.172   6.661  0.5094  0.0510  0.4525
  551MOL0     C74257   5.527   8.159   6.690 -0.7533 -0.2460  0.5203
  551MOL0     O74258   5.600   8.045   6.717 -0.7632  0.2465 -0.2181
  551MOL0     C74259   5.555   7.924   6.658 -0.1100 -0.1251 -0.2283
  551MOL0     C74260   5.590   7.812   6.764 -0.5872 -0.1158 -0.1373
  551MOL0     C74261   5.575   7.677   6.692  0.7586 -0.1596 -0.0495
  551MOL0     C74262   5.615   7.557   6.774  0.7371 -0.4147  0.5017
  551MOL0     C74263   5.511   7.445   6.742 -0.6374  0.6175 -0.3023
  551MOL0     C74264   5.567   7.321   6.812 -0.6176  0.0510 -0.8250
  551MOL0     C74265   5.507   7.288   6.943 -0.2564  0.6809  0.5437
  551MOL0     C74266   5.524   7.387   7.051  0.1770 -0.1143 -0.8526
  551MOL0     N74267   5.517   7.318   7.183 -0.2435 -0.3723  0.0615
  551MOL0     C74268   5.623   7.255   7.238 -0.0880  1.1069  0.6538
  551MOL0     C74269   5.599   7.236   7.371  0.2188  0.1291  0.1252
  551MOL0     C74270   5.689   7.164   7.463 -0.3029  0.2512 -1.2192
  551MOL0     C74271   5.755   7.263   7.557 -0.6609  0.6783  0.2456
  551MOL0     C74272   5.863   7.187   7.630 -0.0395 -0.3317  0.0611
  551MOL0     C74273   5.876   7.243   7.779  0.0756  0.2813  0.8364
  551MOL0     O74274   5.990   7.186   7.850 -0.8180 -0.3203 -0.2641
  551MOL0     C74275   6.014   7.236   7.969 -0.0273  0.2061 -1.2251
  551MOL0     C74276   5.949   7.337   8.034  0.1820 -0.5628 -1.0902
  551MOL0     C74277   5.986   7.380   8.164 -0.1609  0.8712  0.0945
  551MOL0     C74278   5.891   7.477   8.247 -0.1450  0.7368 -0.3153
  551MOL0     C74279   6.092   7.313   8.231 -0.1731  1.1045 -0.0974
  551MOL0     C74280   6.142   7.348   8.365  0.1477  0.1662 -0.2140
  551MOL0     O74281   6.272   7.290   8.391  0.3446 -0.0772 -0.4201
  551MOL0     C74282   6.332   7.313   8.515  0.3780 -0.1470  0.1532
  551MOL0     C74283   6.469   7.330   8.514  0.4460 -0.0957 -0.0564
  551MOL0     C74284   6.536   7.358   8.634  0.0330  0.4286 -0.0475
  551MOL0     C74285   6.478   7.348   8.750  1.4317 -0.6392 -0.5548
  551MOL0     O74286   6.551   7.382   8.854 -0.5573  0.1277  0.3838
  551MOL0     C74287   6.505   7.361   8.987 -0.0890 -0.9439  0.6842
  551MOL0     C74288   6.632   7.404   9.072  0.0854  0.2587 -0.7723
  551MOL0     C74289   6.600   7.406   9.217  0.5548 -0.3300  0.9297
  551MOL0     C74290   6.726   7.413   9.306  0.5480 -0.2584  1.2526
  551MOL0     C74291   6.703   7.369   9.453 -0.4844 -0.7879  0.4787
  551MOL0     C74292   6.775   7.234   9.454 -0.5771  0.2950  0.1094
  551MOL0     C74293   6.750   7.156   9.584  0.3906  0.0561 -1.0441
  551MOL0     C74294   6.801   7.014   9.573  0.2940  0.6729  0.4923
  551MOL0    Cl74295   6.962   7.003   9.521 -0.4902 -0.3245  0.2736
  551MOL0     C74296   6.339   7.342   8.749  0.3003  0.8178  0.1717
  551MOL0     C74297   6.266   7.317   8.634 -0.2883  0.3032 -0.4959
  551MOL0     O74298   6.075   7.404   8.449  0.0720  0.1446  0.6675
  551MOL0     C74299   6.157   7.209   8.162  0.1026 -0.3011  0.0554
  551MOL0     C74300   6.114   7.175   8.039 -0.7965  0.4237  0.9063
  551MOL0     N74301   5.472   7.283   7.391 -0.2830  0.1632 -0.5698
  551MOL0     N74302   5.441   7.351   7.283 -0.5113  1.0785  0.0017
  551MOL0     C74303   5.589   8.278   6.712 -0.2167 -1.3426 -1.2706
  551MOL0     C74304   5.528   8.402   6.687  0.5846 -0.5304  0.6849
  551MOL0     C74305   5.272   8.712   6.468 -0.4259 -0.2108 -0.2279
  551MOL0     C74306   5.259   8.805   6.576  0.7256 -0.3100 -0.2416
  551MOL0     C74307   5.239   8.939   6.546  0.8047  1.2555  0.7804
  551MOL0     C74308   5.238   8.985   6.412 -0.2409  0.3227  0.3280
  551MOL0     O74309   5.252   9.111   6.372  0.4294  0.0165 -0.8260
  551MOL0     C74310   5.258   9.224   6.458 -0.2229  0.0206  0.7358
  551MOL0     C74311   5.384   9.232   6.536 -0.0104  0.0371 -0.9042
  551MOL0     C74312   5.374   9.348   6.635  0.6088  0.2588  0.5764
  551MOL0     C74313   5.305   9.299   6.766 -0.2087  0.2975  0.3000
  551MOL0     C74314   5.303   9.397   6.873  0.4244  0.6672 -0.1748
  551MOL0     C74315   5.322   9.479   6.964 -0.0853  0.2925  0.1901
  551MOL0     C74316   5.263   8.895   6.308  0.7264 -0.0653  0.2629
  551MOL0     C74317   5.279   8.753   6.334 -0.7835 -0.8682  0.4251
  551MOL0     H74318   5.220   8.293   6.631  0.5390 -0.8351 -2.1296
  551MOL0     H74319   5.327   8.090   6.627 -1.4876  1.2557  1.0406
  551MOL0     H74320   5.449   7.904   6.637  0.7148 -4.9466 -0.8652
  551MOL0     H74321   5.598   7.898   6.561 -3.4485 -0.8993 -1.6396
  551MOL0     H74322   5.688   7.834   6.807 -0.3806 -2.5682  0.7862
  551MOL0     H74323   5.525   7.824   6.852  2.5204  3.0207  2.0018
  551MOL0     H74324   5.470   7.674   6.662  1.2242 -3.6632 -1.9455
  551MOL0     H74325   5.631   7.684   6.598 -0.6380 -3.2269 -1.2729
  551MOL0     H74326   5.717   7.526   6.752  2.9156  4.9046  1.5119
  551MOL0     H74327   5.590   7.588   6.876 -1.5629  0.0078 -0.1298
  551MOL0     H74328   5.406   7.475   6.755 -1.1940 -1.4633  0.3121
  551MOL0     H74329   5.515   7.422   6.635  0.5588 -1.8423  0.2226
  551MOL0     H74330   5.540   7.231   6.755 -0.8850 -0.3220 -0.1238
  551MOL0     H74331   5.676   7.328   6.819 -0.6414 -1.1772  2.5100
  551MOL0     H74332   5.400   7.272   6.930 -0.5243  1.7560  1.2846
  551MOL0     H74333   5.548   7.190   6.968 -4.1975 -1.1392  0.4820
  551MOL0     H74334   5.459   7.475   7.050 -1.4667 -1.2779 -1.3936
  551MOL0     H74335   5.631   7.411   7.053  0.3173 -0.6036  2.1983
  551MOL0     H74336   5.710   7.215   7.186 -1.0461 -1.4378  0.8761
  551MOL0     H74337   5.635   7.090   7.524  0.8544  1.1738  1.0271
  551MOL0     H74338   5.780   7.124   7.417  3.0807  2.0584  3.1644
  551MOL0     H74339   5.678   7.309   7.620 -0.0965  0.9104  0.7806
  551MOL0     H74340   5.809   7.332   7.491 -0.3020 -0.4932 -0.7253
  551MOL0     H74341   5.953   7.177   7.568 -0.6010 -0.1732 -0.7945
  551MOL0     H74342   5.836   7.081   7.639 -2.0089 -0.1918 -2.8342
  551MOL0     H74343   5.783   7.222   7.832  0.6157 -0.1113  1.6501
  551MOL0     H74344   5.885   7.352   7.780  2.2306  0.2039 -1.4083
  551MOL0     H74345   5.877   7.405   7.990 -1.5858 -1.6805 -0.0317
  551MOL0     H74346   5.842   7.405   8.313 -1.0754 -1.9555 -3.6098
  551MOL0     H74347   5.945   7.558   8.295 -1.9689  2.9783 -1.8287
  551MOL0     H74348   5.812   7.515   8.181 -0.1870 -1.1712 -1.4445
  551MOL0     H74349   6.525   7.331   8.421 -0.3589  0.0159 -0.5433
  551MOL0     H74350   6.643   7.370   8.623  0.1299 -0.8366 -0.6875
  551MOL0     H74351   6.417   7.419   9.016  0.7404  1.5878 -1.5099
  551MOL0     H74352   6.495   7.252   8.996 -0.2640 -1.0535 -0.7037
  551MOL0     H74353   6.715   7.339   9.043 -0.6298 -0.0317 -2.2639
  551MOL0     H74354   6.645   7.508   9.039 -0.9507  0.4313 -0.6531
  551MOL0     H74355   6.549   7.310   9.235 -1.9815  0.1803 -2.6062
  551MOL0     H74356   6.535   7.490   9.243  1.3238  0.0850  1.5400
  551MOL0     H74357   6.814   7.375   9.254  0.8599  2.0724 -0.0555
  551MOL0     H74358   6.752   7.518   9.314 -0.4926  0.3090 -1.4517
  551MOL0     H74359   6.596   7.376   9.476 -1.3407  1.1845 -3.3715
  551MOL0     H74360   6.759   7.437   9.518 -0.1078  0.3005 -0.9390
  551MOL0     H74361   6.723   7.185   9.371 -1.3434  4.1227 -1.8945
  551MOL0     H74362   6.883   7.248   9.439 -0.2934 -1.9634 -0.4388
  551MOL0     H74363   6.647   7.163   9.622  0.4078  4.3170 -1.2365
  551MOL0     H74364   6.795   7.203   9.672 -3.1530  0.0680  0.9547
  551MOL0     H74365   6.729   6.953   9.518  1.5629 -1.7133  1.3307
  551MOL0     H74366   6.788   6.967   9.670 -1.1528  4.0407  2.0725
  551MOL0     H74367   6.285   7.350   8.843  1.6906  3.4198  0.8239
  551MOL0     H74368   6.161   7.296   8.650 -0.8644  3.9841  1.6187
  551MOL0     H74369   6.243   7.163   8.208  1.2874  0.6604 -1.1313
  551MOL0     H74370   6.165   7.091   7.992 -0.7440  0.8097  0.2585
  551MOL0     H74371   5.695   8.278   6.732 -0.6473 -1.8506  1.3973
  551MOL0     H74372   5.580   8.497   6.679 -1.4170  0.5227 -0.5519
  551MOL0     H74373   5.261   8.768   6.678 -1.2977 -2.7026 -0.9899
  551MOL0     H74374   5.221   9.000   6.634 -0.7618  0.0932  1.3101
  551MOL0     H74375   5.260   9.318   6.403  3.0915 -0.6432 -0.5259
  551MOL0     H74376   5.161   9.219   6.507 -1.1699 -2.6958 -1.1670
  551MOL0     H74377   5.466   9.243   6.464  0.6975  0.5397 -0.0468
  551MOL0     H74378   5.405   9.144   6.598 -0.0074  1.6361  1.5213
  551MOL0     H74379   5.332   9.442   6.596  2.4338  0.7195 -0.4013
  551MOL0     H74380   5.475   9.379   6.663 -0.2781  2.5728  1.5040
  551MOL0     H74381   5.354   9.212   6.812 -4.6246 -1.8607  1.4793
  551MOL0     H74382   5.206   9.260   6.741  0.6217 -1.2063 -0.8566
  551MOL0     H74383   5.334   9.550   7.043 -2.1852 -0.0999  0.9322
  551MOL0     H74384   5.270   8.953   6.216 -0.4375  0.9493  0.7764
  551MOL0     H74385   5.300   8.689   6.249  0.6880  1.8512 -1.4174
  552MOL0     O74386   5.780   8.020   9.243 -0.0291  0.3446 -1.1012
  552MOL0     C74387   5.716   7.915   9.238  0.6768 -0.5029 -0.1603
  552MOL0     O74388   5.685   7.835   9.341 -0.0999  0.7545  0.0151
  552MOL0     C74389   5.758   7.854   9.454 -1.2053  0.8435  0.3789
  552MOL0     C74390   5.897   7.826   9.472  0.4436  0.0530 -0.1453
  552MOL0     C74391   5.965   7.851   9.588 -0.6164  0.3325  0.5228
  552MOL0     C74392   5.895   7.923   9.686  0.6389 -0.1763 -0.0759
  552MOL0     O74393   5.980   7.968   9.791  0.1823  0.3429  0.0934
  552MOL0     C74394   5.923   8.013   9.911 -0.3513 -0.1292  0.5706
  552MOL0     C74395   6.032   8.052  10.012 -0.7220  0.2696 -0.1366
  552MOL0     C74396   5.974   8.110  10.136  0.2263 -0.3943  0.3329
  552MOL0     C74397   6.079   8.115  10.239 -0.7619  0.0960 -0.8499
  552MOL0     C74398   6.040   8.192  10.368  0.3155 -0.7839  0.0201
  552MOL0     C74399   5.946   8.103  10.445  0.7757 -0.3331  0.5014
  552MOL0     C74400   5.893   8.170  10.571 -0.9001  0.2626 -0.0440
  552MOL0     C74401   5.833   8.064  10.663  0.2601 -0.1924 -0.8337
  552MOL0     N74402   5.736   7.969  10.599 -0.3961 -0.3997 -0.3052
  552MOL0     C74403   5.750   7.842  10.541  0.2943 -0.2609  0.4163
  552MOL0     C74404   5.631   7.797  10.518  0.8533  0.0941 -0.6258
  552MOL0     C74405   5.593   7.675  10.443  0.5729 -0.4013  0.4006
  552MOL0     C74406   5.493   7.577  10.501 -0.6607 -0.2580  0.5877
  552MOL0     C74407   5.552   7.517  10.628  1.0884  0.0956 -0.4748
  552MOL0     C74408   5.450   7.421  10.696  0.3190 -0.3357  0.3163
  552MOL0     O74409   5.503   7.341  10.801  0.1273 -0.4547  0.3590
  552MOL0     C74410   5.470   7.378  10.928  0.8486  1.1991  0.2937
  552MOL0     C74411   5.470   7.507  10.981 -0.0600 -0.4192 -0.4788
  552MOL0     C74412   5.427   7.536  11.108 -0.4422  0.0087 -0.6572
  552MOL0     C74413   5.443   7.681  11.158  1.2278 -0.4400  0.1247
  552MOL0     C74414   5.387   7.428  11.200  0.2547  0.0861  0.5926
  552MOL0     C74415   5.331   7.446  11.335 -0.4880 -0.1166  0.7942
  552MOL0     O74416   5.225   7.543  11.339 -0.1599 -0.2460  0.2092
  552MOL0     C74417   5.198   7.587  11.469 -0.0751 -0.9665  0.4457
  552MOL0     C74418   5.270   7.695  11.527  1.2095 -0.3516  0.0835
  552MOL0     C74419   5.232   7.733  11.666 -0.5273 -0.9956  0.2755
  552MOL0     C74420   5.127   7.680  11.730  0.0246  0.5135 -1.1232
  552MOL0     O74421   5.120   7.723  11.867  0.4197 -0.0082 -0.5517
  552MOL0     C74422   5.050   7.643  11.969 -0.6301  0.0462 -0.1500
  552MOL0     C74423   4.996   7.739  12.083  0.1052 -0.0818 -0.7688
  552MOL0     C74424   4.912   7.666  12.192  0.1449  0.0921  0.6371
  552MOL0     C74425   4.883   7.768  12.307  0.7488  0.6060 -0.0713
  552MOL0     C74426   4.818   7.687  12.417 -0.4984  0.4247 -0.1411
  552MOL0     C74427   4.708   7.776  12.486 -0.8869 -0.4379 -0.1897
  552MOL0     C74428   4.658   7.718  12.616  1.1089 -0.8295 -0.0005
  552MOL0     C74429   4.535   7.801  12.667  0.1396  0.0602  0.4269
  552MOL0    Cl74430   4.401   7.851  12.545 -0.0018  0.0005 -0.2529
  552MOL0     C74431   5.051   7.585  11.663  0.7227  0.0325 -0.8198
  552MOL0     C74432   5.086   7.532  11.536 -0.3701  0.5787  0.3992
  552MOL0     O74433   5.369   7.370  11.427  0.3588  0.7255 -0.2777
  552MOL0     C74434   5.399   7.300  11.147  0.5220 -0.8228 -0.2070
  552MOL0     C74435   5.432   7.270  11.011 -1.1733 -0.6958 -0.8479
  552MOL0     N74436   5.543   7.894  10.578 -0.1409 -0.2405  0.0063
  552MOL0     N74437   5.610   7.996  10.620 -0.0174  0.2428 -0.0289
  552MOL0     C74438   5.761   7.951   9.672  0.6625 -0.1468  0.0545
  552MOL0     C74439   5.687   7.899   9.568  0.6067  0.2022  1.0068
  552MOL0     C74440   5.628   7.894   9.114 -0.2021  0.2382 -0.4367
  552MOL0     C74441   5.510   7.822   9.129 -0.1718 -0.1006  0.4093
  552MOL0     C74442   5.418   7.801   9.023  0.3466  0.1351  0.4047
  552MOL0     C74443   5.446   7.848   8.891 -0.5180  0.6763 -0.1940
  552MOL0     O74444   5.356   7.811   8.791 -0.2947 -0.3418  0.1357
  552MOL0     C74445   5.386   7.817   8.653 -0.0045 -0.0037  0.4123
  552MOL0     C74446   5.474   7.704   8.600 -0.6109  0.5271  0.4564
  552MOL0     C74447   5.451   7.668   8.440  0.6882 -0.3653  0.3961
  552MOL0     C74448   5.487   7.785   8.350 -0.0583 -1.0862 -0.0429
  552MOL0     C74449   5.634   7.791   8.318 -0.8126 -0.3700  1.0169
  552MOL0     C74450   5.748   7.813   8.280 -0.2700  0.3519  0.3106
  552MOL0     C74451   5.565   7.920   8.879  0.4889 -0.2891 -0.1118
  552MOL0     C74452   5.654   7.957   8.990 -0.1098  0.9118  0.8895
  552MOL0     H74453   5.931   7.777   9.381 -2.9317 -0.1818 -1.4260
  552MOL0     H74454   6.073   7.836   9.587 -0.8419 -1.9498  2.2526
  552MOL0     H74455   5.856   8.099   9.898  0.4501  0.0949 -3.3893
  552MOL0     H74456   5.881   7.921   9.953  2.7135 -2.1315 -0.4511
  552MOL0     H74457   6.091   7.963  10.036  1.1674  0.0631 -4.5918
  552MOL0     H74458   6.102   8.117   9.958 -0.2030  1.7963  2.2004
  552MOL0     H74459   5.941   8.208  10.100 -1.2120 -1.4428 -1.3797
  552MOL0     H74460   5.882   8.055  10.158 -2.4203  2.5838 -2.3340
  552MOL0     H74461   6.101   8.009  10.256 -2.9970 -0.6562 -2.2180
  552MOL0     H74462   6.163   8.168  10.193  1.1497  1.4648  3.6744
  552MOL0     H74463   6.133   8.209  10.423 -0.2910 -1.1389  1.1858
  552MOL0     H74464   6.006   8.294  10.347 -1.2659 -0.8449  2.0202
  552MOL0     H74465   5.860   8.065  10.388  1.8943  0.8691 -2.1537
  552MOL0     H74466   6.004   8.013  10.464 -0.3462 -1.1440  0.2240
  552MOL0     H74467   5.985   8.202  10.621  1.5853 -0.3342 -3.8976
  552MOL0     H74468   5.827   8.256  10.552 -0.3525  1.3682  2.5689
  552MOL0     H74469   5.782   8.107  10.749 -1.2212  0.0382 -1.7932
  552MOL0     H74470   5.913   7.999  10.700  0.9007  0.7080 -0.6096
  552MOL0     H74471   5.843   7.804  10.499 -0.9548 -1.6774 -1.1748
  552MOL0     H74472   5.557   7.706  10.345 -0.7728  0.3822  1.1105
  552MOL0     H74473   5.682   7.616  10.417  0.4906 -0.6663  0.6995
  552MOL0     H74474   5.477   7.495  10.430  2.9948 -0.4653 -0.1759
  552MOL0     H74475   5.405   7.638  10.522 -0.3520  0.4478 -0.1184
  552MOL0     H74476   5.583   7.601  10.692 -1.6520  1.2876 -0.5698
  552MOL0     H74477   5.633   7.449  10.599  0.6658 -0.0549 -1.3206
  552MOL0     H74478   5.423   7.352  10.615 -0.0981  0.3830 -0.1753
  552MOL0     H74479   5.364   7.484  10.721  2.1249  3.0718 -1.3067
  552MOL0     H74480   5.525   7.580  10.922  0.8616 -0.0593  0.7768
  552MOL0     H74481   5.449   7.679  11.267 -2.2393 -0.9807  0.4220
  552MOL0     H74482   5.528   7.729  11.109  0.0841  1.7780  0.1972
  552MOL0     H74483   5.356   7.737  11.122 -0.1201 -1.5753  1.4672
  552MOL0     H74484   5.345   7.751  11.472 -0.1533  0.8164 -0.6571
  552MOL0     H74485   5.290   7.815  11.707 -0.6300  0.8858 -3.0570
  552MOL0     H74486   4.963   7.590  11.928 -0.1539 -1.3405  0.5519
  552MOL0     H74487   5.110   7.567  12.020  0.2993  0.5487 -0.4735
  552MOL0     H74488   5.084   7.783  12.131 -0.2894 -1.8445  1.7963
  552MOL0     H74489   4.934   7.814  12.033  2.9179  2.7054 -0.3710
  552MOL0     H74490   4.977   7.580  12.215  0.6607 -0.1421 -1.5083
  552MOL0     H74491   4.813   7.636  12.156  1.1496 -0.4278 -1.9387
  552MOL0     H74492   4.973   7.815  12.348 -0.2343  0.6246  2.2704
  552MOL0     H74493   4.819   7.851  12.276 -1.5468 -1.3848 -0.9684
  552MOL0     H74494   4.900   7.661  12.485 -0.3379 -0.1964 -0.5669
  552MOL0     H74495   4.779   7.593  12.377 -1.5234  0.5019  0.6401
  552MOL0     H74496   4.752   7.875  12.497  0.4045 -1.1662  1.6040
  552MOL0     H74497   4.625   7.786  12.416 -1.8437 -2.9996  0.4792
  552MOL0     H74498   4.743   7.720  12.684  1.9133 -1.1738 -0.9639
  552MOL0     H74499   4.632   7.612  12.608 -0.6509 -0.3018 -2.8890
  552MOL0     H74500   4.560   7.892  12.722 -1.4679  0.0773  1.1788
  552MOL0     H74501   4.474   7.737  12.731 -0.2626  0.3322  0.3230
  552MOL0     H74502   4.971   7.532  11.715  1.6196 -0.6911 -0.1506
  552MOL0     H74503   5.010   7.465  11.496  2.6634 -1.3010 -2.8699
  552MOL0     H74504   5.384   7.227  11.225  1.1170  0.1934  0.9009
  552MOL0     H74505   5.438   7.165  10.982 -0.8420 -1.0467  0.4292
  552MOL0     H74506   5.695   7.999   9.744 -1.9458 -0.8827 -1.6829
  552MOL0     H74507   5.578   7.904   9.565  0.4166 -2.1291  1.8254
  552MOL0     H74508   5.480   7.782   9.225 -0.0626 -0.4883  0.2877
  552MOL0     H74509   5.320   7.761   9.046  1.1368 -1.4299  1.2186
  552MOL0     H74510   5.290   7.816   8.600 -0.1429 -3.4222  0.5059
  552MOL0     H74511   5.444   7.909   8.643  1.7268 -0.8534  1.9350
  552MOL0     H74512   5.459   7.618   8.666  0.1938 -3.0631 -3.5847
  552MOL0     H74513   5.580   7.725   8.620 -0.2840 -1.3082  0.8382
  552MOL0     H74514   5.344   7.647   8.429  0.2625  0.4314  2.4587
  552MOL0     H74515   5.514   7.582   8.417  2.0821  0.1793  1.9241
  552MOL0     H74516   5.458   7.886   8.381  0.5488 -0.9850  0.2228
  552MOL0     H74517   5.426   7.771   8.260 -3.3702  1.1778  1.6237
  552MOL0     H74518   5.841   7.848   8.241 -1.0611  1.3438 -0.7825
  552MOL0     H74519   5.600   7.969   8.789  2.3219  4.1278  2.6863
  552MOL0     H74520   5.731   8.027   8.960 -0.9894  0.6437 -2.5135
  553MOL0     O74521   2.879   4.122   6.260 -0.4004  0.3651 -1.1078
  553MOL0     C74522   2.785   4.206   6.259 -1.1628 -0.0315 -0.3503
  553MOL0     O74523   2.660   4.200   6.295 -0.0507 -0.2487  0.6491
  553MOL0     C74524   2.621   4.086   6.352 -0.1437 -0.4915 -0.2416
  553MOL0     C74525   2.674   4.045   6.479  0.3747 -0.0610 -0.9999
  553MOL0     C74526   2.626   3.925   6.533 -0.5941  0.2649  0.0628
  553MOL0     C74527   2.520   3.854   6.475 -0.2703  0.8854 -0.5783
  553MOL0     O74528   2.481   3.739   6.534  0.0024 -0.4553  0.1231
  553MOL0     C74529   2.522   3.625   6.466 -0.0091  0.0799  0.2120
  553MOL0     C74530   2.514   3.501   6.563  0.5355 -1.0644 -0.4053
  553MOL0     C74531   2.555   3.357   6.513  0.1205 -0.3800 -0.4413
  553MOL0     C74532   2.453   3.301   6.406  0.4040 -0.0635  1.1906
  553MOL0     C74533   2.329   3.244   6.473  0.0615 -0.1492 -1.3990
  553MOL0     C74534   2.347   3.108   6.542  0.2895  0.2226 -0.3355
  553MOL0     C74535   2.230   3.081   6.639  0.6075  0.7558 -0.4386
  553MOL0     C74536   2.243   2.947   6.720  0.1892  0.1588 -0.0369
  553MOL0     N74537   2.329   2.959   6.843 -0.3597 -0.1838  0.8303
  553MOL0     C74538   2.289   2.986   6.975  0.2420  0.4098  0.5207
  553MOL0     C74539   2.405   2.977   7.043  0.0841 -0.4928  0.5015
  553MOL0     C74540   2.405   2.978   7.200 -0.2919  0.1886  0.3026
  553MOL0     C74541   2.380   3.120   7.239  0.9704 -0.0575 -0.2791
  553MOL0     C74542   2.418   3.134   7.378  0.0299  0.0720  0.0891
  553MOL0     C74543   2.400   3.270   7.429 -0.2410  0.4935 -0.0354
  553MOL0     O74544   2.266   3.315   7.419  0.6952  0.0151  0.0940
  553MOL0     C74545   2.234   3.419   7.509  0.1461 -0.0268  0.5705
  553MOL0     C74546   2.137   3.508   7.458 -0.8902 -0.2201  0.3440
  553MOL0     C74547   2.096   3.624   7.527 -1.2470  0.6119 -0.4647
  553MOL0     C74548   2.016   3.722   7.455  0.4388 -0.3220  0.1804
  553MOL0     C74549   2.152   3.652   7.657 -0.9492  0.0603 -0.0926
  553MOL0     C74550   2.129   3.774   7.741 -0.4157  0.4724  0.3692
  553MOL0     O74551   2.192   3.782   7.861  0.3931 -0.3175  0.0226
  553MOL0     C74552   2.160   3.869   7.965  0.5657 -0.1643 -0.6151
  553MOL0     C74553   2.259   3.887   8.060  0.4456 -1.0774  0.5317
  553MOL0     C74554   2.235   3.967   8.171 -0.4758 -0.5891 -0.2195
  553MOL0     C74555   2.110   4.018   8.192  0.6089  0.7857 -0.1901
  553MOL0     O74556   2.079   4.095   8.304 -0.3343 -1.1942 -0.8133
  553MOL0     C74557   1.960   4.068   8.387 -0.9678  0.1033 -0.1402
  553MOL0     C74558   1.957   4.171   8.497  0.3276 -0.0658  0.6264
  553MOL0     C74559   2.062   4.145   8.612  0.1789  0.1706 -0.0223
  553MOL0     C74560   2.036   4.235   8.734 -0.1331  0.9388  0.8484
  553MOL0     C74561   2.106   4.170   8.865  0.4998 -0.6668  0.0534
  553MOL0     C74562   2.035   4.042   8.912 -0.4377 -0.5822  0.5004
  553MOL0     C74563   2.101   3.987   9.050  0.8296  0.0046  0.9782
  553MOL0     C74564   2.045   3.857   9.104 -0.6093  0.2024 -0.5018
  553MOL0    Cl74565   1.877   3.887   9.161  0.0243  0.0848  0.0563
  553MOL0     C74566   2.006   3.992   8.101  0.5804 -0.8439 -0.3142
  553MOL0     C74567   2.032   3.925   7.982  0.5686 -0.5991  0.4943
  553MOL0     O74568   2.053   3.861   7.709 -0.6506 -0.4247  0.4578
  553MOL0     C74569   2.233   3.556   7.717 -0.4714  0.7502 -0.3307
  553MOL0     C74570   2.273   3.440   7.641 -0.2738  0.3166 -0.4145
  553MOL0     N74571   2.509   2.948   6.955  0.0280  0.6279  0.2310
  553MOL0     N74572   2.468   2.949   6.836 -0.1142  0.7163 -0.2242
  553MOL0     C74573   2.467   3.894   6.361 -0.1751  0.1699  0.7208
  553MOL0     C74574   2.525   4.011   6.293  0.3264  0.1969 -0.2521
  553MOL0     C74575   2.835   4.332   6.196 -0.0157  0.2054 -0.2053
  553MOL0     C74576   2.743   4.441   6.178  0.2384  0.4585  0.8551
  553MOL0     C74577   2.774   4.561   6.111  0.2485  0.9082 -0.5255
  553MOL0     C74578   2.895   4.579   6.054 -0.4550 -0.2761 -0.8051
  553MOL0     O74579   2.930   4.688   5.977  0.1661  0.0296  0.0620
  553MOL0     C74580   2.870   4.817   6.007 -0.3329  0.5267 -0.8283
  553MOL0     C74581   2.941   4.935   5.933  0.5888 -0.6516 -0.0247
  553MOL0     C74582   2.905   5.087   5.956 -0.2892  0.5748  0.6344
  553MOL0     C74583   2.965   5.176   5.844 -0.8622  0.2562  0.2859
  553MOL0     C74584   3.116   5.176   5.837  0.3166  0.7437  0.4162
  553MOL0     C74585   3.234   5.188   5.819  0.3517 -0.7044 -0.4951
  553MOL0     C74586   2.992   4.477   6.071  0.2001 -1.3319  0.0442
  553MOL0     C74587   2.962   4.361   6.149  0.0277 -0.0415 -0.3123
  553MOL0     H74588   2.754   4.104   6.522  0.7215  0.8714 -2.8162
  553MOL0     H74589   2.672   3.889   6.624 -2.6415  0.5145  1.2528
  553MOL0     H74590   2.465   3.604   6.375  2.1134 -0.8049 -0.9960
  553MOL0     H74591   2.627   3.648   6.444  0.4630 -2.5402 -0.7036
  553MOL0     H74592   2.581   3.525   6.646 -1.4284  2.2792  0.4055
  553MOL0     H74593   2.415   3.493   6.607  0.1834 -4.0943 -1.5452
  553MOL0     H74594   2.656   3.374   6.475  1.0147  0.5112  2.1290
  553MOL0     H74595   2.552   3.293   6.602  0.2540 -0.7308 -0.6856
  553MOL0     H74596   2.421   3.388   6.347  0.2291  0.6197  2.2787
  553MOL0     H74597   2.501   3.223   6.346 -2.0628 -0.7449 -0.0415
  553MOL0     H74598   2.290   3.316   6.546  2.4146  0.1037 -0.2878
  553MOL0     H74599   2.253   3.239   6.395 -0.3580  2.3377 -1.2360
  553MOL0     H74600   2.370   3.026   6.473  1.9793 -1.5336  2.1705
  553MOL0     H74601   2.432   3.110   6.611 -0.8971 -2.2973  1.3507
  553MOL0     H74602   2.216   3.161   6.712 -1.7293 -2.5251  3.1106
  553MOL0     H74603   2.140   3.069   6.578  1.0722  0.0794 -1.0041
  553MOL0     H74604   2.281   2.875   6.647 -0.0549  1.0136 -1.0387
  553MOL0     H74605   2.146   2.907   6.752 -0.1496  1.3902  0.5677
  553MOL0     H74606   2.189   3.012   7.009  0.6970 -0.1249  2.3351
  553MOL0     H74607   2.327   2.907   7.229  2.1363 -1.7137  2.6414
  553MOL0     H74608   2.498   2.941   7.245 -2.0743  0.3895  4.7359
  553MOL0     H74609   2.271   3.130   7.240  1.1582  3.0062  2.3414
  553MOL0     H74610   2.430   3.196   7.178 -0.1006  1.0375  0.1607
  553MOL0     H74611   2.526   3.116   7.389  0.5260  3.2862  1.5083
  553MOL0     H74612   2.355   3.070   7.439 -0.4485  0.6240  0.1741
  553MOL0     H74613   2.475   3.334   7.381  1.2953 -1.1635  0.0369
  553MOL0     H74614   2.443   3.249   7.527  1.2890 -1.4673 -1.0543
  553MOL0     H74615   2.097   3.475   7.362 -0.4738 -0.0084  0.0969
  553MOL0     H74616   1.975   3.675   7.365 -1.1491 -1.7400  1.5613
  553MOL0     H74617   1.934   3.763   7.515  0.7299 -2.4059  2.1499
  553MOL0     H74618   2.088   3.802   7.437 -0.2619  0.5320  1.0725
  553MOL0     H74619   2.356   3.838   8.051  0.5775 -1.2203  2.2637
  553MOL0     H74620   2.315   4.001   8.236 -0.9149  0.6759 -0.3227
  553MOL0     H74621   1.871   4.079   8.324  0.3280 -1.0591 -2.3117
  553MOL0     H74622   1.966   3.966   8.425 -0.8357  0.6441  1.3328
  553MOL0     H74623   1.965   4.271   8.454  0.1013 -0.5852 -0.6764
  553MOL0     H74624   1.857   4.167   8.542  0.0453 -0.6543 -0.0289
  553MOL0     H74625   2.163   4.165   8.574 -0.3212  0.4481 -1.2430
  553MOL0     H74626   2.064   4.041   8.647  1.2329  0.9985  2.6128
  553MOL0     H74627   2.076   4.333   8.706  1.2950 -0.8783 -5.0366
  553MOL0     H74628   1.932   4.218   8.763 -0.4143  0.1980 -0.4960
  553MOL0     H74629   2.093   4.240   8.949 -2.4226 -0.5597 -0.3907
  553MOL0     H74630   2.213   4.172   8.844  0.5658  0.7369  0.3972
  553MOL0     H74631   1.931   4.069   8.929 -0.8767 -0.5465 -1.8618
  553MOL0     H74632   2.038   3.967   8.833 -1.8163  0.6304 -0.7659
  553MOL0     H74633   2.078   4.056   9.132 -0.5294  1.7541 -0.7757
  553MOL0     H74634   2.208   3.982   9.029  1.0139 -1.0806  2.0682
  553MOL0     H74635   2.089   3.810   9.192 -0.8959 -0.2555 -0.5951
  553MOL0     H74636   2.062   3.790   9.019  3.7390  1.5222 -0.9217
  553MOL0     H74637   1.911   4.042   8.121 -0.1300 -2.9364  2.1626
  553MOL0     H74638   1.951   3.907   7.913 -1.6248 -0.8239  2.9598
  553MOL0     H74639   2.283   3.561   7.814 -1.1082 -1.5371  0.1671
  553MOL0     H74640   2.306   3.349   7.689  0.7200  1.1558  0.5482
  553MOL0     H74641   2.370   3.850   6.338  0.9130 -1.6632 -0.7144
  553MOL0     H74642   2.496   4.040   6.192  0.0857  1.0108  0.0457
  553MOL0     H74643   2.647   4.430   6.228 -0.7748 -0.7055 -1.1851
  553MOL0     H74644   2.706   4.645   6.104 -1.7670 -0.6565 -0.3989
  553MOL0     H74645   2.761   4.823   6.002 -0.2900  0.6504 -1.9087
  553MOL0     H74646   2.881   4.836   6.114  0.3897 -1.0487 -0.6053
  553MOL0     H74647   2.921   4.919   5.827  1.9676  0.2800 -0.4473
  553MOL0     H74648   3.050   4.926   5.941  0.7693 -1.1379 -2.4500
  553MOL0     H74649   2.940   5.107   6.058 -2.1759 -1.3006  1.7433
  553MOL0     H74650   2.802   5.120   5.936 -1.4424 -3.3192 -0.7336
  553MOL0     H74651   2.934   5.279   5.869  0.2061  0.8171 -0.6266
  553MOL0     H74652   2.920   5.145   5.750 -0.5593 -2.7274  1.0334
  553MOL0     H74653   3.335   5.220   5.808  0.4070 -1.1707 -1.3976
  553MOL0     H74654   3.085   4.485   6.015 -1.9386 -2.4917 -4.0049
  553MOL0     H74655   3.020   4.271   6.170 -2.7059 -1.7718  0.3226
  554MOL0     O74656   9.660   0.611   3.632 -0.4896 -0.5908  0.4909
  554MOL0     C74657   9.768   0.609   3.571  0.9113 -0.5565 -1.0897
  554MOL0     O74658   9.791   0.584   3.441  0.8087 -0.1815  0.4167
  554MOL0     C74659   9.683   0.540   3.356  0.4567 -0.2152 -0.6209
  554MOL0     C74660   9.608   0.430   3.402  0.1663 -0.4593  0.4295
  554MOL0     C74661   9.494   0.381   3.326 -0.4382  0.3159 -0.6618
  554MOL0     C74662   9.455   0.456   3.214  0.5056  0.0151 -0.7755
  554MOL0     O74663   9.363   0.397   3.132 -0.5044 -0.2880 -0.0787
  554MOL0     C74664   9.224   0.387   3.181  0.0346  0.1991 -0.3413
  554MOL0     C74665   9.167   0.242   3.154 -0.7860 -1.6400  0.3934
  554MOL0     C74666   9.168   0.224   2.998  0.3574 -0.0821  0.7060
  554MOL0     C74667   9.077   0.106   2.951  0.0111 -0.0839  0.0265
  554MOL0     C74668   9.152  -0.000   2.865 -0.0549 -0.0562 -0.1401
  554MOL0     C74669   9.052  -0.116   2.856  0.2343 -0.8047  0.2641
  554MOL0     C74670   9.112  -0.220   2.770  0.8148 -0.0001 -0.9682
  554MOL0     C74671   9.124  -0.345   2.850  0.8003  0.0201  0.2999
  554MOL0     N74672   9.148  -0.467   2.767 -1.0015 -0.1648  0.1700
  554MOL0     C74673   9.064  -0.502   2.669  0.1137  0.5173 -0.1178
  554MOL0     C74674   9.117  -0.619   2.611 -0.0668 -0.3420  0.1235
  554MOL0     C74675   9.069  -0.711   2.511  0.9238  0.2020 -0.3481
  554MOL0     C74676   9.040  -0.661   2.366 -0.8125 -0.3692  0.0129
  554MOL0     C74677   9.146  -0.574   2.295 -0.2460  1.0062  0.6547
  554MOL0     C74678   9.296  -0.610   2.328  0.7122 -0.3706  0.0271
  554MOL0     O74679   9.305  -0.743   2.299  0.8561  0.1862  0.0372
  554MOL0     C74680   9.404  -0.826   2.344 -0.3345  0.8047 -0.6570
  554MOL0     C74681   9.513  -0.767   2.422 -0.0133 -0.0410 -0.5156
  554MOL0     C74682   9.603  -0.847   2.482 -0.2477 -1.2525 -0.5098
  554MOL0     C74683   9.705  -0.772   2.574 -0.6298 -0.5354  0.6334
  554MOL0     C74684   9.595  -0.985   2.473  0.3036  0.5210 -0.0539
  554MOL0     C74685   9.689  -1.084   2.535  0.0796  0.6217 -1.2319
  554MOL0     O74686   9.826  -1.051   2.536 -0.5498  0.0389 -0.3728
  554MOL0     C74687   9.913  -1.155   2.562 -0.5317  0.3844 -0.0765
  554MOL0     C74688  10.018  -1.147   2.659 -0.7093  0.7386 -0.7321
  554MOL0     C74689  10.108  -1.257   2.666  0.1819 -0.7992 -0.1077
  554MOL0     C74690  10.086  -1.377   2.596  0.5217  0.4084 -0.0838
  554MOL0     O74691  10.147  -1.491   2.621  0.8158  0.9185 -0.0793
  554MOL0     C74692  10.228  -1.512   2.734 -0.4125  0.1145  0.0850
  554MOL0     C74693  10.299  -1.648   2.715  0.1402  0.1253  0.1696
  554MOL0     C74694  10.397  -1.656   2.828 -0.3993 -0.0456  0.5692
  554MOL0     C74695  10.531  -1.606   2.792 -0.6437 -0.0206 -0.4275
  554MOL0     C74696  10.608  -1.676   2.669 -0.6367 -0.7695 -0.3425
  554MOL0     C74697  10.587  -1.820   2.661 -0.4840 -0.2034  0.1302
  554MOL0     C74698  10.671  -1.877   2.555  0.2464 -0.3336  0.1551
  554MOL0     C74699  10.642  -2.026   2.554 -0.0569  0.2643 -0.4464
  554MOL0    Cl74700  10.473  -2.087   2.519 -0.1820  0.4500  0.2514
  554MOL0     C74701   9.983  -1.380   2.505  0.0851 -0.1370  0.9425
  554MOL0     C74702   9.890  -1.280   2.486  0.1152 -0.2333  0.2309
  554MOL0     O74703   9.639  -1.184   2.595 -0.5207 -0.2986 -0.2587
  554MOL0     C74704   9.491  -1.050   2.398 -0.2813 -0.2861  0.0968
  554MOL0     C74705   9.395  -0.967   2.341  0.1521  0.3140 -0.2207
  554MOL0     N74706   9.226  -0.655   2.691  0.6222  0.3887  0.2048
  554MOL0     N74707   9.237  -0.566   2.785  0.4923  0.5933 -0.2694
  554MOL0     C74708   9.533   0.559   3.168 -0.1142 -0.2903 -1.1865
  554MOL0     C74709   9.645   0.604   3.240  0.3009  0.8343  0.3406
  554MOL0     C74710   9.880   0.653   3.652 -0.4542 -0.9263  0.7802
  554MOL0     C74711   9.877   0.641   3.792  0.2954  0.2932 -0.9425
  554MOL0     C74712   9.975   0.693   3.880  0.0173  1.1379  0.7039
  554MOL0     C74713  10.071   0.779   3.822 -0.8286 -0.1703 -1.1188
  554MOL0     O74714  10.168   0.853   3.894 -0.2254 -0.0023 -0.2459
  554MOL0     C74715  10.170   0.851   4.036 -0.4728 -0.2274 -0.2068
  554MOL0     C74716  10.063   0.936   4.109 -0.5534 -0.1157  0.5574
  554MOL0     C74717  10.086   1.075   4.060 -0.8765  0.1635  0.5502
  554MOL0     C74718   9.955   1.161   4.080 -0.7251 -0.3584  0.7342
  554MOL0     C74719   9.936   1.189   4.227  0.3016 -1.7425  0.8509
  554MOL0     C74720   9.915   1.238   4.334  0.1580 -0.7151  0.5051
  554MOL0     C74721  10.089   0.778   3.683  0.7058  0.2145  1.8707
  554MOL0     C74722   9.993   0.720   3.598  0.1854 -0.0162 -0.2118
  554MOL0     H74723   9.629   0.388   3.500  0.8181 -1.1738 -0.0009
  554MOL0     H74724   9.432   0.297   3.356  1.3742 -1.9229 -2.7411
  554MOL0     H74725   9.213   0.399   3.289  1.3022 -4.9009  0.6210
  554MOL0     H74726   9.160   0.463   3.135  1.3288  2.6220  1.6415
  554MOL0     H74727   9.225   0.167   3.207 -0.3958 -1.2580  0.5109
  554MOL0     H74728   9.072   0.208   3.195 -0.5316 -3.2022 -0.2396
  554MOL0     H74729   9.133   0.319   2.958  2.7998  0.6744  0.1681
  554MOL0     H74730   9.270   0.211   2.960 -0.4408 -2.1811 -0.9013
  554MOL0     H74731   9.030   0.058   3.037 -2.5938  4.1552  1.2903
  554MOL0     H74732   9.005   0.154   2.885  0.4500 -2.4786 -2.3680
  554MOL0     H74733   9.169   0.030   2.761 -0.8950 -0.7159 -0.4818
  554MOL0     H74734   9.249  -0.036   2.900 -0.4308 -1.6039 -0.6033
  554MOL0     H74735   9.022  -0.151   2.955 -1.2799  1.6242  0.7516
  554MOL0     H74736   8.959  -0.082   2.810  0.3741  1.3968  1.4703
  554MOL0     H74737   9.043  -0.231   2.685 -0.6583  4.3861 -0.5929
  554MOL0     H74738   9.212  -0.205   2.727  0.8256  3.8484  0.0242
  554MOL0     H74739   9.034  -0.365   2.910  1.8200 -1.5870  1.3733
  554MOL0     H74740   9.209  -0.334   2.917  1.3193  1.0654 -0.5038
  554MOL0     H74741   8.986  -0.446   2.618  1.1381  0.8177 -1.3963
  554MOL0     H74742   9.148  -0.787   2.517  0.3910 -0.3275  0.2712
  554MOL0     H74743   8.984  -0.772   2.545 -0.1564  0.9548 -1.6198
  554MOL0     H74744   8.949  -0.601   2.378 -0.3381  0.2228  0.7183
  554MOL0     H74745   9.029  -0.743   2.294 -1.6044  0.1987 -0.5390
  554MOL0     H74746   9.122  -0.469   2.311 -2.6549  0.7082 -0.5666
  554MOL0     H74747   9.128  -0.584   2.187  0.0504  2.3236  0.4689
  554MOL0     H74748   9.318  -0.601   2.434 -2.0542 -0.9313  0.7216
  554MOL0     H74749   9.357  -0.545   2.264  2.1940 -0.0560  1.6901
  554MOL0     H74750   9.528  -0.660   2.423  2.8310 -0.3551  1.8865
  554MOL0     H74751   9.742  -0.836   2.655  2.6521 -0.5803 -0.7438
  554MOL0     H74752   9.799  -0.750   2.522  0.5974  0.1873  2.9955
  554MOL0     H74753   9.669  -0.682   2.624  0.3560 -0.2308  0.8193
  554MOL0     H74754  10.027  -1.059   2.721 -0.9724 -2.5563  4.6279
  554MOL0     H74755  10.198  -1.240   2.725 -0.5440 -0.7429  1.0099
  554MOL0     H74756  10.303  -1.433   2.742 -1.1436  0.9271 -0.8631
  554MOL0     H74757  10.161  -1.516   2.820  0.5957 -0.0784  0.8756
  554MOL0     H74758  10.221  -1.725   2.718  3.9018 -4.1016 -0.3294
  554MOL0     H74759  10.349  -1.652   2.618  2.8411  1.5260  1.4122
  554MOL0     H74760  10.396  -1.756   2.872 -2.6339  0.5172  1.9745
  554MOL0     H74761  10.373  -1.596   2.916 -1.2999 -2.6909  2.2557
  554MOL0     H74762  10.532  -1.497   2.777  2.8824 -0.1219 -1.8614
  554MOL0     H74763  10.593  -1.629   2.879 -1.5608 -3.1754 -0.4864
  554MOL0     H74764  10.713  -1.646   2.679 -1.5292  3.0407 -0.8019
  554MOL0     H74765  10.575  -1.628   2.576  0.0044 -0.1561 -0.2674
  554MOL0     H74766  10.604  -1.865   2.759 -0.8365  0.8428  0.6849
  554MOL0     H74767  10.482  -1.844   2.640 -0.1797 -2.7855  1.1670
  554MOL0     H74768  10.776  -1.850   2.571  0.2692 -0.2186 -0.1764
  554MOL0     H74769  10.639  -1.830   2.461 -0.2520  1.4042  1.1567
  554MOL0     H74770  10.672  -2.065   2.652  3.0012  1.6362 -0.7181
  554MOL0     H74771  10.703  -2.079   2.480  0.3039 -1.7271  1.1672
  554MOL0     H74772   9.981  -1.472   2.446  1.5914  0.1603  0.3844
  554MOL0     H74773   9.821  -1.308   2.408  1.9495 -2.8709 -0.5558
  554MOL0     H74774   9.497  -1.157   2.382  1.2540  0.2556 -3.9552
  554MOL0     H74775   9.307  -1.005   2.290  0.0945 -2.0915  1.4979
  554MOL0     H74776   9.507   0.597   3.070 -1.0431 -0.6912 -1.1071
  554MOL0     H74777   9.720   0.680   3.220  0.3067  0.1816 -2.5704
  554MOL0     H74778   9.789   0.599   3.840 -0.0998  3.0612  0.9773
  554MOL0     H74779   9.964   0.680   3.988 -0.4434 -2.8636  0.3184
  554MOL0     H74780  10.172   0.752   4.083  0.8684  0.2107  0.7223
  554MOL0     H74781  10.264   0.905   4.050 -0.4762 -0.2294 -0.1772
  554MOL0     H74782  10.071   0.947   4.217 -3.1579 -0.3844  0.8424
  554MOL0     H74783   9.968   0.889   4.082  0.3943 -1.4349 -0.6528
  554MOL0     H74784  10.088   1.066   3.951 -1.4406 -1.1275  0.6278
  554MOL0     H74785  10.182   1.114   4.093  0.5663 -2.1921 -0.6025
  554MOL0     H74786   9.859   1.121   4.046 -1.5632  1.7842  0.3821
  554MOL0     H74787   9.968   1.254   4.025 -1.6036 -1.0632 -0.7122
  554MOL0     H74788   9.907   1.291   4.426  1.8366  2.5109 -1.0286
  554MOL0     H74789  10.151   0.856   3.640  4.0751  0.6555  6.6478
  554MOL0     H74790   9.987   0.740   3.491  3.0561  2.2540 -0.0503
  555MOL0     O74791   1.723   5.493   1.932 -0.2001  0.3338  0.0765
  555MOL0     C74792   1.789   5.570   1.863  0.3634  0.0371  0.6427
  555MOL0     O74793   1.906   5.625   1.895 -0.6531 -0.1467 -0.6972
  555MOL0     C74794   1.985   5.545   1.972  0.9143 -0.3521 -0.3882
  555MOL0     C74795   1.982   5.541   2.105  0.5295  0.8362 -0.3815
  555MOL0     C74796   2.078   5.479   2.180 -0.9195 -0.8664  0.4165
  555MOL0     C74797   2.184   5.411   2.128  0.2779 -0.1865  0.4862
  555MOL0     O74798   2.272   5.351   2.207  0.2020 -0.5044 -0.4285
  555MOL0     C74799   2.284   5.207   2.206  0.4660 -0.6802 -0.1317
  555MOL0     C74800   2.334   5.160   2.343 -0.8871  0.0515  0.1886
  555MOL0     C74801   2.280   5.224   2.477 -0.1533  0.5111  0.3126
  555MOL0     C74802   2.128   5.217   2.482 -0.1002  0.2128 -0.5772
  555MOL0     C74803   2.095   5.083   2.560 -0.4807 -0.2198 -0.6745
  555MOL0     C74804   1.947   5.056   2.581 -0.2363 -0.0283  0.0189
  555MOL0     C74805   1.891   5.161   2.674 -0.7452 -0.2504 -0.1593
  555MOL0     C74806   1.796   5.250   2.596 -0.6844 -0.4274 -0.4657
  555MOL0     N74807   1.729   5.344   2.687  0.8964  0.3286  0.0461
  555MOL0     C74808   1.762   5.429   2.777 -0.3225 -0.0518  0.4385
  555MOL0     C74809   1.645   5.464   2.846 -0.9379 -0.2998 -0.1065
  555MOL0     C74810   1.615   5.552   2.962  0.2833 -0.0945  0.6558
  555MOL0     C74811   1.682   5.495   3.085  0.6214  0.6907 -0.1883
  555MOL0     C74812   1.661   5.593   3.196 -0.3995  0.3390  0.4239
  555MOL0     C74813   1.785   5.578   3.294  0.0443 -0.8308  0.2631
  555MOL0     O74814   1.767   5.649   3.415 -1.1139  1.2612 -0.4971
  555MOL0     C74815   1.857   5.637   3.523  0.3440  0.0092  0.1048
  555MOL0     C74816   1.957   5.536   3.552  0.0771 -0.0883  0.2299
  555MOL0     C74817   2.054   5.541   3.658 -0.7248  0.0033 -0.5045
  555MOL0     C74818   2.145   5.419   3.679 -0.2363 -0.4679 -0.5908
  555MOL0     C74819   2.055   5.659   3.740  0.0763  0.4536 -0.0904
  555MOL0     C74820   2.155   5.689   3.851  0.9548 -0.0108 -0.4320
  555MOL0     O74821   2.107   5.766   3.955 -0.0537 -0.6531  1.0661
  555MOL0     C74822   2.200   5.814   4.047  0.1298 -0.4144  0.1006
  555MOL0     C74823   2.333   5.849   4.031  0.2544  0.2570  0.0154
  555MOL0     C74824   2.400   5.911   4.136 -0.4347 -0.3920 -1.4547
  555MOL0     C74825   2.343   5.923   4.268  0.6994 -0.7469  0.2033
  555MOL0     O74826   2.409   5.989   4.366 -0.8046  0.2142 -0.7834
  555MOL0     C74827   2.541   5.952   4.403 -0.3801  0.0073  0.7800
  555MOL0     C74828   2.549   5.923   4.554  0.7402  0.6365  0.0561
  555MOL0     C74829   2.440   5.836   4.614 -0.6427  0.2092 -0.6366
  555MOL0     C74830   2.450   5.824   4.766 -0.4194 -0.0549 -0.0704
  555MOL0     C74831   2.333   5.741   4.819 -0.1064  0.2181  0.1375
  555MOL0     C74832   2.332   5.711   4.976  0.3333 -0.6167  0.5080
  555MOL0     C74833   2.202   5.654   5.014  0.2154 -0.2416  0.8407
  555MOL0     C74834   2.206   5.569   5.140 -0.3145  0.1908  0.6578
  555MOL0    Cl74835   2.310   5.432   5.103  0.0807 -0.2142 -0.0630
  555MOL0     C74836   2.209   5.901   4.280 -0.7820  0.1257  0.1023
  555MOL0     C74837   2.141   5.834   4.176 -0.3343  0.3033 -0.1910
  555MOL0     O74838   2.267   5.631   3.842  0.2864 -0.3227 -0.4519
  555MOL0     C74839   1.963   5.761   3.709 -0.9657 -0.1729  0.2147
  555MOL0     C74840   1.874   5.746   3.609  0.3287  0.6933  0.7007
  555MOL0     N74841   1.543   5.398   2.786  0.5732 -0.3272  0.3020
  555MOL0     N74842   1.591   5.328   2.696  0.3648  0.1978  0.2253
  555MOL0     C74843   2.196   5.412   1.990  0.3565  0.8876 -0.3951
  555MOL0     C74844   2.096   5.476   1.911 -0.7972 -0.3245  0.7135
  555MOL0     C74845   1.761   5.590   1.716 -0.1909  0.8483 -1.1466
  555MOL0     C74846   1.824   5.672   1.617 -0.2011 -0.2523  0.5201
  555MOL0     C74847   1.794   5.661   1.484 -0.3102  0.6554 -0.7944
  555MOL0     C74848   1.688   5.581   1.439  0.0819 -0.4535  0.1022
  555MOL0     O74849   1.636   5.573   1.317  0.3129 -0.2844 -0.3017
  555MOL0     C74850   1.625   5.694   1.237 -0.1194 -0.1649 -0.3752
  555MOL0     C74851   1.505   5.677   1.143 -0.4416 -0.1236 -0.4719
  555MOL0     C74852   1.483   5.808   1.059 -0.8754  0.3208 -0.9389
  555MOL0     C74853   1.383   5.810   0.933 -0.8347 -0.1899  0.5474
  555MOL0     C74854   1.423   5.709   0.837 -0.3834  0.9058  0.9269
  555MOL0     C74855   1.469   5.637   0.747  1.1394  0.0042 -0.3595
  555MOL0     C74856   1.620   5.491   1.525  0.2444 -0.2665  0.0596
  555MOL0     C74857   1.654   5.504   1.668 -1.1800  0.1500  0.4635
  555MOL0     H74858   1.892   5.593   2.136  0.0940  1.0484 -1.9139
  555MOL0     H74859   2.052   5.469   2.285  1.9216  0.6625  1.3727
  555MOL0     H74860   2.188   5.164   2.177  1.6827 -2.4658 -1.7287
  555MOL0     H74861   2.355   5.181   2.127 -1.4353 -1.5765 -1.6275
  555MOL0     H74862   2.318   5.052   2.353 -1.1809 -0.1864 -2.2969
  555MOL0     H74863   2.442   5.170   2.326 -1.3124  3.7572 -1.2252
  555MOL0     H74864   2.333   5.190   2.567 -0.2109 -0.0752  0.1311
  555MOL0     H74865   2.304   5.331   2.473  0.6601  0.2923 -1.1755
  555MOL0     H74866   2.091   5.300   2.544 -2.1993 -3.1145  3.1536
  555MOL0     H74867   2.077   5.219   2.385  0.3201  1.0210 -0.7851
  555MOL0     H74868   2.139   5.001   2.504  2.0644  0.3991  0.3036
  555MOL0     H74869   2.138   5.095   2.660  1.4192  1.6763 -1.6313
  555MOL0     H74870   1.894   5.044   2.486 -0.3862 -2.5821  0.3738
  555MOL0     H74871   1.933   4.960   2.630 -0.4501 -0.5430 -1.0233
  555MOL0     H74872   1.842   5.114   2.760  1.7301 -0.8332  1.0384
  555MOL0     H74873   1.965   5.229   2.719 -1.9307  0.9683  0.0124
  555MOL0     H74874   1.717   5.188   2.552  0.9467 -2.2790 -0.9564
  555MOL0     H74875   1.852   5.305   2.521  2.0388 -1.7960  0.4035
  555MOL0     H74876   1.858   5.471   2.806 -0.2873  0.0050  0.2410
  555MOL0     H74877   1.661   5.647   2.933 -0.7063  0.1335 -0.2301
  555MOL0     H74878   1.511   5.566   2.994 -0.6690 -2.3419 -1.1514
  555MOL0     H74879   1.789   5.473   3.075  0.9306  1.5175  0.9886
  555MOL0     H74880   1.628   5.406   3.118 -0.8293  2.8243  4.0026
  555MOL0     H74881   1.570   5.565   3.252 -2.4338 -0.7991 -3.1468
  555MOL0     H74882   1.653   5.694   3.153 -0.9541  0.4518  0.7693
  555MOL0     H74883   1.872   5.618   3.241  0.1393 -0.3705  0.7586
  555MOL0     H74884   1.820   5.477   3.314  2.6866  0.1658  1.0615
  555MOL0     H74885   1.972   5.453   3.483 -0.9885 -0.9764  1.0265
  555MOL0     H74886   2.112   5.339   3.613  0.0652  1.2047 -2.9039
  555MOL0     H74887   2.248   5.454   3.666 -0.6037  0.9061 -0.0325
  555MOL0     H74888   2.130   5.380   3.780 -1.6412 -0.0017 -0.5901
  555MOL0     H74889   2.383   5.840   3.935 -0.5104  3.1792 -0.7473
  555MOL0     H74890   2.495   5.958   4.109  0.2301 -0.6346  0.3022
  555MOL0     H74891   2.585   5.868   4.349 -1.0462 -1.1204  1.9490
  555MOL0     H74892   2.602   6.042   4.392 -2.3911  1.3253 -0.4128
  555MOL0     H74893   2.649   5.883   4.570  0.6361  1.2417  2.7473
  555MOL0     H74894   2.529   6.021   4.599 -1.9857  2.0532 -3.6953
  555MOL0     H74895   2.428   5.737   4.568 -2.0932  0.2603 -0.4270
  555MOL0     H74896   2.345   5.882   4.585 -2.0582 -2.8787 -1.4067
  555MOL0     H74897   2.543   5.775   4.796 -0.6099  0.1077  0.8139
  555MOL0     H74898   2.449   5.922   4.814  0.2792 -0.0691 -0.0170
  555MOL0     H74899   2.332   5.645   4.765  1.3478 -0.2627  0.9239
  555MOL0     H74900   2.245   5.801   4.794 -0.0328  0.9769  1.6111
  555MOL0     H74901   2.417   5.643   4.995  1.0165  0.1914  0.3895
  555MOL0     H74902   2.349   5.804   5.031 -0.7603 -0.4951  0.6582
  555MOL0     H74903   2.160   5.608   4.925 -2.3782  4.1109 -0.4905
  555MOL0     H74904   2.129   5.731   5.040 -0.5725 -0.9700  0.8158
  555MOL0     H74905   2.109   5.521   5.160 -1.6379  2.7928  0.9305
  555MOL0     H74906   2.251   5.613   5.230  0.2401  3.1283 -0.9408
  555MOL0     H74907   2.149   5.915   4.369 -0.4660  1.4391  0.1269
  555MOL0     H74908   2.036   5.808   4.190 -0.6024  1.3598 -0.1753
  555MOL0     H74909   1.958   5.854   3.764  1.1178  1.3843 -2.0351
  555MOL0     H74910   1.810   5.832   3.592  0.6012  0.5939 -1.0272
  555MOL0     H74911   2.275   5.354   1.944 -0.4988  1.7956 -3.2647
  555MOL0     H74912   2.105   5.485   1.804 -2.0180  0.7887  0.6780
  555MOL0     H74913   1.900   5.733   1.663  0.0720 -0.5142  0.4217
  555MOL0     H74914   1.857   5.723   1.421  3.7202  1.5570  3.5538
  555MOL0     H74915   1.611   5.789   1.291  2.2335  2.1669 -3.4565
  555MOL0     H74916   1.717   5.701   1.177 -0.2300  1.9319 -0.3938
  555MOL0     H74917   1.416   5.656   1.204 -1.7494 -0.1545 -2.2891
  555MOL0     H74918   1.515   5.589   1.079 -1.3344  0.3376 -1.2681
  555MOL0     H74919   1.576   5.845   1.013 -1.6472  3.6013 -0.1109
  555MOL0     H74920   1.448   5.884   1.129  0.4320 -1.4522  1.8043
  555MOL0     H74921   1.372   5.908   0.884  2.2787 -0.0799 -0.1143
  555MOL0     H74922   1.291   5.777   0.982 -0.0446 -0.3657  1.9681
  555MOL0     H74923   1.498   5.584   0.659 -1.0440  0.2550 -1.2821
  555MOL0     H74924   1.526   5.438   1.512 -1.2565  2.1917  0.1983
  555MOL0     H74925   1.601   5.430   1.726 -1.9911 -0.3512 -0.8797
  556MOL0     O74926   5.109   7.934   2.717 -0.0826  0.2411  0.2577
  556MOL0     C74927   5.188   7.950   2.804 -0.5476  0.1943 -1.0556
  556MOL0     O74928   5.317   7.921   2.790  0.3746 -0.0242  0.0587
  556MOL0     C74929   5.361   7.888   2.663  0.8060 -0.5477 -0.7741
  556MOL0     C74930   5.425   7.766   2.631 -0.2770 -1.1755 -0.9559
  556MOL0     C74931   5.477   7.741   2.506 -0.0518  0.4884 -0.1389
  556MOL0     C74932   5.465   7.841   2.407  0.1819  0.0476  0.2493
  556MOL0     O74933   5.481   7.811   2.273 -0.8001  0.5428  0.3804
  556MOL0     C74934   5.581   7.715   2.225  0.1601  0.0328  0.2969
  556MOL0     C74935   5.723   7.737   2.264 -0.3147 -0.6927 -0.0952
  556MOL0     C74936   5.764   7.894   2.272 -0.0629 -0.0311 -0.6613
  556MOL0     C74937   5.910   7.916   2.295 -0.0320  0.0529 -0.1152
  556MOL0     C74938   5.952   8.060   2.327 -0.1390  1.1084  1.4138
  556MOL0     C74939   5.856   8.133   2.419  0.0905 -0.2820 -0.7036
  556MOL0     C74940   5.901   8.279   2.454  0.0198  0.5586  1.0736
  556MOL0     C74941   5.885   8.320   2.604 -0.1328  0.7573  0.2357
  556MOL0     N74942   5.895   8.465   2.600 -0.5071 -0.0049  1.3085
  556MOL0     C74943   5.792   8.556   2.613 -0.4892 -0.8592  0.9518
  556MOL0     C74944   5.859   8.679   2.588 -0.0346 -0.5562 -0.7771
  556MOL0     C74945   5.797   8.813   2.588  0.8785  0.6665 -0.9216
  556MOL0     C74946   5.853   8.901   2.702 -0.3771 -0.3597  0.0050
  556MOL0     C74947   5.784   9.038   2.727 -0.0622  0.3486  0.7916
  556MOL0     C74948   5.732   9.113   2.592  0.3899  0.9835  1.1218
  556MOL0     O74949   5.653   9.224   2.632 -0.0904  0.2486  0.2142
  556MOL0     C74950   5.622   9.318   2.532 -1.2449  1.0186  0.0027
  556MOL0     C74951   5.598   9.441   2.578 -0.2493 -0.0622 -0.5814
  556MOL0     C74952   5.550   9.543   2.494  1.1274  0.4750 -0.5503
  556MOL0     C74953   5.511   9.664   2.575  0.2949 -0.0458  0.3828
  556MOL0     C74954   5.551   9.523   2.352  0.4129  0.7484  0.2026
  556MOL0     C74955   5.516   9.624   2.257  0.2951  0.1437 -1.0970
  556MOL0     O74956   5.397   9.693   2.288  0.6180  0.5069 -0.8908
  556MOL0     C74957   5.356   9.799   2.211 -0.0636 -1.0352 -0.6473
  556MOL0     C74958   5.223   9.816   2.171 -0.6041 -0.7838 -0.8061
  556MOL0     C74959   5.176   9.929   2.086  0.1140 -0.0051 -1.0106
  556MOL0     C74960   5.272  10.027   2.059  0.1382 -0.0148  0.3961
  556MOL0     O74961   5.239  10.139   1.980  0.5164  0.5833 -0.3227
  556MOL0     C74962   5.109  10.193   1.997  0.0010 -0.2786 -1.4706
  556MOL0     C74963   5.115  10.348   1.995 -0.3004  0.2366  0.8351
  556MOL0     C74964   5.183  10.397   2.124  0.5718 -0.0813  0.0595
  556MOL0     C74965   5.167  10.557   2.117 -0.2280  0.7663 -0.6980
  556MOL0     C74966   5.236  10.640   2.236  0.4797 -0.3775  0.2542
  556MOL0     C74967   5.379  10.669   2.240  0.3863  1.0504 -0.2400
  556MOL0     C74968   5.403  10.780   2.338  0.1043 -0.1135  0.9190
  556MOL0     C74969   5.532  10.753   2.415 -0.5465 -0.1779 -0.0035
  556MOL0    Cl74970   5.552  10.901   2.495  0.0302  0.0493 -0.2371
  556MOL0     C74971   5.404  10.014   2.097  0.7141 -0.5951 -0.8330
  556MOL0     C74972   5.447   9.900   2.170  0.8605  0.7758 -0.4288
  556MOL0     O74973   5.593   9.639   2.156 -0.2249 -0.6324 -0.1458
  556MOL0     C74974   5.590   9.402   2.302  0.0627 -0.3858  0.0379
  556MOL0     C74975   5.620   9.300   2.391 -0.3788  0.3407 -1.2017
  556MOL0     N74976   5.994   8.656   2.567 -0.0533  0.1181  0.1417
  556MOL0     N74977   6.015   8.528   2.578 -0.0002  0.2100  0.4277
  556MOL0     C74978   5.414   7.964   2.444  0.7761  0.6639  0.7959
  556MOL0     C74979   5.366   7.999   2.575 -0.3444  0.4391  0.6637
  556MOL0     C74980   5.138   7.990   2.939  0.1023 -0.3017 -0.2849
  556MOL0     C74981   5.005   7.994   2.970  0.6857 -0.8307  0.2390
  556MOL0     C74982   4.966   8.045   3.093  0.4487  0.3534  1.4402
  556MOL0     C74983   5.051   8.079   3.193  0.1907  0.0425  0.9577
  556MOL0     O74984   5.025   8.105   3.322 -0.1981  0.3475 -0.6983
  556MOL0     C74985   4.911   8.187   3.342 -0.2990  1.3350 -0.7539
  556MOL0     C74986   4.885   8.196   3.498 -0.4725  0.0026 -0.3401
  556MOL0     C74987   4.798   8.308   3.540  0.7799 -1.0093 -0.8626
  556MOL0     C74988   4.654   8.269   3.529  0.1118  0.6179  0.1960
  556MOL0     C74989   4.602   8.259   3.398  0.2198  0.3505  1.5851
  556MOL0     C74990   4.566   8.259   3.280 -0.9995 -0.0744  0.5174
  556MOL0     C74991   5.183   8.067   3.162 -0.5669 -0.4613 -0.0051
  556MOL0     C74992   5.231   8.029   3.039  0.0254  0.4345  0.7637
  556MOL0     H74993   5.444   7.690   2.706 -0.2376 -0.5607 -0.3338
  556MOL0     H74994   5.519   7.649   2.468 -1.7828 -1.9119  3.2185
  556MOL0     H74995   5.560   7.609   2.244  0.6124  0.2861  2.5426
  556MOL0     H74996   5.563   7.730   2.118 -2.3853 -0.3660  0.5937
  556MOL0     H74997   5.751   7.684   2.356  0.2009 -0.5870 -0.1852
  556MOL0     H74998   5.792   7.679   2.201  1.1557  0.9787 -0.1021
  556MOL0     H74999   5.756   7.951   2.179  2.2832 -1.6510 -1.9692
  556MOL0     H75000   5.705   7.934   2.355 -0.3015  1.4191 -1.5037
  556MOL0     H75001   5.944   7.859   2.381 -0.4809  0.1633  0.1387
  556MOL0     H75002   5.970   7.878   2.211  0.3757  3.5106 -1.5486
  556MOL0     H75003   6.051   8.067   2.374  0.2313  0.0358  0.8309
  556MOL0     H75004   5.962   8.120   2.236  0.5902 -1.0977 -0.0470
  556MOL0     H75005   5.757   8.150   2.374 -2.0077 -0.5193  3.3128
  556MOL0     H75006   5.819   8.069   2.500 -2.0033  1.7744  0.1038
  556MOL0     H75007   6.009   8.281   2.440 -0.1152  0.2476 -0.1146
  556MOL0     H75008   5.864   8.361   2.392  1.8231  2.0266  1.8374
  556MOL0     H75009   5.962   8.283   2.673 -2.5446 -0.2520  2.5358
  556MOL0     H75010   5.787   8.275   2.619  0.5259 -0.9048 -0.1486
  556MOL0     H75011   5.684   8.547   2.619 -0.7646  1.8581  1.7093
  556MOL0     H75012   5.816   8.868   2.495  0.4796  0.1863 -1.2918
  556MOL0     H75013   5.688   8.809   2.597  0.6247 -0.5570 -3.5114
  556MOL0     H75014   5.961   8.897   2.712 -0.5323  0.1428  2.7999
  556MOL0     H75015   5.828   8.846   2.794 -2.5369  0.5135  0.0135
  556MOL0     H75016   5.863   9.103   2.768  1.1674 -0.6818  0.1108
  556MOL0     H75017   5.694   9.030   2.788 -0.2281  2.3625  0.8989
  556MOL0     H75018   5.670   9.042   2.538  1.5346  1.0430 -0.3218
  556MOL0     H75019   5.813   9.148   2.528  0.4596 -2.9873 -1.2659
  556MOL0     H75020   5.579   9.453   2.684  1.1956  0.0737 -0.3191
  556MOL0     H75021   5.551   9.660   2.677 -2.2803  0.9129  1.5372
  556MOL0     H75022   5.539   9.750   2.514 -0.0317 -1.6321 -2.1466
  556MOL0     H75023   5.403   9.669   2.590  0.3385 -0.9749  1.1100
  556MOL0     H75024   5.152   9.738   2.198 -0.7761  0.2369  2.0901
  556MOL0     H75025   5.072   9.947   2.061 -0.4147  1.7182  1.8771
  556MOL0     H75026   5.042  10.164   1.916 -0.6925 -2.4205 -0.2195
  556MOL0     H75027   5.066  10.162   2.093  0.1697 -1.0529 -1.6348
  556MOL0     H75028   5.179  10.374   1.909  0.3492  0.6751  1.4387
  556MOL0     H75029   5.014  10.388   1.988  0.1463  1.1308 -1.9306
  556MOL0     H75030   5.288  10.369   2.115  0.2523 -1.4399  0.2943
  556MOL0     H75031   5.136  10.344   2.208  0.0290 -1.8335 -1.2656
  556MOL0     H75032   5.222  10.601   2.033 -0.0341  0.1099 -0.9190
  556MOL0     H75033   5.061  10.583   2.116 -0.6049 -0.6297  0.1873
  556MOL0     H75034   5.203  10.584   2.324 -1.1004 -2.8029 -1.7365
  556MOL0     H75035   5.181  10.733   2.223  0.0246 -0.7096 -0.2087
  556MOL0     H75036   5.428  10.578   2.276 -4.4800 -0.8575  2.5137
  556MOL0     H75037   5.432  10.691   2.147  3.1023  1.1860  1.2551
  556MOL0     H75038   5.319  10.784   2.407  1.0234  2.3792  1.9902
  556MOL0     H75039   5.419  10.869   2.276  3.2449 -2.5097 -2.1277
  556MOL0     H75040   5.616  10.727   2.350  1.7643  2.5343  1.6716
  556MOL0     H75041   5.519  10.670   2.486 -1.2482  1.4131  1.8079
  556MOL0     H75042   5.478  10.088   2.071  4.4814 -3.8275 -0.1563
  556MOL0     H75043   5.554   9.885   2.182  1.2435  1.3510 -2.7134
  556MOL0     H75044   5.588   9.365   2.200 -1.5131  2.0586 -0.9166
  556MOL0     H75045   5.657   9.201   2.366  2.3134  0.9196  0.0733
  556MOL0     H75046   5.402   8.036   2.363  0.0953  1.0984  1.2764
  556MOL0     H75047   5.328   8.095   2.608 -1.6626  1.3510 -3.0089
  556MOL0     H75048   4.939   7.953   2.895  0.4174  0.9202 -0.5488
  556MOL0     H75049   4.859   8.043   3.111  0.0702  1.9917 -0.3419
  556MOL0     H75050   4.929   8.287   3.302 -0.3536  1.4396 -0.5146
  556MOL0     H75051   4.823   8.143   3.293  0.1622 -0.2413 -0.2453
  556MOL0     H75052   4.984   8.207   3.544  0.5674 -2.5670 -1.7416
  556MOL0     H75053   4.838   8.102   3.529 -1.3355  1.6440  4.0565
  556MOL0     H75054   4.819   8.399   3.483  0.2169  0.3683  1.0286
  556MOL0     H75055   4.824   8.336   3.642  3.1790  3.4456 -2.4001
  556MOL0     H75056   4.596   8.341   3.588 -1.1321  1.2810 -1.7268
  556MOL0     H75057   4.638   8.173   3.577  0.8953  0.1378 -0.4818
  556MOL0     H75058   4.551   8.252   3.174 -1.5874  0.6336  0.5451
  556MOL0     H75059   5.263   8.106   3.224  0.6479 -1.8612 -0.6559
  556MOL0     H75060   5.338   8.033   3.021 -0.5288  1.4195 -3.1280
  557MOL0     O75061   8.434   5.412   5.141  0.3773 -0.1857 -0.0840
  557MOL0     C75062   8.480   5.513   5.087  0.1854  0.6668  0.2309
  557MOL0     O75063   8.544   5.618   5.146 -0.1313 -0.6195 -0.6367
  557MOL0     C75064   8.567   5.609   5.284 -0.7963 -0.4716  0.5471
  557MOL0     C75065   8.481   5.554   5.381 -0.1191  0.7143 -0.2638
  557MOL0     C75066   8.497   5.577   5.524 -0.1280  0.2808 -0.5150
  557MOL0     C75067   8.592   5.664   5.572 -0.0420 -0.8919 -0.7069
  557MOL0     O75068   8.612   5.680   5.711  0.2566  0.1862  0.0471
  557MOL0     C75069   8.495   5.711   5.792  1.2357  0.5005  0.1432
  557MOL0     C75070   8.447   5.852   5.802  0.9099  0.8869 -0.2017
  557MOL0     C75071   8.326   5.858   5.901  0.5391 -0.2816 -0.5424
  557MOL0     C75072   8.240   5.987   5.885 -0.3186  0.5254 -0.4565
  557MOL0     C75073   8.111   5.967   5.959 -0.2498  0.4533  0.5283
  557MOL0     C75074   8.034   5.838   5.934  0.2285  0.3658  0.5588
  557MOL0     C75075   7.890   5.838   5.983  0.6550 -0.1880 -0.1099
  557MOL0     C75076   7.787   5.926   5.904 -0.1080  0.5841 -0.1921
  557MOL0     N75077   7.668   5.955   5.982 -0.1984 -0.2692  0.1079
  557MOL0     C75078   7.604   5.876   6.067  0.8567 -0.0101  0.0929
  557MOL0     C75079   7.515   5.950   6.137  0.2293  0.3261 -0.0064
  557MOL0     C75080   7.425   5.913   6.250 -0.0911 -0.0614 -0.2699
  557MOL0     C75081   7.506   5.892   6.381  0.4629 -1.5540 -0.4801
  557MOL0     C75082   7.582   6.020   6.422  0.4407  0.5590  0.1699
  557MOL0     C75083   7.627   5.998   6.566  0.7417  0.8498  0.4739
  557MOL0     O75084   7.733   5.910   6.575  0.2003 -0.9903 -0.1733
  557MOL0     C75085   7.740   5.831   6.689  0.2884  0.6557 -0.2502
  557MOL0     C75086   7.793   5.704   6.679 -0.5417 -0.1707 -0.3697
  557MOL0     C75087   7.805   5.621   6.793 -0.1777 -0.6832  0.3134
  557MOL0     C75088   7.863   5.495   6.764 -0.0413  0.4614 -0.0029
  557MOL0     C75089   7.759   5.661   6.925 -0.6381  0.1677 -0.1563
  557MOL0     C75090   7.751   5.575   7.043  0.2941  0.5779  0.0074
  557MOL0     O75091   7.775   5.631   7.163 -0.7860 -0.7858 -0.7116
  557MOL0     C75092   7.738   5.567   7.273 -0.2483 -1.0716 -0.5778
  557MOL0     C75093   7.673   5.644   7.371  0.9678  0.6095  1.0478
  557MOL0     C75094   7.659   5.603   7.507 -0.2865  0.1345  1.0760
  557MOL0     C75095   7.710   5.486   7.550 -0.7080  0.1773 -0.1810
  557MOL0     O75096   7.696   5.436   7.674 -1.0039 -0.2454 -0.2348
  557MOL0     C75097   7.572   5.464   7.742 -0.2991  0.1838 -0.4162
  557MOL0     C75098   7.555   5.405   7.878 -1.1399 -0.0643 -0.8170
  557MOL0     C75099   7.432   5.442   7.951  0.5713 -0.0227  0.9157
  557MOL0     C75100   7.415   5.369   8.072  0.7283  0.6598 -1.4089
  557MOL0     C75101   7.300   5.415   8.160  0.1883 -0.9153  0.6521
  557MOL0     C75102   7.299   5.567   8.190  0.1691  0.4218 -0.4848
  557MOL0     C75103   7.172   5.610   8.255  0.0137  0.0272 -0.5546
  557MOL0     C75104   7.138   5.754   8.240  0.6129 -0.3082 -0.2078
  557MOL0    Cl75105   7.094   5.794   8.070 -0.1199  0.6152  0.2708
  557MOL0     C75106   7.767   5.401   7.461 -0.7178  0.2859  0.5228
  557MOL0     C75107   7.777   5.440   7.323  0.1858 -0.8001 -0.6718
  557MOL0     O75108   7.724   5.455   7.033 -0.0091 -0.2453 -0.1996
  557MOL0     C75109   7.688   5.791   6.934  0.0433  0.0047  1.0386
  557MOL0     C75110   7.686   5.869   6.820  0.1562 -0.0373  0.2355
  557MOL0     N75111   7.542   6.084   6.116  0.8637 -0.6598  0.8826
  557MOL0     N75112   7.633   6.083   6.016 -0.8584  1.0709 -0.4160
  557MOL0     C75113   8.683   5.707   5.474 -0.2194  0.5193 -0.2126
  557MOL0     C75114   8.670   5.694   5.329 -0.3522  0.1386 -0.4848
  557MOL0     C75115   8.485   5.501   4.941  0.4867  0.6637 -0.0009
  557MOL0     C75116   8.452   5.380   4.876 -0.9026 -0.8091  0.0957
  557MOL0     C75117   8.455   5.363   4.740 -0.7977  0.6285  0.1627
  557MOL0     C75118   8.462   5.471   4.664 -0.3066 -0.8718  0.5936
  557MOL0     O75119   8.457   5.456   4.529  0.3708 -0.3024 -0.0818
  557MOL0     C75120   8.454   5.567   4.435  0.4159 -0.1094 -0.6483
  557MOL0     C75121   8.595   5.611   4.408 -0.4387  0.2987  0.3492
  557MOL0     C75122   8.702   5.493   4.450  0.3066  0.6684  0.9584
  557MOL0     C75123   8.680   5.383   4.342  0.5826 -0.6645 -0.0424
  557MOL0     C75124   8.737   5.253   4.363  0.9050 -0.7089  0.5152
  557MOL0     C75125   8.796   5.159   4.409 -0.5133  0.1471 -0.5452
  557MOL0     C75126   8.481   5.597   4.723 -0.1841 -0.6207 -0.2519
  557MOL0     C75127   8.494   5.617   4.857 -0.1975  0.1221  0.6280
  557MOL0     H75128   8.391   5.500   5.353  0.7612 -0.4202 -0.9873
  557MOL0     H75129   8.426   5.533   5.593  1.7599 -0.9811  0.7050
  557MOL0     H75130   8.417   5.637   5.775  0.6580  1.5251 -2.0632
  557MOL0     H75131   8.532   5.697   5.894  4.4010  1.1172 -0.8028
  557MOL0     H75132   8.519   5.924   5.843  2.4263 -0.0791 -1.0735
  557MOL0     H75133   8.429   5.876   5.697 -2.6539  0.9853  0.3188
  557MOL0     H75134   8.260   5.774   5.879  3.4346 -2.6446 -0.7968
  557MOL0     H75135   8.361   5.846   6.004  3.9913 -2.3534 -1.7675
  557MOL0     H75136   8.294   6.070   5.932  0.1015 -0.3384  0.6434
  557MOL0     H75137   8.219   6.003   5.779  0.8008  0.1466 -0.7495
  557MOL0     H75138   8.136   5.964   6.065 -0.7499  1.1164  0.6702
  557MOL0     H75139   8.054   6.054   5.926  0.6282 -0.3627 -3.6952
  557MOL0     H75140   8.032   5.816   5.827 -3.7737 -2.5327  0.9667
  557MOL0     H75141   8.094   5.766   5.989  2.1345  1.5351  0.0818
  557MOL0     H75142   7.860   5.733   5.988  1.8122 -0.6783 -2.1717
  557MOL0     H75143   7.898   5.879   6.084  0.6431  3.0420 -1.3233
  557MOL0     H75144   7.753   5.879   5.811 -0.7498  0.5956  0.0306
  557MOL0     H75145   7.831   6.022   5.875  0.0897  0.0355 -1.8112
  557MOL0     H75146   7.611   5.767   6.068  0.3239 -0.0573  1.5338
  557MOL0     H75147   7.354   5.993   6.273  0.7785 -0.1192  3.0998
  557MOL0     H75148   7.367   5.824   6.220  1.2787 -2.1715  2.7516
  557MOL0     H75149   7.568   5.802   6.387  3.2132  0.3038  2.2821
  557MOL0     H75150   7.442   5.880   6.469  2.0584  4.6439  2.0973
  557MOL0     H75151   7.513   6.105   6.418  1.0685  1.0555 -3.0547
  557MOL0     H75152   7.663   6.033   6.349 -0.6248 -3.3638 -1.9887
  557MOL0     H75153   7.542   5.968   6.628  1.6660 -1.2990  0.7964
  557MOL0     H75154   7.661   6.096   6.600 -0.3024  1.7908 -1.0773
  557MOL0     H75155   7.832   5.667   6.585 -0.0918  1.5481 -0.8990
  557MOL0     H75156   7.910   5.446   6.850  0.7463 -2.8281 -2.1133
  557MOL0     H75157   7.792   5.424   6.721  1.0567  0.7372 -2.3908
  557MOL0     H75158   7.957   5.513   6.711  1.4762  2.1325  2.9385
  557MOL0     H75159   7.653   5.743   7.331  1.2245 -0.7526 -2.8013
  557MOL0     H75160   7.608   5.680   7.565  0.8572  0.9776  1.0095
  557MOL0     H75161   7.563   5.570   7.768  0.5782 -0.2920  2.1469
  557MOL0     H75162   7.496   5.428   7.671 -1.6946  2.4676 -0.1949
  557MOL0     H75163   7.564   5.296   7.872 -4.2866 -0.3605 -2.5786
  557MOL0     H75164   7.642   5.438   7.935  0.1654 -1.0795 -2.1484
  557MOL0     H75165   7.338   5.427   7.898  1.2114 -1.5952  0.1738
  557MOL0     H75166   7.445   5.549   7.973  0.5826 -0.4358  3.1147
  557MOL0     H75167   7.408   5.260   8.066 -2.1678  0.6747  0.0298
  557MOL0     H75168   7.504   5.394   8.132 -1.8107  0.3655  2.8809
  557MOL0     H75169   7.326   5.369   8.256  2.7959  3.1307  2.1167
  557MOL0     H75170   7.203   5.383   8.121  0.0341  0.0693  0.1965
  557MOL0     H75171   7.387   5.599   8.246  1.4143 -0.6815 -1.7392
  557MOL0     H75172   7.291   5.613   8.091 -4.8569  0.6538 -0.2161
  557MOL0     H75173   7.184   5.570   8.356  0.9443  1.1245 -0.2112
  557MOL0     H75174   7.085   5.553   8.219  0.4321 -0.5583 -0.6436
  557MOL0     H75175   7.225   5.816   8.262 -1.6731  4.0187 -2.1068
  557MOL0     H75176   7.049   5.785   8.294  0.8305  2.9370 -1.4903
  557MOL0     H75177   7.809   5.301   7.476 -1.3326 -1.1424 -5.0304
  557MOL0     H75178   7.836   5.384   7.251 -0.5601 -1.3863 -0.8263
  557MOL0     H75179   7.634   5.828   7.020 -3.5905 -2.2337 -0.0486
  557MOL0     H75180   7.649   5.970   6.834  3.3343  0.9747  2.2901
  557MOL0     H75181   8.765   5.763   5.518  0.7507  0.4966 -1.9012
  557MOL0     H75182   8.750   5.743   5.275  0.8864  0.0052  1.1434
  557MOL0     H75183   8.452   5.288   4.934 -0.2668 -1.7438 -1.3334
  557MOL0     H75184   8.424   5.270   4.693  1.3582  1.2451 -2.7475
  557MOL0     H75185   8.414   5.552   4.334 -2.4530  2.7328 -0.0687
  557MOL0     H75186   8.387   5.650   4.458 -0.0802  0.0910 -2.6315
  557MOL0     H75187   8.635   5.694   4.467  5.2699 -2.2215  0.6577
  557MOL0     H75188   8.609   5.639   4.303 -2.0183  2.0018  0.5347
  557MOL0     H75189   8.683   5.448   4.547  3.0609 -2.3731  0.2408
  557MOL0     H75190   8.809   5.517   4.444 -0.0250  2.0176 -0.4383
  557MOL0     H75191   8.719   5.420   4.247  2.5171 -0.6610  0.7204
  557MOL0     H75192   8.572   5.368   4.336  0.0191  1.6665  2.1579
  557MOL0     H75193   8.861   5.084   4.449 -2.3210 -0.8866  0.5616
  557MOL0     H75194   8.497   5.684   4.660 -1.1976 -1.7915 -2.1946
  557MOL0     H75195   8.515   5.715   4.898 -2.1553  0.7714  0.2001
  558MOL0     O75196   7.650   9.780  10.916 -0.3469  0.0473  0.1871
  558MOL0     C75197   7.634   9.855  11.008  0.5511 -0.2657 -0.3917
  558MOL0     O75198   7.665   9.988  11.005  0.0372  0.7000  0.1397
  558MOL0     C75199   7.688  10.071  10.896  0.1377  0.5927 -0.4910
  558MOL0     C75200   7.757  10.188  10.924 -0.5307  0.9270 -0.7607
  558MOL0     C75201   7.790  10.274  10.820  0.1985  0.5757  0.3822
  558MOL0     C75202   7.729  10.254  10.694  0.6838 -0.1602 -0.6182
  558MOL0     O75203   7.752  10.355  10.604  0.6715  0.2526  0.0741
  558MOL0     C75204   7.843  10.323  10.490  0.2444  0.4743 -0.2761
  558MOL0     C75205   7.771  10.370  10.363 -0.9669  0.2766 -0.5837
  558MOL0     C75206   7.863  10.350  10.238 -0.3480 -0.2059  0.7473
  558MOL0     C75207   8.000  10.427  10.241  0.4165  0.6085 -0.0716
  558MOL0     C75208   8.072  10.422  10.106  0.0459  0.8991  0.4200
  558MOL0     C75209   8.183  10.524  10.102  0.0587  0.2644 -0.4709
  558MOL0     C75210   8.240  10.549   9.960 -0.5180  0.0089 -0.3209
  558MOL0     C75211   8.343  10.667   9.959  0.3243 -0.7925  0.8253
  558MOL0     N75212   8.460  10.631  10.037 -0.2770 -0.8656 -1.3008
  558MOL0     C75213   8.537  10.524   9.995  0.4874 -0.6110 -0.3014
  558MOL0     C75214   8.658  10.552  10.052 -0.5112  0.1978  0.2253
  558MOL0     C75215   8.772  10.455  10.035 -0.2107 -0.1698 -0.3432
  558MOL0     C75216   8.888  10.516   9.945  0.2687  0.0481 -0.4182
  558MOL0     C75217   9.000  10.411   9.919  0.4848 -0.5644 -0.3488
  558MOL0     C75218   9.087  10.381  10.040 -0.0427 -0.3576 -1.1500
  558MOL0     O75219   9.191  10.286  10.013  0.0751 -0.3906  0.2969
  558MOL0     C75220   9.171  10.159  10.044  0.4712  0.6037  0.8703
  558MOL0     C75221   9.284  10.085  10.065 -0.8855  0.5227 -0.4214
  558MOL0     C75222   9.283   9.951  10.120 -0.3922  0.2855  0.6118
  558MOL0     C75223   9.418   9.900  10.144  0.0959 -0.0475  0.0834
  558MOL0     C75224   9.158   9.889  10.127 -0.3707 -0.2483  1.1155
  558MOL0     C75225   9.140   9.749  10.162 -0.3028 -0.3013  0.0442
  558MOL0     O75226   9.194   9.697  10.271 -1.0284  0.3880  0.2580
  558MOL0     C75227   9.171   9.560  10.301 -0.7635 -0.4051  0.3119
  558MOL0     C75228   9.107   9.520  10.422 -1.0146  0.4928  0.8858
  558MOL0     C75229   9.094   9.382  10.460 -0.8702  0.2497 -0.9082
  558MOL0     C75230   9.149   9.279  10.385 -0.6569  0.1805 -0.7409
  558MOL0     O75231   9.135   9.154  10.425  0.5840  0.1260 -0.3817
  558MOL0     C75232   9.152   9.035  10.345  0.0485  0.3363 -0.5642
  558MOL0     C75233   9.110   8.911  10.423 -0.3450  1.2396  0.1777
  558MOL0     C75234   9.090   8.791  10.334  0.3910  0.9944 -0.2221
  558MOL0     C75235   8.944   8.733  10.323 -0.2841  0.0361  1.3669
  558MOL0     C75236   8.863   8.819  10.223  0.1090 -0.1548 -0.4642
  558MOL0     C75237   8.734   8.745  10.198 -0.1176  0.1527  0.0778
  558MOL0     C75238   8.631   8.839  10.136  0.0345 -0.0872 -0.9572
  558MOL0     C75239   8.561   8.766  10.016 -0.1178 -0.5496  0.5519
  558MOL0    Cl75240   8.413   8.886   9.959 -0.2603 -0.2319  0.2984
  558MOL0     C75241   9.216   9.314  10.261  0.0913 -0.3497 -0.2489
  558MOL0     C75242   9.232   9.454  10.217  0.0568 -0.5113 -0.7153
  558MOL0     O75243   9.057   9.683  10.096 -0.1370 -0.9510  0.3886
  558MOL0     C75244   9.043   9.966  10.097 -1.1904 -0.2830 -0.6600
  558MOL0     C75245   9.049  10.094  10.060 -0.3115 -0.4097  0.6204
  558MOL0     N75246   8.652  10.665  10.141 -0.8699  0.6511  0.6233
  558MOL0     N75247   8.537  10.712  10.126 -0.2469 -0.0314 -0.1032
  558MOL0     C75248   7.656  10.144  10.663  0.0208 -0.1229 -0.4128
  558MOL0     C75249   7.642  10.046  10.765 -0.1601 -0.5300  0.8856
  558MOL0     C75250   7.600   9.804  11.145 -0.1281  0.6587  0.1918
  558MOL0     C75251   7.567   9.889  11.264 -0.3864  0.0411  0.7319
  558MOL0     C75252   7.546   9.820  11.386  1.7653  0.4474  0.8211
  558MOL0     C75253   7.559   9.679  11.399  0.0712  0.0227  0.6962
  558MOL0     O75254   7.572   9.618  11.522 -0.1819 -0.3780  0.7485
  558MOL0     C75255   7.525   9.688  11.644 -0.1846 -0.1464  0.6621
  558MOL0     C75256   7.524   9.599  11.762 -0.0771 -0.3091  0.2967
  558MOL0     C75257   7.664   9.530  11.781  0.7905  0.3982  0.6053
  558MOL0     C75258   7.742   9.599  11.898  0.8768 -0.3443  0.2583
  558MOL0     C75259   7.883   9.568  11.889  0.6051  0.3088  0.4455
  558MOL0     C75260   8.001   9.541  11.878  0.4178  0.6580  0.4030
  558MOL0     C75261   7.572   9.600  11.284  0.2675  0.1640 -0.4010
  558MOL0     C75262   7.601   9.667  11.160 -0.4989  0.7466  0.3967
  558MOL0     H75263   7.790  10.210  11.025 -1.6320  2.1200 -0.6345
  558MOL0     H75264   7.853  10.360  10.842 -1.0875  0.7938  3.7813
  558MOL0     H75265   7.934  10.381  10.508  0.0865  0.4055  0.8031
  558MOL0     H75266   7.865  10.216  10.479 -2.1712 -0.3165  1.6448
  558MOL0     H75267   7.683  10.305  10.351  0.2518 -1.3288 -1.2017
  558MOL0     H75268   7.758  10.477  10.379  0.4874  0.5237 -1.0089
  558MOL0     H75269   7.874  10.243  10.223  2.6101  0.0413  0.6452
  558MOL0     H75270   7.805  10.375  10.148 -4.3666  1.0426  3.4118
  558MOL0     H75271   7.988  10.524  10.289 -1.2949 -0.1286  1.0873
  558MOL0     H75272   8.054  10.363  10.311 -2.6431  1.0022  2.9336
  558MOL0     H75273   8.119  10.326  10.082  2.2452  2.1471 -0.5916
  558MOL0     H75274   8.001  10.444  10.026 -1.1610  0.6995  1.4050
  558MOL0     H75275   8.143  10.617  10.143 -0.6993 -0.8341  1.4053
  558MOL0     H75276   8.264  10.481  10.163 -2.4261 -3.8401  0.3590
  558MOL0     H75277   8.281  10.458   9.915  0.5619 -2.2498  4.6242
  558MOL0     H75278   8.161  10.560   9.884  2.4637 -1.3752 -3.9226
  558MOL0     H75279   8.296  10.754  10.007  1.3571 -1.9296  4.2421
  558MOL0     H75280   8.373  10.701   9.860 -1.3435 -0.0586  0.5340
  558MOL0     H75281   8.513  10.440   9.932 -1.3715 -0.5970  0.3114
  558MOL0     H75282   8.808  10.419  10.131 -3.5374 -3.1006  0.0000
  558MOL0     H75283   8.750  10.369   9.971  1.6670  0.2714 -1.6879
  558MOL0     H75284   8.925  10.607   9.993 -0.9863 -1.6112  4.2897
  558MOL0     H75285   8.840  10.550   9.853 -0.9700  0.1900  0.2597
  558MOL0     H75286   9.068  10.452   9.843  0.7314  3.0413  1.6330
  558MOL0     H75287   8.954  10.315   9.894 -0.0590 -1.0264  2.2381
  558MOL0     H75288   9.034  10.357  10.133 -0.7734 -1.6273 -1.8674
  558MOL0     H75289   9.137  10.473  10.074  0.2291 -0.9342  0.0633
  558MOL0     H75290   9.378  10.125  10.030  0.6333 -1.7438  0.8461
  558MOL0     H75291   9.479   9.966  10.206  3.8107 -1.6763 -1.4924
  558MOL0     H75292   9.417   9.800  10.188 -0.5410  1.2541  3.2636
  558MOL0     H75293   9.468   9.881  10.048  1.1038 -0.3669  0.6504
  558MOL0     H75294   9.053   9.602  10.468  0.2567  1.0785  1.3869
  558MOL0     H75295   9.047   9.348  10.552  2.3533 -2.2627 -0.0044
  558MOL0     H75296   9.100   9.036  10.249 -0.0701 -0.2662 -0.5070
  558MOL0     H75297   9.256   9.019  10.317 -0.3910  0.0274 -2.1359
  558MOL0     H75298   9.192   8.906  10.496  0.8254 -1.0540 -1.2109
  558MOL0     H75299   9.016   8.925  10.476  0.2581 -1.2738  2.1067
  558MOL0     H75300   9.148   8.708  10.377 -2.3978 -0.6368  0.6508
  558MOL0     H75301   9.134   8.809  10.235  1.4701  0.9102  0.2299
  558MOL0     H75302   8.950   8.633  10.279  1.1167  0.8345 -0.4454
  558MOL0     H75303   8.891   8.725  10.418 -2.2914 -3.4563  0.1285
  558MOL0     H75304   8.919   8.826  10.129  0.6002  1.3369 -0.0831
  558MOL0     H75305   8.842   8.921  10.253  1.3480 -0.5559  2.0422
  558MOL0     H75306   8.766   8.661  10.136  3.5238  1.2855  0.1312
  558MOL0     H75307   8.676   8.703  10.280  0.0587 -1.2581 -0.4938
  558MOL0     H75308   8.675   8.931  10.096 -0.3456 -0.0296 -1.2558
  558MOL0     H75309   8.560   8.871  10.213  1.7311  0.2790  0.5052
  558MOL0     H75310   8.523   8.666  10.041  0.2956 -1.0535 -0.7304
  558MOL0     H75311   8.624   8.744   9.929 -0.7525 -0.6429  0.1060
  558MOL0     H75312   9.220   9.226  10.198  3.8535  0.7196 -1.7774
  558MOL0     H75313   9.265   9.471  10.115  3.3280 -0.1748  0.2911
  558MOL0     H75314   8.949   9.916  10.116 -0.3969 -1.1101  1.3545
  558MOL0     H75315   8.959  10.147  10.032  1.6876  1.9547 -1.8954
  558MOL0     H75316   7.608  10.140  10.565  2.2137 -2.4537 -1.5216
  558MOL0     H75317   7.596   9.951  10.742  2.0096 -1.2888 -0.6276
  558MOL0     H75318   7.563   9.997  11.251  1.2684 -0.1891 -2.8586
  558MOL0     H75319   7.527   9.884  11.471 -0.3808  1.5688 -0.4133
  558MOL0     H75320   7.592   9.772  11.664  1.8066 -1.4190 -0.3232
  558MOL0     H75321   7.423   9.726  11.633 -0.8821 -2.4730 -2.2038
  558MOL0     H75322   7.444   9.524  11.758  0.8527 -1.2862 -2.7574
  558MOL0     H75323   7.516   9.664  11.849 -0.0914  0.6907 -0.4404
  558MOL0     H75324   7.718   9.522  11.687 -1.6969  0.4901 -0.9176
  558MOL0     H75325   7.664   9.427  11.820  1.4508  1.2058  2.9221
  558MOL0     H75326   7.704   9.564  11.995 -2.7752  1.5867 -0.3087
  558MOL0     H75327   7.732   9.708  11.900  2.0926 -0.1541 -1.4872
  558MOL0     H75328   8.103   9.517  11.857 -0.7169 -1.7276 -3.2565
  558MOL0     H75329   7.575   9.492  11.292 -0.8131 -0.0580 -2.4951
  558MOL0     H75330   7.616   9.602  11.074  1.1275  1.2589  0.2695
  559MOL0     O75331   3.336   5.446  11.156  0.8152  0.2692  0.5876
  559MOL0     C75332   3.218   5.430  11.185 -0.0968  0.1059  0.2409
  559MOL0     O75333   3.149   5.308  11.215 -0.4504 -0.0132  0.1522
  559MOL0     C75334   3.247   5.212  11.257  0.4391 -0.0615  0.8800
  559MOL0     C75335   3.232   5.164  11.386  1.7210 -0.4323 -0.5269
  559MOL0     C75336   3.319   5.072  11.444 -0.4744  0.1795 -0.7332
  559MOL0     C75337   3.419   5.020  11.368  0.3111 -0.2225  0.1503
  559MOL0     O75338   3.487   4.905  11.409 -0.6657  0.4442  1.0982
  559MOL0     C75339   3.561   4.829  11.309  0.1967 -0.1778 -0.2447
  559MOL0     C75340   3.499   4.746  11.205  0.0260  0.8500  0.8493
  559MOL0     C75341   3.593   4.658  11.121 -0.0223 -0.3703  0.9327
  559MOL0     C75342   3.516   4.528  11.077  0.2257 -0.2142 -0.1675
  559MOL0     C75343   3.593   4.429  10.984 -0.0819  0.3323 -0.1527
  559MOL0     C75344   3.685   4.329  11.037 -0.0470  0.6804  0.0205
  559MOL0     C75345   3.706   4.205  10.939  0.0561  0.3435  0.5666
  559MOL0     C75346   3.755   4.242  10.807  0.2422  0.2781  0.0259
  559MOL0     N75347   3.782   4.128  10.724  1.0711  0.9518  1.0360
  559MOL0     C75348   3.701   4.078  10.623  0.1719  1.3183 -0.0727
  559MOL0     C75349   3.763   3.967  10.584 -0.3478  0.2478  0.1097
  559MOL0     C75350   3.687   3.878  10.493 -0.3540 -0.6889  0.0631
  559MOL0     C75351   3.621   3.744  10.568 -0.2326 -1.2228  0.1584
  559MOL0     C75352   3.571   3.641  10.475  0.7397 -0.5042  0.7991
  559MOL0     C75353   3.684   3.552  10.417 -0.0980  0.5786 -0.4915
  559MOL0     O75354   3.717   3.437  10.503  0.1270 -0.3834  0.0676
  559MOL0     C75355   3.845   3.429  10.540 -0.7447 -0.0119 -0.9946
  559MOL0     C75356   3.929   3.361  10.453 -0.0987  0.4237  0.5414
  559MOL0     C75357   4.067   3.357  10.469 -0.3544  0.3256 -0.1067
  559MOL0     C75358   4.142   3.278  10.365 -0.6121  0.3191 -0.0318
  559MOL0     C75359   4.122   3.396  10.592  0.4959 -1.1523 -0.2132
  559MOL0     C75360   4.264   3.389  10.634  0.9719  0.5779 -0.4955
  559MOL0     O75361   4.300   3.489  10.717  0.4295 -0.4559  0.5558
  559MOL0     C75362   4.423   3.498  10.769 -0.1338 -0.6954 -0.8378
  559MOL0     C75363   4.479   3.627  10.765 -0.4520  0.1604 -0.2837
  559MOL0     C75364   4.600   3.651  10.834  0.8226  0.4671  0.6090
  559MOL0     C75365   4.665   3.539  10.893  0.2466  0.6456  0.1184
  559MOL0     O75366   4.789   3.565  10.933  0.2662  0.0716 -0.1709
  559MOL0     C75367   4.900   3.515  10.858 -0.1051  0.7210  0.3353
  559MOL0     C75368   5.037   3.567  10.880 -0.3727 -0.1481  0.6479
  559MOL0     C75369   5.111   3.506  10.999  0.5339  0.5155 -0.7242
  559MOL0     C75370   5.019   3.528  11.114  0.4166 -0.5347 -0.6679
  559MOL0     C75371   5.093   3.507  11.249 -0.2965 -0.1343 -0.3128
  559MOL0     C75372   5.119   3.363  11.288  0.2232 -0.5577 -0.4039
  559MOL0     C75373   4.999   3.275  11.325  0.3958 -0.0984 -0.2835
  559MOL0     C75374   5.015   3.116  11.327  0.1418  0.0768 -0.1891
  559MOL0    Cl75375   5.050   3.064  11.169  0.2127 -0.4034  0.1849
  559MOL0     C75376   4.613   3.411  10.898 -0.2510 -0.1424 -0.2612
  559MOL0     C75377   4.489   3.393  10.842 -0.5566 -0.4307 -0.1871
  559MOL0     O75378   4.331   3.295  10.599  0.3683 -0.4464 -0.2625
  559MOL0     C75379   4.037   3.453  10.687  0.7813  0.4054  0.8891
  559MOL0     C75380   3.901   3.481  10.656  0.0916 -1.2956  0.5825
  559MOL0     N75381   3.878   3.950  10.658 -0.2644  0.8254 -0.0253
  559MOL0     N75382   3.886   4.046  10.741  0.1826 -0.2445 -0.0545
  559MOL0     C75383   3.427   5.068  11.234 -0.4299  0.4934 -0.2061
  559MOL0     C75384   3.346   5.158  11.173  0.1591 -0.1849 -0.8277
  559MOL0     C75385   3.129   5.550  11.180  0.4292 -0.6040 -0.3496
  559MOL0     C75386   2.984   5.539  11.194  0.5386 -0.1129 -0.4410
  559MOL0     C75387   2.911   5.660  11.185  0.7539  0.0509  0.5794
  559MOL0     C75388   2.967   5.777  11.144 -0.8657 -0.4551 -0.1965
  559MOL0     O75389   2.872   5.877  11.126  0.1502 -0.0978  0.1951
  559MOL0     C75390   2.910   6.003  11.062  0.1415 -0.2980  0.4989
  559MOL0     C75391   2.797   6.106  11.018  0.3783  1.5389  0.1288
  559MOL0     C75392   2.693   6.041  10.933  0.7407 -0.0366 -0.2608
  559MOL0     C75393   2.584   5.959  10.998 -0.7615  0.0397 -0.0461
  559MOL0     C75394   2.515   5.882  10.899 -0.1711  0.0070  0.6594
  559MOL0     C75395   2.456   5.808  10.823  0.0235 -0.3284  0.3053
  559MOL0     C75396   3.114   5.790  11.131  0.2935 -0.1873 -0.8940
  559MOL0     C75397   3.190   5.678  11.141 -0.2658  0.4869 -0.0094
  559MOL0     H75398   3.151   5.204  11.445  0.0013 -0.3281 -2.8087
  559MOL0     H75399   3.326   5.038  11.547  5.0578 -0.9908 -1.1933
  559MOL0     H75400   3.628   4.905  11.268 -0.9836  2.9436  3.0605
  559MOL0     H75401   3.628   4.759  11.360 -0.5140 -2.3442 -2.1427
  559MOL0     H75402   3.428   4.679  11.255 -0.0840 -2.4362 -3.1551
  559MOL0     H75403   3.446   4.811  11.134  0.7697  2.9467  2.1294
  559MOL0     H75404   3.634   4.714  11.037 -0.7599  0.6506  1.2335
  559MOL0     H75405   3.687   4.628  11.169  1.4516  1.8613 -0.3735
  559MOL0     H75406   3.495   4.469  11.167  2.5704  0.8197  1.1216
  559MOL0     H75407   3.428   4.567  11.024  0.6376  1.4114  0.2940
  559MOL0     H75408   3.517   4.358  10.950  0.0915 -1.3902  2.7609
  559MOL0     H75409   3.627   4.480  10.893 -1.0687  0.0883 -0.6784
  559MOL0     H75410   3.778   4.375  11.072  1.4842 -1.7425 -0.5259
  559MOL0     H75411   3.648   4.287  11.130  1.6148 -2.2133 -0.4843
  559MOL0     H75412   3.783   4.139  10.981  1.9051  2.2644  0.3293
  559MOL0     H75413   3.616   4.144  10.927  1.2781 -1.1300 -1.9241
  559MOL0     H75414   3.847   4.299  10.826  2.0185 -1.6952 -2.1036
  559MOL0     H75415   3.689   4.311  10.754  1.9015  1.6379 -0.3767
  559MOL0     H75416   3.608   4.122  10.588 -1.0696  0.3262  1.8314
  559MOL0     H75417   3.613   3.948  10.451  1.5994 -0.3636 -3.1891
  559MOL0     H75418   3.746   3.826  10.417 -0.8104 -2.7685  1.0838
  559MOL0     H75419   3.538   3.764  10.636 -0.4332 -0.1048 -0.3950
  559MOL0     H75420   3.703   3.693  10.621 -1.7152 -4.7518 -0.6549
  559MOL0     H75421   3.511   3.696  10.402  4.2690 -0.2659 -2.1773
  559MOL0     H75422   3.502   3.569  10.520  0.4163 -1.3956 -1.0347
  559MOL0     H75423   3.769   3.609  10.378 -1.9362  2.8299 -1.4740
  559MOL0     H75424   3.635   3.514  10.327  2.4097  0.4499 -1.8826
  559MOL0     H75425   3.887   3.344  10.354 -0.5868 -3.5990  1.2636
  559MOL0     H75426   4.185   3.187  10.407 -0.9742 -1.0865 -2.4825
  559MOL0     H75427   4.070   3.251  10.286  0.3898 -1.1106 -0.4889
  559MOL0     H75428   4.214   3.336  10.305 -0.2068 -1.7963 -1.7078
  559MOL0     H75429   4.415   3.707  10.727 -0.4527 -1.0472 -3.0470
  559MOL0     H75430   4.647   3.748  10.837  0.2256  0.7711  0.3285
  559MOL0     H75431   4.893   3.406  10.864  0.9759  0.6096 -0.2562
  559MOL0     H75432   4.879   3.524  10.751 -0.5425  1.6598  0.4907
  559MOL0     H75433   5.100   3.545  10.793  1.2226  0.5583  1.5812
  559MOL0     H75434   5.037   3.676  10.881  0.2171 -0.1494  1.3176
  559MOL0     H75435   5.208   3.554  11.010  1.7122 -1.8906  0.0174
  559MOL0     H75436   5.128   3.399  10.982 -0.3063 -0.2279  2.4539
  559MOL0     H75437   4.968   3.624  11.104  1.3014 -0.0835 -1.0224
  559MOL0     H75438   4.934   3.461  11.125  2.2890 -2.8237  0.9594
  559MOL0     H75439   5.027   3.562  11.317 -0.9938  0.8220 -1.7168
  559MOL0     H75440   5.188   3.560  11.243 -0.8259  0.8691 -0.1044
  559MOL0     H75441   5.170   3.324  11.200  1.3002 -0.0828 -0.0116
  559MOL0     H75442   5.196   3.379  11.365  0.1806  1.0252 -0.6437
  559MOL0     H75443   4.910   3.302  11.267  1.3895  1.1949 -1.2740
  559MOL0     H75444   4.975   3.298  11.430  2.9015  1.4921  0.0253
  559MOL0     H75445   4.927   3.064  11.364  1.5101 -1.5261  0.9444
  559MOL0     H75446   5.092   3.088  11.399 -0.2330 -0.7827 -0.1150
  559MOL0     H75447   4.669   3.335  10.952 -0.4009  0.1513  0.3207
  559MOL0     H75448   4.444   3.295  10.853 -0.6720 -0.1532  2.1672
  559MOL0     H75449   4.058   3.490  10.787 -0.6137  2.3630  0.5038
  559MOL0     H75450   3.828   3.530  10.720  2.2619 -0.2870  2.4237
  559MOL0     H75451   3.500   5.033  11.162 -1.0820  0.5668 -0.9153
  559MOL0     H75452   3.360   5.210  11.079 -0.7875  0.2312 -0.7520
  559MOL0     H75453   2.925   5.450  11.213  1.4586 -0.2971  1.8576
  559MOL0     H75454   2.804   5.658  11.204  0.8971  0.1967  1.4354
  559MOL0     H75455   2.971   6.053  11.138 -3.7094  2.3726  2.1894
  559MOL0     H75456   2.960   5.974  10.969 -1.2501 -0.6875 -0.1663
  559MOL0     H75457   2.839   6.199  10.979  1.4506  1.4676  1.0325
  559MOL0     H75458   2.760   6.130  11.119 -1.3140  1.5117 -0.4587
  559MOL0     H75459   2.739   5.974  10.860 -1.3555  0.6769 -2.3791
  559MOL0     H75460   2.644   6.123  10.880  3.0348  1.0228 -0.8941
  559MOL0     H75461   2.523   6.012  11.071  1.6008  0.8149  1.4701
  559MOL0     H75462   2.640   5.880  11.048  1.4282  1.5574  0.0229
  559MOL0     H75463   2.414   5.733  10.758  0.0029 -0.9665  1.0433
  559MOL0     H75464   3.161   5.884  11.107  0.0455  0.7071  1.8252
  559MOL0     H75465   3.297   5.690  11.125 -0.2838 -1.9248 -2.7008
  560MOL0     O75466   1.884   5.081   2.187 -0.2488 -0.2905  0.2654
  560MOL0     C75467   1.945   5.003   2.107  0.8149 -0.4718 -0.7699
  560MOL0     O75468   1.969   4.879   2.136  0.4476 -0.0325  0.9530
  560MOL0     C75469   1.917   4.797   2.232  0.3046 -0.2904 -0.2235
  560MOL0     C75470   1.976   4.674   2.228  0.0920 -0.8761 -0.0345
  560MOL0     C75471   1.936   4.574   2.325  0.5784 -1.3399  0.2300
  560MOL0     C75472   1.843   4.609   2.421  0.9292  0.3991 -0.8277
  560MOL0     O75473   1.807   4.496   2.508  1.0864 -0.2878  0.7576
  560MOL0     C75474   1.677   4.488   2.578  0.4390  0.0830 -0.3403
  560MOL0     C75475   1.674   4.390   2.693  0.2108 -0.4890 -0.6802
  560MOL0     C75476   1.774   4.437   2.803  0.7749 -0.1788  0.6816
  560MOL0     C75477   1.724   4.425   2.947 -0.4842 -0.5528 -0.6456
  560MOL0     C75478   1.834   4.446   3.058 -0.0025 -0.2193 -0.4152
  560MOL0     C75479   1.903   4.581   3.058 -0.4474  0.1169 -0.6475
  560MOL0     C75480   2.026   4.593   3.145  0.6833  0.1810  0.3744
  560MOL0     C75481   2.036   4.738   3.201  1.3538  0.0319  1.2215
  560MOL0     N75482   2.170   4.775   3.245 -0.6908  0.2020 -0.1562
  560MOL0     C75483   2.204   4.774   3.382 -0.1718 -0.0942 -0.7267
  560MOL0     C75484   2.342   4.780   3.388  0.1987  0.8124 -0.5290
  560MOL0     C75485   2.433   4.783   3.502 -0.5644 -0.5646  0.3241
  560MOL0     C75486   2.515   4.660   3.528  0.1986  0.3591 -0.0883
  560MOL0     C75487   2.427   4.549   3.592 -0.3634  1.2048  0.1659
  560MOL0     C75488   2.304   4.498   3.514 -0.3987  0.5849 -0.2523
  560MOL0     O75489   2.199   4.540   3.596  1.2409  0.5023 -0.1713
  560MOL0     C75490   2.079   4.467   3.611  0.6092  0.4596  0.5814
  560MOL0     C75491   2.047   4.364   3.519 -0.3941 -0.3061 -0.5468
  560MOL0     C75492   1.924   4.294   3.522 -0.8528 -0.1300  0.7686
  560MOL0     C75493   1.906   4.193   3.408 -0.5081 -0.6182  0.7023
  560MOL0     C75494   1.828   4.330   3.620 -0.1601 -1.1298  1.2567
  560MOL0     C75495   1.696   4.258   3.645 -0.0309  0.7423  0.1289
  560MOL0     O75496   1.596   4.334   3.699 -0.2738  0.5335  0.4717
  560MOL0     C75497   1.478   4.275   3.725  0.0947  0.4399  1.7675
  560MOL0     C75498   1.383   4.278   3.626 -0.7966 -0.8319 -0.4896
  560MOL0     C75499   1.255   4.247   3.655  0.1185  1.4358 -0.2659
  560MOL0     C75500   1.220   4.217   3.782 -0.7703  0.2322 -0.0219
  560MOL0     O75501   1.095   4.198   3.845  0.9116 -0.2386  0.2971
  560MOL0     C75502   0.985   4.287   3.794  0.5375  0.5820 -0.1509
  560MOL0     C75503   0.932   4.376   3.912 -0.6579  0.3324 -0.9787
  560MOL0     C75504   1.041   4.466   3.982 -0.5054  0.2230  0.4000
  560MOL0     C75505   1.128   4.551   3.889 -0.9908 -0.2309 -0.1275
  560MOL0     C75506   1.159   4.679   3.962 -1.3489  0.2068 -0.2184
  560MOL0     C75507   1.263   4.681   4.078 -0.6000  0.3944 -0.1374
  560MOL0     C75508   1.326   4.828   4.087 -0.0417  0.9598 -1.0487
  560MOL0     C75509   1.382   4.845   4.233  1.6287 -1.3453 -0.4282
  560MOL0    Cl75510   1.390   5.019   4.235  0.1648 -0.5039  0.0638
  560MOL0     C75511   1.319   4.182   3.874 -0.2249  0.4974 -1.0973
  560MOL0     C75512   1.446   4.227   3.853 -0.2251 -0.4122  0.0738
  560MOL0     O75513   1.689   4.133   3.642 -1.2068 -0.3379 -0.4098
  560MOL0     C75514   1.861   4.434   3.704 -0.3854  0.0184  0.3333
  560MOL0     C75515   1.985   4.501   3.705 -0.5015  1.3286  0.3695
  560MOL0     N75516   2.379   4.782   3.255 -0.5866 -0.1345  0.5789
  560MOL0     N75517   2.282   4.790   3.175  0.5458  0.9575  1.3793
  560MOL0     C75518   1.775   4.738   2.420  0.1335  0.3251  0.3506
  560MOL0     C75519   1.821   4.827   2.333  0.4083  1.0609  0.8101
  560MOL0     C75520   1.984   5.051   1.973  0.6961 -0.1216  0.7022
  560MOL0     C75521   2.108   5.005   1.932  0.7570 -0.3450 -0.0441
  560MOL0     C75522   2.160   5.050   1.809 -0.0878 -0.5913  0.0421
  560MOL0     C75523   2.081   5.123   1.721  0.7547  0.1384 -0.0010
  560MOL0     O75524   2.123   5.157   1.600  0.3783 -0.2956 -0.5869
  560MOL0     C75525   2.194   5.278   1.593  0.3801  0.3565  0.3107
  560MOL0     C75526   2.296   5.290   1.478 -0.1345  0.2622  0.7458
  560MOL0     C75527   2.424   5.217   1.525  1.2203  0.3479 -0.9953
  560MOL0     C75528   2.532   5.230   1.423  0.4612  0.0475 -0.5013
  560MOL0     C75529   2.495   5.193   1.285 -0.4580  0.3376 -0.7865
  560MOL0     C75530   2.467   5.176   1.164  0.8047  0.4023  0.3341
  560MOL0     C75531   1.953   5.167   1.766  0.6783  0.9438  0.5181
  560MOL0     C75532   1.907   5.136   1.895 -0.4955  0.0578  0.9212
  560MOL0     H75533   2.061   4.645   2.166  0.4655 -0.3093  0.1995
  560MOL0     H75534   1.984   4.477   2.326 -0.1377 -1.7298  2.1643
  560MOL0     H75535   1.650   4.586   2.617  1.0012 -0.7725  2.4453
  560MOL0     H75536   1.595   4.467   2.509 -0.2258  1.6522 -0.0649
  560MOL0     H75537   1.575   4.380   2.738  0.2779  1.1627 -0.0684
  560MOL0     H75538   1.712   4.294   2.658  0.7106  0.0207 -1.5783
  560MOL0     H75539   1.859   4.368   2.804  1.0070  0.1059  1.1321
  560MOL0     H75540   1.807   4.537   2.775 -3.1608  1.3753  0.9594
  560MOL0     H75541   1.654   4.510   2.950  2.1424  1.7129  0.5990
  560MOL0     H75542   1.669   4.332   2.958 -0.1125 -0.7972 -0.8439
  560MOL0     H75543   1.791   4.433   3.158  3.5597  4.1628  2.0886
  560MOL0     H75544   1.908   4.366   3.047  0.5820  0.2395  0.1076
  560MOL0     H75545   1.930   4.601   2.954 -3.2692 -0.4005 -1.5844
  560MOL0     H75546   1.838   4.669   3.072 -0.3536 -0.0832  1.4744
  560MOL0     H75547   2.011   4.528   3.232  1.3943 -0.1482  0.2572
  560MOL0     H75548   2.118   4.570   3.092  0.2403 -0.7847 -0.0024
  560MOL0     H75549   1.949   4.753   3.265 -0.3676  0.4213 -1.0977
  560MOL0     H75550   2.019   4.802   3.114  0.1859  1.2048  2.2681
  560MOL0     H75551   2.136   4.764   3.465 -1.5183  1.0940 -1.6560
  560MOL0     H75552   2.502   4.868   3.502 -0.2497 -0.8043  1.6268
  560MOL0     H75553   2.370   4.808   3.587  2.0295  0.9838  1.9416
  560MOL0     H75554   2.590   4.691   3.602  0.5920 -3.0651  1.1585
  560MOL0     H75555   2.579   4.618   3.450 -1.1093 -2.0725  0.0449
  560MOL0     H75556   2.405   4.563   3.698  0.1083  2.0620  0.1555
  560MOL0     H75557   2.506   4.473   3.596 -0.1007  1.5136  2.4365
  560MOL0     H75558   2.317   4.389   3.512 -1.2885  0.4744 -0.3693
  560MOL0     H75559   2.309   4.533   3.410  0.0192  0.9722 -0.1031
  560MOL0     H75560   2.112   4.363   3.431  0.5498  0.1955  0.1253
  560MOL0     H75561   1.811   4.139   3.397 -1.9571  1.9639 -0.5268
  560MOL0     H75562   1.925   4.250   3.317  3.2849  2.0473  2.8845
  560MOL0     H75563   1.988   4.122   3.422  2.0016  2.0228  0.3690
  560MOL0     H75564   1.409   4.319   3.529  2.4662  2.6229  1.5791
  560MOL0     H75565   1.174   4.258   3.583  0.3804  4.4553 -0.2196
  560MOL0     H75566   1.023   4.356   3.717 -0.6170  1.6441  0.2056
  560MOL0     H75567   0.899   4.230   3.758  2.1401  0.2399 -3.9241
  560MOL0     H75568   0.848   4.440   3.887  0.9809  1.8223 -3.0119
  560MOL0     H75569   0.895   4.312   3.993 -0.8336  1.5599 -0.0624
  560MOL0     H75570   1.102   4.415   4.057  1.4840 -1.6335 -2.3181
  560MOL0     H75571   0.972   4.535   4.033 -3.0945 -0.5599 -1.7921
  560MOL0     H75572   1.219   4.502   3.852 -1.2909  0.5168 -1.9732
  560MOL0     H75573   1.071   4.569   3.797 -0.0358  2.3098 -0.3192
  560MOL0     H75574   1.066   4.727   3.994 -0.3751  2.3699 -0.4697
  560MOL0     H75575   1.194   4.741   3.879 -1.0074 -4.5346 -4.0852
  560MOL0     H75576   1.206   4.659   4.169 -0.1397  1.6151  0.4734
  560MOL0     H75577   1.337   4.602   4.062 -0.5878  0.3218  0.2556
  560MOL0     H75578   1.246   4.898   4.063  0.4879  2.6987  1.7734
  560MOL0     H75579   1.402   4.852   4.012  0.4565  1.1997 -0.4835
  560MOL0     H75580   1.482   4.803   4.234  3.2986  2.2374 -0.6829
  560MOL0     H75581   1.320   4.815   4.318 -1.1136  0.4630 -1.6144
  560MOL0     H75582   1.307   4.147   3.976 -0.4696 -1.9066 -1.8849
  560MOL0     H75583   1.516   4.219   3.935 -1.7072  2.3427  1.7821
  560MOL0     H75584   1.785   4.462   3.776 -1.9847  3.3167 -2.3484
  560MOL0     H75585   2.023   4.562   3.787  2.2865 -0.7711  0.7855
  560MOL0     H75586   1.692   4.760   2.486 -0.7686  0.0343 -0.6669
  560MOL0     H75587   1.787   4.929   2.345 -0.3239  0.8825  0.3188
  560MOL0     H75588   2.186   4.955   1.989  1.0752 -0.9121 -0.9509
  560MOL0     H75589   2.254   5.014   1.770  0.0258  0.0807 -0.3153
  560MOL0     H75590   2.111   5.344   1.566  0.2220 -0.6964 -2.0087
  560MOL0     H75591   2.247   5.301   1.686 -1.6303 -3.0400  2.5502
  560MOL0     H75592   2.323   5.390   1.444  0.5913 -0.2554 -0.2831
  560MOL0     H75593   2.254   5.227   1.398  1.3658 -2.7557  2.1575
  560MOL0     H75594   2.388   5.114   1.536 -0.5688  0.8947 -1.3852
  560MOL0     H75595   2.456   5.256   1.622 -0.9618  0.2548 -0.1793
  560MOL0     H75596   2.613   5.166   1.459 -0.5419 -0.3465  1.1879
  560MOL0     H75597   2.561   5.335   1.412 -3.3960  0.9961 -4.9223
  560MOL0     H75598   2.443   5.193   1.061 -1.8377 -0.3492  0.7615
  560MOL0     H75599   1.883   5.225   1.706 -0.9185 -1.0947  0.2868
  560MOL0     H75600   1.810   5.167   1.934 -2.1309 -1.2434 -1.8154
  561MOL0     O75601  11.369   7.133   5.650  0.1199  0.7159  0.4005
  561MOL0     C75602  11.489   7.140   5.687 -0.6870 -0.1223  0.2171
  561MOL0     O75603  11.537   7.202   5.804  1.0685  0.4764  0.6610
  561MOL0     C75604  11.448   7.268   5.886 -0.7322  0.1147  0.0210
  561MOL0     C75605  11.472   7.253   6.019  0.6524 -0.6517  0.0477
  561MOL0     C75606  11.386   7.305   6.123 -1.1472 -0.6772  0.2253
  561MOL0     C75607  11.263   7.367   6.078 -0.3033  0.0989 -0.8794
  561MOL0     O75608  11.181   7.413   6.182 -0.3110 -0.0275  0.3680
  561MOL0     C75609  11.041   7.453   6.155 -0.5515  0.4160  0.2480
  561MOL0     C75610  10.963   7.464   6.284  0.8339  0.6737  0.1047
  561MOL0     C75611  11.037   7.536   6.395  0.1109  0.8932  0.6916
  561MOL0     C75612  10.970   7.537   6.529 -0.3428 -0.5866  1.2430
  561MOL0     C75613  11.067   7.609   6.630 -0.3097  0.7190 -0.0590
  561MOL0     C75614  10.991   7.645   6.757 -0.2872  0.0628 -0.0719
  561MOL0     C75615  10.890   7.760   6.736  0.2714  0.7075  0.7613
  561MOL0     C75616  10.857   7.822   6.867  0.4948 -0.1301  0.4075
  561MOL0     N75617  10.755   7.928   6.858  0.2135  0.7528  0.1626
  561MOL0     C75618  10.616   7.908   6.877 -0.2444  0.3398 -0.7890
  561MOL0     C75619  10.573   8.031   6.898 -0.3248 -0.4863 -0.3861
  561MOL0     C75620  10.437   8.073   6.947 -0.5262 -0.4808 -0.3935
  561MOL0     C75621  10.360   8.156   6.839  0.6926 -0.2328  0.7734
  561MOL0     C75622  10.217   8.191   6.872  0.2943  0.2876 -0.0898
  561MOL0     C75623  10.129   8.227   6.751 -0.3876  0.9301 -0.0646
  561MOL0     O75624  10.136   8.112   6.660  0.5963  0.0973  0.4843
  561MOL0     C75625  10.052   8.112   6.548 -0.6798  0.5116 -0.8107
  561MOL0     C75626  10.026   7.992   6.495 -0.0967 -0.0231  0.0878
  561MOL0     C75627   9.944   7.967   6.380 -0.3155  1.0567  0.3343
  561MOL0     C75628   9.930   7.823   6.321  0.2806  0.3842 -0.5259
  561MOL0     C75629   9.880   8.082   6.328 -1.1626 -0.3055 -0.6325
  561MOL0     C75630   9.816   8.076   6.201  0.6779  0.3042 -0.1738
  561MOL0     O75631   9.875   8.018   6.092  0.1940  0.0912  0.4972
  561MOL0     C75632   9.804   7.956   5.991 -0.4944 -0.0032 -0.5209
  561MOL0     C75633   9.875   7.917   5.879 -0.3924  0.2668 -0.6681
  561MOL0     C75634   9.816   7.827   5.785  0.0684 -0.2898  0.1856
  561MOL0     C75635   9.677   7.797   5.794 -0.1917  0.2723 -0.0660
  561MOL0     O75636   9.594   7.725   5.704 -0.2698 -0.7212  0.3185
  561MOL0     C75637   9.664   7.644   5.612  0.9585 -0.2104  0.0728
  561MOL0     C75638   9.547   7.592   5.523 -0.0795  0.3108 -0.8303
  561MOL0     C75639   9.593   7.526   5.399  1.2756 -0.5117  0.0391
  561MOL0     C75640   9.630   7.624   5.286 -0.0415  0.8614 -0.6129
  561MOL0     C75641   9.708   7.546   5.171 -0.1273 -0.4228 -0.7507
  561MOL0     C75642   9.842   7.489   5.208  0.4970 -0.1991  0.0958
  561MOL0     C75643   9.898   7.386   5.105  0.4661 -0.3031  0.2546
  561MOL0     C75644  10.046   7.379   5.105 -0.0084 -0.2260  0.3515
  561MOL0    Cl75645  10.129   7.361   5.269 -0.0303  0.1640  0.8261
  561MOL0     C75646   9.612   7.852   5.901 -0.1871  1.0820 -0.9588
  561MOL0     C75647   9.670   7.925   5.999 -0.4623  0.0842  0.1003
  561MOL0     O75648   9.711   8.143   6.191 -0.4392 -0.2126 -0.1580
  561MOL0     C75649   9.892   8.210   6.396  0.5134  0.5225  1.1273
  561MOL0     C75650   9.989   8.221   6.494 -0.3390 -0.1797  0.2897
  561MOL0     N75651  10.669   8.117   6.869 -0.3001 -0.3716 -0.1408
  561MOL0     N75652  10.783   8.060   6.854 -0.9289 -0.6205 -0.2796
  561MOL0     C75653  11.236   7.375   5.949 -0.4063 -0.4009  0.8390
  561MOL0     C75654  11.322   7.323   5.845 -0.5688  0.8926 -0.5204
  561MOL0     C75655  11.600   7.085   5.610 -0.0365 -0.7657  0.7701
  561MOL0     C75656  11.731   7.091   5.661  0.0326 -0.5765 -0.1215
  561MOL0     C75657  11.840   7.044   5.587  0.6939 -0.6086 -0.6291
  561MOL0     C75658  11.826   6.993   5.463 -0.9828  0.4744  0.0149
  561MOL0     O75659  11.948   6.959   5.408 -0.0446 -0.9265  0.3258
  561MOL0     C75660  11.941   6.927   5.270 -0.2778  0.6202  0.1541
  561MOL0     C75661  11.922   7.041   5.168 -0.4251  0.5608  0.5074
  561MOL0     C75662  11.871   6.983   5.040  0.7465  0.8655 -0.2511
  561MOL0     C75663  11.846   7.077   4.927 -0.1907 -0.3960  1.1986
  561MOL0     C75664  11.774   7.007   4.823  0.6512 -0.5572 -0.7140
  561MOL0     C75665  11.717   6.947   4.732 -0.4178  0.8915 -0.3846
  561MOL0     C75666  11.703   6.978   5.408  0.6709  1.4334  0.4048
  561MOL0     C75667  11.590   7.028   5.483  0.7914 -1.1294 -1.1382
  561MOL0     H75668  11.569   7.215   6.051  0.1796 -1.0687  1.0399
  561MOL0     H75669  11.411   7.302   6.228 -1.7559  1.1867  0.4679
  561MOL0     H75670  11.061   7.557   6.130 -0.7349  0.6866  1.1951
  561MOL0     H75671  10.987   7.395   6.080 -0.2811  0.1749  0.2377
  561MOL0     H75672  10.875   7.525   6.261  1.1908  1.8273  1.6693
  561MOL0     H75673  10.938   7.358   6.300  0.8159  0.4831 -1.0941
  561MOL0     H75674  11.133   7.483   6.407 -0.5507 -1.4233 -2.7448
  561MOL0     H75675  11.045   7.641   6.367  0.5060  0.1237 -2.5533
  561MOL0     H75676  10.886   7.606   6.519  0.5792  0.3726 -0.3671
  561MOL0     H75677  10.950   7.436   6.564 -0.9400 -0.7431  0.4883
  561MOL0     H75678  11.144   7.542   6.671  1.0014  3.3834  2.0978
  561MOL0     H75679  11.127   7.694   6.596  0.1996  0.5641  0.4204
  561MOL0     H75680  10.957   7.554   6.808  2.6187 -2.6967 -2.5433
  561MOL0     H75681  11.066   7.687   6.824  1.9358 -0.7780 -1.8545
  561MOL0     H75682  10.933   7.840   6.674 -0.3756 -1.9898 -3.5729
  561MOL0     H75683  10.800   7.723   6.687  0.8209 -4.6249  3.1518
  561MOL0     H75684  10.950   7.869   6.899  0.7534  2.0416 -2.9521
  561MOL0     H75685  10.836   7.740   6.936  0.9905 -1.0411 -0.4803
  561MOL0     H75686  10.566   7.812   6.888  2.3109 -1.5601 -3.8255
  561MOL0     H75687  10.385   7.980   6.971 -2.8543  0.8520  0.0116
  561MOL0     H75688  10.445   8.125   7.042  1.6298  1.3504 -1.4787
  561MOL0     H75689  10.364   8.094   6.748 -0.0037  0.2400  0.4185
  561MOL0     H75690  10.408   8.252   6.817  1.0496 -0.7994 -1.0841
  561MOL0     H75691  10.208   8.277   6.940 -0.8268  0.1248 -0.0145
  561MOL0     H75692  10.179   8.098   6.914 -0.0382  0.8603  0.9072
  561MOL0     H75693  10.152   8.326   6.708 -2.8862  3.3705  3.6482
  561MOL0     H75694  10.030   8.247   6.792  0.5281  3.3642  1.1711
  561MOL0     H75695  10.073   7.899   6.527  0.8575  0.2121 -0.5964
  561MOL0     H75696   9.950   7.740   6.389 -0.1770 -0.0270 -0.8821
  561MOL0     H75697   9.832   7.811   6.274 -0.3261  2.6445  0.0218
  561MOL0     H75698  10.017   7.827   6.256  1.5154 -3.8525  0.5688
  561MOL0     H75699   9.981   7.939   5.868 -1.0782  2.6276 -6.4725
  561MOL0     H75700   9.882   7.799   5.703 -0.9201  2.5346 -1.7247
  561MOL0     H75701   9.739   7.690   5.547  0.9583 -1.2331 -0.6779
  561MOL0     H75702   9.714   7.565   5.669  1.0887  0.7121  1.2810
  561MOL0     H75703   9.495   7.511   5.575 -1.6970  1.4067 -0.6759
  561MOL0     H75704   9.478   7.674   5.500  3.6543  4.2876  0.7845
  561MOL0     H75705   9.513   7.463   5.359  1.8538 -1.5977  0.5460
  561MOL0     H75706   9.674   7.457   5.424  1.1512  0.6622  4.4912
  561MOL0     H75707   9.538   7.664   5.244  0.2772  1.5514 -0.6729
  561MOL0     H75708   9.682   7.714   5.319  1.5950 -1.0542  2.4571
  561MOL0     H75709   9.717   7.615   5.086  1.0334 -1.2288 -1.3137
  561MOL0     H75710   9.642   7.468   5.132  0.7776 -2.6535  1.8861
  561MOL0     H75711   9.899   7.582   5.220 -0.1408  0.8333 -3.7494
  561MOL0     H75712   9.846   7.440   5.306 -2.5279 -1.5419 -0.3498
  561MOL0     H75713   9.878   7.421   5.004  1.3525  0.6412  0.3907
  561MOL0     H75714   9.857   7.285   5.119  0.4001 -0.0756  1.8984
  561MOL0     H75715  10.088   7.474   5.070 -0.0384 -0.2175  0.3384
  561MOL0     H75716  10.083   7.297   5.043 -0.1708  0.8077 -1.1812
  561MOL0     H75717   9.506   7.830   5.905 -0.6967  2.4694 -4.0688
  561MOL0     H75718   9.610   7.930   6.089  0.0614 -5.4516  1.1313
  561MOL0     H75719   9.837   8.295   6.357 -1.9550 -1.5770 -0.2913
  561MOL0     H75720   9.998   8.322   6.532  0.8948 -1.0386  2.4799
  561MOL0     H75721  11.137   7.408   5.917 -1.2046 -4.1606 -1.2591
  561MOL0     H75722  11.281   7.329   5.745 -0.5595 -1.0456 -0.6770
  561MOL0     H75723  11.762   7.109   5.764  3.7051  2.9806 -1.5593
  561MOL0     H75724  11.929   7.044   5.649 -0.3954  0.6071  1.0117
  561MOL0     H75725  12.029   6.869   5.239  0.2171  1.8831 -0.8852
  561MOL0     H75726  11.865   6.851   5.253  0.1401 -0.6959  3.3527
  561MOL0     H75727  12.021   7.087   5.168  0.9226 -2.1339  0.1049
  561MOL0     H75728  11.851   7.116   5.204  2.0116  3.1754  0.2237
  561MOL0     H75729  11.781   6.930   5.074 -1.1038  1.8449 -3.2082
  561MOL0     H75730  11.939   6.908   5.000  0.8422  0.5829  0.4242
  561MOL0     H75731  11.939   7.122   4.891 -1.5656  1.0563 -0.7857
  561MOL0     H75732  11.777   7.158   4.952 -2.7459 -1.2381 -2.3270
  561MOL0     H75733  11.663   6.904   4.649 -0.4638 -0.6088  0.3800
  561MOL0     H75734  11.687   6.928   5.313  2.2064  0.4178  0.6341
  561MOL0     H75735  11.492   7.023   5.437 -1.7201 -0.1111  3.4961
  562MOL0     O75736   5.085   2.296   9.504  0.4229 -0.4104  0.2793
  562MOL0     C75737   5.168   2.209   9.507  0.4873 -0.7917 -0.4204
  562MOL0     O75738   5.241   2.178   9.614 -0.1117 -0.3371  0.1810
  562MOL0     C75739   5.215   2.247   9.728  0.2726  0.9610 -0.3320
  562MOL0     C75740   5.305   2.342   9.779 -0.2430 -1.1718  0.1563
  562MOL0     C75741   5.289   2.404   9.906  0.3646  0.1832  0.6721
  562MOL0     C75742   5.183   2.373   9.991 -0.8058 -0.4799  1.3445
  562MOL0     O75743   5.182   2.425  10.117 -0.4341 -0.8704 -0.2454
  562MOL0     C75744   5.119   2.363  10.229 -0.2002  0.4951  0.3981
  562MOL0     C75745   5.178   2.417  10.360 -0.7258 -0.1424  0.7709
  562MOL0     C75746   5.138   2.563  10.382  0.0628  0.0450  0.1030
  562MOL0     C75747   5.203   2.624  10.518  0.1178  0.2969  1.0081
  562MOL0     C75748   5.143   2.755  10.567  0.7676  0.7598  0.3507
  562MOL0     C75749   5.212   2.831  10.673  0.4352  0.5379 -0.3306
  562MOL0     C75750   5.255   2.756  10.797  0.9661  0.0260 -0.4790
  562MOL0     C75751   5.292   2.844  10.914 -0.6032 -0.3976 -0.6092
  562MOL0     N75752   5.439   2.855  10.923  1.2369  0.4353  0.4986
  562MOL0     C75753   5.533   2.765  10.964  0.0815  0.2259  0.0294
  562MOL0     C75754   5.652   2.838  10.976  1.1557  0.1809  0.1437
  562MOL0     C75755   5.784   2.794  11.017 -0.3796  0.0730 -0.6334
  562MOL0     C75756   5.832   2.680  10.928  0.1152  0.0531  0.2157
  562MOL0     C75757   5.970   2.705  10.840  1.2039 -0.9481  0.2528
  562MOL0     C75758   5.955   2.627  10.714 -1.0175  0.9541 -1.2187
  562MOL0     O75759   5.844   2.675  10.635 -0.4080  0.0428  0.1891
  562MOL0     C75760   5.850   2.633  10.500 -0.6700 -0.4066 -0.0305
  562MOL0     C75761   5.736   2.665  10.436  0.5539  0.0539 -0.3845
  562MOL0     C75762   5.708   2.628  10.308  0.0080 -0.0304 -0.6019
  562MOL0     C75763   5.557   2.626  10.276 -0.8790 -1.5780 -0.3116
  562MOL0     C75764   5.803   2.560  10.237 -0.1037 -1.3111  0.9684
  562MOL0     C75765   5.771   2.511  10.098  0.2230 -0.0347 -0.8535
  562MOL0     O75766   5.822   2.387  10.080  0.1678 -0.1645  0.3307
  562MOL0     C75767   5.873   2.350   9.953  0.2673 -0.6592 -0.3946
  562MOL0     C75768   5.869   2.210   9.929 -0.3829  0.4401 -0.1462
  562MOL0     C75769   5.903   2.156   9.804 -0.5019  0.6183  0.0573
  562MOL0     C75770   5.952   2.244   9.705  0.8433 -1.3469  0.6823
  562MOL0     O75771   5.965   2.201   9.579  0.4388  0.0110  1.0476
  562MOL0     C75772   6.080   2.256   9.510  0.1141  0.1906  1.0305
  562MOL0     C75773   6.040   2.328   9.383 -0.7338 -0.2914  0.0535
  562MOL0     C75774   6.177   2.385   9.332  0.6615  0.5058 -0.6940
  562MOL0     C75775   6.150   2.477   9.209 -0.1532 -0.5786 -0.1328
  562MOL0     C75776   6.139   2.388   9.080  1.5172  0.0651 -0.2733
  562MOL0     C75777   6.283   2.363   9.022 -0.1599  0.7092  0.4291
  562MOL0     C75778   6.282   2.255   8.911  0.1659  0.5243  0.9706
  562MOL0     C75779   6.350   2.297   8.779  0.0314 -0.3730  0.6520
  562MOL0    Cl75780   6.241   2.396   8.682  0.0184  0.1366  0.0560
  562MOL0     C75781   5.957   2.384   9.725 -0.5087 -0.7505  0.2346
  562MOL0     C75782   5.913   2.438   9.850 -0.0386  0.4182 -0.5856
  562MOL0     O75783   5.720   2.584  10.010  0.2194  0.3868  0.6490
  562MOL0     C75784   5.922   2.543  10.293  0.5936 -1.1622 -0.2080
  562MOL0     C75785   5.955   2.586  10.417 -0.4683  0.3319  0.6021
  562MOL0     N75786   5.617   2.969  10.948 -0.5082  0.0964  0.3320
  562MOL0     N75787   5.489   2.976  10.908  0.0348 -0.1923 -0.8813
  562MOL0     C75788   5.101   2.262   9.941 -1.1844  0.2700  0.0065
  562MOL0     C75789   5.117   2.207   9.812 -0.4834 -0.0359 -0.9280
  562MOL0     C75790   5.189   2.123   9.389 -0.3438  0.0474 -1.0143
  562MOL0     C75791   5.258   2.004   9.405 -0.6378 -0.6230  0.5172
  562MOL0     C75792   5.273   1.922   9.301 -0.5983  0.5454  0.6157
  562MOL0     C75793   5.216   1.947   9.171  0.4336  0.3631 -0.8763
  562MOL0     O75794   5.246   1.872   9.058 -0.5529  0.6611  0.4419
  562MOL0     C75795   5.307   1.930   8.936 -0.3031  0.3691  0.3334
  562MOL0     C75796   5.248   1.882   8.805 -0.5438  0.3783 -0.7395
  562MOL0     C75797   5.316   1.943   8.683  0.1754 -0.1017  0.4098
  562MOL0     C75798   5.280   2.090   8.656 -0.4015 -0.6067 -0.1462
  562MOL0     C75799   5.350   2.145   8.536  0.2585 -0.3161  0.2455
  562MOL0     C75800   5.428   2.168   8.444  0.3516 -0.5620  0.4999
  562MOL0     C75801   5.152   2.067   9.157 -0.1868 -0.1160  0.2476
  562MOL0     C75802   5.136   2.163   9.265 -0.3826  0.0315 -0.9119
  562MOL0     H75803   5.399   2.366   9.730 -1.0716  2.1008 -0.0107
  562MOL0     H75804   5.370   2.466   9.944  0.3628  0.4911  0.1868
  562MOL0     H75805   5.011   2.374  10.213  0.2272  1.5103 -2.4813
  562MOL0     H75806   5.145   2.257  10.217  2.6623  1.0091  1.3084
  562MOL0     H75807   5.143   2.355  10.443 -3.4573 -0.3926 -0.4673
  562MOL0     H75808   5.287   2.406  10.363 -0.9348 -3.1830  0.4384
  562MOL0     H75809   5.154   2.642  10.308 -2.8807  1.1811  0.5268
  562MOL0     H75810   5.029   2.559  10.397  0.1809  2.4901  2.5084
  562MOL0     H75811   5.196   2.548  10.597 -2.5935  1.6401  2.1673
  562MOL0     H75812   5.304   2.645  10.481 -1.4312  0.9418 -3.4245
  562MOL0     H75813   5.125   2.823  10.483 -3.7177 -0.5891 -0.0386
  562MOL0     H75814   5.041   2.729  10.597  0.9567  0.8816  1.1382
  562MOL0     H75815   5.310   2.866  10.641  0.9245 -0.8608 -0.4502
  562MOL0     H75816   5.139   2.908  10.699 -1.1033 -0.7834 -0.6134
  562MOL0     H75817   5.168   2.697  10.828  0.1344  2.6675  2.9458
  562MOL0     H75818   5.333   2.685  10.768 -1.5899 -1.3802 -4.8695
  562MOL0     H75819   5.258   2.793  11.004  1.6393 -2.6843 -0.9559
  562MOL0     H75820   5.243   2.942  10.904  1.6433  0.7467 -0.8816
  562MOL0     H75821   5.523   2.658  10.977  2.9862 -0.4313 -1.9630
  562MOL0     H75822   5.857   2.875  11.021  2.2323 -2.1145 -0.8803
  562MOL0     H75823   5.776   2.761  11.121 -0.6162  0.1592 -0.6248
  562MOL0     H75824   5.750   2.659  10.858  0.1745 -0.0601  0.1785
  562MOL0     H75825   5.839   2.583  10.979 -1.5672 -2.3232 -3.5854
  562MOL0     H75826   6.068   2.684  10.884  0.9867 -1.3304  0.5644
  562MOL0     H75827   5.966   2.810  10.811 -1.3032 -1.5939 -2.1785
  562MOL0     H75828   5.943   2.521  10.739  2.1530  0.8630  0.4026
  562MOL0     H75829   6.050   2.639  10.661 -0.3481 -3.2761 -1.2776
  562MOL0     H75830   5.674   2.721  10.505  1.7811  0.9789  0.0132
  562MOL0     H75831   5.518   2.728  10.269 -0.0123 -0.7793  3.9557
  562MOL0     H75832   5.533   2.566  10.187 -0.7872 -1.7671 -0.2086
  562MOL0     H75833   5.511   2.574  10.361 -0.5493 -0.2507  0.6920
  562MOL0     H75834   5.844   2.133  10.001 -1.7056 -0.0678 -1.1338
  562MOL0     H75835   5.881   2.054   9.774 -4.3782  1.8053 -1.9102
  562MOL0     H75836   6.131   2.326   9.577 -0.9988  0.4493  1.6396
  562MOL0     H75837   6.148   2.174   9.485 -1.9602 -1.8293  1.6870
  562MOL0     H75838   5.992   2.266   9.307 -1.2234  1.3087 -0.9871
  562MOL0     H75839   5.980   2.416   9.406 -1.2943 -1.0275  1.5089
  562MOL0     H75840   6.252   2.307   9.317 -1.2416 -0.8686 -4.4459
  562MOL0     H75841   6.224   2.441   9.413  2.6433 -0.4847 -1.0993
  562MOL0     H75842   6.054   2.529   9.219 -1.0265 -0.9346 -4.4338
  562MOL0     H75843   6.217   2.562   9.196 -2.3602  1.0818 -1.3616
  562MOL0     H75844   6.085   2.441   9.002  0.4425 -0.7627 -0.1148
  562MOL0     H75845   6.089   2.295   9.109 -2.0256  2.1076  0.7895
  562MOL0     H75846   6.310   2.463   8.988 -0.2001  1.2696  1.9806
  562MOL0     H75847   6.348   2.329   9.102  0.8732  0.9283 -0.2985
  562MOL0     H75848   6.182   2.216   8.888 -0.1214 -0.7022  3.8373
  562MOL0     H75849   6.347   2.172   8.943  0.9814  0.2334 -1.2513
  562MOL0     H75850   6.362   2.211   8.713  0.8418 -0.7386  1.2675
  562MOL0     H75851   6.451   2.338   8.790 -0.4739  1.0395  0.2938
  562MOL0     H75852   5.976   2.449   9.641  0.7779 -0.4348  0.7445
  562MOL0     H75853   5.911   2.546   9.847  1.2247  0.4498 -3.5268
  562MOL0     H75854   6.003   2.503  10.232 -0.9106 -2.7385 -1.2461
  562MOL0     H75855   6.058   2.573  10.450  0.4974  1.0335 -1.9153
  562MOL0     H75856   5.026   2.223  10.010 -3.6855  2.8358 -1.0818
  562MOL0     H75857   5.059   2.121   9.781  1.1561 -1.4227 -0.2987
  562MOL0     H75858   5.297   1.965   9.499 -0.4795 -1.7180  0.0195
  562MOL0     H75859   5.332   1.832   9.311 -0.3265  0.2095 -2.8107
  562MOL0     H75860   5.300   2.039   8.939  4.1283  0.8567  0.6585
  562MOL0     H75861   5.412   1.901   8.928 -1.6345 -4.7429 -3.9302
  562MOL0     H75862   5.140   1.896   8.808 -0.7503 -1.1349  0.5529
  562MOL0     H75863   5.258   1.773   8.811 -0.1548  0.4818  1.2444
  562MOL0     H75864   5.303   1.884   8.592  0.8849  2.1871 -1.2788
  562MOL0     H75865   5.422   1.947   8.711  0.2372 -0.8517  0.2921
  562MOL0     H75866   5.306   2.140   8.749 -0.5459 -3.4438  1.5361
  562MOL0     H75867   5.172   2.103   8.644 -0.1801  0.1598 -1.4940
  562MOL0     H75868   5.503   2.188   8.370  1.4234 -2.6948  0.9016
  562MOL0     H75869   5.097   2.098   9.068  2.2824 -2.0076 -2.1079
  562MOL0     H75870   5.067   2.245   9.247  0.0090  0.3045 -1.1824
  563MOL0     O75871   4.481   8.304   4.609 -0.2217 -0.6900  0.1337
  563MOL0     C75872   4.455   8.178   4.627  0.8288 -0.0545  0.8966
  563MOL0     O75873   4.521   8.091   4.708 -0.0466 -0.7797 -0.4483
  563MOL0     C75874   4.622   8.159   4.786  0.0431  1.3818  0.5028
  563MOL0     C75875   4.592   8.174   4.922 -0.0560 -0.2595  0.0807
  563MOL0     C75876   4.693   8.210   5.008  0.3518 -0.3110  0.2631
  563MOL0     C75877   4.821   8.247   4.968  0.3965  0.0550  0.2240
  563MOL0     O75878   4.913   8.277   5.067  0.1154  0.3590  0.1978
  563MOL0     C75879   5.052   8.281   5.043 -0.5443 -0.0480  0.5101
  563MOL0     C75880   5.092   8.131   5.024 -0.2984 -0.4779  0.7761
  563MOL0     C75881   5.212   8.111   4.930  0.1360  0.1900  0.7552
  563MOL0     C75882   5.287   7.982   4.972 -1.4541 -1.4212  0.1927
  563MOL0     C75883   5.206   7.850   5.000 -0.1512 -0.2567 -0.1024
  563MOL0     C75884   5.130   7.808   4.878  0.4855  0.7513  0.4444
  563MOL0     C75885   5.213   7.793   4.746  0.3581 -0.2958 -0.8859
  563MOL0     C75886   5.331   7.691   4.774  0.0253 -0.6400 -0.7651
  563MOL0     N75887   5.399   7.644   4.656  0.5662  0.3624 -1.1520
  563MOL0     C75888   5.432   7.515   4.644  0.0850 -0.0049 -0.5702
  563MOL0     C75889   5.464   7.491   4.520 -0.0761 -1.1050  0.4579
  563MOL0     C75890   5.529   7.370   4.461 -0.3001 -0.6443  0.2442
  563MOL0     C75891   5.427   7.279   4.380 -0.9016 -0.2053 -0.4964
  563MOL0     C75892   5.489   7.169   4.295 -0.0826  0.2331  0.1744
  563MOL0     C75893   5.560   7.064   4.374 -1.0045  0.3669  0.4568
  563MOL0     O75894   5.612   6.956   4.285 -0.2667  0.1937  0.2084
  563MOL0     C75895   5.715   6.883   4.322 -0.3124 -0.2035  0.3548
  563MOL0     C75896   5.745   6.847   4.450 -1.0552 -0.9545 -0.0537
  563MOL0     C75897   5.836   6.755   4.485 -0.5496 -0.1183 -0.6859
  563MOL0     C75898   5.878   6.738   4.636  1.4877 -0.2543  0.7302
  563MOL0     C75899   5.905   6.679   4.385 -0.4406 -0.0026  0.1538
  563MOL0     C75900   5.990   6.558   4.405 -0.1014  0.4470 -0.0889
  563MOL0     O75901   6.049   6.501   4.290 -0.0326 -0.2488  0.1485
  563MOL0     C75902   6.137   6.395   4.301  0.1210 -0.6512 -0.8237
  563MOL0     C75903   6.090   6.269   4.322 -0.1522  0.1589 -0.6936
  563MOL0     C75904   6.178   6.158   4.311  0.1528 -0.0265 -0.4772
  563MOL0     C75905   6.313   6.178   4.277 -0.0581 -0.8448  0.3054
  563MOL0     O75906   6.411   6.094   4.245 -0.6608  0.6191  0.8381
  563MOL0     C75907   6.395   5.962   4.204  0.3837  0.4898 -0.4452
  563MOL0     C75908   6.433   5.864   4.314 -0.1080  0.0601 -0.2106
  563MOL0     C75909   6.586   5.868   4.350 -0.3921 -0.4213  0.4885
  563MOL0     C75910   6.600   5.769   4.461  1.2362  0.4490  0.4616
  563MOL0     C75911   6.751   5.760   4.513 -0.3320 -0.0666 -0.5578
  563MOL0     C75912   6.781   5.639   4.596  0.2939  0.9048 -0.5369
  563MOL0     C75913   6.930   5.612   4.620  0.4084  0.1880 -0.9042
  563MOL0     C75914   6.936   5.503   4.728 -0.4598  0.8754  0.6277
  563MOL0    Cl75915   6.878   5.361   4.639 -0.1862  0.5224 -0.2113
  563MOL0     C75916   6.360   6.311   4.262 -0.4077  0.5210  0.1091
  563MOL0     C75917   6.271   6.419   4.271  0.1898 -0.3464 -0.2261
  563MOL0     O75918   5.983   6.497   4.512  0.1326 -0.0494 -0.6416
  563MOL0     C75919   5.879   6.719   4.248  0.1965  0.0667 -0.4874
  563MOL0     C75920   5.788   6.816   4.222  0.2194 -0.3460 -0.0484
  563MOL0     N75921   5.459   7.617   4.458  0.1465  0.6835  0.1450
  563MOL0     N75922   5.405   7.706   4.538  0.8167 -1.2264 -0.3839
  563MOL0     C75923   4.850   8.240   4.825 -0.5423 -0.0552 -0.4542
  563MOL0     C75924   4.757   8.184   4.740 -0.2567 -0.4268  0.0376
  563MOL0     C75925   4.366   8.113   4.529  0.1587  1.1897  0.0862
  563MOL0     C75926   4.342   8.169   4.409  1.0832  0.3032  0.6174
  563MOL0     C75927   4.239   8.119   4.327  0.5506 -0.4939  0.2821
  563MOL0     C75928   4.155   8.018   4.371  1.0724  0.2833  0.8317
  563MOL0     O75929   4.050   7.983   4.284 -1.3800  0.7733  0.1749
  563MOL0     C75930   3.927   7.935   4.334  1.3579  0.2153 -0.3923
  563MOL0     C75931   3.845   8.044   4.408  0.1431 -0.3017  0.3372
  563MOL0     C75932   3.843   8.182   4.339  0.4808 -0.5077 -0.2277
  563MOL0     C75933   3.735   8.187   4.225 -0.1919  0.0749 -0.2978
  563MOL0     C75934   3.696   8.330   4.202  0.5069 -0.3783  0.6602
  563MOL0     C75935   3.667   8.445   4.173  1.1242 -0.2436 -0.4513
  563MOL0     C75936   4.181   7.965   4.494 -0.1392  0.2470  1.0367
  563MOL0     C75937   4.288   8.005   4.575 -0.1361  0.2222  0.3766
  563MOL0     H75938   4.494   8.146   4.960  1.0255  0.1728  3.5361
  563MOL0     H75939   4.675   8.207   5.115  0.7143  2.4370  0.4754
  563MOL0     H75940   5.083   8.350   4.964  3.0868 -1.4234  0.5297
  563MOL0     H75941   5.105   8.321   5.130 -1.1327  1.7272  0.1005
  563MOL0     H75942   5.115   8.082   5.119  2.3026 -1.5121 -0.3024
  563MOL0     H75943   5.012   8.073   4.978 -0.9468  2.2314 -1.8272
  563MOL0     H75944   5.175   8.106   4.828 -3.3187 -0.3693  1.9118
  563MOL0     H75945   5.277   8.198   4.944  1.1517 -0.6882  1.7524
  563MOL0     H75946   5.358   7.973   4.890  0.8063 -0.9501  1.9917
  563MOL0     H75947   5.348   8.000   5.061  1.1613 -0.1650 -1.6931
  563MOL0     H75948   5.269   7.768   5.035 -0.4923  0.1021  1.4415
  563MOL0     H75949   5.138   7.865   5.085  0.2127 -1.1327  0.3544
  563MOL0     H75950   5.077   7.716   4.902  0.2393  1.0815  1.2079
  563MOL0     H75951   5.054   7.883   4.854 -0.3057 -0.7561 -2.1675
  563MOL0     H75952   5.157   7.754   4.660  2.5862 -0.4424 -2.3394
  563MOL0     H75953   5.244   7.894   4.717 -2.4960  1.3666  1.2463
  563MOL0     H75954   5.293   7.602   4.827  2.1558 -0.5856  1.0012
  563MOL0     H75955   5.405   7.738   4.839 -1.6167  2.3697 -0.8737
  563MOL0     H75956   5.445   7.436   4.716 -0.9545  1.7855  1.7016
  563MOL0     H75957   5.620   7.389   4.404  1.3123  3.5976  3.6341
  563MOL0     H75958   5.559   7.307   4.545  1.7672 -0.5586 -0.3713
  563MOL0     H75959   5.381   7.352   4.312  0.8321  2.1656  0.6930
  563MOL0     H75960   5.358   7.235   4.452  2.1525 -5.7025 -0.4209
  563MOL0     H75961   5.567   7.205   4.227  0.7172 -1.3419  0.2112
  563MOL0     H75962   5.411   7.121   4.236  2.4632 -1.5401 -1.9789
  563MOL0     H75963   5.491   7.025   4.450  1.5640 -2.9534  1.3202
  563MOL0     H75964   5.651   7.112   4.411 -0.2054  0.8676 -1.9957
  563MOL0     H75965   5.689   6.898   4.528 -1.5425 -0.0334 -0.9812
  563MOL0     H75966   5.816   6.793   4.707  0.7726 -0.4048  0.2336
  563MOL0     H75967   5.882   6.633   4.666 -0.4244 -1.2144 -1.9624
  563MOL0     H75968   5.980   6.777   4.652  0.9161  1.4734  0.4255
  563MOL0     H75969   5.994   6.274   4.374 -0.5701  5.9006 -1.3336
  563MOL0     H75970   6.148   6.055   4.323 -0.9999  0.3264 -0.1972
  563MOL0     H75971   6.291   5.944   4.175  0.8419  1.1203 -2.6544
  563MOL0     H75972   6.466   5.944   4.123  0.8957 -2.7114  0.5680
  563MOL0     H75973   6.378   5.895   4.403 -1.1969 -1.9615 -0.1263
  563MOL0     H75974   6.395   5.765   4.287  0.0656  0.4137 -1.8793
  563MOL0     H75975   6.615   5.968   4.384  4.1282 -0.8504 -1.4686
  563MOL0     H75976   6.652   5.835   4.270 -1.2467 -0.9621 -0.0131
  563MOL0     H75977   6.535   5.793   4.546  1.3210 -2.9923  1.6512
  563MOL0     H75978   6.559   5.674   4.426 -3.1198  2.3254 -0.1529
  563MOL0     H75979   6.781   5.851   4.565  0.8174 -0.2163 -0.9330
  563MOL0     H75980   6.827   5.771   4.435  1.9138 -0.4237  1.4472
  563MOL0     H75981   6.722   5.658   4.686 -1.0094  1.2570 -1.4315
  563MOL0     H75982   6.752   5.546   4.547  1.7816  0.7996 -1.2547
  563MOL0     H75983   6.970   5.709   4.651 -0.8719  1.3301 -2.6054
  563MOL0     H75984   6.988   5.590   4.529 -0.0635 -1.2737 -0.8743
  563MOL0     H75985   6.882   5.525   4.821  1.9446 -1.9079  2.8878
  563MOL0     H75986   7.042   5.493   4.753 -0.5902 -1.2222  0.4824
  563MOL0     H75987   6.463   6.335   4.239 -0.6918  1.6843 -0.0664
  563MOL0     H75988   6.300   6.518   4.238 -3.2382  0.0313 -2.7268
  563MOL0     H75989   5.929   6.663   4.169  0.5369 -1.3829  0.7100
  563MOL0     H75990   5.768   6.833   4.116  2.5421 -1.5630 -0.7550
  563MOL0     H75991   4.952   8.251   4.789  0.0267 -1.0072  0.7914
  563MOL0     H75992   4.778   8.150   4.640 -4.4563 -0.4911 -0.9812
  563MOL0     H75993   4.409   8.249   4.380  5.0839 -2.6985  0.6552
  563MOL0     H75994   4.230   8.182   4.239  0.3388 -0.9269 -0.0135
  563MOL0     H75995   3.861   7.898   4.255 -1.8602  1.1618  1.6448
  563MOL0     H75996   3.943   7.854   4.407 -0.1918  1.1183  1.0180
  563MOL0     H75997   3.872   8.055   4.513  1.7448  3.4939 -0.3270
  563MOL0     H75998   3.741   8.011   4.418 -0.2597  1.0845  0.9993
  563MOL0     H75999   3.937   8.210   4.292  1.2433 -1.7275  0.5252
  563MOL0     H76000   3.810   8.250   4.418 -2.7052 -1.6091 -0.4739
  563MOL0     H76001   3.649   8.130   4.262 -1.3681  1.8925 -0.0767
  563MOL0     H76002   3.763   8.144   4.129 -1.3915 -2.8833  0.5790
  563MOL0     H76003   3.614   8.533   4.142  1.1823  0.5726  1.6474
  563MOL0     H76004   4.101   7.904   4.536 -0.2616 -0.2772  0.0826
  563MOL0     H76005   4.298   7.955   4.671 -0.6534 -3.8582 -1.5003
  564MOL0     O76006   2.195  10.760   5.277 -0.0758 -0.0310 -0.4310
  564MOL0     C76007   2.297  10.736   5.215 -0.9819  0.7373 -0.3134
  564MOL0     O76008   2.318  10.763   5.087 -0.1156 -0.1861  0.2081
  564MOL0     C76009   2.246  10.855   5.017  0.9550 -0.1761  0.6889
  564MOL0     C76010   2.251  10.825   4.878 -0.2959 -0.1278  0.6202
  564MOL0     C76011   2.197  10.909   4.783  0.6027  0.0124 -1.0882
  564MOL0     C76012   2.126  11.025   4.822 -0.4677  0.6442 -0.5242
  564MOL0     O76013   2.090  11.111   4.724  0.1560  0.1233 -0.3512
  564MOL0     C76014   2.091  11.247   4.746 -0.3227 -0.9097 -0.4761
  564MOL0     C76015   1.961  11.307   4.695  0.0374  0.6729 -0.5005
  564MOL0     C76016   1.942  11.462   4.674 -0.2442 -0.7406 -0.5107
  564MOL0     C76017   2.010  11.541   4.785 -0.4484 -0.6965  0.5176
  564MOL0     C76018   1.942  11.546   4.915 -0.0928  0.0955  0.5414
  564MOL0     C76019   1.983  11.647   5.024 -0.3631  0.8657  0.3770
  564MOL0     C76020   1.947  11.595   5.159  0.7237  0.6616 -0.6236
  564MOL0     C76021   1.797  11.565   5.185  0.4630  0.3541 -0.0969
  564MOL0     N76022   1.791  11.514   5.322 -0.4554 -0.2523 -0.4524
  564MOL0     C76023   1.771  11.590   5.437  0.0219  0.1652 -0.0706
  564MOL0     C76024   1.729  11.505   5.536  0.7698 -0.7089 -0.9378
  564MOL0     C76025   1.704  11.524   5.683 -0.1551 -0.2535 -0.3606
  564MOL0     C76026   1.837  11.538   5.760  0.2929  0.4534 -0.8926
  564MOL0     C76027   1.827  11.588   5.903 -0.4996  0.6756 -0.9036
  564MOL0     C76028   1.726  11.512   5.993  0.2437  0.9631 -0.3033
  564MOL0     O76029   1.592  11.565   5.985  0.1816  0.5521  0.4175
  564MOL0     C76030   1.552  11.685   6.045 -0.5968  0.1173  0.4595
  564MOL0     C76031   1.425  11.726   6.007 -0.1065  0.0469 -0.4751
  564MOL0     C76032   1.371  11.833   6.085  1.2493  0.5806 -0.2692
  564MOL0     C76033   1.224  11.859   6.050 -0.0043  0.2265  0.1182
  564MOL0     C76034   1.441  11.908   6.177 -0.3414  0.8129  0.1114
  564MOL0     C76035   1.390  12.024   6.249  1.2915 -0.0882 -0.5866
  564MOL0     O76036   1.306  12.003   6.369  0.2575  0.2207 -0.0237
  564MOL0     C76037   1.203  12.099   6.394  0.8199 -0.4739 -0.1110
  564MOL0     C76038   1.212  12.194   6.486 -0.6024  0.6296 -0.6530
  564MOL0     C76039   1.109  12.290   6.510 -0.0402 -1.1823 -0.4183
  564MOL0     C76040   0.987  12.290   6.448  0.5695  0.7869  0.8162
  564MOL0     O76041   0.898  12.387   6.479 -0.0577  0.0105 -0.1818
  564MOL0     C76042   0.780  12.372   6.406  0.2972  0.5454  0.2789
  564MOL0     C76043   0.674  12.479   6.438 -0.0947 -0.8445  0.6082
  564MOL0     C76044   0.530  12.421   6.467 -0.4033 -0.1789  0.1698
  564MOL0     C76045   0.427  12.531   6.488 -1.1580  0.3635  0.7248
  564MOL0     C76046   0.307  12.466   6.549  0.4237 -0.0204  0.0735
  564MOL0     C76047   0.237  12.389   6.448  0.1176 -0.3701 -0.3953
  564MOL0     C76048   0.116  12.327   6.520  0.1627 -0.7607  0.2014
  564MOL0     C76049   0.016  12.251   6.436 -0.3589 -0.7696 -0.1938
  564MOL0    Cl76050  -0.062  12.361   6.335  0.2321  0.5298  0.4827
  564MOL0     C76051   0.983  12.193   6.340 -0.0973  0.6975  0.5724
  564MOL0     C76052   1.092  12.106   6.309  0.3362  0.8235  0.7356
  564MOL0     O76053   1.405  12.133   6.196  0.9578  0.6378 -0.3530
  564MOL0     C76054   1.566  11.859   6.217 -0.0433  0.2316 -0.4184
  564MOL0     C76055   1.619  11.753   6.145 -0.3339 -0.3145 -0.0895
  564MOL0     N76056   1.735  11.384   5.490 -0.1523  0.4177 -0.0636
  564MOL0     N76057   1.750  11.385   5.359  0.0019  0.0719 -0.3888
  564MOL0     C76058   2.103  11.045   4.964  1.5749  0.7424  0.5892
  564MOL0     C76059   2.165  10.957   5.060  0.0047  0.2928  0.5760
  564MOL0     C76060   2.411  10.650   5.275  0.6813 -0.6957 -0.5087
  564MOL0     C76061   2.522  10.613   5.184  0.0039 -1.1725 -0.5434
  564MOL0     C76062   2.625  10.541   5.246  0.0804 -0.2536 -0.1879
  564MOL0     C76063   2.622  10.503   5.378  0.5318  0.6458 -0.2185
  564MOL0     O76064   2.735  10.444   5.425  0.4851  0.7119 -0.6769
  564MOL0     C76065   2.728  10.356   5.545  0.9696  0.3623  0.1228
  564MOL0     C76066   2.864  10.298   5.581  0.5102 -0.6706  0.7620
  564MOL0     C76067   2.869  10.222   5.713 -0.3510 -0.4121  0.0884
  564MOL0     C76068   2.949  10.314   5.813  0.0521  0.3420 -0.3325
  564MOL0     C76069   2.988  10.244   5.940 -0.3921  0.1103  0.6182
  564MOL0     C76070   3.003  10.193   6.050 -0.8080  0.3659  0.0445
  564MOL0     C76071   2.501  10.528   5.450  0.1943  0.8250  1.3578
  564MOL0     C76072   2.403  10.603   5.405 -0.2097 -0.2120 -0.4961
  564MOL0     H76073   2.308  10.737   4.848 -2.0214 -2.3292  3.3092
  564MOL0     H76074   2.218  10.890   4.678  2.2205 -0.0447 -0.7809
  564MOL0     H76075   2.107  11.268   4.852  1.9328  3.9293 -1.5248
  564MOL0     H76076   2.167  11.301   4.688 -2.1491 -0.6304 -2.7735
  564MOL0     H76077   1.927  11.255   4.605 -2.2151  3.6771 -1.5470
  564MOL0     H76078   1.889  11.279   4.772  0.2895  0.8265 -0.2044
  564MOL0     H76079   1.988  11.496   4.581  1.5826  0.2992  0.7136
  564MOL0     H76080   1.835  11.481   4.674 -0.4797 -1.9693  0.1660
  564MOL0     H76081   2.115  11.511   4.793  0.5471  2.7291  2.1739
  564MOL0     H76082   2.015  11.637   4.733 -0.7236 -0.9599 -0.0110
  564MOL0     H76083   1.836  11.566   4.895  0.0626  1.7463  1.2156
  564MOL0     H76084   1.956  11.448   4.962  1.4619 -0.1038 -0.2839
  564MOL0     H76085   2.092  11.650   5.022 -0.2734  0.2008 -3.7522
  564MOL0     H76086   1.946  11.744   4.991  2.8928  2.9081  2.2558
  564MOL0     H76087   2.001  11.502   5.178  0.5776  0.8586  0.8584
  564MOL0     H76088   1.984  11.668   5.232  2.0992  1.5800 -2.1798
  564MOL0     H76089   1.755  11.486   5.123 -2.5849  0.6639  1.3576
  564MOL0     H76090   1.742  11.660   5.178  0.9360  0.7229  0.8747
  564MOL0     H76091   1.764  11.698   5.445 -2.1858  0.2984 -2.4738
  564MOL0     H76092   1.656  11.622   5.686  1.3810  0.5402 -0.2648
  564MOL0     H76093   1.642  11.450   5.736  0.7437  0.0603  1.2159
  564MOL0     H76094   1.904  11.603   5.703 -1.8942  0.5403 -3.6053
  564MOL0     H76095   1.880  11.438   5.757 -1.9122 -0.5504 -0.6171
  564MOL0     H76096   1.805  11.695   5.912  2.0238  1.2116 -0.1780
  564MOL0     H76097   1.928  11.568   5.942 -0.6339  0.5235 -0.6315
  564MOL0     H76098   1.756  11.502   6.098 -0.4919  0.6571 -0.1171
  564MOL0     H76099   1.722  11.408   5.960  1.4071  0.9758 -0.5172
  564MOL0     H76100   1.363  11.678   5.933 -1.9237 -0.7199  1.4255
  564MOL0     H76101   1.216  11.830   5.945 -0.2527  1.4147 -0.2121
  564MOL0     H76102   1.166  11.797   6.119  0.0473 -0.2709 -0.2805
  564MOL0     H76103   1.188  11.961   6.071  0.2382  0.1068  1.1990
  564MOL0     H76104   1.293  12.198   6.558 -2.7349  3.3648  1.8360
  564MOL0     H76105   1.136  12.363   6.586 -1.2334  2.0119 -2.8519
  564MOL0     H76106   0.792  12.363   6.298 -4.6106 -2.4719 -0.3298
  564MOL0     H76107   0.735  12.277   6.437 -3.1803  1.4044 -1.5920
  564MOL0     H76108   0.694  12.542   6.525 -2.7257  2.3897 -0.9123
  564MOL0     H76109   0.667  12.543   6.350 -2.6571 -2.1126 -0.2374
  564MOL0     H76110   0.540  12.357   6.555  2.9468 -1.2621 -0.8507
  564MOL0     H76111   0.505  12.356   6.383 -0.2050  1.3349 -1.0982
  564MOL0     H76112   0.450  12.616   6.554 -0.0547  0.1252  0.6654
  564MOL0     H76113   0.410  12.566   6.385  2.1350  0.8850  0.2423
  564MOL0     H76114   0.245  12.552   6.575 -2.0698 -2.0959  1.4534
  564MOL0     H76115   0.315  12.411   6.643 -1.6396  3.6925  2.6840
  564MOL0     H76116   0.203  12.464   6.377 -2.5989  2.1228  3.1395
  564MOL0     H76117   0.300  12.312   6.402  0.4632 -0.7415  0.6537
  564MOL0     H76118   0.057  12.398   6.578 -0.9329 -1.7139  0.2941
  564MOL0     H76119   0.150  12.255   6.595 -1.3151 -0.1449  1.5181
  564MOL0     H76120  -0.074  12.208   6.482 -1.1089  1.0015  0.0651
  564MOL0     H76121   0.074  12.174   6.383  1.0560  0.0864  0.0665
  564MOL0     H76122   0.897  12.185   6.274  2.3834  2.5960 -3.2167
  564MOL0     H76123   1.081  12.034   6.228  1.9676  3.0801 -1.6399
  564MOL0     H76124   1.624  11.918   6.288  0.0574  0.2541 -0.5198
  564MOL0     H76125   1.720  11.731   6.177 -0.6426 -0.3037  0.9217
  564MOL0     H76126   2.055  11.126   5.018  2.6175  2.0470 -0.3797
  564MOL0     H76127   2.144  10.968   5.166 -3.8196  0.8762 -0.0823
  564MOL0     H76128   2.524  10.649   5.082 -3.5685 -0.0921 -0.3883
  564MOL0     H76129   2.723  10.521   5.203  0.1658  0.4265 -0.3285
  564MOL0     H76130   2.695  10.422   5.626  0.6815  0.6858 -0.2536
  564MOL0     H76131   2.652  10.278   5.533  1.6526 -0.8544  2.8552
  564MOL0     H76132   2.940  10.375   5.570 -3.5351  3.4917 -0.9774
  564MOL0     H76133   2.881  10.224   5.502  0.2764 -2.1515  2.0249
  564MOL0     H76134   2.919  10.126   5.698  1.2760 -0.0790  2.6737
  564MOL0     H76135   2.767  10.208   5.749  0.5675 -1.0979  2.6253
  564MOL0     H76136   2.889  10.403   5.834 -1.7632 -0.3132 -2.3456
  564MOL0     H76137   3.044  10.353   5.775  0.7550  0.4846  1.4584
  564MOL0     H76138   3.026  10.159   6.149 -2.2703 -1.3214 -0.1598
  564MOL0     H76139   2.486  10.500   5.553 -2.8517 -0.9445  0.5478
  564MOL0     H76140   2.322  10.613   5.476  2.0919 -2.6818  2.7924
  565MOL0     O76141   0.682   2.921  10.638  0.1960 -1.4026 -0.5120
  565MOL0     C76142   0.666   2.980  10.529 -0.8773  0.1520 -0.3661
  565MOL0     O76143   0.555   3.041  10.487  0.1557 -0.0653 -0.1655
  565MOL0     C76144   0.463   3.065  10.580 -0.9313 -0.5468  0.2434
  565MOL0     C76145   0.449   3.198  10.615  0.6443  0.3864  0.4187
  565MOL0     C76146   0.344   3.227  10.703  0.3473  0.1780  0.1846
  565MOL0     C76147   0.254   3.139  10.758  0.7864 -0.7933 -0.0068
  565MOL0     O76148   0.135   3.182  10.809  0.3282 -0.0723  0.2350
  565MOL0     C76149   0.155   3.246  10.933  0.4655 -0.3600  0.2671
  565MOL0     C76150   0.043   3.352  10.960 -0.6484 -0.0411  0.4158
  565MOL0     C76151   0.030   3.453  10.848  1.5879  0.7939  0.3755
  565MOL0     C76152   0.136   3.563  10.845 -0.5673  0.0559 -0.0770
  565MOL0     C76153   0.125   3.685  10.758  0.0914  0.1884  0.2130
  565MOL0     C76154   0.015   3.782  10.794  0.3298 -0.3898 -0.5765
  565MOL0     C76155   0.009   3.873  10.668 -0.7212 -0.0928 -0.1583
  565MOL0     C76156  -0.075   3.811  10.550  0.6658 -0.0947  1.3017
  565MOL0     N76157  -0.222   3.814  10.571  0.5548 -0.1534 -0.1437
  565MOL0     C76158  -0.307   3.918  10.611 -0.0356 -0.2993 -0.6978
  565MOL0     C76159  -0.431   3.876  10.584  0.6967  0.0883  0.6148
  565MOL0     C76160  -0.560   3.951  10.618 -0.6958  1.1371  0.2019
  565MOL0     C76161  -0.555   4.099  10.571  0.0392  0.8896  0.1256
  565MOL0     C76162  -0.681   4.153  10.501 -0.2445 -0.2258 -0.2214
  565MOL0     C76163  -0.676   4.308  10.486  0.4097 -0.0543  0.6209
  565MOL0     O76164  -0.557   4.360  10.417  0.0786 -0.7957 -0.2095
  565MOL0     C76165  -0.575   4.397  10.291  0.0508  0.1356  0.3174
  565MOL0     C76166  -0.658   4.329  10.195 -0.0622 -0.4331 -0.3166
  565MOL0     C76167  -0.676   4.378  10.065  0.2654  0.4125 -0.7438
  565MOL0     C76168  -0.765   4.296   9.980 -0.7743 -0.5654 -0.2312
  565MOL0     C76169  -0.628   4.503  10.034  0.6409 -0.1812  0.0161
  565MOL0     C76170  -0.631   4.566   9.903  0.3699  1.2261 -0.5427
  565MOL0     O76171  -0.643   4.698   9.906 -0.1535 -0.4733 -0.3860
  565MOL0     C76172  -0.626   4.778   9.800  0.5935  0.2195  1.2728
  565MOL0     C76173  -0.530   4.879   9.810 -0.0066  0.6016  1.5898
  565MOL0     C76174  -0.505   4.962   9.693 -0.3454  0.0503 -0.0703
  565MOL0     C76175  -0.576   4.945   9.574  0.2481 -0.6736  0.0533
  565MOL0     O76176  -0.548   5.043   9.482  0.6505  0.7983  0.5340
  565MOL0     C76177  -0.662   5.079   9.398 -0.6287 -0.2482  0.7877
  565MOL0     C76178  -0.675   5.230   9.382 -0.1050 -0.7070 -0.5817
  565MOL0     C76179  -0.689   5.305   9.522  0.2690  0.8030  0.9272
  565MOL0     C76180  -0.820   5.268   9.594 -0.6370  0.0002 -0.5287
  565MOL0     C76181  -0.810   5.321   9.742  0.3620  0.1977 -0.6546
  565MOL0     C76182  -0.739   5.222   9.833  0.3017  0.7249  0.3028
  565MOL0     C76183  -0.728   5.241   9.978  0.3468 -0.1996  0.6540
  565MOL0     C76184  -0.660   5.137  10.079  0.3266  0.4392  0.3596
  565MOL0    Cl76185  -0.751   4.983  10.051 -0.0273 -0.2063 -0.0917
  565MOL0     C76186  -0.677   4.847   9.565 -0.6195 -0.1455 -0.3716
  565MOL0     C76187  -0.700   4.766   9.678  0.2108 -0.7127 -0.4162
  565MOL0     O76188  -0.626   4.502   9.796  0.5048  0.2473  0.7162
  565MOL0     C76189  -0.532   4.556  10.124 -0.0286  0.0160  1.1236
  565MOL0     C76190  -0.505   4.501  10.240  0.5341 -0.0912  0.6373
  565MOL0     N76191  -0.425   3.759  10.526 -0.6756  0.3541 -0.0026
  565MOL0     N76192  -0.308   3.716  10.523 -0.0503  0.0196 -0.2166
  565MOL0     C76193   0.278   3.008  10.725 -0.3228  1.0281  1.1912
  565MOL0     C76194   0.387   2.966  10.640  0.3607 -0.2120  0.4577
  565MOL0     C76195   0.772   2.959  10.419  0.4760  0.7875 -0.1991
  565MOL0     C76196   0.871   2.855  10.431  1.0855 -0.9885  0.6351
  565MOL0     C76197   0.966   2.829  10.334 -1.1533  0.1200  0.4025
  565MOL0     C76198   0.962   2.900  10.216 -0.7255 -0.7722  0.3442
  565MOL0     O76199   1.057   2.902  10.113  0.3327 -0.0989 -0.0485
  565MOL0     C76200   1.157   2.798  10.107  0.9048  0.8041  1.0456
  565MOL0     C76201   1.264   2.838  10.009 -0.2653  0.3853 -0.4691
  565MOL0     C76202   1.366   2.943  10.059 -0.3196 -0.0974 -0.2841
  565MOL0     C76203   1.509   2.897  10.042 -0.9063  0.6997  0.1834
  565MOL0     C76204   1.553   2.914   9.902  0.5035  0.6154 -0.4473
  565MOL0     C76205   1.560   2.943   9.786 -1.4516  0.8601  0.5195
  565MOL0     C76206   0.856   2.990  10.186  1.4642 -0.3792 -0.4939
  565MOL0     C76207   0.760   3.020  10.302  0.0514  0.2195 -0.3232
  565MOL0     H76208   0.509   3.272  10.562  1.9060 -1.0975 -0.3213
  565MOL0     H76209   0.321   3.333  10.715  1.5711  0.7814 -2.2781
  565MOL0     H76210   0.136   3.175  11.014  1.8314 -2.6861 -1.3489
  565MOL0     H76211   0.252   3.294  10.953 -0.5445  0.6693  3.2637
  565MOL0     H76212  -0.051   3.298  10.951 -0.7556  0.4791 -3.5636
  565MOL0     H76213   0.045   3.409  11.053 -4.5985  1.2309 -0.0980
  565MOL0     H76214   0.006   3.407  10.752 -1.3464  0.2023  1.3111
  565MOL0     H76215  -0.069   3.494  10.872 -0.7698 -4.3586  0.6320
  565MOL0     H76216   0.159   3.592  10.948 -0.4633 -2.5883  0.7237
  565MOL0     H76217   0.222   3.509  10.802  0.5668 -0.7165  2.9419
  565MOL0     H76218   0.213   3.746  10.780 -0.5682  0.5727  1.8985
  565MOL0     H76219   0.119   3.646  10.656 -1.9835 -1.4980  0.9142
  565MOL0     H76220  -0.085   3.739  10.808  0.9952 -2.3014 -1.3623
  565MOL0     H76221   0.054   3.825  10.886 -0.7947 -1.1209  0.2717
  565MOL0     H76222  -0.020   3.977  10.682  0.2319  0.0740  0.6890
  565MOL0     H76223   0.112   3.894  10.637 -0.1414 -0.1511  1.6228
  565MOL0     H76224  -0.041   3.708  10.536  0.0535 -0.2206  0.6919
  565MOL0     H76225  -0.050   3.873  10.464  0.1964  0.5108  1.5885
  565MOL0     H76226  -0.272   4.006  10.664 -1.4929 -0.3648  0.4229
  565MOL0     H76227  -0.644   3.896  10.574  1.0741  2.5697 -5.9901
  565MOL0     H76228  -0.565   3.958  10.727 -2.6460  0.8603  0.1659
  565MOL0     H76229  -0.468   4.119  10.509 -0.1071  1.3245  0.0564
  565MOL0     H76230  -0.549   4.166  10.658  3.5457 -0.1360  0.8457
  565MOL0     H76231  -0.765   4.136  10.569  1.5769 -3.5894  1.4520
  565MOL0     H76232  -0.698   4.098  10.408 -0.8775 -1.2533  0.4826
  565MOL0     H76233  -0.673   4.355  10.585  1.6897 -1.1242  1.1137
  565MOL0     H76234  -0.776   4.324  10.443 -0.6128 -2.1447  2.0769
  565MOL0     H76235  -0.710   4.236  10.217 -1.3544  0.3617  0.0615
  565MOL0     H76236  -0.864   4.340   9.995 -0.9832 -1.9533  3.7594
  565MOL0     H76237  -0.731   4.298   9.876  2.5119 -0.1230  0.7231
  565MOL0     H76238  -0.775   4.193  10.015 -0.1217 -0.6261 -0.2031
  565MOL0     H76239  -0.474   4.892   9.902 -1.6070  2.5820  2.3792
  565MOL0     H76240  -0.432   5.040   9.676  0.7634 -0.9849 -0.1923
  565MOL0     H76241  -0.633   5.049   9.296 -1.2998  2.2129 -0.1937
  565MOL0     H76242  -0.758   5.034   9.424 -0.6704 -0.3704  0.4344
  565MOL0     H76243  -0.587   5.272   9.334 -1.1564  1.9111 -0.3642
  565MOL0     H76244  -0.754   5.255   9.311 -1.3074  1.6121  1.4221
  565MOL0     H76245  -0.677   5.413   9.515  0.3929  0.7088 -0.7293
  565MOL0     H76246  -0.606   5.266   9.582  0.3614 -0.3266  0.0932
  565MOL0     H76247  -0.905   5.316   9.545 -1.0347  0.2627  0.3906
  565MOL0     H76248  -0.833   5.160   9.583  1.9576 -0.2800 -1.5279
  565MOL0     H76249  -0.908   5.306   9.786  1.0740 -1.6829  0.3716
  565MOL0     H76250  -0.760   5.418   9.755  0.7232 -0.0604 -0.0669
  565MOL0     H76251  -0.778   5.122   9.811 -1.1788  1.6721 -1.7645
  565MOL0     H76252  -0.634   5.227   9.803  0.1675  1.3566 -0.0864
  565MOL0     H76253  -0.832   5.241  10.012  0.0543 -0.4472 -0.2060
  565MOL0     H76254  -0.679   5.337   9.995  3.6346 -1.5232 -0.6099
  565MOL0     H76255  -0.667   5.166  10.184  0.1837  0.5042  0.3333
  565MOL0     H76256  -0.560   5.129  10.037 -0.3301 -0.3499 -1.1577
  565MOL0     H76257  -0.734   4.826   9.475 -1.0826 -1.5276  0.2202
  565MOL0     H76258  -0.776   4.692   9.654 -1.0443  0.6103 -0.6626
  565MOL0     H76259  -0.474   4.641  10.090 -1.1791  0.3820 -0.0088
  565MOL0     H76260  -0.433   4.552  10.302  1.7571 -1.7119  0.6039
  565MOL0     H76261   0.214   2.930  10.764  1.8568 -2.3279 -1.3026
  565MOL0     H76262   0.413   2.863  10.620  2.7537  0.4512 -0.1995
  565MOL0     H76263   0.881   2.795  10.522  1.6100  1.1795  2.0769
  565MOL0     H76264   1.050   2.762  10.351  1.6960  3.5130  0.7548
  565MOL0     H76265   1.195   2.775  10.207 -0.2809 -1.3901  1.0566
  565MOL0     H76266   1.118   2.707  10.062 -0.8618  1.3972  1.3172
  565MOL0     H76267   1.226   2.870   9.912 -0.7855  0.3640 -0.2738
  565MOL0     H76268   1.317   2.751   9.968 -0.0943  2.5117 -5.4524
  565MOL0     H76269   1.334   2.977  10.158  1.9867  1.9975 -0.1536
  565MOL0     H76270   1.353   3.040  10.010  1.8095  1.2144  1.5075
  565MOL0     H76271   1.517   2.793  10.076  3.9202  1.0225  0.7162
  565MOL0     H76272   1.580   2.954  10.103 -1.1185  0.6248  0.5060
  565MOL0     H76273   1.571   2.985   9.688  1.5170 -1.5314 -0.3262
  565MOL0     H76274   0.827   3.025  10.087 -0.6593  0.6035  0.4257
  565MOL0     H76275   0.669   3.078  10.283 -0.5700  0.1797  2.2231
  566MOL0     O76276   5.625   7.450   3.060  0.0602  0.4525 -0.2400
  566MOL0     C76277   5.544   7.495   2.986 -0.5517 -0.5643  0.2821
  566MOL0     O76278   5.471   7.617   3.008  0.5814  0.7518 -0.2353
  566MOL0     C76279   5.519   7.718   3.091  0.0435 -0.0854 -0.0639
  566MOL0     C76280   5.655   7.739   3.130 -0.9736 -0.7423  0.2615
  566MOL0     C76281   5.681   7.820   3.229 -1.1298 -0.9399 -0.1867
  566MOL0     C76282   5.587   7.893   3.300  0.4372  0.3164  1.0390
  566MOL0     O76283   5.619   7.995   3.382 -0.2737  0.0748 -1.3249
  566MOL0     C76284   5.743   8.060   3.362 -1.6141 -0.1230  0.5788
  566MOL0     C76285   5.757   8.210   3.393  0.6085  0.3700  0.0009
  566MOL0     C76286   5.685   8.240   3.524 -1.6935 -0.7397 -1.0803
  566MOL0     C76287   5.681   8.398   3.545 -0.3621 -0.2544  0.0928
  566MOL0     C76288   5.622   8.409   3.686 -0.2259 -0.6566 -0.7445
  566MOL0     C76289   5.731   8.421   3.798  0.6722  0.2812 -0.0994
  566MOL0     C76290   5.666   8.453   3.936  0.3720 -0.0801  0.2543
  566MOL0     C76291   5.632   8.326   4.010  0.3865 -0.3071  0.0278
  566MOL0     N76292   5.622   8.361   4.157  0.2623 -0.2267  0.2965
  566MOL0     C76293   5.507   8.391   4.240  0.6140  0.1548  0.8284
  566MOL0     C76294   5.563   8.416   4.357 -0.7100  1.3304  0.6476
  566MOL0     C76295   5.486   8.444   4.490 -0.3006 -0.0960  0.2483
  566MOL0     C76296   5.569   8.416   4.604 -0.4816  0.9082 -0.0574
  566MOL0     C76297   5.505   8.435   4.743 -0.0116 -0.5498 -0.3235
  566MOL0     C76298   5.595   8.376   4.858  0.4928 -0.3283  0.6198
  566MOL0     O76299   5.524   8.380   4.986  0.0316 -0.5745  0.8768
  566MOL0     C76300   5.518   8.264   5.065  0.4664 -0.5313 -0.5665
  566MOL0     C76301   5.412   8.263   5.165 -0.0520  0.5478  1.2933
  566MOL0     C76302   5.415   8.171   5.268  0.4062  0.6530  0.1567
  566MOL0     C76303   5.297   8.179   5.370  0.8732  0.7178  0.9496
  566MOL0     C76304   5.523   8.074   5.272  0.0256 -0.0247  1.0364
  566MOL0     C76305   5.535   7.970   5.383 -0.2321 -0.2719  0.1789
  566MOL0     O76306   5.506   8.002   5.504 -0.8420 -0.3345 -0.5479
  566MOL0     C76307   5.514   7.915   5.609  0.6370  0.7647 -0.7335
  566MOL0     C76308   5.401   7.919   5.689 -0.2739  1.2875 -0.2064
  566MOL0     C76309   5.408   7.840   5.810 -0.0049  0.4909  1.3712
  566MOL0     C76310   5.522   7.766   5.846 -0.8435 -0.9060 -0.6664
  566MOL0     O76311   5.504   7.698   5.964 -0.0395  0.1286  1.0526
  566MOL0     C76312   5.622   7.667   6.040 -1.1814 -0.0727  0.7516
  566MOL0     C76313   5.578   7.592   6.160  0.3313  0.0848 -0.7053
  566MOL0     C76314   5.578   7.691   6.283 -0.1539 -0.6537 -0.4076
  566MOL0     C76315   5.447   7.759   6.317  0.2336  0.7663  0.1019
  566MOL0     C76316   5.435   7.897   6.243  0.4700  0.4668 -0.0773
  566MOL0     C76317   5.300   7.965   6.284  1.0388 -0.9201  0.2382
  566MOL0     C76318   5.298   8.110   6.236 -0.2633 -0.9066 -0.2465
  566MOL0     C76319   5.168   8.180   6.277 -0.1045 -0.3589 -0.6263
  566MOL0    Cl76320   5.015   8.104   6.216 -0.0494 -0.2308 -0.0928
  566MOL0     C76321   5.636   7.776   5.768 -0.5018  0.2345 -0.0901
  566MOL0     C76322   5.635   7.850   5.651  0.9787 -0.1910  0.5910
  566MOL0     O76323   5.545   7.859   5.340 -0.2480 -0.7162 -0.0322
  566MOL0     C76324   5.624   8.077   5.179  0.7238 -0.3898 -0.0822
  566MOL0     C76325   5.620   8.165   5.069  0.6529  0.6639  0.5000
  566MOL0     N76326   5.702   8.401   4.351 -1.1638 -0.5188  0.3421
  566MOL0     N76327   5.739   8.378   4.227 -0.0686 -1.2245 -0.5666
  566MOL0     C76328   5.464   7.882   3.266  1.0477 -0.4377  0.3902
  566MOL0     C76329   5.417   7.791   3.164 -0.3665 -0.0440 -0.5923
  566MOL0     C76330   5.513   7.416   2.868 -0.3945  0.4522  1.1213
  566MOL0     C76331   5.598   7.318   2.813 -0.0061 -0.2265  0.6888
  566MOL0     C76332   5.561   7.244   2.699  1.1274  0.2967  0.0300
  566MOL0     C76333   5.425   7.251   2.643 -0.3001  0.0778  0.4863
  566MOL0     O76334   5.388   7.157   2.546  0.3602 -1.0574 -0.2610
  566MOL0     C76335   5.257   7.127   2.509 -0.0621 -0.4612  0.1003
  566MOL0     C76336   5.217   7.168   2.369  0.4621  0.4504  0.1034
  566MOL0     C76337   5.325   7.259   2.300 -0.1171  0.9029  0.0079
  566MOL0     C76338   5.280   7.314   2.165 -0.8656 -0.7105  0.1973
  566MOL0     C76339   5.261   7.460   2.172  0.5358  0.9681 -0.9890
  566MOL0     C76340   5.246   7.581   2.185  0.3680 -0.2762  0.5771
  566MOL0     C76341   5.340   7.337   2.712 -0.7537  0.9308  0.1995
  566MOL0     C76342   5.386   7.425   2.812  0.1310 -0.0239  0.2313
  566MOL0     H76343   5.741   7.684   3.091  1.7463  1.3026  2.9214
  566MOL0     H76344   5.781   7.829   3.270 -1.9832  0.9071  1.6367
  566MOL0     H76345   5.816   8.017   3.431 -1.6945 -0.0058  0.7379
  566MOL0     H76346   5.777   8.049   3.258 -0.4873  1.5781  0.7315
  566MOL0     H76347   5.862   8.235   3.405  0.2205  2.1182  0.0055
  566MOL0     H76348   5.714   8.278   3.319  3.0840  2.1577  0.1162
  566MOL0     H76349   5.583   8.203   3.514 -1.7990 -0.1280 -2.5089
  566MOL0     H76350   5.736   8.199   3.612  2.8264  3.0957 -1.5228
  566MOL0     H76351   5.776   8.448   3.529 -1.3600  1.9974  0.7777
  566MOL0     H76352   5.602   8.428   3.476  1.3554  0.2017 -1.7597
  566MOL0     H76353   5.567   8.503   3.676 -0.0993 -0.2404  1.7810
  566MOL0     H76354   5.548   8.333   3.715  2.9262 -3.0718  1.6509
  566MOL0     H76355   5.776   8.322   3.808 -3.0637 -1.5510  0.3614
  566MOL0     H76356   5.798   8.502   3.768  1.9567 -1.5515 -2.6063
  566MOL0     H76357   5.746   8.500   3.994 -1.2677  5.9765 -1.7441
  566MOL0     H76358   5.583   8.524   3.929 -0.3111 -0.8900 -0.1057
  566MOL0     H76359   5.709   8.250   3.992 -0.2046 -0.9843  0.2989
  566MOL0     H76360   5.536   8.283   3.980 -0.1421 -0.2470  1.5485
  566MOL0     H76361   5.404   8.377   4.208  1.1141 -2.6689  0.2317
  566MOL0     H76362   5.467   8.551   4.478  1.7818  0.1990 -1.0553
  566MOL0     H76363   5.393   8.388   4.488 -0.7463  0.6396 -0.7421
  566MOL0     H76364   5.666   8.466   4.597 -0.5113  0.8962 -0.5595
  566MOL0     H76365   5.589   8.309   4.599 -0.0806  1.0098 -0.6369
  566MOL0     H76366   5.404   8.392   4.743 -1.2075  1.8499  2.8802
  566MOL0     H76367   5.492   8.544   4.748 -0.2532 -0.6079  0.4684
  566MOL0     H76368   5.692   8.425   4.869  2.5278 -4.2436  1.8544
  566MOL0     H76369   5.619   8.274   4.827 -1.5843 -2.0594  4.0582
  566MOL0     H76370   5.329   8.333   5.153 -0.8646 -0.0017  3.3145
  566MOL0     H76371   5.205   8.217   5.326 -0.7184 -0.9176  2.6872
  566MOL0     H76372   5.265   8.076   5.388 -1.4180  0.9711 -1.1694
  566MOL0     H76373   5.335   8.221   5.463  1.6133  0.3698  0.8184
  566MOL0     H76374   5.302   7.961   5.669 -0.1665  2.1128  0.8879
  566MOL0     H76375   5.323   7.851   5.877 -1.9038 -2.3498 -0.3501
  566MOL0     H76376   5.689   7.601   5.984 -2.9367 -3.7203  2.5773
  566MOL0     H76377   5.675   7.759   6.067  2.0526 -1.6565  0.3025
  566MOL0     H76378   5.479   7.545   6.155  0.9967 -1.4306 -0.2325
  566MOL0     H76379   5.650   7.514   6.187  2.2014  2.5446  1.9632
  566MOL0     H76380   5.667   7.753   6.274 -0.4770 -0.2753 -1.0118
  566MOL0     H76381   5.598   7.628   6.371 -2.8145 -0.1352  0.6534
  566MOL0     H76382   5.364   7.696   6.286  1.7922 -1.0368 -0.5991
  566MOL0     H76383   5.432   7.784   6.423 -3.3048  0.3188 -0.1662
  566MOL0     H76384   5.434   7.880   6.135 -0.4590 -2.6587  0.3298
  566MOL0     H76385   5.528   7.954   6.251  1.8043 -1.3061 -1.8961
  566MOL0     H76386   5.210   7.915   6.247  0.6530 -0.6541  0.8157
  566MOL0     H76387   5.310   7.971   6.393  2.6939 -0.6747  0.1001
  566MOL0     H76388   5.310   8.112   6.127 -3.1989 -3.7230 -0.7997
  566MOL0     H76389   5.372   8.162   6.296 -1.4037  2.0938 -1.2521
  566MOL0     H76390   5.159   8.285   6.248 -1.8170 -0.6440 -1.2820
  566MOL0     H76391   5.149   8.188   6.385  1.4466  0.7307 -0.4101
  566MOL0     H76392   5.725   7.727   5.808 -1.1923  0.9485  2.5411
  566MOL0     H76393   5.722   7.866   5.588 -0.5700  0.3044 -1.5363
  566MOL0     H76394   5.707   8.010   5.200  0.8454  0.4772  2.6383
  566MOL0     H76395   5.702   8.166   4.998  1.1574 -2.8493  0.8130
  566MOL0     H76396   5.390   7.934   3.325 -0.0364 -0.0339 -1.2361
  566MOL0     H76397   5.317   7.757   3.140 -0.1232 -0.2735 -1.3281
  566MOL0     H76398   5.699   7.302   2.850  2.7838  0.7307 -5.3763
  566MOL0     H76399   5.625   7.171   2.651  0.1559 -1.1055  0.7985
  566MOL0     H76400   5.258   7.018   2.493  1.7815 -1.2447  4.2741
  566MOL0     H76401   5.173   7.157   2.572 -0.5758  1.2152 -1.2966
  566MOL0     H76402   5.131   7.233   2.385  2.1187  2.3628  1.8683
  566MOL0     H76403   5.200   7.079   2.307  0.7270  0.7498 -0.4081
  566MOL0     H76404   5.416   7.201   2.285 -1.0992 -0.0876 -2.8391
  566MOL0     H76405   5.348   7.337   2.372  2.3022 -1.5558  2.1399
  566MOL0     H76406   5.184   7.272   2.134 -4.2354  3.1742  4.0672
  566MOL0     H76407   5.349   7.281   2.087 -2.6598 -0.7011 -1.4902
  566MOL0     H76408   5.247   7.688   2.187  0.1546 -0.2785  0.9043
  566MOL0     H76409   5.245   7.351   2.662 -0.0180 -1.7050 -2.2655
  566MOL0     H76410   5.318   7.499   2.855 -0.0679  0.3861 -0.7704
  567MOL0     O76411   8.339   7.424   2.833  0.6579 -0.6194 -0.2822
  567MOL0     C76412   8.461   7.413   2.838  0.4129 -0.3699  0.3225
  567MOL0     O76413   8.542   7.404   2.719 -1.1043 -0.4894 -0.9289
  567MOL0     C76414   8.491   7.483   2.626 -0.2627  0.2855  0.5728
  567MOL0     C76415   8.550   7.609   2.604 -0.8241  0.2602 -0.2115
  567MOL0     C76416   8.488   7.701   2.516 -0.9699  0.2038 -0.6636
  567MOL0     C76417   8.400   7.645   2.431 -0.7947  0.8267  0.2279
  567MOL0     O76418   8.341   7.722   2.328 -0.7473 -0.8187  0.8478
  567MOL0     C76419   8.420   7.828   2.263 -0.0950  0.4384 -0.3740
  567MOL0     C76420   8.336   7.900   2.161  1.1486 -0.8562 -0.6405
  567MOL0     C76421   8.221   7.980   2.229  0.4430 -1.5545 -0.1847
  567MOL0     C76422   8.257   8.123   2.274 -0.3113  0.4027 -0.2912
  567MOL0     C76423   8.149   8.216   2.325 -0.0706  0.4255 -0.0511
  567MOL0     C76424   8.202   8.354   2.353 -0.3578 -0.2062  0.2962
  567MOL0     C76425   8.093   8.457   2.371  0.6696 -0.6389 -0.1293
  567MOL0     C76426   8.022   8.503   2.255  1.2184 -0.7456 -0.3102
  567MOL0     N76427   7.939   8.628   2.276 -0.1996 -0.8382 -0.1273
  567MOL0     C76428   7.967   8.763   2.238 -0.9786  0.0192  0.0543
  567MOL0     C76429   7.860   8.829   2.292 -0.4297 -0.0212  0.1741
  567MOL0     C76430   7.821   8.974   2.265 -0.9791  0.7786  0.6521
  567MOL0     C76431   7.816   9.070   2.383  0.6553  1.4367 -1.3013
  567MOL0     C76432   7.809   9.221   2.358  0.1111  0.8303 -0.1813
  567MOL0     C76433   7.764   9.295   2.481 -1.0439 -0.1923  0.3580
  567MOL0     O76434   7.765   9.431   2.431  0.2635 -0.7391 -0.1988
  567MOL0     C76435   7.773   9.539   2.515 -0.2984 -0.0945 -0.9852
  567MOL0     C76436   7.748   9.670   2.465 -0.4694  0.5867 -0.2301
  567MOL0     C76437   7.723   9.774   2.556 -0.1368  0.2741 -0.5221
  567MOL0     C76438   7.671   9.909   2.497  0.3146  1.2464 -0.2480
  567MOL0     C76439   7.744   9.751   2.696 -1.1276 -0.2550 -0.8803
  567MOL0     C76440   7.720   9.851   2.808 -0.6999  0.7715 -0.2184
  567MOL0     O76441   7.647   9.812   2.917 -0.2157 -0.1720 -0.2554
  567MOL0     C76442   7.512   9.782   2.877 -0.0291 -0.2828 -0.3979
  567MOL0     C76443   7.429   9.876   2.814 -0.0675  0.0101 -0.7282
  567MOL0     C76444   7.297   9.853   2.786  0.5197  0.0029  0.7907
  567MOL0     C76445   7.232   9.738   2.830  0.4543  0.5070  0.3910
  567MOL0     O76446   7.098   9.703   2.817  0.1370 -0.9775 -0.9885
  567MOL0     C76447   7.015   9.799   2.746 -0.5106  0.1507 -0.7671
  567MOL0     C76448   6.858   9.760   2.755 -0.1781 -0.2470 -1.2501
  567MOL0     C76449   6.822   9.737   2.907 -0.7870 -0.1161 -0.7664
  567MOL0     C76450   6.675   9.706   2.947  0.9812 -0.8738  0.1770
  567MOL0     C76451   6.654   9.604   3.057  0.1249  0.7989  0.2633
  567MOL0     C76452   6.687   9.658   3.210  0.1639  0.4514 -0.3251
  567MOL0     C76453   6.828   9.704   3.250  0.4808  0.7969 -0.1847
  567MOL0     C76454   6.854   9.768   3.394  0.9948  0.2391  0.3097
  567MOL0    Cl76455   6.791   9.943   3.399  0.3509 -0.1470 -0.1193
  567MOL0     C76456   7.315   9.646   2.887 -0.9510  0.6302 -0.0828
  567MOL0     C76457   7.450   9.668   2.918 -0.3464  0.6268  0.3543
  567MOL0     O76458   7.749   9.968   2.783 -0.4085  0.5198 -0.4268
  567MOL0     C76459   7.786   9.626   2.744 -0.0769 -0.0728 -0.4522
  567MOL0     C76460   7.792   9.523   2.649 -0.7897  0.6940 -0.1012
  567MOL0     N76461   7.775   8.737   2.356  0.0134  0.3641  0.0371
  567MOL0     N76462   7.819   8.617   2.336  0.1581 -0.6776 -0.2367
  567MOL0     C76463   8.354   7.514   2.441 -0.3045 -0.4263  0.2604
  567MOL0     C76464   8.409   7.428   2.534  0.6929 -0.6574  0.8034
  567MOL0     C76465   8.522   7.389   2.962 -0.9826 -0.8402  0.0497
  567MOL0     C76466   8.660   7.342   2.962 -0.1788 -0.3731  0.2481
  567MOL0     C76467   8.718   7.283   3.078  0.5533  0.0695  0.2160
  567MOL0     C76468   8.651   7.293   3.201 -0.7879 -0.4966  1.1869
  567MOL0     O76469   8.692   7.239   3.317 -0.0781  0.8124  0.1703
  567MOL0     C76470   8.832   7.246   3.345 -0.7196  0.7236 -0.8117
  567MOL0     C76471   8.866   7.168   3.475  0.3065 -0.6286 -0.5221
  567MOL0     C76472   8.811   7.248   3.599  0.6945 -0.5049 -0.4245
  567MOL0     C76473   8.824   7.165   3.733 -0.3796 -0.3017  0.6013
  567MOL0     C76474   8.968   7.177   3.768  0.4139  0.7267 -0.3076
  567MOL0     C76475   9.075   7.206   3.814  0.4356 -0.1355  0.8381
  567MOL0     C76476   8.535   7.362   3.201  0.0195  0.0965  0.8130
  567MOL0     C76477   8.462   7.398   3.088 -0.3247  0.3684  0.1963
  567MOL0     H76478   8.624   7.639   2.678 -2.0074 -1.0934  1.6212
  567MOL0     H76479   8.522   7.804   2.518  1.4648 -0.5488 -0.1067
  567MOL0     H76480   8.453   7.907   2.330  0.6352  1.7116 -2.1501
  567MOL0     H76481   8.501   7.774   2.212  0.3707  0.5824  0.1933
  567MOL0     H76482   8.392   7.965   2.093 -1.6273  2.0153 -0.4234
  567MOL0     H76483   8.276   7.826   2.108 -1.1175  0.9914 -0.8025
  567MOL0     H76484   8.128   7.982   2.173 -2.6336  1.9631  4.3471
  567MOL0     H76485   8.190   7.933   2.323 -0.7637 -1.0346 -0.3121
  567MOL0     H76486   8.337   8.103   2.345  0.4475  1.5381 -0.8019
  567MOL0     H76487   8.310   8.170   2.191 -0.1277  1.7155  0.5401
  567MOL0     H76488   8.078   8.214   2.241  1.0054 -0.9054 -0.9655
  567MOL0     H76489   8.100   8.163   2.407 -2.8952  1.9593 -0.5913
  567MOL0     H76490   8.273   8.355   2.436  0.5899  1.4035 -0.5031
  567MOL0     H76491   8.265   8.374   2.266  1.9470 -2.7617  1.2292
  567MOL0     H76492   8.023   8.406   2.438 -2.1386  2.3456 -0.5257
  567MOL0     H76493   8.131   8.540   2.432 -0.9453 -0.7539  1.1147
  567MOL0     H76494   7.954   8.427   2.216  0.8916  0.1426 -1.5151
  567MOL0     H76495   8.091   8.520   2.171  0.3816 -2.6435 -1.4664
  567MOL0     H76496   8.052   8.805   2.185 -2.3533 -1.8178 -4.1056
  567MOL0     H76497   7.883   9.014   2.184 -3.0596 -0.0116 -1.4624
  567MOL0     H76498   7.717   8.956   2.234 -0.7739 -0.3919  0.5773
  567MOL0     H76499   7.896   9.031   2.447  2.1533 -1.6924 -4.7486
  567MOL0     H76500   7.728   9.047   2.445 -0.7057  0.1393 -3.6005
  567MOL0     H76501   7.730   9.236   2.284 -2.8321 -1.7386  2.1526
  567MOL0     H76502   7.905   9.256   2.319 -0.6045  1.1130 -1.7672
  567MOL0     H76503   7.828   9.278   2.568 -1.2474 -0.5219  0.4459
  567MOL0     H76504   7.661   9.263   2.503 -1.3701  0.5767  0.0080
  567MOL0     H76505   7.744   9.688   2.358  0.7734  1.1711 -0.2007
  567MOL0     H76506   7.756   9.968   2.463 -1.1837  3.5639 -0.1579
  567MOL0     H76507   7.604   9.888   2.413  1.7311  0.5465 -1.2480
  567MOL0     H76508   7.623   9.976   2.568  3.3593  2.4286  0.8520
  567MOL0     H76509   7.477   9.970   2.791  0.6314  0.8663  3.3499
  567MOL0     H76510   7.248   9.932   2.730 -0.0144  0.4319  1.8487
  567MOL0     H76511   7.040   9.900   2.780 -0.1071 -0.6389  1.4349
  567MOL0     H76512   7.058   9.801   2.645  1.3326  1.0087 -0.0078
  567MOL0     H76513   6.793   9.824   2.695  1.4569  0.5564 -2.2243
  567MOL0     H76514   6.844   9.662   2.710 -1.5942 -1.3366  1.3337
  567MOL0     H76515   6.855   9.826   2.963  1.0550 -2.5562  2.3656
  567MOL0     H76516   6.896   9.663   2.939  1.9574  1.5481 -2.7683
  567MOL0     H76517   6.616   9.794   2.970  2.1411 -0.2777  0.9678
  567MOL0     H76518   6.632   9.655   2.860 -0.8066  2.9244 -1.3932
  567MOL0     H76519   6.714   9.514   3.041  0.1469  0.2276  3.0940
  567MOL0     H76520   6.554   9.560   3.062  0.6803 -0.3208  3.0626
  567MOL0     H76521   6.612   9.735   3.230 -0.5985 -0.5455  0.8315
  567MOL0     H76522   6.652   9.575   3.272 -4.6202  1.4648 -1.2293
  567MOL0     H76523   6.848   9.777   3.172 -0.0352 -1.8731 -3.0268
  567MOL0     H76524   6.894   9.618   3.233 -2.4197 -1.6147 -0.1652
  567MOL0     H76525   6.959   9.771   3.426  1.2676  2.6871 -0.5927
  567MOL0     H76526   6.798   9.716   3.472 -1.5356  1.5713 -0.5263
  567MOL0     H76527   7.277   9.552   2.925  2.6069 -0.1625  1.9675
  567MOL0     H76528   7.494   9.588   2.978  0.9993  1.9257  1.1880
  567MOL0     H76529   7.801   9.602   2.849  3.0049 -3.2359 -1.4271
  567MOL0     H76530   7.806   9.424   2.691  1.4759  0.8506 -0.3398
  567MOL0     H76531   8.290   7.461   2.371 -1.9917  1.8917 -0.0648
  567MOL0     H76532   8.375   7.324   2.537  0.8367 -0.7583 -0.5299
  567MOL0     H76533   8.731   7.349   2.881 -1.3247 -1.1186 -0.8592
  567MOL0     H76534   8.813   7.230   3.076  0.7801  0.4680 -2.4394
  567MOL0     H76535   8.896   7.188   3.277  0.0202 -2.2185  2.1493
  567MOL0     H76536   8.862   7.352   3.344  1.2714  0.2435 -3.1636
  567MOL0     H76537   8.971   7.143   3.492  0.3906  0.5652  0.8076
  567MOL0     H76538   8.809   7.074   3.479 -0.0277 -0.3963  0.3786
  567MOL0     H76539   8.707   7.272   3.576  0.8368  2.5764  1.5459
  567MOL0     H76540   8.849   7.349   3.619  0.0469 -0.5074  0.9269
  567MOL0     H76541   8.787   7.063   3.717  1.2701 -0.8793  0.2916
  567MOL0     H76542   8.755   7.193   3.813  0.2290 -0.2531  1.1129
  567MOL0     H76543   9.175   7.239   3.836 -0.3076  1.5201  1.9297
  567MOL0     H76544   8.481   7.375   3.295 -0.0274 -3.8834  1.4952
  567MOL0     H76545   8.361   7.436   3.087 -0.9015 -0.9466 -2.4714
  568MOL0     O76546   2.443   8.237   9.530 -0.1310 -0.8684  0.0307
  568MOL0     C76547   2.514   8.336   9.567  0.3837  0.3320 -0.2409
  568MOL0     O76548   2.593   8.347   9.676 -1.1134  0.6140 -0.0001
  568MOL0     C76549   2.609   8.248   9.767 -0.0174 -0.2339  0.7845
  568MOL0     C76550   2.527   8.126   9.780 -0.5726 -0.5884  0.6308
  568MOL0     C76551   2.555   8.042   9.893 -0.5722 -0.2008 -0.6229
  568MOL0     C76552   2.663   8.061   9.972  0.0868  0.4288  0.0699
  568MOL0     O76553   2.678   7.979  10.075  0.5536  0.1301  0.8101
  568MOL0     C76554   2.800   7.977  10.153 -0.8982  0.0099  0.7468
  568MOL0     C76555   2.785   7.884  10.279 -0.3296  0.5212 -1.3739
  568MOL0     C76556   2.779   7.743  10.238 -0.3539  0.7947  0.3538
  568MOL0     C76557   2.781   7.659  10.366 -1.1275  0.0448 -0.9048
  568MOL0     C76558   2.787   7.506  10.327  0.0725  0.9918 -0.8269
  568MOL0     C76559   2.936   7.457  10.312  0.6111 -1.0649 -0.5021
  568MOL0     C76560   2.943   7.316  10.238  0.4937  0.3608  0.3177
  568MOL0     C76561   2.951   7.191  10.320  0.0769 -0.4423 -0.2222
  568MOL0     N76562   3.062   7.196  10.408 -0.5312  0.3756  0.3862
  568MOL0     C76563   3.068   7.208  10.548  1.1268  0.7558 -0.6389
  568MOL0     C76564   3.196   7.182  10.579  0.4746 -0.4901  0.2173
  568MOL0     C76565   3.222   7.162  10.726  0.9193  0.3536  0.3441
  568MOL0     C76566   3.267   7.017  10.747 -0.2818  0.4556 -0.0319
  568MOL0     C76567   3.346   6.990  10.879  0.1504 -0.9243 -0.4798
  568MOL0     C76568   3.392   6.850  10.901  0.2289  1.2355  0.0354
  568MOL0     O76569   3.475   6.820  11.014  0.3074  0.0151  0.5108
  568MOL0     C76570   3.547   6.695  11.003  0.2524 -0.4901  0.1872
  568MOL0     C76571   3.687   6.696  10.996 -0.1234 -0.2575 -1.1883
  568MOL0     C76572   3.769   6.587  10.986 -0.0721  0.6423  0.0899
  568MOL0     C76573   3.912   6.613  10.993 -0.4293 -0.4576  0.9584
  568MOL0     C76574   3.705   6.466  10.967 -0.5962  0.5235 -0.6072
  568MOL0     C76575   3.786   6.344  10.941 -0.6609  0.1806 -0.8466
  568MOL0     O76576   3.918   6.348  10.915  0.2669 -0.4788  1.0680
  568MOL0     C76577   3.994   6.239  10.920 -0.4004  0.0827 -0.7490
  568MOL0     C76578   3.964   6.118  10.990  0.4318  0.4180  0.4596
  568MOL0     C76579   4.053   6.011  10.970 -0.1363 -0.7906  0.0375
  568MOL0     C76580   4.166   6.028  10.898 -0.4958  0.2107 -0.2705
  568MOL0     O76581   4.255   5.923  10.899  0.6842  0.9283 -0.1575
  568MOL0     C76582   4.354   5.901  10.785 -0.0343  0.7526  0.0904
  568MOL0     C76583   4.454   5.795  10.816 -0.2253  0.4090 -0.0998
  568MOL0     C76584   4.465   5.686  10.719 -0.2585 -0.1105 -0.4855
  568MOL0     C76585   4.532   5.559  10.773 -0.0347 -1.2199 -0.0670
  568MOL0     C76586   4.667   5.575  10.846  0.0574  0.6282  0.0795
  568MOL0     C76587   4.780   5.587  10.733 -0.3369 -0.1512 -0.3088
  568MOL0     C76588   4.921   5.580  10.798  0.7625  0.1165 -1.7846
  568MOL0     C76589   5.020   5.521  10.702 -0.7799 -0.4840  0.7366
  568MOL0    Cl76590   5.171   5.489  10.802 -0.2339  0.4222 -0.5507
  568MOL0     C76591   4.201   6.153  10.841  0.1120 -0.1395 -0.6758
  568MOL0     C76592   4.111   6.257  10.844  0.2631 -0.4052 -0.7665
  568MOL0     O76593   3.715   6.241  10.941  0.1248 -0.6921 -0.5844
  568MOL0     C76594   3.560   6.460  10.975  1.0325 -0.5739  0.5864
  568MOL0     C76595   3.484   6.578  10.982 -0.2963 -0.6831  0.1850
  568MOL0     N76596   3.264   7.165  10.462 -0.3888 -0.8221  1.5069
  568MOL0     N76597   3.189   7.186  10.364  0.0007  0.5238 -0.0514
  568MOL0     C76598   2.747   8.177   9.946  0.4769  0.1888 -0.5915
  568MOL0     C76599   2.715   8.270   9.851 -0.4316  0.5955  0.4839
  568MOL0     C76600   2.477   8.462   9.515 -0.2112  0.1420 -0.6283
  568MOL0     C76601   2.561   8.576   9.524  1.1390 -0.1766  0.3802
  568MOL0     C76602   2.540   8.694   9.460 -0.5583 -0.6835 -0.5479
  568MOL0     C76603   2.427   8.717   9.379 -0.0432  0.5322 -0.1882
  568MOL0     O76604   2.415   8.845   9.322 -0.7472 -0.0422  0.0463
  568MOL0     C76605   2.356   8.850   9.192 -0.4741 -0.5327  0.6928
  568MOL0     C76606   2.454   8.806   9.077 -0.0689  0.1876 -0.3871
  568MOL0     C76607   2.385   8.820   8.940 -0.0968 -1.2437  0.3382
  568MOL0     C76608   2.318   8.698   8.889 -1.2761  1.0101  0.3736
  568MOL0     C76609   2.204   8.649   8.968 -1.0149 -0.4273  0.4479
  568MOL0     C76610   2.099   8.611   9.027 -0.0723  0.4179  0.4811
  568MOL0     C76611   2.339   8.607   9.379 -0.4026 -0.2742 -0.1965
  568MOL0     C76612   2.361   8.492   9.444 -0.3885  0.0729 -0.6201
  568MOL0     H76613   2.447   8.088   9.717 -0.7969  0.2309  0.4031
  568MOL0     H76614   2.491   7.955   9.902  2.7157 -2.7943 -0.0846
  568MOL0     H76615   2.890   7.953  10.095 -2.0823 -0.2572 -1.0883
  568MOL0     H76616   2.815   8.079  10.189 -1.1205 -0.7704  3.2292
  568MOL0     H76617   2.874   7.900  10.341 -0.2902 -1.9951 -0.6710
  568MOL0     H76618   2.702   7.913  10.345  1.1559 -1.1723  1.4384
  568MOL0     H76619   2.682   7.724  10.191 -0.1947 -1.2046  0.7159
  568MOL0     H76620   2.871   7.724  10.181  0.4185 -1.6778  2.1989
  568MOL0     H76621   2.868   7.685  10.428  1.7832  0.6338 -4.8576
  568MOL0     H76622   2.696   7.667  10.434  0.3035  1.2809  0.8510
  568MOL0     H76623   2.749   7.438  10.405  1.5852 -0.8452 -1.5975
  568MOL0     H76624   2.730   7.503  10.234  0.8974 -2.0078 -1.3345
  568MOL0     H76625   3.001   7.525  10.256 -2.8121  0.0452 -3.5316
  568MOL0     H76626   2.968   7.444  10.416  1.0108  0.0221 -0.4828
  568MOL0     H76627   2.851   7.314  10.178  1.8335 -0.2704 -1.8194
  568MOL0     H76628   3.022   7.326  10.163  0.9877 -0.9997  0.6345
  568MOL0     H76629   2.948   7.108  10.249 -1.4491 -3.4792  3.0620
  568MOL0     H76630   2.857   7.176  10.376  1.5747 -2.3559  1.9732
  568MOL0     H76631   2.991   7.225  10.623  3.0169 -0.5860  1.7717
  568MOL0     H76632   3.302   7.230  10.755  1.1334 -0.8649  2.9992
  568MOL0     H76633   3.147   7.188  10.802  0.0895  1.0933 -0.6925
  568MOL0     H76634   3.327   6.974  10.666 -0.7921 -0.1518 -0.0940
  568MOL0     H76635   3.187   6.942  10.743  0.8917 -0.7823 -1.9111
  568MOL0     H76636   3.278   7.019  10.959  1.8394  1.4584  0.2152
  568MOL0     H76637   3.433   7.057  10.877 -0.7259  0.2946  0.3138
  568MOL0     H76638   3.447   6.813  10.814  2.3439 -1.1941  2.2134
  568MOL0     H76639   3.305   6.787  10.925  0.8975  0.4018  0.3316
  568MOL0     H76640   3.746   6.787  11.007  0.4919 -0.3272 -3.4567
  568MOL0     H76641   3.939   6.596  10.889 -3.3915  0.4443 -0.0416
  568MOL0     H76642   3.951   6.711  11.022  2.1895 -0.7330 -1.1459
  568MOL0     H76643   3.968   6.547  11.061 -0.2974 -2.8243 -1.3095
  568MOL0     H76644   3.884   6.105  11.063  0.0406 -3.2764 -0.4496
  568MOL0     H76645   4.035   5.926  11.035  0.8013  2.0918  4.5125
  568MOL0     H76646   4.299   5.882  10.692  1.1329  5.3364 -1.7963
  568MOL0     H76647   4.405   5.996  10.766  1.5430  0.0382  0.6364
  568MOL0     H76648   4.555   5.838  10.821  0.2458 -0.7139  0.2378
  568MOL0     H76649   4.435   5.749  10.914  2.3878 -2.8930 -0.9815
  568MOL0     H76650   4.529   5.709  10.634  1.2563 -1.1058  0.3392
  568MOL0     H76651   4.368   5.659  10.675 -0.5909  1.8232 -1.0123
  568MOL0     H76652   4.459   5.520  10.843  0.6610 -0.5999  1.0313
  568MOL0     H76653   4.536   5.475  10.703 -2.0054  1.2936 -3.5550
  568MOL0     H76654   4.688   5.496  10.919  0.4106 -0.3508 -1.0639
  568MOL0     H76655   4.658   5.671  10.899 -2.3230  0.6272 -0.2298
  568MOL0     H76656   4.780   5.494  10.676  2.6033  0.5965 -1.7212
  568MOL0     H76657   4.769   5.678  10.673  0.6201  0.1397 -0.0694
  568MOL0     H76658   4.913   5.511  10.882 -0.6667  0.6429 -1.4468
  568MOL0     H76659   4.958   5.676  10.835  1.0689 -1.2709  1.8449
  568MOL0     H76660   5.038   5.570  10.606  2.5531 -0.8284  1.0853
  568MOL0     H76661   4.983   5.423  10.671  0.3732 -0.8875  0.6078
  568MOL0     H76662   4.295   6.168  10.789  0.2104  0.1758 -0.4093
  568MOL0     H76663   4.130   6.354  10.800 -0.2811  0.5128  0.9438
  568MOL0     H76664   3.513   6.362  10.974 -1.9904  0.7762 -1.3550
  568MOL0     H76665   3.377   6.570  11.000 -0.3266  0.4862  0.5672
  568MOL0     H76666   2.818   8.207  10.022  0.5897  0.7343 -0.9053
  568MOL0     H76667   2.770   8.363   9.845  1.2635 -0.4233 -0.5982
  568MOL0     H76668   2.637   8.575   9.602  2.3426 -3.7146 -0.6416
  568MOL0     H76669   2.615   8.767   9.487 -0.6259 -0.7505 -0.1759
  568MOL0     H76670   2.268   8.785   9.201 -1.4174  0.4949 -0.6619
  568MOL0     H76671   2.312   8.949   9.174 -1.0141 -1.2400 -2.4746
  568MOL0     H76672   2.489   8.702   9.080  0.8676  0.5095  0.1673
  568MOL0     H76673   2.547   8.862   9.090  0.9761 -0.3448 -4.2555
  568MOL0     H76674   2.462   8.856   8.871 -1.9356  1.9628 -0.2412
  568MOL0     H76675   2.312   8.900   8.934  0.6371 -0.6507 -1.3387
  568MOL0     H76676   2.392   8.617   8.889 -1.4382  0.8276  1.8171
  568MOL0     H76677   2.284   8.713   8.787 -3.3401 -1.6841  0.5232
  568MOL0     H76678   2.010   8.575   9.074 -1.1605  2.2512 -0.0481
  568MOL0     H76679   2.246   8.622   9.325 -0.4490 -2.8411 -0.9710
  568MOL0     H76680   2.289   8.412   9.430  0.5100 -1.0724  0.9536
  569MOL0     O76681   6.162  11.497   4.116 -0.2364  0.1177 -0.1624
  569MOL0     C76682   6.079  11.420   4.060 -0.9787  0.3082 -0.1223
  569MOL0     O76683   6.084  11.374   3.925 -0.1937 -0.3457 -0.1785
  569MOL0     C76684   6.166  11.431   3.839 -0.3908  0.2176  0.7256
  569MOL0     C76685   6.147  11.564   3.792 -0.3022 -0.1104  0.1218
  569MOL0     C76686   6.228  11.621   3.700 -0.7796 -0.7600 -0.6698
  569MOL0     C76687   6.338  11.556   3.645 -0.2346  0.6242  0.2377
  569MOL0     O76688   6.422  11.584   3.544 -1.1434  0.4691  0.6060
  569MOL0     C76689   6.406  11.696   3.460  0.2394  0.2115 -0.2429
  569MOL0     C76690   6.471  11.819   3.523  0.6295 -0.0130  0.0808
  569MOL0     C76691   6.534  11.912   3.423  0.3653 -0.4643  0.3141
  569MOL0     C76692   6.596  12.035   3.486  0.9224  0.4995  0.0279
  569MOL0     C76693   6.661  12.121   3.390  0.4410 -0.2173 -0.3398
  569MOL0     C76694   6.553  12.200   3.319 -1.3606 -1.1662 -0.5125
  569MOL0     C76695   6.622  12.286   3.222  0.0039  0.2497 -0.0380
  569MOL0     C76696   6.552  12.408   3.174  0.7444  0.2597  0.9848
  569MOL0     N76697   6.634  12.486   3.079 -0.1861 -0.1754 -0.8482
  569MOL0     C76698   6.694  12.427   2.976  0.1648 -0.2708 -0.7299
  569MOL0     C76699   6.716  12.529   2.891  0.1341 -0.2830  1.0788
  569MOL0     C76700   6.803  12.527   2.767 -0.2169 -0.2557 -0.7622
  569MOL0     C76701   6.949  12.530   2.804 -0.0574  0.4467 -0.1429
  569MOL0     C76702   6.989  12.658   2.882 -0.7981 -1.2205 -0.3945
  569MOL0     C76703   6.964  12.783   2.799 -0.8272  0.9127 -0.3015
  569MOL0     O76704   7.021  12.875   2.892 -0.8422  0.8756 -0.4222
  569MOL0     C76705   7.069  12.988   2.828 -0.0157  0.3404 -0.3215
  569MOL0     C76706   7.007  13.049   2.719 -0.2389  0.6842  0.8050
  569MOL0     C76707   7.049  13.180   2.670  0.4297  0.3880  0.6390
  569MOL0     C76708   6.980  13.223   2.550 -0.6497  0.4245  0.0824
  569MOL0     C76709   7.166  13.235   2.718  0.0131  0.1107  0.3441
  569MOL0     C76710   7.229  13.358   2.658  0.6473  0.2207 -0.4595
  569MOL0     O76711   7.322  13.415   2.739 -0.2227  1.3666 -0.3431
  569MOL0     C76712   7.406  13.519   2.701 -0.6068  0.0426 -0.7700
  569MOL0     C76713   7.466  13.592   2.810  0.0713  0.1542  0.8706
  569MOL0     C76714   7.546  13.705   2.793  0.3540  0.7312  0.1758
  569MOL0     C76715   7.568  13.759   2.666 -0.8380 -0.0124  0.4394
  569MOL0     O76716   7.638  13.883   2.643 -0.0693  0.1159 -0.7914
  569MOL0     C76717   7.777  13.903   2.669 -0.1266  0.9161 -0.7518
  569MOL0     C76718   7.831  13.995   2.564  0.3532  0.1002  0.0418
  569MOL0     C76719   7.801  14.142   2.597  0.2893 -0.3308 -0.4742
  569MOL0     C76720   7.830  14.236   2.482 -0.7368 -0.9465 -0.9238
  569MOL0     C76721   7.773  14.378   2.522  0.4658  0.0546  0.7820
  569MOL0     C76722   7.854  14.493   2.469  0.2115  0.2053  0.4809
  569MOL0     C76723   7.782  14.636   2.485 -0.2023  0.0190  0.1182
  569MOL0     C76724   7.840  14.749   2.402 -0.4201 -0.8011 -0.0382
  569MOL0    Cl76725   8.022  14.773   2.424  0.2320  0.0453 -0.4637
  569MOL0     C76726   7.513  13.685   2.556 -0.2633 -0.3871 -0.3951
  569MOL0     C76727   7.439  13.572   2.570  0.1838  0.1863  0.8275
  569MOL0     O76728   7.197  13.398   2.545 -0.3649 -0.2409 -0.2593
  569MOL0     C76729   7.227  13.181   2.828  0.0258  0.2875 -0.2904
  569MOL0     C76730   7.178  13.054   2.883  0.5314 -0.5563  0.1393
  569MOL0     N76731   6.663  12.639   2.940  0.2926 -1.0447 -0.6252
  569MOL0     N76732   6.619  12.622   3.054 -0.1855  0.1178  0.2610
  569MOL0     C76733   6.367  11.426   3.693  0.0789 -0.3524 -0.5938
  569MOL0     C76734   6.276  11.370   3.789 -1.4009  0.3666 -0.8989
  569MOL0     C76735   5.959  11.385   4.144 -0.6122 -0.4905  1.0341
  569MOL0     C76736   5.919  11.469   4.250  0.3396  1.0180 -0.6073
  569MOL0     C76737   5.800  11.443   4.316 -0.9116 -1.1407 -0.1001
  569MOL0     C76738   5.720  11.339   4.277  0.0058  0.6788 -0.9219
  569MOL0     O76739   5.611  11.320   4.355 -0.7467  0.0139 -0.2218
  569MOL0     C76740   5.505  11.227   4.317  0.3077  0.6137 -0.2682
  569MOL0     C76741   5.377  11.260   4.399  0.8337  1.2954 -0.2946
  569MOL0     C76742   5.363  11.177   4.524 -0.5239 -0.1447 -0.9122
  569MOL0     C76743   5.206  11.169   4.560  0.1498  0.3484  0.2159
  569MOL0     C76744   5.192  11.067   4.669  0.3373 -0.4713  1.2101
  569MOL0     C76745   5.175  10.988   4.761 -0.5691 -0.1795 -0.1298
  569MOL0     C76746   5.754  11.262   4.166 -1.0143  0.9857  0.9155
  569MOL0     C76747   5.877  11.282   4.105  0.6163 -0.1475  0.6958
  569MOL0     H76748   6.054  11.612   3.822  0.4569  0.5939  1.4032
  569MOL0     H76749   6.196  11.719   3.666 -1.1005 -0.8572 -0.6524
  569MOL0     H76750   6.458  11.689   3.364  1.1945  2.3454  0.0506
  569MOL0     H76751   6.300  11.723   3.445 -0.1516 -0.4431  1.2494
  569MOL0     H76752   6.400  11.878   3.581 -1.1536  0.4397 -2.4131
  569MOL0     H76753   6.547  11.782   3.592 -0.0716 -0.0029  0.8702
  569MOL0     H76754   6.619  11.875   3.366  1.5830  0.8744  1.2031
  569MOL0     H76755   6.456  11.939   3.351 -0.5584 -2.5606  0.4661
  569MOL0     H76756   6.527  12.105   3.534 -0.2496  2.5925 -4.2797
  569MOL0     H76757   6.658  12.009   3.573 -1.5218  0.1496  1.7669
  569MOL0     H76758   6.723  12.186   3.452 -2.6297  2.5304  0.1247
  569MOL0     H76759   6.739  12.075   3.330  2.7381  0.3880  1.9804
  569MOL0     H76760   6.484  12.131   3.268 -1.3073 -3.1774  1.9440
  569MOL0     H76761   6.501  12.260   3.393  0.5967  0.0009 -0.0223
  569MOL0     H76762   6.716  12.325   3.261 -0.2488  0.6703  0.1652
  569MOL0     H76763   6.638  12.229   3.131 -1.5963  1.3502 -1.0694
  569MOL0     H76764   6.538  12.469   3.263  1.1370  1.2380  0.3964
  569MOL0     H76765   6.459  12.401   3.117  2.3372 -1.9533 -1.6107
  569MOL0     H76766   6.713  12.320   2.968 -2.7854 -1.0441  0.9610
  569MOL0     H76767   6.777  12.434   2.715  0.5148 -0.0692 -1.4873
  569MOL0     H76768   6.780  12.614   2.705 -0.3549 -1.2395 -2.1429
  569MOL0     H76769   7.006  12.525   2.711  3.2831 -0.4822  1.7691
  569MOL0     H76770   6.971  12.448   2.872  0.5351  1.3376  0.7735
  569MOL0     H76771   7.093  12.660   2.917 -0.9398  3.5478  0.4590
  569MOL0     H76772   6.929  12.667   2.973 -0.9935  0.2210 -0.6264
  569MOL0     H76773   6.858  12.807   2.786 -0.7016  0.5139 -2.3923
  569MOL0     H76774   7.008  12.774   2.700 -3.0081  0.3791 -1.2729
  569MOL0     H76775   6.921  12.996   2.679  1.2178 -2.1727  1.1515
  569MOL0     H76776   6.975  13.331   2.536 -3.4593  0.6425  1.9279
  569MOL0     H76777   7.015  13.177   2.457 -0.9437 -1.9047  1.0316
  569MOL0     H76778   6.876  13.188   2.557 -0.2873 -1.4392 -2.4972
  569MOL0     H76779   7.447  13.564   2.913  0.0938 -0.6228  0.6699
  569MOL0     H76780   7.578  13.744   2.890 -1.5135 -0.2187  1.2338
  569MOL0     H76781   7.790  13.953   2.765  1.2944  3.0269 -1.9527
  569MOL0     H76782   7.821  13.804   2.684  0.5048  1.1647 -0.9091
  569MOL0     H76783   7.937  13.974   2.581 -0.1455 -3.4491 -0.4101
  569MOL0     H76784   7.796  13.968   2.463 -1.1619  0.2008  0.5113
  569MOL0     H76785   7.862  14.170   2.683  2.1419 -0.7472 -1.6001
  569MOL0     H76786   7.693  14.152   2.612  0.7418  0.9782  2.6702
  569MOL0     H76787   7.939  14.243   2.476 -0.7195 -0.7576 -0.4800
  569MOL0     H76788   7.783  14.200   2.391 -2.7459  0.1236 -0.3711
  569MOL0     H76789   7.772  14.394   2.631 -0.0819  3.1081  0.4120
  569MOL0     H76790   7.672  14.390   2.482  1.2681  3.3877 -0.5844
  569MOL0     H76791   7.955  14.497   2.510  0.0999  2.0646  0.6464
  569MOL0     H76792   7.859  14.473   2.361  3.6358 -1.1706  0.7793
  569MOL0     H76793   7.783  14.669   2.590  2.4547  2.2377 -0.5020
  569MOL0     H76794   7.678  14.634   2.452 -0.8043 -0.5803  1.8939
  569MOL0     H76795   7.795  14.846   2.423  1.6934  1.0464 -3.1112
  569MOL0     H76796   7.838  14.730   2.294 -1.5333 -0.7790 -0.0309
  569MOL0     H76797   7.533  13.717   2.454 -2.7611 -1.1895 -1.2058
  569MOL0     H76798   7.392  13.527   2.483 -2.2358  1.3463  1.4396
  569MOL0     H76799   7.317  13.216   2.877  1.1319 -0.9996 -1.3335
  569MOL0     H76800   7.214  13.003   2.972  1.9962 -1.4721 -0.9379
  569MOL0     H76801   6.443  11.370   3.639  0.9322  3.6022 -4.1196
  569MOL0     H76802   6.310  11.275   3.829  1.2841  1.1717 -1.0840
  569MOL0     H76803   5.962  11.558   4.296 -0.8972 -0.4194  3.9178
  569MOL0     H76804   5.758  11.508   4.392 -4.3534 -4.5044  1.2543
  569MOL0     H76805   5.481  11.231   4.211  1.7527 -0.9333 -0.6913
  569MOL0     H76806   5.537  11.123   4.326 -0.6705  0.1799 -1.5807
  569MOL0     H76807   5.291  11.225   4.340  0.5125  2.6689 -0.6886
  569MOL0     H76808   5.388  11.369   4.400  3.7153  1.0656  0.4710
  569MOL0     H76809   5.433  11.219   4.597 -3.0394  0.4176  1.3517
  569MOL0     H76810   5.383  11.071   4.508  0.1512  0.0340 -1.2512
  569MOL0     H76811   5.145  11.143   4.473  1.2343  2.0394 -1.0982
  569MOL0     H76812   5.169  11.261   4.607 -1.0966 -0.2699  0.4929
  569MOL0     H76813   5.146  10.915   4.834  0.0376 -0.7592 -0.4611
  569MOL0     H76814   5.687  11.180   4.142 -1.4587  1.5728  0.1235
  569MOL0     H76815   5.905  11.208   4.031  0.0371 -0.5808  0.9033
  570MOL0     O76816   4.257   3.347   4.362 -0.4861  0.0361 -0.3503
  570MOL0     C76817   4.298   3.231   4.384  0.4385  0.2692 -0.6646
  570MOL0     O76818   4.227   3.135   4.447  0.2279  0.5668  0.2727
  570MOL0     C76819   4.095   3.138   4.458  0.9442  0.6656  0.7221
  570MOL0     C76820   4.004   3.195   4.369  0.1357  0.6563  0.2787
  570MOL0     C76821   3.863   3.172   4.379 -1.4767  0.4941 -0.0014
  570MOL0     C76822   3.807   3.102   4.482 -0.0387  0.0946 -0.0045
  570MOL0     O76823   3.666   3.092   4.485 -0.7982  0.4822 -0.1182
  570MOL0     C76824   3.583   3.071   4.609 -0.5200 -0.2157  0.5140
  570MOL0     C76825   3.431   3.118   4.574 -0.7489 -0.3210 -0.1524
  570MOL0     C76826   3.347   3.120   4.701  0.3332  0.3448 -0.3726
  570MOL0     C76827   3.198   3.138   4.664  0.3549  0.3927 -0.3599
  570MOL0     C76828   3.118   3.006   4.663 -0.6665  0.3249  0.4125
  570MOL0     C76829   2.955   3.026   4.638  0.7037  0.0715  0.3130
  570MOL0     C76830   2.897   2.904   4.561  0.8780 -0.4706 -0.3937
  570MOL0     C76831   2.899   2.781   4.661  0.7474  0.1012  0.6426
  570MOL0     N76832   2.836   2.670   4.592 -0.8267  1.3307 -0.4117
  570MOL0     C76833   2.885   2.615   4.469 -0.5022 -0.6351 -0.2990
  570MOL0     C76834   2.789   2.524   4.429 -0.0563  0.3388 -0.8568
  570MOL0     C76835   2.801   2.418   4.321 -0.0742 -0.9477  0.3239
  570MOL0     C76836   2.800   2.454   4.170  1.5765  0.8529  0.0006
  570MOL0     C76837   2.658   2.479   4.109 -0.5021  0.2712 -1.2055
  570MOL0     C76838   2.555   2.369   4.115  0.0699  0.4163  0.6538
  570MOL0     O76839   2.449   2.377   4.013  0.2162  0.0413  0.6059
  570MOL0     C76840   2.335   2.434   4.051  0.4822 -0.6026 -0.1952
  570MOL0     C76841   2.308   2.550   3.978  1.0870 -0.9717  0.4250
  570MOL0     C76842   2.191   2.628   4.002  0.0023 -0.5768 -0.5808
  570MOL0     C76843   2.181   2.765   3.924  0.7682  1.0769  0.1174
  570MOL0     C76844   2.079   2.586   4.082 -0.0155  0.2086  0.4938
  570MOL0     C76845   1.961   2.659   4.109 -0.2130 -0.3243 -0.2509
  570MOL0     O76846   1.891   2.723   4.019  0.0819  0.1042  0.6141
  570MOL0     C76847   1.766   2.766   4.035  0.1191 -0.1563 -0.1858
  570MOL0     C76848   1.736   2.846   4.143  0.1392  0.1089 -0.1230
  570MOL0     C76849   1.604   2.885   4.164  0.2559  0.9729  0.4637
  570MOL0     C76850   1.503   2.866   4.061 -0.1621 -0.5449  0.2085
  570MOL0     O76851   1.371   2.896   4.088  0.9765 -0.0714  0.6323
  570MOL0     C76852   1.265   2.869   3.999  0.4312  0.6812 -0.0546
  570MOL0     C76853   1.135   2.938   4.050 -1.1216  0.2086  1.0422
  570MOL0     C76854   1.063   2.858   4.169  0.8847 -0.5226  0.3846
  570MOL0     C76855   0.998   2.724   4.131  0.7441  0.2944 -1.0889
  570MOL0     C76856   0.887   2.691   4.242 -0.2318 -0.0708  0.3686
  570MOL0     C76857   0.946   2.606   4.356 -0.2360  1.3606 -0.4226
  570MOL0     C76858   0.837   2.550   4.433 -0.7326 -0.3685  0.1230
  570MOL0     C76859   0.880   2.418   4.492 -0.1981  0.6598  0.3556
  570MOL0    Cl76860   0.740   2.361   4.582  0.0717  0.0523  0.0409
  570MOL0     C76861   1.541   2.791   3.944  0.4619  0.6683 -0.2629
  570MOL0     C76862   1.669   2.742   3.932 -0.2074  0.6470 -0.2749
  570MOL0     O76863   1.926   2.636   4.223 -0.0790 -0.2772  0.3096
  570MOL0     C76864   2.103   2.458   4.143  0.3798 -0.0635 -0.3531
  570MOL0     C76865   2.225   2.381   4.126 -0.0568  0.1140  0.2394
  570MOL0     N76866   2.691   2.531   4.528 -0.1981 -0.7359 -0.1805
  570MOL0     N76867   2.713   2.621   4.622 -0.4117 -0.1978 -0.0527
  570MOL0     C76868   3.891   3.036   4.579  0.9839  0.3957  0.2707
  570MOL0     C76869   4.031   3.050   4.556 -0.0647  0.3944  0.4365
  570MOL0     C76870   4.433   3.208   4.344 -0.0197  0.1562  1.6447
  570MOL0     C76871   4.472   3.085   4.296 -0.2067  0.3590  0.1116
  570MOL0     C76872   4.608   3.070   4.250  0.0135  0.8651 -0.0269
  570MOL0     C76873   4.694   3.175   4.244  0.7764  0.1923  0.5660
  570MOL0     O76874   4.815   3.151   4.185 -0.8034 -0.3959  0.2795
  570MOL0     C76875   4.927   3.151   4.275  0.7265 -0.3967  0.1827
  570MOL0     C76876   5.065   3.158   4.211 -0.2225 -0.4540 -0.1940
  570MOL0     C76877   5.085   3.045   4.107 -0.4851  0.3244 -0.0887
  570MOL0     C76878   5.215   3.050   4.043 -0.3145 -0.6921 -0.8873
  570MOL0     C76879   5.314   3.013   4.142  0.1927 -0.1221 -0.1142
  570MOL0     C76880   5.392   2.990   4.230  0.0776  0.5921  0.2377
  570MOL0     C76881   4.647   3.301   4.272 -0.4792  0.6490  0.3313
  570MOL0     C76882   4.517   3.322   4.324 -0.3010  0.6666  0.9173
  570MOL0     H76883   4.042   3.260   4.291 -2.7569 -1.4846 -3.2015
  570MOL0     H76884   3.798   3.228   4.313 -3.8146 -2.1427 -0.1280
  570MOL0     H76885   3.588   2.964   4.632 -1.6214 -1.0337 -2.5074
  570MOL0     H76886   3.627   3.130   4.689  1.0684 -1.0814  0.3095
  570MOL0     H76887   3.438   3.217   4.528  1.1330  1.2690  3.2142
  570MOL0     H76888   3.388   3.063   4.489  1.7701 -1.2539 -0.8908
  570MOL0     H76889   3.365   3.029   4.758 -2.4994  1.4301  2.5647
  570MOL0     H76890   3.373   3.206   4.763  0.9265  0.1780 -0.3791
  570MOL0     H76891   3.155   3.195   4.747  2.7859 -1.1369  2.1309
  570MOL0     H76892   3.190   3.193   4.569  2.6937 -1.9941 -2.0844
  570MOL0     H76893   3.162   2.955   4.577  1.4107  2.6694 -0.0275
  570MOL0     H76894   3.126   2.955   4.759  0.3812  1.1061  0.7662
  570MOL0     H76895   2.916   3.017   4.739  2.1865  2.1733  1.1586
  570MOL0     H76896   2.921   3.118   4.589 -1.3383 -0.3158  0.9354
  570MOL0     H76897   2.794   2.923   4.530 -0.1933  1.8874  3.8698
  570MOL0     H76898   2.949   2.879   4.468 -0.0808  2.4285 -1.8228
  570MOL0     H76899   2.831   2.811   4.741  0.1601 -1.0603  0.5993
  570MOL0     H76900   2.997   2.761   4.707  1.0178 -0.5670 -0.2042
  570MOL0     H76901   2.977   2.652   4.425 -0.1799 -1.4001 -0.2896
  570MOL0     H76902   2.904   2.383   4.338  0.7073  0.6507 -0.8035
  570MOL0     H76903   2.729   2.339   4.343  0.8910 -1.1223  3.4072
  570MOL0     H76904   2.843   2.372   4.111  1.0832 -0.7615  1.7898
  570MOL0     H76905   2.868   2.536   4.143 -0.4271  1.9113 -2.1153
  570MOL0     H76906   2.687   2.500   4.006  2.7388  0.6171 -0.3462
  570MOL0     H76907   2.623   2.573   4.154  3.5876  0.9504  1.1333
  570MOL0     H76908   2.518   2.372   4.218  4.1594 -1.3260  2.3901
  570MOL0     H76909   2.610   2.275   4.112  1.0994  1.0290 -0.4491
  570MOL0     H76910   2.369   2.603   3.906  0.2137 -3.9580 -2.7857
  570MOL0     H76911   2.282   2.792   3.893  1.9658  0.6039  3.1797
  570MOL0     H76912   2.110   2.763   3.841  1.7264  0.2597 -0.7039
  570MOL0     H76913   2.150   2.849   3.987  2.0469 -0.3885  2.8705
  570MOL0     H76914   1.803   2.875   4.223 -1.0450  2.8247 -0.0151
  570MOL0     H76915   1.583   2.941   4.254  2.0918  2.3582  0.0780
  570MOL0     H76916   1.291   2.890   3.895 -3.6672 -2.7276 -2.0912
  570MOL0     H76917   1.250   2.762   4.010  0.5098  0.3073 -3.0214
  570MOL0     H76918   1.156   3.041   4.079  3.8682 -0.3813  0.4711
  570MOL0     H76919   1.065   2.940   3.966 -0.5839  0.8831  0.6034
  570MOL0     H76920   0.980   2.927   4.188  0.5721 -0.3624 -1.3878
  570MOL0     H76921   1.140   2.859   4.247  2.4052  1.7326 -1.0265
  570MOL0     H76922   0.954   2.735   4.031  1.8836  0.0602 -1.6330
  570MOL0     H76923   1.067   2.639   4.132 -0.7796 -1.0286  1.0190
  570MOL0     H76924   0.814   2.625   4.194  1.7220 -1.1166 -1.3246
  570MOL0     H76925   0.837   2.777   4.288  1.3089  0.6860  0.7109
  570MOL0     H76926   1.002   2.523   4.314 -0.4061  1.2611 -0.4524
  570MOL0     H76927   1.010   2.666   4.422  2.9666 -1.5255 -0.6460
  570MOL0     H76928   0.746   2.543   4.372 -0.5544  0.7869 -0.2927
  570MOL0     H76929   0.805   2.620   4.510 -3.9095  0.2984 -1.5826
  570MOL0     H76930   0.974   2.409   4.547 -0.0707 -0.4996 -0.0231
  570MOL0     H76931   0.891   2.335   4.420  2.6883 -0.7521  2.2306
  570MOL0     H76932   1.475   2.761   3.864 -1.3123 -0.1796  1.4494
  570MOL0     H76933   1.695   2.683   3.845  1.3433  0.4362  0.2954
  570MOL0     H76934   2.023   2.424   4.208 -0.7345 -0.0756 -1.6816
  570MOL0     H76935   2.242   2.282   4.168  1.0683 -0.0887 -0.6438
  570MOL0     H76936   3.849   2.963   4.648  0.6348 -0.9604 -1.2967
  570MOL0     H76937   4.098   2.989   4.615  1.3545  1.5273  0.0651
  570MOL0     H76938   4.419   2.991   4.284  1.1309 -0.1331 -2.9664
  570MOL0     H76939   4.641   2.972   4.218 -2.4845 -0.4779  1.2206
  570MOL0     H76940   4.915   3.246   4.328 -0.4979  0.3783 -1.3936
  570MOL0     H76941   4.915   3.070   4.348  1.2784 -0.2868  0.3975
  570MOL0     H76942   5.131   3.149   4.298  2.7354 -0.0206 -2.2523
  570MOL0     H76943   5.085   3.259   4.172  0.2486 -0.4243  0.1120
  570MOL0     H76944   5.000   3.039   4.038 -0.7133  0.5335  0.1722
  570MOL0     H76945   5.077   2.952   4.164  0.8312 -0.3022 -0.8786
  570MOL0     H76946   5.237   3.152   4.009  3.3424 -1.4013 -1.0309
  570MOL0     H76947   5.213   3.000   3.946  0.8240  0.9678 -1.8181
  570MOL0     H76948   5.452   2.980   4.318 -0.2122 -0.2386  0.3507
  570MOL0     H76949   4.715   3.386   4.273  2.7825 -1.7030 -1.4636
  570MOL0     H76950   4.477   3.422   4.328  0.8302  1.3535 -2.2200
  571MOL0     O76951   1.450   9.126  10.058  0.9355 -0.0282  0.0610
  571MOL0     C76952   1.330   9.130  10.077 -0.8305 -0.6052 -0.0366
  571MOL0     O76953   1.250   9.038  10.150 -0.0197 -0.4664  0.5125
  571MOL0     C76954   1.317   8.945  10.221  0.4732  0.4506  0.8704
  571MOL0     C76955   1.343   8.970  10.355 -0.6364 -0.0669 -0.5623
  571MOL0     C76956   1.388   8.862  10.437  0.9756  0.1327  0.0178
  571MOL0     C76957   1.423   8.738  10.386  0.8830 -0.7144 -0.8065
  571MOL0     O76958   1.463   8.632  10.469 -0.0086 -0.1715  0.5598
  571MOL0     C76959   1.606   8.644  10.507 -1.0384 -0.1558  0.2187
  571MOL0     C76960   1.616   8.650  10.662 -0.6359  0.3652  0.2970
  571MOL0     C76961   1.760   8.657  10.710 -0.1174 -0.2510 -0.2789
  571MOL0     C76962   1.755   8.673  10.864 -0.5155  1.3177 -0.0022
  571MOL0     C76963   1.893   8.706  10.934  0.5870 -0.3957 -0.7154
  571MOL0     C76964   1.885   8.714  11.082  0.0214  0.9875 -0.6993
  571MOL0     C76965   2.016   8.754  11.160  0.1233  0.1567 -0.1492
  571MOL0     C76966   1.999   8.898  11.203  1.2195 -0.6809 -0.8727
  571MOL0     N76967   2.088   8.938  11.310 -0.6185 -0.7582  0.4021
  571MOL0     C76968   2.130   9.068  11.321 -0.3167  0.0493 -0.0571
  571MOL0     C76969   2.219   9.075  11.429 -0.5219 -0.0282  0.1889
  571MOL0     C76970   2.305   9.192  11.483 -0.7348 -0.6752 -0.3928
  571MOL0     C76971   2.443   9.188  11.423  1.1586  1.1486  0.2593
  571MOL0     C76972   2.547   9.269  11.485 -0.0630 -0.2943 -1.3106
  571MOL0     C76973   2.683   9.248  11.416  0.4933 -0.9829  0.9289
  571MOL0     O76974   2.774   9.325  11.484 -0.1121 -0.0792  0.0346
  571MOL0     C76975   2.837   9.261  11.585 -0.3807 -0.8230 -0.2129
  571MOL0     C76976   2.805   9.284  11.721  1.3136  0.1427  0.7273
  571MOL0     C76977   2.871   9.241  11.829  0.5964  0.1092  0.0053
  571MOL0     C76978   2.818   9.291  11.971  0.5753 -0.4392  1.3520
  571MOL0     C76979   2.991   9.162  11.792 -0.2150 -0.7606 -1.1778
  571MOL0     C76980   3.087   9.102  11.899  0.3791  0.0258  0.6203
  571MOL0     O76981   3.060   9.135  12.030 -0.2310 -0.0788 -1.0467
  571MOL0     C76982   3.144   9.091  12.135  0.9286  0.9107 -0.5687
  571MOL0     C76983   3.089   9.055  12.260  0.3377  0.3402 -0.1475
  571MOL0     C76984   3.172   9.011  12.364  0.5885  0.5014  0.9372
  571MOL0     C76985   3.310   9.003  12.349 -0.1666 -0.7566 -0.1909
  571MOL0     O76986   3.372   8.947  12.455  0.4019 -0.2211 -0.0323
  571MOL0     C76987   3.506   8.907  12.453 -0.0187 -0.1706  0.6570
  571MOL0     C76988   3.526   8.769  12.400 -0.6406  0.5476 -0.6778
  571MOL0     C76989   3.405   8.675  12.429 -0.5328 -0.7993  0.6560
  571MOL0     C76990   3.375   8.657  12.583 -0.7910  0.1328  0.2066
  571MOL0     C76991   3.331   8.513  12.625 -0.1413  0.0883  0.2755
  571MOL0     C76992   3.207   8.467  12.551  0.6404 -0.1383 -0.1656
  571MOL0     C76993   3.187   8.312  12.591 -0.3222 -0.1207  0.5209
  571MOL0     C76994   3.060   8.255  12.528  0.2391  0.3777 -0.5063
  571MOL0    Cl76995   2.919   8.358  12.585  0.4709 -0.1378 -0.0471
  571MOL0     C76996   3.371   9.037  12.223  0.4256  0.0387  0.1471
  571MOL0     C76997   3.283   9.084  12.120  0.7932 -0.3310  0.1195
  571MOL0     O76998   3.175   9.029  11.857  0.5865  0.2390 -0.7500
  571MOL0     C76999   3.032   9.133  11.653  0.0179 -0.3804 -0.7576
  571MOL0     C77000   2.943   9.174  11.553 -0.8259 -0.6700  0.3074
  571MOL0     N77001   2.219   8.944  11.471  0.0150 -0.7296  0.0045
  571MOL0     N77002   2.138   8.874  11.417 -0.0767  0.5344  0.7308
  571MOL0     C77003   1.408   8.722  10.249 -0.5625  0.2513 -0.8096
  571MOL0     C77004   1.360   8.824  10.164 -0.3384  0.5277  0.1714
  571MOL0     C77005   1.258   9.245  10.031 -0.1849  0.0138  0.3066
  571MOL0     C77006   1.121   9.260  10.055 -0.1855 -0.7847  0.1274
  571MOL0     C77007   1.038   9.362   9.992  0.3592 -0.6339  0.1666
  571MOL0     C77008   1.094   9.441   9.891 -0.3595  0.0135  0.6762
  571MOL0     O77009   1.020   9.526   9.815 -0.2229 -0.0956  0.0267
  571MOL0     C77010   0.956   9.634   9.885  0.1794  0.3833  0.8588
  571MOL0     C77011   0.950   9.762   9.804  0.6225 -0.4904  0.7392
  571MOL0     C77012   0.931   9.890   9.890  0.0340 -0.4539 -0.1336
  571MOL0     C77013   0.883  10.014   9.809  0.5324  0.2526 -0.4606
  571MOL0     C77014   0.901  10.129   9.899 -0.0616  0.6532 -1.1877
  571MOL0     C77015   0.918  10.217   9.979  0.2682 -0.4462  0.4518
  571MOL0     C77016   1.234   9.429   9.870  0.1166  0.1931 -0.5635
  571MOL0     C77017   1.308   9.330   9.938  0.1402 -0.1884  0.4935
  571MOL0     H77018   1.303   9.044  10.424  1.4878 -1.4470  2.3941
  571MOL0     H77019   1.373   8.884  10.542 -4.0275 -1.1705 -0.1828
  571MOL0     H77020   1.671   8.563  10.475 -0.3886  0.3638  0.1892
  571MOL0     H77021   1.649   8.740  10.475  0.8143 -0.2311  2.2172
  571MOL0     H77022   1.561   8.736  10.701 -2.4540 -1.0243  0.9148
  571MOL0     H77023   1.575   8.559  10.707  0.4693  0.8951  2.5287
  571MOL0     H77024   1.819   8.567  10.688  0.1924 -0.4523  1.2750
  571MOL0     H77025   1.819   8.735  10.661 -1.1081 -0.2098 -1.4344
  571MOL0     H77026   1.680   8.747  10.894  1.4993  3.1456  0.7492
  571MOL0     H77027   1.736   8.570  10.895  1.9988  0.6041 -0.5955
  571MOL0     H77028   1.972   8.634  10.911  2.7153  0.7501  2.4090
  571MOL0     H77029   1.936   8.797  10.892  1.4048 -0.4428 -0.0089
  571MOL0     H77030   1.806   8.786  11.109 -1.6071 -0.9200 -0.1072
  571MOL0     H77031   1.848   8.619  11.122 -1.2891  2.2428  1.2844
  571MOL0     H77032   2.018   8.700  11.254 -0.1636  1.4254  0.6100
  571MOL0     H77033   2.109   8.734  11.105 -0.0631 -1.6100  0.1280
  571MOL0     H77034   1.899   8.926  11.237  1.6134  0.2199 -0.4164
  571MOL0     H77035   2.021   8.960  11.115 -2.9242 -1.2674 -2.5421
  571MOL0     H77036   2.116   9.144  11.244  1.4840  1.2880  0.7781
  571MOL0     H77037   2.250   9.285  11.464 -0.0415  0.5682  2.9546
  571MOL0     H77038   2.311   9.180  11.592  0.6437  2.8750  0.0582
  571MOL0     H77039   2.424   9.222  11.321 -0.7463  2.4539  0.9978
  571MOL0     H77040   2.480   9.085  11.425  1.2959  1.1657  3.2654
  571MOL0     H77041   2.542   9.227  11.586  0.0953  0.1279 -1.1265
  571MOL0     H77042   2.527   9.376  11.493 -1.7600 -0.6488 -0.4123
  571MOL0     H77043   2.668   9.263  11.309 -2.3091 -0.2725  1.3336
  571MOL0     H77044   2.695   9.140  11.430 -1.4738 -1.5700 -1.2360
  571MOL0     H77045   2.729   9.361  11.732  0.8206 -0.7005  4.7760
  571MOL0     H77046   2.896   9.302  12.047 -0.5103 -1.8927  2.7517
  571MOL0     H77047   2.771   9.390  11.967  1.9090  0.1609 -0.6910
  571MOL0     H77048   2.749   9.212  12.003 -0.5936 -1.5840 -3.2463
  571MOL0     H77049   2.981   9.055  12.275  0.1919 -0.4390 -1.0826
  571MOL0     H77050   3.133   8.975  12.458  3.1983  0.6167  2.1419
  571MOL0     H77051   3.570   8.976  12.398  0.0957 -0.7022  0.1070
  571MOL0     H77052   3.541   8.899  12.556 -1.8788 -1.9187  1.2222
  571MOL0     H77053   3.533   8.773  12.291 -0.4154  2.2778 -0.6280
  571MOL0     H77054   3.621   8.729  12.435 -1.3022 -3.9687 -3.2480
  571MOL0     H77055   3.430   8.576  12.389  0.3056 -1.9185  3.7052
  571MOL0     H77056   3.315   8.709  12.376 -0.7647 -0.8751  0.9994
  571MOL0     H77057   3.464   8.682  12.641  0.3951  2.3745 -2.3662
  571MOL0     H77058   3.291   8.716  12.622 -1.6558 -1.3672  0.6998
  571MOL0     H77059   3.312   8.499  12.732  0.3226  1.0418  0.4990
  571MOL0     H77060   3.409   8.441  12.597 -0.8782 -1.4566  1.9931
  571MOL0     H77061   3.119   8.516  12.594 -0.6807 -1.8835 -0.7374
  571MOL0     H77062   3.210   8.482  12.442  2.3650 -1.2473 -0.3110
  571MOL0     H77063   3.174   8.307  12.699 -3.3959 -1.1910  0.1867
  571MOL0     H77064   3.272   8.251  12.559  1.5319  1.3526  2.3423
  571MOL0     H77065   3.042   8.151  12.554 -3.2335  1.1364  0.6270
  571MOL0     H77066   3.066   8.264  12.419 -3.6260  5.6775 -0.6984
  571MOL0     H77067   3.478   9.024  12.212  0.0183 -1.4543 -3.4104
  571MOL0     H77068   3.318   9.117  12.022 -0.4663 -0.6365 -0.4461
  571MOL0     H77069   3.119   9.079  11.618 -2.0826 -3.7709 -1.2525
  571MOL0     H77070   2.956   9.149  11.448  0.1747  1.7653 -0.2243
  571MOL0     H77071   1.429   8.626  10.204 -0.6913 -0.2714  0.2203
  571MOL0     H77072   1.331   8.799  10.062  0.7186 -0.5713  0.1158
  571MOL0     H77073   1.062   9.194  10.118  0.1846  1.2472  2.7432
  571MOL0     H77074   0.934   9.384  10.016  0.5581  3.0756 -1.6548
  571MOL0     H77075   0.861   9.599   9.927 -0.0158  0.5039  0.5189
  571MOL0     H77076   1.022   9.655   9.970  0.6455 -0.1403  0.6334
  571MOL0     H77077   0.871   9.742   9.731  0.7672  0.5730  0.2736
  571MOL0     H77078   1.041   9.771   9.744 -1.0994  2.1839 -1.8068
  571MOL0     H77079   1.024   9.911   9.944  1.2306 -0.1593 -2.2134
  571MOL0     H77080   0.858   9.868   9.969 -0.6510 -1.5715 -1.0457
  571MOL0     H77081   0.776  10.008   9.791  0.1004 -3.1478  2.1824
  571MOL0     H77082   0.937  10.029   9.715  2.3465  3.4715  0.9169
  571MOL0     H77083   0.918  10.308  10.035 -1.2176 -0.8943  1.2283
  571MOL0     H77084   1.279   9.501   9.803 -0.3398 -0.2500 -1.3705
  571MOL0     H77085   1.416   9.326   9.924 -0.2349 -2.1379 -3.1093
  572MOL0     O77086   7.693   7.860   5.855  0.4598 -0.9651  0.9297
  572MOL0     C77087   7.589   7.869   5.913  0.2444  0.0031  0.8007
  572MOL0     O77088   7.508   7.761   5.945  0.5483  0.1537  0.4146
  572MOL0     C77089   7.520   7.633   5.909  0.2312 -0.3876 -0.9987
  572MOL0     C77090   7.412   7.549   5.933  0.3407 -0.4644 -0.1016
  572MOL0     C77091   7.400   7.416   5.905 -0.1861  0.8253 -0.1922
  572MOL0     C77092   7.511   7.351   5.855  0.6525 -0.9963 -0.4936
  572MOL0     O77093   7.519   7.226   5.820 -0.1074 -0.2310  0.9084
  572MOL0     C77094   7.451   7.129   5.888 -0.1226  1.2000 -0.0035
  572MOL0     C77095   7.540   7.063   5.995 -0.7316  0.1302 -0.9869
  572MOL0     C77096   7.591   7.171   6.092  0.3986 -0.0733 -0.8770
  572MOL0     C77097   7.641   7.120   6.219  0.2622  0.7723 -1.1083
  572MOL0     C77098   7.692   7.237   6.307 -0.0770  0.7183 -0.5365
  572MOL0     C77099   7.750   7.192   6.442 -0.8906  0.6495 -0.2936
  572MOL0     C77100   7.787   7.319   6.512  0.1439  0.1136  0.2563
  572MOL0     C77101   7.676   7.392   6.582 -0.0425 -0.5142 -0.8539
  572MOL0     N77102   7.607   7.314   6.693 -1.1048 -0.3730 -1.1482
  572MOL0     C77103   7.670   7.264   6.805 -0.7281 -0.4415 -0.2421
  572MOL0     C77104   7.590   7.178   6.868  0.1715 -0.7746  0.2618
  572MOL0     C77105   7.627   7.100   6.989  0.6581  1.0118 -0.3161
  572MOL0     C77106   7.513   7.033   7.056 -0.1214  0.3112 -0.0138
  572MOL0     C77107   7.437   6.923   6.973  0.2232 -0.2354 -0.3098
  572MOL0     C77108   7.323   6.852   7.054  0.3032 -0.1026 -0.0844
  572MOL0     O77109   7.377   6.746   7.142 -0.1897 -0.2725  0.4618
  572MOL0     C77110   7.447   6.644   7.069 -0.4350 -0.0320 -0.2943
  572MOL0     C77111   7.582   6.615   7.115  1.1411  1.2874  0.8936
  572MOL0     C77112   7.651   6.510   7.052 -0.0768 -0.3182  0.1145
  572MOL0     C77113   7.789   6.483   7.118 -0.2418  0.0222  1.5634
  572MOL0     C77114   7.593   6.436   6.945 -0.0786 -0.3972 -1.2332
  572MOL0     C77115   7.660   6.327   6.866 -1.6605  0.3326 -0.4130
  572MOL0     O77116   7.785   6.362   6.828  0.7470 -0.2502  0.2615
  572MOL0     C77117   7.851   6.298   6.728  0.1520  0.8190 -0.2627
  572MOL0     C77118   7.883   6.353   6.610 -1.0474  0.2494  0.5607
  572MOL0     C77119   7.970   6.279   6.519  0.8111  0.5617 -0.8931
  572MOL0     C77120   8.027   6.158   6.550  0.3495  0.1743 -0.6621
  572MOL0     O77121   8.102   6.092   6.464  0.5561 -0.7858 -0.0824
  572MOL0     C77122   8.022   6.019   6.369  1.4060  0.7155  0.4419
  572MOL0     C77123   8.051   5.875   6.426  0.2786 -0.4797 -0.2266
  572MOL0     C77124   8.008   5.761   6.323 -0.1175 -0.5336 -0.2212
  572MOL0     C77125   8.065   5.627   6.375 -0.0064 -0.3201  0.0307
  572MOL0     C77126   7.978   5.519   6.306  0.3892  0.1440  0.3079
  572MOL0     C77127   8.018   5.379   6.322 -0.5500  0.1667  0.3779
  572MOL0     C77128   7.978   5.331   6.461  0.4882 -0.9625  0.2377
  572MOL0     C77129   8.091   5.252   6.531 -0.7288 -0.5210  0.0953
  572MOL0    Cl77130   8.051   5.232   6.702 -0.4575  0.0011 -0.5331
  572MOL0     C77131   7.993   6.098   6.679  0.6751 -0.4007  0.0452
  572MOL0     C77132   7.899   6.172   6.760 -0.3416  0.0959 -0.3605
  572MOL0     O77133   7.608   6.221   6.836  0.5865  0.5030  0.2136
  572MOL0     C77134   7.475   6.489   6.890 -0.5570 -0.2701 -0.6721
  572MOL0     C77135   7.403   6.585   6.950 -0.4214 -0.1250 -0.7628
  572MOL0     N77136   7.474   7.178   6.789  0.0992 -0.9378 -1.0970
  572MOL0     N77137   7.488   7.259   6.687  0.7585 -0.7434 -0.5429
  572MOL0     C77138   7.631   7.427   5.836  0.3570 -1.1197 -0.5680
  572MOL0     C77139   7.632   7.568   5.854  0.2351  0.2236  0.4343
  572MOL0     C77140   7.540   8.006   5.937 -0.0896 -1.1087 -0.2176
  572MOL0     C77141   7.418   8.030   6.005  1.0130 -0.0969 -0.6554
  572MOL0     C77142   7.385   8.154   6.050 -0.0692  0.4216 -0.1575
  572MOL0     C77143   7.459   8.267   6.017 -0.0858 -1.4808  0.0123
  572MOL0     O77144   7.437   8.402   6.047  0.0654 -0.4202  0.1595
  572MOL0     C77145   7.351   8.430   6.154  0.4070  0.4185  0.3430
  572MOL0     C77146   7.341   8.579   6.166 -0.0279  0.9474 -0.3421
  572MOL0     C77147   7.481   8.634   6.193  0.8042 -0.4954  0.5822
  572MOL0     C77148   7.468   8.785   6.159  0.0338  0.4262  0.0991
  572MOL0     C77149   7.583   8.866   6.166 -0.2826  0.0469 -0.3176
  572MOL0     C77150   7.678   8.943   6.174  0.2687 -0.7568  0.1249
  572MOL0     C77151   7.584   8.245   5.951  1.3387  0.3768  0.7412
  572MOL0     C77152   7.623   8.117   5.921  0.3754  0.5576  0.1961
  572MOL0     H77153   7.313   7.571   5.971  0.5796 -1.2060  1.0255
  572MOL0     H77154   7.304   7.367   5.919  0.9696 -1.1462  1.5584
  572MOL0     H77155   7.360   7.158   5.941 -1.3323 -0.5126 -1.0236
  572MOL0     H77156   7.427   7.047   5.818  1.5398  1.1685 -0.5859
  572MOL0     H77157   7.481   6.990   6.052 -0.9870 -1.6651 -3.4194
  572MOL0     H77158   7.618   7.006   5.943 -2.6535 -2.4357 -1.1994
  572MOL0     H77159   7.675   7.215   6.038 -0.8252  0.7636 -2.1811
  572MOL0     H77160   7.514   7.245   6.115  3.5632  2.3727  3.1001
  572MOL0     H77161   7.559   7.069   6.271 -0.3603  1.6315 -1.2244
  572MOL0     H77162   7.719   7.050   6.186 -0.8832 -0.5806 -1.0459
  572MOL0     H77163   7.764   7.302   6.257 -1.7280  2.8839 -0.2897
  572MOL0     H77164   7.605   7.302   6.321 -1.8733 -1.9688  1.9730
  572MOL0     H77165   7.673   7.134   6.495 -0.2049 -0.9216 -0.9454
  572MOL0     H77166   7.830   7.119   6.424 -2.0360 -0.3546 -1.5496
  572MOL0     H77167   7.855   7.285   6.591 -0.2405  1.2050  1.0920
  572MOL0     H77168   7.829   7.396   6.446 -0.2357 -0.0309 -0.1622
  572MOL0     H77169   7.597   7.423   6.513 -1.0398  0.1071  0.5086
  572MOL0     H77170   7.714   7.481   6.633  0.2633 -1.1948  0.1412
  572MOL0     H77171   7.771   7.292   6.832 -0.9933  1.1602 -0.7932
  572MOL0     H77172   7.701   7.025   6.959  0.3685  2.1968 -4.6277
  572MOL0     H77173   7.675   7.172   7.055  0.9587 -0.5733  1.2895
  572MOL0     H77174   7.452   7.119   7.086  2.3983  1.5416  1.9783
  572MOL0     H77175   7.538   7.003   7.158 -4.5647 -1.2704  0.8173
  572MOL0     H77176   7.504   6.850   6.928  0.9655  0.2224  0.0427
  572MOL0     H77177   7.388   6.974   6.889  2.3735 -2.7872 -3.3363
  572MOL0     H77178   7.240   6.811   6.995 -0.6074  1.7462 -0.1424
  572MOL0     H77179   7.281   6.917   7.131 -5.0207 -1.7299 -1.1353
  572MOL0     H77180   7.627   6.670   7.196  2.6644  0.2735  0.7734
  572MOL0     H77181   7.777   6.488   7.226  0.1099 -1.4339  1.6869
  572MOL0     H77182   7.821   6.383   7.089  0.2497  0.5858  0.0533
  572MOL0     H77183   7.866   6.557   7.093  2.1777 -2.3948  1.4558
  572MOL0     H77184   7.856   6.455   6.583 -0.5313  1.1544  3.1967
  572MOL0     H77185   8.015   6.325   6.432 -0.8860  0.8051 -1.6951
  572MOL0     H77186   7.916   6.048   6.364  1.2582  0.2615  0.8194
  572MOL0     H77187   8.068   6.012   6.270 -1.5957  0.7029 -1.0920
  572MOL0     H77188   8.157   5.862   6.453  0.3146  0.5356  0.1562
  572MOL0     H77189   7.999   5.864   6.522  0.1532  0.1976 -0.2164
  572MOL0     H77190   8.062   5.789   6.232  2.5004  3.0226  2.1765
  572MOL0     H77191   7.901   5.769   6.304 -0.0041  0.1211 -0.6212
  572MOL0     H77192   8.171   5.630   6.349 -0.4702  2.0528 -1.9916
  572MOL0     H77193   8.067   5.604   6.482  2.8132 -1.4006 -0.1611
  572MOL0     H77194   7.974   5.536   6.198 -0.1966 -4.6311 -0.6703
  572MOL0     H77195   7.875   5.530   6.340 -1.8423 -2.8318 -4.3403
  572MOL0     H77196   7.976   5.309   6.249  1.6539 -1.5258  0.6192
  572MOL0     H77197   8.126   5.371   6.307 -0.3241  2.6928  0.3019
  572MOL0     H77198   7.897   5.261   6.437 -0.1720  0.6015 -2.5941
  572MOL0     H77199   7.958   5.417   6.525 -0.4198 -1.5253  0.7391
  572MOL0     H77200   8.188   5.301   6.518 -1.0612 -0.4841 -3.2256
  572MOL0     H77201   8.113   5.152   6.492  0.1982 -0.4115  0.3198
  572MOL0     H77202   8.042   6.007   6.710 -0.7542 -0.7707  1.3128
  572MOL0     H77203   7.888   6.138   6.863  0.9068  3.3979  0.9954
  572MOL0     H77204   7.430   6.436   6.806  1.9557 -3.5490 -0.1521
  572MOL0     H77205   7.305   6.610   6.911 -0.5345 -0.1797 -0.5128
  572MOL0     H77206   7.717   7.373   5.798  2.0847  1.6600 -0.8392
  572MOL0     H77207   7.723   7.625   5.836  0.1761  0.8005  1.8101
  572MOL0     H77208   7.355   7.944   6.023 -0.2603  1.1355  1.0834
  572MOL0     H77209   7.289   8.167   6.099  0.0856  3.8683 -0.5288
  572MOL0     H77210   7.253   8.381   6.143  1.0096 -1.1735  1.5753
  572MOL0     H77211   7.390   8.386   6.247  2.1497 -0.4445 -0.7469
  572MOL0     H77212   7.276   8.606   6.249  3.0855 -1.8554  3.4051
  572MOL0     H77213   7.305   8.622   6.072  1.7534 -1.5226 -2.3178
  572MOL0     H77214   7.555   8.590   6.126 -0.3689 -1.5000 -0.0895
  572MOL0     H77215   7.496   8.626   6.301 -4.2044 -0.7814  1.5021
  572MOL0     H77216   7.390   8.825   6.224  0.8074  3.0839 -0.4709
  572MOL0     H77217   7.435   8.795   6.055  0.0994  0.5413  0.0886
  572MOL0     H77218   7.759   9.009   6.196 -0.8073  0.8101 -0.4504
  572MOL0     H77219   7.654   8.323   5.922  1.5871  0.3009  1.1190
  572MOL0     H77220   7.720   8.116   5.873  1.3609  3.6892  1.7845
  573MOL0     O77221   1.464   0.638   3.782  0.2595 -0.0391 -0.2735
  573MOL0     C77222   1.551   0.714   3.742  0.4416 -0.9663  0.2900
  573MOL0     O77223   1.594   0.714   3.613 -0.2075  0.2170 -0.5960
  573MOL0     C77224   1.536   0.638   3.517 -0.8287 -0.1628  0.7431
  573MOL0     C77225   1.470   0.700   3.403 -0.7463 -0.1841 -0.5808
  573MOL0     C77226   1.421   0.617   3.309 -0.6257 -0.8866  1.3004
  573MOL0     C77227   1.442   0.477   3.309  0.1691  0.7727 -0.6614
  573MOL0     O77228   1.389   0.386   3.221  0.3952 -0.6065  0.7752
  573MOL0     C77229   1.374   0.425   3.078 -0.1828  0.0474 -1.1050
  573MOL0     C77230   1.343   0.303   2.992 -0.6217  1.2031 -0.0963
  573MOL0     C77231   1.393   0.335   2.846 -0.8054 -0.3711 -0.4024
  573MOL0     C77232   1.547   0.318   2.836  0.2033 -0.4784 -0.5498
  573MOL0     C77233   1.568   0.337   2.684 -0.2916  0.5535  0.2290
  573MOL0     C77234   1.714   0.305   2.636 -0.3346 -0.3328  0.9182
  573MOL0     C77235   1.718   0.299   2.481 -0.2311 -0.1591 -0.5972
  573MOL0     C77236   1.668   0.426   2.425 -0.8415 -0.0767 -0.6276
  573MOL0     N77237   1.727   0.444   2.292  0.0268  0.5345  0.2612
  573MOL0     C77238   1.737   0.350   2.184  0.9255 -0.1074  0.3899
  573MOL0     C77239   1.800   0.410   2.084  0.0345 -0.6832 -0.0059
  573MOL0     C77240   1.816   0.379   1.935  0.3019 -0.5750 -0.2146
  573MOL0     C77241   1.683   0.415   1.862  0.2000  0.5511 -0.3097
  573MOL0     C77242   1.695   0.560   1.830 -0.3825 -0.4663  0.6057
  573MOL0     C77243   1.562   0.618   1.770  1.1150  0.4547 -0.8459
  573MOL0     O77244   1.446   0.547   1.818  0.2308 -0.7820  0.7819
  573MOL0     C77245   1.391   0.591   1.936  0.2961  0.4141  1.0590
  573MOL0     C77246   1.441   0.682   2.030  0.0198 -0.8436 -0.5909
  573MOL0     C77247   1.374   0.707   2.156  0.6914 -0.8457  1.6690
  573MOL0     C77248   1.457   0.790   2.255  0.4098 -0.5755 -0.0614
  573MOL0     C77249   1.243   0.645   2.178 -0.2190 -0.2465 -0.2533
  573MOL0     C77250   1.161   0.664   2.303 -0.6959  0.5753 -0.9228
  573MOL0     O77251   1.055   0.577   2.323 -0.6591 -0.0638  0.8132
  573MOL0     C77252   1.017   0.561   2.447 -0.6061  0.1019 -0.1592
  573MOL0     C77253   1.080   0.456   2.513 -0.5772 -0.1457  0.7337
  573MOL0     C77254   1.051   0.429   2.645  0.4373  0.0662  0.8895
  573MOL0     C77255   0.964   0.512   2.715  0.5913 -0.7371 -0.4695
  573MOL0     O77256   0.960   0.492   2.846 -0.3343  0.7322  0.3532
  573MOL0     C77257   0.909   0.586   2.942 -0.0841 -1.0768 -0.9778
  573MOL0     C77258   0.868   0.506   3.063  0.3712  0.8723  0.6797
  573MOL0     C77259   0.734   0.437   3.050  0.0944 -0.5064 -0.0390
  573MOL0     C77260   0.682   0.368   3.165 -1.2446  0.3235 -0.5237
  573MOL0     C77261   0.760   0.240   3.182 -0.9075  0.3315  0.6526
  573MOL0     C77262   0.718   0.158   3.302 -0.6690 -0.4736  0.0904
  573MOL0     C77263   0.758   0.012   3.276  0.5829  0.0589 -0.2304
  573MOL0     C77264   0.719  -0.083   3.383 -0.1127  0.2388 -0.2804
  573MOL0    Cl77265   0.535  -0.112   3.383  0.3178 -0.0928 -0.0988
  573MOL0     C77266   0.897   0.618   2.647 -0.0572  0.9806  0.2155
  573MOL0     C77267   0.921   0.644   2.512  0.0715  0.0816 -0.2534
  573MOL0     O77268   1.184   0.750   2.388 -0.1850  0.4461  0.5750
  573MOL0     C77269   1.195   0.559   2.081  0.8052 -0.2053 -0.3826
  573MOL0     C77270   1.269   0.534   1.966  0.3453  1.3956 -0.0837
  573MOL0     N77271   1.842   0.530   2.134 -0.8652  0.4174 -0.1185
  573MOL0     N77272   1.810   0.547   2.261  0.4964 -0.0626 -0.0441
  573MOL0     C77273   1.502   0.417   3.422  0.4807 -0.0776 -0.1195
  573MOL0     C77274   1.549   0.499   3.524 -0.8912  1.5088 -0.7809
  573MOL0     C77275   1.621   0.789   3.847 -0.8549  0.3132 -0.4626
  573MOL0     C77276   1.717   0.879   3.803 -0.1698  0.0561  0.0657
  573MOL0     C77277   1.780   0.955   3.900  0.3646  0.7717 -0.6947
  573MOL0     C77278   1.756   0.931   4.042  0.1706 -1.4243  0.7915
  573MOL0     O77279   1.834   1.001   4.129 -0.6316  0.0074 -0.4878
  573MOL0     C77280   1.773   1.088   4.230 -0.0511  0.0020  0.1494
  573MOL0     C77281   1.869   1.205   4.262  1.1768 -0.1335  0.1945
  573MOL0     C77282   1.992   1.165   4.342 -0.1158  0.1672 -0.0617
  573MOL0     C77283   2.092   1.286   4.377 -0.6070  0.4499  0.5769
  573MOL0     C77284   2.141   1.349   4.259  1.1099 -0.0419 -0.4893
  573MOL0     C77285   2.182   1.405   4.157 -0.4445  0.4028  0.1314
  573MOL0     C77286   1.650   0.847   4.077 -0.6557 -0.4329 -0.0719
  573MOL0     C77287   1.586   0.769   3.980  0.0128 -0.0234 -0.6907
  573MOL0     H77288   1.455   0.808   3.396 -0.3196 -0.0209  0.6646
  573MOL0     H77289   1.365   0.659   3.226  0.0507 -2.4206  0.0107
  573MOL0     H77290   1.301   0.505   3.060  0.6375  1.0475 -0.1545
  573MOL0     H77291   1.474   0.462   3.055  1.1760 -0.5808  3.0299
  573MOL0     H77292   1.395   0.213   3.026 -0.6812  1.1890 -0.0431
  573MOL0     H77293   1.236   0.281   2.996 -0.7710  2.1021  2.1681
  573MOL0     H77294   1.344   0.259   2.785 -0.1303 -2.2937  1.3472
  573MOL0     H77295   1.365   0.433   2.807  1.1243  0.5074  0.2759
  573MOL0     H77296   1.601   0.398   2.886 -2.6731  0.4510  1.2638
  573MOL0     H77297   1.585   0.225   2.880  0.3299  0.7524  2.0952
  573MOL0     H77298   1.506   0.275   2.619 -1.5399  1.7905  0.1794
  573MOL0     H77299   1.536   0.440   2.664 -0.7585 -0.0647 -2.6374
  573MOL0     H77300   1.778   0.391   2.660  1.9454 -0.7978 -2.7164
  573MOL0     H77301   1.753   0.211   2.674  0.7915 -0.2419  0.0571
  573MOL0     H77302   1.824   0.283   2.463 -0.4973 -4.0810  0.2716
  573MOL0     H77303   1.662   0.216   2.435  1.1906 -3.0206  2.4164
  573MOL0     H77304   1.692   0.511   2.489  0.2133 -1.1166  0.4200
  573MOL0     H77305   1.560   0.426   2.411 -0.6048  2.8642 -3.7622
  573MOL0     H77306   1.692   0.251   2.179  1.9714 -0.5183 -1.6807
  573MOL0     H77307   1.900   0.438   1.897  0.2483  0.1661  0.7878
  573MOL0     H77308   1.846   0.274   1.928  4.3742  0.3599  0.7301
  573MOL0     H77309   1.602   0.391   1.932  0.2607 -2.2476 -1.0861
  573MOL0     H77310   1.676   0.338   1.785  1.4633 -1.0498  1.0962
  573MOL0     H77311   1.768   0.584   1.751 -1.8529  2.6222  0.0638
  573MOL0     H77312   1.718   0.610   1.924  0.7515  0.2568 -0.0173
  573MOL0     H77313   1.566   0.597   1.663 -0.5128 -1.3979 -0.6079
  573MOL0     H77314   1.544   0.726   1.773  0.5898  0.3778 -1.1151
  573MOL0     H77315   1.534   0.730   2.002  1.1987 -1.7432  1.5690
  573MOL0     H77316   1.481   0.734   2.346  3.5162  0.7981  0.0849
  573MOL0     H77317   1.548   0.825   2.207  0.4480  2.2688  1.8496
  573MOL0     H77318   1.418   0.891   2.271  2.0224  0.3187 -1.4393
  573MOL0     H77319   1.162   0.396   2.475 -1.5326 -0.7607 -0.4380
  573MOL0     H77320   1.110   0.348   2.685 -0.2771  0.0351  1.9240
  573MOL0     H77321   0.986   0.656   2.974 -0.3955 -0.1706 -2.1362
  573MOL0     H77322   0.821   0.637   2.900  1.3462  0.9954 -1.5813
  573MOL0     H77323   0.947   0.434   3.088 -0.4698 -0.4660 -0.4213
  573MOL0     H77324   0.855   0.576   3.146 -0.4293  0.4758  0.8909
  573MOL0     H77325   0.725   0.372   2.963 -4.2225 -0.9920  0.5476
  573MOL0     H77326   0.674   0.527   3.035 -0.0889 -0.5003  0.6733
  573MOL0     H77327   0.708   0.414   3.261  4.2709 -2.4155 -0.3496
  573MOL0     H77328   0.575   0.350   3.150 -0.9084 -0.5757 -1.9578
  573MOL0     H77329   0.870   0.245   3.186 -0.5964 -0.2134 -3.0907
  573MOL0     H77330   0.747   0.174   3.096 -0.3691 -1.4400  1.8753
  573MOL0     H77331   0.775   0.192   3.389 -0.7146  1.0276 -0.4394
  573MOL0     H77332   0.610   0.159   3.320 -0.8910 -0.1487 -1.1674
  573MOL0     H77333   0.867   0.014   3.268  0.9678  1.1066  3.6415
  573MOL0     H77334   0.715  -0.040   3.189  3.0302 -1.8485 -0.3876
  573MOL0     H77335   0.755  -0.037   3.476 -1.0022 -0.0379  0.2061
  573MOL0     H77336   0.769  -0.180   3.371  0.7717  1.0300 -3.9739
  573MOL0     H77337   0.845   0.682   2.719  2.4046 -0.2961  3.3741
  573MOL0     H77338   0.892   0.734   2.458  0.3227  0.0673 -0.4140
  573MOL0     H77339   1.099   0.515   2.103  2.2467 -2.7823  1.1454
  573MOL0     H77340   1.220   0.462   1.900  1.2185 -0.5207  1.2660
  573MOL0     H77341   1.493   0.310   3.439 -5.0462  0.1052  0.0587
  573MOL0     H77342   1.590   0.455   3.614 -0.1624  2.4618 -0.6385
  573MOL0     H77343   1.766   0.886   3.707  0.4232 -0.5929  0.3107
  573MOL0     H77344   1.858   1.025   3.869  0.5532  0.6750 -0.4450
  573MOL0     H77345   1.681   1.133   4.193 -0.3479  0.6674  1.6265
  573MOL0     H77346   1.738   1.024   4.312 -1.6691  1.7532  0.8867
  573MOL0     H77347   1.815   1.279   4.322  0.1815 -1.0350  0.4489
  573MOL0     H77348   1.891   1.242   4.161  2.8873  0.8157  0.8717
  573MOL0     H77349   2.055   1.103   4.278  0.4555  2.8257 -2.2483
  573MOL0     H77350   1.961   1.117   4.436  1.4225 -2.5371 -0.8402
  573MOL0     H77351   2.179   1.243   4.428  0.4486  0.8331 -0.8417
  573MOL0     H77352   2.055   1.364   4.445  1.9219  2.0599  0.2330
  573MOL0     H77353   2.242   1.458   4.086 -0.6696 -0.5239 -0.7634
  573MOL0     H77354   1.611   0.825   4.177  0.1689 -2.8880 -0.2195
  573MOL0     H77355   1.490   0.728   4.010  1.2225 -1.6734  1.2241
  574MOL0     O77356   4.074   4.336   2.436  0.2374  0.2550  0.7557
  574MOL0     C77357   4.134   4.423   2.372  0.4760  0.3157 -0.6284
  574MOL0     O77358   4.081   4.549   2.339 -0.5111  0.1904  0.0654
  574MOL0     C77359   3.961   4.591   2.385  0.2760 -0.8901  0.6029
  574MOL0     C77360   3.864   4.588   2.283  0.5775 -0.5236  0.6122
  574MOL0     C77361   3.734   4.641   2.308 -0.5462  0.1312  0.2234
  574MOL0     C77362   3.703   4.699   2.431 -0.7119 -0.7170 -0.8255
  574MOL0     O77363   3.579   4.748   2.453 -0.4403 -0.3650 -0.8353
  574MOL0     C77364   3.534   4.772   2.588 -0.1563 -0.2488  0.7864
  574MOL0     C77365   3.391   4.818   2.585  0.1146  0.2805  0.5998
  574MOL0     C77366   3.377   4.974   2.556 -0.2350  0.1246  0.2624
  574MOL0     C77367   3.410   5.061   2.674 -0.2528 -0.0798 -0.6257
  574MOL0     C77368   3.409   5.210   2.625 -0.2915  0.2043  0.4891
  574MOL0     C77369   3.275   5.301   2.634  0.6070  1.2504  0.0910
  574MOL0     C77370   3.237   5.301   2.786  0.1706 -0.7164 -0.1972
  574MOL0     C77371   3.156   5.432   2.826  0.0499 -0.7702 -0.6933
  574MOL0     N77372   3.022   5.443   2.771  0.4646  0.1077 -0.7919
  574MOL0     C77373   2.912   5.372   2.818 -0.0176 -0.3071  0.2601
  574MOL0     C77374   2.824   5.376   2.716  0.0576 -1.2968  1.0420
  574MOL0     C77375   2.682   5.317   2.725 -0.1146  0.1790 -0.3137
  574MOL0     C77376   2.655   5.211   2.837  0.1979  1.3723  1.4233
  574MOL0     C77377   2.552   5.105   2.794 -0.0288  0.5928 -0.5718
  574MOL0     C77378   2.534   4.998   2.901 -0.3774  0.6158  0.6075
  574MOL0     O77379   2.474   5.062   3.013  0.4814 -0.7432 -0.3374
  574MOL0     C77380   2.338   5.071   3.018 -0.2997 -0.6139  0.2872
  574MOL0     C77381   2.294   5.125   3.137  0.0599  0.1028  0.6661
  574MOL0     C77382   2.154   5.139   3.168 -0.2455  0.2811  0.7834
  574MOL0     C77383   2.124   5.189   3.305  0.0199 -0.7640  0.2719
  574MOL0     C77384   2.060   5.089   3.080  0.8369 -0.8175  0.3593
  574MOL0     C77385   1.914   5.103   3.096  0.1684 -0.7677  0.3405
  574MOL0     O77386   1.826   5.019   3.042  0.1957 -0.1215  0.0945
  574MOL0     C77387   1.694   5.027   3.062  0.1375  0.7820  0.0006
  574MOL0     C77388   1.613   5.122   2.996  0.2763  0.2873  0.2048
  574MOL0     C77389   1.471   5.116   3.000 -0.2362 -0.1294 -0.5650
  574MOL0     C77390   1.408   5.016   3.081 -0.0058 -0.4580 -1.4392
  574MOL0     O77391   1.270   5.017   3.104 -0.0420  0.1223  0.3520
  574MOL0     C77392   1.219   4.979   3.231 -0.9350  0.9808 -0.9228
  574MOL0     C77393   1.082   5.032   3.269 -0.4848 -0.3739  0.3497
  574MOL0     C77394   1.067   5.073   3.421 -0.0698  0.1390 -0.3265
  574MOL0     C77395   1.097   4.958   3.522  0.2324 -0.1114  0.8312
  574MOL0     C77396   1.059   5.003   3.663  0.8393  0.5258 -0.0984
  574MOL0     C77397   0.910   5.025   3.674 -0.0444 -0.3856 -0.3732
  574MOL0     C77398   0.868   5.032   3.827 -0.9008  0.8404  0.2256
  574MOL0     C77399   0.717   5.026   3.840  0.2783  0.1901 -0.1896
  574MOL0    Cl77400   0.665   4.858   3.822  0.3349 -0.7438 -0.4043
  574MOL0     C77401   1.494   4.925   3.143  1.2679 -0.1420 -0.7274
  574MOL0     C77402   1.631   4.924   3.136 -0.2564 -0.0802  0.5127
  574MOL0     O77403   1.867   5.198   3.162 -0.3118  0.6294 -0.4075
  574MOL0     C77404   2.105   5.035   2.959  0.0151  0.0081 -0.0046
  574MOL0     C77405   2.247   5.026   2.927  0.9711  0.8987 -0.2801
  574MOL0     N77406   2.882   5.445   2.609  0.1404 -0.1020 -0.6846
  574MOL0     N77407   2.999   5.484   2.638 -0.9172  1.0396  0.7674
  574MOL0     C77408   3.808   4.711   2.526  0.4355  0.4113 -0.1229
  574MOL0     C77409   3.929   4.642   2.505  0.7959  0.3172 -0.6061
  574MOL0     C77410   4.264   4.372   2.312  0.5653  0.3598 -0.4406
  574MOL0     C77411   4.371   4.459   2.274 -0.0520  0.1727 -0.6646
  574MOL0     C77412   4.490   4.415   2.222  0.4262 -1.2402  1.0067
  574MOL0     C77413   4.512   4.282   2.200 -0.2686 -1.1031 -0.6721
  574MOL0     O77414   4.627   4.236   2.135  0.5384 -0.1823  0.3689
  574MOL0     C77415   4.629   4.100   2.111 -0.2942  0.4665 -0.4071
  574MOL0     C77416   4.760   4.071   2.041  0.1669 -0.7638 -0.4007
  574MOL0     C77417   4.764   4.158   1.909  0.1797  0.2396 -1.2557
  574MOL0     C77418   4.888   4.131   1.829 -0.3802 -1.0458  0.1110
  574MOL0     C77419   4.881   4.232   1.724 -0.8241  1.1010  0.0606
  574MOL0     C77420   4.892   4.331   1.656 -0.3210  0.4706  0.2313
  574MOL0     C77421   4.415   4.191   2.245  0.3503 -1.2758 -0.9616
  574MOL0     C77422   4.286   4.233   2.292 -0.2885 -0.6167 -1.1760
  574MOL0     H77423   3.878   4.547   2.183 -4.2113  0.0595 -0.5186
  574MOL0     H77424   3.667   4.620   2.225 -1.7128  2.6187  0.4512
  574MOL0     H77425   3.543   4.681   2.648  0.9166  0.0531  1.1074
  574MOL0     H77426   3.600   4.852   2.624  0.9481 -0.2707 -1.0711
  574MOL0     H77427   3.332   4.763   2.511  0.6625  0.7285 -0.1730
  574MOL0     H77428   3.340   4.803   2.681 -0.9576  1.7563  0.2980
  574MOL0     H77429   3.450   5.005   2.480  2.3558  0.3797  2.6683
  574MOL0     H77430   3.273   4.995   2.533 -0.2040  2.1282  1.6686
  574MOL0     H77431   3.340   5.039   2.754 -0.9735 -5.2229 -2.2729
  574MOL0     H77432   3.509   5.042   2.715 -0.9764  1.0599  1.8033
  574MOL0     H77433   3.478   5.251   2.699  1.3384 -2.2567  0.4383
  574MOL0     H77434   3.448   5.217   2.523  0.9342 -1.5474  0.8040
  574MOL0     H77435   3.281   5.406   2.605 -3.6101  2.7064  3.4190
  574MOL0     H77436   3.182   5.261   2.592  1.3647  1.5974 -2.0553
  574MOL0     H77437   3.190   5.206   2.814  0.3665 -1.0158 -0.8509
  574MOL0     H77438   3.330   5.300   2.843  0.4124 -1.5529 -0.5835
  574MOL0     H77439   3.215   5.516   2.789 -3.0697  2.1654  0.5712
  574MOL0     H77440   3.150   5.454   2.933 -0.9098  1.0395 -1.0929
  574MOL0     H77441   2.921   5.331   2.918  1.9664 -1.4922 -0.3529
  574MOL0     H77442   2.608   5.398   2.721  1.1535  1.3792 -0.2177
  574MOL0     H77443   2.670   5.268   2.628 -1.2689  0.1459 -0.1756
  574MOL0     H77444   2.623   5.266   2.926  1.3677  2.2096  1.3562
  574MOL0     H77445   2.757   5.172   2.847 -0.0788  0.5461  1.0952
  574MOL0     H77446   2.587   5.047   2.708  2.9958 -1.5183  1.8570
  574MOL0     H77447   2.461   5.165   2.782 -0.3109  0.0951 -0.9715
  574MOL0     H77448   2.624   4.938   2.918 -0.8618 -0.2801  0.0954
  574MOL0     H77449   2.466   4.918   2.870  1.7464 -1.2683  0.5338
  574MOL0     H77450   2.372   5.163   3.203  0.6786  2.5136 -1.2959
  574MOL0     H77451   2.219   5.202   3.359 -2.5357  3.3451  4.4531
  574MOL0     H77452   2.092   5.293   3.300  3.5549  0.4081 -0.9671
  574MOL0     H77453   2.058   5.123   3.362  1.8725 -0.3467  3.1070
  574MOL0     H77454   1.681   5.182   2.937  2.5060 -1.0222  1.3112
  574MOL0     H77455   1.421   5.190   2.938  0.8120 -0.0077 -1.2930
  574MOL0     H77456   1.225   4.871   3.244 -1.4960  0.9697 -0.7075
  574MOL0     H77457   1.287   5.016   3.309 -3.0486  1.2155  0.9248
  574MOL0     H77458   1.060   5.116   3.203  0.0558  0.9677  1.8175
  574MOL0     H77459   1.011   4.955   3.237  0.0467  0.0915 -2.1735
  574MOL0     H77460   0.959   5.090   3.427 -0.0013  1.3956 -1.8413
  574MOL0     H77461   1.110   5.172   3.440 -1.5467  0.6015  0.8069
  574MOL0     H77462   1.065   4.855   3.505  4.1622 -1.6024  1.3614
  574MOL0     H77463   1.206   4.949   3.527  0.3123 -0.4497 -0.9569
  574MOL0     H77464   1.110   5.099   3.667  1.0230  0.6375 -3.1257
  574MOL0     H77465   1.087   4.937   3.746 -0.7401 -2.5610 -1.8515
  574MOL0     H77466   0.874   5.113   3.621 -4.4544 -2.0223 -0.5412
  574MOL0     H77467   0.865   4.930   3.642 -0.7369 -1.5660  3.5143
  574MOL0     H77468   0.897   5.126   3.876  1.1514  0.0141  0.6960
  574MOL0     H77469   0.926   4.968   3.894  1.6841 -0.1219 -2.6822
  574MOL0     H77470   0.662   5.074   3.759  1.8111  1.1408 -0.7030
  574MOL0     H77471   0.678   5.070   3.933 -0.0103  2.0088 -1.1351
  574MOL0     H77472   1.457   4.841   3.202 -0.3509  0.3291 -1.0055
  574MOL0     H77473   1.695   4.851   3.184 -3.2542 -2.5256  1.0440
  574MOL0     H77474   2.025   5.014   2.889  0.2457  0.2195 -0.3342
  574MOL0     H77475   2.274   4.983   2.831 -3.8168  0.9209 -1.9424
  574MOL0     H77476   3.797   4.789   2.601 -2.0450  1.8934 -1.8823
  574MOL0     H77477   4.005   4.652   2.581  0.1977  0.1537  0.0259
  574MOL0     H77478   4.364   4.567   2.282  1.3397  0.7014 -4.5425
  574MOL0     H77479   4.559   4.492   2.190 -0.3302 -0.6857  0.6663
  574MOL0     H77480   4.614   4.038   2.200 -1.1785  0.7138 -0.3649
  574MOL0     H77481   4.544   4.068   2.050 -1.4282 -4.0557  2.9747
  574MOL0     H77482   4.784   3.966   2.026  0.4590 -1.0816  1.8764
  574MOL0     H77483   4.840   4.116   2.101 -1.3479  1.4410  0.1145
  574MOL0     H77484   4.750   4.265   1.926 -1.9425  0.0109 -1.2789
  574MOL0     H77485   4.672   4.138   1.852  0.2024  1.4324 -1.7426
  574MOL0     H77486   4.893   4.028   1.793  0.6703 -1.2013  0.6720
  574MOL0     H77487   4.976   4.150   1.891 -1.3587  1.5891  0.8011
  574MOL0     H77488   4.911   4.420   1.600 -1.2333  0.7925  0.4090
  574MOL0     H77489   4.434   4.084   2.241  1.6759 -1.5052  4.2455
  574MOL0     H77490   4.220   4.155   2.330 -0.5171 -0.3219 -0.9610
  575MOL0     O77491   4.464  10.816   0.251 -0.6057  0.4391  0.1597
  575MOL0     C77492   4.415  10.916   0.300  0.1864  0.0260 -0.7582
  575MOL0     O77493   4.302  10.987   0.265  0.5860  0.2401  0.1133
  575MOL0     C77494   4.248  10.943   0.150  0.2289  0.3428  0.6010
  575MOL0     C77495   4.235  11.025   0.037  0.5963 -0.6874 -0.0094
  575MOL0     C77496   4.201  10.977  -0.083  0.5121 -0.3370  0.1032
  575MOL0     C77497   4.191  10.840  -0.113  0.1005 -0.2884  0.9682
  575MOL0     O77498   4.177  10.778  -0.240  0.2304 -0.2010 -0.2354
  575MOL0     C77499   4.263  10.828  -0.335 -0.8590  0.3375  0.5666
  575MOL0     C77500   4.230  10.759  -0.456  0.7914 -0.3183 -0.1062
  575MOL0     C77501   4.301  10.821  -0.575 -0.0372 -0.9933  0.3769
  575MOL0     C77502   4.238  10.944  -0.645 -0.1413  0.5009  0.3163
  575MOL0     C77503   4.352  11.027  -0.705  0.1157  1.2985  0.9031
  575MOL0     C77504   4.415  10.956  -0.826 -0.3044 -0.0428  0.3590
  575MOL0     C77505   4.533  11.040  -0.881 -0.0800  0.4999 -0.2102
  575MOL0     C77506   4.495  11.183  -0.936 -0.7532  0.5456 -0.9264
  575MOL0     N77507   4.432  11.173  -1.068 -0.4867  0.4147 -0.3449
  575MOL0     C77508   4.506  11.148  -1.179  0.0696  0.0122 -0.0363
  575MOL0     C77509   4.411  11.128  -1.273 -0.5995  0.2439 -0.1258
  575MOL0     C77510   4.440  11.074  -1.416 -0.2174 -0.5603  0.2269
  575MOL0     C77511   4.397  11.166  -1.531 -0.2842 -1.6071 -0.8590
  575MOL0     C77512   4.461  11.304  -1.522  0.3608 -0.2423 -0.1535
  575MOL0     C77513   4.436  11.361  -1.652 -0.5594 -1.1278 -0.7430
  575MOL0     O77514   4.492  11.493  -1.649 -0.0260  0.8181  0.4363
  575MOL0     C77515   4.513  11.557  -1.764 -0.6197 -0.1737 -0.1155
  575MOL0     C77516   4.528  11.687  -1.765  0.5357 -0.2953 -0.5197
  575MOL0     C77517   4.559  11.762  -1.875  0.5625 -0.7166  0.1555
  575MOL0     C77518   4.605  11.905  -1.849  0.5346  0.7964  1.3645
  575MOL0     C77519   4.550  11.704  -2.007  0.3667 -0.5440  0.5674
  575MOL0     C77520   4.549  11.781  -2.138  0.6871  0.2101 -0.3578
  575MOL0     O77521   4.502  11.704  -2.258  0.6921 -0.2848  0.4893
  575MOL0     C77522   4.522  11.758  -2.383  0.5767 -0.0426  1.4843
  575MOL0     C77523   4.649  11.812  -2.430  0.4885  0.6399  0.0812
  575MOL0     C77524   4.662  11.863  -2.558 -0.6466 -0.3461  1.1795
  575MOL0     C77525   4.567  11.853  -2.651  0.8194 -0.0039  0.3470
  575MOL0     O77526   4.573  11.897  -2.782  0.5215  0.9734  0.6594
  575MOL0     C77527   4.699  11.940  -2.822  0.5036 -0.3624  0.0758
  575MOL0     C77528   4.700  12.095  -2.795  0.2819  0.7742  0.2438
  575MOL0     C77529   4.834  12.159  -2.834  0.2430 -0.2524  0.5838
  575MOL0     C77530   4.840  12.313  -2.861  0.5359  1.2926 -0.1425
  575MOL0     C77531   4.801  12.412  -2.744  1.1386  0.1766 -0.3896
  575MOL0     C77532   4.867  12.416  -2.612  0.8741  0.3357  0.0214
  575MOL0     C77533   5.016  12.453  -2.630 -0.3887  0.4428  0.0668
  575MOL0     C77534   5.091  12.473  -2.490 -0.7814  0.2265  0.2170
  575MOL0    Cl77535   5.105  12.302  -2.431  0.3268 -0.0257 -0.6062
  575MOL0     C77536   4.455  11.769  -2.622  0.9102  0.7458 -0.3929
  575MOL0     C77537   4.433  11.722  -2.494 -0.0025  0.5019 -0.1328
  575MOL0     O77538   4.561  11.896  -2.135  0.2588  0.4865  0.4386
  575MOL0     C77539   4.516  11.567  -2.011 -0.4414 -0.4524  0.4581
  575MOL0     C77540   4.508  11.493  -1.889 -1.2104  0.3125 -0.5995
  575MOL0     N77541   4.285  11.163  -1.231  0.9009  0.4234 -0.3860
  575MOL0     N77542   4.301  11.198  -1.110 -0.7631 -1.1556 -0.8176
  575MOL0     C77543   4.182  10.762  -0.002 -0.7843 -0.3590  0.2744
  575MOL0     C77544   4.211  10.804   0.124  0.3189 -0.3115  0.2473
  575MOL0     C77545   4.467  10.943   0.433  0.0571 -0.3077  0.0778
  575MOL0     C77546   4.408  11.043   0.511  0.2636 -0.5747  0.8104
  575MOL0     C77547   4.451  11.065   0.640  0.2957  0.1563 -0.5123
  575MOL0     C77548   4.549  10.978   0.705 -0.1690  0.0733  0.6567
  575MOL0     O77549   4.563  10.994   0.834  0.0492 -0.4036  0.5337
  575MOL0     C77550   4.654  10.909   0.899 -0.6890  0.3804 -0.4055
  575MOL0     C77551   4.656  10.958   1.052  1.0424 -0.0406  0.4546
  575MOL0     C77552   4.752  10.867   1.129  0.4156  0.1207 -1.0896
  575MOL0     C77553   4.766  10.912   1.271 -0.5200  0.4665  0.1322
  575MOL0     C77554   4.652  10.892   1.357  0.9439  0.2368  0.6270
  575MOL0     C77555   4.551  10.879   1.421  0.0364  0.3100  0.1479
  575MOL0     C77556   4.599  10.869   0.628 -0.3624  0.2085 -0.0063
  575MOL0     C77557   4.560  10.860   0.496  0.0435  0.3199  0.7557
  575MOL0     H77558   4.265  11.129   0.039  0.6364 -0.5167 -3.5979
  575MOL0     H77559   4.208  11.035  -0.174 -0.3531 -0.0663  0.2007
  575MOL0     H77560   4.242  10.935  -0.345  1.4406  0.9104  1.4350
  575MOL0     H77561   4.366  10.818  -0.301 -0.1139 -2.4861 -2.1148
  575MOL0     H77562   4.257  10.653  -0.456 -1.1854 -0.9047  1.8154
  575MOL0     H77563   4.122  10.748  -0.471  0.4124 -1.7347  2.8124
  575MOL0     H77564   4.401  10.835  -0.533  1.1867 -2.0995 -1.9649
  575MOL0     H77565   4.318  10.741  -0.648 -4.3608 -2.7022  0.9248
  575MOL0     H77566   4.170  10.926  -0.729  0.1603  0.9794 -0.0374
  575MOL0     H77567   4.177  10.999  -0.573  0.7151  0.2695  1.2473
  575MOL0     H77568   4.305  11.117  -0.746  1.1169  1.5058  0.1631
  575MOL0     H77569   4.425  11.050  -0.627  1.0785  0.5132  0.2544
  575MOL0     H77570   4.474  10.867  -0.804 -1.1595  0.0107  3.2195
  575MOL0     H77571   4.335  10.934  -0.898  0.0829 -1.2152  0.2668
  575MOL0     H77572   4.607  11.049  -0.801 -1.0664 -0.7788  0.8770
  575MOL0     H77573   4.599  10.984  -0.949  0.8079  0.8472  0.3470
  575MOL0     H77574   4.575  11.258  -0.940  0.2956 -0.0631  3.5485
  575MOL0     H77575   4.414  11.223  -0.874 -0.3393  0.7802 -0.5268
  575MOL0     H77576   4.614  11.142  -1.168  0.0377  0.2878  0.4567
  575MOL0     H77577   4.547  11.056  -1.431  0.5572  4.4108 -2.7470
  575MOL0     H77578   4.393  10.976  -1.425 -0.9148 -0.2126 -0.0062
  575MOL0     H77579   4.288  11.174  -1.537 -0.4076  0.4861  2.0989
  575MOL0     H77580   4.429  11.117  -1.624  1.9325 -0.0310 -0.9911
  575MOL0     H77581   4.570  11.301  -1.521  0.5548 -5.4975  2.8926
  575MOL0     H77582   4.412  11.368  -1.448 -2.4556  0.6418 -2.5728
  575MOL0     H77583   4.327  11.356  -1.661 -1.1604  0.2479  3.5389
  575MOL0     H77584   4.479  11.294  -1.727  0.3560  1.1477 -2.3452
  575MOL0     H77585   4.529  11.754  -1.679 -2.0086  0.4412 -1.0103
  575MOL0     H77586   4.618  11.937  -1.745 -3.0499  2.7188  1.3647
  575MOL0     H77587   4.697  11.908  -1.909  0.3631 -0.1753  1.0304
  575MOL0     H77588   4.536  11.981  -1.885  2.0867  0.1263 -3.9522
  575MOL0     H77589   4.745  11.822  -2.381  1.9982 -2.5539 -1.9326
  575MOL0     H77590   4.761  11.899  -2.582 -0.1722 -1.2746  1.6869
  575MOL0     H77591   4.782  11.883  -2.778  0.0597 -0.8627  0.2644
  575MOL0     H77592   4.709  11.920  -2.929 -0.7658  0.2028 -0.1673
  575MOL0     H77593   4.625  12.143  -2.859  1.7940  2.9918  0.0056
  575MOL0     H77594   4.658  12.128  -2.700  0.2135  0.0138  0.4851
  575MOL0     H77595   4.869  12.119  -2.929 -1.9408  4.5132 -2.6109
  575MOL0     H77596   4.900  12.133  -2.751 -1.2240 -1.9881  1.2555
  575MOL0     H77597   4.932  12.341  -2.913  0.2896  2.7176  0.1478
  575MOL0     H77598   4.769  12.329  -2.942  1.3295  0.2398 -1.0718
  575MOL0     H77599   4.695  12.385  -2.737  1.3618 -1.2149 -1.8009
  575MOL0     H77600   4.795  12.515  -2.779 -0.5680 -0.4046 -2.0732
  575MOL0     H77601   4.818  12.494  -2.553 -2.6036 -1.8926  0.3745
  575MOL0     H77602   4.862  12.321  -2.559  3.2529  0.3413  0.3559
  575MOL0     H77603   5.032  12.544  -2.688 -1.9563  1.3673  0.9744
  575MOL0     H77604   5.071  12.372  -2.679 -1.7113  0.7655 -2.0870
  575MOL0     H77605   5.043  12.548  -2.427  0.3036  0.8710  0.2892
  575MOL0     H77606   5.189  12.515  -2.515 -1.6432  0.5948 -3.1042
  575MOL0     H77607   4.377  11.753  -2.696 -0.2574  1.8903  0.5440
  575MOL0     H77608   4.350  11.654  -2.477 -0.7208  0.1345 -4.1960
  575MOL0     H77609   4.509  11.517  -2.107  2.2088 -0.9524  0.4665
  575MOL0     H77610   4.528  11.387  -1.893  1.3909  0.6530  0.8417
  575MOL0     H77611   4.170  10.655  -0.015  0.1890 -0.1106 -4.8257
  575MOL0     H77612   4.227  10.734   0.205  2.9229 -3.8129 -2.9107
  575MOL0     H77613   4.323  11.109   0.495 -0.5698 -1.9408 -0.7590
  575MOL0     H77614   4.389  11.130   0.700  1.4099 -0.4888  1.4331
  575MOL0     H77615   4.632  10.802   0.895 -1.8349  0.4066  2.5101
  575MOL0     H77616   4.755  10.920   0.858 -0.3667  0.1914  0.3042
  575MOL0     H77617   4.558  10.934   1.093  0.8052 -4.7995 -2.2419
  575MOL0     H77618   4.696  11.060   1.052  1.2406  0.1610 -4.5575
  575MOL0     H77619   4.857  10.859   1.098  0.9021 -0.7695  0.6244
  575MOL0     H77620   4.709  10.766   1.133 -2.6332  1.3080 -1.3606
  575MOL0     H77621   4.799  11.015   1.289 -2.2248  1.4236 -1.7691
  575MOL0     H77622   4.850  10.860   1.318 -1.4911 -1.1585  0.1359
  575MOL0     H77623   4.467  10.848   1.480 -0.5546  1.0443 -0.2885
  575MOL0     H77624   4.649  10.777   0.657 -3.1151 -2.8702 -3.8542
  575MOL0     H77625   4.587  10.769   0.445 -1.3232  1.3317 -1.9882
  576MOL0     O77626  10.616   1.353   0.699 -0.1275  0.1797  0.1414
  576MOL0     C77627  10.650   1.469   0.705  0.2802  0.3556  1.0206
  576MOL0     O77628  10.645   1.549   0.811  0.0639 -0.1102  0.1804
  576MOL0     C77629  10.605   1.485   0.928  0.0998  0.2608  0.2980
  576MOL0     C77630  10.489   1.515   0.986  0.8124 -0.7373  0.1676
  576MOL0     C77631  10.472   1.473   1.118  0.4651  0.0422  0.3586
  576MOL0     C77632  10.554   1.371   1.169 -0.2479  0.3732  0.3592
  576MOL0     O77633  10.515   1.326   1.291 -0.3117  0.0608  0.3117
  576MOL0     C77634  10.531   1.183   1.311  0.1108 -0.5627 -0.5389
  576MOL0     C77635  10.444   1.168   1.435 -0.0002  0.1473  0.1867
  576MOL0     C77636  10.506   1.258   1.553  0.2436  0.1096 -0.1433
  576MOL0     C77637  10.470   1.198   1.693 -0.6423 -0.1808 -0.2388
  576MOL0     C77638  10.523   1.060   1.718 -0.2640 -1.0215 -0.2242
  576MOL0     C77639  10.520   1.022   1.877 -0.3633 -0.2044  0.1441
  576MOL0     C77640  10.388   1.049   1.948  0.0699 -0.8946  0.2971
  576MOL0     C77641  10.391   0.977   2.083 -0.1912  0.3147 -0.4997
  576MOL0     N77642  10.258   0.966   2.139  0.6169  0.2660 -0.5555
  576MOL0     C77643  10.171   0.855   2.120  0.2852 -0.5966 -0.3304
  576MOL0     C77644  10.058   0.883   2.178  0.8869 -0.5104  0.8941
  576MOL0     C77645   9.926   0.803   2.176 -1.1258 -0.1982  0.1275
  576MOL0     C77646   9.900   0.747   2.311 -1.0584  0.1903 -0.2784
  576MOL0     C77647   9.808   0.862   2.379 -0.3803 -0.7065  0.3417
  576MOL0     C77648   9.778   0.848   2.538 -0.7651 -1.1109 -0.8112
  576MOL0     O77649   9.748   0.714   2.594  0.1338  0.0208 -0.1657
  576MOL0     C77650   9.650   0.647   2.533  0.6461 -0.3739  0.7490
  576MOL0     C77651   9.673   0.508   2.504 -0.1268 -0.0358  0.4011
  576MOL0     C77652   9.574   0.438   2.438 -0.7756  0.8663  0.0684
  576MOL0     C77653   9.613   0.296   2.399  0.1066 -0.1890  0.0445
  576MOL0     C77654   9.453   0.493   2.408  0.2614 -1.5327 -0.1325
  576MOL0     C77655   9.349   0.433   2.313 -0.0653  0.4826 -0.3714
  576MOL0     O77656   9.319   0.302   2.316 -0.0841  0.0974 -0.3074
  576MOL0     C77657   9.225   0.249   2.231  0.6975 -0.6923  0.2005
  576MOL0     C77658   9.272   0.148   2.154 -0.0059  0.0748 -0.1836
  576MOL0     C77659   9.188   0.083   2.064 -0.7654 -0.9060  0.7620
  576MOL0     C77660   9.059   0.136   2.031  0.5245  0.5124 -0.8009
  576MOL0     O77661   8.971   0.051   1.964  0.2049  0.3320 -0.1933
  576MOL0     C77662   8.885   0.111   1.864  0.1745 -0.4848  0.2928
  576MOL0     C77663   8.794   0.027   1.765  0.2904  0.9125  0.2180
  576MOL0     C77664   8.657  -0.002   1.815 -0.0508 -0.5524 -0.6853
  576MOL0     C77665   8.557  -0.051   1.704  0.3954 -0.4608 -0.0730
  576MOL0     C77666   8.417  -0.015   1.743 -1.7924 -0.1669 -0.1488
  576MOL0     C77667   8.365  -0.111   1.851 -0.1852  0.1035  0.2051
  576MOL0     C77668   8.215  -0.157   1.826  0.0546  0.3967  0.0871
  576MOL0     C77669   8.112  -0.045   1.798 -0.2461  0.5486  0.2561
  576MOL0    Cl77670   8.060  -0.074   1.644  0.2967  0.3466 -0.2481
  576MOL0     C77671   9.015   0.244   2.106 -1.2084 -0.2743  1.0416
  576MOL0     C77672   9.092   0.300   2.214 -0.4829 -0.2615 -0.1111
  576MOL0     O77673   9.302   0.511   2.235  0.6827  0.3578  0.5285
  576MOL0     C77674   9.432   0.624   2.441  0.1168  0.4241  0.5645
  576MOL0     C77675   9.531   0.706   2.493 -0.2776  0.1068  0.0720
  576MOL0     N77676  10.060   1.021   2.222 -0.3967  0.2939  0.1251
  576MOL0     N77677  10.179   1.060   2.203  0.2945  0.0134  0.3436
  576MOL0     C77678  10.672   1.338   1.112 -0.9095  0.0878  0.2453
  576MOL0     C77679  10.698   1.394   0.989 -0.3933  0.5691  0.4140
  576MOL0     C77680  10.680   1.546   0.580  0.0341  0.7832  0.8085
  576MOL0     C77681  10.646   1.476   0.458  0.0031 -0.3754  0.3694
  576MOL0     C77682  10.658   1.541   0.336  0.7800  0.0364  0.0272
  576MOL0     C77683  10.698   1.681   0.337 -0.2202  0.7548  0.2932
  576MOL0     O77684  10.724   1.753   0.213  0.8115 -0.6919  0.5207
  576MOL0     C77685  10.650   1.714   0.098 -0.1315 -0.1644  0.1120
  576MOL0     C77686  10.666   1.821  -0.009  0.5227  1.1058 -0.2007
  576MOL0     C77687  10.610   1.782  -0.140  0.9087 -1.2904 -0.1743
  576MOL0     C77688  10.538   1.896  -0.213  0.4139 -0.4610  0.1749
  576MOL0     C77689  10.519   1.852  -0.351  1.2214 -0.8458 -0.3141
  576MOL0     C77690  10.477   1.809  -0.457  0.3059 -0.3002  1.0632
  576MOL0     C77691  10.720   1.747   0.449  0.6317 -0.2892 -0.1412
  576MOL0     C77692  10.711   1.680   0.570 -0.2257  0.2657  0.2134
  576MOL0     H77693  10.417   1.570   0.927  2.1697 -0.2313 -1.0828
  576MOL0     H77694  10.400   1.523   1.182  1.3733 -1.8798  3.0676
  576MOL0     H77695  10.489   1.113   1.238 -2.1046 -1.1240  1.1619
  576MOL0     H77696  10.638   1.166   1.330  0.0690  0.4082  0.7082
  576MOL0     H77697  10.339   1.190   1.416 -0.2278  1.4293  2.6324
  576MOL0     H77698  10.436   1.063   1.465 -4.2702  0.7363  1.7277
  576MOL0     H77699  10.609   1.286   1.530 -0.4360  2.7990 -0.1714
  576MOL0     H77700  10.452   1.353   1.544 -3.4934 -1.8969 -1.0001
  576MOL0     H77701  10.515   1.263   1.769  1.9149 -1.1955 -0.8024
  576MOL0     H77702  10.362   1.204   1.709 -0.9792 -0.4189 -2.1844
  576MOL0     H77703  10.468   0.984   1.662 -0.5744 -1.1209  0.2044
  576MOL0     H77704  10.627   1.046   1.688 -0.4894 -1.4260 -0.8392
  576MOL0     H77705  10.549   0.917   1.886 -0.1569 -0.0301  1.7755
  576MOL0     H77706  10.597   1.087   1.920 -1.1232  3.2133 -3.1314
  576MOL0     H77707  10.357   1.152   1.967 -2.3437 -1.5602  0.2346
  576MOL0     H77708  10.310   1.004   1.887  0.0431 -0.3328 -0.0890
  576MOL0     H77709  10.454   1.041   2.145 -0.2549  1.7498 -1.8400
  576MOL0     H77710  10.434   0.877   2.076 -0.4938  0.1370  0.1658
  576MOL0     H77711  10.187   0.764   2.062 -1.5510 -1.4488  0.4273
  576MOL0     H77712   9.846   0.869   2.140  0.0905  2.6576  2.2768
  576MOL0     H77713   9.925   0.723   2.101 -1.4720  2.2088 -2.6069
  576MOL0     H77714   9.979   0.718   2.382 -2.2231  1.5837  1.6817
  576MOL0     H77715   9.833   0.661   2.301  0.9677 -1.2314 -2.8689
  576MOL0     H77716   9.707   0.853   2.337 -0.4619 -2.8452  0.8399
  576MOL0     H77717   9.844   0.963   2.362  2.4692 -1.4198  1.6702
  576MOL0     H77718   9.698   0.922   2.554  0.1704  0.2063 -1.9867
  576MOL0     H77719   9.874   0.869   2.586 -0.3141 -2.9051 -0.8648
  576MOL0     H77720   9.769   0.468   2.535 -1.9633 -2.1308  4.0414
  576MOL0     H77721   9.705   0.267   2.451  0.2516  0.9635  0.4715
  576MOL0     H77722   9.542   0.220   2.430 -1.6005  0.2287 -2.5993
  576MOL0     H77723   9.606   0.267   2.294  1.3143  1.0868 -0.4241
  576MOL0     H77724   9.377   0.120   2.166  1.0617  3.6017 -0.2077
  576MOL0     H77725   9.218  -0.007   2.011 -2.1391 -0.4707 -0.8642
  576MOL0     H77726   8.818   0.186   1.906  3.0876  0.9724  2.7076
  576MOL0     H77727   8.948   0.163   1.791  1.0209 -0.7654  0.8054
  576MOL0     H77728   8.792   0.074   1.666 -1.4846 -0.7726 -0.6247
  576MOL0     H77729   8.849  -0.067   1.751 -2.1756 -0.7729  1.0955
  576MOL0     H77730   8.631   0.098   1.852  1.9849 -0.4762  0.6839
  576MOL0     H77731   8.676  -0.075   1.893 -2.0421  0.3228  0.7148
  576MOL0     H77732   8.593  -0.003   1.612  4.5023 -3.3649 -0.2880
  576MOL0     H77733   8.572  -0.157   1.679  1.3325 -0.2371 -0.5046
  576MOL0     H77734   8.351  -0.026   1.656 -2.0415 -2.5434  0.2586
  576MOL0     H77735   8.425   0.092   1.764  0.1387 -0.7414  2.5186
  576MOL0     H77736   8.412  -0.209   1.863 -1.4062 -0.9323 -2.5913
  576MOL0     H77737   8.368  -0.058   1.947 -0.9149 -0.1533  0.3749
  576MOL0     H77738   8.181  -0.215   1.913  1.0898 -0.3286  0.0261
  576MOL0     H77739   8.212  -0.226   1.741  0.7553  1.0147 -0.4490
  576MOL0     H77740   8.175   0.044   1.792  1.9201 -0.8741  0.6316
  576MOL0     H77741   8.035  -0.027   1.874 -1.0098  2.6632 -0.9365
  576MOL0     H77742   8.913   0.278   2.091 -0.9809  0.1593  0.4519
  576MOL0     H77743   9.066   0.393   2.262  0.9165 -0.9874  2.2092
  576MOL0     H77744   9.335   0.669   2.422  0.1824  0.0131 -0.9221
  576MOL0     H77745   9.506   0.812   2.490 -1.1881 -0.1155 -1.7507
  576MOL0     H77746  10.749   1.274   1.155  0.4288  1.3662 -0.1777
  576MOL0     H77747  10.793   1.369   0.942  0.1335  0.6643  1.4025
  576MOL0     H77748  10.606   1.377   0.477 -0.3154  0.0868  2.3735
  576MOL0     H77749  10.635   1.479   0.250 -3.1788  1.7623 -0.3709
  576MOL0     H77750  10.694   1.621   0.061  0.8567  0.1362  0.4711
  576MOL0     H77751  10.545   1.711   0.125 -0.6439  2.2902 -1.2491
  576MOL0     H77752  10.773   1.836  -0.026  0.4142  0.5477 -1.5486
  576MOL0     H77753  10.609   1.909   0.020 -3.8331 -1.2598 -0.6373
  576MOL0     H77754  10.547   1.695  -0.121  0.1477 -0.8996 -0.8639
  576MOL0     H77755  10.698   1.758  -0.201  1.1446 -0.9667  0.0352
  576MOL0     H77756  10.600   1.985  -0.200 -1.4173  0.8112  0.5616
  576MOL0     H77757  10.438   1.910  -0.170 -0.1100 -1.7209 -0.5505
  576MOL0     H77758  10.451   1.784  -0.557 -1.2204  0.0051  1.3653
  576MOL0     H77759  10.758   1.849   0.446  1.2088 -0.3126  3.0246
  576MOL0     H77760  10.740   1.735   0.659  0.6234 -1.9706  1.3883
  577MOL0     O77761   9.673   2.085   1.517  0.1537 -0.0791  0.5693
  577MOL0     C77762   9.695   1.975   1.567 -0.2972 -0.0080  1.2121
  577MOL0     O77763   9.666   1.926   1.694  0.1077  0.5227  0.7711
  577MOL0     C77764   9.616   2.000   1.795  0.6757  0.0254  0.2913
  577MOL0     C77765   9.485   2.066   1.788  0.1129 -0.8052 -0.5935
  577MOL0     C77766   9.447   2.150   1.888 -0.7782  0.1892 -0.8510
  577MOL0     C77767   9.530   2.169   2.002  1.0311 -0.2253  1.3018
  577MOL0     O77768   9.491   2.250   2.104 -0.4523 -0.0107  0.3147
  577MOL0     C77769   9.345   2.285   2.119  0.4864  0.0036  0.2983
  577MOL0     C77770   9.328   2.385   2.235  0.8875 -0.2855  0.2258
  577MOL0     C77771   9.184   2.416   2.288  0.1075 -0.2371  0.3251
  577MOL0     C77772   9.179   2.496   2.426  0.8410  0.0803  0.1717
  577MOL0     C77773   9.178   2.644   2.397  0.8803 -0.0060 -1.5651
  577MOL0     C77774   9.130   2.741   2.509  0.8056 -0.0351 -0.1714
  577MOL0     C77775   9.118   2.887   2.450  0.4699  0.1638 -0.2551
  577MOL0     C77776   9.260   2.946   2.424  0.3286  1.1507  1.2886
  577MOL0     N77777   9.271   3.093   2.402  0.7246 -0.0935  0.0825
  577MOL0     C77778   9.206   3.162   2.300  0.5231 -0.0654 -0.2183
  577MOL0     C77779   9.243   3.285   2.327  0.6546 -0.1800  0.5695
  577MOL0     C77780   9.199   3.410   2.257 -0.0410 -0.0470  1.0247
  577MOL0     C77781   9.305   3.481   2.166 -0.8927  0.9206 -0.2079
  577MOL0     C77782   9.423   3.532   2.246  0.8640  0.6696 -0.7425
  577MOL0     C77783   9.535   3.600   2.167 -1.1001 -0.0526 -0.7527
  577MOL0     O77784   9.469   3.677   2.065  0.2739 -0.3146 -0.7596
  577MOL0     C77785   9.541   3.746   1.969  0.2802  0.3895 -0.4964
  577MOL0     C77786   9.669   3.779   1.987 -0.1856 -0.2089  0.3631
  577MOL0     C77787   9.741   3.843   1.882 -1.1263  0.4803  0.4925
  577MOL0     C77788   9.886   3.875   1.916 -1.2146 -0.8068 -0.2978
  577MOL0     C77789   9.675   3.899   1.768  0.9977  0.2395 -0.0984
  577MOL0     C77790   9.741   3.974   1.657  0.4885 -0.1840 -0.0143
  577MOL0     O77791   9.684   4.081   1.600 -0.1767  0.4272 -0.1968
  577MOL0     C77792   9.733   4.117   1.473 -0.1097 -0.2093  0.8231
  577MOL0     C77793   9.666   4.069   1.358 -0.3576  1.1177 -0.6848
  577MOL0     C77794   9.714   4.118   1.240 -0.2312  0.5847 -0.4998
  577MOL0     C77795   9.822   4.209   1.226  0.8274 -0.8456 -0.1015
  577MOL0     O77796   9.873   4.250   1.106  0.0453  0.4460 -0.3887
  577MOL0     C77797   9.887   4.142   1.012 -1.0984 -0.0273  0.5605
  577MOL0     C77798   9.965   4.202   0.897  0.5597  0.2039  0.7214
  577MOL0     C77799   9.893   4.311   0.807  0.0926  0.5681 -0.6289
  577MOL0     C77800   9.754   4.273   0.773 -0.3586  0.2914  0.3883
  577MOL0     C77801   9.696   4.316   0.643 -0.0103 -0.2428 -0.6613
  577MOL0     C77802   9.708   4.473   0.619  0.7785 -0.0146 -0.2232
  577MOL0     C77803   9.848   4.526   0.580  0.1118 -0.0793 -0.8907
  577MOL0     C77804   9.830   4.662   0.507 -0.1802 -1.0262 -0.8856
  577MOL0    Cl77805   9.997   4.716   0.469 -0.2122 -0.2741  0.4879
  577MOL0     C77806   9.891   4.250   1.335  0.2135 -1.1753 -0.7182
  577MOL0     C77807   9.847   4.205   1.461 -0.2800 -0.3766 -0.3267
  577MOL0     O77808   9.845   3.916   1.612  0.0346  0.6548 -0.3435
  577MOL0     C77809   9.532   3.892   1.776  0.2967  0.4135  0.0847
  577MOL0     C77810   9.471   3.812   1.868  0.7748  0.1681  1.6676
  577MOL0     N77811   9.334   3.289   2.436 -0.1126  0.8489  0.2435
  577MOL0     N77812   9.341   3.172   2.483  0.4502 -0.6345  0.2169
  577MOL0     C77813   9.651   2.099   2.012 -0.2297  0.3412 -0.9777
  577MOL0     C77814   9.689   1.999   1.920  0.7263  0.4657  0.6732
  577MOL0     C77815   9.766   1.880   1.485  0.6156 -0.3570 -0.5287
  577MOL0     C77816   9.756   1.888   1.342  0.1844 -0.8272  0.0692
  577MOL0     C77817   9.827   1.801   1.260  0.1385 -0.5063  0.0212
  577MOL0     C77818   9.911   1.705   1.318 -0.0456  0.1491  0.7838
  577MOL0     O77819   9.996   1.627   1.242  0.2180  0.2034  0.6637
  577MOL0     C77820   9.966   1.615   1.100 -0.0865  0.2796 -0.0583
  577MOL0     C77821  10.051   1.504   1.032  0.6239 -0.0642  0.5471
  577MOL0     C77822  10.027   1.379   1.108 -1.3038  0.0703 -0.4494
  577MOL0     C77823  10.032   1.256   1.028 -1.2857 -0.3319 -0.2170
  577MOL0     C77824  10.167   1.228   0.978  0.9676  0.0962 -0.7480
  577MOL0     C77825  10.280   1.220   0.939  0.6123 -0.4257  0.2982
  577MOL0     C77826   9.929   1.694   1.456 -0.1530 -0.2011  0.5138
  577MOL0     C77827   9.851   1.774   1.546  1.2133 -0.7854  0.7932
  577MOL0     H77828   9.426   2.052   1.698  0.6939 -1.7060 -0.8488
  577MOL0     H77829   9.348   2.195   1.883 -0.1838  1.5901 -0.6425
  577MOL0     H77830   9.296   2.320   2.027 -1.8218 -0.3489  1.3295
  577MOL0     H77831   9.289   2.192   2.134 -2.4711  1.7514  1.0052
  577MOL0     H77832   9.386   2.338   2.314 -1.0706 -1.2078  1.1858
  577MOL0     H77833   9.373   2.480   2.203  0.8236 -0.4935 -0.5086
  577MOL0     H77834   9.119   2.458   2.211 -1.5226 -2.5624  0.3305
  577MOL0     H77835   9.160   2.312   2.310 -0.1313 -0.6236 -1.5259
  577MOL0     H77836   9.087   2.453   2.466  3.3018 -4.5563  1.5823
  577MOL0     H77837   9.265   2.479   2.492  0.8948  0.6434  0.2549
  577MOL0     H77838   9.280   2.671   2.367  2.3150 -0.7816  2.1392
  577MOL0     H77839   9.095   2.661   2.328 -0.4029  0.6906  0.0960
  577MOL0     H77840   9.028   2.714   2.538  0.0568 -1.6570 -3.7791
  577MOL0     H77841   9.196   2.731   2.596  4.7407 -0.1794 -2.9161
  577MOL0     H77842   9.072   2.869   2.353 -0.6260 -0.5124  0.3690
  577MOL0     H77843   9.062   2.952   2.518  2.9162  0.3209  1.7678
  577MOL0     H77844   9.301   2.897   2.335 -2.5005  0.1290  0.4564
  577MOL0     H77845   9.327   2.916   2.505  4.1567  3.8883 -0.5497
  577MOL0     H77846   9.144   3.129   2.217 -1.7120  0.3646  1.2173
  577MOL0     H77847   9.114   3.376   2.196  2.7247 -3.8223 -1.1488
  577MOL0     H77848   9.168   3.492   2.322 -0.5385  0.0908  0.6249
  577MOL0     H77849   9.267   3.561   2.102 -1.4695 -0.5203 -1.7402
  577MOL0     H77850   9.341   3.411   2.090  5.8097  1.2355  2.0523
  577MOL0     H77851   9.466   3.453   2.309 -0.4589 -1.3993 -2.3030
  577MOL0     H77852   9.378   3.614   2.302  1.6268 -0.2010  1.2552
  577MOL0     H77853   9.613   3.533   2.131  0.5282  1.2615  0.2157
  577MOL0     H77854   9.589   3.668   2.233  0.0557 -2.8606  1.3866
  577MOL0     H77855   9.723   3.755   2.079 -3.0349  0.2271  2.2526
  577MOL0     H77856   9.915   3.975   1.884 -1.3625 -0.3116  1.0520
  577MOL0     H77857   9.903   3.871   2.024  2.0972  0.2860 -0.6778
  577MOL0     H77858   9.946   3.799   1.865 -0.7438 -0.5089 -0.1866
  577MOL0     H77859   9.580   4.003   1.365  1.9747 -2.0770  0.3558
  577MOL0     H77860   9.665   4.069   1.156 -3.4671  1.2144  0.8581
  577MOL0     H77861   9.929   4.052   1.059 -0.2388 -0.1238 -0.3434
  577MOL0     H77862   9.788   4.111   0.977 -0.6359 -0.5821 -0.3137
  577MOL0     H77863  10.056   4.247   0.937  0.3870  1.6153 -0.4097
  577MOL0     H77864  10.016   4.125   0.838  4.4681  4.4277 -2.1115
  577MOL0     H77865   9.961   4.320   0.722  3.8203 -2.2134  1.7394
  577MOL0     H77866   9.890   4.413   0.847  0.8160  0.4123 -0.1789
  577MOL0     H77867   9.755   4.164   0.760 -0.8065  0.4147 -0.8806
  577MOL0     H77868   9.683   4.310   0.846  0.7284  4.6706 -0.5040
  577MOL0     H77869   9.591   4.286   0.647 -0.3873  1.1524  1.2791
  577MOL0     H77870   9.753   4.267   0.563  1.3786  0.3635 -0.0766
  577MOL0     H77871   9.633   4.494   0.542  0.2869  2.0928  0.7566
  577MOL0     H77872   9.680   4.525   0.711 -1.0336  0.7996 -1.1723
  577MOL0     H77873   9.897   4.456   0.512  0.9695  1.2067 -1.6481
  577MOL0     H77874   9.910   4.542   0.668 -0.9725  3.2155 -0.5807
  577MOL0     H77875   9.795   4.736   0.579  1.4989  0.3783 -1.4266
  577MOL0     H77876   9.770   4.639   0.419 -0.3406 -1.6908 -0.6108
  577MOL0     H77877   9.966   4.328   1.325 -1.1237  0.8172  2.9737
  577MOL0     H77878   9.898   4.231   1.553 -0.1426 -0.0157 -0.5065
  577MOL0     H77879   9.475   3.964   1.719  0.0507  1.4939  1.6343
  577MOL0     H77880   9.362   3.811   1.868  0.5971  0.9240 -2.8655
  577MOL0     H77881   9.716   2.131   2.094  2.3675 -1.4729 -2.1799
  577MOL0     H77882   9.783   1.947   1.930  0.5581 -0.0776 -0.4521
  577MOL0     H77883   9.692   1.964   1.299  3.2192  0.8302 -1.9206
  577MOL0     H77884   9.820   1.833   1.157  0.2094  1.3005  0.5360
  577MOL0     H77885   9.857   1.607   1.088 -0.1404  1.3813 -0.4256
  577MOL0     H77886   9.995   1.714   1.063  1.1145 -0.2136 -0.5054
  577MOL0     H77887  10.155   1.529   1.010  1.7676 -3.2220  1.9155
  577MOL0     H77888   9.997   1.498   0.937  0.2472  2.2911  0.5532
  577MOL0     H77889   9.928   1.379   1.155 -0.7501  1.3610  0.8054
  577MOL0     H77890  10.105   1.376   1.185 -2.2032  0.3849  0.5057
  577MOL0     H77891   9.969   1.253   0.938  1.4609 -1.5351 -2.2504
  577MOL0     H77892  10.020   1.168   1.092  1.5561 -0.1908  0.6552
  577MOL0     H77893  10.375   1.243   0.895 -0.2695  0.7263 -1.0937
  577MOL0     H77894   9.998   1.620   1.497 -3.1420 -1.9067  2.8964
  577MOL0     H77895   9.853   1.763   1.654 -2.8157 -1.0358  0.9939
  578MOL0     O77896   4.315   8.683   9.205 -0.0623 -0.3739  0.3464
  578MOL0     C77897   4.399   8.598   9.171  0.3186  1.1945  0.1931
  578MOL0     O77898   4.537   8.588   9.196 -0.2410  0.3550  0.4973
  578MOL0     C77899   4.588   8.679   9.275 -0.9386  0.0447 -0.6024
  578MOL0     C77900   4.701   8.746   9.241 -0.4204 -0.6830 -0.9687
  578MOL0     C77901   4.758   8.845   9.323 -0.0794  0.8243 -0.6648
  578MOL0     C77902   4.703   8.880   9.443  0.0906  0.1011 -0.5148
  578MOL0     O77903   4.758   8.982   9.509  0.3823 -0.5731  0.1772
  578MOL0     C77904   4.697   9.046   9.624 -0.2922 -0.0934 -0.3446
  578MOL0     C77905   4.574   9.115   9.605  0.8505  0.1725 -0.3138
  578MOL0     C77906   4.493   9.130   9.735  0.4771 -0.1813 -0.4702
  578MOL0     C77907   4.351   9.182   9.710  0.0160  0.8242  0.0449
  578MOL0     C77908   4.266   9.152   9.835 -0.3275  0.0730  0.2178
  578MOL0     C77909   4.139   9.232   9.861  0.0753 -0.4529  0.2977
  578MOL0     C77910   4.006   9.152   9.885 -1.3354  0.4351  0.4895
  578MOL0     C77911   3.899   9.217   9.969  0.7867  1.4916 -0.1089
  578MOL0     N77912   3.844   9.325   9.886  0.0315 -0.6091  1.2408
  578MOL0     C77913   3.892   9.457   9.890  0.1572 -0.1804 -0.4901
  578MOL0     C77914   3.840   9.510   9.777 -0.1757 -0.6608 -0.0503
  578MOL0     C77915   3.861   9.649   9.709  0.3900  0.4639 -0.4654
  578MOL0     C77916   3.865   9.636   9.554 -0.3392 -0.6982 -0.7015
  578MOL0     C77917   4.001   9.589   9.508  0.1242  0.6841 -0.7299
  578MOL0     C77918   4.117   9.686   9.554 -0.5446  0.5458  0.6759
  578MOL0     O77919   4.228   9.602   9.540 -0.5324  1.0635 -0.3663
  578MOL0     C77920   4.339   9.636   9.465 -0.3993  0.2848  0.2113
  578MOL0     C77921   4.349   9.732   9.357  0.1131  0.3770 -0.3471
  578MOL0     C77922   4.471   9.733   9.282  0.8029  0.4523 -0.0264
  578MOL0     C77923   4.461   9.824   9.166 -0.2777  0.3043 -0.3854
  578MOL0     C77924   4.583   9.659   9.318  0.3915  0.0576  0.5815
  578MOL0     C77925   4.717   9.672   9.250 -0.9336 -0.0441 -1.3090
  578MOL0     O77926   4.735   9.729   9.125  0.4967  0.3692 -0.2952
  578MOL0     C77927   4.835   9.812   9.092 -1.2564  0.6516 -0.2099
  578MOL0     C77928   4.800   9.946   9.073 -0.3816  0.6313 -0.5805
  578MOL0     C77929   4.893  10.041   9.037  0.5774  0.5446  0.5693
  578MOL0     C77930   5.033  10.002   9.023  0.6157  0.5585 -0.2837
  578MOL0     O77931   5.126  10.099   8.982  0.0363 -0.2804 -0.1546
  578MOL0     C77932   5.261  10.092   9.035  0.1747  0.9257 -0.2882
  578MOL0     C77933   5.344  10.212   8.989 -0.2775  1.0081  0.1919
  578MOL0     C77934   5.315  10.331   9.072 -0.2436 -1.1596 -0.1131
  578MOL0     C77935   5.211  10.424   8.995 -0.7536  0.3635  0.0921
  578MOL0     C77936   5.142  10.504   9.110 -0.3282  0.3793  0.6770
  578MOL0     C77937   5.219  10.569   9.220 -0.2760  0.2800 -0.5784
  578MOL0     C77938   5.134  10.605   9.334  0.7672  0.8614 -1.0951
  578MOL0     C77939   5.076  10.744   9.313 -0.4590  0.0812 -0.2389
  578MOL0    Cl77940   4.942  10.768   9.425  0.4205 -0.0897 -0.0086
  578MOL0     C77941   5.068   9.871   9.056  1.0344  1.0122 -0.1675
  578MOL0     C77942   4.970   9.776   9.088 -0.3262  0.5589 -0.1097
  578MOL0     O77943   4.803   9.623   9.320  0.6544  0.2984  0.3739
  578MOL0     C77944   4.570   9.586   9.435  0.5493 -0.8893 -0.0841
  578MOL0     C77945   4.454   9.574   9.505 -0.9977  0.2286 -0.0988
  578MOL0     N77946   3.751   9.417   9.717  0.1953 -0.3733 -0.1806
  578MOL0     N77947   3.749   9.313   9.789  0.2942  0.5227 -0.0678
  578MOL0     C77948   4.598   8.801   9.489  0.6940 -0.5917  0.9070
  578MOL0     C77949   4.546   8.707   9.408  0.3577  0.7559  0.3062
  578MOL0     C77950   4.339   8.488   9.078 -0.4157 -0.0678 -0.2769
  578MOL0     C77951   4.198   8.483   9.059 -0.7490  0.6144 -0.8826
  578MOL0     C77952   4.135   8.375   9.011 -0.5096 -0.1313 -0.5450
  578MOL0     C77953   4.213   8.279   8.963 -0.4661  0.8021  0.0053
  578MOL0     O77954   4.175   8.161   8.900  0.5221  0.2034  0.6023
  578MOL0     C77955   4.080   8.087   8.976  0.4127  0.7063 -0.2622
  578MOL0     C77956   4.146   7.969   9.050 -1.0289  0.3979 -0.2030
  578MOL0     C77957   4.243   7.881   8.965  0.8780  0.0034  0.1331
  578MOL0     C77958   4.321   7.765   9.035  0.6309 -0.1593 -0.4828
  578MOL0     C77959   4.409   7.837   9.128  0.3980 -0.1875 -0.2030
  578MOL0     C77960   4.484   7.902   9.197  0.6000 -0.3134 -0.0830
  578MOL0     C77961   4.346   8.274   8.977 -0.1265 -0.0832 -0.0044
  578MOL0     C77962   4.414   8.370   9.041  0.1365 -0.4441 -0.3515
  578MOL0     H77963   4.740   8.721   9.143  1.1996 -2.2324 -0.0015
  578MOL0     H77964   4.849   8.889   9.283  0.6548 -0.2796 -0.2577
  578MOL0     H77965   4.675   8.964   9.693 -2.7764  0.2020 -0.6727
  578MOL0     H77966   4.771   9.111   9.672  1.2279 -1.9604 -0.0256
  578MOL0     H77967   4.590   9.219   9.575  2.4557  0.7386  2.1930
  578MOL0     H77968   4.507   9.062   9.537  0.5392 -2.3198  1.7655
  578MOL0     H77969   4.477   9.034   9.785 -2.3893  0.9413  0.9992
  578MOL0     H77970   4.550   9.197   9.800 -0.0302  1.2011 -1.3909
  578MOL0     H77971   4.359   9.291   9.721  3.3493  0.4894  2.6581
  578MOL0     H77972   4.315   9.141   9.616  1.0524 -0.1082  0.0341
  578MOL0     H77973   4.234   9.048   9.823  3.4661 -1.0113 -2.1596
  578MOL0     H77974   4.325   9.160   9.927  0.0233  2.0731 -0.1428
  578MOL0     H77975   4.169   9.283   9.953 -4.7297  1.8280  0.9253
  578MOL0     H77976   4.124   9.306   9.781  0.2101 -1.8400 -1.0613
  578MOL0     H77977   3.979   9.123   9.783  2.6073  1.7906 -1.1524
  578MOL0     H77978   4.034   9.054   9.926 -2.3176 -0.1142 -0.1025
  578MOL0     H77979   3.933   9.263  10.062  0.0635  0.1271  0.8620
  578MOL0     H77980   3.818   9.146   9.985  1.9424  0.0109 -0.5318
  578MOL0     H77981   3.956   9.498   9.968  1.2960 -0.6340 -1.1538
  578MOL0     H77982   3.771   9.705   9.737 -0.1733  1.0767 -3.1671
  578MOL0     H77983   3.940   9.695   9.768 -1.1474 -0.5449  2.5558
  578MOL0     H77984   3.843   9.735   9.514 -0.6869 -0.6667 -0.4380
  578MOL0     H77985   3.796   9.560   9.517 -0.2421 -0.1992 -1.9645
  578MOL0     H77986   3.994   9.584   9.399  0.5491  0.2608 -0.7443
  578MOL0     H77987   4.010   9.484   9.537  0.4517 -0.0604 -3.2523
  578MOL0     H77988   4.109   9.707   9.661  0.0743  3.9297  0.1731
  578MOL0     H77989   4.141   9.778   9.500  4.6482 -0.7964  0.1605
  578MOL0     H77990   4.265   9.792   9.323  0.6215  1.4060  0.1653
  578MOL0     H77991   4.362   9.869   9.157 -0.4348  0.2527  0.8561
  578MOL0     H77992   4.539   9.898   9.187  2.9052 -2.1198 -2.6652
  578MOL0     H77993   4.496   9.786   9.070 -1.0895  2.6866 -1.6799
  578MOL0     H77994   4.699   9.983   9.088  1.1665  4.7828  0.9312
  578MOL0     H77995   4.851  10.138   9.013 -0.1320  0.5812  1.8981
  578MOL0     H77996   5.255  10.064   9.141 -0.3317  0.0334 -0.5460
  578MOL0     H77997   5.306  10.004   8.988 -1.8482 -1.3028  1.6287
  578MOL0     H77998   5.449  10.184   9.000 -0.1869  2.2006  3.2896
  578MOL0     H77999   5.324  10.221   8.882 -2.2932 -2.4939  0.0802
  578MOL0     H78000   5.414  10.378   9.081  1.1182 -2.9442 -3.7583
  578MOL0     H78001   5.270  10.306   9.168  0.3653  0.6555  0.6980
  578MOL0     H78002   5.267  10.479   8.919  1.0766 -1.3742  0.1002
  578MOL0     H78003   5.148  10.361   8.931 -0.2666  1.4225 -1.4845
  578MOL0     H78004   5.063  10.438   9.147  0.2962 -0.2981  0.8268
  578MOL0     H78005   5.090  10.586   9.059 -0.2051  1.5304  2.3356
  578MOL0     H78006   5.297  10.502   9.256  1.2664  2.9714  1.3854
  578MOL0     H78007   5.267  10.656   9.173  1.7833 -2.0362 -3.0776
  578MOL0     H78008   5.176  10.606   9.435  0.8526  2.4320 -1.1224
  578MOL0     H78009   5.048  10.539   9.346  1.7562 -1.0239 -3.4950
  578MOL0     H78010   5.044  10.753   9.208 -2.0836 -1.0915  0.1118
  578MOL0     H78011   5.156  10.816   9.330  2.2274 -2.4984 -1.0100
  578MOL0     H78012   5.174   9.850   9.064  1.0116  1.3011  1.1398
  578MOL0     H78013   5.004   9.676   9.115  0.8296  1.4839  2.1231
  578MOL0     H78014   4.654   9.525   9.466  0.6936  0.4652  2.4660
  578MOL0     H78015   4.449   9.503   9.587 -1.9920 -0.8839 -1.0838
  578MOL0     H78016   4.549   8.839   9.578  0.5592  2.4195 -0.3322
  578MOL0     H78017   4.466   8.640   9.437  0.8210  1.4924  3.6522
  578MOL0     H78018   4.135   8.568   9.086 -0.8626  0.6045 -1.1062
  578MOL0     H78019   4.028   8.363   9.001 -0.6223 -0.9580  1.1967
  578MOL0     H78020   4.015   8.145   9.043 -0.0868 -0.4446  0.2815
  578MOL0     H78021   4.003   8.044   8.912 -0.8313  0.3906  1.3486
  578MOL0     H78022   4.075   7.898   9.096 -0.4555 -0.8164 -1.1268
  578MOL0     H78023   4.190   8.019   9.137  0.5564  2.4364 -2.0679
  578MOL0     H78024   4.322   7.947   8.928 -1.5550  2.3839 -1.1553
  578MOL0     H78025   4.192   7.833   8.880  3.4059  0.3111 -1.6562
  578MOL0     H78026   4.373   7.695   8.970 -1.1470 -3.1796  1.1245
  578MOL0     H78027   4.238   7.714   9.085 -1.4950  0.4891 -3.1070
  578MOL0     H78028   4.549   7.965   9.254 -1.7194  2.6564 -0.4971
  578MOL0     H78029   4.398   8.191   8.930  0.1380  1.4017 -2.5251
  578MOL0     H78030   4.522   8.375   9.046  0.1486  2.6168 -1.7450
  579MOL0     O78031   5.994   9.136  10.851  0.5909  0.3429 -0.3364
  579MOL0     C78032   5.902   9.208  10.812 -0.6482  0.8768 -0.5040
  579MOL0     O78033   5.847   9.214  10.686  0.3065  0.2745 -0.3068
  579MOL0     C78034   5.866   9.123  10.577  0.2921  0.3000 -0.3311
  579MOL0     C78035   5.786   9.138  10.459 -0.0355  0.4004  0.4408
  579MOL0     C78036   5.798   9.037  10.363 -0.2727 -0.5183  0.3221
  579MOL0     C78037   5.881   8.924  10.372 -0.0105 -0.1417  0.2757
  579MOL0     O78038   5.889   8.853  10.254  0.5617 -0.7603 -0.9038
  579MOL0     C78039   5.874   8.714  10.262 -0.1210  0.0514 -0.3064
  579MOL0     C78040   5.755   8.672  10.173 -0.0225 -0.3209 -0.5175
  579MOL0     C78041   5.740   8.527  10.188 -0.6147  0.4781  0.3182
  579MOL0     C78042   5.622   8.460  10.113  1.1614 -1.0253 -1.0245
  579MOL0     C78043   5.487   8.502  10.166 -0.3620 -0.2023 -0.3423
  579MOL0     C78044   5.362   8.426  10.105 -0.2962  0.1683  0.2480
  579MOL0     C78045   5.336   8.480   9.965  1.3229 -0.2382  0.1762
  579MOL0     C78046   5.263   8.392   9.857  0.5557  1.6844  0.7877
  579MOL0     N78047   5.125   8.344   9.907 -0.6284  0.6618  0.0309
  579MOL0     C78048   5.003   8.397   9.883 -0.9188  0.0174  0.3238
  579MOL0     C78049   4.915   8.327   9.961 -0.0714  0.1042  0.7307
  579MOL0     C78050   4.766   8.348   9.974  0.1222 -0.5066  0.1477
  579MOL0     C78051   4.719   8.475  10.043 -0.1746 -0.6489  0.1223
  579MOL0     C78052   4.717   8.608   9.951  0.5275  0.6589  0.1312
  579MOL0     C78053   4.611   8.588   9.831 -0.2460 -0.0906  0.2510
  579MOL0     O78054   4.510   8.488   9.857 -0.8644  0.1814 -0.7623
  579MOL0     C78055   4.383   8.512   9.912 -0.2878  0.0754  0.0826
  579MOL0     C78056   4.349   8.642   9.951  0.2716 -0.6723  0.8205
  579MOL0     C78057   4.222   8.674  10.010  0.9376  0.5604 -0.3719
  579MOL0     C78058   4.197   8.815  10.059  0.4073 -0.7440  0.7700
  579MOL0     C78059   4.132   8.561  10.047  0.2106  0.1166  0.6707
  579MOL0     C78060   3.998   8.585  10.107  0.7105 -0.0872 -0.3309
  579MOL0     O78061   3.957   8.481  10.177 -0.5472 -0.0408 -0.9402
  579MOL0     C78062   3.859   8.511  10.268 -0.5214  1.3035 -0.8829
  579MOL0     C78063   3.738   8.525  10.230  0.0505 -1.6035  0.4932
  579MOL0     C78064   3.639   8.562  10.320 -0.8867  0.1217 -0.7581
  579MOL0     C78065   3.668   8.584  10.454 -0.3125 -0.3501  0.8823
  579MOL0     O78066   3.578   8.626  10.546  0.1250 -0.8651 -0.2209
  579MOL0     C78067   3.532   8.512  10.618  0.0504  1.3845  0.6198
  579MOL0     C78068   3.473   8.554  10.759 -0.9878 -0.6386  0.1549
  579MOL0     C78069   3.427   8.436  10.840 -0.1004  0.7726 -0.6306
  579MOL0     C78070   3.336   8.331  10.752  0.1372 -0.3575 -0.5428
  579MOL0     C78071   3.247   8.237  10.836  0.2230 -0.4522  0.0464
  579MOL0     C78072   3.180   8.138  10.730  0.8149  1.0891 -0.2144
  579MOL0     C78073   3.109   8.206  10.615 -0.5009 -0.4706  0.8986
  579MOL0     C78074   3.014   8.112  10.545 -0.6629  0.2500 -0.0933
  579MOL0    Cl78075   2.854   8.086  10.620  0.1616 -0.0647  0.1992
  579MOL0     C78076   3.805   8.572  10.497 -0.2384 -0.4251 -0.2361
  579MOL0     C78077   3.894   8.538  10.400 -0.1892 -0.3044 -0.3805
  579MOL0     O78078   3.923   8.681  10.068 -1.0256 -1.1135 -0.8361
  579MOL0     C78079   4.179   8.429  10.020 -0.5140  0.6016 -0.0543
  579MOL0     C78080   4.302   8.408   9.951  0.0985 -0.4741  0.1159
  579MOL0     N78081   4.982   8.226  10.027  0.1567  0.7828  0.2854
  579MOL0     N78082   5.110   8.242   9.996 -0.1383  0.9605 -0.4416
  579MOL0     C78083   5.957   8.906  10.486  0.6858 -0.0810  0.6325
  579MOL0     C78084   5.945   9.002  10.596  0.0242  0.3215  0.6409
  579MOL0     C78085   5.853   9.301  10.917 -0.5342  0.7217 -0.7034
  579MOL0     C78086   5.775   9.408  10.874  0.3951  0.4978  0.7699
  579MOL0     C78087   5.711   9.486  10.969 -0.4236 -0.1665 -0.9757
  579MOL0     C78088   5.713   9.465  11.107 -0.3033 -0.1869 -0.0733
  579MOL0     O78089   5.651   9.548  11.204  0.4993  0.2552 -0.2998
  579MOL0     C78090   5.510   9.559  11.180  0.5773 -0.1626  0.9990
  579MOL0     C78091   5.453   9.537  11.323  0.2469  0.5451  0.0952
  579MOL0     C78092   5.313   9.475  11.326  0.4441 -0.0211 -0.6104
  579MOL0     C78093   5.314   9.325  11.374 -0.9786 -1.0847 -0.3143
  579MOL0     C78094   5.399   9.247  11.283 -0.1303  1.0283 -0.3092
  579MOL0     C78095   5.472   9.200  11.201  0.0649 -0.2649 -0.0922
  579MOL0     C78096   5.788   9.359  11.152  0.7111 -1.1300  0.8835
  579MOL0     C78097   5.860   9.282  11.064  0.0654  0.3226  0.2010
  579MOL0     H78098   5.708   9.211  10.439 -3.1990 -2.8470 -0.0552
  579MOL0     H78099   5.725   9.042  10.284 -2.5746  3.3994  2.3946
  579MOL0     H78100   5.963   8.664  10.225 -2.0213 -2.8005 -1.3703
  579MOL0     H78101   5.868   8.667  10.361  2.1077  0.1633 -0.0732
  579MOL0     H78102   5.662   8.713  10.215 -0.0718 -0.1507 -0.7878
  579MOL0     H78103   5.768   8.694  10.067  3.0194  1.9686  0.1886
  579MOL0     H78104   5.836   8.482  10.159 -0.6954  0.0271  0.7298
  579MOL0     H78105   5.718   8.500  10.292  2.0949  3.4043  1.8259
  579MOL0     H78106   5.636   8.494  10.010 -1.4432 -2.3032 -1.9021
  579MOL0     H78107   5.633   8.352  10.109  1.2098 -1.0025 -1.8219
  579MOL0     H78108   5.476   8.484  10.273 -2.6012  0.6618 -0.3706
  579MOL0     H78109   5.485   8.610  10.143  1.0829  0.4028  2.0498
  579MOL0     H78110   5.373   8.318  10.098 -1.6075  0.0793 -0.6705
  579MOL0     H78111   5.273   8.444  10.167 -0.9423 -0.9036 -0.3449
  579MOL0     H78112   5.286   8.577   9.966 -2.1823 -1.8944 -0.4005
  579MOL0     H78113   5.436   8.493   9.923  1.7838  1.1884  1.6137
  579MOL0     H78114   5.314   8.296   9.846 -2.2114 -0.0628  2.0960
  579MOL0     H78115   5.259   8.443   9.760  3.7037  0.1704 -0.2922
  579MOL0     H78116   4.979   8.466   9.803 -0.1277 -1.3488 -1.1532
  579MOL0     H78117   4.714   8.342   9.878 -2.0829  0.4149  1.2083
  579MOL0     H78118   4.729   8.259  10.027 -2.0483 -0.9285 -1.8948
  579MOL0     H78119   4.790   8.488  10.126  2.1570  0.7170 -1.9557
  579MOL0     H78120   4.624   8.469  10.096 -0.5169  0.5756 -0.3231
  579MOL0     H78121   4.814   8.635   9.908  0.3074  1.0412 -0.1298
  579MOL0     H78122   4.679   8.683  10.021 -2.2431 -1.6062  1.2741
  579MOL0     H78123   4.673   8.556   9.746 -0.2775  1.7091 -0.4994
  579MOL0     H78124   4.572   8.688   9.806 -1.4717 -0.8266 -0.9351
  579MOL0     H78125   4.421   8.722   9.939 -1.6152  1.1535  1.0882
  579MOL0     H78126   4.108   8.829  10.120  0.6615 -0.2333  1.0304
  579MOL0     H78127   4.281   8.840  10.124 -0.4770 -2.9383  2.9132
  579MOL0     H78128   4.227   8.886   9.980  0.5426 -0.3992  1.1298
  579MOL0     H78129   3.720   8.519  10.124  4.3144 -2.8327 -0.3427
  579MOL0     H78130   3.541   8.556  10.275 -0.1692  0.2380 -2.3808
  579MOL0     H78131   3.451   8.476  10.553  0.1290  1.8394  0.2702
  579MOL0     H78132   3.594   8.422  10.624 -2.4424 -0.4091  0.9652
  579MOL0     H78133   3.557   8.592  10.818  0.2508 -2.3745 -0.4307
  579MOL0     H78134   3.385   8.619  10.748 -0.6891 -0.0437  1.1080
  579MOL0     H78135   3.362   8.472  10.920  0.9401  1.3625 -0.0291
  579MOL0     H78136   3.523   8.393  10.869  1.3642  4.6502  0.9235
  579MOL0     H78137   3.270   8.388  10.686  0.2190  1.0540  0.5415
  579MOL0     H78138   3.405   8.277  10.686  1.5595 -2.4618  2.4449
  579MOL0     H78139   3.164   8.288  10.886 -1.3098 -1.9381 -0.8519
  579MOL0     H78140   3.300   8.175  10.909 -0.8815 -0.5686  0.7742
  579MOL0     H78141   3.260   8.077  10.685  3.4646  3.1857  1.3431
  579MOL0     H78142   3.111   8.068  10.779 -1.3339  1.6658 -2.2481
  579MOL0     H78143   3.189   8.236  10.547 -0.4438  3.7833  2.5215
  579MOL0     H78144   3.075   8.307  10.641 -3.6900 -1.1996  0.0166
  579MOL0     H78145   3.059   8.013  10.530 -1.0781 -0.3716  2.4205
  579MOL0     H78146   3.004   8.160  10.447  1.7810  1.0622 -0.0200
  579MOL0     H78147   3.833   8.599  10.599 -1.3809  0.8866 -0.2354
  579MOL0     H78148   4.000   8.527  10.417 -0.0561  0.2994 -0.7868
  579MOL0     H78149   4.119   8.348  10.059 -1.6084  0.5453 -1.7541
  579MOL0     H78150   4.327   8.308   9.916  1.3977  0.3255 -1.3268
  579MOL0     H78151   6.027   8.825  10.503 -0.9538 -0.9300  4.4843
  579MOL0     H78152   6.015   8.987  10.677 -0.0315  1.1220  0.8426
  579MOL0     H78153   5.762   9.429  10.769  4.7684 -0.6115 -0.1803
  579MOL0     H78154   5.661   9.574  10.930  0.2002  1.5086  1.6571
  579MOL0     H78155   5.486   9.657  11.137 -3.4377 -2.0596 -1.7457
  579MOL0     H78156   5.481   9.489  11.101 -0.5334 -0.3493  1.5540
  579MOL0     H78157   5.451   9.636  11.371  1.4150  0.5932  0.0832
  579MOL0     H78158   5.521   9.476  11.383 -3.8515 -1.1363  3.4371
  579MOL0     H78159   5.273   9.492  11.226  1.9781 -0.3140 -1.3187
  579MOL0     H78160   5.253   9.537  11.392  1.7693  0.6181  0.0460
  579MOL0     H78161   5.209   9.297  11.391 -0.6718 -0.2362  3.9097
  579MOL0     H78162   5.356   9.327  11.475  0.7755 -0.0229 -1.0265
  579MOL0     H78163   5.538   9.180  11.119  0.8052  0.5330  0.2855
  579MOL0     H78164   5.812   9.342  11.257  3.5173  0.2032  0.5751
  579MOL0     H78165   5.911   9.192  11.097  0.0723 -1.4249 -3.9426
  580MOL0     O78166   0.439   9.850   2.233 -0.3385  0.2298 -0.5492
  580MOL0     C78167   0.506   9.926   2.303  0.3277  0.1141  0.5718
  580MOL0     O78168   0.518  10.063   2.300  0.1956 -0.5703 -0.5274
  580MOL0     C78169   0.448  10.146   2.214 -0.2994  0.1594  0.0011
  580MOL0     C78170   0.431  10.110   2.080  0.7051 -0.8792  0.3127
  580MOL0     C78171   0.357  10.191   1.985  0.5781  0.2082 -0.5491
  580MOL0     C78172   0.304  10.318   2.027 -0.0767  0.1071  0.2545
  580MOL0     O78173   0.239  10.416   1.945  0.1761 -0.5734  0.1839
  580MOL0     C78174   0.282  10.405   1.805 -0.2340 -0.0511 -0.6882
  580MOL0     C78175   0.254  10.542   1.721  0.3876  1.0834  0.5966
  580MOL0     C78176   0.306  10.676   1.793  0.6269 -0.6694  1.3622
  580MOL0     C78177   0.371  10.785   1.698 -0.4796  0.2492 -0.3878
  580MOL0     C78178   0.250  10.833   1.602 -0.7023  0.0810 -1.0336
  580MOL0     C78179   0.270  10.798   1.458 -0.7578 -0.5776  0.1935
  580MOL0     C78180   0.156  10.840   1.372  0.5967  0.6776 -0.2612
  580MOL0     C78181   0.164  10.794   1.220  0.1444 -0.4576  0.0089
  580MOL0     N78182   0.277  10.883   1.164  0.0180 -0.3665 -0.2175
  580MOL0     C78183   0.271  11.016   1.133  0.6354  0.2878 -0.3135
  580MOL0     C78184   0.388  11.052   1.077 -0.5891  0.7103 -0.9652
  580MOL0     C78185   0.428  11.182   1.037 -0.1563 -0.9951  0.0358
  580MOL0     C78186   0.375  11.223   0.894  0.2346 -0.0798 -0.5146
  580MOL0     C78187   0.418  11.354   0.828 -0.4086 -0.4235 -0.3739
  580MOL0     C78188   0.423  11.356   0.674  0.3580 -0.4110  0.7373
  580MOL0     O78189   0.457  11.491   0.637  0.1758  0.0765 -0.4502
  580MOL0     C78190   0.482  11.490   0.505 -0.6009 -1.1663  1.1551
  580MOL0     C78191   0.424  11.416   0.403  0.3186 -0.6797 -0.2182
  580MOL0     C78192   0.456  11.452   0.273  1.1537 -0.3826 -0.5421
  580MOL0     C78193   0.378  11.376   0.171 -0.6448 -0.5434 -0.1813
  580MOL0     C78194   0.565  11.535   0.240 -0.3903  0.3593 -0.8202
  580MOL0     C78195   0.602  11.575   0.102  0.3104 -0.9704  0.5519
  580MOL0     O78196   0.697  11.670   0.087 -0.2681  0.7845 -0.1339
  580MOL0     C78197   0.737  11.703  -0.035 -0.9233  0.7981  0.2426
  580MOL0     C78198   0.756  11.832  -0.074 -1.1940 -0.4882  0.5306
  580MOL0     C78199   0.815  11.857  -0.198  0.0879  0.3765 -0.1916
  580MOL0     C78200   0.880  11.765  -0.278  0.6148  0.4990 -1.0483
  580MOL0     O78201   0.926  11.809  -0.402  0.5487  0.3102  0.0231
  580MOL0     C78202   0.986  11.722  -0.487 -0.1794 -0.1603  0.2034
  580MOL0     C78203   1.028  11.801  -0.607  0.2394 -0.2122  0.1437
  580MOL0     C78204   1.158  11.882  -0.564 -0.6287 -0.0640  0.1848
  580MOL0     C78205   1.207  11.973  -0.671 -0.4138 -0.6851 -0.0767
  580MOL0     C78206   1.110  12.081  -0.701 -0.0877 -0.7944 -0.8665
  580MOL0     C78207   1.083  12.192  -0.599 -0.5483  0.1201 -0.2905
  580MOL0     C78208   0.940  12.188  -0.548 -0.3438  0.1792  0.3891
  580MOL0     C78209   0.903  12.323  -0.481 -0.0048  0.0250  0.6983
  580MOL0    Cl78210   0.821  12.417  -0.604 -0.2701  0.1293 -0.3278
  580MOL0     C78211   0.867  11.634  -0.229 -0.0046 -0.4674  0.0368
  580MOL0     C78212   0.797  11.598  -0.119  0.5874 -0.1678 -0.4815
  580MOL0     O78213   0.537  11.524   0.011  0.8882 -0.0617  0.6278
  580MOL0     C78214   0.622  11.611   0.343 -0.2746  0.0502 -0.2928
  580MOL0     C78215   0.581  11.589   0.472  0.7510 -0.0185 -0.9083
  580MOL0     N78216   0.467  10.937   1.082 -0.1324 -0.1859  0.0472
  580MOL0     N78217   0.404  10.836   1.136  0.4017  0.5971  0.1591
  580MOL0     C78218   0.325  10.355   2.164 -0.3533 -0.3445  1.0222
  580MOL0     C78219   0.399  10.271   2.258  0.4041 -0.1973  0.7592
  580MOL0     C78220   0.569   9.868   2.426  1.0172  1.1592 -0.4474
  580MOL0     C78221   0.665   9.939   2.508 -1.0741 -0.1764 -0.4805
  580MOL0     C78222   0.734   9.881   2.620 -0.3356 -0.0988  0.4585
  580MOL0     C78223   0.705   9.758   2.660  0.1352 -0.1621 -0.1236
  580MOL0     O78224   0.760   9.693   2.770 -1.0628 -0.0180  0.4223
  580MOL0     C78225   0.895   9.728   2.809 -1.2130  0.7180  0.1177
  580MOL0     C78226   0.974   9.605   2.853  0.7275 -0.4289  0.2832
  580MOL0     C78227   1.048   9.657   2.980 -0.3382  0.2976  0.5786
  580MOL0     C78228   1.132   9.545   3.046  0.1840  0.9274 -1.1174
  580MOL0     C78229   1.205   9.613   3.163  0.0218  0.1395  0.6845
  580MOL0     C78230   1.267   9.649   3.252 -0.7421 -0.1240 -0.4644
  580MOL0     C78231   0.606   9.691   2.589  0.1844 -0.2191  0.9239
  580MOL0     C78232   0.535   9.743   2.470  0.3972  0.1513  0.7213
  580MOL0     H78233   0.474  10.013   2.055 -0.7316 -2.0083  1.9513
  580MOL0     H78234   0.354  10.140   1.890 -3.3750 -5.1266  1.8707
  580MOL0     H78235   0.391  10.391   1.806 -0.0609  1.1130  0.6991
  580MOL0     H78236   0.229  10.317   1.767 -3.3670 -0.7226  4.3087
  580MOL0     H78237   0.294  10.529   1.620 -1.4885  1.3012 -0.2341
  580MOL0     H78238   0.145  10.539   1.712  0.3268 -2.7257  1.2551
  580MOL0     H78239   0.209  10.707   1.833 -0.1299 -0.0524 -0.8160
  580MOL0     H78240   0.376  10.660   1.876  4.8394 -1.4705 -1.9976
  580MOL0     H78241   0.400  10.873   1.756  1.6530  0.5924 -1.8809
  580MOL0     H78242   0.460  10.746   1.647  0.8812  2.2849  0.3311
  580MOL0     H78243   0.154  10.789   1.632 -0.3042 -1.3966 -1.8010
  580MOL0     H78244   0.244  10.941   1.619 -0.5883 -0.2610  1.6308
  580MOL0     H78245   0.346  10.871   1.431  1.1338 -2.4281  0.2610
  580MOL0     H78246   0.290  10.691   1.449 -2.7107 -0.8824 -1.2160
  580MOL0     H78247   0.073  10.788   1.420  0.6273 -0.3955 -1.3094
  580MOL0     H78248   0.138  10.947   1.379 -1.7068  0.3752 -0.7834
  580MOL0     H78249   0.065  10.812   1.176  0.7005  0.5232 -0.8836
  580MOL0     H78250   0.193  10.688   1.216 -2.0053 -1.1412  0.8802
  580MOL0     H78251   0.184  11.078   1.154  1.3909  0.7933  1.5685
  580MOL0     H78252   0.390  11.252   1.112  0.2612  0.7629 -1.3260
  580MOL0     H78253   0.537  11.196   1.040 -0.4389  2.3019 -1.4574
  580MOL0     H78254   0.266  11.227   0.889  0.1946  1.9564  0.6987
  580MOL0     H78255   0.414  11.136   0.840 -1.3132  0.0342 -1.8682
  580MOL0     H78256   0.518  11.375   0.867 -0.3297 -0.9913 -0.2598
  580MOL0     H78257   0.351  11.433   0.862  0.7244 -0.5290  2.3944
  580MOL0     H78258   0.324  11.330   0.636 -0.4639  1.0267  1.7853
  580MOL0     H78259   0.507  11.289   0.656 -0.5857 -1.9103  1.6437
  580MOL0     H78260   0.343  11.349   0.429  1.5700 -2.5101 -0.7927
  580MOL0     H78261   0.328  11.431   0.090  1.8342 -3.1368 -3.8142
  580MOL0     H78262   0.445  11.320   0.104 -0.0499  1.4561 -1.3514
  580MOL0     H78263   0.306  11.310   0.220  1.3124 -3.5309 -1.0381
  580MOL0     H78264   0.723  11.905  -0.000  0.7259 -1.9694  3.0034
  580MOL0     H78265   0.824  11.954  -0.245 -0.6599  0.4143 -0.2724
  580MOL0     H78266   1.078  11.671  -0.457 -1.1347 -1.1211  1.6753
  580MOL0     H78267   0.909  11.656  -0.529 -0.9154  2.0275 -2.0654
  580MOL0     H78268   1.043  11.722  -0.681 -0.6693  0.9388 -1.3414
  580MOL0     H78269   0.942  11.863  -0.634  0.8096  0.7397  0.4621
  580MOL0     H78270   1.235  11.808  -0.544 -0.5281  0.3214  1.2478
  580MOL0     H78271   1.147  11.932  -0.468 -0.4126  0.4754 -0.0638
  580MOL0     H78272   1.295  12.016  -0.622  1.1299 -4.6049  0.9329
  580MOL0     H78273   1.238  11.931  -0.767 -0.4240  2.7152 -1.7248
  580MOL0     H78274   1.014  12.033  -0.724 -0.5587 -1.1061  1.4831
  580MOL0     H78275   1.149  12.130  -0.791 -1.0945  0.6083 -0.5661
  580MOL0     H78276   1.139  12.187  -0.505 -0.1489  2.0552 -0.3839
  580MOL0     H78277   1.102  12.285  -0.653 -4.2525  1.2590  0.0736
  580MOL0     H78278   0.940  12.130  -0.455 -3.5518  2.3025  1.9183
  580MOL0     H78279   0.864  12.153  -0.619 -0.1373  2.0783 -0.8426
  580MOL0     H78280   0.996  12.365  -0.442  0.9568 -0.9395 -0.4787
  580MOL0     H78281   0.838  12.299  -0.396 -0.1343 -0.6028  0.4339
  580MOL0     H78282   0.909  11.557  -0.293 -2.5821 -1.1674 -0.9125
  580MOL0     H78283   0.794  11.492  -0.096  3.0619  0.3672  3.2313
  580MOL0     H78284   0.708  11.676   0.328 -2.1508  3.1385  1.1952
  580MOL0     H78285   0.619  11.647   0.555  3.6538 -1.2219 -1.2589
  580MOL0     H78286   0.283  10.451   2.192 -1.0731 -1.3533  3.7954
  580MOL0     H78287   0.419  10.306   2.359  0.8826  1.4687  0.1095
  580MOL0     H78288   0.686  10.040   2.476 -0.6738 -0.2819 -0.5551
  580MOL0     H78289   0.811   9.926   2.683  3.1357 -2.4263 -1.7492
  580MOL0     H78290   0.958   9.765   2.727  0.0391  0.6708  1.0136
  580MOL0     H78291   0.897   9.807   2.886  1.2219  2.1657 -1.2886
  580MOL0     H78292   1.036   9.570   2.770 -0.1985 -4.5439  1.1013
  580MOL0     H78293   0.901   9.525   2.869  1.8006 -2.2178 -2.8964
  580MOL0     H78294   0.974   9.688   3.055 -0.0778  1.8531  0.2194
  580MOL0     H78295   1.115   9.740   2.955  0.1525 -0.0008  0.8762
  580MOL0     H78296   1.209   9.503   2.982 -0.0879 -2.4956  0.5935
  580MOL0     H78297   1.060   9.469   3.077  1.6454 -0.1891 -0.3432
  580MOL0     H78298   1.319   9.680   3.340  0.2256 -3.6983  0.3815
  580MOL0     H78299   0.576   9.595   2.629 -4.2660  1.2494  1.6199
  580MOL0     H78300   0.456   9.685   2.424 -0.7276  3.2014 -1.5942
  581MOL0     O78301   6.557   3.654   7.378  0.3785 -0.1316  0.6754
  581MOL0     C78302   6.677   3.671   7.379 -0.1273 -0.8624  0.5305
  581MOL0     O78303   6.749   3.745   7.292 -0.0278  0.0765  0.2733
  581MOL0     C78304   6.691   3.817   7.198 -0.2367  0.3052  0.2338
  581MOL0     C78305   6.779   3.833   7.088  0.5493 -0.1748 -0.1851
  581MOL0     C78306   6.750   3.938   7.002 -0.2587  0.1973  0.1459
  581MOL0     C78307   6.624   4.007   7.009  0.4708 -0.3914  0.4617
  581MOL0     O78308   6.576   4.099   6.924  0.1955  0.5232  0.9993
  581MOL0     C78309   6.662   4.215   6.913  0.5459  0.0293  0.7295
  581MOL0     C78310   6.627   4.339   6.994 -0.5077 -0.0733  1.0690
  581MOL0     C78311   6.602   4.305   7.145  1.3307 -0.0102  0.0305
  581MOL0     C78312   6.619   4.419   7.256  0.3457  0.4173 -0.0997
  581MOL0     C78313   6.740   4.508   7.241  0.3505 -0.0318 -0.3663
  581MOL0     C78314   6.764   4.559   7.383  0.6147 -0.0035  0.4933
  581MOL0     C78315   6.912   4.585   7.385 -0.1730  0.3529  0.7831
  581MOL0     C78316   6.933   4.659   7.525 -0.4037  1.1540  0.4698
  581MOL0     N78317   7.069   4.690   7.555 -0.4481 -0.2694 -0.3539
  581MOL0     C78318   7.159   4.735   7.466 -0.6805 -0.3916  0.1370
  581MOL0     C78319   7.268   4.778   7.535  0.6591 -0.7172  0.0929
  581MOL0     C78320   7.394   4.844   7.485  0.0439  0.5401 -0.1904
  581MOL0     C78321   7.523   4.806   7.559 -0.1926 -0.3326 -0.8933
  581MOL0     C78322   7.653   4.884   7.524 -0.2582  0.0942  0.1089
  581MOL0     C78323   7.763   4.846   7.626  0.0304  0.5165  0.0856
  581MOL0     O78324   7.741   4.860   7.761 -0.6034 -0.9663 -0.7932
  581MOL0     C78325   7.780   4.974   7.835 -0.6502  0.1083 -0.1836
  581MOL0     C78326   7.729   4.979   7.969  1.0618 -0.7065 -0.6126
  581MOL0     C78327   7.756   5.089   8.050 -0.2038 -0.1770 -0.4722
  581MOL0     C78328   7.684   5.091   8.183  0.3292 -0.2983 -0.3826
  581MOL0     C78329   7.841   5.198   8.004  0.4533  0.1266  0.4294
  581MOL0     C78330   7.878   5.305   8.089 -0.5592 -0.4919 -0.1296
  581MOL0     O78331   7.873   5.285   8.224  0.3392  0.1913  0.0251
  581MOL0     C78332   7.899   5.379   8.322  0.9296  0.2703  0.8901
  581MOL0     C78333   7.989   5.488   8.312 -0.2717 -0.0555 -1.1644
  581MOL0     C78334   8.028   5.575   8.414  0.0932 -0.1417 -0.1500
  581MOL0     C78335   7.967   5.557   8.535 -0.2755  0.6837 -1.6831
  581MOL0     O78336   7.997   5.647   8.644 -0.3982  0.3657 -0.0559
  581MOL0     C78337   7.867   5.713   8.688 -0.8659 -0.1793  0.9724
  581MOL0     C78338   7.911   5.852   8.737  0.5210 -0.2555  0.1339
  581MOL0     C78339   7.969   5.947   8.632 -0.0260 -0.5622 -0.1500
  581MOL0     C78340   8.033   6.078   8.688  0.9663  0.0904  0.1487
  581MOL0     C78341   8.149   6.136   8.605 -0.2481  0.4957 -0.6640
  581MOL0     C78342   8.123   6.192   8.469 -0.0716  0.1215 -0.4903
  581MOL0     C78343   8.005   6.293   8.467  0.5322 -0.8694 -0.2355
  581MOL0     C78344   7.916   6.279   8.352  0.0635  0.5228 -0.7514
  581MOL0    Cl78345   8.020   6.299   8.207 -0.3215 -0.0192  0.4579
  581MOL0     C78346   7.870   5.457   8.549  0.5230 -0.0948 -0.2473
  581MOL0     C78347   7.838   5.374   8.447  0.4801  0.0960 -0.9969
  581MOL0     O78348   7.915   5.413   8.034  0.2805 -0.3355 -1.0806
  581MOL0     C78349   7.883   5.196   7.870 -0.6439  0.6312  0.2093
  581MOL0     C78350   7.859   5.081   7.785 -1.0372  0.0397 -0.2633
  581MOL0     N78351   7.237   4.767   7.672 -0.1159  0.0648  0.0738
  581MOL0     N78352   7.122   4.713   7.687  0.0957  0.5059 -0.2034
  581MOL0     C78353   6.533   3.966   7.102  0.4828  0.0916  0.1041
  581MOL0     C78354   6.568   3.881   7.206  0.1942 -0.4190  0.1378
  581MOL0     C78355   6.757   3.594   7.468  0.4644  0.2427 -0.3687
  581MOL0     C78356   6.864   3.530   7.418 -0.1429 -0.3414 -0.2609
  581MOL0     C78357   6.951   3.454   7.502 -0.9571 -0.1522 -0.1705
  581MOL0     C78358   6.931   3.454   7.644  0.4734 -0.7151  0.1307
  581MOL0     O78359   7.035   3.408   7.727  0.7861  0.1480  0.0612
  581MOL0     C78360   7.011   3.376   7.861  0.9881 -0.5677 -0.3604
  581MOL0     C78361   6.965   3.229   7.864  0.0531  0.6000  0.3494
  581MOL0     C78362   6.954   3.177   8.016 -0.2880 -0.8302  0.7498
  581MOL0     C78363   6.853   3.243   8.118  1.1541 -1.0417 -1.1984
  581MOL0     C78364   6.712   3.196   8.112  0.3418 -0.3588 -0.2456
  581MOL0     C78365   6.608   3.131   8.120 -0.4158  1.5765 -1.3186
  581MOL0     C78366   6.803   3.511   7.684 -0.3257  0.3380 -0.1750
  581MOL0     C78367   6.719   3.568   7.597  0.3610  0.8585  0.4193
  581MOL0     H78368   6.871   3.776   7.086  1.3040  1.0125 -0.0944
  581MOL0     H78369   6.821   3.974   6.927 -2.5584 -1.3120 -2.9835
  581MOL0     H78370   6.764   4.181   6.928  0.9016  1.2002  1.0474
  581MOL0     H78371   6.659   4.238   6.806  2.5194  1.2311  0.8868
  581MOL0     H78372   6.715   4.401   6.975 -0.2965 -0.5571  0.4219
  581MOL0     H78373   6.537   4.384   6.952 -1.0680 -1.3694  0.8028
  581MOL0     H78374   6.498   4.273   7.156  0.8828  1.7222  1.4275
  581MOL0     H78375   6.677   4.237   7.184 -0.8915 -1.4287  2.1251
  581MOL0     H78376   6.527   4.477   7.246 -1.6142 -2.4665  0.3266
  581MOL0     H78377   6.618   4.370   7.353  0.3507  0.2604 -0.1788
  581MOL0     H78378   6.823   4.459   7.190 -0.7759 -1.3379 -1.0154
  581MOL0     H78379   6.715   4.598   7.184  2.7769  0.4130 -0.8484
  581MOL0     H78380   6.696   4.643   7.395  1.2499  0.2699  2.4796
  581MOL0     H78381   6.753   4.485   7.463  3.4298  0.4756  1.4352
  581MOL0     H78382   6.969   4.492   7.396  0.8983  0.8009 -0.5864
  581MOL0     H78383   6.937   4.636   7.291 -3.5162 -0.5426 -0.7557
  581MOL0     H78384   6.889   4.594   7.601 -2.3645  2.5263  0.5916
  581MOL0     H78385   6.860   4.741   7.525 -1.4891  0.2416 -0.9490
  581MOL0     H78386   7.169   4.729   7.358  1.2431 -0.2807  0.2762
  581MOL0     H78387   7.407   4.826   7.378  1.4002  0.8510 -0.1005
  581MOL0     H78388   7.384   4.953   7.486 -0.8231  0.5146 -2.1203
  581MOL0     H78389   7.541   4.698   7.555  2.0974 -0.2789  3.1181
  581MOL0     H78390   7.503   4.820   7.665 -0.2667 -1.1830 -0.7914
  581MOL0     H78391   7.637   4.991   7.539 -0.5578  0.0176  0.3499
  581MOL0     H78392   7.693   4.863   7.424 -4.0008  3.2052 -2.3429
  581MOL0     H78393   7.861   4.887   7.599 -0.0522  0.0732 -0.9615
  581MOL0     H78394   7.776   4.739   7.606  3.0466  0.6269  1.0131
  581MOL0     H78395   7.661   4.898   7.997  2.2883 -0.9523  1.8979
  581MOL0     H78396   7.630   5.186   8.176  0.8530  0.0622  0.4416
  581MOL0     H78397   7.616   5.006   8.188 -0.8310  0.5474 -1.1348
  581MOL0     H78398   7.745   5.086   8.273 -0.0579 -1.0773 -0.1601
  581MOL0     H78399   8.042   5.494   8.217 -0.9999  1.5850 -1.5124
  581MOL0     H78400   8.100   5.656   8.404  1.3834 -1.2203  0.1926
  581MOL0     H78401   7.797   5.729   8.605  1.8674  0.5548 -1.3703
  581MOL0     H78402   7.819   5.658   8.769 -0.2078 -3.4478 -0.6742
  581MOL0     H78403   7.825   5.897   8.789 -1.6656 -0.5783 -2.9404
  581MOL0     H78404   7.983   5.829   8.816 -2.5036 -1.5012  2.7690
  581MOL0     H78405   7.881   5.985   8.579 -0.2343  2.3582  2.0111
  581MOL0     H78406   8.015   5.895   8.548 -0.2030  2.0406 -2.0000
  581MOL0     H78407   7.954   6.147   8.718  0.4754 -1.1239  1.8581
  581MOL0     H78408   8.070   6.056   8.789 -1.3598 -0.1148  1.0302
  581MOL0     H78409   8.229   6.061   8.609  0.0045  0.8091  1.2754
  581MOL0     H78410   8.180   6.224   8.661 -1.0071 -0.4814  1.4156
  581MOL0     H78411   8.218   6.226   8.426  0.2452  1.1332  0.9315
  581MOL0     H78412   8.104   6.100   8.413  1.8652 -1.4804  1.3078
  581MOL0     H78413   8.037   6.397   8.473  2.5233 -1.4323 -0.4438
  581MOL0     H78414   7.937   6.280   8.552  2.7695  1.3937  2.0512
  581MOL0     H78415   7.843   6.360   8.359  0.5149  0.8876 -0.2110
  581MOL0     H78416   7.857   6.187   8.340 -0.0311  0.5761 -0.6911
  581MOL0     H78417   7.821   5.437   8.644 -0.8599 -1.3160 -1.1863
  581MOL0     H78418   7.764   5.295   8.461  2.6423 -1.8441  0.2260
  581MOL0     H78419   7.921   5.278   7.810  0.2443 -1.5751 -2.4481
  581MOL0     H78420   7.901   5.093   7.685  1.3305 -0.0097  0.6550
  581MOL0     H78421   6.432   4.006   7.091  0.3092 -0.6725 -1.4016
  581MOL0     H78422   6.510   3.872   7.297  0.1244 -0.4122  0.0936
  581MOL0     H78423   6.869   3.530   7.310 -1.4383 -2.5617 -0.3722
  581MOL0     H78424   7.035   3.411   7.448 -3.6776 -1.8036 -3.4864
  581MOL0     H78425   7.105   3.395   7.913  0.3371  1.5820  0.1553
  581MOL0     H78426   6.937   3.435   7.917 -0.0748 -2.0492 -0.1141
  581MOL0     H78427   7.052   3.177   7.824  0.4962  0.0308  1.9978
  581MOL0     H78428   6.871   3.209   7.810 -0.1256  2.6371 -0.1648
  581MOL0     H78429   7.054   3.182   8.061 -0.4598 -0.1799  1.0779
  581MOL0     H78430   6.939   3.070   8.004  0.1708 -0.8232  0.0054
  581MOL0     H78431   6.865   3.351   8.132 -0.7396 -0.8997 -0.4176
  581MOL0     H78432   6.889   3.202   8.213 -0.0675  2.0386  0.7386
  581MOL0     H78433   6.517   3.077   8.140  0.6138  0.8005  1.7936
  581MOL0     H78434   6.774   3.521   7.788 -0.0010  0.1964 -0.0665
  581MOL0     H78435   6.619   3.597   7.625 -1.0644  0.2445 -3.4384
  582MOL0     O78436   4.401   6.746  10.231 -0.0323  0.4870 -0.0070
  582MOL0     C78437   4.513   6.708  10.219 -0.6141  0.1508 -0.5648
  582MOL0     O78438   4.581   6.686  10.109  0.8864  0.3647  0.0395
  582MOL0     C78439   4.558   6.775  10.007  0.8778  0.2016  0.1088
  582MOL0     C78440   4.536   6.719   9.892 -0.7250  0.1329  0.2260
  582MOL0     C78441   4.512   6.799   9.772 -0.8969  0.7359  0.3115
  582MOL0     C78442   4.515   6.942   9.787  1.7652 -0.0878 -0.7042
  582MOL0     O78443   4.500   7.030   9.676 -0.1128  0.5712  0.0741
  582MOL0     C78444   4.483   7.177   9.695 -0.0467  0.3578  0.2799
  582MOL0     C78445   4.555   7.248   9.575  0.0436  0.9513 -0.4501
  582MOL0     C78446   4.585   7.397   9.617 -0.5935 -0.3076  1.1509
  582MOL0     C78447   4.460   7.486   9.597  0.0061 -0.3514  0.4703
  582MOL0     C78448   4.481   7.628   9.637  0.7058 -0.5303 -0.2609
  582MOL0     C78449   4.447   7.641   9.784 -0.5482 -0.3439 -0.8588
  582MOL0     C78450   4.485   7.782   9.846  0.1105  0.5151 -0.4886
  582MOL0     C78451   4.375   7.890   9.821 -0.0281 -0.4200 -0.4812
  582MOL0     N78452   4.286   7.929   9.927  0.3928 -0.4989 -0.7393
  582MOL0     C78453   4.254   7.850  10.034 -0.0464 -0.8546 -0.8119
  582MOL0     C78454   4.192   7.949  10.115  0.4182 -0.9966  0.4260
  582MOL0     C78455   4.120   7.920  10.237 -0.0943  0.0894 -0.8377
  582MOL0     C78456   4.065   8.035  10.315  0.4758  0.3456  1.1026
  582MOL0     C78457   4.170   8.101  10.397 -1.1585 -0.4961 -0.0689
  582MOL0     C78458   4.125   8.230  10.435 -0.3844 -1.0737  0.3283
  582MOL0     O78459   4.216   8.293  10.529 -0.2526  0.3061  0.9368
  582MOL0     C78460   4.270   8.418  10.499 -0.9842 -0.4660  1.2075
  582MOL0     C78461   4.284   8.519  10.597 -0.0033  0.4518 -0.3872
  582MOL0     C78462   4.356   8.644  10.576 -0.4677  0.2240 -0.0079
  582MOL0     C78463   4.364   8.745  10.688  0.2950  0.6516  0.1963
  582MOL0     C78464   4.408   8.665  10.447 -0.3138  0.5355  0.0715
  582MOL0     C78465   4.505   8.777  10.413  0.5729  0.1978  0.6373
  582MOL0     O78466   4.515   8.804  10.275  0.8395 -0.4095 -0.3474
  582MOL0     C78467   4.621   8.885  10.235  0.6044 -0.7756  0.0491
  582MOL0     C78468   4.592   8.993  10.152 -0.6904 -1.4473 -0.2187
  582MOL0     C78469   4.690   9.071  10.088  0.2187 -0.8947  0.4139
  582MOL0     C78470   4.819   9.034  10.108  0.7487 -0.2865  0.5716
  582MOL0     O78471   4.918   9.075  10.029  0.2010 -0.3829 -0.2949
  582MOL0     C78472   5.009   9.176  10.096  0.5374  0.2454  0.7407
  582MOL0     C78473   4.933   9.306  10.111  0.4530 -0.3646 -1.0030
  582MOL0     C78474   4.888   9.362   9.981 -0.3667  0.6134  0.3181
  582MOL0     C78475   4.809   9.491   9.998 -0.6218 -0.3015  0.2884
  582MOL0     C78476   4.768   9.531   9.852  1.3196 -0.9933  0.8595
  582MOL0     C78477   4.671   9.646   9.857  0.4540 -0.2726  0.9184
  582MOL0     C78478   4.530   9.594   9.865  0.0988 -0.5094 -1.9614
  582MOL0     C78479   4.455   9.710   9.916  0.6985 -0.2514 -0.2599
  582MOL0    Cl78480   4.373   9.810   9.777 -0.2701 -0.1075  0.5682
  582MOL0     C78481   4.847   8.936  10.203 -0.5462  0.0625 -0.6136
  582MOL0     C78482   4.751   8.853  10.260 -0.1362 -0.4720  0.2071
  582MOL0     O78483   4.571   8.822  10.500 -0.1557 -0.4363  0.4166
  582MOL0     C78484   4.392   8.567  10.348 -0.1575  0.1692 -0.3483
  582MOL0     C78485   4.323   8.446  10.376  0.1113 -0.3299 -0.6972
  582MOL0     N78486   4.182   8.073  10.044 -0.6466  0.4438  0.1689
  582MOL0     N78487   4.236   8.055   9.936 -0.2959  0.1799 -0.7319
  582MOL0     C78488   4.542   6.992   9.918  0.7093  0.2477  1.5695
  582MOL0     C78489   4.569   6.908  10.020 -0.8387 -1.0461 -0.9927
  582MOL0     C78490   4.586   6.668  10.345  1.0299 -0.2772 -0.2088
  582MOL0     C78491   4.687   6.576  10.357 -0.3612  0.7296 -0.4554
  582MOL0     C78492   4.737   6.529  10.482 -0.5817  0.4270  0.2380
  582MOL0     C78493   4.696   6.582  10.602 -0.0553 -0.5130  0.5128
  582MOL0     O78494   4.765   6.551  10.721  0.2223 -0.5338 -0.0859
  582MOL0     C78495   4.696   6.546  10.849 -0.0747  0.3372  0.4027
  582MOL0     C78496   4.798   6.504  10.958 -0.0454  0.0868 -0.2969
  582MOL0     C78497   4.875   6.628  11.012  0.9381 -0.2826  0.0931
  582MOL0     C78498   4.979   6.601  11.120  0.7904  0.2129  0.1312
  582MOL0     C78499   4.916   6.547  11.244 -0.0065 -0.9941  1.3007
  582MOL0     C78500   4.860   6.496  11.336 -0.1290  0.6272 -0.8194
  582MOL0     C78501   4.596   6.680  10.598  0.9609 -0.8089  0.8763
  582MOL0     C78502   4.536   6.715  10.467 -0.6236  0.1396  0.0911
  582MOL0     H78503   4.534   6.610   9.887  2.4994 -0.0219 -0.1274
  582MOL0     H78504   4.495   6.756   9.674 -1.0614 -0.0836  0.6935
  582MOL0     H78505   4.378   7.208   9.700 -0.0599  0.1335  1.8836
  582MOL0     H78506   4.528   7.212   9.788  0.6071  0.2956 -0.0068
  582MOL0     H78507   4.639   7.181   9.555 -1.3403 -0.6318 -1.2727
  582MOL0     H78508   4.490   7.244   9.487  1.0914  0.6072 -1.2269
  582MOL0     H78509   4.628   7.403   9.717 -0.4489  1.4966  1.0063
  582MOL0     H78510   4.665   7.414   9.543 -2.4733 -0.5705 -1.0765
  582MOL0     H78511   4.447   7.500   9.489 -2.7957 -2.2647  0.4404
  582MOL0     H78512   4.370   7.447   9.646  0.5322 -0.6429  1.2222
  582MOL0     H78513   4.580   7.665   9.608 -0.1993  0.3841 -2.4603
  582MOL0     H78514   4.406   7.692   9.588  1.9746  2.9408  1.9391
  582MOL0     H78515   4.340   7.631   9.802  0.0682 -3.1712  2.0796
  582MOL0     H78516   4.495   7.555   9.832 -2.0348  0.0415  1.4789
  582MOL0     H78517   4.514   7.786   9.952  1.3488  1.1820 -0.8356
  582MOL0     H78518   4.582   7.802   9.800  1.2387 -0.5889  1.2582
  582MOL0     H78519   4.306   7.847   9.748 -1.0498  0.4914 -0.0985
  582MOL0     H78520   4.429   7.977   9.783 -0.5695  1.2593  2.2870
  582MOL0     H78521   4.296   7.751  10.053 -0.1984 -1.0428 -1.4527
  582MOL0     H78522   4.032   7.858  10.213 -2.2029  2.5582  0.0832
  582MOL0     H78523   4.185   7.853  10.294 -0.4521 -3.2722 -3.9280
  582MOL0     H78524   3.987   7.995  10.381  0.2735 -2.1991 -0.5206
  582MOL0     H78525   4.021   8.109  10.248 -2.4540 -1.5355  0.7495
  582MOL0     H78526   4.265   8.111  10.345  0.5127 -1.5587  2.5584
  582MOL0     H78527   4.186   8.040  10.487 -1.9778  0.2571  0.6109
  582MOL0     H78528   4.033   8.213  10.492 -0.9646 -3.1638 -1.1249
  582MOL0     H78529   4.112   8.304  10.355 -2.9319 -3.4970 -1.6684
  582MOL0     H78530   4.245   8.502  10.696 -1.9711 -1.9530 -1.4693
  582MOL0     H78531   4.305   8.722  10.777  1.0335  1.0224  0.7989
  582MOL0     H78532   4.464   8.780  10.716 -0.9618  2.7726  2.4215
  582MOL0     H78533   4.318   8.837  10.652 -0.1559 -0.3323 -1.8808
  582MOL0     H78534   4.489   9.008  10.120 -0.3653 -0.5110 -0.8577
  582MOL0     H78535   4.672   9.141  10.007 -0.6842 -3.0863 -1.3826
  582MOL0     H78536   5.040   9.142  10.196  0.8108  1.5537  1.1245
  582MOL0     H78537   5.099   9.197  10.039  0.5588  2.7800  1.5799
  582MOL0     H78538   4.846   9.297  10.176  1.4825 -0.6538  0.4007
  582MOL0     H78539   4.992   9.381  10.164  2.0416 -2.2333 -0.0007
  582MOL0     H78540   4.834   9.292   9.916  0.8186  1.6134 -1.8404
  582MOL0     H78541   4.981   9.379   9.927 -0.6589 -0.9802 -0.7849
  582MOL0     H78542   4.716   9.475  10.054  0.5549 -1.4956  1.9866
  582MOL0     H78543   4.879   9.563  10.040 -0.5891  1.1724 -2.1075
  582MOL0     H78544   4.721   9.449   9.797 -0.8037  1.4422 -1.2647
  582MOL0     H78545   4.850   9.552   9.784 -0.1202 -3.2163 -1.7736
  582MOL0     H78546   4.696   9.722   9.931 -0.0119  1.6684 -0.8158
  582MOL0     H78547   4.666   9.713   9.771 -1.0417  0.0689  1.2377
  582MOL0     H78548   4.534   9.517   9.943 -3.0682 -0.9217 -2.0915
  582MOL0     H78549   4.482   9.559   9.773 -0.7610 -3.9649 -0.3770
  582MOL0     H78550   4.514   9.776   9.980  0.8030  1.7603 -2.2872
  582MOL0     H78551   4.377   9.676   9.985 -3.1236  0.8387 -3.6258
  582MOL0     H78552   4.951   8.906  10.206 -0.1298  1.4704 -0.1137
  582MOL0     H78553   4.770   8.765  10.321 -1.6933  0.5999  2.4150
  582MOL0     H78554   4.424   8.575  10.245 -0.0307 -0.1088 -0.3284
  582MOL0     H78555   4.331   8.365  10.305  3.6149 -1.0521  0.3206
  582MOL0     H78556   4.557   7.098   9.932 -2.6313  1.4462 -2.1404
  582MOL0     H78557   4.607   6.956  10.110 -1.7059 -0.9944 -0.6427
  582MOL0     H78558   4.737   6.547  10.265  1.3483 -2.2197  1.2627
  582MOL0     H78559   4.808   6.447  10.481 -0.9106 -0.0093  3.1180
  582MOL0     H78560   4.646   6.641  10.872 -4.8286 -1.7706  0.0370
  582MOL0     H78561   4.615   6.473  10.856  0.1062  0.1282  0.3189
  582MOL0     H78562   4.858   6.429  10.906  0.3696  1.5773 -2.0497
  582MOL0     H78563   4.735   6.466  11.040 -0.6793 -0.5061 -1.0353
  582MOL0     H78564   4.800   6.690  11.061 -0.9341 -1.6868 -0.8326
  582MOL0     H78565   4.918   6.692  10.935 -2.6730  0.1524 -1.7881
  582MOL0     H78566   5.026   6.695  11.150  0.6665  0.1439  0.5483
  582MOL0     H78567   5.058   6.538  11.079 -0.6762 -1.7777  0.1970
  582MOL0     H78568   4.826   6.447  11.425 -0.3332 -0.0415 -1.2537
  582MOL0     H78569   4.573   6.736  10.688  0.4522  2.5876 -1.1558
  582MOL0     H78570   4.460   6.791  10.482 -2.3336 -1.7965  1.8520
  583MOL0     O78571   9.231   5.303   1.765  0.5997 -0.7531  0.9310
  583MOL0     C78572   9.253   5.375   1.862 -0.3088  1.0297 -0.4838
  583MOL0     O78573   9.376   5.407   1.911  0.4873 -0.4931  0.6618
  583MOL0     C78574   9.482   5.357   1.848 -0.6080 -0.2220  0.1421
  583MOL0     C78575   9.578   5.445   1.782 -0.4686  0.0477  0.9865
  583MOL0     C78576   9.680   5.389   1.701 -0.6789 -0.0872  0.0713
  583MOL0     C78577   9.703   5.249   1.707  1.0389  0.3949 -0.1261
  583MOL0     O78578   9.804   5.195   1.630 -0.0380  0.4738 -0.4130
  583MOL0     C78579   9.819   5.058   1.602 -0.8571  1.3004  0.4766
  583MOL0     C78580   9.710   4.989   1.507 -0.3212  0.4812  0.1658
  583MOL0     C78581   9.690   5.078   1.378  0.1250 -0.3833 -0.0027
  583MOL0     C78582   9.801   5.058   1.285  0.6259 -0.1768  1.2520
  583MOL0     C78583   9.785   5.143   1.160 -0.0299 -0.3623  0.4908
  583MOL0     C78584   9.888   5.109   1.043 -0.0524 -0.4306 -0.9729
  583MOL0     C78585  10.032   5.113   1.099  0.0316 -0.3608 -0.0425
  583MOL0     C78586  10.138   5.113   0.982  0.1364 -0.1233 -0.1140
  583MOL0     N78587  10.283   5.131   1.024  1.0262  0.1383 -0.4619
  583MOL0     C78588  10.353   5.247   0.998  0.6303 -0.3682  0.3246
  583MOL0     C78589  10.469   5.217   1.073 -0.3016 -0.5434  0.2537
  583MOL0     C78590  10.602   5.288   1.056 -0.4391 -0.7573  0.1539
  583MOL0     C78591  10.675   5.248   0.925 -0.0595 -0.6483 -0.8763
  583MOL0     C78592  10.632   5.314   0.796 -0.1624  0.3380 -0.3078
  583MOL0     C78593  10.747   5.287   0.691 -0.1014 -0.6396 -0.3055
  583MOL0     O78594  10.722   5.361   0.570  0.8830  0.6381 -0.7185
  583MOL0     C78595  10.648   5.292   0.478 -0.1710  0.8439 -0.2570
  583MOL0     C78596  10.700   5.171   0.419  0.3978 -0.9491 -0.4944
  583MOL0     C78597  10.636   5.101   0.316 -0.1983 -0.5302  0.6288
  583MOL0     C78598  10.699   4.967   0.284  0.0708 -0.8421  0.2438
  583MOL0     C78599  10.503   5.140   0.278 -0.7609 -0.1914 -0.3225
  583MOL0     C78600  10.435   5.076   0.168 -0.1332  0.1750  0.5752
  583MOL0     O78601  10.455   4.940   0.137 -0.9371  0.3217 -0.1993
  583MOL0     C78602  10.379   4.888   0.040 -0.1323 -0.1276 -0.1566
  583MOL0     C78603  10.250   4.844   0.067 -0.4236  0.0802  0.1756
  583MOL0     C78604  10.164   4.800  -0.029  0.8671  0.1027 -1.0797
  583MOL0     C78605  10.211   4.792  -0.161  0.7637  0.0584  0.7977
  583MOL0     O78606  10.132   4.756  -0.264  0.2174 -0.3289  0.1084
  583MOL0     C78607  10.068   4.625  -0.250 -0.6990  0.5499  0.2471
  583MOL0     C78608  10.168   4.496  -0.260 -1.3206  1.0673 -0.0713
  583MOL0     C78609  10.249   4.496  -0.397  0.6869  0.8592 -0.1031
  583MOL0     C78610  10.323   4.367  -0.419  0.5338 -0.1402  0.4314
  583MOL0     C78611  10.408   4.390  -0.550 -0.6226  0.2589 -0.3282
  583MOL0     C78612  10.532   4.303  -0.552  0.7555  0.4126  0.1182
  583MOL0     C78613  10.612   4.315  -0.674 -0.7340 -0.2057  0.6746
  583MOL0     C78614  10.733   4.231  -0.664  0.0728  0.3421  0.6315
  583MOL0    Cl78615  10.848   4.317  -0.546  0.0494  0.3950 -0.0203
  583MOL0     C78616  10.344   4.829  -0.196 -0.9478 -0.2747 -0.8855
  583MOL0     C78617  10.424   4.877  -0.092  0.2403 -0.5677  0.7081
  583MOL0     O78618  10.345   5.141   0.112  0.4438 -0.1418 -0.2574
  583MOL0     C78619  10.462   5.270   0.336 -0.2062  0.4450  0.1832
  583MOL0     C78620  10.528   5.349   0.430 -0.2329 -0.3237 -0.5837
  583MOL0     N78621  10.455   5.101   1.144  0.6398 -0.0768  0.5414
  583MOL0     N78622  10.344   5.045   1.108 -0.3967 -0.1691  0.0042
  583MOL0     C78623   9.622   5.161   1.789 -0.3023 -0.5855 -0.6027
  583MOL0     C78624   9.516   5.220   1.856  0.3878 -0.5034 -0.4965
  583MOL0     C78625   9.146   5.429   1.942 -0.3774  0.1194  0.7849
  583MOL0     C78626   9.015   5.399   1.899 -0.7424 -0.4756 -0.4075
  583MOL0     C78627   8.903   5.463   1.956 -0.2860  0.5490  0.2625
  583MOL0     C78628   8.916   5.548   2.065  0.2562  0.9793 -0.7109
  583MOL0     O78629   8.808   5.617   2.120  0.6876 -0.1310 -0.0518
  583MOL0     C78630   8.735   5.557   2.225 -0.5017  0.3702 -0.1665
  583MOL0     C78631   8.626   5.651   2.265  0.1021 -0.1472  0.0966
  583MOL0     C78632   8.529   5.691   2.155 -0.3933  0.0310  0.3171
  583MOL0     C78633   8.494   5.573   2.058 -0.1422  1.0522  0.2156
  583MOL0     C78634   8.383   5.608   1.968 -0.1775  0.2284  0.6273
  583MOL0     C78635   8.300   5.622   1.875  0.1801  0.2556 -0.2678
  583MOL0     C78636   9.044   5.574   2.111 -0.2373 -0.1882  0.1570
  583MOL0     C78637   9.161   5.522   2.048  0.3232 -0.7437 -0.0186
  583MOL0     H78638   9.565   5.553   1.773  0.9395  0.1032 -1.2562
  583MOL0     H78639   9.737   5.455   1.636 -2.1490  0.0146 -1.1794
  583MOL0     H78640   9.916   5.043   1.554 -0.1303  0.3960  2.1409
  583MOL0     H78641   9.831   5.005   1.697 -2.5212  1.3546  0.7495
  583MOL0     H78642   9.750   4.892   1.477 -0.2228  0.5309  0.1388
  583MOL0     H78643   9.611   4.987   1.554  0.0396  0.9820  0.9724
  583MOL0     H78644   9.587   5.058   1.346 -0.4172  0.3759  1.2114
  583MOL0     H78645   9.705   5.183   1.401  0.6483  0.1031 -2.3065
  583MOL0     H78646   9.897   5.081   1.332 -0.4255  0.9415  2.9075
  583MOL0     H78647   9.803   4.952   1.258 -1.3604  0.0164  0.1253
  583MOL0     H78648   9.681   5.139   1.125 -0.0779 -1.4896  0.7248
  583MOL0     H78649   9.804   5.250   1.174 -1.2357  0.4452 -2.8913
  583MOL0     H78650   9.871   5.018   0.986  0.5146  0.1369 -2.0821
  583MOL0     H78651   9.871   5.204   0.991 -0.8003  1.3479  2.2599
  583MOL0     H78652  10.039   5.202   1.161  1.2882 -0.9310  0.6845
  583MOL0     H78653  10.056   5.028   1.165  0.1586 -1.1710 -1.1082
  583MOL0     H78654  10.107   5.189   0.910 -0.5527 -1.7721 -1.6405
  583MOL0     H78655  10.119   5.021   0.927  0.3655  1.7535 -3.6256
  583MOL0     H78656  10.320   5.323   0.928 -1.3697  1.5287  3.1284
  583MOL0     H78657  10.595   5.396   1.041 -1.6039 -1.2464 -4.1376
  583MOL0     H78658  10.662   5.263   1.144 -1.1177 -1.9536  0.2912
  583MOL0     H78659  10.660   5.140   0.914 -2.5169 -0.1701 -3.2252
  583MOL0     H78660  10.783   5.261   0.935 -0.0194 -0.5234 -1.4468
  583MOL0     H78661  10.603   5.419   0.803  1.1451  0.7147 -0.3279
  583MOL0     H78662  10.553   5.245   0.763 -0.9671  1.2299 -0.2760
  583MOL0     H78663  10.757   5.178   0.683 -2.4673 -1.1464  2.1880
  583MOL0     H78664  10.841   5.328   0.728 -0.5218  0.1934 -0.1460
  583MOL0     H78665  10.798   5.137   0.452  1.0562  2.6590  1.8959
  583MOL0     H78666  10.764   4.938   0.367 -0.0239  2.1052  1.4949
  583MOL0     H78667  10.620   4.891   0.288 -1.2257  0.4689  0.5695
  583MOL0     H78668  10.738   4.963   0.182 -0.8858  0.9697 -0.2393
  583MOL0     H78669  10.222   4.873   0.167  1.2787  0.6221  0.5176
  583MOL0     H78670  10.059   4.781  -0.011  1.4883 -2.2396  0.6107
  583MOL0     H78671  10.023   4.605  -0.152 -1.9128 -3.1034 -0.8751
  583MOL0     H78672   9.991   4.600  -0.323  0.1355 -1.1571 -0.0878
  583MOL0     H78673  10.247   4.494  -0.184  1.8818 -2.9469 -3.0791
  583MOL0     H78674  10.105   4.407  -0.251  1.3302 -0.7466  1.9343
  583MOL0     H78675  10.319   4.579  -0.385  3.1186 -1.2588  1.3890
  583MOL0     H78676  10.182   4.509  -0.483  0.4749 -2.4574 -0.5774
  583MOL0     H78677  10.383   4.349  -0.330  1.1840  2.0339  0.4968
  583MOL0     H78678  10.254   4.286  -0.444 -0.1951  1.2752 -2.6852
  583MOL0     H78679  10.415   4.499  -0.555 -3.3049  0.5080 -0.2348
  583MOL0     H78680  10.357   4.366  -0.644 -0.4662 -1.1720 -0.0678
  583MOL0     H78681  10.571   4.329  -0.454 -3.6394 -1.3172  2.5922
  583MOL0     H78682  10.507   4.200  -0.528  2.4008  0.7016  3.6190
  583MOL0     H78683  10.643   4.419  -0.689 -1.5304 -0.3723 -3.1072
  583MOL0     H78684  10.546   4.287  -0.757 -0.3540 -1.3319  0.7382
  583MOL0     H78685  10.782   4.230  -0.762  0.0168  1.4947  0.5739
  583MOL0     H78686  10.721   4.128  -0.630  2.1656  0.4211  1.8070
  583MOL0     H78687  10.387   4.823  -0.296 -2.0218  3.1086 -1.6792
  583MOL0     H78688  10.521   4.913  -0.124 -2.0995  3.0537 -3.5114
  583MOL0     H78689  10.368   5.319   0.313 -0.6421  0.8646  2.6598
  583MOL0     H78690  10.489   5.445   0.460  1.0370 -0.0022  0.1217
  583MOL0     H78691   9.656   5.058   1.797  2.1397  0.2927  2.3416
  583MOL0     H78692   9.457   5.159   1.924  0.7067 -1.8595 -1.3928
  583MOL0     H78693   8.993   5.322   1.826 -0.4327 -1.0435  0.0868
  583MOL0     H78694   8.807   5.445   1.909 -0.6042 -0.1730  1.1620
  583MOL0     H78695   8.690   5.461   2.195 -1.0253  0.4673  0.2872
  583MOL0     H78696   8.806   5.526   2.302  0.0255  0.6065 -0.5501
  583MOL0     H78697   8.666   5.746   2.303 -0.9305  0.2659  0.1875
  583MOL0     H78698   8.561   5.609   2.342  0.1018 -0.1363  0.1019
  583MOL0     H78699   8.577   5.762   2.087  3.3861  0.5022  3.1456
  583MOL0     H78700   8.440   5.743   2.193  2.0295  2.4777  3.1328
  583MOL0     H78701   8.446   5.486   2.104  2.3925 -0.9579 -0.7041
  583MOL0     H78702   8.580   5.553   1.994 -1.0241 -1.6443 -0.2452
  583MOL0     H78703   8.235   5.650   1.794  0.4819  1.8251 -0.0167
  583MOL0     H78704   9.060   5.646   2.191 -1.3748  1.4914 -1.0602
  583MOL0     H78705   9.253   5.552   2.098 -1.1968  2.4025  1.1217
  584MOL0     O78706   0.727   9.152   2.100 -0.1093  0.0636 -0.9251
  584MOL0     C78707   0.687   9.099   2.205 -0.8523 -0.4573  0.0450
  584MOL0     O78708   0.749   8.996   2.275 -0.3868 -0.3898  0.6882
  584MOL0     C78709   0.847   8.919   2.207 -0.2880  0.3577  0.5781
  584MOL0     C78710   0.966   8.977   2.164  0.0587  0.0899  0.3478
  584MOL0     C78711   1.066   8.907   2.093  0.1150 -0.0988  0.4712
  584MOL0     C78712   1.040   8.769   2.066  0.7253 -1.1189  0.7431
  584MOL0     O78713   1.125   8.687   1.995  0.0218 -0.1765  0.0270
  584MOL0     C78714   1.259   8.668   2.032  0.3880 -0.5492 -0.5496
  584MOL0     C78715   1.260   8.567   2.149  0.0885  0.7635 -0.2955
  584MOL0     C78716   1.232   8.417   2.110 -0.1984  0.3737  0.1199
  584MOL0     C78717   1.087   8.376   2.106 -0.4209  0.4696 -0.0256
  584MOL0     C78718   1.050   8.235   2.074  0.6726 -1.3256 -1.3123
  584MOL0     C78719   0.906   8.216   2.026  0.7967  0.9013  0.5716
  584MOL0     C78720   0.881   8.069   2.006  0.6972  0.3544  0.4110
  584MOL0     C78721   0.772   8.032   1.907 -0.4933 -0.3896 -0.1996
  584MOL0     N78722   0.751   7.886   1.891  0.1043  0.3519  1.0320
  584MOL0     C78723   0.769   7.820   1.777 -0.0697  0.8159 -0.4547
  584MOL0     C78724   0.745   7.687   1.800  0.2532  0.2527 -2.1047
  584MOL0     C78725   0.763   7.573   1.694 -0.7264 -1.3961  0.4058
  584MOL0     C78726   0.850   7.455   1.745  0.1103 -0.7686  0.6636
  584MOL0     C78727   0.884   7.353   1.628 -1.6528  1.0244  0.4188
  584MOL0     C78728   0.940   7.219   1.670 -0.5168 -0.0618 -0.0136
  584MOL0     O78729   0.917   7.105   1.584  0.1834  0.2124 -0.0971
  584MOL0     C78730   0.805   7.028   1.621  0.4293 -0.2636  0.2232
  584MOL0     C78731   0.682   7.087   1.662 -0.6549  1.1457  0.6367
  584MOL0     C78732   0.578   7.010   1.711 -0.7851 -0.7619 -0.4805
  584MOL0     C78733   0.473   7.094   1.781 -0.2322 -0.6612  0.2106
  584MOL0     C78734   0.576   6.871   1.683  0.4876  0.0208 -0.3064
  584MOL0     C78735   0.452   6.790   1.727  0.6785 -0.1223 -0.0062
  584MOL0     O78736   0.322   6.857   1.717 -0.9086  0.8818 -0.6478
  584MOL0     C78737   0.217   6.792   1.764  0.8611  0.9474 -0.2309
  584MOL0     C78738   0.110   6.766   1.676 -0.1669  0.2643  0.5030
  584MOL0     C78739  -0.001   6.688   1.727  0.3314 -0.2089 -0.6958
  584MOL0     C78740  -0.024   6.667   1.866 -0.7430  0.7628 -0.6881
  584MOL0     O78741  -0.144   6.611   1.900  0.3935  0.0530 -0.4139
  584MOL0     C78742  -0.166   6.548   2.026  0.1222  0.6678  0.3782
  584MOL0     C78743  -0.093   6.408   2.049 -0.6217  0.4091 -0.1597
  584MOL0     C78744  -0.141   6.307   1.951 -0.4385  0.8307 -0.9316
  584MOL0     C78745  -0.095   6.321   1.808 -0.0004 -0.1371  0.7839
  584MOL0     C78746   0.052   6.318   1.791 -0.6349  0.2010  0.1064
  584MOL0     C78747   0.080   6.340   1.636 -0.1170  0.7572  0.5901
  584MOL0     C78748   0.053   6.205   1.563 -1.3596 -1.0899  0.7325
  584MOL0     C78749   0.129   6.206   1.427 -0.4736 -0.3970  0.2379
  584MOL0    Cl78750   0.039   6.058   1.350  0.0303 -0.4543  0.3569
  584MOL0     C78751   0.076   6.726   1.949 -0.0994 -0.0286 -0.7064
  584MOL0     C78752   0.197   6.776   1.895 -0.4688  0.3422  0.0368
  584MOL0     O78753   0.467   6.681   1.779 -0.3312  0.4274 -0.4662
  584MOL0     C78754   0.693   6.812   1.632 -0.0058 -0.0160 -0.6598
  584MOL0     C78755   0.809   6.893   1.606  0.7242 -0.1979 -0.7486
  584MOL0     N78756   0.714   7.680   1.934  0.4811 -0.5373 -0.2304
  584MOL0     N78757   0.705   7.799   1.990 -0.4363 -0.2431  0.6833
  584MOL0     C78758   0.925   8.709   2.117  0.5633  0.4159 -0.6826
  584MOL0     C78759   0.827   8.789   2.181 -0.5510  0.2354 -0.3414
  584MOL0     C78760   0.602   9.173   2.296  0.4154 -0.3532 -0.1844
  584MOL0     C78761   0.587   9.144   2.429  0.6630  0.1102  0.0575
  584MOL0     C78762   0.518   9.223   2.529 -0.9469 -0.3965 -0.0282
  584MOL0     C78763   0.443   9.339   2.484 -0.2107 -0.0937 -0.1393
  584MOL0     O78764   0.354   9.400   2.572 -1.0548  0.2347 -0.1877
  584MOL0     C78765   0.264   9.497   2.523 -0.6938 -0.0348  0.1904
  584MOL0     C78766   0.147   9.490   2.601  0.4718 -0.5675  0.0633
  584MOL0     C78767   0.159   9.491   2.754 -0.9955  0.1032 -0.3040
  584MOL0     C78768   0.015   9.501   2.810 -0.0652 -0.8807  0.5439
  584MOL0     C78769   0.032   9.479   2.956 -0.8228 -0.1680  0.6201
  584MOL0     C78770   0.035   9.438   3.068 -1.0142  0.2584 -0.4803
  584MOL0     C78771   0.469   9.377   2.351 -0.0378 -0.4412  0.5946
  584MOL0     C78772   0.548   9.299   2.261  0.6090  0.0037  0.2824
  584MOL0     H78773   0.995   9.078   2.193  3.7173 -0.1012 -1.9312
  584MOL0     H78774   1.160   8.952   2.065 -1.0282  1.1938 -1.5026
  584MOL0     H78775   1.316   8.625   1.949  4.2440  0.3901  1.4144
  584MOL0     H78776   1.303   8.765   2.054 -0.6015 -0.2064 -0.0050
  584MOL0     H78777   1.362   8.574   2.190  0.4728  3.7447 -1.4613
  584MOL0     H78778   1.184   8.602   2.220  0.3058 -1.3963  1.1045
  584MOL0     H78779   1.284   8.400   2.016  0.1994  0.4457  0.3258
  584MOL0     H78780   1.274   8.364   2.197 -0.7578  0.1137  0.2380
  584MOL0     H78781   1.049   8.388   2.208  1.5382 -1.7807  1.0661
  584MOL0     H78782   1.031   8.450   2.048  2.4456  2.4534 -0.4318
  584MOL0     H78783   1.118   8.199   1.997  1.7604  2.4915 -2.3413
  584MOL0     H78784   1.071   8.172   2.161 -0.2339  2.4374  1.9279
  584MOL0     H78785   0.827   8.256   2.091  0.4209  2.1970 -0.6242
  584MOL0     H78786   0.873   8.274   1.939 -2.5507 -0.7983  0.5194
  584MOL0     H78787   0.974   8.017   1.982  1.6118  1.8757  0.5782
  584MOL0     H78788   0.836   8.032   2.099 -0.0156 -0.5789 -0.2830
  584MOL0     H78789   0.784   8.081   1.810  2.3682  0.2083  0.3896
  584MOL0     H78790   0.676   8.070   1.944 -0.0747  3.0236 -2.1685
  584MOL0     H78791   0.778   7.862   1.678 -1.7766 -3.1276 -2.5195
  584MOL0     H78792   0.661   7.539   1.673 -1.5293 -0.1323  1.9450
  584MOL0     H78793   0.806   7.629   1.611  1.2758 -1.1310  1.5529
  584MOL0     H78794   0.794   7.404   1.824 -1.1906 -1.3548 -0.5919
  584MOL0     H78795   0.942   7.495   1.790  0.0962  0.5939 -0.4431
  584MOL0     H78796   0.951   7.392   1.550  0.1057  1.4485  2.0717
  584MOL0     H78797   0.788   7.336   1.579 -0.8144 -0.8394 -0.7005
  584MOL0     H78798   0.909   7.206   1.774  0.3456  0.4175  0.3073
  584MOL0     H78799   1.049   7.216   1.671 -0.4916  0.5749 -0.5127
  584MOL0     H78800   0.675   7.196   1.661 -0.7921  1.1351 -0.3039
  584MOL0     H78801   0.520   7.172   1.841 -1.6818 -1.9120  3.1979
  584MOL0     H78802   0.412   7.141   1.704  1.1870  0.7564 -0.0833
  584MOL0     H78803   0.406   7.035   1.845 -0.3709  0.3279  1.0056
  584MOL0     H78804   0.118   6.802   1.574 -3.1854  6.0029  1.8792
  584MOL0     H78805  -0.081   6.656   1.661  0.8074  2.4001 -2.6924
  584MOL0     H78806  -0.129   6.608   2.110  0.9860 -0.7007  1.0059
  584MOL0     H78807  -0.273   6.532   2.043 -0.1074  1.9871  0.3117
  584MOL0     H78808   0.016   6.411   2.058 -0.1636 -3.6336 -2.0165
  584MOL0     H78809  -0.129   6.372   2.146  0.4873  1.7374  0.7896
  584MOL0     H78810  -0.250   6.314   1.947 -0.7696 -1.3054  1.5398
  584MOL0     H78811  -0.122   6.206   1.988 -0.6955  0.3812 -1.9969
  584MOL0     H78812  -0.141   6.238   1.753  1.8515 -1.4766  1.1839
  584MOL0     H78813  -0.128   6.418   1.770 -0.6395 -0.8792 -0.6422
  584MOL0     H78814   0.101   6.227   1.826  2.0118  1.5578  0.2278
  584MOL0     H78815   0.090   6.404   1.847  1.3174 -0.7802  0.3697
  584MOL0     H78816   0.018   6.416   1.587 -3.1176 -2.8086 -1.7148
  584MOL0     H78817   0.187   6.364   1.634 -0.2636  1.4822  0.8655
  584MOL0     H78818  -0.054   6.190   1.544 -1.0503 -0.7968 -1.5032
  584MOL0     H78819   0.087   6.130   1.635  0.3292 -1.3142 -0.2441
  584MOL0     H78820   0.232   6.171   1.434 -0.8838 -1.2979  3.3950
  584MOL0     H78821   0.117   6.301   1.374 -3.2162 -0.1037  1.2117
  584MOL0     H78822   0.071   6.729   2.058  1.5412  0.6307 -0.6113
  584MOL0     H78823   0.285   6.799   1.955  0.0951 -0.1864 -0.5681
  584MOL0     H78824   0.696   6.704   1.634  1.7548  0.0082  1.7861
  584MOL0     H78825   0.899   6.842   1.573  0.2356 -2.5801  1.2941
  584MOL0     H78826   0.897   8.606   2.100 -2.2037  1.1334 -1.0453
  584MOL0     H78827   0.730   8.750   2.211 -1.4601 -1.7826 -4.9622
  584MOL0     H78828   0.649   9.072   2.480  0.1640 -1.5784 -1.5927
  584MOL0     H78829   0.516   9.194   2.633 -0.1635  2.2851  0.8124
  584MOL0     H78830   0.305   9.597   2.540  0.2891  0.0696 -2.3951
  584MOL0     H78831   0.226   9.482   2.422  1.1856 -4.2373 -0.1224
  584MOL0     H78832   0.087   9.400   2.585 -0.1550  0.1082 -1.6422
  584MOL0     H78833   0.085   9.578   2.583 -2.7747 -2.2767  1.8746
  584MOL0     H78834   0.216   9.579   2.787  1.0307 -1.1831 -0.1791
  584MOL0     H78835   0.213   9.401   2.785 -0.3755  1.1290  1.8643
  584MOL0     H78836  -0.048   9.419   2.774  0.0544 -0.9964  0.5983
  584MOL0     H78837  -0.022   9.602   2.790 -0.5513 -1.1806 -0.1012
  584MOL0     H78838   0.022   9.407   3.169  2.1214 -1.4644 -0.4679
  584MOL0     H78839   0.443   9.478   2.319  3.0745  0.6653  1.1417
  584MOL0     H78840   0.562   9.348   2.165 -0.3668  2.2528  1.2299
  585MOL0     O78841   3.436   6.648   7.819 -0.0135  0.1032  0.5091
  585MOL0     C78842   3.357   6.723   7.873 -0.2946 -0.5585  0.4455
  585MOL0     O78843   3.219   6.721   7.858  0.4038  0.4385  0.6307
  585MOL0     C78844   3.152   6.635   7.769 -0.3788 -0.8548 -0.4626
  585MOL0     C78845   3.188   6.499   7.780  0.1762 -0.7533 -0.8549
  585MOL0     C78846   3.117   6.410   7.713 -0.1357  0.1338  0.1575
  585MOL0     C78847   3.017   6.444   7.622 -0.4497  0.5423  0.4891
  585MOL0     O78848   2.954   6.330   7.556 -1.1085  0.0997 -0.3942
  585MOL0     C78849   2.882   6.349   7.433  1.2004  0.0930 -0.6785
  585MOL0     C78850   2.865   6.207   7.369 -0.0753  0.0369  0.2453
  585MOL0     C78851   2.879   6.234   7.218 -0.6863 -0.4854  0.4401
  585MOL0     C78852   2.860   6.105   7.134  0.1778  0.8666  0.2936
  585MOL0     C78853   2.902   6.137   6.988  0.0629 -0.4760  0.5108
  585MOL0     C78854   2.788   6.190   6.903  0.3011  0.3419  0.5661
  585MOL0     C78855   2.842   6.203   6.761 -0.0866  0.3189  0.6637
  585MOL0     C78856   2.725   6.234   6.663  0.1286  0.0153  0.0878
  585MOL0     N78857   2.782   6.267   6.531  0.4537  0.3290  0.1187
  585MOL0     C78858   2.827   6.382   6.485  0.3957 -0.2033  0.3834
  585MOL0     C78859   2.814   6.389   6.357  0.1829  0.0944  0.9570
  585MOL0     C78860   2.838   6.506   6.272  0.7606 -0.5585 -0.1418
  585MOL0     C78861   2.760   6.529   6.144  0.6046  0.2347  0.4945
  585MOL0     C78862   2.793   6.652   6.063 -0.8400  0.2610  1.5873
  585MOL0     C78863   2.918   6.610   5.979  0.1468  0.3419  0.8804
  585MOL0     O78864   2.998   6.714   5.918 -0.3481  0.0821 -1.2827
  585MOL0     C78865   3.121   6.685   5.864 -1.2276 -0.3577 -0.6112
  585MOL0     C78866   3.199   6.786   5.819 -0.5012 -0.3259  0.2526
  585MOL0     C78867   3.318   6.771   5.750  0.7164 -0.3127 -0.4740
  585MOL0     C78868   3.395   6.895   5.732 -0.3535 -0.0775  0.3456
  585MOL0     C78869   3.354   6.635   5.704  0.7992  0.0509 -0.3680
  585MOL0     C78870   3.486   6.599   5.650 -0.1475  0.6564  0.1048
  585MOL0     O78871   3.517   6.471   5.649  0.4783 -0.1323  0.3280
  585MOL0     C78872   3.634   6.426   5.587 -0.3740 -0.0184 -0.4279
  585MOL0     C78873   3.756   6.468   5.649  0.2461  0.3678 -0.3752
  585MOL0     C78874   3.874   6.416   5.596 -0.0211  0.2089  0.3312
  585MOL0     C78875   3.876   6.316   5.492  0.1658 -0.5320 -0.5910
  585MOL0     O78876   3.981   6.247   5.442  0.3919  0.2552  0.0189
  585MOL0     C78877   4.102   6.241   5.529  1.6283 -0.3728 -0.5325
  585MOL0     C78878   4.202   6.148   5.474 -0.6463  0.4912  0.5201
  585MOL0     C78879   4.342   6.166   5.528  0.4749  0.5625 -0.8728
  585MOL0     C78880   4.339   6.183   5.686 -0.3001  0.0455 -0.7261
  585MOL0     C78881   4.483   6.229   5.723  0.3367  0.0699 -0.3139
  585MOL0     C78882   4.508   6.266   5.872 -0.3895  0.6441 -0.0574
  585MOL0     C78883   4.439   6.393   5.909 -0.4123  0.1812  0.9496
  585MOL0     C78884   4.351   6.374   6.026 -0.2821 -0.6028  0.1220
  585MOL0    Cl78885   4.206   6.258   5.997  0.0033  0.2583  0.1220
  585MOL0     C78886   3.748   6.288   5.436 -0.4073 -0.0830 -0.0623
  585MOL0     C78887   3.629   6.345   5.481 -0.5542  1.0829  0.6159
  585MOL0     O78888   3.544   6.688   5.589  0.9099  1.1969 -0.1278
  585MOL0     C78889   3.273   6.535   5.749  0.8859  0.0891  0.2304
  585MOL0     C78890   3.166   6.559   5.835  0.4275 -0.6194  0.3138
  585MOL0     N78891   2.764   6.265   6.314  0.7239  0.1806  0.8260
  585MOL0     N78892   2.751   6.192   6.411  0.1118  0.0446 -0.1769
  585MOL0     C78893   2.978   6.579   7.611  0.6877 -0.4613 -0.1244
  585MOL0     C78894   3.046   6.681   7.684 -0.6499  0.0313 -0.1043
  585MOL0     C78895   3.411   6.856   7.924 -0.4078 -0.6681  0.6705
  585MOL0     C78896   3.543   6.870   7.973 -0.2320  0.1252  0.1305
  585MOL0     C78897   3.583   6.996   8.031 -0.2713 -0.6946  0.2237
  585MOL0     C78898   3.490   7.105   8.050 -1.1902  0.9919 -0.2557
  585MOL0     O78899   3.540   7.218   8.107  0.5911 -0.1629  0.0236
  585MOL0     C78900   3.475   7.364   8.107  0.4260  1.4202  0.5378
  585MOL0     C78901   3.386   7.390   8.224 -0.2454  0.2690 -0.5107
  585MOL0     C78902   3.433   7.333   8.358 -0.4362 -0.0420 -0.0642
  585MOL0     C78903   3.552   7.401   8.426 -0.1240  0.4515  0.2920
  585MOL0     C78904   3.501   7.522   8.494  0.1827 -0.0398 -0.3253
  585MOL0     C78905   3.463   7.636   8.525 -0.7013  0.2906  0.3352
  585MOL0     C78906   3.368   7.083   8.001  0.1067  0.7293  0.0647
  585MOL0     C78907   3.330   6.971   7.925 -0.6570 -0.2513  0.2498
  585MOL0     H78908   3.276   6.458   7.829 -0.8826 -0.4611  1.4621
  585MOL0     H78909   3.124   6.303   7.732  1.4222 -0.1661 -1.7272
  585MOL0     H78910   2.790   6.409   7.431  0.2941 -1.2674 -2.3379
  585MOL0     H78911   2.943   6.413   7.368  1.0944 -3.3710 -4.6048
  585MOL0     H78912   2.953   6.153   7.406  0.8447  1.2684 -0.0660
  585MOL0     H78913   2.767   6.167   7.396 -0.4395  0.0877 -0.9674
  585MOL0     H78914   2.809   6.308   7.181  2.0074  0.4428 -3.3559
  585MOL0     H78915   2.981   6.266   7.198 -1.5171  0.7062 -2.2082
  585MOL0     H78916   2.918   6.021   7.174  2.4420  2.3285  0.2395
  585MOL0     H78917   2.755   6.075   7.127  1.1173 -2.8684  0.0980
  585MOL0     H78918   2.987   6.206   6.989  0.0350 -0.1903 -3.0580
  585MOL0     H78919   2.928   6.046   6.933  3.3325  1.7569 -2.0944
  585MOL0     H78920   2.712   6.111   6.900 -0.9078  1.5046 -1.9987
  585MOL0     H78921   2.749   6.283   6.947  0.1469 -0.5106  2.3405
  585MOL0     H78922   2.906   6.290   6.744 -2.3325  1.6434 -1.5491
  585MOL0     H78923   2.896   6.112   6.732  1.0543  1.1938 -0.0346
  585MOL0     H78924   2.651   6.307   6.696  0.7287 -0.4027  2.5750
  585MOL0     H78925   2.676   6.137   6.657  3.3491 -1.6850 -3.1873
  585MOL0     H78926   2.859   6.469   6.541  2.7711  0.7359 -2.2204
  585MOL0     H78927   2.811   6.588   6.340 -1.5828 -1.1870 -0.2330
  585MOL0     H78928   2.947   6.510   6.263  0.9760 -0.4845  1.9652
  585MOL0     H78929   2.655   6.524   6.176 -1.6441  3.2248 -4.9497
  585MOL0     H78930   2.789   6.445   6.081  3.9855  2.8698 -1.8125
  585MOL0     H78931   2.814   6.743   6.121 -1.1145  0.2331  1.7295
  585MOL0     H78932   2.720   6.660   5.981 -0.4209  3.1149  1.3752
  585MOL0     H78933   2.890   6.533   5.906  0.5967  0.9157  0.0906
  585MOL0     H78934   2.984   6.563   6.053 -2.0177 -4.3020  0.2438
  585MOL0     H78935   3.167   6.890   5.822 -4.3497 -1.2818 -1.2116
  585MOL0     H78936   3.375   6.974   5.806  1.4414  1.6371 -0.9120
  585MOL0     H78937   3.501   6.877   5.748 -0.1716  1.6608  1.3453
  585MOL0     H78938   3.371   6.943   5.637 -1.8935 -1.2246  0.1115
  585MOL0     H78939   3.744   6.535   5.733 -0.4691 -0.4052  0.1548
  585MOL0     H78940   3.971   6.457   5.622  0.2428  1.3973 -2.1855
  585MOL0     H78941   4.136   6.343   5.547 -1.4471  0.6964 -0.1656
  585MOL0     H78942   4.055   6.213   5.624 -0.2767  3.5188 -0.1217
  585MOL0     H78943   4.159   6.049   5.490 -1.0542  0.2120 -1.9183
  585MOL0     H78944   4.191   6.175   5.368 -3.4985 -1.8819  0.0861
  585MOL0     H78945   4.385   6.258   5.488 -0.8094  0.0529 -3.6937
  585MOL0     H78946   4.391   6.070   5.508 -1.0400 -0.9389  1.9300
  585MOL0     H78947   4.275   6.259   5.733  0.2664 -1.7398  3.3888
  585MOL0     H78948   4.317   6.087   5.734 -1.1264  1.6838  2.4530
  585MOL0     H78949   4.518   6.299   5.646  1.3388 -1.7188 -1.5321
  585MOL0     H78950   4.545   6.140   5.712  2.6222  1.8080 -2.9307
  585MOL0     H78951   4.479   6.184   5.939  2.0344  0.9566  1.5245
  585MOL0     H78952   4.616   6.274   5.885 -0.0535 -1.5865 -1.0456
  585MOL0     H78953   4.398   6.440   5.819  2.4990 -3.7426 -2.8856
  585MOL0     H78954   4.514   6.462   5.949 -0.7759  1.9171 -1.1336
  585MOL0     H78955   4.317   6.470   6.066  0.9330  0.4929 -1.3413
  585MOL0     H78956   4.414   6.332   6.105  1.2154 -0.1445 -0.7940
  585MOL0     H78957   3.744   6.214   5.357 -2.1829 -0.0362 -0.0599
  585MOL0     H78958   3.534   6.326   5.432  0.0631  3.5301 -1.7617
  585MOL0     H78959   3.286   6.428   5.735  1.7240 -0.3773  3.6749
  585MOL0     H78960   3.100   6.477   5.860 -3.2107  1.7247 -0.8128
  585MOL0     H78961   2.887   6.626   7.573  0.7692  1.2169  1.6282
  585MOL0     H78962   3.023   6.787   7.674  0.1483  0.1767 -0.4575
  585MOL0     H78963   3.614   6.788   7.973  1.1869  1.2327  3.1621
  585MOL0     H78964   3.687   7.012   8.058 -0.1465 -1.1582  0.0368
  585MOL0     H78965   3.556   7.434   8.130 -1.5675  3.3894  2.0786
  585MOL0     H78966   3.426   7.386   8.012  1.2760  0.1488 -0.2347
  585MOL0     H78967   3.289   7.342   8.205 -0.0541  0.2526 -1.5470
  585MOL0     H78968   3.364   7.496   8.237 -3.3578 -0.6403  3.8164
  585MOL0     H78969   3.463   7.231   8.332  1.7838  0.7570 -0.8230
  585MOL0     H78970   3.356   7.332   8.436  0.3717  2.3098  0.8485
  585MOL0     H78971   3.629   7.439   8.359 -0.0416  3.4541  1.9282
  585MOL0     H78972   3.590   7.330   8.501 -2.6422 -0.4374  0.8043
  585MOL0     H78973   3.423   7.731   8.552 -2.6112 -0.7775  1.4667
  585MOL0     H78974   3.305   7.171   8.013  0.5701  1.0691  0.0398
  585MOL0     H78975   3.229   6.989   7.889 -1.3458 -0.7120  1.8615
  586MOL0     O78976   0.206  11.410  11.147 -0.2388 -0.3901 -1.0173
  586MOL0     C78977   0.306  11.418  11.213 -0.1684  0.0574 -0.0942
  586MOL0     O78978   0.306  11.443  11.346 -0.5967 -0.1710  0.4612
  586MOL0     C78979   0.191  11.489  11.409 -0.1123  0.8853  0.4996
  586MOL0     C78980   0.083  11.405  11.468  0.6496 -0.5039  0.2275
  586MOL0     C78981  -0.034  11.465  11.520  0.5955 -0.6413  0.6309
  586MOL0     C78982  -0.056  11.599  11.515 -0.4371  0.3189 -0.2281
  586MOL0     O78983  -0.182  11.656  11.557 -0.4926  0.1772  0.6440
  586MOL0     C78984  -0.191  11.798  11.554  0.2682 -0.2755  0.1177
  586MOL0     C78985  -0.326  11.844  11.596  0.3619  0.6680  1.4765
  586MOL0     C78986  -0.344  11.837  11.754 -0.3681 -0.3473  0.0180
  586MOL0     C78987  -0.384  11.700  11.813 -0.6055  0.0716  0.6787
  586MOL0     C78988  -0.522  11.657  11.774  0.2447 -0.7767 -0.2282
  586MOL0     C78989  -0.639  11.728  11.842  0.3787 -1.0543 -1.0357
  586MOL0     C78990  -0.782  11.671  11.829 -0.8154  1.6004 -0.2311
  586MOL0     C78991  -0.777  11.539  11.900 -1.1032 -0.4378  0.2500
  586MOL0     N78992  -0.911  11.489  11.909  0.1340 -0.3981  0.7488
  586MOL0     C78993  -1.028  11.541  11.953 -0.3655 -0.3535 -0.1398
  586MOL0     C78994  -1.131  11.461  11.916 -0.7456 -0.4250  0.3723
  586MOL0     C78995  -1.282  11.473  11.960  0.3651  0.1817 -0.4256
  586MOL0     C78996  -1.362  11.594  11.922  0.2671 -0.3869  0.3546
  586MOL0     C78997  -1.495  11.610  12.002 -1.3046  0.9926  0.4438
  586MOL0     C78998  -1.586  11.493  11.993  0.5237  0.9056 -0.0220
  586MOL0     O78999  -1.720  11.536  12.028 -0.0778  0.1529 -0.4663
  586MOL0     C79000  -1.820  11.454  12.078  1.1538  0.1050 -1.3602
  586MOL0     C79001  -1.807  11.317  12.085 -0.1436  0.9109 -0.1367
  586MOL0     C79002  -1.912  11.225  12.110  0.2976  0.1836  0.2121
  586MOL0     C79003  -1.888  11.078  12.070 -1.0610  0.0515 -0.5470
  586MOL0     C79004  -2.036  11.284  12.158 -0.6471 -0.5865  0.5389
  586MOL0     C79005  -2.158  11.201  12.204 -0.2066 -0.5177 -0.0296
  586MOL0     O79006  -2.275  11.267  12.239 -0.0679 -0.2404 -0.3029
  586MOL0     C79007  -2.376  11.188  12.294 -0.4410 -1.0417  0.0020
  586MOL0     C79008  -2.479  11.144  12.214  0.5687 -0.8100  0.2734
  586MOL0     C79009  -2.586  11.065  12.267 -0.3678 -0.2910  0.4709
  586MOL0     C79010  -2.582  11.020  12.406 -1.1966 -0.2097 -0.1747
  586MOL0     O79011  -2.650  10.907  12.451  0.6407 -0.0651 -0.4809
  586MOL0     C79012  -2.751  10.847  12.370  0.1270 -0.5008 -0.2665
  586MOL0     C79013  -2.800  10.713  12.433  0.3766 -0.5397  0.0791
  586MOL0     C79014  -2.691  10.604  12.426  0.2574 -0.1250  0.5065
  586MOL0     C79015  -2.750  10.466  12.434  0.6401  0.3916  0.6454
  586MOL0     C79016  -2.687  10.365  12.336  0.3991  0.4857 -0.0722
  586MOL0     C79017  -2.558  10.321  12.384  0.0952  0.6007  0.6146
  586MOL0     C79018  -2.484  10.238  12.285  0.3254 -0.2622 -0.9518
  586MOL0     C79019  -2.540  10.103  12.254  0.6108 -0.7868  0.8181
  586MOL0    Cl79020  -2.418  10.021  12.153  0.4426  0.0918  0.2647
  586MOL0     C79021  -2.476  11.064  12.484 -0.4225  0.3095 -0.4537
  586MOL0     C79022  -2.369  11.139  12.430  0.0072 -0.7974 -0.2133
  586MOL0     O79023  -2.137  11.084  12.205  0.3482 -0.4913  0.0338
  586MOL0     C79024  -2.050  11.430  12.152 -0.4695 -0.8645  1.4774
  586MOL0     C79025  -1.943  11.512  12.113  0.3393  1.1291 -0.8456
  586MOL0     N79026  -1.074  11.360  11.835  0.1987  0.0060 -1.1957
  586MOL0     N79027  -0.946  11.369  11.840 -0.1901 -0.3671  0.1249
  586MOL0     C79028   0.052  11.679  11.473 -1.1405 -1.2907  1.1475
  586MOL0     C79029   0.176  11.623  11.429  0.5443 -0.1411  0.1016
  586MOL0     C79030   0.429  11.409  11.133 -0.2726  1.1255  0.4049
  586MOL0     C79031   0.431  11.426  10.992  0.4264  0.5978  0.0594
  586MOL0     C79032   0.553  11.402  10.926 -0.2190  0.3344 -0.1524
  586MOL0     C79033   0.679  11.374  10.990 -0.2595  0.2881  0.2759
  586MOL0     O79034   0.787  11.359  10.908 -0.3603  0.7373  1.2804
  586MOL0     C79035   0.793  11.245  10.822 -0.6740 -0.1208  0.1728
  586MOL0     C79036   0.871  11.139  10.896  0.1461  0.3924 -0.3593
  586MOL0     C79037   1.028  11.173  10.892  0.9761  0.3579 -0.2905
  586MOL0     C79038   1.099  11.119  11.011 -0.5077  0.5564 -0.4268
  586MOL0     C79039   1.106  11.216  11.125  0.9879  0.8458 -0.0012
  586MOL0     C79040   1.083  11.298  11.205  0.6160  0.8551 -1.2347
  586MOL0     C79041   0.676  11.355  11.130  0.6411 -0.4067  0.4162
  586MOL0     C79042   0.551  11.363  11.198  1.0783 -0.0187 -0.7488
  586MOL0     H79043   0.099  11.299  11.450 -2.9022 -0.6834 -3.5946
  586MOL0     H79044  -0.105  11.397  11.566 -1.9845 -0.8434 -3.2757
  586MOL0     H79045  -0.111  11.840  11.616  3.0702 -3.4133 -1.1073
  586MOL0     H79046  -0.164  11.831  11.454  1.6707  0.2883  0.6444
  586MOL0     H79047  -0.344  11.943  11.554 -0.3090  2.1666  4.9368
  586MOL0     H79048  -0.396  11.787  11.535 -0.2827  1.8045  1.1312
  586MOL0     H79049  -0.245  11.859  11.795  1.2514 -4.3221 -1.3536
  586MOL0     H79050  -0.418  11.907  11.795 -1.8851 -1.4337 -0.7460
  586MOL0     H79051  -0.320  11.623  11.769  0.1706  2.2173 -2.2930
  586MOL0     H79052  -0.361  11.688  11.919 -0.5451  1.4432  0.8375
  586MOL0     H79053  -0.545  11.699  11.676  1.0939  1.2748  0.4029
  586MOL0     H79054  -0.539  11.549  11.769 -2.0170 -0.5682  1.3233
  586MOL0     H79055  -0.610  11.745  11.946 -1.9450  1.8647 -0.7378
  586MOL0     H79056  -0.649  11.831  11.808  3.3271 -0.9268 -1.8008
  586MOL0     H79057  -0.858  11.728  11.884 -0.2693  0.6165  1.6486
  586MOL0     H79058  -0.818  11.654  11.728 -0.9917 -3.2587  0.4449
  586MOL0     H79059  -0.741  11.559  12.001 -1.9642  2.8462  0.0401
  586MOL0     H79060  -0.698  11.472  11.866  1.0644 -0.5814  4.8271
  586MOL0     H79061  -1.031  11.634  12.008  0.4001  0.9078 -2.1204
  586MOL0     H79062  -1.328  11.379  11.928  4.5775 -1.8489 -1.2207
  586MOL0     H79063  -1.292  11.473  12.069 -5.0352  3.2227 -0.5637
  586MOL0     H79064  -1.399  11.573  11.822 -1.3793 -2.7838  1.3811
  586MOL0     H79065  -1.302  11.685  11.937 -2.5788  1.5095  1.0443
  586MOL0     H79066  -1.539  11.702  11.961 -1.6217  1.6623  2.1961
  586MOL0     H79067  -1.475  11.637  12.106 -1.0992  1.4409  0.2938
  586MOL0     H79068  -1.547  11.414  12.058  2.5465 -0.5741 -2.8282
  586MOL0     H79069  -1.579  11.451  11.892  0.2050 -3.0153  1.4288
  586MOL0     H79070  -1.713  11.275  12.050  0.8131  1.1030  2.0659
  586MOL0     H79071  -1.887  11.009  12.155  2.4698 -0.4517 -0.8657
  586MOL0     H79072  -1.980  11.053  12.015 -2.5689 -3.9218  3.2079
  586MOL0     H79073  -1.798  11.059  12.011 -0.9115  2.1358 -1.0717
  586MOL0     H79074  -2.485  11.181  12.112 -2.6966 -1.2583  0.2166
  586MOL0     H79075  -2.658  11.029  12.195  1.9394 -1.6154 -1.2923
  586MOL0     H79076  -2.827  10.924  12.353  2.9491  2.8912  1.2626
  586MOL0     H79077  -2.699  10.817  12.278  3.7396  0.7689  1.1910
  586MOL0     H79078  -2.819  10.740  12.537  4.0846  2.0759  0.2827
  586MOL0     H79079  -2.892  10.685  12.381  0.2285  0.8788 -0.4586
  586MOL0     H79080  -2.635  10.610  12.520 -0.4409  1.0615  0.8660
  586MOL0     H79081  -2.622  10.611  12.342 -0.4379  2.1481  0.0457
  586MOL0     H79082  -2.733  10.433  12.537  0.8820 -1.5124  0.0286
  586MOL0     H79083  -2.859  10.473  12.428  0.7826  2.4251 -0.8705
  586MOL0     H79084  -2.689  10.394  12.230 -0.3676 -1.8174 -0.7561
  586MOL0     H79085  -2.755  10.280  12.347 -0.9391  1.7710  2.3449
  586MOL0     H79086  -2.509  10.418  12.401 -2.8176  2.2968 -0.0628
  586MOL0     H79087  -2.563  10.266  12.479  3.8790 -2.1925 -0.5337
  586MOL0     H79088  -2.380  10.223  12.314 -0.4689 -2.1417  1.3100
  586MOL0     H79089  -2.476  10.297  12.193 -1.5754  2.3875  0.4687
  586MOL0     H79090  -2.633  10.115  12.196  2.4466 -1.3457 -2.4901
  586MOL0     H79091  -2.561  10.060  12.353  0.3379  0.3020  1.2491
  586MOL0     H79092  -2.451  11.035  12.586  1.5926  0.3268 -0.9139
  586MOL0     H79093  -2.270  11.148  12.473  1.1484  0.4445 -2.8986
  586MOL0     H79094  -2.139  11.483  12.184  0.1910  1.5952 -0.4942
  586MOL0     H79095  -1.958  11.620  12.117 -1.9508  0.8607 -1.1427
  586MOL0     H79096   0.063  11.787  11.477  0.0275 -1.4084  1.2234
  586MOL0     H79097   0.232  11.705  11.386  3.6361 -0.5243  2.9248
  586MOL0     H79098   0.336  11.451  10.945  1.0620  3.3466  0.0943
  586MOL0     H79099   0.532  11.411  10.820 -0.7605  0.8869 -0.0049
  586MOL0     H79100   0.694  11.210  10.790 -0.8520  1.7044 -1.4441
  586MOL0     H79101   0.841  11.262  10.725 -1.2816 -2.5820 -0.6344
  586MOL0     H79102   0.859  11.036  10.861 -0.5495 -0.3247  1.8313
  586MOL0     H79103   0.843  11.143  11.001  2.8679 -1.1351  0.5114
  586MOL0     H79104   1.039  11.280  10.908  1.0904  0.3236 -0.1421
  586MOL0     H79105   1.079  11.134  10.803 -1.6535 -3.4610 -0.3835
  586MOL0     H79106   1.195  11.102  10.961 -2.2902 -3.8260 -2.8239
  586MOL0     H79107   1.057  11.027  11.053  0.9963 -0.4648 -1.0655
  586MOL0     H79108   1.057  11.362  11.287  0.3818 -4.5869  3.6613
  586MOL0     H79109   0.759  11.313  11.186 -0.2066 -1.4065  0.9642
  586MOL0     H79110   0.552  11.337  11.303  0.4133  1.1742 -0.4247
  587MOL0     O79111  11.116   7.799   7.104 -0.3225  0.7569  0.0460
  587MOL0     C79112  11.218   7.764   7.157 -1.0683  0.4072  1.2323
  587MOL0     O79113  11.280   7.646   7.126 -0.6650 -0.4974  0.2796
  587MOL0     C79114  11.206   7.540   7.082  0.1431  0.1456 -0.1223
  587MOL0     C79115  11.072   7.507   7.137 -0.3817  0.0370  0.5604
  587MOL0     C79116  11.008   7.382   7.108 -0.0972 -0.0553  0.1098
  587MOL0     C79117  11.078   7.291   7.022  0.7129  0.4434 -0.4341
  587MOL0     O79118  11.000   7.191   6.968  0.9342 -0.2720  0.2328
  587MOL0     C79119  11.048   7.071   6.911  0.3354  0.2045  0.1622
  587MOL0     C79120  11.132   6.994   7.002  0.2586 -1.1013 -0.7531
  587MOL0     C79121  11.169   6.855   6.963 -0.3066  0.4367  0.6481
  587MOL0     C79122  11.234   6.839   6.826  0.1567 -0.6473  0.1333
  587MOL0     C79123  11.312   6.703   6.809  0.8970 -0.3473  0.1568
  587MOL0     C79124  11.386   6.694   6.677 -0.4476 -0.8846 -0.3546
  587MOL0     C79125  11.291   6.673   6.561 -0.5407 -1.3265 -0.0095
  587MOL0     C79126  11.355   6.654   6.427  0.9682 -0.4062 -0.0078
  587MOL0     N79127  11.434   6.768   6.385  0.7719  0.4224 -0.2892
  587MOL0     C79128  11.563   6.792   6.430 -0.6552  0.5845  0.0892
  587MOL0     C79129  11.603   6.902   6.360 -0.3257 -0.7798  0.6785
  587MOL0     C79130  11.724   6.977   6.389  0.3516 -1.0433 -1.1301
  587MOL0     C79131  11.823   6.993   6.275  0.7259  0.6066  1.5519
  587MOL0     C79132  11.947   7.063   6.330 -0.5751  0.6370  0.3505
  587MOL0     C79133  11.915   7.213   6.350  0.1589  0.5554 -0.6202
  587MOL0     O79134  12.021   7.281   6.419  0.4458  0.2532 -1.2093
  587MOL0     C79135  12.137   7.305   6.346  0.7178  0.5274  0.0111
  587MOL0     C79136  12.242   7.366   6.414 -1.0079 -0.0974 -0.4846
  587MOL0     C79137  12.350   7.422   6.356  1.6399 -0.4231  0.3147
  587MOL0     C79138  12.437   7.496   6.455  0.5148 -0.1452 -0.3017
  587MOL0     C79139  12.357   7.419   6.214 -0.8102 -0.2153  0.0748
  587MOL0     C79140  12.463   7.504   6.156  0.4006 -0.9810  0.4313
  587MOL0     O79141  12.436   7.555   6.028  0.5949 -0.4067  0.1547
  587MOL0     C79142  12.539   7.607   5.964 -0.9066  0.5092  0.1018
  587MOL0     C79143  12.534   7.746   5.937  0.5856 -0.2448 -0.0670
  587MOL0     C79144  12.634   7.821   5.883 -0.8262  0.5878  0.3225
  587MOL0     C79145  12.743   7.753   5.835 -0.0737  0.4507  0.2259
  587MOL0     O79146  12.847   7.818   5.778  0.2494 -0.1518  0.7123
  587MOL0     C79147  12.949   7.860   5.868  0.1672 -0.7500 -0.6994
  587MOL0     C79148  12.923   7.993   5.943  0.5692  0.8044  0.7385
  587MOL0     C79149  12.942   8.114   5.853 -0.6205 -1.2650  0.6834
  587MOL0     C79150  12.902   8.248   5.920  0.5565  0.3234  0.2776
  587MOL0     C79151  12.752   8.251   5.939  0.3508 -0.3751  0.0101
  587MOL0     C79152  12.718   8.401   5.964  0.1713  0.0843 -0.7984
  587MOL0     C79153  12.742   8.473   5.833  0.3486 -0.0314  0.1001
  587MOL0     C79154  12.633   8.587   5.808  0.6733  0.2603  0.6700
  587MOL0    Cl79155  12.674   8.670   5.657  0.1819  0.0910 -0.1618
  587MOL0     C79156  12.748   7.608   5.854  0.1696 -0.3213  0.1501
  587MOL0     C79157  12.647   7.531   5.915  0.2285 -0.3696 -0.5287
  587MOL0     O79158  12.574   7.512   6.214  0.5742 -0.6329 -0.9887
  587MOL0     C79159  12.264   7.342   6.138  0.8116 -0.8187 -0.1943
  587MOL0     C79160  12.144   7.290   6.206  0.0664  0.3266  0.1042
  587MOL0     N79161  11.513   6.938   6.262 -0.7336 -1.0475  0.0819
  587MOL0     N79162  11.407   6.856   6.287 -0.1157 -0.2860  0.7361
  587MOL0     C79163  11.211   7.313   6.986  0.7656 -0.2447  0.0900
  587MOL0     C79164  11.269   7.435   7.023 -0.1229 -0.0967 -0.1451
  587MOL0     C79165  11.287   7.863   7.233  0.6335 -0.5455  0.1529
  587MOL0     C79166  11.399   7.820   7.305  0.7211 -0.3834 -0.2892
  587MOL0     C79167  11.465   7.922   7.371 -0.9182  0.3610 -1.2099
  587MOL0     C79168  11.424   8.054   7.377  0.4719 -0.5231  0.4803
  587MOL0     O79169  11.490   8.152   7.436 -0.3724 -0.9384  0.1167
  587MOL0     C79170  11.630   8.149   7.436 -0.1360  0.8493 -0.9221
  587MOL0     C79171  11.691   8.268   7.514  0.2696  0.0656 -0.4904
  587MOL0     C79172  11.634   8.295   7.653  0.3546 -0.4860  0.4131
  587MOL0     C79173  11.697   8.418   7.722 -0.8071 -0.6774 -0.9322
  587MOL0     C79174  11.674   8.426   7.867 -0.7802 -0.0134 -0.3617
  587MOL0     C79175  11.655   8.440   7.991  1.2541 -0.6586  0.2260
  587MOL0     C79176  11.305   8.099   7.314  0.0160  0.9489  0.1874
  587MOL0     C79177  11.235   8.001   7.240 -0.7504 -0.1033  0.1797
  587MOL0     H79178  11.025   7.575   7.207  4.0103  1.8960  2.0416
  587MOL0     H79179  10.904   7.357   7.128 -0.7619 -1.1795 -3.9365
  587MOL0     H79180  10.953   7.018   6.899  0.0507  0.6004  0.6187
  587MOL0     H79181  11.091   7.087   6.812  0.0865  3.1139  0.4345
  587MOL0     H79182  11.221   7.057   7.012 -1.9597  2.1974 -0.2780
  587MOL0     H79183  11.094   6.987   7.104  2.6018 -0.8846  0.2076
  587MOL0     H79184  11.256   6.827   7.024 -1.3267  2.4598  3.2287
  587MOL0     H79185  11.084   6.787   6.970  0.4340 -0.9805 -2.4331
  587MOL0     H79186  11.159   6.854   6.748  0.5030 -0.8505 -0.2445
  587MOL0     H79187  11.311   6.914   6.810 -1.4618  0.8477 -0.9298
  587MOL0     H79188  11.387   6.701   6.888  1.8337  0.1703 -0.6928
  587MOL0     H79189  11.243   6.620   6.828 -2.6669  1.8357 -2.0389
  587MOL0     H79190  11.468   6.764   6.661  2.5002 -4.1125 -0.4718
  587MOL0     H79191  11.432   6.595   6.678  2.3274  0.1883  3.6026
  587MOL0     H79192  11.227   6.585   6.577 -0.7575 -0.9630  1.2245
  587MOL0     H79193  11.223   6.758   6.555 -0.8901 -1.4587  1.6281
  587MOL0     H79194  11.280   6.642   6.347  1.9517 -1.1653 -0.8411
  587MOL0     H79195  11.402   6.555   6.424 -0.1967 -0.9957  0.4210
  587MOL0     H79196  11.612   6.739   6.511  3.7589  2.2238 -1.1864
  587MOL0     H79197  11.692   7.074   6.427  0.0857 -1.1774 -1.0049
  587MOL0     H79198  11.784   6.925   6.464  1.0063  0.6702 -0.4305
  587MOL0     H79199  11.773   7.044   6.192  0.4597  0.3875  1.5736
  587MOL0     H79200  11.854   6.896   6.234  0.5122  1.3796 -0.5727
  587MOL0     H79201  12.014   7.043   6.246 -0.1341  1.7607  0.4161
  587MOL0     H79202  11.989   7.013   6.418 -3.6426 -1.8582  0.5694
  587MOL0     H79203  11.832   7.218   6.421  0.3555  0.5138 -0.3832
  587MOL0     H79204  11.897   7.273   6.261 -1.2580  0.4084 -0.4589
  587MOL0     H79205  12.215   7.381   6.519 -0.6774  2.6435 -0.7116
  587MOL0     H79206  12.538   7.458   6.438  0.1627  0.4984 -5.2806
  587MOL0     H79207  12.437   7.603   6.434  0.5058  0.0055  0.4524
  587MOL0     H79208  12.416   7.493   6.562  1.9877  1.2175  0.0737
  587MOL0     H79209  12.445   7.804   5.960  1.3614  1.2551 -0.7645
  587MOL0     H79210  12.617   7.928   5.877  0.7623  0.8773  0.3413
  587MOL0     H79211  12.968   7.780   5.940 -0.2074 -0.4645 -0.2800
  587MOL0     H79212  13.032   7.891   5.804  0.0032  1.9678  0.2499
  587MOL0     H79213  12.824   7.995   5.989 -1.4504 -2.1480 -2.9301
  587MOL0     H79214  12.986   7.997   6.033  1.3902  0.2849  0.2023
  587MOL0     H79215  12.883   8.097   5.763  0.7905  1.5378 -0.8995
  587MOL0     H79216  13.046   8.125   5.822 -1.3408  0.5463 -1.3039
  587MOL0     H79217  12.962   8.268   6.009  1.0023 -0.2712  0.1177
  587MOL0     H79218  12.941   8.330   5.859 -2.4638  2.1678  0.5677
  587MOL0     H79219  12.728   8.194   6.029  1.1942  0.8702  1.0550
  587MOL0     H79220  12.690   8.218   5.855 -0.3848  2.6157 -0.7220
  587MOL0     H79221  12.610   8.407   5.981  0.5284 -1.8550  3.6507
  587MOL0     H79222  12.769   8.452   6.047  1.5022 -2.2554 -0.0961
  587MOL0     H79223  12.742   8.399   5.753 -0.9004 -1.3491  1.2675
  587MOL0     H79224  12.845   8.511   5.837  1.0994 -2.0611  2.0227
  587MOL0     H79225  12.610   8.648   5.896  0.2908 -1.9284  2.1776
  587MOL0     H79226  12.538   8.543   5.778  0.2472  3.4565 -3.6608
  587MOL0     H79227  12.816   7.551   5.792 -0.3004 -0.2102 -0.4751
  587MOL0     H79228  12.661   7.424   5.926 -0.1492 -0.6270 -2.2410
  587MOL0     H79229  12.275   7.353   6.031  0.9101 -1.3671 -0.2433
  587MOL0     H79230  12.066   7.239   6.149 -1.4363 -0.6444  2.8529
  587MOL0     H79231  11.268   7.240   6.930 -3.6040 -0.9277 -4.0817
  587MOL0     H79232  11.373   7.456   7.003  0.4920 -2.7397 -0.1396
  587MOL0     H79233  11.420   7.715   7.324 -1.6155 -0.7679  0.4989
  587MOL0     H79234  11.560   7.905   7.420 -0.0115  2.3275 -2.1810
  587MOL0     H79235  11.668   8.057   7.482 -1.5798  1.4510  1.6627
  587MOL0     H79236  11.657   8.157   7.331  1.6505  2.9980 -0.3654
  587MOL0     H79237  11.678   8.361   7.457 -0.0302  0.0860 -0.3876
  587MOL0     H79238  11.799   8.248   7.519  0.5521  1.1169 -1.6956
  587MOL0     H79239  11.663   8.207   7.710  1.9295 -1.3218 -1.5725
  587MOL0     H79240  11.524   8.302   7.653  0.2880 -1.3047  2.0066
  587MOL0     H79241  11.658   8.509   7.676  1.0922 -0.3990 -2.1383
  587MOL0     H79242  11.804   8.403   7.705 -0.3898  0.5195  0.3907
  587MOL0     H79243  11.620   8.452   8.091 -1.0337 -0.5947 -0.5124
  587MOL0     H79244  11.264   8.200   7.314  3.4462  2.5409 -2.2912
  587MOL0     H79245  11.152   8.032   7.178 -1.0175  1.1886  1.1157
  588MOL0     O79246   5.372   8.449  10.682  0.7894  0.6641 -0.3645
  588MOL0     C79247   5.396   8.325  10.688  1.0583 -0.2890  0.5108
  588MOL0     O79248   5.504   8.273  10.761  0.0292  0.1246  0.7237
  588MOL0     C79249   5.619   8.341  10.782 -1.0346  0.0426  0.2237
  588MOL0     C79250   5.664   8.446  10.697  0.8037  0.2322 -0.5579
  588MOL0     C79251   5.784   8.515  10.728  0.9101 -1.2482  0.6713
  588MOL0     C79252   5.850   8.489  10.849  0.5853 -0.0310 -0.8737
  588MOL0     O79253   5.949   8.572  10.891  0.7761 -0.3114 -0.0804
  588MOL0     C79254   6.027   8.542  11.007  0.1753 -0.1369  0.4119
  588MOL0     C79255   6.153   8.627  11.012  1.3750  0.2349  0.9540
  588MOL0     C79256   6.275   8.566  10.958 -0.1378  0.4865 -0.0738
  588MOL0     C79257   6.333   8.463  11.055  1.2309 -0.3863 -1.1040
  588MOL0     C79258   6.446   8.388  10.991 -0.8424  0.4408  0.2995
  588MOL0     C79259   6.532   8.314  11.100 -0.2513 -0.0155 -0.2236
  588MOL0     C79260   6.673   8.277  11.048 -0.4904 -0.3677  0.4347
  588MOL0     C79261   6.748   8.201  11.158 -0.2048  0.0871 -0.7506
  588MOL0     N79262   6.842   8.096  11.114 -0.4516 -0.3267  0.9065
  588MOL0     C79263   6.976   8.119  11.089  0.7165  0.1061 -0.0489
  588MOL0     C79264   7.022   7.997  11.049 -0.9371 -0.3275  0.0895
  588MOL0     C79265   7.161   7.979  10.984  0.3600  0.6046  0.4111
  588MOL0     C79266   7.241   7.872  11.049 -0.2424 -0.3924 -0.2492
  588MOL0     C79267   7.371   7.820  10.976  0.7399 -1.0745 -0.3587
  588MOL0     C79268   7.434   7.703  11.044 -1.0284  0.2426  1.1087
  588MOL0     O79269   7.485   7.757  11.161  0.1399 -0.7106  0.8150
  588MOL0     C79270   7.595   7.700  11.214 -0.2164  0.8012 -1.0367
  588MOL0     C79271   7.648   7.758  11.332 -0.6558 -1.7916 -0.6765
  588MOL0     C79272   7.759   7.710  11.394 -0.4532 -0.5168  0.0434
  588MOL0     C79273   7.825   7.804  11.500 -0.6317 -0.8577 -0.4121
  588MOL0     C79274   7.826   7.588  11.351 -0.7260 -0.3666  0.5477
  588MOL0     C79275   7.941   7.527  11.409 -0.5400  0.2378  0.3681
  588MOL0     O79276   8.020   7.450  11.335 -0.0578  0.2550  0.1422
  588MOL0     C79277   8.112   7.362  11.394  0.1956  0.3731  0.3007
  588MOL0     C79278   8.201   7.307  11.293  0.3532  0.0644  0.3235
  588MOL0     C79279   8.295   7.204  11.325 -0.2592 -0.6577 -0.1191
  588MOL0     C79280   8.290   7.145  11.455  0.5564  0.5091  0.0297
  588MOL0     O79281   8.337   7.020  11.485 -0.1495  0.8092 -0.6945
  588MOL0     C79282   8.479   7.004  11.497 -1.0645  0.1943  0.1215
  588MOL0     C79283   8.503   6.856  11.533  0.0853 -0.4077 -1.3299
  588MOL0     C79284   8.468   6.762  11.419  0.4146  0.8189 -0.8890
  588MOL0     C79285   8.470   6.612  11.470  0.6798 -0.1056 -0.6050
  588MOL0     C79286   8.609   6.573  11.485 -0.7461  0.1032  0.0199
  588MOL0     C79287   8.616   6.423  11.502  0.0001  0.2213  0.5841
  588MOL0     C79288   8.541   6.363  11.625 -0.1523  0.3454  1.1362
  588MOL0     C79289   8.594   6.415  11.764  0.0841 -0.1630  0.0292
  588MOL0    Cl79290   8.781   6.408  11.769 -0.5604  0.4374 -0.3365
  588MOL0     C79291   8.209   7.200  11.547  0.4188  0.0200  0.3483
  588MOL0     C79292   8.130   7.311  11.526 -0.0830  0.0862 -0.0870
  588MOL0     O79293   7.951   7.540  11.534  0.4942 -0.6109 -0.4272
  588MOL0     C79294   7.761   7.517  11.251 -0.1327  0.4922  0.1309
  588MOL0     C79295   7.653   7.574  11.181  0.0963 -0.2403  0.4678
  588MOL0     N79296   6.915   7.906  11.062 -0.1237 -0.5794  0.8809
  588MOL0     N79297   6.816   7.965  11.114  0.8540 -0.4275  0.1817
  588MOL0     C79298   5.799   8.381  10.933  0.5071  0.0646  1.4670
  588MOL0     C79299   5.686   8.310  10.904 -0.0393 -0.5581  0.8139
  588MOL0     C79300   5.308   8.235  10.605  0.5551 -0.1057 -0.4339
  588MOL0     C79301   5.306   8.100  10.629  0.8633 -0.4787  0.4138
  588MOL0     C79302   5.227   8.013  10.551  0.1235 -1.0029  0.8320
  588MOL0     C79303   5.144   8.063  10.445  1.1176  0.3660  0.1897
  588MOL0     O79304   5.053   7.978  10.383  0.6880 -0.0082  0.4907
  588MOL0     C79305   5.026   8.007  10.243 -0.1553 -0.1390  0.0518
  588MOL0     C79306   4.907   7.930  10.202 -0.6517  0.6827 -0.6510
  588MOL0     C79307   4.936   7.846  10.073  0.2796  0.1717 -1.0592
  588MOL0     C79308   4.810   7.772  10.048 -0.2122  0.6659  0.4428
  588MOL0     C79309   4.816   7.685   9.929 -0.1968  0.8993 -0.4999
  588MOL0     C79310   4.810   7.614   9.833 -0.8965  0.1905  0.1183
  588MOL0     C79311   5.149   8.205  10.423  0.3393 -0.3410 -0.3968
  588MOL0     C79312   5.227   8.290  10.502 -0.3598 -0.2644 -0.2514
  588MOL0     H79313   5.605   8.475  10.611  2.3439  1.3685 -1.2761
  588MOL0     H79314   5.829   8.593  10.667  1.9677 -1.4483  1.1652
  588MOL0     H79315   5.963   8.567  11.092 -1.9169  0.2380 -1.2124
  588MOL0     H79316   6.054   8.437  10.995 -1.1198 -0.2244 -2.7805
  588MOL0     H79317   6.125   8.708  10.944 -3.7145 -1.4871  0.5375
  588MOL0     H79318   6.157   8.653  11.119 -0.5116 -1.6912  1.5626
  588MOL0     H79319   6.246   8.510  10.869  0.4933 -1.3443  0.8251
  588MOL0     H79320   6.357   8.634  10.934  0.9420 -0.2536  1.3300
  588MOL0     H79321   6.370   8.513  11.145  3.9377 -5.0508  0.7051
  588MOL0     H79322   6.254   8.394  11.088 -0.8665  2.1897 -0.3929
  588MOL0     H79323   6.407   8.310  10.925 -0.1862  0.7805 -0.5127
  588MOL0     H79324   6.497   8.462  10.928 -0.1141 -1.1490 -1.0504
  588MOL0     H79325   6.538   8.395  11.173  1.8099 -1.2999  1.1229
  588MOL0     H79326   6.468   8.231  11.131  0.2239 -0.4155 -0.2938
  588MOL0     H79327   6.670   8.219  10.955 -3.6480 -2.6626  1.7614
  588MOL0     H79328   6.730   8.368  11.031  1.7917 -1.7161  0.5302
  588MOL0     H79329   6.674   8.154  11.223  1.1324  0.5981  1.2459
  588MOL0     H79330   6.809   8.272  11.215 -0.2026  1.5682 -2.5038
  588MOL0     H79331   7.045   8.201  11.107  0.0902  0.5253  0.5085
  588MOL0     H79332   7.155   7.968  10.876  0.1789 -1.9574  0.6143
  588MOL0     H79333   7.216   8.071  11.006 -0.6386  1.0301  1.2319
  588MOL0     H79334   7.176   7.788  11.074  1.5840 -1.7197  0.2520
  588MOL0     H79335   7.277   7.923  11.139 -0.2105 -0.4187 -0.2464
  588MOL0     H79336   7.448   7.895  10.957 -2.9111  3.2672  0.3545
  588MOL0     H79337   7.334   7.784  10.879  0.3609  0.3955 -0.7917
  588MOL0     H79338   7.520   7.668  10.986  0.0173 -0.3987  2.9523
  588MOL0     H79339   7.371   7.617  11.066  0.7118 -1.5731 -0.6203
  588MOL0     H79340   7.606   7.846  11.381 -0.6704 -2.4085  0.4492
  588MOL0     H79341   7.841   7.749  11.593  0.5582  2.1849  1.3383
  588MOL0     H79342   7.921   7.842  11.464 -1.1030  0.4606 -0.3473
  588MOL0     H79343   7.761   7.886  11.536  0.9798  0.9583 -1.5095
  588MOL0     H79344   8.193   7.343  11.191 -0.5303 -2.0547 -0.4090
  588MOL0     H79345   8.361   7.164  11.249 -1.5124 -2.9679 -0.0512
  588MOL0     H79346   8.526   7.021  11.399 -0.5356 -1.5529  0.0491
  588MOL0     H79347   8.528   7.073  11.566 -2.7061 -1.8531  3.5901
  588MOL0     H79348   8.610   6.850  11.556  0.4056  1.4711 -2.1346
  588MOL0     H79349   8.438   6.831  11.617  0.1892  1.5460 -0.6131
  588MOL0     H79350   8.540   6.786  11.340 -2.0127  0.7457 -3.2770
  588MOL0     H79351   8.367   6.780  11.381 -0.3760  1.4977  1.3703
  588MOL0     H79352   8.409   6.600  11.561 -2.8958 -3.2624 -3.1058
  588MOL0     H79353   8.422   6.559  11.388 -0.3792  3.6431 -2.6545
  588MOL0     H79354   8.654   6.631  11.567 -2.1926  1.3898 -0.0489
  588MOL0     H79355   8.662   6.589  11.391  1.1416 -0.6119  0.9073
  588MOL0     H79356   8.561   6.374  11.421 -2.4183  2.1237  0.9685
  588MOL0     H79357   8.720   6.389  11.495  0.0766  0.1358  1.8896
  588MOL0     H79358   8.556   6.255  11.630  0.4513  0.4434  1.6426
  588MOL0     H79359   8.436   6.385  11.608 -0.7013 -2.4620  0.4106
  588MOL0     H79360   8.546   6.352  11.839 -1.5247 -2.9886 -3.0964
  588MOL0     H79361   8.547   6.513  11.762 -2.9906 -1.5160  0.0655
  588MOL0     H79362   8.201   7.160  11.647 -2.4047 -3.5119 -1.0550
  588MOL0     H79363   8.074   7.355  11.607 -0.1551  0.2885 -0.2447
  588MOL0     H79364   7.783   7.412  11.236 -4.1953 -0.7032  1.3082
  588MOL0     H79365   7.636   7.521  11.088 -3.2316  0.3652  0.5975
  588MOL0     H79366   5.831   8.362  11.035  0.9639  0.6585  1.4406
  588MOL0     H79367   5.644   8.237  10.972  0.6667 -1.5195  0.2286
  588MOL0     H79368   5.356   8.057  10.715  0.1037 -1.7982  0.2162
  588MOL0     H79369   5.220   7.907  10.573 -2.2084 -1.0009  0.4033
  588MOL0     H79370   5.008   8.114  10.233  0.0077  0.0013  1.1400
  588MOL0     H79371   5.117   7.986  10.186 -0.5936  1.4483 -1.2900
  588MOL0     H79372   4.811   7.981  10.186 -3.2749 -3.8170 -0.9456
  588MOL0     H79373   4.888   7.853  10.277  0.0185 -1.6019 -2.7013
  588MOL0     H79374   5.020   7.778  10.090  0.8935  0.2486 -3.4700
  588MOL0     H79375   4.954   7.917   9.992  0.9724  0.2567 -0.8386
  588MOL0     H79376   4.732   7.847  10.033 -1.4893 -0.3962  1.5155
  588MOL0     H79377   4.774   7.704  10.126 -1.8653  1.5036  0.4312
  588MOL0     H79378   4.817   7.550   9.747 -1.5189  0.2920 -0.0164
  588MOL0     H79379   5.083   8.255  10.353 -2.6425 -3.8648 -0.4033
  588MOL0     H79380   5.233   8.396  10.480 -1.0021 -0.3454 -0.8185
  589MOL0     O79381   0.277   8.401   6.331 -0.3484  0.2479 -0.4752
  589MOL0     C79382   0.290   8.515   6.378 -0.8016  1.1016  0.6702
  589MOL0     O79383   0.400   8.572   6.440  0.4858  0.2545  0.0492
  589MOL0     C79384   0.512   8.490   6.457  0.2139  0.6763  0.2524
  589MOL0     C79385   0.606   8.461   6.354 -0.3535 -0.1220  0.3227
  589MOL0     C79386   0.723   8.396   6.387 -0.0573  0.5954  0.4343
  589MOL0     C79387   0.749   8.329   6.511 -0.0652 -1.1622 -0.3298
  589MOL0     O79388   0.855   8.246   6.534  0.5179 -0.6754  0.4517
  589MOL0     C79389   0.896   8.161   6.423 -0.3135 -0.5471  1.3844
  589MOL0     C79390   0.888   8.013   6.467 -0.1218  0.0664  0.6439
  589MOL0     C79391   0.752   7.975   6.533 -0.0577  0.0732 -0.7009
  589MOL0     C79392   0.725   7.820   6.552  0.5246  0.3590 -0.6647
  589MOL0     C79393   0.608   7.799   6.652  0.5940  0.1139  1.1683
  589MOL0     C79394   0.631   7.842   6.799  0.3527  0.2841 -0.0908
  589MOL0     C79395   0.712   7.735   6.884 -1.1994  1.1769 -0.0217
  589MOL0     C79396   0.817   7.799   6.982  0.0681 -0.0166  0.0842
  589MOL0     N79397   0.937   7.878   6.931 -0.4038 -0.2766 -0.3972
  589MOL0     C79398   0.939   8.002   6.875  0.5590  0.1609  0.3584
  589MOL0     C79399   1.069   8.034   6.881 -0.3295 -0.1813  0.1690
  589MOL0     C79400   1.120   8.172   6.856  0.6724  0.2676 -0.8097
  589MOL0     C79401   1.013   8.279   6.906 -0.2839 -0.4372  0.5614
  589MOL0     C79402   0.979   8.286   7.048 -0.0874  0.1086 -0.5303
  589MOL0     C79403   0.880   8.399   7.084  0.6904 -0.9540 -0.4668
  589MOL0     O79404   0.757   8.381   7.008 -0.1047  0.1732 -0.2387
  589MOL0     C79405   0.678   8.281   7.045 -0.3653 -0.0821 -0.8419
  589MOL0     C79406   0.565   8.250   6.968 -0.5017  0.9247 -0.1845
  589MOL0     C79407   0.477   8.147   6.973  0.6630  0.3219 -0.8739
  589MOL0     C79408   0.370   8.140   6.871  0.4481 -0.7077 -0.2065
  589MOL0     C79409   0.489   8.075   7.093 -0.2512  0.8299 -0.1127
  589MOL0     C79410   0.411   7.958   7.127  0.4989  0.3881 -0.5346
  589MOL0     O79411   0.471   7.837   7.145  0.1635  0.4222 -0.4234
  589MOL0     C79412   0.389   7.726   7.160  0.5139 -0.2725  0.7421
  589MOL0     C79413   0.354   7.653   7.048  0.0321  0.1696 -0.4082
  589MOL0     C79414   0.249   7.554   7.054 -1.0111  0.3804  0.7632
  589MOL0     C79415   0.192   7.507   7.175 -0.8167  0.8359 -0.3176
  589MOL0     O79416   0.112   7.401   7.185 -0.1500 -0.0338  0.2326
  589MOL0     C79417   0.122   7.307   7.295  0.0877 -0.0700 -0.1843
  589MOL0     C79418   0.090   7.168   7.232  1.1906  0.1042 -0.3201
  589MOL0     C79419   0.059   7.067   7.338  0.4418  0.2422  0.6211
  589MOL0     C79420   0.039   6.929   7.270 -0.3665  0.0452 -0.5790
  589MOL0     C79421   0.000   6.822   7.372 -0.0220  0.8026 -0.8466
  589MOL0     C79422   0.009   6.685   7.304 -1.3574 -0.6842 -0.0462
  589MOL0     C79423  -0.041   6.556   7.376  0.0980  0.0986 -0.0693
  589MOL0     C79424   0.063   6.513   7.482  0.5041  1.5364 -0.1025
  589MOL0    Cl79425   0.080   6.617   7.629  0.2488  0.0872 -0.3971
  589MOL0     C79426   0.231   7.585   7.290 -0.3696 -0.7513 -0.0620
  589MOL0     C79427   0.328   7.691   7.283 -0.6047 -0.1677  0.1338
  589MOL0     O79428   0.292   7.984   7.138 -0.1631 -0.6489 -0.4114
  589MOL0     C79429   0.599   8.101   7.183  0.1934 -0.6496  0.5425
  589MOL0     C79430   0.690   8.215   7.159  0.4986  0.2881  0.5902
  589MOL0     N79431   1.146   7.922   6.938  0.4935 -0.6164  0.1535
  589MOL0     N79432   1.063   7.836   6.971  0.1095 -0.4302  0.3789
  589MOL0     C79433   0.658   8.374   6.612  0.0254  0.2986  0.3632
  589MOL0     C79434   0.535   8.442   6.594 -0.3271 -0.3111  0.7049
  589MOL0     C79435   0.177   8.603   6.350  0.3276  0.9601 -0.0516
  589MOL0     C79436   0.185   8.736   6.318  0.1094  0.2647  0.2153
  589MOL0     C79437   0.071   8.817   6.300 -1.0539  0.2210  0.9070
  589MOL0     C79438  -0.058   8.761   6.302 -1.5806  0.4433  0.3770
  589MOL0     O79439  -0.182   8.829   6.282 -0.2295 -0.3250 -0.2905
  589MOL0     C79440  -0.193   8.963   6.346  0.4642 -0.5010  0.7802
  589MOL0     C79441  -0.203   8.949   6.496  0.3164  0.8189  0.0724
  589MOL0     C79442  -0.291   9.073   6.552 -1.2554  0.8904  0.4992
  589MOL0     C79443  -0.434   9.095   6.503 -0.2601 -0.2053  0.4549
  589MOL0     C79444  -0.514   8.983   6.535 -0.4361  0.8284  0.3009
  589MOL0     C79445  -0.589   8.897   6.566  0.1927 -0.4431 -1.0982
  589MOL0     C79446  -0.064   8.620   6.330  0.8121 -0.5242 -0.2687
  589MOL0     C79447   0.051   8.548   6.365  0.3902 -0.8306 -0.2548
  589MOL0     H79448   0.585   8.514   6.261 -1.5058  1.3742  1.3830
  589MOL0     H79449   0.800   8.389   6.310 -1.0725  4.1846 -1.1147
  589MOL0     H79450   0.835   8.176   6.333 -0.1180 -0.7403  1.2201
  589MOL0     H79451   0.996   8.178   6.383 -0.5826 -2.7466 -0.4152
  589MOL0     H79452   0.903   7.940   6.387  1.2562 -0.1545  1.0643
  589MOL0     H79453   0.966   7.990   6.541 -1.2625 -1.9145  1.2992
  589MOL0     H79454   0.746   8.029   6.628  0.4585 -1.5416  0.2927
  589MOL0     H79455   0.668   8.013   6.474 -0.8137  1.3202  1.0667
  589MOL0     H79456   0.710   7.783   6.450  0.1158  1.3595 -0.9821
  589MOL0     H79457   0.804   7.755   6.590 -0.8287 -1.0974 -0.2060
  589MOL0     H79458   0.522   7.855   6.613  1.2154  1.5233  1.7394
  589MOL0     H79459   0.572   7.696   6.649 -0.8351  0.6186 -0.2857
  589MOL0     H79460   0.680   7.939   6.808  5.8710 -2.0136 -1.3449
  589MOL0     H79461   0.527   7.850   6.833  0.6125 -0.7832  1.0232
  589MOL0     H79462   0.635   7.685   6.942  0.1834 -1.4365 -0.3034
  589MOL0     H79463   0.766   7.665   6.819 -0.7470  1.3436  0.1650
  589MOL0     H79464   0.854   7.721   7.049 -1.2230  0.9396  1.9760
  589MOL0     H79465   0.766   7.860   7.056  0.0964 -1.7925  1.6615
  589MOL0     H79466   0.857   8.072   6.860  0.4112 -0.0631  0.1017
  589MOL0     H79467   1.223   8.183   6.891  1.3344  1.7206 -3.0209
  589MOL0     H79468   1.132   8.183   6.748  1.8607 -2.5275 -1.0473
  589MOL0     H79469   0.917   8.282   6.855 -2.1715  2.1806  3.8502
  589MOL0     H79470   1.065   8.372   6.882 -0.3463 -0.3883  0.6164
  589MOL0     H79471   1.067   8.299   7.112  1.5591  0.8050 -2.7880
  589MOL0     H79472   0.941   8.187   7.074 -3.5705  1.1440 -1.1139
  589MOL0     H79473   0.932   8.490   7.053  0.0803 -0.2301  0.5567
  589MOL0     H79474   0.850   8.413   7.188  1.2035 -3.1511  0.0157
  589MOL0     H79475   0.545   8.327   6.893  0.5691 -1.4191 -3.0960
  589MOL0     H79476   0.387   8.203   6.784  0.0890  0.4372  0.5252
  589MOL0     H79477   0.365   8.040   6.827  1.0776 -0.5068 -0.7522
  589MOL0     H79478   0.274   8.177   6.908  1.0338 -0.1634  0.8189
  589MOL0     H79479   0.397   7.666   6.949 -0.1393  2.6316 -0.2324
  589MOL0     H79480   0.237   7.486   6.970  1.3655  1.0107 -0.1876
  589MOL0     H79481   0.216   7.304   7.351  1.3278 -0.7340 -2.2169
  589MOL0     H79482   0.040   7.329   7.364  1.9101 -1.5424  2.6653
  589MOL0     H79483   0.003   7.180   7.167  0.9994 -0.3769 -0.1594
  589MOL0     H79484   0.166   7.127   7.164  2.2933 -0.5157  1.2188
  589MOL0     H79485  -0.022   7.104   7.401 -2.3757 -0.9738 -2.0639
  589MOL0     H79486   0.151   7.058   7.397  0.2351  0.2620  0.9496
  589MOL0     H79487  -0.030   6.937   7.185  0.1233 -0.0793 -0.9937
  589MOL0     H79488   0.125   6.888   7.217  2.6177  0.8400  3.1463
  589MOL0     H79489  -0.097   6.838   7.420  1.2681 -0.0269  2.2565
  589MOL0     H79490   0.079   6.835   7.447 -0.6866  0.5067 -0.0830
  589MOL0     H79491  -0.054   6.684   7.215 -0.4331 -2.6186 -0.7534
  589MOL0     H79492   0.114   6.670   7.275 -0.9799  1.2778  0.1582
  589MOL0     H79493  -0.072   6.478   7.306 -1.4376  1.2940 -0.7911
  589MOL0     H79494  -0.130   6.575   7.438 -1.6337 -0.1183 -2.3419
  589MOL0     H79495   0.164   6.512   7.441  0.7013 -0.4258  0.3256
  589MOL0     H79496   0.037   6.412   7.515  0.3999  1.9545  1.1579
  589MOL0     H79497   0.204   7.559   7.392  0.8445  0.1161  0.5019
  589MOL0     H79498   0.356   7.750   7.369 -0.7992 -0.0254  0.1007
  589MOL0     H79499   0.619   8.061   7.282 -0.6131 -0.2887  0.8616
  589MOL0     H79500   0.766   8.232   7.235 -0.9810 -0.6051  2.3304
  589MOL0     H79501   0.695   8.342   6.709  2.5708 -3.4007 -1.5890
  589MOL0     H79502   0.475   8.471   6.680  1.1195 -2.4989  2.5791
  589MOL0     H79503   0.282   8.784   6.316 -1.2760  3.3948 -2.6705
  589MOL0     H79504   0.098   8.919   6.278  0.5127 -0.5653 -1.1670
  589MOL0     H79505  -0.111   9.030   6.320 -0.6285  1.4856  2.2111
  589MOL0     H79506  -0.280   9.013   6.302 -0.3165 -2.2297  0.2688
  589MOL0     H79507  -0.106   8.962   6.543  0.6316  0.1271 -0.3756
  589MOL0     H79508  -0.245   8.851   6.524 -2.0794  0.5744 -3.6571
  589MOL0     H79509  -0.238   9.166   6.530  4.0590 -0.7433  4.4045
  589MOL0     H79510  -0.280   9.059   6.660 -0.6430 -2.5652  0.0978
  589MOL0     H79511  -0.450   9.118   6.398 -0.4205 -0.8818  0.3269
  589MOL0     H79512  -0.459   9.188   6.555  1.1496  0.2376  0.3720
  589MOL0     H79513  -0.668   8.827   6.586 -0.1223  0.2276  0.1588
  589MOL0     H79514  -0.165   8.578   6.335  1.5839 -2.7429 -1.6217
  589MOL0     H79515   0.038   8.446   6.400 -1.9578 -0.2241  0.8500
  590MOL0     O79516   3.866   1.890   8.832 -0.0708 -0.3001 -0.8084
  590MOL0     C79517   3.760   1.918   8.891  0.3859  0.3901  0.1063
  590MOL0     O79518   3.676   1.832   8.950  0.2895  0.0968 -0.5836
  590MOL0     C79519   3.696   1.699   8.938 -0.3262 -0.5614 -0.2402
  590MOL0     C79520   3.704   1.651   8.800  0.8252  1.1791  0.5444
  590MOL0     C79521   3.755   1.523   8.786  0.0346  1.0636  0.3030
  590MOL0     C79522   3.781   1.440   8.890 -0.2759  0.2369 -0.6687
  590MOL0     O79523   3.839   1.314   8.868  0.3578 -0.9918  0.9226
  590MOL0     C79524   3.868   1.219   8.972  0.0519 -0.2635 -0.4751
  590MOL0     C79525   3.946   1.098   8.920  0.4142 -0.5521  0.0902
  590MOL0     C79526   3.931   0.981   9.016 -0.1029  0.7676 -0.4687
  590MOL0     C79527   3.999   0.861   8.947 -0.3881  0.1230 -0.2272
  590MOL0     C79528   3.984   0.733   9.043 -0.3083  0.3740 -0.7901
  590MOL0     C79529   4.068   0.607   9.009 -0.0458  0.1500  0.1624
  590MOL0     C79530   4.032   0.479   9.090  0.3274  0.8223 -0.0220
  590MOL0     C79531   4.119   0.355   9.058 -0.6561  0.1800  0.1967
  590MOL0     N79532   4.099   0.252   9.156 -0.2544 -0.0303  0.0384
  590MOL0     C79533   4.154   0.257   9.277 -0.8118  0.0512 -0.7446
  590MOL0     C79534   4.132   0.129   9.320  0.5151 -0.9606  0.1781
  590MOL0     C79535   4.184   0.072   9.451  0.9404 -0.4178  0.0929
  590MOL0     C79536   4.077   0.021   9.553 -0.3488  0.6885  0.6955
  590MOL0     C79537   4.135  -0.030   9.689  1.1821  0.4169  0.4280
  590MOL0     C79538   4.013  -0.085   9.758 -0.6118  0.6980  0.9825
  590MOL0     O79539   3.907   0.011   9.756  0.0315 -0.1126 -0.5463
  590MOL0     C79540   3.781  -0.033   9.793 -0.4042 -0.6274 -0.3067
  590MOL0     C79541   3.756  -0.156   9.839 -0.0287  0.1332 -0.5715
  590MOL0     C79542   3.627  -0.205   9.878  0.1716 -0.0718  0.5353
  590MOL0     C79543   3.616  -0.349   9.914 -0.1770  0.7179  1.0364
  590MOL0     C79544   3.518  -0.115   9.878  0.0487  0.5253 -0.7685
  590MOL0     C79545   3.391  -0.142   9.937 -1.1360  0.3136  0.4908
  590MOL0     O79546   3.376  -0.121  10.076 -0.9582  0.3499 -0.0910
  590MOL0     C79547   3.249  -0.086  10.123  0.6117 -0.0993  0.0527
  590MOL0     C79548   3.120  -0.121  10.074 -0.6053 -1.5129  0.5312
  590MOL0     C79549   3.002  -0.078  10.142  1.0010  0.2216 -0.0542
  590MOL0     C79550   2.994  -0.000  10.253 -0.7499 -0.4711  0.0155
  590MOL0     O79551   2.876   0.047  10.317  0.0205 -0.3362 -0.1286
  590MOL0     C79552   2.884   0.162  10.404  0.0236  0.8282 -0.1244
  590MOL0     C79553   2.740   0.217  10.432  1.4540 -0.0125  0.1174
  590MOL0     C79554   2.706   0.317  10.544 -0.2752  0.8786  0.6361
  590MOL0     C79555   2.788   0.276  10.681 -0.6679  0.4977 -0.3830
  590MOL0     C79556   2.730   0.316  10.816  0.1614 -0.2077  0.3665
  590MOL0     C79557   2.791   0.444  10.868  0.3570 -0.4945  0.7436
  590MOL0     C79558   2.729   0.563  10.790 -0.1286 -0.3306 -0.7280
  590MOL0     C79559   2.762   0.706  10.842  0.0349  0.2405 -0.1006
  590MOL0    Cl79560   2.765   0.720  11.028  0.0988  0.2363  0.3881
  590MOL0     C79561   3.132   0.033  10.301  0.3035  0.4092 -0.5367
  590MOL0     C79562   3.251  -0.019  10.237  0.2510  0.2759 -0.1464
  590MOL0     O79563   3.300  -0.168   9.857 -0.8380 -0.3174 -0.0577
  590MOL0     C79564   3.535   0.013   9.820 -1.0892  1.0181  0.1478
  590MOL0     C79565   3.668   0.051   9.771  0.5115  0.2271 -0.7616
  590MOL0     N79566   4.079   0.049   9.221 -0.3232 -0.1638 -0.0420
  590MOL0     N79567   4.059   0.132   9.126  0.7514  0.0507 -0.0528
  590MOL0     C79568   3.777   1.494   9.023 -0.1077 -0.5395 -0.6460
  590MOL0     C79569   3.727   1.622   9.053 -0.6208 -0.0515  1.1523
  590MOL0     C79570   3.737   2.054   8.925  0.1570  0.3016  0.6957
  590MOL0     C79571   3.810   2.148   8.845  0.0741  0.6102 -0.9972
  590MOL0     C79572   3.795   2.282   8.866  0.0627  0.0065 -0.0008
  590MOL0     C79573   3.703   2.327   8.960 -0.7083 -0.4021 -0.4783
  590MOL0     O79574   3.684   2.461   8.974  0.6347  0.3354 -0.0773
  590MOL0     C79575   3.634   2.511   8.848 -0.1053 -0.0137 -0.7813
  590MOL0     C79576   3.658   2.666   8.838  0.8285 -0.5430 -0.1233
  590MOL0     C79577   3.643   2.711   8.694  0.0402  1.0600 -0.6109
  590MOL0     C79578   3.758   2.673   8.592 -0.5999  1.8688  0.5157
  590MOL0     C79579   3.887   2.744   8.614 -0.3894  0.9120 -0.0200
  590MOL0     C79580   3.991   2.805   8.629 -0.0617  0.1843 -0.1821
  590MOL0     C79581   3.622   2.233   9.024 -0.2238  0.7099 -0.1920
  590MOL0     C79582   3.646   2.101   9.016  0.3988 -0.5620 -0.3899
  590MOL0     H79583   3.655   1.704   8.719 -2.7839 -2.7033 -0.1475
  590MOL0     H79584   3.766   1.493   8.682 -0.7065  0.0102  0.5183
  590MOL0     H79585   3.918   1.264   9.057  2.2628 -2.9813 -0.1968
  590MOL0     H79586   3.766   1.194   9.004  0.4434 -4.2149 -1.6804
  590MOL0     H79587   3.918   1.071   8.818  1.8934 -0.1455 -0.4557
  590MOL0     H79588   4.054   1.117   8.912  0.2911 -0.5782 -2.2362
  590MOL0     H79589   3.969   0.990   9.118 -0.1059 -0.6509 -0.3127
  590MOL0     H79590   3.824   0.958   9.014  0.4609 -2.3664 -0.6977
  590MOL0     H79591   3.954   0.840   8.850 -0.9758 -3.0274  0.6137
  590MOL0     H79592   4.106   0.880   8.943  0.5000 -1.7471  5.3595
  590MOL0     H79593   4.021   0.767   9.140  0.6467  1.5269 -1.5188
  590MOL0     H79594   3.880   0.700   9.046  0.0700 -0.8935 -1.0324
  590MOL0     H79595   4.049   0.579   8.905  0.1097 -1.6489  0.5897
  590MOL0     H79596   4.170   0.640   9.033  0.6040 -1.7063  0.0923
  590MOL0     H79597   4.029   0.494   9.198  0.8889  0.9690 -0.0244
  590MOL0     H79598   3.929   0.446   9.074  0.2548  0.7501  0.5575
  590MOL0     H79599   4.225   0.381   9.052  0.1193 -2.9680 -2.6091
  590MOL0     H79600   4.097   0.318   8.958 -1.8179  0.2734  0.4073
  590MOL0     H79601   4.205   0.345   9.316 -1.8550  0.0997  0.5828
  590MOL0     H79602   4.250  -0.012   9.428  0.5114 -0.2717 -1.8728
  590MOL0     H79603   4.244   0.144   9.508  2.7324 -2.1123  0.4627
  590MOL0     H79604   4.026  -0.062   9.503  3.0703 -0.5760 -1.0154
  590MOL0     H79605   4.004   0.096   9.583 -0.7518  0.4627  0.2815
  590MOL0     H79606   4.167   0.055   9.750 -2.4479  1.4435  1.1587
  590MOL0     H79607   4.206  -0.111   9.672  0.0142 -0.3309 -1.2105
  590MOL0     H79608   4.037  -0.108   9.862  2.1118  2.2229  0.7555
  590MOL0     H79609   3.977  -0.173   9.703 -0.5113  1.3931 -0.2466
  590MOL0     H79610   3.832  -0.234   9.837  2.2899  2.1895 -4.0823
  590MOL0     H79611   3.712  -0.395   9.940  0.4253  2.1231  1.3559
  590MOL0     H79612   3.543  -0.374   9.991  1.0229  3.7465  3.3928
  590MOL0     H79613   3.595  -0.408   9.824  2.5504 -0.4684  1.0530
  590MOL0     H79614   3.113  -0.180   9.984  1.1376 -0.0648 -0.6225
  590MOL0     H79615   2.906  -0.123  10.118  0.3448  1.0031  1.0279
  590MOL0     H79616   2.916   0.138  10.505 -2.0694  1.8925  0.8513
  590MOL0     H79617   2.939   0.236  10.345 -0.2407 -0.3866 -1.9919
  590MOL0     H79618   2.697   0.256  10.339  1.1138 -2.4878 -0.8406
  590MOL0     H79619   2.682   0.126  10.450 -0.4887 -0.0809 -4.9299
  590MOL0     H79620   2.601   0.324  10.573 -1.0839 -1.0646 -1.4768
  590MOL0     H79621   2.737   0.417  10.514 -1.0928  0.3084 -2.4051
  590MOL0     H79622   2.792   0.167  10.685 -1.5441  0.4882  1.0597
  590MOL0     H79623   2.887   0.323  10.678  0.9900 -2.7208 -0.3506
  590MOL0     H79624   2.742   0.233  10.887 -0.9845  0.1352  1.0055
  590MOL0     H79625   2.620   0.316  10.812  0.1248 -2.1485  0.4921
  590MOL0     H79626   2.753   0.457  10.970 -3.6281 -0.4825 -0.5899
  590MOL0     H79627   2.899   0.460  10.858  0.3640 -0.9858 -0.0285
  590MOL0     H79628   2.621   0.551  10.790 -0.1893  0.1893 -0.2932
  590MOL0     H79629   2.772   0.562  10.689 -2.4210  2.3776 -1.8498
  590MOL0     H79630   2.697   0.782  10.799  1.6143  0.2437 -2.7220
  590MOL0     H79631   2.866   0.731  10.817  0.2081 -1.7134 -1.5610
  590MOL0     H79632   3.148   0.079  10.399 -1.6296 -0.1470  0.0846
  590MOL0     H79633   3.347  -0.011  10.287  0.7959 -0.6002 -1.0130
  590MOL0     H79634   3.448   0.077   9.811 -3.9037 -2.2085  2.1099
  590MOL0     H79635   3.695   0.141   9.716 -2.7265  0.3817 -2.3271
  590MOL0     H79636   3.820   1.436   9.103 -3.4732 -2.8608 -0.3132
  590MOL0     H79637   3.711   1.667   9.151 -0.8659 -0.6625  1.3947
  590MOL0     H79638   3.861   2.113   8.755  0.3405  0.3298 -0.7373
  590MOL0     H79639   3.856   2.346   8.803  2.4848 -1.7070  0.4713
  590MOL0     H79640   3.673   2.458   8.761 -0.7304 -1.7708 -0.0193
  590MOL0     H79641   3.525   2.499   8.859  0.1982 -1.1891  1.4369
  590MOL0     H79642   3.762   2.674   8.868  0.4223 -1.1891  1.5987
  590MOL0     H79643   3.596   2.730   8.901 -0.4876 -0.4108 -1.4863
  590MOL0     H79644   3.640   2.819   8.708  0.5777  0.6994  3.3783
  590MOL0     H79645   3.543   2.682   8.659 -2.1830  2.7950  3.5970
  590MOL0     H79646   3.721   2.693   8.491  2.5842  0.0138 -1.2033
  590MOL0     H79647   3.785   2.567   8.590  3.9360  2.7849 -2.0236
  590MOL0     H79648   4.087   2.851   8.640  0.6347 -1.0890 -0.6286
  590MOL0     H79649   3.533   2.256   9.080  0.9937 -0.7147  2.4996
  590MOL0     H79650   3.588   2.035   9.080 -1.4962  2.3699  1.1216
  591MOL0     O79651   6.060  10.985   4.614 -0.9577  0.3819  0.2767
  591MOL0     C79652   6.017  11.096   4.583  1.6252 -0.8058 -0.1016
  591MOL0     O79653   6.033  11.168   4.460 -0.3761  0.9749 -0.8345
  591MOL0     C79654   6.123  11.122   4.369 -0.5778 -0.4089  0.5631
  591MOL0     C79655   6.130  10.992   4.320  0.3152 -0.5346  0.0292
  591MOL0     C79656   6.230  10.973   4.216 -0.1878  0.3390 -0.3712
  591MOL0     C79657   6.295  11.078   4.154 -0.4098 -0.6409  0.0185
  591MOL0     O79658   6.369  11.058   4.044  0.2415  0.0119 -0.7727
  591MOL0     C79659   6.492  10.989   4.076  0.2524  0.1236 -0.0127
  591MOL0     C79660   6.605  11.088   4.077  0.3175  0.5642 -0.4992
  591MOL0     C79661   6.671  11.132   3.950 -0.0993 -0.3051 -0.1638
  591MOL0     C79662   6.778  11.025   3.901  0.4140  0.2082  0.2136
  591MOL0     C79663   6.791  11.001   3.752  0.2339  0.6216 -0.0837
  591MOL0     C79664   6.945  11.024   3.713 -0.8707  0.2810 -0.6074
  591MOL0     C79665   6.968  11.043   3.559 -0.1845  1.0624 -0.6324
  591MOL0     C79666   7.111  11.069   3.513  0.5333 -0.6415  0.3929
  591MOL0     N79667   7.129  11.076   3.367  0.4312  0.2321  0.6597
  591MOL0     C79668   7.072  10.984   3.278 -0.2810  0.8747  0.5636
  591MOL0     C79669   7.130  11.016   3.162 -0.4844 -0.2443  0.3195
  591MOL0     C79670   7.114  10.942   3.033 -1.0061  0.2265  0.3749
  591MOL0     C79671   7.227  10.838   3.008  0.1174 -0.0728 -0.1124
  591MOL0     C79672   7.183  10.754   2.887  0.3350  0.7689 -0.3799
  591MOL0     C79673   7.085  10.643   2.926 -0.2464 -1.0080  0.4131
  591MOL0     O79674   7.034  10.573   2.814 -0.1265 -0.2465 -0.4943
  591MOL0     C79675   7.119  10.481   2.749  0.8928 -0.1067 -0.1693
  591MOL0     C79676   7.238  10.429   2.791  0.1044 -0.2542 -0.1999
  591MOL0     C79677   7.303  10.334   2.716 -0.7164 -0.2715  0.0884
  591MOL0     C79678   7.428  10.263   2.770  1.2787 -0.8555 -0.0286
  591MOL0     C79679   7.244  10.276   2.597  0.3573  0.9718  1.4202
  591MOL0     C79680   7.307  10.169   2.516 -0.7443 -0.5398  0.4386
  591MOL0     O79681   7.222  10.104   2.429  0.1326  0.5547  0.2801
  591MOL0     C79682   7.284  10.000   2.358  0.9347 -0.2033  0.1010
  591MOL0     C79683   7.282   9.869   2.403  0.1013  0.2645 -0.7393
  591MOL0     C79684   7.339   9.761   2.323  0.6378 -0.2360 -0.2693
  591MOL0     C79685   7.406   9.794   2.214  0.0687  0.5112 -0.5577
  591MOL0     O79686   7.466   9.697   2.144 -0.1383 -0.2728 -0.0546
  591MOL0     C79687   7.414   9.689   2.005  0.3576 -0.3230 -0.0261
  591MOL0     C79688   7.327   9.564   1.992 -0.2488  0.3812 -0.1259
  591MOL0     C79689   7.196   9.573   2.071 -0.0560  0.3023  0.1434
  591MOL0     C79690   7.103   9.453   2.057 -0.6186  0.0033  0.3507
  591MOL0     C79691   7.151   9.332   2.145 -0.5496  0.4251  0.2222
  591MOL0     C79692   7.103   9.354   2.283  0.2908 -0.3193 -0.6313
  591MOL0     C79693   7.210   9.374   2.387 -0.0682  0.2622 -0.0988
  591MOL0     C79694   7.148   9.431   2.525 -0.4206 -0.1762  0.2184
  591MOL0    Cl79695   7.058   9.582   2.496 -0.2688 -0.3727 -0.2427
  591MOL0     C79696   7.410   9.927   2.170  0.3243  0.8737  0.3259
  591MOL0     C79697   7.343  10.026   2.234 -0.5780  0.5511  0.3991
  591MOL0     O79698   7.422  10.131   2.535 -0.5855 -0.1712  0.3492
  591MOL0     C79699   7.131  10.341   2.550 -0.6076 -0.2534  0.2867
  591MOL0     C79700   7.072  10.439   2.619 -0.2857  0.1850  0.1761
  591MOL0     N79701   7.206  11.132   3.181 -0.3076 -0.1182 -0.1288
  591MOL0     N79702   7.191  11.170   3.305 -0.4139 -0.7320 -0.0242
  591MOL0     C79703   6.276  11.205   4.208  0.1126 -0.2755 -0.3906
  591MOL0     C79704   6.186  11.224   4.310 -0.1630 -0.6539 -0.6372
  591MOL0     C79705   5.911  11.140   4.678 -0.1819 -0.4464  0.2956
  591MOL0     C79706   5.910  11.124   4.818  0.5235  0.6803 -0.4887
  591MOL0     C79707   5.810  11.173   4.910  0.1452  0.2336 -0.5441
  591MOL0     C79708   5.710  11.257   4.849  1.4605  0.7149 -0.0841
  591MOL0     O79709   5.603  11.314   4.930  0.0030 -0.5862 -0.1381
  591MOL0     C79710   5.552  11.264   5.055  0.0600 -0.3458  0.0212
  591MOL0     C79711   5.550  11.380   5.155 -0.0702  0.4823 -0.6898
  591MOL0     C79712   5.435  11.477   5.130 -0.9772  0.8733  0.5149
  591MOL0     C79713   5.471  11.621   5.170  0.0415  0.4292  0.5838
  591MOL0     C79714   5.537  11.642   5.296 -0.6858  0.0130  0.3356
  591MOL0     C79715   5.610  11.675   5.393  1.0147 -0.6482  0.0357
  591MOL0     C79716   5.707  11.276   4.709  0.0128  0.5384 -0.1886
  591MOL0     C79717   5.810  11.220   4.632 -0.1889  0.2258  0.7366
  591MOL0     H79718   6.069  10.912   4.361  2.1882 -1.2957  1.5122
  591MOL0     H79719   6.237  10.876   4.169 -1.8684  0.5446 -1.1197
  591MOL0     H79720   6.484  10.925   4.163 -2.3848  0.8907  0.3944
  591MOL0     H79721   6.509  10.913   3.999 -0.2338 -0.8444  0.8151
  591MOL0     H79722   6.560  11.171   4.133  2.3449  0.3638  1.5923
  591MOL0     H79723   6.680  11.049   4.146 -0.0779 -0.8932 -0.8613
  591MOL0     H79724   6.596  11.157   3.873  2.6130 -0.4358 -3.0717
  591MOL0     H79725   6.732  11.220   3.973 -0.5863 -0.0371  0.1204
  591MOL0     H79726   6.877  11.047   3.941  1.6401 -0.3757 -2.3146
  591MOL0     H79727   6.727  10.936   3.938 -0.2450 -0.5219 -2.2569
  591MOL0     H79728   6.744  10.906   3.726 -0.8184  0.2135  3.0335
  591MOL0     H79729   6.726  11.073   3.702  0.3160  3.2488  3.2398
  591MOL0     H79730   6.973  11.120   3.759 -1.8235  0.5915 -0.6532
  591MOL0     H79731   7.016  10.955   3.759 -2.0116  1.3287  3.1293
  591MOL0     H79732   6.924  10.963   3.499  0.7617  0.7327 -0.9008
  591MOL0     H79733   6.913  11.130   3.523  1.3242  3.1985  1.8723
  591MOL0     H79734   7.176  10.996   3.562 -1.2105 -1.8964  0.8901
  591MOL0     H79735   7.147  11.169   3.542 -1.7127  0.4412 -0.3242
  591MOL0     H79736   7.015  10.896   3.307  2.0806 -1.0516 -0.3284
  591MOL0     H79737   7.014  10.904   3.010 -0.1514 -1.4581 -0.7599
  591MOL0     H79738   7.138  11.020   2.960  1.6025  0.2385  1.1522
  591MOL0     H79739   7.237  10.770   3.093  0.6731  0.3530  0.1729
  591MOL0     H79740   7.324  10.882   2.983  0.7207 -0.8370  0.8227
  591MOL0     H79741   7.275  10.708   2.849  0.7892  2.7542 -1.8912
  591MOL0     H79742   7.131  10.817   2.813  0.5442  1.2655 -0.1129
  591MOL0     H79743   7.001  10.688   2.979  0.5917 -0.4142  1.2853
  591MOL0     H79744   7.132  10.577   3.000  0.7535  0.4944  1.1761
  591MOL0     H79745   7.287  10.480   2.874 -0.9609  1.7346 -0.7297
  591MOL0     H79746   7.459  10.322   2.857 -4.3554  2.3635  0.2596
  591MOL0     H79747   7.406  10.160   2.797 -3.7672 -0.4848 -1.6656
  591MOL0     H79748   7.519  10.268   2.709  1.2426 -3.7093 -0.4136
  591MOL0     H79749   7.232   9.840   2.494  1.4537 -2.1690 -0.6912
  591MOL0     H79750   7.338   9.663   2.371  1.4921 -0.7166 -1.1961
  591MOL0     H79751   7.367   9.784   1.978  4.6112  2.0368  0.1339
  591MOL0     H79752   7.505   9.683   1.946  0.3678  0.6932 -0.1386
  591MOL0     H79753   7.288   9.535   1.894 -2.6498  2.1785  0.2034
  591MOL0     H79754   7.377   9.473   2.026 -2.0536  0.8236  4.4161
  591MOL0     H79755   7.149   9.666   2.037  1.8635  1.3173  0.1240
  591MOL0     H79756   7.230   9.585   2.175  3.2524  3.1971 -1.0875
  591MOL0     H79757   7.002   9.489   2.078 -1.0130  0.8527 -2.5872
  591MOL0     H79758   7.093   9.413   1.955 -3.4296 -1.9844  1.2729
  591MOL0     H79759   7.254   9.297   2.149 -0.3694  0.9459  0.2391
  591MOL0     H79760   7.101   9.243   2.106  2.7551 -1.8982  0.8198
  591MOL0     H79761   7.033   9.437   2.273  3.2708  2.2935 -1.4891
  591MOL0     H79762   7.055   9.260   2.311  0.2656 -1.3104 -3.6344
  591MOL0     H79763   7.274   9.456   2.357  0.1616  1.4611  3.2252
  591MOL0     H79764   7.280   9.291   2.400  0.0724  0.4005  0.0446
  591MOL0     H79765   7.230   9.444   2.597 -1.1190 -0.5120  1.0866
  591MOL0     H79766   7.071   9.355   2.540 -2.3444  1.7732  0.7035
  591MOL0     H79767   7.463   9.953   2.079 -3.0391  0.0910 -2.0529
  591MOL0     H79768   7.329  10.111   2.168  1.8557 -1.2504 -2.7058
  591MOL0     H79769   7.085  10.302   2.460  1.4007  0.7473 -1.2719
  591MOL0     H79770   6.973  10.465   2.583 -1.0941 -0.3312  1.9245
  591MOL0     H79771   6.331  11.283   4.156  0.9141 -1.9891 -2.2646
  591MOL0     H79772   6.165  11.324   4.347  1.1130  0.4568 -2.7296
  591MOL0     H79773   5.982  11.053   4.857 -0.7912 -1.8431 -2.3097
  591MOL0     H79774   5.807  11.159   5.017 -1.0022  1.0415 -0.4531
  591MOL0     H79775   5.445  11.244   5.041  0.0019 -0.6656  0.8968
  591MOL0     H79776   5.602  11.180   5.104  0.1334 -0.4201 -0.1766
  591MOL0     H79777   5.638  11.445   5.154  0.2796  0.0594  0.5121
  591MOL0     H79778   5.529  11.342   5.256 -1.4248  2.1625 -0.2921
  591MOL0     H79779   5.343  11.443   5.180 -1.8926 -0.7081 -2.0376
  591MOL0     H79780   5.413  11.475   5.023  4.6802 -2.1158 -0.9731
  591MOL0     H79781   5.378  11.677   5.168 -1.3245 -1.7019  1.5689
  591MOL0     H79782   5.531  11.653   5.084  0.4509 -0.9422  0.3264
  591MOL0     H79783   5.661  11.711   5.479 -1.0357  3.1528 -0.1089
  591MOL0     H79784   5.625  11.325   4.657  1.2768  1.6593 -1.1953
  591MOL0     H79785   5.817  11.250   4.528 -2.5736 -1.5911 -0.0197
  592MOL0     O79786  10.267   9.753   5.532  0.1560  0.3204 -0.4839
  592MOL0     C79787  10.273   9.677   5.625  0.0803 -0.2934 -0.4593
  592MOL0     O79788  10.220   9.545   5.635  0.4322  0.7890 -0.8270
  592MOL0     C79789  10.126   9.507   5.543  0.1582 -0.7410 -0.4343
  592MOL0     C79790  10.027   9.418   5.590 -0.7237  0.2001 -0.5349
  592MOL0     C79791   9.922   9.371   5.505 -0.0535 -0.3709  0.7154
  592MOL0     C79792   9.920   9.419   5.375  0.0885  0.3524 -0.1369
  592MOL0     O79793   9.799   9.382   5.324  0.2580 -0.0071  1.2046
  592MOL0     C79794   9.769   9.396   5.180  0.1503 -0.1391  0.5142
  592MOL0     C79795   9.718   9.535   5.143  0.0541  0.0447 -1.1067
  592MOL0     C79796   9.613   9.588   5.236 -0.2819  0.6209  1.0608
  592MOL0     C79797   9.589   9.738   5.193  0.0638 -0.4827 -0.7690
  592MOL0     C79798   9.447   9.790   5.249 -0.3473 -0.6682  0.3816
  592MOL0     C79799   9.442   9.947   5.257  0.4450  0.4444 -0.1806
  592MOL0     C79800   9.352   9.990   5.374  0.4621  0.5861 -0.1615
  592MOL0     C79801   9.354  10.137   5.417 -1.4688 -0.1118 -0.4670
  592MOL0     N79802   9.222  10.195   5.415 -0.0886  0.3381  0.4860
  592MOL0     C79803   9.116  10.170   5.492  0.1209 -1.3122  0.1455
  592MOL0     C79804   9.015  10.239   5.442  0.3171 -1.0485 -0.2602
  592MOL0     C79805   8.893  10.263   5.521  0.1813  0.9254  0.2281
  592MOL0     C79806   8.801  10.142   5.524  0.3723  0.3660  0.3466
  592MOL0     C79807   8.716  10.126   5.636  0.2738 -0.8728  0.1584
  592MOL0     C79808   8.602  10.234   5.657 -0.4209 -0.0535  0.1887
  592MOL0     O79809   8.529  10.190   5.778  0.4839 -0.2141 -0.0367
  592MOL0     C79810   8.417  10.257   5.822  0.3682  0.3267 -0.1535
  592MOL0     C79811   8.369  10.235   5.940 -1.3146 -0.3670  0.2985
  592MOL0     C79812   8.268  10.307   5.990 -0.2312 -0.8346  0.3203
  592MOL0     C79813   8.232  10.274   6.139  0.2970  0.3505  0.5550
  592MOL0     C79814   8.188  10.394   5.903 -1.0769  0.6500 -0.0169
  592MOL0     C79815   8.052  10.438   5.941 -1.2722  0.1491  0.6167
  592MOL0     O79816   7.991  10.375   6.050 -0.0622  0.0719 -0.6445
  592MOL0     C79817   7.864  10.400   6.097 -0.1756 -0.4574 -0.9557
  592MOL0     C79818   7.847  10.347   6.229 -0.2744  0.2410  0.1541
  592MOL0     C79819   7.725  10.357   6.294 -1.2059  0.3230 -0.3268
  592MOL0     C79820   7.629  10.436   6.238  0.0795  0.5902  0.4255
  592MOL0     O79821   7.517  10.467   6.310  0.3915  0.0833 -0.0820
  592MOL0     C79822   7.404  10.407   6.244 -0.5920  0.2189  0.0023
  592MOL0     C79823   7.301  10.507   6.194  0.0630  0.0881  0.5560
  592MOL0     C79824   7.208  10.568   6.295  0.7616 -0.1800 -0.0035
  592MOL0     C79825   7.268  10.687   6.362  0.3211 -0.1675 -1.2922
  592MOL0     C79826   7.177  10.757   6.468  0.2126  0.2407 -0.5872
  592MOL0     C79827   7.146  10.673   6.592 -0.7897 -0.4203 -0.0676
  592MOL0     C79828   7.063  10.764   6.674  0.0434  0.0194  0.2157
  592MOL0     C79829   7.043  10.704   6.811 -0.3361 -0.2121  0.2603
  592MOL0    Cl79830   7.192  10.681   6.901 -0.6692  0.2755  0.6554
  592MOL0     C79831   7.648  10.494   6.112 -0.8288  0.1987 -0.1936
  592MOL0     C79832   7.764  10.477   6.038 -0.4105 -0.1149 -0.0886
  592MOL0     O79833   8.006  10.537   5.876  0.0146  0.0933 -0.2801
  592MOL0     C79834   8.236  10.424   5.776  0.3555 -0.5594  0.4920
  592MOL0     C79835   8.349  10.353   5.741 -0.5091  0.1601 -1.6409
  592MOL0     N79836   9.057  10.309   5.328  0.5868 -0.1259  0.1414
  592MOL0     N79837   9.184  10.285   5.316  0.2245 -0.2516 -0.2317
  592MOL0     C79838  10.013   9.505   5.327 -1.0112 -0.2471  0.6104
  592MOL0     C79839  10.118   9.543   5.406 -0.1945  0.0171 -0.4287
  592MOL0     C79840  10.335   9.708   5.759  0.4123  0.5461 -0.2394
  592MOL0     C79841  10.439   9.802   5.762  0.3120 -1.0893  0.1712
  592MOL0     C79842  10.486   9.845   5.886  0.2222 -0.8616 -0.5981
  592MOL0     C79843  10.427   9.806   6.010 -0.5762 -0.3766  0.8789
  592MOL0     O79844  10.450   9.849   6.143  0.0245  0.1141  0.1353
  592MOL0     C79845  10.531   9.966   6.143  0.4426  1.1532  0.5917
  592MOL0     C79846  10.463  10.097   6.090 -0.3834 -0.9577  0.1574
  592MOL0     C79847  10.572  10.208   6.071 -0.3121  0.5025  0.6552
  592MOL0     C79848  10.526  10.359   6.058 -0.5534 -0.4155  0.3333
  592MOL0     C79849  10.452  10.401   5.932 -0.1711 -0.7529  0.0369
  592MOL0     C79850  10.406  10.444   5.825  0.0668 -0.0270 -0.9523
  592MOL0     C79851  10.331   9.709   6.007  0.0235  0.6203  0.3361
  592MOL0     C79852  10.283   9.657   5.886  0.5206  0.1523  0.4439
  592MOL0     H79853  10.012   9.366   5.684 -2.7894  2.9615  0.8110
  592MOL0     H79854   9.848   9.297   5.533 -0.7404 -0.0581 -0.2298
  592MOL0     H79855   9.851   9.390   5.107 -0.2406  2.5999 -0.2724
  592MOL0     H79856   9.686   9.326   5.169 -0.5501  0.6415  0.7265
  592MOL0     H79857   9.801   9.606   5.142 -1.0193  1.3234 -1.5583
  592MOL0     H79858   9.671   9.540   5.044  3.4241  0.7517 -2.8054
  592MOL0     H79859   9.515   9.542   5.222 -0.8737  1.5495  2.0038
  592MOL0     H79860   9.628   9.586   5.345 -0.6039  0.3528  1.1007
  592MOL0     H79861   9.673   9.793   5.236  0.9061 -1.8503 -0.5847
  592MOL0     H79862   9.586   9.742   5.084 -1.9475  0.7940 -0.7161
  592MOL0     H79863   9.370   9.744   5.186 -2.1219 -0.0866  2.0430
  592MOL0     H79864   9.423   9.754   5.349 -3.9777  1.2936  0.3614
  592MOL0     H79865   9.537   9.989   5.292 -0.2288  0.9778  1.0498
  592MOL0     H79866   9.425   9.993   5.159  4.0169 -2.1974 -2.2948
  592MOL0     H79867   9.251   9.969   5.339 -0.4151  1.4351  1.7349
  592MOL0     H79868   9.356   9.913   5.451 -1.5693  0.6013 -0.0081
  592MOL0     H79869   9.412  10.196   5.345  0.7250 -0.1433  1.1735
  592MOL0     H79870   9.401  10.140   5.515 -2.5273 -0.4425  0.0725
  592MOL0     H79871   9.105  10.108   5.580 -1.3392 -1.4857 -0.1437
  592MOL0     H79872   8.925  10.310   5.615  4.3538 -0.9929 -0.0080
  592MOL0     H79873   8.852  10.351   5.471  1.8297  1.3139 -0.5405
  592MOL0     H79874   8.856  10.049   5.513 -0.3369 -0.3496  2.5023
  592MOL0     H79875   8.730  10.139   5.440  2.1580 -2.6239 -1.1890
  592MOL0     H79876   8.775  10.139   5.727  0.4392  2.6496 -0.3204
  592MOL0     H79877   8.679  10.023   5.629 -0.4508 -0.7219  1.4065
  592MOL0     H79878   8.534  10.239   5.571  0.0246 -2.3939 -0.3549
  592MOL0     H79879   8.650  10.332   5.670  2.6979 -1.0511 -2.4543
  592MOL0     H79880   8.426  10.165   6.000  0.7657  1.6890  0.8985
  592MOL0     H79881   8.147  10.205   6.141 -0.6013  1.1808 -2.8360
  592MOL0     H79882   8.308  10.217   6.193 -0.5748 -1.2261  0.1886
  592MOL0     H79883   8.217  10.361   6.203 -1.3267  0.1160  0.5555
  592MOL0     H79884   7.922  10.284   6.277 -1.2127 -0.1446  1.1327
  592MOL0     H79885   7.724  10.320   6.396  0.2754 -0.3467 -0.5328
  592MOL0     H79886   7.439  10.345   6.161 -1.0349 -3.5582  2.3926
  592MOL0     H79887   7.352  10.338   6.311 -4.0900  0.7933 -1.9252
  592MOL0     H79888   7.341  10.583   6.126  2.7368  1.4032  3.3866
  592MOL0     H79889   7.234  10.442   6.137 -0.5425 -0.3464  1.7470
  592MOL0     H79890   7.178  10.496   6.371 -2.8813 -0.3659 -1.4197
  592MOL0     H79891   7.121  10.612   6.246  1.2233 -1.4270 -2.0534
  592MOL0     H79892   7.362  10.657   6.410 -1.0026  0.3377  1.9192
  592MOL0     H79893   7.300  10.755   6.283  2.9544 -1.0902 -1.0989
  592MOL0     H79894   7.077  10.777   6.429 -0.7358  0.3820  1.7165
  592MOL0     H79895   7.235  10.846   6.493  2.6698 -0.9238 -1.7184
  592MOL0     H79896   7.090  10.583   6.565 -0.0607 -1.7127  2.3774
  592MOL0     H79897   7.236  10.642   6.647 -0.4478  1.1778  0.3108
  592MOL0     H79898   6.972  10.781   6.616 -0.9649 -0.6298  1.5630
  592MOL0     H79899   7.103  10.866   6.678  0.7883 -0.2309 -0.6564
  592MOL0     H79900   6.986  10.612   6.793 -2.4446  1.0269  0.2654
  592MOL0     H79901   6.976  10.763   6.873 -1.9434 -0.3350 -1.2757
  592MOL0     H79902   7.574  10.568   6.083 -2.2041 -0.0133  2.4522
  592MOL0     H79903   7.759  10.517   5.937 -2.5450 -2.2572 -0.9537
  592MOL0     H79904   8.173  10.490   5.717  1.1941 -0.4852 -0.3343
  592MOL0     H79905   8.388  10.365   5.640  0.5576  0.6912 -1.1752
  592MOL0     H79906  10.014   9.530   5.221  1.8677 -2.1343  0.0875
  592MOL0     H79907  10.200   9.602   5.364  0.4856  0.1214  1.0029
  592MOL0     H79908  10.486   9.836   5.670  4.8759 -1.7926  2.0009
  592MOL0     H79909  10.566   9.917   5.897 -1.5879  1.1046  0.3873
  592MOL0     H79910  10.571   9.994   6.242 -1.9635  0.5849  1.8050
  592MOL0     H79911  10.626   9.954   6.090  0.3387 -3.2205  1.0763
  592MOL0     H79912  10.395  10.132   6.168  2.6472  3.9135  1.0531
  592MOL0     H79913  10.416  10.080   5.993 -1.7233 -3.0842  1.0923
  592MOL0     H79914  10.632  10.187   5.982 -3.2747  0.4919 -1.5033
  592MOL0     H79915  10.645  10.219   6.152  2.3639  2.3617 -1.8259
  592MOL0     H79916  10.621  10.414   6.056 -1.7739  1.8087  0.6359
  592MOL0     H79917  10.475  10.388   6.151  0.4243  2.4871  0.0680
  592MOL0     H79918  10.368  10.499   5.741  1.1255 -0.4849 -1.7519
  592MOL0     H79919  10.281   9.678   6.098 -0.9378  2.2169  0.3903
  592MOL0     H79920  10.205   9.583   5.877  0.0457  0.4548  1.8670
  593MOL0     O79921   1.531   2.933   3.319 -0.3788  0.6912 -0.2686
  593MOL0     C79922   1.447   2.887   3.397 -0.3023 -1.3134 -0.3636
  593MOL0     O79923   1.473   2.837   3.516  0.6205 -0.2505 -0.9797
  593MOL0     C79924   1.602   2.814   3.554 -0.6922  0.0132 -0.0499
  593MOL0     C79925   1.701   2.909   3.567  0.4464  0.1102 -0.1498
  593MOL0     C79926   1.837   2.871   3.583 -0.4473 -0.0801  0.1744
  593MOL0     C79927   1.872   2.734   3.599  0.5813  0.2468  0.9978
  593MOL0     O79928   2.001   2.701   3.611  0.2718  0.9338  0.1131
  593MOL0     C79929   2.061   2.705   3.475  0.0965  0.4074  0.4525
  593MOL0     C79930   2.213   2.659   3.490  0.5359  0.0194 -1.4754
  593MOL0     C79931   2.291   2.772   3.562 -0.1447  0.2506  0.2537
  593MOL0     C79932   2.438   2.737   3.589 -1.0316  0.0316 -0.3010
  593MOL0     C79933   2.517   2.837   3.679  1.1991  0.9226 -0.3681
  593MOL0     C79934   2.663   2.791   3.687 -0.1218 -0.7928  0.1652
  593MOL0     C79935   2.761   2.867   3.771 -0.1507 -0.0141 -0.0001
  593MOL0     C79936   2.743   2.834   3.917 -0.4411  0.2139 -0.0436
  593MOL0     N79937   2.850   2.892   4.008 -0.6570 -0.4775 -0.2322
  593MOL0     C79938   2.911   3.021   3.989  0.0417  0.2364 -0.2049
  593MOL0     C79939   3.010   3.024   4.079 -0.0855 -0.5684  0.4762
  593MOL0     C79940   3.090   3.145   4.106  0.6256 -0.2411  0.2808
  593MOL0     C79941   3.201   3.162   4.002 -1.2393 -0.1762  0.3825
  593MOL0     C79942   3.303   3.269   4.049  0.2016 -0.2853  0.9820
  593MOL0     C79943   3.236   3.414   4.044 -0.5991  0.4639  0.3580
  593MOL0     O79944   3.296   3.496   3.946  0.1555  0.1774  0.2315
  593MOL0     C79945   3.280   3.631   3.951  0.3966  0.3057  0.5403
  593MOL0     C79946   3.354   3.712   3.861 -0.3641 -0.4805 -0.4551
  593MOL0     C79947   3.320   3.849   3.826 -0.6582 -0.1814  0.0709
  593MOL0     C79948   3.413   3.938   3.739 -0.1229  0.7989 -0.0183
  593MOL0     C79949   3.212   3.903   3.894 -0.0751  0.1723  0.5419
  593MOL0     C79950   3.151   4.028   3.859 -0.1841 -0.2368 -0.3022
  593MOL0     O79951   3.081   4.099   3.959  0.4321 -0.5964  0.7355
  593MOL0     C79952   3.025   4.213   3.917  0.1627 -1.0517  0.7475
  593MOL0     C79953   2.919   4.209   3.816  0.5377  0.9932 -0.3398
  593MOL0     C79954   2.857   4.326   3.779  0.6527  0.2939 -0.2270
  593MOL0     C79955   2.894   4.449   3.842  0.2019 -0.0802 -0.2786
  593MOL0     O79956   2.819   4.560   3.803 -0.1750  0.1948 -0.1744
  593MOL0     C79957   2.852   4.687   3.846 -0.4602  1.5689 -0.5718
  593MOL0     C79958   2.777   4.718   3.977 -0.4365  0.2912 -0.2360
  593MOL0     C79959   2.704   4.855   3.974 -0.0279 -0.7604  0.2344
  593MOL0     C79960   2.563   4.848   3.902 -0.3603  0.3590  0.8996
  593MOL0     C79961   2.459   4.762   3.980  0.6893 -0.7326  0.4157
  593MOL0     C79962   2.321   4.760   3.907  0.1962 -0.1498  0.3113
  593MOL0     C79963   2.234   4.887   3.935  0.0629 -0.7695  0.4586
  593MOL0     C79964   2.091   4.877   3.875 -1.5608 -0.0418 -0.9029
  593MOL0    Cl79965   2.088   4.861   3.703  0.3055  0.2539 -0.1322
  593MOL0     C79966   2.989   4.451   3.939 -0.8127  1.1576  0.0082
  593MOL0     C79967   3.055   4.330   3.977 -0.2724 -1.2160 -0.0657
  593MOL0     O79968   3.145   4.050   3.736 -0.0129 -0.6745 -0.6183
  593MOL0     C79969   3.158   3.834   4.005  0.9014  0.2753  0.9207
  593MOL0     C79970   3.186   3.708   4.027  1.1538  0.3198  0.2646
  593MOL0     N79971   3.011   2.904   4.144 -0.2719  0.6495 -0.6244
  593MOL0     N79972   2.933   2.820   4.100 -0.6134 -0.6014 -0.3900
  593MOL0     C79973   1.770   2.633   3.604  0.5529  1.0275  0.7282
  593MOL0     C79974   1.632   2.678   3.581 -0.1566  0.3511 -0.6834
  593MOL0     C79975   1.304   2.908   3.365  0.4583 -0.0424 -0.0294
  593MOL0     C79976   1.264   2.937   3.233  1.2429 -0.5440 -0.1545
  593MOL0     C79977   1.124   2.934   3.203 -0.9151 -0.6761 -0.3212
  593MOL0     C79978   1.032   2.898   3.303  1.0975  1.0144 -0.2409
  593MOL0     O79979   0.892   2.913   3.302  0.3213  0.8957  0.8448
  593MOL0     C79980   0.837   2.930   3.172 -0.3663 -0.3576  0.1846
  593MOL0     C79981   0.801   2.791   3.105 -0.0769 -0.1562 -0.0080
  593MOL0     C79982   0.672   2.740   3.168  0.6154  0.0924 -0.6266
  593MOL0     C79983   0.697   2.671   3.302 -0.6832  0.5358 -0.4811
  593MOL0     C79984   0.624   2.725   3.418  0.2350 -0.2430 -1.0415
  593MOL0     C79985   0.571   2.764   3.524 -0.5452  0.6531  0.0755
  593MOL0     C79986   1.070   2.877   3.429  0.1196  0.3962 -0.7926
  593MOL0     C79987   1.205   2.875   3.461  0.5762 -0.4195  1.7101
  593MOL0     H79988   1.671   3.013   3.563 -0.1634 -0.0676 -0.3652
  593MOL0     H79989   1.921   2.939   3.574 -0.0683 -0.5255  0.2764
  593MOL0     H79990   2.003   2.640   3.409 -0.6019  1.8329 -0.3989
  593MOL0     H79991   2.040   2.803   3.431 -1.7478  0.8155  2.0748
  593MOL0     H79992   2.224   2.560   3.536  0.1187  0.4476 -0.4373
  593MOL0     H79993   2.250   2.641   3.388  1.6098 -0.2296 -1.0619
  593MOL0     H79994   2.300   2.861   3.499  6.5325 -0.2434 -0.2928
  593MOL0     H79995   2.246   2.798   3.658 -1.0691 -1.0813  0.2114
  593MOL0     H79996   2.453   2.639   3.636  0.4501 -0.0529 -0.8921
  593MOL0     H79997   2.493   2.743   3.495 -0.2421  0.3880  0.1768
  593MOL0     H79998   2.513   2.939   3.640 -1.9933  1.5257  1.2011
  593MOL0     H79999   2.465   2.835   3.774 -0.8291  4.6416 -1.2024
  593MOL0     H80000   2.671   2.688   3.721  2.4563 -0.4707  0.7862
  593MOL0     H80001   2.708   2.798   3.587  0.0113 -2.2704  0.1100
  593MOL0     H80002   2.864   2.841   3.744 -0.4002 -0.3868 -0.5938
  593MOL0     H80003   2.755   2.976   3.761 -0.0515  0.0569  0.6667
  593MOL0     H80004   2.748   2.725   3.922 -0.5892  0.1450 -1.0471
  593MOL0     H80005   2.643   2.876   3.932 -0.9962  0.9788 -4.4022
  593MOL0     H80006   2.874   3.100   3.924  0.3323  2.7834  2.5074
  593MOL0     H80007   3.022   3.229   4.122 -2.8685 -3.2996  3.3741
  593MOL0     H80008   3.142   3.128   4.201  0.6453 -2.1971 -0.0267
  593MOL0     H80009   3.164   3.196   3.905  1.1927 -3.0845 -1.7882
  593MOL0     H80010   3.257   3.068   3.998  0.4255  0.5961  2.9007
  593MOL0     H80011   3.392   3.274   3.986 -0.7878 -1.1902 -0.5273
  593MOL0     H80012   3.317   3.242   4.154  0.5044  1.0605  1.3166
  593MOL0     H80013   3.225   3.459   4.143 -0.9144  0.7571  0.1911
  593MOL0     H80014   3.131   3.397   4.017 -0.8681  0.9796  1.0535
  593MOL0     H80015   3.437   3.669   3.806  0.5876  0.3926  0.2612
  593MOL0     H80016   3.510   3.890   3.747 -0.2607  0.2137 -1.5577
  593MOL0     H80017   3.385   3.936   3.634 -0.4575  1.2854  0.0572
  593MOL0     H80018   3.432   4.034   3.788  3.2309 -0.9723  2.5774
  593MOL0     H80019   2.881   4.114   3.782 -2.9093  1.0506  2.6742
  593MOL0     H80020   2.775   4.318   3.708 -1.5456 -2.4915  2.3468
  593MOL0     H80021   2.960   4.699   3.858  0.2674 -1.4887 -2.7740
  593MOL0     H80022   2.818   4.746   3.760  0.2331  0.5007 -1.6031
  593MOL0     H80023   2.715   4.632   4.003  2.2210 -1.1343  2.0157
  593MOL0     H80024   2.846   4.722   4.062  0.8196 -1.7290 -1.0674
  593MOL0     H80025   2.760   4.935   3.925 -1.5957 -0.0579 -0.5069
  593MOL0     H80026   2.675   4.898   4.070  1.5000  1.4105 -0.2039
  593MOL0     H80027   2.535   4.954   3.891  0.4804  0.5297  0.3485
  593MOL0     H80028   2.588   4.804   3.806  0.6080  1.2465  0.7188
  593MOL0     H80029   2.448   4.801   4.082 -0.2683 -1.8103  0.7489
  593MOL0     H80030   2.481   4.657   4.002  1.6578 -0.4227  1.0014
  593MOL0     H80031   2.352   4.756   3.802  1.2789  1.0072  0.5601
  593MOL0     H80032   2.272   4.665   3.932  1.8918 -2.2960 -3.6076
  593MOL0     H80033   2.285   4.969   3.884 -1.1046 -0.1667  0.2274
  593MOL0     H80034   2.239   4.914   4.040 -0.4777 -2.1418  0.8707
  593MOL0     H80035   2.028   4.961   3.908  1.2785  1.6729  0.6312
  593MOL0     H80036   2.045   4.795   3.930  1.4532 -2.0250 -1.1106
  593MOL0     H80037   3.004   4.540   4.000  4.4812  1.4464 -1.2242
  593MOL0     H80038   3.135   4.332   4.051 -0.4273  2.5576  0.2273
  593MOL0     H80039   3.084   3.888   4.062 -3.7016 -2.4512 -1.8726
  593MOL0     H80040   3.116   3.666   4.099 -0.5221 -0.3854 -1.6689
  593MOL0     H80041   1.782   2.527   3.621 -1.9467  0.7864  1.3920
  593MOL0     H80042   1.544   2.615   3.588  0.1443  0.0521  0.7284
  593MOL0     H80043   1.340   2.961   3.160  1.1987  1.5915  0.4236
  593MOL0     H80044   1.084   2.953   3.104  0.4462 -3.6930 -1.6017
  593MOL0     H80045   0.743   2.986   3.179 -1.3160 -0.2681 -6.5966
  593MOL0     H80046   0.899   2.986   3.101 -1.1232  2.1712  1.4278
  593MOL0     H80047   0.884   2.721   3.090 -0.7122 -0.3439 -3.5207
  593MOL0     H80048   0.776   2.820   3.003 -2.3279 -0.0944  0.5061
  593MOL0     H80049   0.624   2.667   3.102  1.6251 -1.7065  0.5463
  593MOL0     H80050   0.595   2.817   3.174  0.2556 -0.3675  2.1225
  593MOL0     H80051   0.804   2.663   3.321 -0.6769 -1.7037 -1.3024
  593MOL0     H80052   0.666   2.568   3.287  0.7913  0.2657 -1.8531
  593MOL0     H80053   0.531   2.792   3.620  0.2569 -4.5374  2.2709
  593MOL0     H80054   1.012   2.864   3.520  1.5024  1.3126  0.2677
  593MOL0     H80055   1.240   2.864   3.563  2.2024  1.6199  1.4417
  594MOL0     O80056   8.832   9.734   3.306 -0.0226  0.4441 -0.0715
  594MOL0     C80057   8.889   9.841   3.322 -0.4591 -0.5007 -0.3188
  594MOL0     O80058   8.993   9.887   3.253 -0.1565  0.5916 -0.2247
  594MOL0     C80059   9.042   9.800   3.155 -0.9066  0.1249 -0.3626
  594MOL0     C80060   8.971   9.810   3.032  0.1482 -0.0589  0.0489
  594MOL0     C80061   9.004   9.735   2.919  0.3692 -0.2055 -0.1746
  594MOL0     C80062   9.111   9.659   2.925  0.2856  0.8042 -0.2736
  594MOL0     O80063   9.132   9.586   2.807  0.2140  0.7672  0.1335
  594MOL0     C80064   9.257   9.510   2.787 -0.3298 -0.1484 -0.7739
  594MOL0     C80065   9.306   9.535   2.648 -0.3819 -0.2274 -0.5079
  594MOL0     C80066   9.216   9.457   2.551  0.4486  0.3764 -1.3382
  594MOL0     C80067   9.233   9.301   2.552 -0.7340  0.1201  0.9039
  594MOL0     C80068   9.370   9.237   2.497 -0.2114  0.9149  0.1433
  594MOL0     C80069   9.348   9.079   2.487  0.3205 -0.0237 -0.1938
  594MOL0     C80070   9.266   9.040   2.361 -1.0574  0.0608 -0.2443
  594MOL0     C80071   9.311   8.900   2.296  0.3805  0.1460 -0.9626
  594MOL0     N80072   9.441   8.913   2.236 -0.0499 -0.5479 -0.0094
  594MOL0     C80073   9.478   8.996   2.129 -0.5030  1.0507  0.9124
  594MOL0     C80074   9.586   8.925   2.083 -0.5716 -0.3573 -0.1789
  594MOL0     C80075   9.649   8.963   1.954 -0.2857 -0.4877  0.7469
  594MOL0     C80076   9.762   9.055   1.998  0.4893  0.3674 -0.1203
  594MOL0     C80077   9.872   8.995   2.074 -0.2022  0.2216 -0.5770
  594MOL0     C80078   9.960   8.900   2.004  0.3568  0.2279  0.5287
  594MOL0     O80079  10.032   8.968   1.898 -0.6236  0.2430 -0.4352
  594MOL0     C80080  10.104   8.879   1.816 -0.3177 -0.8837  0.6499
  594MOL0     C80081  10.128   8.750   1.832  0.9122 -0.6783 -0.4958
  594MOL0     C80082  10.177   8.666   1.726 -0.0635  0.9106 -0.2833
  594MOL0     C80083  10.207   8.517   1.754  0.1413  0.3236 -0.3371
  594MOL0     C80084  10.201   8.717   1.593  0.0377  0.5366 -0.2621
  594MOL0     C80085  10.247   8.632   1.481  0.6027 -0.2506  0.4204
  594MOL0     O80086  10.282   8.706   1.370  0.8579 -0.2977 -0.0438
  594MOL0     C80087  10.290   8.631   1.251 -0.5948  0.1332 -0.2308
  594MOL0     C80088  10.413   8.596   1.195 -0.8490 -0.9886  0.1595
  594MOL0     C80089  10.422   8.528   1.075  0.1724 -0.3887 -0.3947
  594MOL0     C80090  10.302   8.516   0.998  0.8675  0.1201  0.3829
  594MOL0     O80091  10.308   8.451   0.878  0.0702  0.1866  0.5613
  594MOL0     C80092  10.298   8.308   0.886  0.0312  0.5742  0.8207
  594MOL0     C80093  10.152   8.250   0.885 -1.3675 -0.5267  0.1887
  594MOL0     C80094  10.082   8.299   0.751 -0.1630  1.0137 -0.2576
  594MOL0     C80095   9.964   8.215   0.701 -0.4764 -0.3790 -0.5155
  594MOL0     C80096  10.021   8.103   0.613  0.2599 -0.2469  0.3434
  594MOL0     C80097   9.909   8.014   0.541 -0.6402  0.1514 -0.1948
  594MOL0     C80098   9.854   7.906   0.638  0.1173 -0.3365 -0.4084
  594MOL0     C80099   9.888   7.761   0.604  0.0818 -0.5456  0.1430
  594MOL0    Cl80100   9.751   7.659   0.617  0.2565 -0.6291 -0.0254
  594MOL0     C80101  10.174   8.562   1.043 -0.2703 -0.9740 -0.9131
  594MOL0     C80102  10.173   8.602   1.183 -0.5189 -0.1864 -0.6847
  594MOL0     O80103  10.250   8.511   1.486 -0.0221  0.2254 -0.4413
  594MOL0     C80104  10.164   8.859   1.582  0.3637 -0.2903  0.1393
  594MOL0     C80105  10.118   8.930   1.688 -1.3067  0.2303 -0.2828
  594MOL0     N80106   9.622   8.818   2.161 -1.0037 -0.0256 -0.1223
  594MOL0     N80107   9.527   8.810   2.248  0.1931 -0.0450 -0.0239
  594MOL0     C80108   9.192   9.637   3.044 -0.6622 -0.5419  0.3731
  594MOL0     C80109   9.153   9.706   3.160 -0.1364 -0.7285 -0.8178
  594MOL0     C80110   8.847   9.913   3.447  0.4600  0.1170  0.9587
  594MOL0     C80111   8.912  10.028   3.495  0.3591  0.3151 -0.3640
  594MOL0     C80112   8.859  10.108   3.601 -1.5942  0.8116 -0.4023
  594MOL0     C80113   8.744  10.068   3.662 -0.7091 -0.0852 -0.4390
  594MOL0     O80114   8.701  10.141   3.773 -0.0140 -0.2336  0.0613
  594MOL0     C80115   8.564  10.124   3.821  0.6654 -0.3107  0.2268
  594MOL0     C80116   8.549  10.025   3.927  0.6350  0.0313  0.2725
  594MOL0     C80117   8.402  10.015   3.972  0.0110  0.1321 -0.2270
  594MOL0     C80118   8.307   9.976   3.853 -1.0231  0.3267 -0.4154
  594MOL0     C80119   8.177   9.921   3.901 -0.0686  0.7080  0.2793
  594MOL0     C80120   8.075   9.888   3.949 -0.1108  0.1323  0.7876
  594MOL0     C80121   8.687   9.942   3.618 -0.2897 -1.3955 -0.8543
  594MOL0     C80122   8.734   9.872   3.506 -0.0908  0.4083 -0.0326
  594MOL0     H80123   8.878   9.866   3.040 -0.8120 -1.5382 -0.4148
  594MOL0     H80124   8.939   9.738   2.832  3.0171 -0.8528 -2.3114
  594MOL0     H80125   9.333   9.532   2.862  0.7432 -1.6781 -1.3499
  594MOL0     H80126   9.237   9.402   2.783  1.4889 -0.4842 -3.2842
  594MOL0     H80127   9.305   9.639   2.616 -2.9471 -0.0660 -0.1331
  594MOL0     H80128   9.409   9.499   2.662 -0.9720 -0.7355  5.5353
  594MOL0     H80129   9.111   9.484   2.568 -0.3779 -2.4388 -1.4358
  594MOL0     H80130   9.243   9.490   2.450 -1.0286 -3.2679 -3.0689
  594MOL0     H80131   9.212   9.259   2.650 -2.0274 -0.0622  0.5601
  594MOL0     H80132   9.146   9.272   2.492 -0.1723  0.9480 -0.3689
  594MOL0     H80133   9.382   9.280   2.397 -1.8576 -1.4138 -1.1312
  594MOL0     H80134   9.452   9.268   2.563  1.5909  0.1397 -1.6434
  594MOL0     H80135   9.446   9.031   2.498  0.8590  0.8312 -1.0390
  594MOL0     H80136   9.294   9.037   2.572 -0.8328  0.2495 -0.7648
  594MOL0     H80137   9.163   9.040   2.398 -0.4475  1.6490  1.6563
  594MOL0     H80138   9.268   9.113   2.279 -3.9514 -0.1960 -0.6625
  594MOL0     H80139   9.240   8.857   2.225  1.4701 -1.4303 -1.1448
  594MOL0     H80140   9.324   8.832   2.380  3.0047 -0.4799 -1.7781
  594MOL0     H80141   9.430   9.080   2.079 -0.4214 -0.2891 -1.5909
  594MOL0     H80142   9.691   8.876   1.903 -0.0396 -1.1146  1.9933
  594MOL0     H80143   9.586   9.007   1.877  2.2685 -0.4294 -1.4585
  594MOL0     H80144   9.721   9.148   2.040 -1.1637 -1.0727  1.6343
  594MOL0     H80145   9.808   9.078   1.901  2.4213 -0.9945  0.4104
  594MOL0     H80146   9.834   8.963   2.171  0.8508  0.6240 -0.0178
  594MOL0     H80147   9.934   9.081   2.102 -0.7832  0.7803 -0.9783
  594MOL0     H80148   9.892   8.823   1.966 -2.2953  1.5329  2.3186
  594MOL0     H80149  10.035   8.860   2.074  1.2420 -4.6525 -2.6844
  594MOL0     H80150  10.122   8.697   1.926  0.3907 -0.0498 -0.1669
  594MOL0     H80151  10.126   8.449   1.724 -0.9601  0.5650  1.8802
  594MOL0     H80152  10.300   8.478   1.711  1.7727  1.9095  1.5877
  594MOL0     H80153  10.222   8.489   1.858 -2.6065 -1.5058 -0.3294
  594MOL0     H80154  10.501   8.626   1.251 -0.4620  0.0060 -0.9398
  594MOL0     H80155  10.512   8.474   1.047 -1.4728 -4.9296  2.0407
  594MOL0     H80156  10.357   8.268   0.804  0.7515  1.7677  0.7267
  594MOL0     H80157  10.349   8.275   0.976 -1.0666 -0.3968  1.1138
  594MOL0     H80158  10.168   8.141   0.883  1.1857 -0.2112 -1.2890
  594MOL0     H80159  10.094   8.276   0.974  2.5708 -1.5683  3.3877
  594MOL0     H80160  10.154   8.318   0.671  0.7444 -0.5129  0.1599
  594MOL0     H80161  10.038   8.398   0.767 -0.4809  1.1233 -1.7318
  594MOL0     H80162   9.915   8.168   0.786 -1.6012  0.7761 -0.4972
  594MOL0     H80163   9.899   8.287   0.650  0.0439  1.2809  1.0878
  594MOL0     H80164  10.092   8.047   0.675  1.0315  2.4453  2.0683
  594MOL0     H80165  10.079   8.159   0.538  1.5634  3.2936  3.6381
  594MOL0     H80166   9.823   8.077   0.514  2.1339  3.6890 -1.5389
  594MOL0     H80167   9.959   7.959   0.460  0.8941  2.5284 -0.9677
  594MOL0     H80168   9.748   7.930   0.655  0.6827  2.3561 -0.2198
  594MOL0     H80169   9.898   7.929   0.736 -2.7161 -0.9114  1.1264
  594MOL0     H80170   9.975   7.729   0.663  0.6390 -1.1562 -0.9705
  594MOL0     H80171   9.925   7.755   0.501 -3.0855 -4.6653 -1.0039
  594MOL0     H80172  10.084   8.554   0.983 -0.1339  0.1704 -1.3099
  594MOL0     H80173  10.080   8.632   1.232  0.3674 -1.5841  2.0743
  594MOL0     H80174  10.171   8.906   1.484  1.3867  1.2419  0.8988
  594MOL0     H80175  10.104   9.037   1.702  0.6067  0.4763 -0.0069
  594MOL0     H80176   9.270   9.562   3.052 -0.7123 -0.8404 -1.4051
  594MOL0     H80177   9.199   9.679   3.254 -1.7282 -1.6578 -0.2602
  594MOL0     H80178   9.005  10.050   3.443  1.4350 -1.0802  0.8875
  594MOL0     H80179   8.912  10.196   3.639  1.0955 -1.6443  2.0355
  594MOL0     H80180   8.532  10.216   3.872 -0.4345 -0.3916 -0.2829
  594MOL0     H80181   8.502  10.126   3.731  1.9889  2.7375 -0.7427
  594MOL0     H80182   8.617  10.064   4.003  2.2104 -2.5178  0.2853
  594MOL0     H80183   8.585   9.925   3.901  2.8403  0.0739  2.8010
  594MOL0     H80184   8.390  10.116   4.013  2.5285  1.2544 -2.0279
  594MOL0     H80185   8.402   9.953   4.062 -1.2019 -0.7651 -0.8185
  594MOL0     H80186   8.358   9.903   3.790 -1.5681 -0.3540 -0.0885
  594MOL0     H80187   8.302  10.062   3.786 -0.4469  1.6346  1.1472
  594MOL0     H80188   7.979   9.865   3.990 -2.1954 -1.4952 -4.2283
  594MOL0     H80189   8.606   9.901   3.678  0.1247 -0.6298  0.2615
  594MOL0     H80190   8.668   9.791   3.476  0.0065  0.0056  0.8214
  595MOL0     O80191  11.274   7.947   1.316  0.0830  0.5359  0.3922
  595MOL0     C80192  11.290   7.920   1.438  0.3321  1.2582 -0.3082
  595MOL0     O80193  11.411   7.886   1.497  0.3283 -0.1928 -0.3235
  595MOL0     C80194  11.515   7.873   1.404 -0.1770 -0.2401 -0.0263
  595MOL0     C80195  11.641   7.935   1.446  0.5093 -0.2179  0.7988
  595MOL0     C80196  11.746   7.915   1.364 -0.2009 -0.2063  0.3302
  595MOL0     C80197  11.758   7.844   1.248  0.5257 -1.2454  0.2028
  595MOL0     O80198  11.879   7.850   1.185  0.1321  0.0563  0.7551
  595MOL0     C80199  11.907   7.728   1.099  0.4336 -0.0364  0.0804
  595MOL0     C80200  12.029   7.765   1.019  1.0080  0.7192 -0.2674
  595MOL0     C80201  12.063   7.656   0.917 -0.0994  0.2766 -0.0661
  595MOL0     C80202  12.177   7.715   0.832 -0.4390  1.2248  0.6913
  595MOL0     C80203  12.261   7.616   0.734  0.0668  0.1742 -1.1318
  595MOL0     C80204  12.191   7.583   0.597 -0.1174  0.8203  0.6671
  595MOL0     C80205  12.277   7.475   0.519 -1.1530 -0.0921  0.5180
  595MOL0     C80206  12.189   7.377   0.441  0.3687 -0.3285 -0.2506
  595MOL0     N80207  12.263   7.286   0.354  0.7097  1.0885 -0.3791
  595MOL0     C80208  12.391   7.235   0.360  0.9967 -0.7409 -0.6892
  595MOL0     C80209  12.396   7.153   0.249 -0.5154  0.0212 -0.4277
  595MOL0     C80210  12.524   7.096   0.180 -0.2995 -0.5509 -0.5718
  595MOL0     C80211  12.562   6.963   0.237 -0.1557 -0.0818 -0.3268
  595MOL0     C80212  12.445   6.855   0.244 -0.1527 -0.7047  0.4258
  595MOL0     C80213  12.485   6.724   0.320  0.5019 -0.5521 -0.3699
  595MOL0     O80214  12.608   6.678   0.259  0.0296 -0.0592  0.2933
  595MOL0     C80215  12.634   6.550   0.264 -1.0603 -0.2117 -1.6024
  595MOL0     C80216  12.745   6.501   0.192 -0.2267 -0.7543  0.1353
  595MOL0     C80217  12.801   6.371   0.206  0.0014  0.2471 -0.0624
  595MOL0     C80218  12.897   6.321   0.103 -0.3023 -0.4998 -0.4140
  595MOL0     C80219  12.744   6.287   0.300  0.4283 -0.3164 -0.1687
  595MOL0     C80220  12.788   6.143   0.336  0.4739  0.3835 -0.8044
  595MOL0     O80221  12.697   6.081   0.414 -0.7202 -0.4608  0.1733
  595MOL0     C80222  12.684   5.948   0.451  0.1585  0.4449  0.3004
  595MOL0     C80223  12.565   5.910   0.506 -0.9772 -1.6285 -2.0170
  595MOL0     C80224  12.542   5.789   0.558  0.7142  0.6334 -0.2383
  595MOL0     C80225  12.629   5.689   0.567  0.5267 -1.3623 -0.1393
  595MOL0     O80226  12.606   5.580   0.644  0.3868  0.4619  0.7665
  595MOL0     C80227  12.674   5.459   0.613 -0.0387 -0.3120 -0.6345
  595MOL0     C80228  12.602   5.344   0.698  0.4104 -0.4854  0.0339
  595MOL0     C80229  12.674   5.311   0.830 -0.7989 -0.1686  0.0110
  595MOL0     C80230  12.804   5.224   0.805  0.4259 -0.5950 -0.6767
  595MOL0     C80231  12.868   5.196   0.939 -1.7262  1.0406  0.4535
  595MOL0     C80232  12.987   5.101   0.914  0.4194  0.3454 -0.5670
  595MOL0     C80233  13.001   5.022   1.051 -0.0024 -0.1659 -0.7204
  595MOL0     C80234  12.904   4.912   1.088 -0.3681  0.4214  0.1537
  595MOL0    Cl80235  12.927   4.854   1.258 -0.2263 -0.4181  0.3645
  595MOL0     C80236  12.751   5.721   0.516  0.2694 -0.2165 -0.0457
  595MOL0     C80237  12.785   5.847   0.459  0.2508  0.9313  0.1938
  595MOL0     O80238  12.890   6.089   0.300 -0.6607  0.0630  0.4856
  595MOL0     C80239  12.648   6.352   0.381 -0.7046  0.0809 -0.5663
  595MOL0     C80240  12.585   6.476   0.365 -0.5233  0.5120 -0.4658
  595MOL0     N80241  12.288   7.181   0.175  0.4805  0.0831  0.5410
  595MOL0     N80242  12.200   7.248   0.245  0.0738 -1.2463 -0.0428
  595MOL0     C80243  11.636   7.786   1.200  0.3693  1.1175  0.4875
  595MOL0     C80244  11.521   7.796   1.285 -0.3285 -0.2482  0.7446
  595MOL0     C80245  11.170   7.923   1.517 -0.6537  0.0991  0.1402
  595MOL0     C80246  11.135   7.807   1.591  0.3176 -0.3321  1.1744
  595MOL0     C80247  11.013   7.799   1.648  0.3760 -0.4992 -0.6584
  595MOL0     C80248  10.921   7.900   1.663 -0.2142 -0.0873 -0.8353
  595MOL0     O80249  10.807   7.890   1.741  0.1494  0.5763 -0.3840
  595MOL0     C80250  10.708   7.815   1.668  0.8717 -0.0736 -0.1724
  595MOL0     C80251  10.636   7.725   1.766  1.2312  0.6281 -0.5220
  595MOL0     C80252  10.704   7.593   1.801 -1.2301  0.9758  0.8851
  595MOL0     C80253  10.657   7.474   1.715  0.3728  0.4742  0.4997
  595MOL0     C80254  10.702   7.354   1.787 -0.1867 -0.7682  0.0996
  595MOL0     C80255  10.742   7.248   1.840 -0.9464  0.2646  0.7170
  595MOL0     C80256  10.943   8.010   1.579 -0.3936 -0.5377  0.5205
  595MOL0     C80257  11.070   8.022   1.512  0.1046  0.6021 -0.9197
  595MOL0     H80258  11.644   8.008   1.526 -1.3968  0.8051  0.0146
  595MOL0     H80259  11.839   7.968   1.380  0.9783 -1.9522 -0.3768
  595MOL0     H80260  11.916   7.634   1.155 -2.0892 -0.3663  0.0325
  595MOL0     H80261  11.823   7.708   1.032 -1.4682 -0.3019  2.4192
  595MOL0     H80262  12.014   7.867   0.983 -2.4566  0.6685  0.7249
  595MOL0     H80263  12.110   7.784   1.090  1.0485  2.0514 -0.6388
  595MOL0     H80264  12.109   7.564   0.954 -1.8240 -1.7253 -2.5419
  595MOL0     H80265  11.981   7.623   0.854  3.2530 -4.3752 -2.6281
  595MOL0     H80266  12.130   7.787   0.765  0.9945  0.3432 -1.3715
  595MOL0     H80267  12.255   7.747   0.902 -0.5582  0.2111  1.3085
  595MOL0     H80268  12.356   7.667   0.717  1.2159 -1.6226 -0.3989
  595MOL0     H80269  12.292   7.522   0.780  2.6152  1.3362 -0.2947
  595MOL0     H80270  12.092   7.541   0.615 -0.4721  1.8680  1.2305
  595MOL0     H80271  12.178   7.675   0.539  1.0872 -0.4138 -1.7029
  595MOL0     H80272  12.343   7.516   0.442  2.1694 -4.7397  0.4339
  595MOL0     H80273  12.349   7.424   0.584  0.6254  0.4951 -0.9191
  595MOL0     H80274  12.131   7.436   0.370  0.5179 -0.1650 -0.2377
  595MOL0     H80275  12.123   7.316   0.504  0.9922 -1.0976 -0.3209
  595MOL0     H80276  12.461   7.237   0.443 -0.2718 -0.2127  0.4122
  595MOL0     H80277  12.509   7.087   0.072 -2.1717  0.4202 -0.4379
  595MOL0     H80278  12.609   7.162   0.198 -2.0612  1.6997  0.0579
  595MOL0     H80279  12.597   6.987   0.338  4.3192  3.3364 -2.3903
  595MOL0     H80280  12.647   6.934   0.175 -0.6732 -1.3195 -0.4780
  595MOL0     H80281  12.409   6.834   0.143  0.8454 -1.2008  0.1609
  595MOL0     H80282  12.364   6.904   0.298 -0.0612 -0.8350  0.6848
  595MOL0     H80283  12.401   6.656   0.303  0.2261  0.4445 -3.7425
  595MOL0     H80284  12.497   6.746   0.427  0.5662  0.6731 -0.6213
  595MOL0     H80285  12.785   6.566   0.114  4.0390 -1.2027  1.7106
  595MOL0     H80286  12.893   6.392   0.020 -3.4747 -1.4910 -1.2725
  595MOL0     H80287  12.995   6.331   0.151 -0.2719  2.1895 -0.9373
  595MOL0     H80288  12.862   6.227   0.058 -6.4217  1.0057  0.3525
  595MOL0     H80289  12.497   5.994   0.496 -0.8433 -1.0227  1.2489
  595MOL0     H80290  12.445   5.768   0.602 -0.3786  2.3541 -1.7335
  595MOL0     H80291  12.671   5.453   0.504 -1.2239  4.0261 -1.0370
  595MOL0     H80292  12.778   5.475   0.644 -0.0864  2.4562 -1.6190
  595MOL0     H80293  12.503   5.384   0.719 -0.9573 -2.3357 -2.4173
  595MOL0     H80294  12.603   5.254   0.636 -0.1778  0.1564 -0.9273
  595MOL0     H80295  12.600   5.252   0.885 -2.2159  0.1833 -1.4088
  595MOL0     H80296  12.698   5.399   0.889 -0.0510 -0.1937 -0.2482
  595MOL0     H80297  12.759   5.135   0.758  0.0325  0.0818 -1.6240
  595MOL0     H80298  12.869   5.279   0.737 -1.2162  1.1829 -0.9022
  595MOL0     H80299  12.795   5.161   1.012  0.5374  1.3616  3.0380
  595MOL0     H80300  12.907   5.289   0.981 -1.9921  0.8647  1.1014
  595MOL0     H80301  12.960   5.026   0.839 -1.6968 -0.8132  1.2174
  595MOL0     H80302  13.070   5.166   0.887 -2.7111  4.1654 -2.1010
  595MOL0     H80303  13.024   5.093   1.131 -2.3565 -0.4534  0.2845
  595MOL0     H80304  13.098   4.973   1.040 -0.2668 -0.3068 -2.9743
  595MOL0     H80305  12.920   4.825   1.024  4.1376  0.1117  1.3913
  595MOL0     H80306  12.798   4.937   1.080 -0.5718 -0.2961  0.4948
  595MOL0     H80307  12.829   5.646   0.515 -0.9672 -1.5475 -0.2321
  595MOL0     H80308  12.884   5.876   0.425  1.4000 -0.9799  1.7216
  595MOL0     H80309  12.598   6.286   0.451 -0.0514 -0.9924 -1.0786
  595MOL0     H80310  12.507   6.508   0.434 -3.0556 -1.4184 -2.2514
  595MOL0     H80311  11.627   7.727   1.110 -0.6690 -1.1409  1.9796
  595MOL0     H80312  11.432   7.745   1.249 -1.1424 -0.0178  2.3350
  595MOL0     H80313  11.194   7.716   1.577  1.3785 -0.0481  3.4344
  595MOL0     H80314  10.991   7.708   1.702 -0.5780 -0.2148 -0.5563
  595MOL0     H80315  10.651   7.894   1.620  1.8489  0.1926 -0.9221
  595MOL0     H80316  10.743   7.743   1.593  2.1754 -0.5757  0.8500
  595MOL0     H80317  10.534   7.707   1.730  1.0425  0.0768  0.2610
  595MOL0     H80318  10.618   7.764   1.867 -1.4832  1.4153 -1.2305
  595MOL0     H80319  10.676   7.561   1.902 -0.6144  0.4798  0.9016
  595MOL0     H80320  10.811   7.612   1.801 -1.2836  1.4066 -0.5718
  595MOL0     H80321  10.692   7.462   1.612  0.4351  0.1872  0.5532
  595MOL0     H80322  10.549   7.462   1.723  0.6188 -0.7234  2.8670
  595MOL0     H80323  10.811   7.174   1.875  2.7693  3.4147  0.7523
  595MOL0     H80324  10.862   8.082   1.576  0.2560  0.1843 -0.9248
  595MOL0     H80325  11.089   8.109   1.451 -2.2847  3.3854  1.9154
  596MOL0     O80326   2.567   0.480   7.843 -0.5241 -1.3460  0.5762
  596MOL0     C80327   2.574   0.556   7.940  0.0458 -0.0595 -0.0629
  596MOL0     O80328   2.518   0.681   7.944 -0.4695  1.2552 -0.2641
  596MOL0     C80329   2.466   0.759   7.840 -0.7889  0.1698  0.2963
  596MOL0     C80330   2.404   0.723   7.722  0.8020  0.5428 -0.0903
  596MOL0     C80331   2.325   0.819   7.652 -0.3515  0.1972  0.0278
  596MOL0     C80332   2.324   0.955   7.690  0.0657 -0.3268  0.4594
  596MOL0     O80333   2.257   1.057   7.622  0.4557  0.4471  1.1238
  596MOL0     C80334   2.158   1.011   7.527 -0.3757 -0.5675  0.1135
  596MOL0     C80335   2.109   1.128   7.440  0.0303 -0.3161 -0.0903
  596MOL0     C80336   1.975   1.105   7.363 -0.3997  0.3729 -0.0444
  596MOL0     C80337   1.907   1.236   7.321  0.0778 -0.2143 -0.7885
  596MOL0     C80338   1.766   1.201   7.268  0.3531 -0.6654 -0.2835
  596MOL0     C80339   1.714   1.338   7.212  0.4050 -0.0737 -0.1581
  596MOL0     C80340   1.571   1.314   7.170  0.1984 -0.2859  0.0078
  596MOL0     C80341   1.511   1.445   7.112  0.2218  0.0227  0.2983
  596MOL0     N80342   1.356   1.444   7.115 -0.2914 -0.8417  0.1293
  596MOL0     C80343   1.280   1.456   7.233  0.5092  1.0674  0.0338
  596MOL0     C80344   1.155   1.460   7.187 -0.2084 -0.3135 -0.3935
  596MOL0     C80345   1.041   1.441   7.294  0.1825 -0.2373  1.2876
  596MOL0     C80346   0.957   1.566   7.298  0.0610 -0.6689 -0.5178
  596MOL0     C80347   0.855   1.576   7.411  1.2745 -0.3805  0.3186
  596MOL0     C80348   0.906   1.615   7.554 -0.9009 -0.5436 -0.3892
  596MOL0     O80349   0.813   1.585   7.663  0.0783 -0.5797 -0.4196
  596MOL0     C80350   0.816   1.450   7.703  0.1849  0.5164  0.8957
  596MOL0     C80351   0.919   1.362   7.682  1.0688 -0.8203 -0.7441
  596MOL0     C80352   0.921   1.223   7.713 -0.1649  0.2915  0.8183
  596MOL0     C80353   1.041   1.140   7.678 -0.4579  0.9707 -1.0992
  596MOL0     C80354   0.803   1.173   7.784 -0.5646 -1.2664  0.0188
  596MOL0     C80355   0.780   1.030   7.834  0.7698 -0.6475  0.2145
  596MOL0     O80356   0.688   1.014   7.938 -0.3403 -0.0408 -0.7905
  596MOL0     C80357   0.643   0.893   7.992  0.0840  0.2952  0.2450
  596MOL0     C80358   0.562   0.899   8.106 -0.8526  0.2666  0.1221
  596MOL0     C80359   0.548   0.784   8.185  0.0775  0.0528  0.1191
  596MOL0     C80360   0.608   0.661   8.151 -0.0522  0.1759 -0.4863
  596MOL0     O80361   0.594   0.563   8.246  0.0586 -1.2134 -0.2979
  596MOL0     C80362   0.617   0.430   8.201 -0.4818 -0.4986 -0.8192
  596MOL0     C80363   0.726   0.375   8.298  0.0941 -0.6594  0.1719
  596MOL0     C80364   0.757   0.227   8.266  0.9076 -0.4502 -0.1443
  596MOL0     C80365   0.832   0.162   8.387 -0.3969 -0.0866 -0.0430
  596MOL0     C80366   0.981   0.140   8.339  0.5303 -0.0834 -0.5774
  596MOL0     C80367   1.047   0.069   8.461 -0.1073 -0.3250  0.4623
  596MOL0     C80368   1.192   0.027   8.441  0.2825  0.3140  0.9893
  596MOL0     C80369   1.294   0.149   8.426 -0.0041 -0.5542 -0.8546
  596MOL0    Cl80370   1.318   0.207   8.257  0.3905  0.0302 -0.5113
  596MOL0     C80371   0.675   0.658   8.020  0.3990  0.5037  0.3420
  596MOL0     C80372   0.678   0.769   7.941  0.0084  0.2487 -0.2843
  596MOL0     O80373   0.836   0.939   7.771 -0.2565 -0.2424 -0.2388
  596MOL0     C80374   0.711   1.272   7.824  0.7116  0.7567 -0.2103
  596MOL0     C80375   0.716   1.405   7.781 -0.6531 -0.1674  0.1607
  596MOL0     N80376   1.155   1.448   7.044  0.1120 -0.8285  0.2699
  596MOL0     N80377   1.280   1.445   7.013  0.3356  0.1965  0.3734
  596MOL0     C80378   2.397   1.000   7.805 -0.0474  0.4061 -0.2015
  596MOL0     C80379   2.461   0.892   7.877 -0.2752 -0.5921  0.3073
  596MOL0     C80380   2.636   0.506   8.064 -0.3989 -1.0037  0.4130
  596MOL0     C80381   2.680   0.593   8.166  0.6731 -0.1315  0.0863
  596MOL0     C80382   2.729   0.530   8.281 -0.1992 -0.4765 -0.1294
  596MOL0     C80383   2.760   0.398   8.293  0.2865  0.4444  0.0435
  596MOL0     O80384   2.814   0.354   8.405 -0.0849  0.0594 -1.2253
  596MOL0     C80385   2.895   0.232   8.408 -0.0443 -0.0317  0.6091
  596MOL0     C80386   3.011   0.225   8.507  0.5393  0.2136 -0.4009
  596MOL0     C80387   3.112   0.331   8.464  0.9742 -0.1317  0.2559
  596MOL0     C80388   3.241   0.313   8.558 -0.2402 -0.5329  0.6156
  596MOL0     C80389   3.351   0.401   8.521  0.1184 -0.0796 -0.5591
  596MOL0     C80390   3.454   0.460   8.497  0.2644 -0.4231  0.0690
  596MOL0     C80391   2.717   0.309   8.188 -0.2743 -0.0250 -0.9834
  596MOL0     C80392   2.667   0.367   8.072 -0.1599 -1.0104 -0.0818
  596MOL0     H80393   2.412   0.616   7.705 -3.3620 -0.6238  3.3139
  596MOL0     H80394   2.293   0.778   7.557  0.9904 -3.4957  0.9679
  596MOL0     H80395   2.202   0.931   7.466 -0.7179 -2.0437  1.7206
  596MOL0     H80396   2.072   0.956   7.564 -1.7540 -0.5116 -2.7620
  596MOL0     H80397   2.106   1.216   7.505 -0.0269 -0.4050  0.0281
  596MOL0     H80398   2.185   1.148   7.363  2.1284 -0.3731  1.8793
  596MOL0     H80399   1.993   1.037   7.279 -2.2986 -1.0588  0.6455
  596MOL0     H80400   1.904   1.061   7.433 -2.7630  2.1819 -1.1750
  596MOL0     H80401   1.897   1.304   7.406  2.1209 -0.5660 -0.2225
  596MOL0     H80402   1.974   1.282   7.248  0.5255  0.1236 -0.1780
  596MOL0     H80403   1.777   1.127   7.188 -0.8694 -0.8348 -0.3184
  596MOL0     H80404   1.700   1.150   7.339 -0.2739 -1.2192 -1.2439
  596MOL0     H80405   1.711   1.412   7.292 -1.0154  0.8807 -1.0531
  596MOL0     H80406   1.774   1.386   7.134 -0.2465  3.4727  1.3355
  596MOL0     H80407   1.570   1.242   7.087  0.5597 -0.2688 -0.0114
  596MOL0     H80408   1.509   1.289   7.256  1.1067  1.8590  1.3803
  596MOL0     H80409   1.550   1.461   7.011 -3.2225 -3.2591 -1.8298
  596MOL0     H80410   1.538   1.536   7.165  0.1336  0.1246  0.1706
  596MOL0     H80411   1.305   1.438   7.338 -0.2944  2.2890  0.4473
  596MOL0     H80412   0.965   1.369   7.265 -0.5338  1.9030 -2.8841
  596MOL0     H80413   1.077   1.402   7.389  0.9714 -2.4733  0.1404
  596MOL0     H80414   0.899   1.571   7.206 -0.0130  0.4237 -0.4299
  596MOL0     H80415   1.027   1.650   7.295 -1.2262  0.4288 -2.9341
  596MOL0     H80416   0.801   1.481   7.418 -1.6893  1.1952  0.9432
  596MOL0     H80417   0.768   1.639   7.387  2.5676  1.3229 -0.1064
  596MOL0     H80418   0.912   1.724   7.559 -1.7610 -0.5199  0.5567
  596MOL0     H80419   1.008   1.576   7.565 -0.0981  1.6958  0.7033
  596MOL0     H80420   1.012   1.400   7.640  1.8288 -0.8650  0.8334
  596MOL0     H80421   1.020   1.057   7.610 -1.5168  0.4735 -0.2033
  596MOL0     H80422   1.112   1.205   7.626  0.1349  0.7378 -0.5953
  596MOL0     H80423   1.093   1.109   7.769  0.2085  3.7277 -0.4645
  596MOL0     H80424   0.531   0.991   8.154 -0.1606  1.2648 -1.2686
  596MOL0     H80425   0.509   0.796   8.285 -0.1142  0.3977  0.0050
  596MOL0     H80426   0.515   0.392   8.207 -0.8228  0.1810 -1.9690
  596MOL0     H80427   0.656   0.417   8.099  0.6699 -3.2365 -0.1192
  596MOL0     H80428   0.814   0.436   8.277 -1.7832  1.6039 -1.7097
  596MOL0     H80429   0.693   0.391   8.402  2.1001 -1.1960  0.9342
  596MOL0     H80430   0.828   0.227   8.183  0.4536  1.5397 -0.6034
  596MOL0     H80431   0.668   0.167   8.244  1.3114 -1.2031  0.2494
  596MOL0     H80432   0.821   0.229   8.473 -2.0484 -2.3808  1.6483
  596MOL0     H80433   0.787   0.066   8.411  0.8630 -0.6545  0.1161
  596MOL0     H80434   1.030   0.236   8.320  0.0686 -0.0792 -1.8753
  596MOL0     H80435   0.996   0.073   8.253 -2.9566 -0.5846 -0.9395
  596MOL0     H80436   1.055   0.148   8.536  2.0677  0.9273 -0.9600
  596MOL0     H80437   0.992  -0.017   8.500  1.5530 -1.0588  1.2410
  596MOL0     H80438   1.205  -0.036   8.353  1.5183  0.1729  1.2532
  596MOL0     H80439   1.225  -0.033   8.526  3.1347 -2.5498 -1.8666
  596MOL0     H80440   1.387   0.126   8.478  0.8379 -0.0992 -2.0855
  596MOL0     H80441   1.270   0.233   8.492  1.9874 -1.8465  1.6890
  596MOL0     H80442   0.718   0.567   7.978 -0.0583  0.1657  0.6026
  596MOL0     H80443   0.723   0.764   7.842  2.7501  5.2684  0.3593
  596MOL0     H80444   0.626   1.231   7.878 -0.9796  1.1924 -2.4442
  596MOL0     H80445   0.627   1.466   7.796 -0.1360  0.5363  0.3735
  596MOL0     H80446   2.399   1.104   7.838  2.1436  0.4011 -0.1560
  596MOL0     H80447   2.518   0.927   7.962  0.0276  1.0433 -0.5243
  596MOL0     H80448   2.652   0.697   8.160 -0.3019 -0.2566  1.9137
  596MOL0     H80449   2.753   0.596   8.364 -5.1811  0.2374  1.0390
  596MOL0     H80450   2.833   0.143   8.405  2.0816 -1.6963  2.3246
  596MOL0     H80451   2.935   0.233   8.307 -2.6750  2.1263 -0.5170
  596MOL0     H80452   3.058   0.127   8.514  2.8339  1.3667  2.8332
  596MOL0     H80453   2.979   0.256   8.607 -5.2352 -1.3528 -1.4418
  596MOL0     H80454   3.061   0.428   8.475 -1.3841 -1.0784 -1.3325
  596MOL0     H80455   3.148   0.313   8.362  0.7695  1.0391 -0.0425
  596MOL0     H80456   3.273   0.209   8.555  2.8498  0.3061  0.6801
  596MOL0     H80457   3.215   0.355   8.656  0.6204  0.6493  0.3663
  596MOL0     H80458   3.527   0.531   8.464  0.5783  0.0579  1.7201
  596MOL0     H80459   2.741   0.203   8.190 -2.3533 -0.5772 -2.2313
  596MOL0     H80460   2.644   0.305   7.987 -1.0319 -0.7963 -0.0133
  597MOL0     O80461   3.505  10.979   8.242  0.2441  0.6213 -0.4795
  597MOL0     C80462   3.527  10.872   8.190 -0.5020 -0.2463  0.2746
  597MOL0     O80463   3.468  10.756   8.217  0.5600  0.3277  0.0782
  597MOL0     C80464   3.373  10.767   8.310  0.5759  0.2219 -0.9848
  597MOL0     C80465   3.405  10.773   8.445  0.6544 -0.1632 -0.0319
  597MOL0     C80466   3.313  10.739   8.540 -0.5331 -1.4132 -0.4286
  597MOL0     C80467   3.174  10.696   8.505 -0.4173  0.4973  0.6856
  597MOL0     O80468   3.072  10.673   8.591  1.2468  0.3831  0.8474
  597MOL0     C80469   3.088  10.640   8.730 -0.5050 -0.5181 -0.6996
  597MOL0     C80470   3.061  10.770   8.805  0.3526  0.1707 -0.0011
  597MOL0     C80471   3.056  10.758   8.955  0.9492 -0.2879  0.1722
  597MOL0     C80472   3.183  10.709   9.024 -0.2726 -0.0077  1.0581
  597MOL0     C80473   3.143  10.684   9.175  0.2922  0.1463  1.3450
  597MOL0     C80474   3.269  10.660   9.255 -0.7813  0.2371  0.5930
  597MOL0     C80475   3.244  10.657   9.406  0.9102 -0.7641  0.5128
  597MOL0     C80476   3.376  10.664   9.488  0.9458 -0.1662 -0.1956
  597MOL0     N80477   3.421  10.806   9.497  0.1453 -0.1992 -0.1145
  597MOL0     C80478   3.363  10.909   9.561  0.2063 -0.0107  0.6268
  597MOL0     C80479   3.439  11.015   9.534  0.8971 -0.8037  0.2738
  597MOL0     C80480   3.401  11.151   9.589  0.5122  0.0648 -0.2833
  597MOL0     C80481   3.382  11.255   9.482  0.0738 -1.1815 -0.3788
  597MOL0     C80482   3.338  11.396   9.535 -0.0719  0.6110  0.5297
  597MOL0     C80483   3.191  11.413   9.562 -0.1976  0.1707  0.4458
  597MOL0     O80484   3.186  11.553   9.613 -1.4181 -0.2772  0.4427
  597MOL0     C80485   3.081  11.585   9.681 -0.2171  0.0979  0.1968
  597MOL0     C80486   3.092  11.692   9.774 -0.0723  1.0054  1.6144
  597MOL0     C80487   2.984  11.726   9.852 -0.0099  0.4001  0.2138
  597MOL0     C80488   2.997  11.838   9.952  0.7214  0.4081  0.3374
  597MOL0     C80489   2.866  11.644   9.863  0.1721 -0.7300  0.2595
  597MOL0     C80490   2.749  11.666   9.958 -1.0956 -0.4666 -0.9224
  597MOL0     O80491   2.688  11.796   9.971  0.5520  0.2658  0.5903
  597MOL0     C80492   2.569  11.801  10.042 -0.7129 -0.3957 -0.3790
  597MOL0     C80493   2.468  11.888   9.987  0.2235  0.5083 -0.5587
  597MOL0     C80494   2.347  11.904  10.048  0.1898  0.9946 -0.6505
  597MOL0     C80495   2.321  11.855  10.181  0.1639 -0.3597  0.3866
  597MOL0     O80496   2.213  11.894  10.252  0.2820  0.4812  0.4633
  597MOL0     C80497   2.235  11.995  10.352  0.8901  0.4390 -0.1551
  597MOL0     C80498   2.105  12.020  10.430  0.0093 -0.8812 -0.1770
  597MOL0     C80499   2.004  12.108  10.353  0.2209  0.5005 -0.2665
  597MOL0     C80500   1.867  12.110  10.413  0.9438 -0.6431  0.5216
  597MOL0     C80501   1.777  12.217  10.355  0.3522 -0.0002 -0.2211
  597MOL0     C80502   1.631  12.208  10.404 -0.1966  0.0383 -0.3072
  597MOL0     C80503   1.552  12.083  10.351 -1.0232 -0.4566  0.1310
  597MOL0     C80504   1.418  12.067  10.423  0.0002  0.0199  0.1604
  597MOL0    Cl80505   1.351  11.918  10.359 -0.0834 -0.0115 -0.3566
  597MOL0     C80506   2.411  11.765  10.229 -0.4950 -0.4483 -0.6735
  597MOL0     C80507   2.538  11.740  10.166  0.4387 -0.0280  0.3867
  597MOL0     O80508   2.706  11.560  10.004 -0.0587 -0.8500 -0.3628
  597MOL0     C80509   2.863  11.532   9.782  0.9369 -0.6962 -0.0237
  597MOL0     C80510   2.962  11.509   9.688  0.7292  0.3694 -0.6079
  597MOL0     N80511   3.525  10.985   9.430 -0.1395 -0.4201  1.0373
  597MOL0     N80512   3.518  10.855   9.411  0.1957  0.0554  0.3697
  597MOL0     C80513   3.143  10.700   8.366  0.8253 -0.0540 -0.5138
  597MOL0     C80514   3.242  10.731   8.273  0.2983  0.1735  0.5926
  597MOL0     C80515   3.648  10.875   8.098  0.4747  0.2281 -0.5566
  597MOL0     C80516   3.726  10.992   8.093  0.3117 -0.2219  0.2641
  597MOL0     C80517   3.846  10.998   8.015  0.2017 -1.5457  0.7005
  597MOL0     C80518   3.864  10.895   7.919  0.5469 -0.7036 -0.4200
  597MOL0     O80519   3.953  10.899   7.814 -0.3721  0.3993  0.2406
  597MOL0     C80520   4.026  11.017   7.782  0.1645 -0.1595  0.2357
  597MOL0     C80521   4.165  11.029   7.866 -0.0111  0.9996 -0.3124
  597MOL0     C80522   4.264  10.946   7.774 -0.2556  0.6421 -0.7321
  597MOL0     C80523   4.388  10.898   7.834 -0.5546  1.0089  0.5280
  597MOL0     C80524   4.465  10.840   7.723  0.3951  0.4994 -0.7052
  597MOL0     C80525   4.538  10.806   7.629 -0.3184  0.7810 -0.5969
  597MOL0     C80526   3.789  10.778   7.923 -0.2950 -0.8663  0.8473
  597MOL0     C80527   3.691  10.762   8.015 -0.1511  0.1119  0.2940
  597MOL0     H80528   3.505  10.804   8.477  0.5106  0.5830 -0.2704
  597MOL0     H80529   3.351  10.737   8.641 -1.6335  3.1331  0.2980
  597MOL0     H80530   3.002  10.578   8.757 -2.8242  2.4270 -0.8462
  597MOL0     H80531   3.175  10.584   8.766 -0.2933 -0.9695 -1.8835
  597MOL0     H80532   3.131  10.848   8.773 -1.4745  1.8790 -0.0159
  597MOL0     H80533   2.965  10.813   8.776 -1.1051 -1.8745  1.5677
  597MOL0     H80534   3.022  10.847   9.009  0.2340 -1.2852  1.4086
  597MOL0     H80535   2.992  10.672   8.977  2.4958 -1.2848  0.9484
  597MOL0     H80536   3.226  10.615   8.989 -2.1329 -0.2406 -0.7477
  597MOL0     H80537   3.252  10.795   9.020 -0.5326  0.2794  2.2333
  597MOL0     H80538   3.097  10.778   9.204  0.1751  0.4112  0.3353
  597MOL0     H80539   3.071  10.606   9.199  1.7697 -2.0990 -0.9432
  597MOL0     H80540   3.305  10.567   9.210 -1.3009  1.2182 -2.1027
  597MOL0     H80541   3.344  10.735   9.226 -2.4180  2.0259  0.7837
  597MOL0     H80542   3.185  10.743   9.439 -2.0316 -1.8242 -1.6269
  597MOL0     H80543   3.193  10.564   9.432  2.3576 -1.4501  1.0232
  597MOL0     H80544   3.456  10.599   9.451  0.5432 -1.0646  0.4725
  597MOL0     H80545   3.360  10.634   9.592 -0.4384  2.6352  0.5122
  597MOL0     H80546   3.279  10.906   9.629  1.0529 -0.1476  1.7033
  597MOL0     H80547   3.303  11.146   9.638  1.0348 -2.6917  0.6502
  597MOL0     H80548   3.480  11.189   9.654  0.7529 -0.7970 -0.0643
  597MOL0     H80549   3.307  11.225   9.409 -3.4022  3.3903  0.8632
  597MOL0     H80550   3.479  11.279   9.436 -0.0702  3.6728  1.2233
  597MOL0     H80551   3.362  11.479   9.468  0.6365 -0.7652 -1.0078
  597MOL0     H80552   3.392  11.416   9.628  0.1919 -0.1979  0.5624
  597MOL0     H80553   3.145  11.335   9.623  0.2721  1.1354  2.0868
  597MOL0     H80554   3.140  11.416   9.465  1.9753  0.5206 -0.7663
  597MOL0     H80555   3.183  11.751   9.774 -0.7493  2.0926  0.9092
  597MOL0     H80556   3.090  11.837  10.010  0.7850  1.3289  0.2776
  597MOL0     H80557   2.980  11.938   9.909 -0.9423 -0.1673 -0.4299
  597MOL0     H80558   2.923  11.837  10.032  3.4557 -2.2299  3.0542
  597MOL0     H80559   2.504  11.937   9.897  5.3590 -1.9369 -0.1846
  597MOL0     H80560   2.286  11.981  10.001  0.1692  1.2252 -0.2463
  597MOL0     H80561   2.313  11.978  10.427  2.3702  0.9264 -1.5032
  597MOL0     H80562   2.273  12.081  10.295 -0.1200  4.2186  4.2191
  597MOL0     H80563   2.045  11.930  10.448 -1.1058 -0.5330 -1.9365
  597MOL0     H80564   2.134  12.062  10.527 -4.0981  2.6769 -0.1792
  597MOL0     H80565   1.994  12.064  10.253  0.9386  1.5895 -0.8420
  597MOL0     H80566   2.046  12.208  10.338  0.3984  0.6262  0.9765
  597MOL0     H80567   1.823  12.013  10.388  1.6860 -0.7086 -0.5987
  597MOL0     H80568   1.862  12.115  10.522  1.2932 -1.6855  0.5902
  597MOL0     H80569   1.776  12.203  10.247  0.1586 -0.9699 -0.1000
  597MOL0     H80570   1.825  12.312  10.382 -0.2805  0.5975 -1.1379
  597MOL0     H80571   1.628  12.208  10.513  0.9992 -1.7730 -0.2255
  597MOL0     H80572   1.586  12.304  10.378 -3.8050 -2.0143 -2.5187
  597MOL0     H80573   1.607  11.996  10.388 -2.1566 -1.4399 -0.4085
  597MOL0     H80574   1.549  12.077  10.242  0.5769  4.3350 -0.4051
  597MOL0     H80575   1.346  12.149  10.422 -0.2371 -0.1828 -1.5321
  597MOL0     H80576   1.442  12.065  10.530 -1.1971 -4.3958  0.5698
  597MOL0     H80577   2.387  11.710  10.319  0.2546  0.0378 -0.1655
  597MOL0     H80578   2.598  11.672  10.225 -0.9503 -0.5196  1.2836
  597MOL0     H80579   2.775  11.468   9.779  0.9957 -0.7642 -1.9081
  597MOL0     H80580   2.943  11.434   9.612 -0.9453  0.3098 -0.1893
  597MOL0     H80581   3.049  10.680   8.315  1.2981 -1.5285 -0.8565
  597MOL0     H80582   3.228  10.715   8.166  1.1193 -0.1717  0.5261
  597MOL0     H80583   3.698  11.076   8.157 -0.2021  1.3877 -1.9737
  597MOL0     H80584   3.916  11.081   8.016  0.3431 -1.6692  1.8612
  597MOL0     H80585   4.037  11.013   7.673 -3.4616 -2.4084 -0.2147
  597MOL0     H80586   3.968  11.106   7.808  0.7327 -0.2805  2.0507
  597MOL0     H80587   4.155  10.980   7.963  1.9314 -0.2701 -0.7028
  597MOL0     H80588   4.186  11.136   7.866 -0.5063  1.1062  0.4818
  597MOL0     H80589   4.293  11.012   7.693  0.8197  0.3317 -0.6165
  597MOL0     H80590   4.214  10.854   7.742 -0.6627  0.4433  0.4266
  597MOL0     H80591   4.375  10.830   7.919 -0.5199  0.7267  0.3070
  597MOL0     H80592   4.439  10.987   7.873 -0.5435  1.1528  0.1900
  597MOL0     H80593   4.607  10.775   7.553  0.7377  0.3834  0.4898
  597MOL0     H80594   3.805  10.711   7.839  0.3232  3.2131 -2.6638
  597MOL0     H80595   3.623  10.678   8.005 -0.7661  0.8662 -3.5318
  598MOL0     O80596  10.314   8.456  10.924  0.3655 -0.3681 -0.3286
  598MOL0     C80597  10.332   8.528  11.009  0.0227 -0.2210  0.1589
  598MOL0     O80598  10.447   8.540  11.078 -0.2805  0.1860 -0.8248
  598MOL0     C80599  10.528   8.422  11.080 -0.3262  0.4570  0.1841
  598MOL0     C80600  10.612   8.383  10.969  0.4135  0.0634 -0.5626
  598MOL0     C80601  10.705   8.277  10.993 -0.0689 -0.6178  0.4616
  598MOL0     C80602  10.721   8.214  11.118  0.4536 -0.0350  0.5793
  598MOL0     O80603  10.810   8.112  11.135 -0.4494 -0.4246  0.5608
  598MOL0     C80604  10.865   8.042  11.020  0.1533  0.6313  0.1396
  598MOL0     C80605  10.940   7.917  11.061  0.4738 -1.1725 -0.3895
  598MOL0     C80606  10.964   7.821  10.938 -0.5765  0.2871 -0.4350
  598MOL0     C80607  10.843   7.750  10.903 -0.6829  0.2815 -0.8191
  598MOL0     C80608  10.877   7.629  10.822  0.8242 -0.0181  0.0875
  598MOL0     C80609  10.956   7.523  10.894 -0.0045 -0.0364 -0.5466
  598MOL0     C80610  11.002   7.418  10.798  0.3950  0.4146  1.2599
  598MOL0     C80611  11.058   7.292  10.855 -0.0410  0.2818 -0.6034
  598MOL0     N80612  11.136   7.205  10.760 -1.1122  0.0955 -0.3568
  598MOL0     C80613  11.230   7.246  10.664  0.2716 -0.3595  0.6649
  598MOL0     C80614  11.277   7.134  10.599 -0.3082  0.6091  0.2462
  598MOL0     C80615  11.379   7.132  10.489  0.2904 -0.0817  0.3777
  598MOL0     C80616  11.519   7.127  10.550  1.4465 -0.4440 -0.6613
  598MOL0     C80617  11.543   7.016  10.653  0.5837 -0.3543  0.2740
  598MOL0     C80618  11.698   6.987  10.668  0.3624  1.2338  0.2100
  598MOL0     O80619  11.719   6.898  10.559  0.3646  0.6987  0.4782
  598MOL0     C80620  11.845   6.849  10.530  0.2104  0.6959 -0.3958
  598MOL0     C80621  11.859   6.713  10.488  0.0052  0.2665 -0.4966
  598MOL0     C80622  11.985   6.665  10.457  0.3349 -0.3576  0.0633
  598MOL0     C80623  11.988   6.527  10.395  0.0925 -0.2223 -0.2033
  598MOL0     C80624  12.102   6.743  10.469 -0.6791  0.2732  0.2234
  598MOL0     C80625  12.236   6.692  10.430  0.7243  0.6031  0.1783
  598MOL0     O80626  12.300   6.744  10.329  0.5893 -0.3714 -0.2862
  598MOL0     C80627  12.422   6.694  10.291  0.1886  0.4655  0.5763
  598MOL0     C80628  12.457   6.569  10.264  0.6368  0.1535 -0.4068
  598MOL0     C80629  12.582   6.527  10.214  1.2267  0.4971  0.0590
  598MOL0     C80630  12.685   6.612  10.205 -0.1433  0.0807 -0.6400
  598MOL0     O80631  12.810   6.587  10.144 -0.4728  0.6480 -0.1164
  598MOL0     C80632  12.854   6.451  10.125 -0.1470 -0.2401  0.3707
  598MOL0     C80633  12.943   6.401  10.238  0.3204  0.1764  0.0794
  598MOL0     C80634  12.870   6.343  10.366 -0.5621  0.3839 -0.3207
  598MOL0     C80635  12.967   6.327  10.491 -0.0224  0.6649  0.0065
  598MOL0     C80636  12.889   6.319  10.625 -0.4234  0.5931  0.5905
  598MOL0     C80637  12.810   6.190  10.637  0.2590 -0.0694  0.1241
  598MOL0     C80638  12.742   6.192  10.775 -0.8212  0.1390 -0.1162
  598MOL0     C80639  12.847   6.197  10.882  0.1351 -0.6739 -0.7602
  598MOL0    Cl80640  12.963   6.068  10.867  0.4312 -0.0570 -0.1698
  598MOL0     C80641  12.655   6.749  10.236  0.1964  0.1653  0.2552
  598MOL0     C80642  12.527   6.792  10.281  0.2308  0.5306 -0.1347
  598MOL0     O80643  12.283   6.608  10.500  0.2894  0.1376 -0.2375
  598MOL0     C80644  12.085   6.869  10.528 -0.0304 -0.4910 -0.0137
  598MOL0     C80645  11.962   6.923  10.558  1.0170  0.6747 -0.3958
  598MOL0     N80646  11.212   7.029  10.651 -0.2928 -0.1576 -0.0635
  598MOL0     N80647  11.126   7.071  10.751 -0.2912 -1.0786  0.7653
  598MOL0     C80648  10.633   8.247  11.215  0.4217  0.0933 -0.6064
  598MOL0     C80649  10.530   8.344  11.198 -1.1106  0.0554  0.1226
  598MOL0     C80650  10.231   8.622  11.046 -0.2332  0.1655 -0.1850
  598MOL0     C80651  10.248   8.718  11.146  0.2477 -0.2142  0.0265
  598MOL0     C80652  10.135   8.798  11.179 -0.7474 -0.5413  0.7530
  598MOL0     C80653  10.006   8.786  11.114 -0.2870  1.0413 -0.7561
  598MOL0     O80654   9.907   8.872  11.134  0.0233  0.7134 -0.1525
  598MOL0     C80655   9.940   8.992  11.201  0.3543 -0.7486 -1.1488
  598MOL0     C80656   9.841   9.106  11.175 -0.1233  0.1699 -1.1794
  598MOL0     C80657   9.886   9.234  11.251 -0.6064  0.1674  0.7846
  598MOL0     C80658   9.791   9.344  11.223  0.5954 -0.4305 -0.3216
  598MOL0     C80659   9.759   9.443  11.336 -0.8537  0.6877  0.7561
  598MOL0     C80660   9.742   9.529  11.415 -0.5947  0.3981 -0.1903
  598MOL0     C80661   9.989   8.693  11.017 -0.6953  0.2150  0.3186
  598MOL0     C80662  10.101   8.613  10.981 -0.9115  0.0916  0.3437
  598MOL0     H80663  10.600   8.438  10.876 -1.9067 -2.2622 -1.7634
  598MOL0     H80664  10.760   8.269  10.900 -6.3175 -0.6956 -3.8975
  598MOL0     H80665  10.776   8.022  10.960  1.6917  0.4235 -2.2159
  598MOL0     H80666  10.935   8.104  10.963  1.4585 -1.3601 -0.5487
  598MOL0     H80667  11.033   7.960  11.099 -0.5650 -0.9748  2.0778
  598MOL0     H80668  10.888   7.869  11.144  1.6333 -0.7575  0.5947
  598MOL0     H80669  11.000   7.870  10.847  2.6772 -2.3440 -0.7805
  598MOL0     H80670  11.049   7.757  10.965  0.1997  1.0496 -0.9864
  598MOL0     H80671  10.786   7.729  10.994 -0.9893  2.5851 -0.4064
  598MOL0     H80672  10.780   7.821  10.848 -1.5358  0.7628  0.7095
  598MOL0     H80673  10.783   7.577  10.799  1.2629  0.0084 -1.9731
  598MOL0     H80674  10.927   7.660  10.730 -0.9113 -0.1482 -0.9278
  598MOL0     H80675  11.041   7.554  10.955 -0.7645 -0.3414  0.7086
  598MOL0     H80676  10.898   7.488  10.980  0.1662  1.1445  0.0659
  598MOL0     H80677  10.920   7.386  10.734 -0.0207  0.8890  1.5479
  598MOL0     H80678  11.079   7.464  10.734 -1.4060 -0.6624 -1.9112
  598MOL0     H80679  10.985   7.223  10.897 -0.7691  1.2984 -0.1750
  598MOL0     H80680  11.126   7.313  10.938  0.9910 -0.7841 -1.1439
  598MOL0     H80681  11.249   7.351  10.645 -3.0933  0.6712  2.1810
  598MOL0     H80682  11.352   7.049  10.422 -2.2718 -0.2034  1.4576
  598MOL0     H80683  11.378   7.228  10.436  0.5083 -0.1857  0.1835
  598MOL0     H80684  11.548   7.221  10.598  1.6229 -1.5700  1.5410
  598MOL0     H80685  11.574   7.116  10.456 -0.2629  0.9862 -1.9059
  598MOL0     H80686  11.493   6.927  10.614 -3.4178  1.1727  1.4154
  598MOL0     H80687  11.493   7.035  10.748 -2.9950 -3.8733 -0.6090
  598MOL0     H80688  11.724   6.937  10.761  0.6115  0.7188 -0.1361
  598MOL0     H80689  11.764   7.074  10.670  1.8449  0.1259  0.9676
  598MOL0     H80690  11.777   6.643  10.479  1.4512 -1.3050 -2.0770
  598MOL0     H80691  12.091   6.493  10.406  1.7420  3.6926 -1.6343
  598MOL0     H80692  11.907   6.462  10.429 -0.0603  0.5954  1.0794
  598MOL0     H80693  11.971   6.542  10.288  3.5350 -1.5124 -1.0609
  598MOL0     H80694  12.381   6.492  10.255 -3.0793  3.6564 -1.3875
  598MOL0     H80695  12.599   6.422  10.198  2.3541  0.5828  0.6144
  598MOL0     H80696  12.779   6.381  10.086 -2.1346  2.2969 -0.6132
  598MOL0     H80697  12.931   6.473  10.051 -0.5918  3.5480  0.8335
  598MOL0     H80698  12.986   6.313  10.189 -1.7819 -0.1903 -1.2343
  598MOL0     H80699  13.028   6.466  10.261  1.3034 -0.6187 -1.1831
  598MOL0     H80700  12.813   6.252  10.347 -0.2403  0.0350  0.3624
  598MOL0     H80701  12.798   6.423  10.390  1.3780  2.7393 -1.8611
  598MOL0     H80702  13.035   6.247  10.460  0.4393  1.3264 -0.7359
  598MOL0     H80703  13.027   6.418  10.493  2.8857 -1.0088 -2.0994
  598MOL0     H80704  12.824   6.407  10.627 -2.4215 -0.8120  0.5700
  598MOL0     H80705  12.966   6.327  10.702 -0.8217  0.7622  0.9742
  598MOL0     H80706  12.726   6.198  10.567  1.3310  1.4948 -1.0556
  598MOL0     H80707  12.871   6.104  10.611  2.1750  1.0158  0.8197
  598MOL0     H80708  12.688   6.098  10.783  1.9648 -1.3958  4.1761
  598MOL0     H80709  12.685   6.284  10.791  0.3050  0.4058  3.1739
  598MOL0     H80710  12.794   6.200  10.977  0.4671 -0.4166 -0.5800
  598MOL0     H80711  12.908   6.288  10.887  0.3675 -0.8531 -0.3094
  598MOL0     H80712  12.733   6.823  10.221  1.5576 -1.6811 -2.7628
  598MOL0     H80713  12.500   6.893  10.310 -2.2055 -0.0996  0.0121
  598MOL0     H80714  12.172   6.931  10.547  0.5344 -0.8627 -1.2978
  598MOL0     H80715  11.941   7.022  10.600 -2.1580  0.3845 -1.0272
  598MOL0     H80716  10.636   8.198  11.312  1.1070  3.1446  1.0255
  598MOL0     H80717  10.457   8.375  11.272 -1.7681 -3.0034  0.9083
  598MOL0     H80718  10.343   8.719  11.197  1.4817 -2.5621 -2.0082
  598MOL0     H80719  10.157   8.867  11.260 -0.5356  0.4482 -0.1324
  598MOL0     H80720   9.926   8.978  11.308 -0.2667 -1.8666 -1.3644
  598MOL0     H80721  10.038   9.018  11.160  0.7825 -3.6607 -2.1877
  598MOL0     H80722   9.736   9.083  11.194  0.0164  1.8093  2.5034
  598MOL0     H80723   9.846   9.131  11.068 -1.3576 -0.7044 -1.4594
  598MOL0     H80724   9.987   9.263  11.222 -1.7653  3.0118 -0.7420
  598MOL0     H80725   9.897   9.206  11.356  1.5503 -0.7514  0.3674
  598MOL0     H80726   9.696   9.297  11.194 -0.3461 -0.6258  2.7310
  598MOL0     H80727   9.844   9.412  11.156  0.0384 -1.2641 -1.6531
  598MOL0     H80728   9.740   9.606  11.490 -2.0656 -0.3203  0.5365
  598MOL0     H80729   9.894   8.683  10.966  1.5471 -3.0243 -3.8836
  598MOL0     H80730  10.078   8.543  10.901 -0.0020 -1.1290  1.1178
  599MOL0     O80731  10.531   9.267   7.106  0.9580  0.6725 -0.2389
  599MOL0     C80732  10.431   9.278   7.174 -0.1744  0.2391  0.8815
  599MOL0     O80733  10.373   9.400   7.189  0.7373  0.4699 -0.4646
  599MOL0     C80734  10.406   9.518   7.131  0.7514  0.0122  0.0532
  599MOL0     C80735  10.403   9.639   7.214  0.1037  0.5760  0.5434
  599MOL0     C80736  10.406   9.763   7.157 -0.4496 -0.8126 -0.2291
  599MOL0     C80737  10.423   9.777   7.021 -0.5316  0.3626  0.7639
  599MOL0     O80738  10.447   9.901   6.958 -0.3145  0.3140  0.4115
  599MOL0     C80739  10.449  10.033   7.019 -0.2397 -0.5628  0.9750
  599MOL0     C80740  10.450  10.143   6.913  1.6971  0.1150  0.1346
  599MOL0     C80741  10.445  10.285   6.969  0.0414 -0.2798  0.4568
  599MOL0     C80742  10.467  10.396   6.874 -0.1649 -0.7453  0.0501
  599MOL0     C80743  10.617  10.426   6.844  0.4591 -0.8249 -1.6509
  599MOL0     C80744  10.704  10.495   6.955 -0.9655 -0.4155  0.1845
  599MOL0     C80745  10.853  10.520   6.896  0.3044 -0.3438  0.2075
  599MOL0     C80746  10.940  10.398   6.909 -0.2207  0.1310 -0.4193
  599MOL0     N80747  11.003  10.361   7.038 -0.1735 -0.4332  0.2496
  599MOL0     C80748  11.105  10.416   7.103  0.6571 -0.4519 -0.2469
  599MOL0     C80749  11.099  10.367   7.229 -0.5499  0.0690 -1.1686
  599MOL0     C80750  11.202  10.374   7.338 -0.9252 -0.0433  0.1186
  599MOL0     C80751  11.204  10.512   7.400 -0.3019  0.4063  0.0798
  599MOL0     C80752  11.259  10.505   7.539 -0.9278 -0.0685 -0.2388
  599MOL0     C80753  11.386  10.425   7.549 -0.1639 -1.1101  0.0665
  599MOL0     O80754  11.482  10.467   7.444 -0.1927 -0.0450 -0.1010
  599MOL0     C80755  11.609  10.410   7.437 -1.0661  0.1668  0.9609
  599MOL0     C80756  11.678  10.363   7.550 -0.6696  0.0219  0.2680
  599MOL0     C80757  11.803  10.294   7.545 -0.1093 -0.3742  0.0295
  599MOL0     C80758  11.849  10.240   7.679  0.3521  0.3733 -0.1175
  599MOL0     C80759  11.864  10.288   7.418 -0.0567 -0.1982 -0.1877
  599MOL0     C80760  12.005  10.234   7.401 -0.1861  0.8722  0.0330
  599MOL0     O80761  12.056  10.233   7.276 -0.9282  1.0896  0.6238
  599MOL0     C80762  12.182  10.183   7.267  0.0527 -0.1930  0.0754
  599MOL0     C80763  12.215  10.050   7.244  0.5638  0.8337  0.4383
  599MOL0     C80764  12.350  10.008   7.240  0.4332  0.1756 -0.0145
  599MOL0     C80765  12.450  10.108   7.241  0.3261  0.2840  0.0004
  599MOL0     O80766  12.578  10.069   7.233  0.5346 -0.3651 -0.8508
  599MOL0     C80767  12.614   9.991   7.119 -0.1773  1.1281  0.3507
  599MOL0     C80768  12.770   9.994   7.090 -0.4670  0.3388  0.3325
  599MOL0     C80769  12.810   9.873   7.009 -1.0048 -0.1636 -0.7059
  599MOL0     C80770  12.963   9.848   6.978 -0.3592 -0.4942  0.1331
  599MOL0     C80771  12.970   9.739   6.869  0.0371 -1.0474 -0.6769
  599MOL0     C80772  13.113   9.693   6.824  0.0667  0.0005  0.6295
  599MOL0     C80773  13.192   9.638   6.945  0.1996 -0.5708  0.4145
  599MOL0     C80774  13.316   9.563   6.896 -0.4990  0.1579  0.0923
  599MOL0    Cl80775  13.430   9.527   7.029  0.4363  0.1072  0.0019
  599MOL0     C80776  12.426  10.239   7.246 -0.1335 -0.1972  0.8202
  599MOL0     C80777  12.292  10.269   7.254  0.6459  0.0737  0.5123
  599MOL0     O80778  12.060  10.197   7.508 -0.4121 -0.4374  0.4226
  599MOL0     C80779  11.799  10.331   7.300  0.5188  0.4925 -0.4033
  599MOL0     C80780  11.681  10.408   7.320  0.1706 -0.3111  0.3383
  599MOL0     N80781  10.988  10.288   7.244 -0.0052  0.0837 -0.0686
  599MOL0     N80782  10.933  10.291   7.133  0.6717  0.8810  0.6015
  599MOL0     C80783  10.428   9.666   6.938  0.9365  0.5778  0.8626
  599MOL0     C80784  10.413   9.534   6.993 -0.4181 -0.9554  0.3717
  599MOL0     C80785  10.390   9.158   7.253 -1.1421  0.3402  0.0369
  599MOL0     C80786  10.271   9.163   7.331  0.1198 -0.6812  0.7014
  599MOL0     C80787  10.241   9.064   7.426  0.3752  1.1726 -0.3356
  599MOL0     C80788  10.318   8.956   7.444 -0.7666 -0.1150  0.4899
  599MOL0     O80789  10.280   8.861   7.534  0.9392  0.0589  0.0660
  599MOL0     C80790  10.204   8.748   7.481 -0.1181  0.1448 -0.3248
  599MOL0     C80791  10.091   8.785   7.378 -0.6018  0.3476 -1.3780
  599MOL0     C80792  10.016   8.660   7.350 -0.9171 -0.4769 -0.6310
  599MOL0     C80793   9.864   8.680   7.334 -0.1070 -0.7713  0.3434
  599MOL0     C80794   9.824   8.807   7.257 -1.9784 -0.5640  1.2358
  599MOL0     C80795   9.804   8.911   7.196  0.8025 -0.6432  0.4996
  599MOL0     C80796  10.435   8.951   7.365  0.3310 -0.3808 -0.4128
  599MOL0     C80797  10.471   9.045   7.270 -0.0710  0.6015  0.8503
  599MOL0     H80798  10.384   9.639   7.321 -3.9843  4.1966  0.0964
  599MOL0     H80799  10.393   9.853   7.216 -2.0431 -1.3935  0.3576
  599MOL0     H80800  10.357  10.058   7.072 -0.2920  1.9607 -0.1571
  599MOL0     H80801  10.542  10.037   7.075  0.5028  2.6356 -0.2447
  599MOL0     H80802  10.524  10.130   6.834  0.3116 -1.4911 -0.9713
  599MOL0     H80803  10.359  10.121   6.856  1.1237 -2.3643  1.8501
  599MOL0     H80804  10.346  10.293   7.014 -0.2132 -1.9060  0.2760
  599MOL0     H80805  10.522  10.295   7.046 -0.3839  1.1169  0.7120
  599MOL0     H80806  10.426  10.373   6.775 -0.3711  0.9419 -0.2928
  599MOL0     H80807  10.422  10.491   6.904  1.0646  0.5807 -2.0675
  599MOL0     H80808  10.660  10.341   6.790 -1.3415 -1.8228 -1.5653
  599MOL0     H80809  10.603  10.497   6.762  0.5509 -0.2860 -1.2101
  599MOL0     H80810  10.655  10.587   6.985 -0.2866 -0.1150  0.3852
  599MOL0     H80811  10.705  10.429   7.043 -2.4903 -0.2084  0.3747
  599MOL0     H80812  10.863  10.560   6.795  3.8825 -2.7218 -0.5854
  599MOL0     H80813  10.903  10.596   6.958  1.7500  1.8572 -3.3454
  599MOL0     H80814  11.028  10.404   6.843 -0.1217  2.1578 -0.1499
  599MOL0     H80815  10.871  10.321   6.873  0.3726 -0.1338 -1.0266
  599MOL0     H80816  11.170  10.496   7.067 -1.3029  1.2172 -0.2241
  599MOL0     H80817  11.178  10.296   7.410  1.8007 -0.7193  0.4188
  599MOL0     H80818  11.291  10.328   7.293 -1.7690 -0.2423 -1.4205
  599MOL0     H80819  11.106  10.559   7.393 -0.8338 -0.6859  0.1095
  599MOL0     H80820  11.277  10.568   7.340  1.2522 -0.5744  0.9768
  599MOL0     H80821  11.186  10.468   7.611  1.9191 -0.2785  2.7611
  599MOL0     H80822  11.288  10.609   7.557  1.6550 -0.6106 -0.7574
  599MOL0     H80823  11.382  10.316   7.540  2.0930 -1.2631  0.3005
  599MOL0     H80824  11.425  10.437   7.651  1.5362  1.1107 -0.7693
  599MOL0     H80825  11.630  10.375   7.646  1.4342  0.6112  1.3047
  599MOL0     H80826  11.763  10.235   7.746  0.3721  1.5463  0.0159
  599MOL0     H80827  11.887  10.137   7.677  0.4322  0.4048 -0.2785
  599MOL0     H80828  11.932  10.297   7.721  2.1240 -1.6432 -0.6542
  599MOL0     H80829  12.137   9.975   7.253  2.4298 -0.9890  3.0837
  599MOL0     H80830  12.379   9.904   7.234  1.3562  0.4527 -0.6803
  599MOL0     H80831  12.575   9.890   7.131 -0.5305  1.0245 -1.4456
  599MOL0     H80832  12.568  10.033   7.029 -0.4021  0.1526  0.0036
  599MOL0     H80833  12.811  10.083   7.041  0.5011  0.0969  0.6788
  599MOL0     H80834  12.818   9.979   7.187 -1.7756 -1.1856  0.7754
  599MOL0     H80835  12.736   9.866   6.928 -3.6984 -0.8781  1.6390
  599MOL0     H80836  12.783   9.792   7.077 -0.3929 -2.2871 -2.8493
  599MOL0     H80837  12.998   9.946   6.944  0.4625 -0.0662  2.0597
  599MOL0     H80838  13.016   9.822   7.070 -0.7017 -0.7942  0.2464
  599MOL0     H80839  12.911   9.774   6.784 -1.2009 -1.5076 -0.0221
  599MOL0     H80840  12.935   9.642   6.906  1.0038 -0.1401  3.0098
  599MOL0     H80841  13.092   9.606   6.761 -1.7580 -0.7008  2.1323
  599MOL0     H80842  13.173   9.769   6.773 -1.0830  0.7304  0.3348
  599MOL0     H80843  13.138   9.572   7.014 -0.2860 -0.3056  0.3009
  599MOL0     H80844  13.235   9.720   7.002  2.6196 -2.0422  0.8578
  599MOL0     H80845  13.370   9.627   6.826 -0.5533  0.7946  0.6249
  599MOL0     H80846  13.292   9.469   6.846  1.7605 -1.7198  2.2419
  599MOL0     H80847  12.509  10.309   7.237 -4.3450  5.2099 -3.1107
  599MOL0     H80848  12.270  10.375   7.244  0.7887 -0.0079 -0.8691
  599MOL0     H80849  11.851  10.337   7.205  2.5665  0.4120  0.6720
  599MOL0     H80850  11.646  10.461   7.231  1.8214 -1.5420 -1.1095
  599MOL0     H80851  10.435   9.682   6.830  4.3880  1.2601  1.0852
  599MOL0     H80852  10.403   9.456   6.918 -1.3520 -2.2165  1.7585
  599MOL0     H80853  10.216   9.257   7.332  2.5391  0.8461 -0.2738
  599MOL0     H80854  10.155   9.081   7.491  0.7670  0.1121  0.4882
  599MOL0     H80855  10.272   8.680   7.427 -1.7452  1.7617 -4.9343
  599MOL0     H80856  10.152   8.702   7.565 -3.3138  3.7551 -0.0313
  599MOL0     H80857  10.153   8.812   7.293  0.0204 -1.3070 -1.4759
  599MOL0     H80858  10.022   8.864   7.409 -0.1009  0.3223 -0.1320
  599MOL0     H80859  10.040   8.579   7.421 -2.1022 -0.7729 -0.5580
  599MOL0     H80860  10.054   8.625   7.254 -0.1204  0.7651 -0.7855
  599MOL0     H80861   9.802   8.683   7.423 -2.2480  0.6656 -1.0970
  599MOL0     H80862   9.838   8.592   7.274  3.6723 -1.0312 -1.2187
  599MOL0     H80863   9.791   8.995   7.131  0.6915 -1.6136 -0.7818
  599MOL0     H80864  10.512   8.875   7.374  0.1842 -0.5985 -0.9575
  599MOL0     H80865  10.561   9.041   7.210 -1.5808 -0.2217 -1.4703
  600MOL0     O80866   9.041   2.443   8.204  0.8839 -0.0432 -0.0217
  600MOL0     C80867   8.982   2.532   8.144 -0.2982  0.5429  0.2612
  600MOL0     O80868   8.931   2.644   8.198 -0.3758 -0.5333 -0.2431
  600MOL0     C80869   8.945   2.690   8.328  0.3908  0.1222 -0.4636
  600MOL0     C80870   8.951   2.827   8.339 -0.6458  0.0392 -0.2753
  600MOL0     C80871   8.954   2.879   8.469  0.0062 -0.5629  0.7500
  600MOL0     C80872   8.962   2.801   8.581 -0.4731 -0.5006  0.0574
  600MOL0     O80873   8.967   2.862   8.698 -0.0366  0.3472 -0.6427
  600MOL0     C80874   8.987   2.784   8.820 -0.2144 -0.1950  0.0191
  600MOL0     C80875   9.032   2.878   8.928  0.2692  0.1215  1.1513
  600MOL0     C80876   9.036   2.798   9.058 -0.5681  1.1182 -0.4183
  600MOL0     C80877   9.072   2.873   9.181  0.0760 -1.4188  0.1394
  600MOL0     C80878   8.957   2.959   9.244  0.0309 -0.6184  0.6836
  600MOL0     C80879   9.005   3.067   9.354 -0.1155  0.5562 -0.4606
  600MOL0     C80880   9.019   3.202   9.288  0.2340 -0.6613 -0.2091
  600MOL0     C80881   8.894   3.266   9.236  0.0797 -0.0366 -0.2431
  600MOL0     N80882   8.911   3.392   9.170 -1.2329 -0.0806 -0.1785
  600MOL0     C80883   8.967   3.381   9.045  0.1321  0.2892 -0.8073
  600MOL0     C80884   8.996   3.514   9.015 -0.1120  1.2392  0.8891
  600MOL0     C80885   9.061   3.556   8.883  0.3163  1.3532  0.2644
  600MOL0     C80886   8.971   3.639   8.804 -0.0423  0.2009 -1.2667
  600MOL0     C80887   9.045   3.722   8.707 -0.0108  0.1075  0.5530
  600MOL0     C80888   8.950   3.783   8.596  0.7770  0.5441 -1.2105
  600MOL0     O80889   9.016   3.825   8.482  0.9727  0.5085 -0.5867
  600MOL0     C80890   9.013   3.761   8.358 -0.8551  0.7538  0.2175
  600MOL0     C80891   9.115   3.817   8.286 -0.9188  0.9182 -0.5533
  600MOL0     C80892   9.141   3.772   8.157  0.6383 -0.7556  1.3912
  600MOL0     C80893   9.261   3.821   8.089  0.4023 -0.0090 -0.5533
  600MOL0     C80894   9.052   3.678   8.094 -0.6883  0.0766  0.5719
  600MOL0     C80895   9.075   3.620   7.957 -0.0310  0.4512  1.2347
  600MOL0     O80896   8.956   3.574   7.900 -0.5659  0.6058  0.1862
  600MOL0     C80897   8.959   3.520   7.778  0.1085  1.1462  0.7464
  600MOL0     C80898   8.912   3.386   7.758 -0.2495 -0.5326 -0.1164
  600MOL0     C80899   8.895   3.338   7.634 -0.6792  0.1988  0.1939
  600MOL0     C80900   8.932   3.414   7.516 -0.3769 -0.6281  0.0706
  600MOL0     O80901   8.915   3.349   7.391 -0.2765  0.3310  0.9972
  600MOL0     C80902   8.977   3.420   7.280  0.3966 -0.0199  0.3142
  600MOL0     C80903   9.006   3.318   7.171  0.3113 -0.1934  0.7136
  600MOL0     C80904   8.877   3.251   7.109  0.4231  0.6930 -1.0646
  600MOL0     C80905   8.898   3.156   6.995  0.2369 -0.1166  0.1100
  600MOL0     C80906   8.761   3.108   6.937 -0.5170 -1.0338  0.2857
  600MOL0     C80907   8.765   2.999   6.834 -1.1260  0.2873 -0.4632
  600MOL0     C80908   8.622   2.969   6.789 -0.3238  0.1663  0.7711
  600MOL0     C80909   8.577   3.062   6.664 -0.1115  0.0945 -0.7014
  600MOL0    Cl80910   8.402   3.071   6.636 -0.3050  0.0084 -0.6381
  600MOL0     C80911   8.976   3.546   7.530  0.8295 -0.2538  0.1092
  600MOL0     C80912   8.994   3.592   7.662  0.2105 -1.0389  0.5111
  600MOL0     O80913   9.182   3.632   7.895 -0.8910  0.7461 -0.2206
  600MOL0     C80914   8.939   3.636   8.169 -0.2585  1.9118 -0.6077
  600MOL0     C80915   8.932   3.666   8.305  0.0263 -0.6427 -0.1033
  600MOL0     N80916   8.932   3.590   9.105 -1.1058  0.7524 -0.0291
  600MOL0     N80917   8.888   3.524   9.204 -0.3163  0.3264 -0.7529
  600MOL0     C80918   8.973   2.664   8.568 -0.1581  0.7760  0.0206
  600MOL0     C80919   8.962   2.609   8.441  0.3329  0.3057  0.7512
  600MOL0     C80920   8.969   2.513   7.999  0.3876 -0.2270  0.7198
  600MOL0     C80921   9.055   2.430   7.925  0.2006 -0.0531  1.0685
  600MOL0     C80922   9.037   2.415   7.784 -0.0920 -0.6836  0.1276
  600MOL0     C80923   8.954   2.491   7.717  1.1306 -0.8375  0.0096
  600MOL0     O80924   8.951   2.474   7.582 -0.8559 -0.0627 -0.1144
  600MOL0     C80925   8.874   2.570   7.504  0.4723 -0.0722  0.2028
  600MOL0     C80926   8.897   2.579   7.360  0.1167  0.2932  0.1626
  600MOL0     C80927   8.865   2.433   7.314 -0.6855  0.7928  1.3296
  600MOL0     C80928   8.913   2.391   7.171  0.1843  0.7078  0.1480
  600MOL0     C80929   8.850   2.482   7.069 -1.0409  0.3919 -0.7722
  600MOL0     C80930   8.808   2.576   7.016  0.9155 -0.5828  0.3491
  600MOL0     C80931   8.865   2.566   7.792 -0.5265  0.3760 -0.5037
  600MOL0     C80932   8.875   2.586   7.922 -0.2456 -0.6137  0.8818
  600MOL0     H80933   8.941   2.887   8.249  1.1097 -2.1731 -2.0678
  600MOL0     H80934   8.956   2.987   8.483  1.7911 -0.1332 -1.9345
  600MOL0     H80935   8.901   2.733   8.863  1.8838  0.0756  5.1679
  600MOL0     H80936   9.077   2.725   8.800 -1.2312 -1.7505 -0.1634
  600MOL0     H80937   9.128   2.925   8.902 -0.5591 -0.2028 -3.3171
  600MOL0     H80938   8.951   2.950   8.937 -0.5459 -0.9076  2.4163
  600MOL0     H80939   8.940   2.749   9.075 -0.1877  1.2685  2.6587
  600MOL0     H80940   9.111   2.722   9.034 -0.5779  0.9671  0.0333
  600MOL0     H80941   9.108   2.802   9.256  2.2562 -0.1475  0.3893
  600MOL0     H80942   9.151   2.943   9.153 -2.1032  0.9885 -0.4030
  600MOL0     H80943   8.897   2.997   9.161 -0.1193 -2.3631 -0.0441
  600MOL0     H80944   8.900   2.878   9.291 -1.9467 -1.8626 -3.3530
  600MOL0     H80945   8.938   3.067   9.441 -1.5686 -0.8630 -1.5179
  600MOL0     H80946   9.104   3.052   9.396  1.6888  4.1473 -2.9107
  600MOL0     H80947   9.062   3.270   9.361  2.0279 -0.7571 -1.1136
  600MOL0     H80948   9.084   3.194   9.200 -0.5469 -1.3091 -0.7503
  600MOL0     H80949   8.839   3.295   9.326 -2.2546  0.6697 -1.8324
  600MOL0     H80950   8.825   3.202   9.180  2.1116 -4.2272  1.5597
  600MOL0     H80951   8.969   3.293   8.982 -3.6148 -0.7042  0.2067
  600MOL0     H80952   9.165   3.588   8.895  2.1462 -3.6667  0.0335
  600MOL0     H80953   9.067   3.461   8.830 -3.4693 -0.5723  2.8844
  600MOL0     H80954   8.917   3.705   8.873 -1.5753 -1.9790 -0.2855
  600MOL0     H80955   8.887   3.581   8.764 -0.8545 -0.3717  1.0973
  600MOL0     H80956   9.115   3.656   8.655  0.6352  2.1527 -1.3627
  600MOL0     H80957   9.100   3.804   8.753  2.9092 -1.5094  0.1927
  600MOL0     H80958   8.884   3.857   8.643  0.5891 -0.3945  0.0776
  600MOL0     H80959   8.877   3.710   8.562  2.4663 -1.3922 -0.8792
  600MOL0     H80960   9.155   3.908   8.329 -2.4411  1.2548  0.2183
  600MOL0     H80961   9.335   3.741   8.083 -0.5706 -0.9458 -0.3972
  600MOL0     H80962   9.230   3.850   7.988 -1.0649 -0.9622 -0.3962
  600MOL0     H80963   9.289   3.916   8.136 -2.9103  0.8762 -0.0596
  600MOL0     H80964   8.877   3.320   7.837  0.5807 -0.9196 -0.0700
  600MOL0     H80965   8.848   3.244   7.607 -4.1424  1.4505  1.2568
  600MOL0     H80966   8.922   3.510   7.251 -0.1456  0.3782  2.4327
  600MOL0     H80967   9.073   3.463   7.311  1.4182 -0.2927 -2.1766
  600MOL0     H80968   9.071   3.355   7.091 -1.7279  3.4790  0.5212
  600MOL0     H80969   9.066   3.235   7.210 -1.3643 -1.1193  1.4080
  600MOL0     H80970   8.802   3.327   7.087 -0.4433  1.4530  3.4408
  600MOL0     H80971   8.826   3.190   7.184 -0.9894  2.5467 -0.4681
  600MOL0     H80972   8.958   3.201   6.915 -2.1133  1.0643 -1.0710
  600MOL0     H80973   8.949   3.066   7.032 -2.4926 -0.8660  2.3876
  600MOL0     H80974   8.727   3.204   6.899  2.9047  0.6333  1.0026
  600MOL0     H80975   8.695   3.072   7.016  0.2514 -1.1358  0.8966
  600MOL0     H80976   8.831   3.004   6.747 -1.8069 -1.7246 -1.1334
  600MOL0     H80977   8.805   2.919   6.895 -1.5382  0.5902  0.2110
  600MOL0     H80978   8.551   2.986   6.871 -3.8929 -4.7431 -0.8357
  600MOL0     H80979   8.610   2.866   6.755 -2.2610  0.8841 -0.9422
  600MOL0     H80980   8.620   3.019   6.574 -1.9055 -1.7295 -0.7671
  600MOL0     H80981   8.623   3.161   6.674  0.3394 -0.0691 -1.1091
  600MOL0     H80982   9.007   3.609   7.447 -2.9057 -0.4900 -1.6763
  600MOL0     H80983   9.034   3.692   7.679 -1.1029 -0.2997 -0.5687
  600MOL0     H80984   8.865   3.571   8.123  0.8913 -0.2648  0.4817
  600MOL0     H80985   8.856   3.619   8.366 -1.9699 -0.7324 -2.5050
  600MOL0     H80986   9.002   2.595   8.646  0.2746  0.5783 -0.3102
  600MOL0     H80987   8.980   2.503   8.432 -0.1326  0.1732  1.2926
  600MOL0     H80988   9.138   2.370   7.961  0.9328  0.7907  0.7956
  600MOL0     H80989   9.102   2.361   7.717  0.0619 -0.2173 -0.1034
  600MOL0     H80990   8.767   2.553   7.518  0.4368  0.4438  0.5979
  600MOL0     H80991   8.881   2.672   7.543  0.0634  0.7735 -1.8059
  600MOL0     H80992   8.992   2.631   7.342 -0.6372  1.5052 -0.4665
  600MOL0     H80993   8.827   2.651   7.317  1.0997  1.2159  0.0457
  600MOL0     H80994   8.757   2.429   7.329 -1.0388 -1.7053 -1.0896
  600MOL0     H80995   8.910   2.360   7.382  1.4309  0.6898 -0.0642
  600MOL0     H80996   8.878   2.289   7.151 -0.3726  0.1341  3.5478
  600MOL0     H80997   9.021   2.395   7.182  0.3501 -2.3902  0.4973
  600MOL0     H80998   8.769   2.656   6.957 -0.3950 -1.3502  0.1451
  600MOL0     H80999   8.788   2.619   7.737  0.4181  4.1447  1.5110
  600MOL0     H81000   8.816   2.663   7.971 -3.0890 -1.6613 -0.6295
  601MOL0     O81001   1.330   5.710   2.185  0.6954 -1.4778  0.7345
  601MOL0     C81002   1.265   5.652   2.100  0.8548 -0.2015  0.3288
  601MOL0     O81003   1.172   5.553   2.140  0.5926  0.1294  0.2264
  601MOL0     C81004   1.169   5.512   2.267 -0.5241  0.6234 -0.0651
  601MOL0     C81005   1.078   5.582   2.343  0.4565  0.7284  0.5550
  601MOL0     C81006   1.059   5.554   2.483  0.7412  0.8668 -0.4532
  601MOL0     C81007   1.141   5.455   2.551  0.2458 -1.5240  0.1286
  601MOL0     O81008   1.107   5.408   2.681  0.3014 -0.6824  0.4879
  601MOL0     C81009   1.221   5.377   2.756 -0.5329 -0.3719  0.6067
  601MOL0     C81010   1.222   5.440   2.889 -0.3356 -0.2889 -1.1626
  601MOL0     C81011   1.114   5.397   2.995 -0.9799  0.2371  1.2225
  601MOL0     C81012   1.127   5.441   3.146  0.7940  0.5290  0.5856
  601MOL0     C81013   1.228   5.362   3.222 -0.5247  0.6391 -0.5138
  601MOL0     C81014   1.233   5.426   3.365  0.5961 -0.7312 -0.1800
  601MOL0     C81015   1.355   5.382   3.446 -0.2860  0.0032  0.2497
  601MOL0     C81016   1.366   5.231   3.473 -0.1028 -0.2049 -0.1613
  601MOL0     N81017   1.493   5.221   3.530  0.2438 -0.1448 -0.5744
  601MOL0     C81018   1.610   5.210   3.460 -0.7357  0.5036 -0.2090
  601MOL0     C81019   1.705   5.194   3.554  0.6970 -0.1416  0.0999
  601MOL0     C81020   1.847   5.159   3.538 -0.4731 -0.3584 -0.1175
  601MOL0     C81021   1.860   5.006   3.504  0.0107  0.1133  1.0869
  601MOL0     C81022   1.778   4.905   3.563  0.5826 -0.5459 -0.4499
  601MOL0     C81023   1.816   4.756   3.536  0.9426  0.4017 -0.2555
  601MOL0     O81024   1.756   4.713   3.412  0.0939 -0.5630  0.3044
  601MOL0     C81025   1.619   4.680   3.407 -1.2868 -0.0529 -0.3693
  601MOL0     C81026   1.542   4.704   3.523  0.0298 -0.5843 -0.3513
  601MOL0     C81027   1.405   4.672   3.534 -0.2933  0.1736  0.3123
  601MOL0     C81028   1.336   4.720   3.658 -0.3393  0.0326  1.1546
  601MOL0     C81029   1.342   4.622   3.417 -0.8843  0.2309 -0.0866
  601MOL0     C81030   1.187   4.600   3.411  0.2052 -0.2568 -0.2340
  601MOL0     O81031   1.126   4.647   3.296 -0.0288 -0.8403  0.6581
  601MOL0     C81032   0.998   4.623   3.259 -0.3001  0.3723  0.1782
  601MOL0     C81033   0.886   4.590   3.340 -0.4275  0.2931 -0.6644
  601MOL0     C81034   0.759   4.545   3.291 -0.4239  0.0742 -0.2198
  601MOL0     C81035   0.740   4.552   3.147  0.8876  0.1346 -0.4390
  601MOL0     O81036   0.621   4.509   3.102 -0.0495 -1.0253  1.1666
  601MOL0     C81037   0.571   4.558   2.972  0.2304  1.1986 -1.1316
  601MOL0     C81038   0.431   4.514   2.937 -0.6381 -0.5293  0.0722
  601MOL0     C81039   0.413   4.578   2.803 -0.1829 -0.1592 -1.2329
  601MOL0     C81040   0.285   4.520   2.735 -0.7798  1.4373  0.5294
  601MOL0     C81041   0.267   4.562   2.588  0.5285 -0.5567 -0.3287
  601MOL0     C81042   0.149   4.480   2.531 -1.0514 -0.0019 -0.4419
  601MOL0     C81043   0.016   4.525   2.595 -0.6972 -0.3634 -0.1853
  601MOL0     C81044  -0.090   4.570   2.484  0.0073 -0.9421  0.4382
  601MOL0    Cl81045  -0.234   4.629   2.579  0.3715 -0.1839 -0.0911
  601MOL0     C81046   0.846   4.599   3.071  1.1396 -0.5711  0.6947
  601MOL0     C81047   0.972   4.627   3.126 -0.2761  0.1271  0.5275
  601MOL0     O81048   1.131   4.529   3.499  0.4766  0.5532  0.2714
  601MOL0     C81049   1.423   4.599   3.297  0.0580 -0.0345 -0.0194
  601MOL0     C81050   1.556   4.627   3.290  0.7814  0.2984 -0.4711
  601MOL0     N81051   1.655   5.190   3.673 -0.0177 -0.6018  0.1787
  601MOL0     N81052   1.521   5.194   3.660  0.3098 -0.3348  0.0522
  601MOL0     C81053   1.239   5.400   2.474 -0.2009  0.4608  0.1463
  601MOL0     C81054   1.237   5.413   2.334 -0.2385 -0.7105  0.9865
  601MOL0     C81055   1.286   5.680   1.958  0.2801 -1.3447 -0.1642
  601MOL0     C81056   1.180   5.670   1.864  0.0760 -0.5636 -0.2807
  601MOL0     C81057   1.202   5.682   1.725 -0.1675  0.3747  0.5213
  601MOL0     C81058   1.332   5.694   1.677 -0.6119  0.0499  0.2302
  601MOL0     O81059   1.352   5.696   1.537  1.0097  0.5046 -0.4579
  601MOL0     C81060   1.274   5.764   1.448  0.0067 -1.0591 -0.0636
  601MOL0     C81061   1.319   5.912   1.431 -0.8724 -0.8713  0.2684
  601MOL0     C81062   1.200   6.004   1.383 -0.2808  0.7050  0.0445
  601MOL0     C81063   1.228   6.057   1.245  0.4721  0.6305 -0.0834
  601MOL0     C81064   1.129   6.170   1.235  0.4257  0.4832  0.2641
  601MOL0     C81065   1.042   6.253   1.243  0.5605  0.2826 -0.5504
  601MOL0     C81066   1.434   5.715   1.769 -0.3027  0.7016  0.3243
  601MOL0     C81067   1.406   5.708   1.904  1.1020  0.4712  0.5050
  601MOL0     H81068   1.020   5.657   2.290  2.6724  1.6017 -0.7581
  601MOL0     H81069   0.971   5.599   2.530  1.1571  1.5088 -0.2837
  601MOL0     H81070   1.225   5.268   2.766  2.5348 -0.2805  1.5874
  601MOL0     H81071   1.310   5.386   2.693 -1.2207 -3.5895 -1.0342
  601MOL0     H81072   1.324   5.434   2.929 -0.6346 -0.7604 -0.4466
  601MOL0     H81073   1.217   5.549   2.880 -0.6182 -0.1953 -0.0333
  601MOL0     H81074   1.019   5.434   2.955 -0.5075 -0.6786 -0.8572
  601MOL0     H81075   1.116   5.288   2.998  0.7485  0.2244  0.4300
  601MOL0     H81076   1.129   5.549   3.159 -1.1591  0.3845  2.5902
  601MOL0     H81077   1.031   5.418   3.191  0.5551  2.5802  1.1866
  601MOL0     H81078   1.190   5.260   3.234 -0.0170  0.1171 -2.8354
  601MOL0     H81079   1.329   5.352   3.181  1.5412 -1.1371  4.3106
  601MOL0     H81080   1.227   5.535   3.361 -1.3842 -0.8314 -1.0653
  601MOL0     H81081   1.148   5.388   3.422 -0.9663  1.4173 -0.9289
  601MOL0     H81082   1.444   5.409   3.388 -0.4919  0.9382  0.3486
  601MOL0     H81083   1.355   5.442   3.537 -1.5803 -0.0871  0.3215
  601MOL0     H81084   1.365   5.187   3.372  1.4518  3.6602 -2.0455
  601MOL0     H81085   1.287   5.194   3.539 -0.3250  1.7885  0.7630
  601MOL0     H81086   1.613   5.199   3.352 -1.0023 -2.0713 -0.0131
  601MOL0     H81087   1.895   5.219   3.460  0.3952 -1.2893 -0.3088
  601MOL0     H81088   1.910   5.178   3.626 -0.8556 -0.3156  0.1550
  601MOL0     H81089   1.967   4.989   3.519  0.5773  4.1344  2.9285
  601MOL0     H81090   1.835   5.002   3.397 -0.6378  1.5899  1.1553
  601MOL0     H81091   1.677   4.919   3.523  0.5797  0.6863 -0.0412
  601MOL0     H81092   1.770   4.914   3.672 -3.8344 -3.2155 -0.2839
  601MOL0     H81093   1.779   4.694   3.619 -2.3009  2.1781 -0.2287
  601MOL0     H81094   1.923   4.733   3.536  1.0501  0.5173  2.4398
  601MOL0     H81095   1.589   4.742   3.614  3.4152  2.2971 -2.9518
  601MOL0     H81096   1.338   4.641   3.734 -0.4283 -0.7492  0.3710
  601MOL0     H81097   1.356   4.817   3.703 -1.4398  0.5402  0.5920
  601MOL0     H81098   1.229   4.729   3.635 -1.5772  0.2037  6.0144
  601MOL0     H81099   0.893   4.563   3.445 -3.8331  0.6398 -0.2450
  601MOL0     H81100   0.692   4.503   3.365  1.2419  0.8062  1.8261
  601MOL0     H81101   0.573   4.667   2.967 -2.7188  1.6020  2.2204
  601MOL0     H81102   0.634   4.506   2.899 -1.3371 -2.5048 -0.1212
  601MOL0     H81103   0.437   4.405   2.947 -2.5890 -0.6319  0.7012
  601MOL0     H81104   0.360   4.556   3.010  0.7590 -0.9836  1.7602
  601MOL0     H81105   0.497   4.540   2.744  0.3383 -0.4095 -0.3404
  601MOL0     H81106   0.396   4.686   2.812 -0.2344 -0.3057  1.0991
  601MOL0     H81107   0.295   4.412   2.748 -2.7537  0.8059 -2.1973
  601MOL0     H81108   0.196   4.541   2.794  0.4612  1.0522  2.6587
  601MOL0     H81109   0.358   4.545   2.530  1.0531 -0.3785  0.4151
  601MOL0     H81110   0.241   4.669   2.590  1.4016 -0.3290  1.2376
  601MOL0     H81111   0.135   4.491   2.424 -1.3009  0.7845 -0.3351
  601MOL0     H81112   0.183   4.377   2.548  2.9159  1.1650 -0.3912
  601MOL0     H81113   0.037   4.610   2.661 -1.7114  0.2125 -0.5743
  601MOL0     H81114  -0.026   4.448   2.661  2.0295  0.7824  3.1879
  601MOL0     H81115  -0.119   4.489   2.416  2.2905 -1.2486 -0.2458
  601MOL0     H81116  -0.061   4.657   2.425  1.1280 -0.3075  1.8696
  601MOL0     H81117   0.832   4.602   2.963 -3.8024  1.7141  1.1337
  601MOL0     H81118   1.053   4.668   3.066 -1.6744  1.2408 -0.6780
  601MOL0     H81119   1.367   4.547   3.220  0.8714 -0.3108 -0.4487
  601MOL0     H81120   1.612   4.607   3.199  1.3445 -2.0285  0.3001
  601MOL0     H81121   1.297   5.325   2.527  0.5871  1.7183  1.0922
  601MOL0     H81122   1.314   5.367   2.273 -0.3750  1.9450 -1.3906
  601MOL0     H81123   1.081   5.634   1.890 -0.6907  0.9402 -0.9639
  601MOL0     H81124   1.116   5.674   1.660 -0.2335  2.3063  0.3127
  601MOL0     H81125   1.280   5.707   1.355  1.8329  0.0214 -0.6677
  601MOL0     H81126   1.171   5.762   1.485  0.6731  0.5521  2.1375
  601MOL0     H81127   1.402   5.908   1.360  0.5108 -3.2096  1.9275
  601MOL0     H81128   1.354   5.964   1.521 -0.0014  0.9627 -1.0583
  601MOL0     H81129   1.188   6.086   1.455 -2.4151  0.4702  0.0087
  601MOL0     H81130   1.104   5.952   1.375  0.3578 -0.4709 -0.2485
  601MOL0     H81131   1.208   5.990   1.161  2.6996  0.0038 -0.1828
  601MOL0     H81132   1.333   6.086   1.240  1.2170 -1.9957 -2.8932
  601MOL0     H81133   0.962   6.324   1.248 -2.7767 -3.2554  1.6025
  601MOL0     H81134   1.536   5.733   1.736  0.2922 -3.3048 -0.4722
  601MOL0     H81135   1.493   5.731   1.965  3.4218  1.0224 -2.7165
  602MOL0     O81136   0.249  10.420   5.130  0.5604 -0.1163  0.2760
  602MOL0     C81137   0.223  10.420   5.009  0.0645 -0.0029  0.6325
  602MOL0     O81138   0.220  10.307   4.934  0.0845  0.2749 -0.0653
  602MOL0     C81139   0.230  10.183   4.992 -0.0665  0.1979  0.2771
  602MOL0     C81140   0.112  10.101   5.007  0.3878 -0.2787 -0.1885
  602MOL0     C81141   0.124   9.971   5.075 -0.2110 -0.5828  0.3328
  602MOL0     C81142   0.239   9.916   5.120  0.9994  0.2132  0.5647
  602MOL0     O81143   0.225   9.788   5.168 -0.5840 -0.2690 -0.7711
  602MOL0     C81144   0.330   9.747   5.259 -0.4683 -0.5574  0.8500
  602MOL0     C81145   0.300   9.609   5.306  0.1314 -1.5290  0.4755
  602MOL0     C81146   0.195   9.611   5.422 -0.0984  0.1710 -0.6405
  602MOL0     C81147   0.254   9.551   5.554 -0.1687  0.3904 -0.7344
  602MOL0     C81148   0.244   9.398   5.568  0.0532  0.3476  0.8888
  602MOL0     C81149   0.341   9.349   5.671 -1.3899 -0.4325  0.8838
  602MOL0     C81150   0.333   9.192   5.671 -0.1102  0.4484 -0.0656
  602MOL0     C81151   0.412   9.147   5.793  0.0260 -0.2845  1.1652
  602MOL0     N81152   0.405   9.003   5.822  0.2447  0.1030  0.7381
  602MOL0     C81153   0.437   8.949   5.944  0.7001  0.8876 -0.6004
  602MOL0     C81154   0.454   8.815   5.912  0.1172  0.4677  0.2214
  602MOL0     C81155   0.504   8.693   5.997  0.0745  0.3896 -0.1365
  602MOL0     C81156   0.651   8.637   5.984 -0.3164 -0.9893  0.3156
  602MOL0     C81157   0.755   8.723   6.058 -0.4067 -0.1656  0.3591
  602MOL0     C81158   0.799   8.859   6.009  0.3065  1.0754  0.3914
  602MOL0     O81159   0.880   8.918   6.116  0.2983 -0.5899  0.7555
  602MOL0     C81160   0.926   9.041   6.102 -0.1214 -0.8116  0.1861
  602MOL0     C81161   1.028   9.083   6.185 -0.5269  0.4824 -1.0649
  602MOL0     C81162   1.072   9.218   6.191  0.4064  0.6520  0.2953
  602MOL0     C81163   1.171   9.247   6.291  0.3271  0.2187 -0.7470
  602MOL0     C81164   1.013   9.308   6.099  0.0217 -0.5964 -0.1532
  602MOL0     C81165   1.060   9.450   6.087 -0.3402  0.3257  0.1212
  602MOL0     O81166   1.183   9.488   6.146 -0.5589  0.4495 -0.7085
  602MOL0     C81167   1.213   9.613   6.141 -0.1777  0.2872 -0.5710
  602MOL0     C81168   1.181   9.693   6.255 -0.5422  0.4134  0.1402
  602MOL0     C81169   1.188   9.829   6.239  0.1236 -0.0049  0.2413
  602MOL0     C81170   1.241   9.891   6.125  0.4761  0.8155 -0.5954
  602MOL0     O81171   1.235  10.022   6.102 -0.2893 -0.0415  0.3850
  602MOL0     C81172   1.332  10.101   6.177 -0.0820  0.2229  0.1292
  602MOL0     C81173   1.297  10.253   6.139 -0.2178  0.0868 -0.0627
  602MOL0     C81174   1.170  10.307   6.204 -0.0017 -0.3952 -0.8454
  602MOL0     C81175   1.108  10.408   6.109  0.0621  0.3792 -0.7530
  602MOL0     C81176   0.986  10.469   6.176 -0.0595  0.2305 -0.1852
  602MOL0     C81177   0.933  10.580   6.089 -0.4118 -0.3053  0.0957
  602MOL0     C81178   0.850  10.680   6.169  0.8336  0.5977  0.4907
  602MOL0     C81179   0.837  10.827   6.110 -0.6726 -0.5950  0.2382
  602MOL0    Cl81180   1.007  10.900   6.062 -0.3009 -0.0451  0.1298
  602MOL0     C81181   1.281   9.809   6.017 -0.6238  0.3871  0.4151
  602MOL0     C81182   1.264   9.672   6.023 -0.3830  0.1441  0.1207
  602MOL0     O81183   1.006   9.526   6.000 -0.6312  0.2132 -0.2719
  602MOL0     C81184   0.922   9.257   6.008  0.8160  0.0813  0.0624
  602MOL0     C81185   0.878   9.130   6.016 -0.2452  1.0636  0.4843
  602MOL0     N81186   0.429   8.792   5.780  0.4333  0.9203  0.6642
  602MOL0     N81187   0.423   8.909   5.727 -1.4616  0.9026  0.2420
  602MOL0     C81188   0.355   9.993   5.089 -0.4134 -0.5351  0.0397
  602MOL0     C81189   0.352  10.125   5.030 -0.3973 -0.4346 -0.1110
  602MOL0     C81190   0.214  10.554   4.933  0.7828 -0.1971 -0.1765
  602MOL0     C81191   0.252  10.668   5.005 -0.2180  0.0510  0.9572
  602MOL0     C81192   0.235  10.789   4.949  0.6329 -0.4269  0.2480
  602MOL0     C81193   0.175  10.803   4.821 -0.9473 -0.3313  0.1270
  602MOL0     O81194   0.173  10.930   4.783 -0.8414 -0.0377 -0.0300
  602MOL0     C81195   0.130  10.958   4.649 -0.5138 -0.1114 -0.1889
  602MOL0     C81196   0.247  10.929   4.553 -0.0097 -0.0999  0.9336
  602MOL0     C81197   0.201  10.917   4.401  0.6028  1.0109  0.7850
  602MOL0     C81198   0.328  10.893   4.314 -0.2126 -0.6993  0.1543
  602MOL0     C81199   0.289  10.901   4.177 -0.4405  0.4007  0.1912
  602MOL0     C81200   0.267  10.922   4.058  0.2651 -0.6725 -1.0576
  602MOL0     C81201   0.143  10.688   4.747 -0.0544 -0.0878  0.5213
  602MOL0     C81202   0.155  10.567   4.805 -0.6758  0.2113 -0.7674
  602MOL0     H81203   0.013  10.128   4.973  1.0565  1.3479 -0.9394
  602MOL0     H81204   0.035   9.912   5.093 -0.8228 -0.6921 -2.6904
  602MOL0     H81205   0.424   9.738   5.203 -0.9887  3.6715 -1.0763
  602MOL0     H81206   0.340   9.812   5.346 -0.0983  0.7756 -0.1713
  602MOL0     H81207   0.256   9.546   5.228 -4.4851 -0.0254  1.5458
  602MOL0     H81208   0.399   9.567   5.329  0.9803  0.4553  0.6297
  602MOL0     H81209   0.157   9.714   5.431 -0.1128  0.3573 -2.4254
  602MOL0     H81210   0.107   9.555   5.389 -0.6688  1.2630 -1.0205
  602MOL0     H81211   0.356   9.592   5.558 -0.4519  0.9995  1.4506
  602MOL0     H81212   0.203   9.591   5.642  3.5538 -1.6032  2.6866
  602MOL0     H81213   0.140   9.373   5.590 -0.5502  2.1916  0.3516
  602MOL0     H81214   0.270   9.349   5.474 -2.6906 -0.6583  0.5797
  602MOL0     H81215   0.442   9.374   5.637 -2.0129 -1.0094 -1.5777
  602MOL0     H81216   0.319   9.391   5.770 -3.0442 -0.5510  0.5960
  602MOL0     H81217   0.226   9.174   5.688  0.3345 -1.5108  0.9101
  602MOL0     H81218   0.369   9.133   5.586  0.8401  2.1983 -0.9210
  602MOL0     H81219   0.380   9.195   5.886  1.1365  1.5881  0.6339
  602MOL0     H81220   0.519   9.160   5.774  0.3972 -1.4609  2.2698
  602MOL0     H81221   0.459   8.986   6.043  0.3184 -1.8208  0.5920
  602MOL0     H81222   0.496   8.719   6.103  1.5324 -2.5334  0.8011
  602MOL0     H81223   0.438   8.608   5.979  1.2264 -0.4368 -0.5756
  602MOL0     H81224   0.674   8.627   5.877 -1.7095  0.0466 -0.1056
  602MOL0     H81225   0.662   8.544   6.040  1.0002 -0.5308  0.8643
  602MOL0     H81226   0.844   8.663   6.077  1.7549  2.3445 -1.0865
  602MOL0     H81227   0.711   8.727   6.158 -3.6541  1.3361 -0.9867
  602MOL0     H81228   0.704   8.908   5.987 -1.7993 -3.7692 -3.4043
  602MOL0     H81229   0.843   8.835   5.912  0.1111 -1.1316  0.7985
  602MOL0     H81230   1.060   9.007   6.256  0.0564  1.6831  0.0029
  602MOL0     H81231   1.270   9.250   6.244  0.2370  1.8136 -0.8907
  602MOL0     H81232   1.144   9.334   6.352 -0.4795  1.7986 -3.1892
  602MOL0     H81233   1.174   9.160   6.357  0.5137  0.8175  0.0576
  602MOL0     H81234   1.122   9.636   6.328 -3.9165  1.3387 -1.6397
  602MOL0     H81235   1.124   9.889   6.301  0.0318  2.5192 -2.1082
  602MOL0     H81236   1.301  10.083   6.280 -0.5897 -0.9062 -0.1992
  602MOL0     H81237   1.438  10.077   6.167 -0.7356 -2.3023 -1.9632
  602MOL0     H81238   1.387  10.304   6.174  1.8195 -4.3983  2.0681
  602MOL0     H81239   1.282  10.259   6.031 -0.0056 -2.7437 -0.3261
  602MOL0     H81240   1.192  10.358   6.298 -0.5609 -0.1890 -0.8196
  602MOL0     H81241   1.092  10.231   6.220  0.2321 -0.0287  2.9243
  602MOL0     H81242   1.171  10.495   6.089 -0.2105  0.8184  0.2601
  602MOL0     H81243   1.067  10.362   6.018 -1.1506  3.7924 -2.0989
  602MOL0     H81244   1.007  10.505   6.277  3.4206  0.3999 -0.8602
  602MOL0     H81245   0.918  10.383   6.182 -0.6441  0.7631  1.1016
  602MOL0     H81246   1.009  10.642   6.041 -1.0906 -1.4993 -2.7341
  602MOL0     H81247   0.872  10.517   6.023 -0.4188 -2.2560  1.8413
  602MOL0     H81248   0.891  10.690   6.270  3.3640 -3.0937  0.0557
  602MOL0     H81249   0.756  10.626   6.183  1.7182 -1.1787 -0.0345
  602MOL0     H81250   0.801  10.887   6.193  5.7646 -1.5039  4.3762
  602MOL0     H81251   0.775  10.823   6.020 -0.9192 -3.9465  0.4168
  602MOL0     H81252   1.332   9.857   5.934  2.3176  1.2137  2.5523
  602MOL0     H81253   1.306   9.607   5.947  0.6090 -0.0885  0.8472
  602MOL0     H81254   0.880   9.315   5.926 -2.0997 -0.2883  1.1731
  602MOL0     H81255   0.793   9.107   5.952  0.6044  1.4215 -0.8178
  602MOL0     H81256   0.453   9.958   5.118  0.6775  0.3206 -2.3450
  602MOL0     H81257   0.450  10.169   5.022 -0.3207 -0.4738  0.5852
  602MOL0     H81258   0.271  10.656   5.111 -0.1117 -3.3987  0.6692
  602MOL0     H81259   0.264  10.884   4.992  0.0283 -0.2488  0.2676
  602MOL0     H81260   0.032  10.917   4.623 -0.6002 -0.2921  0.4090
  602MOL0     H81261   0.115  11.067   4.648  3.5722  0.6447 -3.1675
  602MOL0     H81262   0.295  10.834   4.576 -0.1152 -0.1709  0.8604
  602MOL0     H81263   0.320  11.010   4.547  0.9860 -1.0345  0.0599
  602MOL0     H81264   0.152  11.010   4.372 -1.0165 -0.6162 -2.2105
  602MOL0     H81265   0.133  10.833   4.391  2.2473 -0.5489  1.9080
  602MOL0     H81266   0.375  10.795   4.324 -2.1047 -1.4671  2.5083
  602MOL0     H81267   0.401  10.973   4.328 -0.1284 -0.9964  1.5260
  602MOL0     H81268   0.251  10.954   3.957  0.5742  0.8220 -0.6649
  602MOL0     H81269   0.100  10.689   4.647 -0.4756  0.0240  0.7049
  602MOL0     H81270   0.123  10.481   4.748 -1.0803  0.0472 -0.3002
  603MOL0     O81271  10.837  11.336   4.661 -0.2096  1.0867  0.6022
  603MOL0     C81272  10.924  11.316   4.745  0.1365 -0.2023  0.6211
  603MOL0     O81273  10.953  11.406   4.840 -0.8125  0.4551 -0.5416
  603MOL0     C81274  10.891  11.531   4.844 -0.0682 -0.1013  0.4515
  603MOL0     C81275  10.893  11.616   4.738  0.3450  0.5844 -0.1461
  603MOL0     C81276  10.874  11.751   4.756 -0.8150  0.0417 -0.1245
  603MOL0     C81277  10.837  11.793   4.883 -0.8418 -0.8046 -0.1116
  603MOL0     O81278  10.840  11.932   4.904  0.1312  0.3595  0.3291
  603MOL0     C81279  10.709  11.992   4.901 -0.7132 -0.8617 -0.0537
  603MOL0     C81280  10.666  12.036   5.041  0.4829  0.2977 -0.5512
  603MOL0     C81281  10.768  12.131   5.097 -0.0081 -0.1527 -0.0719
  603MOL0     C81282  10.844  12.072   5.224 -0.0657  0.0997 -0.8053
  603MOL0     C81283  10.935  12.185   5.290  0.1437  0.3749 -0.0803
  603MOL0     C81284  11.008  12.149   5.421  0.0511 -0.1191  0.3157
  603MOL0     C81285  11.069  12.276   5.474  0.1150 -0.3800  0.1904
  603MOL0     C81286  11.152  12.257   5.599 -0.7394  0.0481  0.1341
  603MOL0     N81287  11.292  12.292   5.574 -0.2587 -0.3137 -0.5603
  603MOL0     C81288  11.332  12.412   5.530 -0.7968  0.7768  0.4809
  603MOL0     C81289  11.473  12.397   5.515 -0.3025  0.7581  0.0302
  603MOL0     C81290  11.564  12.504   5.453  0.8093 -0.3038  1.0125
  603MOL0     C81291  11.624  12.453   5.323 -1.1061  0.5070  0.4016
  603MOL0     C81292  11.732  12.555   5.260  0.3963  0.4019 -0.4916
  603MOL0     C81293  11.854  12.568   5.362  0.0565  0.4378  0.6154
  603MOL0     O81294  11.971  12.617   5.289  0.6439  0.2716 -0.6079
  603MOL0     C81295  12.050  12.518   5.218  0.3453 -0.6073  0.3435
  603MOL0     C81296  12.024  12.391   5.168  0.0026 -0.5640 -0.4484
  603MOL0     C81297  12.110  12.337   5.074  0.6929 -0.4715  0.0970
  603MOL0     C81298  12.065  12.201   5.036 -0.2358 -0.1111 -0.9411
  603MOL0     C81299  12.232  12.394   5.024 -0.0438  0.0170  0.0463
  603MOL0     C81300  12.325  12.333   4.919 -0.0531 -0.1194  0.2864
  603MOL0     O81301  12.416  12.417   4.862  0.6561 -0.1437 -0.2083
  603MOL0     C81302  12.478  12.388   4.738 -0.3617 -0.1537  0.4741
  603MOL0     C81303  12.406  12.342   4.630 -0.4342  0.8302  0.1931
  603MOL0     C81304  12.463  12.325   4.507 -0.3521  0.1782 -0.4462
  603MOL0     C81305  12.608  12.345   4.492  0.0942 -0.4144  0.6530
  603MOL0     O81306  12.679  12.341   4.375  0.4698  0.7566  0.0791
  603MOL0     C81307  12.611  12.319   4.253  0.7708 -0.1764 -0.0859
  603MOL0     C81308  12.533  12.442   4.202 -0.6929  0.3271  0.6694
  603MOL0     C81309  12.627  12.561   4.227 -0.4521  0.2032  0.6582
  603MOL0     C81310  12.631  12.666   4.110 -0.0456  0.4988  0.1774
  603MOL0     C81311  12.714  12.628   3.985 -0.7956  0.0343  0.7414
  603MOL0     C81312  12.869  12.627   4.014  0.1985  0.1768  0.7969
  603MOL0     C81313  12.934  12.592   3.878 -0.5262 -0.2051  0.2384
  603MOL0     C81314  12.947  12.695   3.764  0.5098  0.2457 -0.9334
  603MOL0    Cl81315  12.985  12.613   3.607  0.0690 -0.2613 -0.4824
  603MOL0     C81316  12.682  12.385   4.601  0.2016 -0.0736  0.2098
  603MOL0     C81317  12.615  12.405   4.728  1.1588 -0.3030 -0.2124
  603MOL0     O81318  12.317  12.216   4.904 -0.5406  0.2802 -0.3910
  603MOL0     C81319  12.259  12.516   5.086  0.5113  0.6293  0.1312
  603MOL0     C81320  12.173  12.580   5.179  1.1000 -0.4613 -0.6646
  603MOL0     N81321  11.504  12.261   5.558 -0.0348  0.5195 -0.4804
  603MOL0     N81322  11.389  12.202   5.593 -0.5569 -0.6014 -0.6055
  603MOL0     C81323  10.812  11.705   4.990 -0.9980  0.5095  0.5077
  603MOL0     C81324  10.839  11.565   4.972  0.2018 -0.0517  1.0214
  603MOL0     C81325  10.994  11.190   4.748  0.0534 -0.8089 -0.7601
  603MOL0     C81326  11.086  11.164   4.852 -0.2583  0.4395  0.2007
  603MOL0     C81327  11.158  11.038   4.861  1.1326 -0.0355 -0.3243
  603MOL0     C81328  11.144  10.946   4.763  0.1609  0.3052  0.0589
  603MOL0     O81329  11.227  10.843   4.762  0.6565 -0.2686  0.1161
  603MOL0     C81330  11.237  10.776   4.884  0.3067  0.5256  0.0358
  603MOL0     C81331  11.387  10.767   4.907  0.5446 -0.0180  0.0094
  603MOL0     C81332  11.426  10.730   5.050 -0.5349 -0.1629 -0.7051
  603MOL0     C81333  11.388  10.579   5.074  0.8968 -0.5939  1.1516
  603MOL0     C81334  11.480  10.533   5.174  0.2281  1.0169  0.2977
  603MOL0     C81335  11.541  10.480   5.263 -0.6614  0.0192  0.0333
  603MOL0     C81336  11.057  10.973   4.656 -0.0922 -0.3594 -0.9682
  603MOL0     C81337  10.975  11.091   4.650  0.6422  0.8897  0.6026
  603MOL0     H81338  10.928  11.578   4.643  0.1322 -2.4847  0.8698
  603MOL0     H81339  10.899  11.822   4.678 -4.5194  1.5897 -0.0932
  603MOL0     H81340  10.709  12.085   4.844 -0.5524  0.4442  1.9915
  603MOL0     H81341  10.631  11.923   4.866  0.7766 -1.9591 -1.3890
  603MOL0     H81342  10.563  12.069   5.028 -1.1086 -2.7712  2.5385
  603MOL0     H81343  10.661  11.941   5.095 -0.5144  0.3444 -0.5482
  603MOL0     H81344  10.837  12.170   5.022 -1.3579  1.1615 -0.6823
  603MOL0     H81345  10.703  12.214   5.128  0.4769  1.4884 -3.0419
  603MOL0     H81346  10.772  12.022   5.290  3.0615 -0.1252  2.8048
  603MOL0     H81347  10.909  11.994   5.184  1.0673  1.5086 -1.8168
  603MOL0     H81348  11.006  12.221   5.214 -1.1833  1.0942 -1.0153
  603MOL0     H81349  10.870  12.267   5.322  1.6948  1.8507 -0.5144
  603MOL0     H81350  10.936  12.105   5.490 -0.0798  1.1642  1.0173
  603MOL0     H81351  11.080  12.068   5.403 -3.0257 -2.7731 -0.9859
  603MOL0     H81352  11.122  12.333   5.397 -0.1669  1.3249  1.2036
  603MOL0     H81353  10.990  12.350   5.495  2.7678  2.1457  2.1580
  603MOL0     H81354  11.137  12.151   5.621 -2.0759 -0.0507 -1.0925
  603MOL0     H81355  11.121  12.301   5.694 -0.5072 -0.4433  0.4445
  603MOL0     H81356  11.267  12.496   5.505 -1.3958 -0.2375 -1.6151
  603MOL0     H81357  11.511  12.600   5.450 -1.1878 -1.3801  0.6622
  603MOL0     H81358  11.648  12.522   5.521  1.4536 -3.1405  1.0739
  603MOL0     H81359  11.544  12.428   5.253 -0.9364  0.1561  0.3276
  603MOL0     H81360  11.684  12.363   5.340  0.6960  1.1544 -2.0916
  603MOL0     H81361  11.679  12.650   5.245  0.0632  0.6638  1.9029
  603MOL0     H81362  11.764  12.525   5.160 -2.8426  0.0277 -1.5300
  603MOL0     H81363  11.877  12.469   5.403 -1.3324 -0.6594 -1.1432
  603MOL0     H81364  11.833  12.638   5.444  4.5602  3.2389 -0.2621
  603MOL0     H81365  11.933  12.340   5.198 -0.1619  1.0989  2.1332
  603MOL0     H81366  12.110  12.122   5.097 -1.7311 -1.1287 -1.0913
  603MOL0     H81367  11.956  12.201   5.044 -0.2618 -0.2845 -1.2825
  603MOL0     H81368  12.091  12.180   4.931 -0.1682  0.5641 -1.0619
  603MOL0     H81369  12.299  12.326   4.644 -0.0811 -5.7542 -1.3088
  603MOL0     H81370  12.396  12.304   4.424 -3.7121 -0.4317  2.2128
  603MOL0     H81371  12.690  12.309   4.178 -0.0128 -1.0954 -0.8118
  603MOL0     H81372  12.544  12.233   4.254  0.8544 -0.2895 -1.7248
  603MOL0     H81373  12.515  12.431   4.095 -1.9580  0.1741  0.8795
  603MOL0     H81374  12.435  12.468   4.244 -0.9628  4.0938 -1.7883
  603MOL0     H81375  12.732  12.533   4.242 -0.2788 -1.5666 -2.8482
  603MOL0     H81376  12.598  12.609   4.321  1.0571  0.5692  0.9588
  603MOL0     H81377  12.528  12.681   4.075 -0.5610  2.0922  2.1977
  603MOL0     H81378  12.671  12.759   4.152  2.0951 -0.3971  0.2218
  603MOL0     H81379  12.692  12.692   3.899  4.6151  0.7359 -0.4716
  603MOL0     H81380  12.674  12.531   3.953 -1.3215  0.3630  0.3787
  603MOL0     H81381  12.902  12.723   4.055  0.4116  1.0153 -1.2298
  603MOL0     H81382  12.884  12.554   4.094 -2.0186 -0.1371  0.9962
  603MOL0     H81383  12.887  12.503   3.835 -4.5856  2.5688 -1.7810
  603MOL0     H81384  13.038  12.571   3.903 -0.8532 -0.3993  1.5347
  603MOL0     H81385  13.025  12.765   3.793 -0.8557  1.3297  0.3290
  603MOL0     H81386  12.855  12.754   3.761  0.0489 -0.4813 -1.5495
  603MOL0     H81387  12.788  12.403   4.583  0.1241  0.4106  0.2192
  603MOL0     H81388  12.675  12.456   4.802  2.7206  0.7892 -2.1427
  603MOL0     H81389  12.357  12.561   5.069  1.1442  0.0936  2.0811
  603MOL0     H81390  12.186  12.674   5.231 -2.6283 -1.2781  2.2674
  603MOL0     H81391  10.785  11.750   5.085  1.1042  2.0447  0.4566
  603MOL0     H81392  10.815  11.508   5.061 -0.3577  0.1415  1.0000
  603MOL0     H81393  11.109  11.243   4.923  1.3334 -0.2732  0.5103
  603MOL0     H81394  11.224  11.028   4.946  1.2869  0.1782 -0.4191
  603MOL0     H81395  11.183  10.813   4.972 -1.1303  2.2056 -1.4575
  603MOL0     H81396  11.194  10.675   4.880 -3.1631  1.6851  2.7671
  603MOL0     H81397  11.430  10.867   4.902  0.1866  0.1546  0.2969
  603MOL0     H81398  11.434  10.694   4.841 -1.3363 -0.1138 -1.3348
  603MOL0     H81399  11.369  10.791   5.121 -2.3455 -2.5572  0.0211
  603MOL0     H81400  11.535  10.740   5.057 -0.3302 -0.9849 -2.4005
  603MOL0     H81401  11.392  10.509   4.991 -0.0581 -3.0853  3.0661
  603MOL0     H81402  11.281  10.580   5.098  0.0554  1.4268 -2.0947
  603MOL0     H81403  11.581  10.451   5.358 -2.0834 -1.5528  0.2016
  603MOL0     H81404  11.058  10.897   4.578  0.8315 -0.7713 -0.5682
  603MOL0     H81405  10.903  11.103   4.569  4.1317  3.1917 -2.4384
  604MOL0     O81406   9.081   0.351   8.942 -0.3489  0.8261  0.0443
  604MOL0     C81407   9.118   0.337   9.059  0.5801  0.0886 -0.1739
  604MOL0     O81408   9.038   0.336   9.169  0.2479  0.4928 -0.1974
  604MOL0     C81409   8.902   0.351   9.164  0.3952 -0.3958  0.8768
  604MOL0     C81410   8.839   0.479   9.166  0.1568 -0.0639  0.5564
  604MOL0     C81411   8.698   0.493   9.179 -0.4115  0.1404 -0.9768
  604MOL0     C81412   8.615   0.386   9.198 -1.1930  0.4396 -0.2126
  604MOL0     O81413   8.489   0.424   9.234  0.0688 -0.2265  0.9442
  604MOL0     C81414   8.388   0.325   9.260 -0.0184 -0.3169 -0.1916
  604MOL0     C81415   8.292   0.369   9.374  0.8637 -0.7883 -0.6684
  604MOL0     C81416   8.351   0.393   9.508  0.0756  0.2833 -0.5457
  604MOL0     C81417   8.394   0.257   9.560  0.4015 -0.1449 -0.0633
  604MOL0     C81418   8.441   0.268   9.703  0.7740  0.3373  0.0002
  604MOL0     C81419   8.468   0.124   9.750  0.5984 -0.0537  0.6465
  604MOL0     C81420   8.513   0.124   9.897  0.4887 -0.1037 -0.3592
  604MOL0     C81421   8.572  -0.008   9.942 -0.8464  0.1253  0.8682
  604MOL0     N81422   8.473  -0.099   9.992 -0.2712 -0.8425  0.3834
  604MOL0     C81423   8.486  -0.236   9.966  0.9209  0.3160  0.4494
  604MOL0     C81424   8.421  -0.288  10.072  0.0954 -1.3011  1.2448
  604MOL0     C81425   8.412  -0.430  10.128  0.1344 -0.4212 -0.3226
  604MOL0     C81426   8.546  -0.469  10.186  0.2561  0.8132 -0.3459
  604MOL0     C81427   8.667  -0.488  10.094  0.0780 -0.0285 -0.2282
  604MOL0     C81428   8.791  -0.546  10.171  0.7430  0.0615  0.3229
  604MOL0     O81429   8.885  -0.580  10.071 -0.2913  0.1940  0.4013
  604MOL0     C81430   8.985  -0.664  10.103  1.2360 -0.1169  0.9124
  604MOL0     C81431   8.987  -0.749  10.210  0.7735 -1.2461 -0.3179
  604MOL0     C81432   9.104  -0.817  10.242  0.2765  0.1208  0.5837
  604MOL0     C81433   9.103  -0.917  10.365 -0.3798  0.0254  0.3767
  604MOL0     C81434   9.215  -0.808  10.158  0.3495  0.7018  0.1513
  604MOL0     C81435   9.346  -0.874  10.178 -0.4715  0.3128 -0.9386
  604MOL0     O81436   9.385  -0.915  10.305 -0.1918 -0.6740  0.3584
  604MOL0     C81437   9.490  -1.001  10.308  0.7828  0.6905 -0.0857
  604MOL0     C81438   9.602  -0.969  10.394 -0.0616  0.8925 -0.2526
  604MOL0     C81439   9.703  -1.055  10.424 -0.4959 -0.0322  0.7232
  604MOL0     C81440   9.706  -1.170  10.352 -0.4316 -0.7483 -0.8696
  604MOL0     O81441   9.814  -1.246  10.376 -0.3704  0.1153 -0.8930
  604MOL0     C81442   9.802  -1.388  10.383  0.0834  0.4945 -0.2958
  604MOL0     C81443   9.907  -1.435  10.472 -0.5536 -0.5205 -0.3017
  604MOL0     C81444   9.921  -1.586  10.458 -0.0935 -0.4624 -0.2779
  604MOL0     C81445  10.045  -1.640  10.535  0.0437  1.3180  0.4223
  604MOL0     C81446  10.039  -1.801  10.547 -0.2741  0.3096  0.2221
  604MOL0     C81447  10.091  -1.856  10.682  0.1487  0.1080 -0.2679
  604MOL0     C81448  10.075  -2.007  10.691 -0.1892  0.4403  0.8127
  604MOL0     C81449  10.075  -2.052  10.842  0.1838  0.9221  0.5160
  604MOL0    Cl81450  10.005  -2.217  10.846  0.1783 -0.1329  0.3451
  604MOL0     C81451   9.604  -1.209  10.266 -0.4234  0.3249 -0.4148
  604MOL0     C81452   9.491  -1.135  10.238  1.8525 -0.3234  0.3232
  604MOL0     O81453   9.421  -0.893  10.077  0.6387 -0.0064  0.3601
  604MOL0     C81454   9.204  -0.718  10.048 -1.1179 -0.0549  0.2559
  604MOL0     C81455   9.093  -0.638  10.026 -0.5934 -0.3172 -0.1220
  604MOL0     N81456   8.368  -0.186  10.145  1.1661  0.0982 -0.1579
  604MOL0     N81457   8.402  -0.078  10.099  0.8034  0.3692  0.6137
  604MOL0     C81458   8.671   0.262   9.188  0.1681  0.8340 -0.6994
  604MOL0     C81459   8.810   0.237   9.176 -0.6228 -0.1801 -0.3039
  604MOL0     C81460   9.257   0.312   9.077  0.4029  0.0211  0.7891
  604MOL0     C81461   9.354   0.351   8.981 -1.1496 -1.0549 -0.4592
  604MOL0     C81462   9.493   0.316   9.005  0.3381  0.8744  0.6486
  604MOL0     C81463   9.531   0.244   9.119 -0.5544 -0.0694  0.3214
  604MOL0     O81464   9.654   0.202   9.149 -0.5605  0.6858 -0.7222
  604MOL0     C81465   9.746   0.220   9.046  0.2084 -0.4052  0.6957
  604MOL0     C81466   9.884   0.163   9.082  0.2497  1.2136 -0.3173
  604MOL0     C81467   9.878  -0.003   9.082  0.9096 -0.0076 -0.2240
  604MOL0     C81468   9.780  -0.065   9.194 -0.0362 -0.1610  0.2942
  604MOL0     C81469   9.767  -0.206   9.167  1.0102 -0.8890 -0.0898
  604MOL0     C81470   9.747  -0.322   9.134  1.1818 -0.6486  0.1139
  604MOL0     C81471   9.425   0.191   9.195 -1.1369 -0.3528 -0.1171
  604MOL0     C81472   9.300   0.236   9.184  0.6779 -1.1066  0.0577
  604MOL0     H81473   8.899   0.564   9.139  2.8307 -1.0784  2.8280
  604MOL0     H81474   8.649   0.590   9.170 -1.3447 -0.2598 -0.3831
  604MOL0     H81475   8.326   0.320   9.171 -2.8774 -4.4275  1.7105
  604MOL0     H81476   8.428   0.223   9.270  2.5006  0.2432 -3.0978
  604MOL0     H81477   8.254   0.465   9.340  0.3933  0.3087  2.6225
  604MOL0     H81478   8.203   0.305   9.378  0.4504 -0.2332 -0.8921
  604MOL0     H81479   8.438   0.455   9.487  0.8542 -0.6960 -0.2401
  604MOL0     H81480   8.284   0.444   9.578 -3.3472 -2.3970 -1.5817
  604MOL0     H81481   8.311   0.185   9.558 -1.0614  1.3019  2.5090
  604MOL0     H81482   8.480   0.224   9.502  1.9391  2.5934  0.4808
  604MOL0     H81483   8.527   0.334   9.719  1.0545 -0.6239  3.1832
  604MOL0     H81484   8.360   0.304   9.767 -0.1362 -4.1370  1.6966
  604MOL0     H81485   8.369   0.077   9.751 -0.9414  2.6747 -2.5672
  604MOL0     H81486   8.539   0.072   9.684  2.8123  2.4060  0.9377
  604MOL0     H81487   8.594   0.193   9.922 -0.0148  1.0460 -1.7325
  604MOL0     H81488   8.440   0.169   9.964  1.1722 -1.4583  1.3606
  604MOL0     H81489   8.643   0.010  10.023  4.6658  1.8767 -3.7518
  604MOL0     H81490   8.626  -0.049   9.857  0.0988  0.4382  1.3086
  604MOL0     H81491   8.541  -0.288   9.889 -0.6885  0.0822 -0.5971
  604MOL0     H81492   8.334  -0.438  10.205 -0.7885  0.7824 -1.0808
  604MOL0     H81493   8.386  -0.514  10.063 -0.9054 -0.4394  0.0939
  604MOL0     H81494   8.529  -0.569  10.226 -1.9449  1.1767 -0.2146
  604MOL0     H81495   8.570  -0.401  10.268  0.7813  2.5076 -1.8464
  604MOL0     H81496   8.691  -0.390  10.052  0.6027 -1.0360 -2.4464
  604MOL0     H81497   8.637  -0.561  10.019 -0.4108  0.6309 -0.6794
  604MOL0     H81498   8.751  -0.635  10.220  0.4806  1.9261  3.7822
  604MOL0     H81499   8.836  -0.483  10.249  1.8412 -1.1806  0.7347
  604MOL0     H81500   8.894  -0.770  10.262  1.1656 -0.7751  0.5960
  604MOL0     H81501   9.180  -0.897  10.441 -0.7262 -3.0511  1.6923
  604MOL0     H81502   9.007  -0.919  10.417  1.2334  0.5264  3.6772
  604MOL0     H81503   9.132  -1.016  10.330  2.5373 -0.2540  3.0896
  604MOL0     H81504   9.582  -0.878  10.449  4.3598  1.3040  1.0140
  604MOL0     H81505   9.772  -1.025  10.502  0.7468  1.8907 -1.0388
  604MOL0     H81506   9.706  -1.427  10.418 -0.6614  0.3140 -2.4124
  604MOL0     H81507   9.812  -1.415  10.277 -0.4893  2.2061 -0.8224
  604MOL0     H81508   9.999  -1.384  10.443 -0.9844  1.4039  1.5492
  604MOL0     H81509   9.892  -1.398  10.573 -0.6952  2.5157 -1.3178
  604MOL0     H81510   9.919  -1.607  10.350  0.1893 -1.1198 -0.1652
  604MOL0     H81511   9.830  -1.625  10.505 -2.4731 -0.8492 -4.6275
  604MOL0     H81512  10.139  -1.616  10.485  1.1550 -0.9802  1.2493
  604MOL0     H81513  10.049  -1.586  10.630  1.3368  2.5922 -0.3101
  604MOL0     H81514  10.101  -1.840  10.465 -1.0322  1.2048 -0.8100
  604MOL0     H81515   9.940  -1.843  10.526 -0.8264  1.2229  0.9294
  604MOL0     H81516  10.195  -1.826  10.695  0.2019 -0.7208  1.4733
  604MOL0     H81517  10.030  -1.805  10.757 -0.1874  1.0638 -1.1598
  604MOL0     H81518  10.154  -2.055  10.632 -0.8666 -3.4953  2.7998
  604MOL0     H81519   9.973  -2.027  10.656 -0.8615  1.7009  1.9380
  604MOL0     H81520  10.025  -1.989  10.916 -1.3247  0.5518 -0.1507
  604MOL0     H81521  10.181  -2.046  10.870  1.0255 -0.6338 -1.9154
  604MOL0     H81522   9.630  -1.298  10.210  0.0463  2.0637 -3.1670
  604MOL0     H81523   9.408  -1.155  10.171 -0.4443  3.4027  1.7636
  604MOL0     H81524   9.296  -0.700   9.993  0.5655 -1.7912  2.2807
  604MOL0     H81525   9.091  -0.566   9.944  0.7430  0.4588  0.5066
  604MOL0     H81526   8.613   0.171   9.196 -0.2433  1.2564  2.0642
  604MOL0     H81527   8.861   0.141   9.173  0.7195  0.5200 -2.8608
  604MOL0     H81528   9.331   0.402   8.888 -2.1578 -2.0602 -0.7728
  604MOL0     H81529   9.563   0.334   8.925  0.4427 -1.7611  0.0499
  604MOL0     H81530   9.718   0.184   8.947  1.4264  0.1601  0.1279
  604MOL0     H81531   9.765   0.327   9.042  2.8243 -0.6877  2.6398
  604MOL0     H81532   9.928   0.206   9.173 -1.0993 -0.0045  0.9689
  604MOL0     H81533   9.949   0.193   8.999  0.3612  2.7315  0.2967
  604MOL0     H81534   9.976  -0.043   9.110  0.5830  0.1308  1.1807
  604MOL0     H81535   9.837  -0.040   8.987 -1.3621  3.3259 -0.6937
  604MOL0     H81536   9.681  -0.019   9.203 -0.4085 -0.9326  0.2993
  604MOL0     H81537   9.828  -0.040   9.289 -2.1186  1.9773  0.8780
  604MOL0     H81538   9.731  -0.418   9.089  0.4622 -1.7209  2.4711
  604MOL0     H81539   9.448   0.119   9.273 -1.6831  2.0340  2.3634
  604MOL0     H81540   9.224   0.201   9.254  0.7819 -0.8782  0.2844
  605MOL0     O81541   5.273   6.362   0.483  0.0591  0.2002 -0.4662
  605MOL0     C81542   5.320   6.440   0.565  0.6775  0.1023  0.2927
  605MOL0     O81543   5.382   6.553   0.534 -0.6781  0.6416 -0.4078
  605MOL0     C81544   5.398   6.600   0.399  0.4032 -0.0242 -0.7051
  605MOL0     C81545   5.306   6.694   0.353 -0.1164 -0.4477 -0.8663
  605MOL0     C81546   5.316   6.745   0.220 -0.8179  0.1508 -0.4375
  605MOL0     C81547   5.420   6.691   0.145 -0.1583 -0.5193  0.6820
  605MOL0     O81548   5.456   6.732   0.021 -0.8631 -0.1211 -0.1523
  605MOL0     C81549   5.358   6.797  -0.056 -0.2598  0.1293 -0.6228
  605MOL0     C81550   5.401   6.785  -0.196 -0.0513 -0.0512 -0.5977
  605MOL0     C81551   5.521   6.877  -0.227  0.1816 -0.0421  0.5796
  605MOL0     C81552   5.558   6.849  -0.377  0.0481  0.1651 -0.0458
  605MOL0     C81553   5.654   6.960  -0.421 -0.7793 -0.5093  0.3088
  605MOL0     C81554   5.680   6.952  -0.578 -0.4303 -0.3730 -0.6297
  605MOL0     C81555   5.771   7.065  -0.644 -0.2466 -0.2347  0.3661
  605MOL0     C81556   5.795   7.045  -0.786  0.4297 -0.4672 -1.2733
  605MOL0     N81557   5.917   6.973  -0.812 -0.3285  0.3805  0.3779
  605MOL0     C81558   5.944   6.839  -0.812 -0.3402 -0.7905  0.1415
  605MOL0     C81559   6.061   6.836  -0.877  0.2123  0.3881 -0.1200
  605MOL0     C81560   6.139   6.703  -0.887  0.2622  0.4956 -0.4998
  605MOL0     C81561   6.262   6.714  -0.977  0.3342  0.5836 -0.7167
  605MOL0     C81562   6.234   6.736  -1.127 -0.0646  0.0938  0.2794
  605MOL0     C81563   6.347   6.768  -1.220  0.0868  0.2725 -0.6198
  605MOL0     O81564   6.442   6.650  -1.214  0.4766  0.7128 -0.4782
  605MOL0     C81565   6.546   6.639  -1.298 -0.0222  0.2415  0.1959
  605MOL0     C81566   6.563   6.699  -1.420 -0.6800  0.5893  0.0684
  605MOL0     C81567   6.672   6.691  -1.505  1.1779  0.4907  0.3380
  605MOL0     C81568   6.661   6.783  -1.627 -0.0232 -0.3292 -0.0937
  605MOL0     C81569   6.777   6.600  -1.476  0.0679 -0.3635  0.1287
  605MOL0     C81570   6.902   6.582  -1.562  0.1283 -0.3278  0.4161
  605MOL0     O81571   6.928   6.675  -1.662  0.2707  0.7534 -0.5510
  605MOL0     C81572   7.037   6.670  -1.745  0.4992 -0.4539 -0.1962
  605MOL0     C81573   7.079   6.795  -1.800 -0.2673 -0.2503  0.1748
  605MOL0     C81574   7.187   6.794  -1.886 -0.9253 -0.0294 -0.0458
  605MOL0     C81575   7.250   6.672  -1.927  0.0233  0.2179 -0.0245
  605MOL0     O81576   7.340   6.682  -2.029  0.6405 -0.4321 -1.1809
  605MOL0     C81577   7.341   6.567  -2.107 -0.4653  0.6364 -0.0955
  605MOL0     C81578   7.419   6.594  -2.238 -1.1196  0.5436 -1.0816
  605MOL0     C81579   7.568   6.578  -2.205 -0.5410 -0.7299 -1.2130
  605MOL0     C81580   7.622   6.700  -2.126  0.1282  1.3203 -0.6527
  605MOL0     C81581   7.761   6.728  -2.169  0.4663 -0.3217 -0.4361
  605MOL0     C81582   7.813   6.849  -2.101  0.4171 -0.2311 -0.1400
  605MOL0     C81583   7.900   6.928  -2.204 -0.9530  0.3488 -0.4914
  605MOL0     C81584   7.999   7.033  -2.129  0.2694  1.6097  0.4191
  605MOL0    Cl81585   7.913   7.193  -2.139  0.6163 -0.3348 -0.0465
  605MOL0     C81586   7.204   6.551  -1.869 -0.1303 -0.3869 -0.1480
  605MOL0     C81587   7.091   6.551  -1.794 -0.1460  0.4738 -0.5508
  605MOL0     O81588   6.960   6.475  -1.539  0.4911 -0.8761 -0.3610
  605MOL0     C81589   6.761   6.526  -1.355  0.0221 -0.2878 -0.1045
  605MOL0     C81590   6.643   6.550  -1.270  0.5683 -0.0272 -0.1275
  605MOL0     N81591   6.110   6.960  -0.910 -0.3715  0.0768  0.3674
  605MOL0     N81592   6.015   7.047  -0.882  0.6083  1.2386  0.8195
  605MOL0     C81593   5.514   6.597   0.198 -0.3789 -0.5909  0.2603
  605MOL0     C81594   5.497   6.548   0.322  0.5354 -0.3855  0.6553
  605MOL0     C81595   5.329   6.388   0.705  0.6074 -0.5751 -0.7162
  605MOL0     C81596   5.382   6.464   0.811  0.2048 -0.7921  0.4310
  605MOL0     C81597   5.412   6.403   0.936 -0.4701 -0.0697 -0.5208
  605MOL0     C81598   5.383   6.264   0.958  0.4780 -0.7851 -0.1974
  605MOL0     O81599   5.430   6.211   1.074  0.2037  0.4205  0.4281
  605MOL0     C81600   5.470   6.073   1.081 -0.8554  0.6270 -0.4150
  605MOL0     C81601   5.506   6.037   1.226 -0.4351  0.5283  0.2522
  605MOL0     C81602   5.392   6.063   1.324 -0.9306  0.0070  0.6910
  605MOL0     C81603   5.423   6.038   1.474 -0.3348  0.1487  0.4936
  605MOL0     C81604   5.536   6.115   1.535 -0.3342 -1.1686 -0.0135
  605MOL0     C81605   5.636   6.158   1.596  0.0829 -0.0221 -1.0686
  605MOL0     C81606   5.325   6.190   0.853  0.1266  0.8883  0.1227
  605MOL0     C81607   5.287   6.257   0.733 -0.1582  0.4165 -0.4933
  605MOL0     H81608   5.232   6.730   0.424  0.7222  0.9106 -0.6433
  605MOL0     H81609   5.253   6.826   0.184 -0.9881  0.2999  0.1827
  605MOL0     H81610   5.264   6.741  -0.054 -0.9899  1.3618  0.3167
  605MOL0     H81611   5.348   6.902  -0.030  4.3527  0.5493  0.2292
  605MOL0     H81612   5.447   6.686  -0.197  0.3254 -0.0071  2.8424
  605MOL0     H81613   5.320   6.795  -0.269  0.2764 -1.3244 -1.1706
  605MOL0     H81614   5.495   6.982  -0.207 -1.8387 -0.8213  2.5935
  605MOL0     H81615   5.614   6.853  -0.175  1.1649 -2.0577 -1.9035
  605MOL0     H81616   5.608   6.752  -0.379  0.1547  0.2244 -0.5526
  605MOL0     H81617   5.474   6.842  -0.447 -2.6024  4.7437  2.2001
  605MOL0     H81618   5.625   7.056  -0.378 -1.2213 -0.8299  0.7279
  605MOL0     H81619   5.750   6.936  -0.373 -0.7586  0.9203  1.0298
  605MOL0     H81620   5.724   6.855  -0.602  1.6781  0.7288 -1.4441
  605MOL0     H81621   5.577   6.955  -0.616 -0.7162  2.8223  0.1065
  605MOL0     H81622   5.720   7.160  -0.623 -1.1195 -0.3576 -1.0486
  605MOL0     H81623   5.865   7.079  -0.590  0.7846  2.4594 -1.8557
  605MOL0     H81624   5.799   7.143  -0.833  1.4873 -0.4274 -1.1086
  605MOL0     H81625   5.708   6.991  -0.827 -1.5652 -0.2048  2.1999
  605MOL0     H81626   5.894   6.750  -0.774  1.8533 -2.4115 -0.5728
  605MOL0     H81627   6.181   6.694  -0.786 -0.6200 -0.6670 -0.2068
  605MOL0     H81628   6.080   6.618  -0.921 -0.8627  1.9013 -2.2137
  605MOL0     H81629   6.313   6.618  -0.968 -0.6052  0.2236  1.2751
  605MOL0     H81630   6.338   6.782  -0.935 -0.0148 -0.9985  2.8467
  605MOL0     H81631   6.166   6.821  -1.141 -1.5660 -1.0011  0.6334
  605MOL0     H81632   6.176   6.648  -1.156  2.9031 -1.4029 -1.6122
  605MOL0     H81633   6.394   6.857  -1.179  1.8898  0.3652 -2.6897
  605MOL0     H81634   6.317   6.787  -1.324  2.0872 -1.7237 -1.6617
  605MOL0     H81635   6.494   6.780  -1.443 -1.4086  0.0617  0.3413
  605MOL0     H81636   6.639   6.728  -1.718 -0.9741  0.9759 -0.6876
  605MOL0     H81637   6.595   6.862  -1.589  0.5451  0.9897 -1.7333
  605MOL0     H81638   6.749   6.845  -1.647  0.4514 -1.0019 -0.1147
  605MOL0     H81639   7.032   6.890  -1.778  1.5878  0.3863  1.6979
  605MOL0     H81640   7.232   6.889  -1.913 -1.8820  0.9553  1.6321
  605MOL0     H81641   7.375   6.474  -2.062 -0.4270  1.3136  1.3561
  605MOL0     H81642   7.239   6.546  -2.140 -0.2334  0.4956 -0.7202
  605MOL0     H81643   7.385   6.520  -2.312  1.2696 -2.3303  0.4512
  605MOL0     H81644   7.394   6.690  -2.284  0.1856  0.2399 -2.4698
  605MOL0     H81645   7.621   6.573  -2.301  3.7403  0.9998  0.7943
  605MOL0     H81646   7.586   6.487  -2.148  0.6549  0.5456  0.5704
  605MOL0     H81647   7.567   6.793  -2.145  0.8328  1.6838 -0.9622
  605MOL0     H81648   7.624   6.671  -2.021  0.3918  1.0973 -0.7183
  605MOL0     H81649   7.768   6.736  -2.278 -0.8663 -0.5158 -0.5482
  605MOL0     H81650   7.817   6.639  -2.138 -0.5896 -0.5836  0.7871
  605MOL0     H81651   7.733   6.907  -2.054  0.7579 -1.2887  1.8931
  605MOL0     H81652   7.865   6.828  -2.007  0.6286 -0.6396 -0.3430
  605MOL0     H81653   7.838   6.983  -2.275 -1.8237 -1.0574 -0.8633
  605MOL0     H81654   7.966   6.862  -2.261 -1.2576  0.7740 -1.3449
  605MOL0     H81655   8.088   7.027  -2.192  1.7873 -2.9008  2.5112
  605MOL0     H81656   8.026   7.001  -2.027  0.5093 -0.2124 -0.1716
  605MOL0     H81657   7.260   6.460  -1.888  2.2686  0.8512  0.6398
  605MOL0     H81658   7.052   6.457  -1.759 -0.3709  0.4079 -0.9723
  605MOL0     H81659   6.839   6.457  -1.324  0.0397 -0.6720 -0.9696
  605MOL0     H81660   6.642   6.497  -1.175 -2.1829  1.7185  0.9451
  605MOL0     H81661   5.602   6.570   0.140 -0.5042 -1.0755  0.2861
  605MOL0     H81662   5.555   6.468   0.367 -2.4231 -2.8310  0.4257
  605MOL0     H81663   5.417   6.563   0.785  1.7012 -1.2638  0.5502
  605MOL0     H81664   5.468   6.446   1.018 -2.4077 -3.1281  2.6822
  605MOL0     H81665   5.389   6.009   1.043 -2.5319  2.9436 -0.9830
  605MOL0     H81666   5.557   6.067   1.015 -1.1905  1.0948 -0.9111
  605MOL0     H81667   5.589   6.096   1.264 -0.2903 -0.6960  2.0022
  605MOL0     H81668   5.539   5.933   1.238 -2.4193 -0.2403 -0.4185
  605MOL0     H81669   5.327   5.980   1.298  2.6871 -2.6591 -0.6480
  605MOL0     H81670   5.345   6.161   1.310 -0.6679 -0.1252 -1.4103
  605MOL0     H81671   5.437   5.930   1.483 -4.6385 -0.7664 -0.9265
  605MOL0     H81672   5.332   6.065   1.529  0.1207 -1.9681  2.4223
  605MOL0     H81673   5.726   6.177   1.651 -1.3045 -0.0158  1.3394
  605MOL0     H81674   5.276   6.094   0.863 -1.0802  1.4470 -0.2310
  605MOL0     H81675   5.243   6.205   0.648 -2.4999 -0.4269  1.1604
  606MOL0     O81676   1.872   4.235   7.229  0.0055  0.0117  0.7337
  606MOL0     C81677   1.953   4.326   7.270 -0.9107  0.1917  0.4898
  606MOL0     O81678   1.956   4.451   7.216 -0.3151 -0.3785  0.3193
  606MOL0     C81679   1.888   4.475   7.094  0.2405  0.2506 -1.0188
  606MOL0     C81680   1.762   4.524   7.096  0.0844 -0.9950  0.0219
  606MOL0     C81681   1.691   4.549   6.976  0.0499  0.7233  0.3415
  606MOL0     C81682   1.768   4.531   6.849  1.4640  0.1990 -0.1280
  606MOL0     O81683   1.687   4.539   6.729 -0.4916 -0.0393  0.1720
  606MOL0     C81684   1.765   4.527   6.603  1.0262 -0.5368 -0.4893
  606MOL0     C81685   1.652   4.520   6.495  0.6059  0.2638  0.7668
  606MOL0     C81686   1.547   4.628   6.495  1.0609  0.2064  1.3074
  606MOL0     C81687   1.600   4.769   6.517  0.1684 -0.9713 -0.2876
  606MOL0     C81688   1.529   4.851   6.412 -0.3675  0.1451 -0.2882
  606MOL0     C81689   1.595   4.996   6.420 -0.1056 -0.1996 -0.9990
  606MOL0     C81690   1.531   5.097   6.325 -0.6471 -0.0583  0.0820
  606MOL0     C81691   1.418   5.167   6.394 -0.0860  0.4160  0.6944
  606MOL0     N81692   1.337   5.265   6.315  0.2707  0.6153  0.3669
  606MOL0     C81693   1.240   5.239   6.227 -0.7016  0.1965 -0.1609
  606MOL0     C81694   1.206   5.359   6.184 -0.9051  0.7184 -0.5594
  606MOL0     C81695   1.128   5.384   6.062 -0.2176  0.0828  0.6555
  606MOL0     C81696   1.196   5.468   5.959  0.2280  0.3194 -0.7179
  606MOL0     C81697   1.307   5.397   5.889 -0.4656 -0.3851  0.3891
  606MOL0     C81698   1.343   5.455   5.753  0.2036 -0.8449  0.0425
  606MOL0     O81699   1.356   5.605   5.768  0.2781  0.3073  0.4029
  606MOL0     C81700   1.414   5.670   5.660 -0.1981 -0.1143 -0.2782
  606MOL0     C81701   1.419   5.619   5.534  0.3199 -0.9818 -0.7363
  606MOL0     C81702   1.494   5.685   5.428  0.1257 -0.3195  0.1447
  606MOL0     C81703   1.497   5.615   5.296 -0.3085 -0.9797 -0.6987
  606MOL0     C81704   1.583   5.794   5.457 -1.1592 -0.2877 -0.0504
  606MOL0     C81705   1.679   5.866   5.373 -0.1574  0.4516 -0.8782
  606MOL0     O81706   1.672   5.866   5.236  0.0059 -0.0240 -0.0232
  606MOL0     C81707   1.759   5.947   5.164  0.8132 -0.1173 -0.7226
  606MOL0     C81708   1.880   5.897   5.136  0.3994 -0.4730 -0.7542
  606MOL0     C81709   1.985   5.976   5.090 -0.3846 -0.8338  0.2266
  606MOL0     C81710   1.959   6.104   5.045  0.4655  0.6878  0.7139
  606MOL0     O81711   2.050   6.179   4.972  0.5381 -0.2251 -0.0740
  606MOL0     C81712   2.174   6.119   4.934 -0.2103 -0.0200  0.8670
  606MOL0     C81713   2.247   6.220   4.829 -0.2777  1.1851 -0.3292
  606MOL0     C81714   2.371   6.287   4.890 -0.9632  0.0590  0.8991
  606MOL0     C81715   2.495   6.190   4.859  0.6243  1.3979 -0.0526
  606MOL0     C81716   2.623   6.259   4.878 -0.6295 -0.5237  0.1823
  606MOL0     C81717   2.730   6.159   4.829 -0.1293 -0.3408 -0.3585
  606MOL0     C81718   2.868   6.218   4.786 -0.5517  0.7769  0.2983
  606MOL0     C81719   2.871   6.362   4.720  0.3713  0.5628 -0.0698
  606MOL0    Cl81720   2.757   6.392   4.579 -0.0999 -0.5273 -0.3238
  606MOL0     C81721   1.833   6.157   5.077  1.0497 -0.3503 -1.1467
  606MOL0     C81722   1.730   6.084   5.148  0.0382 -0.8772  0.0906
  606MOL0     O81723   1.777   5.909   5.435  0.0497  0.4389 -0.1446
  606MOL0     C81724   1.572   5.842   5.597  0.2146 -1.1338  0.3425
  606MOL0     C81725   1.480   5.791   5.686  0.0298 -0.0811  0.3557
  606MOL0     N81726   1.276   5.457   6.244  0.1175  0.4233 -0.7491
  606MOL0     N81727   1.357   5.398   6.319  0.4789 -0.9647  0.1087
  606MOL0     C81728   1.895   4.476   6.846 -0.1082 -0.2315 -0.2035
  606MOL0     C81729   1.953   4.448   6.975  0.1163  0.3034 -0.3134
  606MOL0     C81730   2.057   4.302   7.372  0.3808 -0.2884  0.0644
  606MOL0     C81731   2.085   4.172   7.409 -1.4699 -0.1070 -0.5101
  606MOL0     C81732   2.181   4.143   7.508  0.6713  0.5222  0.6109
  606MOL0     C81733   2.240   4.238   7.579 -0.4631 -0.1416  0.6683
  606MOL0     O81734   2.335   4.211   7.679  0.4140 -0.2115 -0.3028
  606MOL0     C81735   2.289   4.136   7.792 -0.3039 -0.4038 -0.0387
  606MOL0     C81736   2.365   4.176   7.909  0.3723  0.7541  0.7839
  606MOL0     C81737   2.512   4.132   7.902 -0.3701 -0.5664 -0.0172
  606MOL0     C81738   2.596   4.202   8.010  0.3282 -0.1233  0.3288
  606MOL0     C81739   2.733   4.149   8.020  0.0251  0.0757 -0.1630
  606MOL0     C81740   2.845   4.106   8.025  0.3881 -1.4224  0.4233
  606MOL0     C81741   2.229   4.374   7.529 -0.6438 -0.2105 -1.5749
  606MOL0     C81742   2.134   4.408   7.430  0.9137  0.0207 -0.6894
  606MOL0     H81743   1.710   4.549   7.188 -0.5486  2.3821 -1.1167
  606MOL0     H81744   1.590   4.589   6.971  1.0928  3.9318  2.3558
  606MOL0     H81745   1.838   4.608   6.602  0.9509 -0.4653 -1.6571
  606MOL0     H81746   1.818   4.431   6.599 -0.7389 -1.5923  0.0964
  606MOL0     H81747   1.690   4.509   6.394 -1.4226 -0.2551  0.0118
  606MOL0     H81748   1.605   4.427   6.528  0.1819  1.1375  2.7740
  606MOL0     H81749   1.496   4.629   6.398 -1.1464 -0.3446  2.3922
  606MOL0     H81750   1.473   4.601   6.571 -1.1417 -1.0320 -1.1420
  606MOL0     H81751   1.595   4.800   6.622  3.7818  0.7147 -0.4752
  606MOL0     H81752   1.706   4.766   6.490 -0.2363  0.1883 -2.2047
  606MOL0     H81753   1.544   4.818   6.308  1.1301  1.9229 -0.7128
  606MOL0     H81754   1.421   4.860   6.424 -0.2724 -0.5637  1.2839
  606MOL0     H81755   1.616   5.034   6.521  0.9820 -0.5137 -1.0934
  606MOL0     H81756   1.697   4.976   6.388  0.1832 -3.6462  1.4930
  606MOL0     H81757   1.605   5.171   6.294 -0.4560  0.0120  0.6940
  606MOL0     H81758   1.503   5.037   6.238  0.1195  2.0148 -1.6921
  606MOL0     H81759   1.459   5.233   6.472  0.6762  3.6836 -2.2081
  606MOL0     H81760   1.357   5.088   6.438  1.0579 -0.8275  0.1152
  606MOL0     H81761   1.215   5.137   6.196  3.7817 -1.4121  0.6680
  606MOL0     H81762   1.083   5.292   6.024 -0.6107  1.3812 -2.2787
  606MOL0     H81763   1.046   5.448   6.095  0.9971  1.0579  1.8687
  606MOL0     H81764   1.229   5.567   5.994  1.4817  0.0907 -1.1966
  606MOL0     H81765   1.122   5.498   5.884 -0.9490 -2.9762 -1.0106
  606MOL0     H81766   1.280   5.295   5.859  2.9770 -1.2097 -0.4436
  606MOL0     H81767   1.397   5.381   5.950  0.5682  0.5874 -0.8156
  606MOL0     H81768   1.264   5.441   5.679  0.7233 -0.1252 -0.6660
  606MOL0     H81769   1.435   5.405   5.722  0.8770  1.4269 -1.9914
  606MOL0     H81770   1.374   5.524   5.506 -1.2956 -0.3844 -0.2556
  606MOL0     H81771   1.516   5.682   5.212 -0.3144 -3.5521 -2.9027
  606MOL0     H81772   1.579   5.542   5.294  0.9162  0.3429  0.0691
  606MOL0     H81773   1.401   5.572   5.263 -0.0369 -1.8877 -0.3533
  606MOL0     H81774   1.898   5.793   5.160  1.2065  0.4223  3.1732
  606MOL0     H81775   2.082   5.927   5.078  0.4093  0.7185  0.0024
  606MOL0     H81776   2.248   6.119   5.016  2.4477 -1.2318 -1.3609
  606MOL0     H81777   2.165   6.024   4.882  0.6032  0.0086  0.6582
  606MOL0     H81778   2.284   6.168   4.740  1.7622 -0.6530  1.4545
  606MOL0     H81779   2.173   6.298   4.811 -1.9353  0.1151  1.4870
  606MOL0     H81780   2.366   6.318   4.995 -2.4885  5.7465 -0.5139
  606MOL0     H81781   2.378   6.380   4.833 -4.1315 -2.2419 -3.9711
  606MOL0     H81782   2.502   6.108   4.932 -1.8537  0.8478 -0.3481
  606MOL0     H81783   2.486   6.150   4.758 -2.2026  1.6302  0.0090
  606MOL0     H81784   2.630   6.277   4.985 -2.5384  0.9937  0.1211
  606MOL0     H81785   2.630   6.361   4.839  2.5432 -0.0281  1.8077
  606MOL0     H81786   2.754   6.089   4.909 -0.7653 -0.7813 -0.5470
  606MOL0     H81787   2.700   6.090   4.750  0.6615 -1.4788  0.2959
  606MOL0     H81788   2.913   6.157   4.707  0.5236  1.2891  0.4938
  606MOL0     H81789   2.933   6.221   4.874 -0.4837  3.4310  0.2372
  606MOL0     H81790   2.974   6.388   4.690  0.0747 -0.1441 -1.7806
  606MOL0     H81791   2.843   6.423   4.807  1.8418  1.2102 -0.0176
  606MOL0     H81792   1.807   6.261   5.064 -1.7551 -1.0993 -2.1408
  606MOL0     H81793   1.629   6.116   5.174 -0.0713 -1.4431  0.3919
  606MOL0     H81794   1.632   5.928   5.625 -0.8405  0.5406 -2.1359
  606MOL0     H81795   1.461   5.839   5.781  2.7770  0.2377  0.8427
  606MOL0     H81796   1.948   4.443   6.757 -2.1468 -0.9363 -1.2268
  606MOL0     H81797   2.051   4.400   6.979  0.6034  1.2674 -0.3116
  606MOL0     H81798   2.051   4.087   7.350 -0.6214 -1.6797  1.1672
  606MOL0     H81799   2.191   4.039   7.539  1.6495 -0.1435 -1.7206
  606MOL0     H81800   2.184   4.161   7.808  0.0800  0.6122  1.1440
  606MOL0     H81801   2.302   4.028   7.780  1.0692 -0.4602  1.5542
  606MOL0     H81802   2.314   4.132   7.995 -1.3917  1.6357  0.2430
  606MOL0     H81803   2.343   4.282   7.929 -3.7612  0.5731 -1.5828
  606MOL0     H81804   2.551   4.150   7.802 -0.5761  1.4291  0.2275
  606MOL0     H81805   2.508   4.030   7.942 -2.0966 -0.3165  0.5177
  606MOL0     H81806   2.543   4.203   8.106  0.5456 -2.9505  0.5765
  606MOL0     H81807   2.592   4.304   7.972 -0.7304 -0.1331  0.3721
  606MOL0     H81808   2.949   4.080   8.022  1.0949  1.2323 -0.7624
  606MOL0     H81809   2.289   4.452   7.576 -0.8168 -0.7185 -0.4787
  606MOL0     H81810   2.122   4.509   7.392 -2.6614 -0.6322 -1.6217
  607MOL0     O81811   7.763   1.561   6.020  1.1100 -0.4434  0.1055
  607MOL0     C81812   7.682   1.542   5.942  0.0828 -0.1167 -0.6247
  607MOL0     O81813   7.568   1.475   5.969  0.1601 -0.4015  0.1183
  607MOL0     C81814   7.553   1.432   6.099  0.3094 -0.3128 -0.1179
  607MOL0     C81815   7.523   1.514   6.210 -1.0497 -1.4340  0.0324
  607MOL0     C81816   7.524   1.469   6.343  0.8774 -0.6412  0.6239
  607MOL0     C81817   7.522   1.334   6.362 -0.1916  0.6597  0.9059
  607MOL0     O81818   7.490   1.282   6.477  0.0307  0.2307 -0.1917
  607MOL0     C81819   7.489   1.359   6.600 -0.2365  0.3051 -0.3201
  607MOL0     C81820   7.468   1.264   6.722 -0.0837  0.2454  0.7086
  607MOL0     C81821   7.576   1.147   6.737  1.0164 -0.2939  0.4072
  607MOL0     C81822   7.512   1.008   6.748  0.5263 -0.4077 -0.8627
  607MOL0     C81823   7.629   0.896   6.759 -1.0075 -0.6248  0.3667
  607MOL0     C81824   7.712   0.900   6.630 -0.6994 -0.2544  0.0077
  607MOL0     C81825   7.640   0.874   6.497 -1.0068  0.0644  0.4139
  607MOL0     C81826   7.735   0.829   6.384 -0.7180 -0.5462 -0.4241
  607MOL0     N81827   7.763   0.950   6.302 -0.8449  0.5934  0.2073
  607MOL0     C81828   7.834   1.050   6.351 -0.3767  0.0050 -0.3363
  607MOL0     C81829   7.868   1.130   6.243  0.0356  1.1268  0.2467
  607MOL0     C81830   7.944   1.260   6.227 -0.4580 -0.5416 -0.6125
  607MOL0     C81831   7.919   1.359   6.341 -0.5995  0.0277 -0.3463
  607MOL0     C81832   8.036   1.363   6.436  0.3153  0.1991 -0.1686
  607MOL0     C81833   8.165   1.407   6.383 -0.1712 -0.1474  0.5732
  607MOL0     O81834   8.156   1.548   6.376 -0.5148  0.5331  0.2804
  607MOL0     C81835   8.263   1.625   6.408 -1.1839 -0.4817  0.4642
  607MOL0     C81836   8.302   1.651   6.545 -0.0117 -0.2358  0.3619
  607MOL0     C81837   8.401   1.748   6.574 -0.4045  0.6357  0.2151
  607MOL0     C81838   8.446   1.774   6.715  0.4687 -0.3841 -0.8174
  607MOL0     C81839   8.456   1.820   6.469 -0.5616  0.4461 -0.7101
  607MOL0     C81840   8.556   1.922   6.484 -0.4061  0.3157 -0.3923
  607MOL0     O81841   8.629   1.936   6.607  0.2533 -0.6199  0.0902
  607MOL0     C81842   8.694   2.050   6.620 -1.0228 -0.5882 -0.2900
  607MOL0     C81843   8.811   2.079   6.544 -1.0726 -1.0635 -0.1035
  607MOL0     C81844   8.893   2.183   6.583  0.3936 -1.0623 -0.3122
  607MOL0     C81845   8.851   2.279   6.686 -0.1197 -0.3658  0.2859
  607MOL0     O81846   8.915   2.397   6.715 -0.4503  0.6068 -0.2842
  607MOL0     C81847   9.060   2.379   6.737  0.2024 -0.4401 -0.4342
  607MOL0     C81848   9.125   2.510   6.792  0.0799  0.7227  0.5230
  607MOL0     C81849   9.192   2.581   6.680 -0.1811  0.1324 -0.6183
  607MOL0     C81850   9.266   2.698   6.740 -0.8639 -0.3688  0.1306
  607MOL0     C81851   9.366   2.771   6.635  0.6162 -0.4159  0.4600
  607MOL0     C81852   9.439   2.892   6.698 -0.9017  0.1822  0.0646
  607MOL0     C81853   9.555   2.946   6.616 -0.5981  0.1537  0.6047
  607MOL0     C81854   9.500   3.002   6.483 -0.4524 -0.4080  0.4519
  607MOL0    Cl81855   9.633   3.135   6.434  0.0720 -0.0534 -0.0480
  607MOL0     C81856   8.730   2.261   6.745 -0.9983 -0.4404 -0.0716
  607MOL0     C81857   8.648   2.150   6.709  0.7280 -0.2499 -0.1164
  607MOL0     O81858   8.573   1.990   6.393 -0.4810 -0.6159  0.9107
  607MOL0     C81859   8.419   1.790   6.341 -0.9365  0.9977  0.5747
  607MOL0     C81860   8.335   1.689   6.311 -0.4522  0.2246  0.1552
  607MOL0     N81861   7.805   1.076   6.128  0.4411 -0.2504 -0.4080
  607MOL0     N81862   7.748   0.966   6.171 -0.0570 -0.2307  0.0956
  607MOL0     C81863   7.547   1.240   6.252 -0.0311 -0.5306  0.5380
  607MOL0     C81864   7.555   1.292   6.122  0.2474  0.2772 -0.1091
  607MOL0     C81865   7.720   1.595   5.807  0.6925 -0.2473 -0.0478
  607MOL0     C81866   7.837   1.670   5.779  0.2898  0.4537 -0.7632
  607MOL0     C81867   7.863   1.711   5.657  0.2385  0.2852  1.0918
  607MOL0     C81868   7.778   1.685   5.545  0.6104 -1.1929 -0.2384
  607MOL0     O81869   7.821   1.724   5.423  0.2690  0.8141  0.2718
  607MOL0     C81870   7.748   1.687   5.308  0.3784  0.2194 -0.4144
  607MOL0     C81871   7.829   1.715   5.184  0.5487 -0.1955  0.0962
  607MOL0     C81872   7.865   1.869   5.164  0.3765  1.6503  0.4176
  607MOL0     C81873   7.755   1.968   5.170  0.4841 -0.4929  1.1071
  607MOL0     C81874   7.677   1.962   5.041 -0.2774 -1.4977 -0.4145
  607MOL0     C81875   7.616   1.956   4.934  0.5556 -0.3945 -0.8506
  607MOL0     C81876   7.653   1.623   5.573 -1.2982  0.0855  0.4156
  607MOL0     C81877   7.624   1.582   5.703  0.4286  0.1605  0.2344
  607MOL0     H81878   7.515   1.619   6.185  2.3053 -1.3261 -1.1177
  607MOL0     H81879   7.512   1.532   6.431 -1.5612 -1.0463  0.6386
  607MOL0     H81880   7.590   1.399   6.614 -0.1302 -0.4161  1.1384
  607MOL0     H81881   7.417   1.442   6.594  0.7862  1.1299 -3.7083
  607MOL0     H81882   7.467   1.322   6.815  0.6747  2.1584 -0.4150
  607MOL0     H81883   7.366   1.225   6.711  0.3315 -0.5472 -0.5815
  607MOL0     H81884   7.629   1.150   6.641 -0.1063  3.3834 -0.2824
  607MOL0     H81885   7.652   1.171   6.812 -1.0990  0.1404  2.5363
  607MOL0     H81886   7.446   0.995   6.834  0.1469 -2.3415 -1.3809
  607MOL0     H81887   7.455   0.985   6.658  2.9656 -1.7515 -2.1766
  607MOL0     H81888   7.692   0.926   6.843 -0.9616 -0.2484  0.2017
  607MOL0     H81889   7.584   0.798   6.774 -1.9531 -0.2498  0.0935
  607MOL0     H81890   7.779   0.986   6.641  1.3199 -1.8577  0.8386
  607MOL0     H81891   7.780   0.815   6.640 -0.7843 -0.3121  0.0944
  607MOL0     H81892   7.568   0.793   6.508  0.4520 -1.4699 -0.7040
  607MOL0     H81893   7.590   0.967   6.470 -2.7122 -1.5231 -2.4215
  607MOL0     H81894   7.682   0.761   6.317  1.5452 -1.1432 -1.7179
  607MOL0     H81895   7.826   0.782   6.421  0.5130  0.6199 -1.8460
  607MOL0     H81896   7.844   1.070   6.457 -3.6625 -0.0677  0.0969
  607MOL0     H81897   8.043   1.216   6.230 -0.8109 -1.3169  0.5779
  607MOL0     H81898   7.930   1.297   6.125  1.3941  0.1747 -0.6494
  607MOL0     H81899   7.823   1.342   6.392  0.3073  0.7423  1.7184
  607MOL0     H81900   7.925   1.454   6.287 -0.1601  0.8888  1.1600
  607MOL0     H81901   8.051   1.266   6.483  1.6494  0.2354 -0.4730
  607MOL0     H81902   8.003   1.439   6.508  1.4030  1.3581 -0.8308
  607MOL0     H81903   8.200   1.364   6.289 -0.5028  2.0302 -0.6363
  607MOL0     H81904   8.250   1.384   6.448  0.5286 -0.7947 -0.5398
  607MOL0     H81905   8.242   1.592   6.613  1.1189 -1.8336  0.0332
  607MOL0     H81906   8.540   1.729   6.747  1.3320  2.3859  0.9929
  607MOL0     H81907   8.450   1.883   6.728 -0.3451 -0.5652  1.4276
  607MOL0     H81908   8.366   1.742   6.783  0.1031 -0.4552 -1.2736
  607MOL0     H81909   8.838   2.028   6.452  1.6370  1.6221 -0.9697
  607MOL0     H81910   8.994   2.181   6.544  1.1488  1.6668  1.2713
  607MOL0     H81911   9.077   2.300   6.810 -1.5582 -1.4164 -1.0296
  607MOL0     H81912   9.115   2.348   6.648  1.8164 -0.0146  0.3659
  607MOL0     H81913   9.056   2.572   6.850  0.0861  0.1419  1.1610
  607MOL0     H81914   9.207   2.483   6.859 -0.1177  1.6127  1.1454
  607MOL0     H81915   9.113   2.619   6.615 -2.1545  0.8073  1.9919
  607MOL0     H81916   9.251   2.503   6.631 -1.9101 -3.5557  2.5670
  607MOL0     H81917   9.194   2.769   6.781  0.6700 -1.7348  6.0859
  607MOL0     H81918   9.321   2.668   6.830 -2.2672 -2.4595  0.3528
  607MOL0     H81919   9.312   2.812   6.549 -0.0475  1.9410  1.9210
  607MOL0     H81920   9.431   2.689   6.604  1.9124  0.1794  1.4836
  607MOL0     H81921   9.363   2.968   6.717 -1.0728  0.0427 -0.0637
  607MOL0     H81922   9.487   2.862   6.792 -0.8913 -1.0303 -0.3190
  607MOL0     H81923   9.621   2.868   6.577 -0.2561 -1.0374  3.3583
  607MOL0     H81924   9.615   3.022   6.666  1.0656 -0.3404 -0.5419
  607MOL0     H81925   9.401   3.045   6.503 -2.3247 -4.1111  0.0388
  607MOL0     H81926   9.498   2.931   6.400 -0.0205 -0.0633  0.1393
  607MOL0     H81927   8.711   2.340   6.817 -4.7154 -1.5200  0.3641
  607MOL0     H81928   8.547   2.149   6.750 -0.0200  0.1604 -1.8700
  607MOL0     H81929   8.464   1.838   6.255 -2.3053  1.0915 -0.1258
  607MOL0     H81930   8.319   1.695   6.204  2.0323 -0.5764 -0.3146
  607MOL0     H81931   7.542   1.131   6.258 -2.3338 -0.6794 -1.9087
  607MOL0     H81932   7.555   1.237   6.028 -1.7873 -2.9002  1.5674
  607MOL0     H81933   7.912   1.689   5.855 -1.8022  3.2334  0.7943
  607MOL0     H81934   7.959   1.757   5.636 -0.2704  1.5961  1.5932
  607MOL0     H81935   7.739   1.578   5.315 -0.9519  0.3139 -0.4192
  607MOL0     H81936   7.648   1.731   5.306  0.4902  0.4988  0.0628
  607MOL0     H81937   7.779   1.694   5.088  2.3918  0.9752 -1.1795
  607MOL0     H81938   7.919   1.653   5.187  2.1121  1.7554 -2.2549
  607MOL0     H81939   7.919   1.874   5.069 -1.2716  0.1580 -0.6553
  607MOL0     H81940   7.932   1.904   5.243 -0.5481  1.8519  1.1226
  607MOL0     H81941   7.785   2.071   5.190 -2.5618  0.1586  2.9165
  607MOL0     H81942   7.705   1.959   5.267 -0.1643  0.2647  0.8510
  607MOL0     H81943   7.580   1.940   4.834 -1.7523 -0.9556  0.0004
  607MOL0     H81944   7.589   1.615   5.486 -0.0054  1.9389 -0.7597
  607MOL0     H81945   7.527   1.536   5.720 -1.1133  1.7857 -3.1251
  608MOL0     O81946   7.106   9.827   4.559  0.1727  0.1644  0.5412
  608MOL0     C81947   6.994   9.834   4.608 -0.4234  0.3148  0.5294
  608MOL0     O81948   6.935   9.951   4.657 -0.1721 -0.1476  0.2428
  608MOL0     C81949   6.999  10.076   4.670  0.7007 -0.0992 -0.7954
  608MOL0     C81950   7.134  10.087   4.688  0.3052 -0.2934  1.3954
  608MOL0     C81951   7.208  10.201   4.667 -0.0911  0.7838 -0.4455
  608MOL0     C81952   7.135  10.308   4.663  0.7679 -1.5336  0.1875
  608MOL0     O81953   7.201  10.429   4.660  0.7625 -0.1705  0.2318
  608MOL0     C81954   7.193  10.511   4.547 -0.0688 -0.0384 -0.6353
  608MOL0     C81955   7.220  10.654   4.599  0.5055  0.1259  0.0549
  608MOL0     C81956   7.363  10.701   4.608 -0.2323  0.4169  0.3254
  608MOL0     C81957   7.371  10.859   4.619  1.0009 -0.6270 -0.4660
  608MOL0     C81958   7.513  10.908   4.621  0.0212 -1.1229 -0.5643
  608MOL0     C81959   7.512  11.062   4.633  0.0039 -0.4350  0.8293
  608MOL0     C81960   7.651  11.138   4.631  0.8527 -0.3024 -0.0781
  608MOL0     C81961   7.655  11.287   4.594  0.3985 -0.4173 -0.2276
  608MOL0     N81962   7.597  11.354   4.710  0.5024  0.6472  0.6398
  608MOL0     C81963   7.462  11.385   4.730  0.8827 -0.7372  0.4650
  608MOL0     C81964   7.478  11.440   4.851  1.0222 -0.1324  0.1451
  608MOL0     C81965   7.373  11.510   4.934  0.1353 -0.2094  0.5699
  608MOL0     C81966   7.258  11.416   4.952  0.0734  1.3591  1.2639
  608MOL0     C81967   7.153  11.484   5.049  0.5384 -0.8894 -0.9022
  608MOL0     C81968   7.035  11.393   5.083 -0.0195 -0.0540  0.2533
  608MOL0     O81969   7.000  11.406   5.218 -0.9939 -0.1346  0.2485
  608MOL0     C81970   6.926  11.312   5.264  0.1350 -0.5939 -0.3170
  608MOL0     C81971   6.862  11.203   5.209  0.6616 -0.2966  0.0980
  608MOL0     C81972   6.773  11.123   5.284  0.0872  0.5865  0.5252
  608MOL0     C81973   6.687  11.019   5.218  0.0168  0.0072  0.5000
  608MOL0     C81974   6.748  11.163   5.419  0.7381 -0.7621 -0.5243
  608MOL0     C81975   6.644  11.095   5.506 -0.7094 -0.0288  0.1425
  608MOL0     O81976   6.543  11.171   5.555 -0.5597 -0.4631  0.7507
  608MOL0     C81977   6.448  11.101   5.627  0.4106 -0.0802 -0.2422
  608MOL0     C81978   6.472  11.073   5.764 -0.0462 -0.3596  0.2460
  608MOL0     C81979   6.379  11.002   5.832  0.2736  0.6310 -0.4452
  608MOL0     C81980   6.264  10.958   5.773  0.8108  0.7288  0.8651
  608MOL0     O81981   6.162  10.898   5.846 -0.1068  0.0665  0.1945
  608MOL0     C81982   6.144  10.904   5.990  0.0768  0.1922 -1.2259
  608MOL0     C81983   5.999  10.877   6.022 -0.0330  0.1650  0.3684
  608MOL0     C81984   5.974  10.719   6.040 -0.1874 -0.5538  0.0968
  608MOL0     C81985   5.954  10.659   5.903 -0.0933  0.1330 -0.1375
  608MOL0     C81986   5.933  10.517   5.888  0.8318 -0.5089 -0.8288
  608MOL0     C81987   5.796  10.473   5.935 -0.9018  0.1216  0.9172
  608MOL0     C81988   5.775  10.319   5.892  0.2783 -0.5222 -1.1227
  608MOL0     C81989   5.630  10.282   5.890 -0.6776 -0.3786  0.3351
  608MOL0    Cl81990   5.604  10.110   5.862  0.2411 -0.0033  0.1156
  608MOL0     C81991   6.245  10.983   5.642  0.6291  0.8744  0.0581
  608MOL0     C81992   6.333  11.057   5.567  0.9057 -1.0439  0.3221
  608MOL0     O81993   6.668  10.980   5.527 -0.7140 -0.1693 -0.9351
  608MOL0     C81994   6.821  11.269   5.480 -0.7125 -0.2139 -0.1623
  608MOL0     C81995   6.907  11.346   5.402 -0.3311  0.7173  0.3409
  608MOL0     N81996   7.613  11.442   4.902 -0.2545 -0.2384 -0.0188
  608MOL0     N81997   7.681  11.388   4.812  0.0125  0.1091  0.0850
  608MOL0     C81998   6.991  10.316   4.658  0.4330  0.1354 -0.2746
  608MOL0     C81999   6.924  10.190   4.658  0.9909  0.1084 -0.2955
  608MOL0     C82000   6.907   9.717   4.623  0.1290  1.4797 -0.6649
  608MOL0     C82001   6.945   9.592   4.568 -0.4510 -0.6383  0.1187
  608MOL0     C82002   6.868   9.478   4.584 -1.1939  1.4228  0.2081
  608MOL0     C82003   6.747   9.488   4.645 -0.1899  0.0705 -0.1108
  608MOL0     O82004   6.669   9.377   4.679 -0.1719 -0.8332 -0.0756
  608MOL0     C82005   6.632   9.311   4.554  0.0849  0.1014  0.6381
  608MOL0     C82006   6.492   9.260   4.587  0.2295  0.3408 -0.1055
  608MOL0     C82007   6.440   9.196   4.458 -0.5160 -1.2064  1.0320
  608MOL0     C82008   6.310   9.136   4.470 -0.2143 -0.0571 -0.8046
  608MOL0     C82009   6.243   9.121   4.339 -0.1125 -0.5691 -0.1706
  608MOL0     C82010   6.185   9.104   4.232  0.8955  0.6772  0.6667
  608MOL0     C82011   6.702   9.606   4.699  0.1676 -0.4288  0.4944
  608MOL0     C82012   6.784   9.720   4.688 -0.4772 -0.1769 -0.0332
  608MOL0     H82013   7.182   9.993   4.715 -2.3455 -2.5772 -1.1457
  608MOL0     H82014   7.315  10.185   4.678 -0.1525 -0.5256 -1.5025
  608MOL0     H82015   7.271  10.482   4.475 -0.6351 -1.9805 -0.5339
  608MOL0     H82016   7.094  10.499   4.502 -2.6982  0.8897  4.2360
  608MOL0     H82017   7.178  10.727   4.530 -0.3322  1.9260  2.3567
  608MOL0     H82018   7.164  10.678   4.690 -1.5612 -2.1712 -0.4917
  608MOL0     H82019   7.398  10.666   4.705 -3.5643  0.6074  1.7567
  608MOL0     H82020   7.423  10.672   4.522 -0.3946  2.4142 -0.5133
  608MOL0     H82021   7.334  10.913   4.531  3.5043 -0.3435 -1.4378
  608MOL0     H82022   7.317  10.899   4.705  2.5508 -1.7175  1.0824
  608MOL0     H82023   7.567  10.860   4.704  2.2014  1.7540 -0.1521
  608MOL0     H82024   7.569  10.873   4.534  3.8644  2.3140  0.2117
  608MOL0     H82025   7.466  11.093   4.539  0.7988  1.5595  1.0537
  608MOL0     H82026   7.450  11.079   4.721 -1.4855  0.8887 -0.4213
  608MOL0     H82027   7.710  11.127   4.723 -1.7295  0.8172  1.8473
  608MOL0     H82028   7.710  11.090   4.553 -0.1085  0.3868 -1.2781
  608MOL0     H82029   7.587  11.309   4.510 -1.9524 -2.2477  1.0657
  608MOL0     H82030   7.754  11.331   4.578  0.3004  1.3972  3.1748
  608MOL0     H82031   7.369  11.376   4.675  2.5006 -1.5096 -2.3563
  608MOL0     H82032   7.424  11.536   5.028  3.0125 -0.6234 -0.7693
  608MOL0     H82033   7.347  11.604   4.884 -0.0553 -1.0892 -1.0366
  608MOL0     H82034   7.283  11.322   5.003  3.2203  1.2213 -0.3329
  608MOL0     H82035   7.217  11.381   4.857  0.5623  0.5411  1.3461
  608MOL0     H82036   7.113  11.573   4.999  0.5938 -1.0038 -1.1460
  608MOL0     H82037   7.202  11.525   5.138  2.7668 -0.9399 -2.0509
  608MOL0     H82038   7.046  11.288   5.055 -2.0327 -0.6436  1.5181
  608MOL0     H82039   6.950  11.431   5.026 -0.6658  0.1276  1.3010
  608MOL0     H82040   6.852  11.179   5.104 -4.6569 -3.2688  0.9537
  608MOL0     H82041   6.722  11.009   5.115  3.6350  0.9907  1.5044
  608MOL0     H82042   6.701  10.922   5.268  1.4400  1.1084  2.4071
  608MOL0     H82043   6.580  11.039   5.211 -0.2452 -0.7779  1.8013
  608MOL0     H82044   6.562  11.114   5.809  0.6093 -0.8273 -0.6152
  608MOL0     H82045   6.389  10.994   5.940 -1.8058  2.0747 -0.0730
  608MOL0     H82046   6.211  10.835   6.042  0.9096  1.3758 -0.6891
  608MOL0     H82047   6.174  11.008   6.005  2.5856 -0.5203 -0.7517
  608MOL0     H82048   5.965  10.925   6.114 -1.8701 -0.5867  0.1344
  608MOL0     H82049   5.927  10.917   5.950  0.0173  0.9305  0.7281
  608MOL0     H82050   5.886  10.692   6.100  1.0046 -0.2763  2.0693
  608MOL0     H82051   6.063  10.673   6.085  2.1815  2.3912 -1.2212
  608MOL0     H82052   5.888  10.715   5.836  0.7690 -1.8118 -2.7871
  608MOL0     H82053   6.052  10.676   5.856 -0.3602 -0.4179 -0.8957
  608MOL0     H82054   6.012  10.460   5.937 -2.7560 -2.4241  3.4420
  608MOL0     H82055   5.934  10.496   5.780  0.0640 -2.9582 -0.4237
  608MOL0     H82056   5.781  10.487   6.042 -0.7175 -0.0620  0.9684
  608MOL0     H82057   5.724  10.537   5.883 -1.7528  0.0830  2.0100
  608MOL0     H82058   5.837  10.258   5.957  0.9995  2.1900  0.9183
  608MOL0     H82059   5.807  10.310   5.788  0.3953  4.7511 -1.8228
  608MOL0     H82060   5.576  10.306   5.798 -1.5573 -4.6417 -0.4849
  608MOL0     H82061   5.576  10.308   5.981 -0.0564  2.4630 -0.0150
  608MOL0     H82062   6.158  10.957   5.582  1.9692 -2.2111 -0.7222
  608MOL0     H82063   6.320  11.079   5.461  2.0231  1.9383  0.6977
  608MOL0     H82064   6.794  11.288   5.583 -1.0405 -0.8254 -0.1284
  608MOL0     H82065   6.959  11.424   5.457  0.3429  1.4988 -1.3156
  608MOL0     H82066   6.937  10.410   4.658  2.0788  1.1509  1.0045
  608MOL0     H82067   6.817  10.176   4.642  1.2834 -3.7831  0.2584
  608MOL0     H82068   7.046   9.581   4.531 -0.1681 -3.5000  1.4615
  608MOL0     H82069   6.886   9.387   4.528  1.2628 -0.6228  3.8984
  608MOL0     H82070   6.626   9.382   4.471  5.2158  0.2235  0.0188
  608MOL0     H82071   6.709   9.237   4.535  2.7803  2.6031  1.0149
  608MOL0     H82072   6.415   9.333   4.613 -0.7729 -1.3445  2.0276
  608MOL0     H82073   6.495   9.190   4.672  0.3400 -1.7749 -1.7608
  608MOL0     H82074   6.501   9.120   4.409  1.9334  1.0877  0.2886
  608MOL0     H82075   6.423   9.282   4.392 -4.0323 -1.3210  1.5756
  608MOL0     H82076   6.247   9.184   4.545 -0.2120  0.4628 -1.1300
  608MOL0     H82077   6.326   9.035   4.509  0.7097  0.4559  0.2418
  608MOL0     H82078   6.144   9.071   4.139 -3.9922 -0.3041  2.8639
  608MOL0     H82079   6.609   9.615   4.754  2.0133 -0.5557  3.9894
  608MOL0     H82080   6.757   9.814   4.734  1.9099  0.0964  0.9745
  609MOL0     O82081   5.828   8.773   3.804  0.1884 -0.3803  0.0465
  609MOL0     C82082   5.809   8.894   3.821 -2.0174 -0.2776 -0.5743
  609MOL0     O82083   5.699   8.952   3.804  0.1197 -0.4030 -0.1390
  609MOL0     C82084   5.591   8.886   3.745 -0.4974 -0.7949  0.3827
  609MOL0     C82085   5.473   8.950   3.762  0.4598 -0.6086  0.1553
  609MOL0     C82086   5.355   8.894   3.713 -0.1431  1.0090  0.4944
  609MOL0     C82087   5.357   8.776   3.634  0.1842 -0.1492  0.1326
  609MOL0     O82088   5.243   8.719   3.579 -0.1761 -0.0164  0.4360
  609MOL0     C82089   5.116   8.782   3.592 -0.4299 -0.7996  0.2317
  609MOL0     C82090   5.006   8.697   3.523  0.0846  0.1966 -1.0510
  609MOL0     C82091   5.018   8.721   3.371  0.7524 -0.5020 -0.0083
  609MOL0     C82092   4.947   8.609   3.292  0.4938 -0.8284 -0.3133
  609MOL0     C82093   4.913   8.644   3.146  0.1487  0.5459 -0.0542
  609MOL0     C82094   4.953   8.537   3.053  0.5595  0.9338 -0.7057
  609MOL0     C82095   5.104   8.494   3.031 -0.0382  0.1416  0.2655
  609MOL0     C82096   5.126   8.390   2.928  0.2690 -0.0690  0.4409
  609MOL0     N82097   5.096   8.431   2.789 -0.1994 -0.4552  0.9971
  609MOL0     C82098   4.974   8.423   2.730  0.5990  1.2988 -1.0569
  609MOL0     C82099   5.007   8.429   2.604  0.0980  0.4038 -0.0056
  609MOL0     C82100   4.909   8.399   2.497  0.5094  0.4499  0.0901
  609MOL0     C82101   4.898   8.245   2.464 -0.7460  0.8067  0.2757
  609MOL0     C82102   5.031   8.183   2.415 -0.2429  0.3848 -0.2956
  609MOL0     C82103   5.008   8.043   2.362 -0.0577 -0.7010  0.1313
  609MOL0     O82104   5.118   8.025   2.274  0.3462 -0.0460 -0.2617
  609MOL0     C82105   5.103   7.958   2.163  0.0270  1.3002  1.1234
  609MOL0     C82106   5.214   7.953   2.082 -0.3231  0.5245  0.5323
  609MOL0     C82107   5.216   7.878   1.970 -0.6532  0.4179 -0.2385
  609MOL0     C82108   5.342   7.876   1.888 -0.3010 -0.1542  0.0888
  609MOL0     C82109   5.115   7.778   1.954 -0.5312  0.4854 -0.2666
  609MOL0     C82110   5.106   7.688   1.835 -1.1650  0.3843 -0.9482
  609MOL0     O82111   5.031   7.571   1.847 -1.0120  0.4316 -0.0869
  609MOL0     C82112   5.000   7.503   1.730 -0.7434 -0.3702 -0.9251
  609MOL0     C82113   4.917   7.570   1.637  0.5886  1.5976 -1.1420
  609MOL0     C82114   4.864   7.495   1.525 -0.2006 -0.2266 -0.9452
  609MOL0     C82115   4.900   7.364   1.502 -0.3775 -0.0760 -0.2192
  609MOL0     O82116   4.853   7.283   1.394 -0.0259 -0.1171 -0.2316
  609MOL0     C82117   4.774   7.351   1.297  0.9270  0.0437  0.2272
  609MOL0     C82118   4.735   7.263   1.179 -0.3557  0.3531  0.3940
  609MOL0     C82119   4.852   7.172   1.114  0.1011  1.2627 -0.4542
  609MOL0     C82120   4.785   7.098   0.993 -0.4619 -0.4486  0.7858
  609MOL0     C82121   4.876   6.997   0.923  0.4568  0.1840 -0.1354
  609MOL0     C82122   4.859   6.987   0.766  0.1391 -0.8554  0.2148
  609MOL0     C82123   4.937   6.871   0.714  1.2016  0.2572  0.4256
  609MOL0     C82124   4.833   6.764   0.656  0.5196 -0.1337  0.8011
  609MOL0    Cl82125   4.915   6.600   0.634  0.4545 -0.1394 -0.2059
  609MOL0     C82126   4.988   7.300   1.589  0.0436 -0.7203  0.2519
  609MOL0     C82127   5.043   7.364   1.705  0.6929 -0.2481 -0.4054
  609MOL0     O82128   5.143   7.736   1.736  1.5553 -0.3698  0.0564
  609MOL0     C82129   5.000   7.780   2.029 -0.6213  0.2776 -0.2216
  609MOL0     C82130   4.996   7.871   2.141 -0.1462 -0.1927  0.4404
  609MOL0     N82131   5.145   8.441   2.583 -0.3292  0.4869  0.4802
  609MOL0     N82132   5.196   8.443   2.700 -0.1549  0.0612 -0.8370
  609MOL0     C82133   5.483   8.727   3.601  0.1587 -0.1914  0.0244
  609MOL0     C82134   5.587   8.775   3.665 -0.3288  0.0937 -0.2804
  609MOL0     C82135   5.923   8.976   3.863 -1.0415 -1.6098 -0.5524
  609MOL0     C82136   6.055   8.934   3.847 -0.1886  0.2931 -0.3696
  609MOL0     C82137   6.161   9.023   3.864  0.8253  1.2207  0.3132
  609MOL0     C82138   6.135   9.156   3.892  0.7926 -0.1887 -1.5529
  609MOL0     O82139   6.245   9.240   3.904  0.7302 -0.4904 -0.1640
  609MOL0     C82140   6.230   9.370   3.963 -0.3966 -0.9184 -0.9134
  609MOL0     C82141   6.366   9.447   3.980 -0.0156  0.0308 -0.0408
  609MOL0     C82142   6.454   9.405   4.100  0.3707  0.1705 -0.6685
  609MOL0     C82143   6.561   9.507   4.115 -0.3736 -0.1968 -0.4986
  609MOL0     C82144   6.524   9.616   4.207 -1.0416 -0.3935  0.4232
  609MOL0     C82145   6.482   9.696   4.273  0.7051  0.1732  0.8064
  609MOL0     C82146   6.004   9.199   3.908 -0.5881 -0.1694 -0.2542
  609MOL0     C82147   5.897   9.106   3.899 -0.5432 -1.0750  0.0348
  609MOL0     H82148   5.462   9.042   3.819  4.0846 -0.5677  1.0199
  609MOL0     H82149   5.258   8.923   3.751 -0.7912 -1.0042  0.4760
  609MOL0     H82150   5.090   8.782   3.698 -2.4452 -0.9552 -0.2223
  609MOL0     H82151   5.098   8.883   3.554 -0.8298 -0.3309  1.6298
  609MOL0     H82152   5.003   8.591   3.550 -3.5770  0.0344 -1.6204
  609MOL0     H82153   4.909   8.727   3.563 -0.1623 -1.6000 -0.1879
  609MOL0     H82154   4.964   8.812   3.345  2.4138  1.1290  1.8298
  609MOL0     H82155   5.119   8.720   3.329 -0.5795 -0.3686 -3.5141
  609MOL0     H82156   5.010   8.520   3.297 -0.9346 -1.7861  1.8351
  609MOL0     H82157   4.850   8.600   3.341 -0.1311  2.3723 -0.7313
  609MOL0     H82158   4.804   8.660   3.150  0.2635  1.2632  0.4309
  609MOL0     H82159   4.948   8.742   3.112 -0.1023  0.7004  0.1196
  609MOL0     H82160   4.901   8.448   3.090 -0.7010  1.8732 -0.1684
  609MOL0     H82161   4.904   8.564   2.959  0.3734 -0.3625 -0.9974
  609MOL0     H82162   5.163   8.584   3.010  0.6129 -0.0241  1.3097
  609MOL0     H82163   5.144   8.459   3.127 -0.7050  2.2476  1.3660
  609MOL0     H82164   5.065   8.304   2.956 -3.5084  1.0263 -3.3821
  609MOL0     H82165   5.234   8.371   2.928  0.3951  0.0094 -2.7793
  609MOL0     H82166   4.876   8.407   2.774  0.1735 -2.4211 -2.9548
  609MOL0     H82167   4.812   8.439   2.525 -2.0697 -0.9456 -5.4885
  609MOL0     H82168   4.932   8.445   2.400 -0.5729 -3.2186 -2.1431
  609MOL0     H82169   4.825   8.224   2.385 -1.9198  2.7915  0.7352
  609MOL0     H82170   4.868   8.198   2.558  0.2397  4.0899  2.3989
  609MOL0     H82171   5.101   8.182   2.499 -0.9812  0.1673  0.3267
  609MOL0     H82172   5.066   8.250   2.336 -2.7362  0.0331 -1.7818
  609MOL0     H82173   4.906   8.042   2.321 -0.6646 -1.2814  1.5977
  609MOL0     H82174   5.019   7.972   2.444 -1.1103 -3.5324 -1.9903
  609MOL0     H82175   5.301   8.006   2.119  1.3189 -0.5208 -1.6262
  609MOL0     H82176   5.398   7.784   1.867  0.9080  0.8163 -1.2037
  609MOL0     H82177   5.323   7.924   1.792  1.4141 -2.5497 -1.5845
  609MOL0     H82178   5.412   7.941   1.941  0.6667 -0.5630 -0.6502
  609MOL0     H82179   4.870   7.667   1.647 -1.6370  0.4406  0.9476
  609MOL0     H82180   4.802   7.557   1.461 -1.2964 -1.0133 -0.6712
  609MOL0     H82181   4.683   7.394   1.341  0.7403  2.3337 -2.2077
  609MOL0     H82182   4.836   7.425   1.248  1.4482 -0.7983 -0.4173
  609MOL0     H82183   4.655   7.201   1.221  0.0891  0.6166  1.7024
  609MOL0     H82184   4.692   7.332   1.106  0.4169 -0.7677 -1.1491
  609MOL0     H82185   4.886   7.095   1.184 -0.6195 -1.2837 -2.7099
  609MOL0     H82186   4.936   7.232   1.080  0.7030  0.9900  0.5046
  609MOL0     H82187   4.685   7.062   1.018 -1.3563 -0.1419 -2.0255
  609MOL0     H82188   4.768   7.177   0.920 -0.6266 -3.3014 -2.4773
  609MOL0     H82189   4.859   6.901   0.973 -3.8755  0.5337 -0.5860
  609MOL0     H82190   4.977   7.030   0.948  1.6337 -0.1735 -3.8335
  609MOL0     H82191   4.753   6.984   0.741  0.4567  1.4197 -1.8249
  609MOL0     H82192   4.887   7.079   0.713 -3.3450 -0.3020 -0.8853
  609MOL0     H82193   4.993   6.819   0.792  1.2412  0.4024  0.4953
  609MOL0     H82194   5.009   6.910   0.641 -0.6303 -1.4933 -2.5117
  609MOL0     H82195   4.782   6.793   0.564 -0.8888 -0.9123  1.3032
  609MOL0     H82196   4.760   6.738   0.734  0.8602 -0.3628  1.0462
  609MOL0     H82197   5.037   7.206   1.563  4.7317  1.0343  1.5784
  609MOL0     H82198   5.120   7.334   1.776 -1.5465  0.5795  2.5627
  609MOL0     H82199   4.919   7.714   2.000 -0.4660 -0.5972  1.2044
  609MOL0     H82200   4.904   7.872   2.197  0.5800  0.9970  1.6886
  609MOL0     H82201   5.498   8.669   3.510  3.1632  0.0131  0.2831
  609MOL0     H82202   5.683   8.736   3.634  1.2140  3.3995 -0.1257
  609MOL0     H82203   6.070   8.832   3.812  2.5110  0.1735  0.8591
  609MOL0     H82204   6.262   8.996   3.834 -0.0633 -0.4818 -1.2857
  609MOL0     H82205   6.171   9.437   3.900 -1.1097 -1.3261 -0.6841
  609MOL0     H82206   6.191   9.366   4.065 -2.2404  0.9172 -1.4749
  609MOL0     H82207   6.333   9.552   3.980  0.7363  0.2708  0.4250
  609MOL0     H82208   6.422   9.438   3.886  0.8548  1.2289  0.3321
  609MOL0     H82209   6.503   9.309   4.079  2.5736  1.2244 -0.6033
  609MOL0     H82210   6.402   9.388   4.194  1.2735 -2.9372 -0.6018
  609MOL0     H82211   6.586   9.571   4.030 -1.5098  0.2896 -0.4797
  609MOL0     H82212   6.639   9.450   4.166  0.0998  0.7574 -0.1382
  609MOL0     H82213   6.429   9.769   4.330 -2.5971  0.8130 -2.6560
  609MOL0     H82214   5.980   9.304   3.923  1.2564 -0.1776  4.3177
  609MOL0     H82215   5.794   9.136   3.920 -0.3577 -1.7444  2.1270
  610MOL0     O82216   0.028   3.836  11.369  0.2774  0.4198 -0.3074
  610MOL0     C82217  -0.010   3.809  11.483  0.1710 -1.2238  0.4956
  610MOL0     O82218  -0.031   3.914  11.583 -0.5313  0.5440 -0.4986
  610MOL0     C82219   0.018   4.044  11.575 -1.2745  0.0162 -0.0947
  610MOL0     C82220   0.131   4.089  11.512 -0.2020 -0.2996 -0.6634
  610MOL0     C82221   0.158   4.225  11.518  0.0474 -0.2270  0.2085
  610MOL0     C82222   0.076   4.319  11.578 -0.7830  0.1255  0.0111
  610MOL0     O82223   0.108   4.453  11.576 -0.4258 -0.5021  0.2254
  610MOL0     C82224  -0.006   4.547  11.591  0.5567  1.1767 -0.9811
  610MOL0     C82225   0.003   4.610  11.735  0.2408  0.0179 -0.3415
  610MOL0     C82226   0.134   4.693  11.754 -1.0256  0.1917  0.2653
  610MOL0     C82227   0.162   4.746  11.901 -0.2345 -0.0585 -0.6099
  610MOL0     C82228   0.302   4.817  11.929  0.3934  1.0508 -0.3267
  610MOL0     C82229   0.314   4.879  12.068  0.1595 -0.7103 -0.5341
  610MOL0     C82230   0.455   4.927  12.109  0.0645  0.1983  1.2987
  610MOL0     C82231   0.470   4.927  12.263  0.0053 -0.7070 -0.7852
  610MOL0     N82232   0.376   5.028  12.325 -0.0906  0.0099  0.2755
  610MOL0     C82233   0.277   4.974  12.402  0.4616  0.3408  0.1373
  610MOL0     C82234   0.199   5.078  12.421  0.6165 -0.6643 -0.2017
  610MOL0     C82235   0.058   5.060  12.491 -0.2300  0.2207  0.3636
  610MOL0     C82236  -0.056   5.088  12.395 -0.0701 -0.2086  0.2611
  610MOL0     C82237  -0.101   4.960  12.310  0.2457  0.8583  0.5487
  610MOL0     C82238  -0.191   4.994  12.197  0.7632  0.6508 -0.2671
  610MOL0     O82239  -0.154   5.109  12.121 -0.2229 -0.4652 -0.3016
  610MOL0     C82240  -0.098   5.082  11.996 -0.5493  0.2082 -0.0988
  610MOL0     C82241   0.019   5.145  11.962 -0.9921 -0.7617 -0.1238
  610MOL0     C82242   0.072   5.147  11.837 -0.4880 -0.3060 -0.2576
  610MOL0     C82243   0.194   5.225  11.813  0.3843  0.9757  0.6805
  610MOL0     C82244   0.004   5.063  11.734 -0.1635 -0.5918 -0.3920
  610MOL0     C82245   0.050   5.064  11.592  0.6555  1.2854 -0.9682
  610MOL0     O82246  -0.041   5.003  11.505 -0.2282 -0.2022  0.8371
  610MOL0     C82247  -0.018   5.025  11.374 -0.0748 -0.1055 -0.0530
  610MOL0     C82248  -0.085   5.136  11.312 -0.4854 -0.0817 -0.1797
  610MOL0     C82249  -0.061   5.170  11.185 -0.8635 -0.4516  1.6917
  610MOL0     C82250   0.039   5.097  11.117  0.0929 -0.2973 -0.0091
  610MOL0     O82251   0.091   5.122  10.993  0.5421  0.1620 -0.2964
  610MOL0     C82252  -0.007   5.136  10.890  0.3445  0.1041  0.4150
  610MOL0     C82253   0.081   5.149  10.765 -0.3871 -0.6193 -0.3444
  610MOL0     C82254   0.177   5.022  10.749  0.1958  0.0645 -0.7064
  610MOL0     C82255   0.321   5.060  10.768 -0.2047 -0.1725  0.6496
  610MOL0     C82256   0.412   4.934  10.766 -0.3532 -0.5491  1.0864
  610MOL0     C82257   0.545   4.967  10.825  0.4984 -0.6296  0.5041
  610MOL0     C82258   0.653   4.870  10.794  0.3424  0.7777 -0.7622
  610MOL0     C82259   0.767   4.856  10.891  0.0889 -0.5714  0.1900
  610MOL0    Cl82260   0.710   4.803  11.046 -0.2733 -0.0473 -0.2253
  610MOL0     C82261   0.108   4.986  11.169  0.2784  0.5922  0.2524
  610MOL0     C82262   0.081   4.950  11.294 -0.6416 -0.0584  0.5161
  610MOL0     O82263   0.164   5.089  11.569  0.4222 -1.0577 -0.2835
  610MOL0     C82264  -0.116   5.002  11.767 -1.0743  0.7527 -0.0922
  610MOL0     C82265  -0.174   5.016  11.893 -0.2750  0.0210 -0.1928
  610MOL0     N82266   0.263   5.197  12.363 -0.3298  0.0728 -0.5461
  610MOL0     N82267   0.370   5.162  12.295 -0.1992 -1.1315 -0.8244
  610MOL0     C82268  -0.039   4.267  11.642  0.0372  0.7340  0.2795
  610MOL0     C82269  -0.065   4.130  11.643 -0.1453  0.4423  0.3605
  610MOL0     C82270  -0.070   3.679  11.511 -0.5216  0.2477  0.7182
  610MOL0     C82271  -0.119   3.653  11.640  0.5790  0.2189 -0.1079
  610MOL0     C82272  -0.135   3.527  11.689  0.4916  0.3430  0.8878
  610MOL0     C82273  -0.123   3.419  11.600  1.1680  0.4350 -0.7299
  610MOL0     O82274  -0.145   3.285  11.637 -0.2372 -1.2988  1.0989
  610MOL0     C82275  -0.276   3.242  11.591 -0.1245 -0.3423 -1.4323
  610MOL0     C82276  -0.383   3.264  11.702 -0.7114 -0.0871 -0.7248
  610MOL0     C82277  -0.361   3.177  11.831 -0.0546 -0.2792 -0.2048
  610MOL0     C82278  -0.436   3.043  11.817  0.4624 -0.5891  0.4115
  610MOL0     C82279  -0.578   3.042  11.842  0.0470 -0.2009  0.1222
  610MOL0     C82280  -0.696   3.056  11.861 -0.1775  0.1303 -1.4487
  610MOL0     C82281  -0.090   3.447  11.468 -1.3059 -0.8028  0.5621
  610MOL0     C82282  -0.051   3.574  11.425 -0.5708  0.4600  0.3698
  610MOL0     H82283   0.204   4.022  11.467 -0.3903 -3.2413  2.9212
  610MOL0     H82284   0.243   4.254  11.457 -0.3798 -1.2659 -0.9405
  610MOL0     H82285   0.002   4.624  11.514  0.2036  3.8255  1.4638
  610MOL0     H82286  -0.105   4.504  11.576  0.1231  1.1318  1.5360
  610MOL0     H82287  -0.075   4.687  11.739 -1.0809 -1.3074  2.4845
  610MOL0     H82288   0.003   4.540  11.820  4.5508  1.6760  1.3312
  610MOL0     H82289   0.221   4.640  11.714 -0.1536  2.3596 -0.9103
  610MOL0     H82290   0.143   4.774  11.681  2.9706 -2.3758 -2.5397
  610MOL0     H82291   0.091   4.827  11.920  1.0430  1.1657 -0.9351
  610MOL0     H82292   0.157   4.662  11.971  1.6582  0.1361 -0.1866
  610MOL0     H82293   0.384   4.746  11.916  3.5032  4.1515  0.7702
  610MOL0     H82294   0.303   4.893  11.851 -1.6548  0.7743 -0.6941
  610MOL0     H82295   0.247   4.966  12.064  3.3301  1.9039 -3.9868
  610MOL0     H82296   0.278   4.806  12.141  1.7441 -0.7976  0.2116
  610MOL0     H82297   0.528   4.859  12.063 -1.7318 -1.3026  0.5158
  610MOL0     H82298   0.471   5.026  12.066 -2.3590 -0.0362 -0.3715
  610MOL0     H82299   0.573   4.937  12.298 -0.6716 -0.8630  1.4020
  610MOL0     H82300   0.444   4.830  12.306  1.2165 -2.6691 -4.0999
  610MOL0     H82301   0.253   4.870  12.420  0.9749  0.1167 -0.4894
  610MOL0     H82302   0.048   4.965  12.544  1.5804  0.3456  0.9777
  610MOL0     H82303   0.052   5.127  12.577 -1.5745 -2.4827  2.4949
  610MOL0     H82304  -0.023   5.166  12.327 -3.7641  1.7654  0.4751
  610MOL0     H82305  -0.135   5.134  12.455 -1.1971  5.0694 -4.4751
  610MOL0     H82306  -0.149   4.883  12.371 -0.8252 -0.1686 -1.4798
  610MOL0     H82307  -0.017   4.908  12.263 -1.6338 -2.0676  0.1976
  610MOL0     H82308  -0.291   5.025  12.229  0.9352  0.9701 -0.0347
  610MOL0     H82309  -0.197   4.912  12.125 -1.8962  0.9974 -0.5715
  610MOL0     H82310   0.062   5.215  12.033  2.2094 -0.8470 -1.7937
  610MOL0     H82311   0.198   5.308  11.884 -0.7427  2.7231 -1.1935
  610MOL0     H82312   0.282   5.161  11.809 -0.9122 -0.8591  0.1240
  610MOL0     H82313   0.187   5.264  11.711 -1.2002 -0.6515  0.1192
  610MOL0     H82314  -0.150   5.194  11.377  1.7975  1.4237  0.8949
  610MOL0     H82315  -0.119   5.250  11.141 -1.0065  0.1564  2.9183
  610MOL0     H82316  -0.079   5.054  10.881 -0.7201  0.9028  1.3446
  610MOL0     H82317  -0.057   5.234  10.892  1.8341  0.8864  2.7070
  610MOL0     H82318   0.020   5.150  10.674 -0.3692  3.7733 -0.5166
  610MOL0     H82319   0.141   5.240  10.775 -1.1654  0.0139 -1.2460
  610MOL0     H82320   0.168   4.994  10.643 -0.9653 -2.1221 -0.0822
  610MOL0     H82321   0.145   4.939  10.812 -1.5937 -0.2908 -1.9942
  610MOL0     H82322   0.357   5.139  10.701 -0.1102 -1.6521 -1.1493
  610MOL0     H82323   0.335   5.092  10.871  3.8421 -1.7900  0.7922
  610MOL0     H82324   0.406   4.920  10.657 -0.6325 -0.7771  1.1292
  610MOL0     H82325   0.366   4.850  10.819  0.0685 -2.0964 -0.8866
  610MOL0     H82326   0.575   5.063  10.783 -2.6339 -0.2529 -1.2103
  610MOL0     H82327   0.542   4.982  10.933  3.0383 -4.6746  1.3406
  610MOL0     H82328   0.682   4.894  10.691  0.2696  1.4730 -0.6204
  610MOL0     H82329   0.611   4.769  10.799  1.6182  0.2930  0.9569
  610MOL0     H82330   0.824   4.949  10.904  3.1729 -2.2196 -0.5011
  610MOL0     H82331   0.843   4.788  10.851 -0.1864 -1.2281  0.7642
  610MOL0     H82332   0.178   4.928  11.109  1.2958  2.7994 -0.8338
  610MOL0     H82333   0.127   4.860  11.335 -4.5543 -2.9597 -0.9153
  610MOL0     H82334  -0.160   4.931  11.699  1.9629 -3.5714  1.9757
  610MOL0     H82335  -0.269   4.972  11.919 -0.5470  0.0493 -1.1002
  610MOL0     H82336  -0.118   4.328  11.684 -0.9862  2.0463 -3.1964
  610MOL0     H82337  -0.158   4.084  11.678 -1.6391  1.0843 -2.4921
  610MOL0     H82338  -0.141   3.735  11.708 -2.1096 -1.3233  1.0063
  610MOL0     H82339  -0.165   3.493  11.787 -1.4397  1.4737  0.7477
  610MOL0     H82340  -0.309   3.311  11.512  0.4006 -1.4222 -2.6277
  610MOL0     H82341  -0.264   3.143  11.546  0.6841  0.0067 -2.0092
  610MOL0     H82342  -0.490   3.246  11.693 -1.4491  0.8569  3.8045
  610MOL0     H82343  -0.372   3.369  11.730  0.7774 -1.0890  3.0880
  610MOL0     H82344  -0.394   3.236  11.917 -0.7813 -1.1986  0.1631
  610MOL0     H82345  -0.255   3.151  11.836 -0.0398 -0.2528 -0.3798
  610MOL0     H82346  -0.389   2.968  11.882 -0.2391 -1.2081  0.2157
  610MOL0     H82347  -0.417   3.015  11.713  0.1969  0.2230  0.1346
  610MOL0     H82348  -0.801   3.076  11.859 -0.3700 -0.8423 -3.7008
  610MOL0     H82349  -0.066   3.369  11.397  2.0393  2.6024 -2.4946
  610MOL0     H82350   0.004   3.575  11.332  0.9390  2.7946  1.1893
  611MOL0     O82351   8.687  10.522   4.824 -0.2211 -0.8845 -0.4833
  611MOL0     C82352   8.571  10.529   4.775  1.1081 -0.4859  0.1281
  611MOL0     O82353   8.540  10.609   4.662  0.2751  0.7689  0.2161
  611MOL0     C82354   8.638  10.694   4.610  0.4986 -1.3172 -0.5759
  611MOL0     C82355   8.698  10.676   4.487 -0.9032 -0.4466 -0.0476
  611MOL0     C82356   8.786  10.774   4.433  0.1724 -0.4117 -0.8264
  611MOL0     C82357   8.800  10.895   4.491 -0.1303 -0.4834  0.2428
  611MOL0     O82358   8.881  10.977   4.411 -0.4694 -0.1250 -0.1083
  611MOL0     C82359   8.918  11.101   4.476 -0.6235 -0.4477 -0.2186
  611MOL0     C82360   9.032  11.174   4.401 -0.4867 -0.0901 -0.4155
  611MOL0     C82361   8.993  11.248   4.282  0.1326  0.2761 -0.1537
  611MOL0     C82362   9.099  11.341   4.222 -0.4409  0.2084 -0.1525
  611MOL0     C82363   9.042  11.460   4.135  0.4430  0.0625 -0.7202
  611MOL0     C82364   9.115  11.471   3.992  0.8104  0.1835 -0.4158
  611MOL0     C82365   9.048  11.584   3.906  0.2809  0.3025 -1.4097
  611MOL0     C82366   9.116  11.622   3.784  1.1811 -0.1477  0.3113
  611MOL0     N82367   9.033  11.692   3.681 -0.4803 -0.2005  0.4542
  611MOL0     C82368   8.949  11.799   3.702  0.7698 -0.9639 -0.5136
  611MOL0     C82369   8.928  11.846   3.578  0.1815  0.2487 -0.2851
  611MOL0     C82370   8.850  11.970   3.541  0.2366  0.3484  0.2481
  611MOL0     C82371   8.718  11.929   3.483 -0.4233 -0.2832  0.5488
  611MOL0     C82372   8.633  12.054   3.429  0.9434  0.1836 -1.5302
  611MOL0     C82373   8.597  12.151   3.544  0.5350 -0.1464 -0.0671
  611MOL0     O82374   8.454  12.183   3.565 -0.1642 -0.2138  1.0089
  611MOL0     C82375   8.388  12.116   3.668  0.6270  0.4145 -0.2267
  611MOL0     C82376   8.271  12.178   3.716 -0.1013 -0.4287  0.3761
  611MOL0     C82377   8.203  12.145   3.840  0.3350  1.6300  0.6445
  611MOL0     C82378   8.081  12.231   3.883 -0.1038 -0.1085  0.2995
  611MOL0     C82379   8.239  12.021   3.900 -0.0755 -0.9761  0.3601
  611MOL0     C82380   8.168  11.959   4.013 -0.5313 -0.1254  0.1667
  611MOL0     O82381   8.165  11.819   4.018  0.1352  0.5892 -0.9484
  611MOL0     C82382   8.122  11.757   4.138 -0.6206 -0.4500 -0.3385
  611MOL0     C82383   8.042  11.637   4.132  0.0777 -0.8870  0.5658
  611MOL0     C82384   8.015  11.572   4.241 -0.1001  0.6010 -0.0156
  611MOL0     C82385   8.073  11.605   4.368  0.6258  0.1571  0.4813
  611MOL0     O82386   8.041  11.528   4.477 -0.6005 -0.1713 -0.3754
  611MOL0     C82387   8.134  11.546   4.587  0.0600 -0.4420  1.2017
  611MOL0     C82388   8.149  11.403   4.652 -0.4591  0.8959  0.2496
  611MOL0     C82389   8.023  11.357   4.710  1.0392 -0.3779  0.0252
  611MOL0     C82390   8.053  11.254   4.819 -1.0285  0.5650 -0.1912
  611MOL0     C82391   8.149  11.137   4.778 -0.1581 -0.4416  0.2471
  611MOL0     C82392   8.074  11.046   4.687  0.1307 -0.5291 -0.7856
  611MOL0     C82393   8.150  10.906   4.696  0.1215 -0.2737 -0.0718
  611MOL0     C82394   8.067  10.811   4.617  0.2582  1.0067  0.6523
  611MOL0    Cl82395   8.154  10.660   4.635 -0.1689 -0.2190  0.0242
  611MOL0     C82396   8.132  11.733   4.376 -0.4869 -0.2807  0.3709
  611MOL0     C82397   8.167  11.802   4.263  0.2448 -0.5755 -0.1660
  611MOL0     O82398   8.115  12.035   4.098 -0.5865 -0.2779 -0.3505
  611MOL0     C82399   8.335  11.945   3.833  0.3997 -0.4075 -0.2215
  611MOL0     C82400   8.419  11.998   3.730 -0.0362 -0.0380 -0.9094
  611MOL0     N82401   8.983  11.766   3.483 -0.8603  0.6058 -0.2513
  611MOL0     N82402   9.048  11.671   3.542  0.2135  0.2602  0.3554
  611MOL0     C82403   8.743  10.919   4.614  0.1883  0.8905 -0.3750
  611MOL0     C82404   8.652  10.820   4.671  0.0340  0.5377  1.1703
  611MOL0     C82405   8.465  10.449   4.832  0.9615 -0.7017  0.7757
  611MOL0     C82406   8.491  10.324   4.893 -0.3285 -0.1822  0.2281
  611MOL0     C82407   8.392  10.243   4.959  0.6925 -0.0142  0.0868
  611MOL0     C82408   8.264  10.290   4.956 -0.3484 -0.8467 -0.1039
  611MOL0     O82409   8.162  10.219   5.001  0.5385 -0.0168 -0.1463
  611MOL0     C82410   8.129  10.092   4.950  0.3438 -0.1940 -0.1008
  611MOL0     C82411   8.033  10.020   5.046 -0.9157 -0.3767 -0.8446
  611MOL0     C82412   7.884  10.051   5.028 -0.8245 -0.8606 -0.7688
  611MOL0     C82413   7.797   9.959   5.117 -0.2115  0.1604 -0.4277
  611MOL0     C82414   7.832   9.948   5.254 -0.1328 -0.4899  0.1447
  611MOL0     C82415   7.859   9.946   5.369  0.0406 -0.8717 -0.8340
  611MOL0     C82416   8.242  10.422   4.906  0.6027  1.4449 -1.0519
  611MOL0     C82417   8.333  10.496   4.830 -0.5672  0.5431 -1.0323
  611MOL0     H82418   8.694  10.575   4.447  0.0614 -0.4345 -0.1941
  611MOL0     H82419   8.835  10.757   4.338  1.6234 -1.0164 -0.0078
  611MOL0     H82420   8.826  11.160   4.479 -1.0176 -1.0873  0.5332
  611MOL0     H82421   8.956  11.075   4.575 -0.9808  0.2032  0.0932
  611MOL0     H82422   9.067  11.247   4.473 -3.7952  2.7889 -1.4375
  611MOL0     H82423   9.114  11.107   4.372 -1.0297 -0.6501 -0.6725
  611MOL0     H82424   8.956  11.180   4.205 -2.8452  2.8316 -1.2144
  611MOL0     H82425   8.900  11.297   4.314 -1.7404 -2.7860 -0.5204
  611MOL0     H82426   9.154  11.380   4.308 -0.9761  0.1412  0.2248
  611MOL0     H82427   9.177  11.285   4.169 -0.0597 -0.2323  0.8397
  611MOL0     H82428   8.938  11.445   4.108 -0.0317  0.8966  0.5248
  611MOL0     H82429   9.053  11.545   4.204 -3.3358  0.3470 -0.2811
  611MOL0     H82430   9.222  11.483   4.010  0.9838 -2.3090  0.6709
  611MOL0     H82431   9.106  11.378   3.936  0.8994  0.2614 -0.5593
  611MOL0     H82432   8.947  11.553   3.880 -0.4146  1.7878 -0.6110
  611MOL0     H82433   9.037  11.671   3.971  1.1923 -2.3127  2.5500
  611MOL0     H82434   9.166  11.535   3.740  1.7212  0.2162  0.2038
  611MOL0     H82435   9.199  11.687   3.811  0.2920  0.5623  1.4089
  611MOL0     H82436   8.913  11.842   3.795  0.5624 -2.0921 -0.0567
  611MOL0     H82437   8.841  12.029   3.633  0.4436  0.4745  0.1886
  611MOL0     H82438   8.918  12.018   3.470  0.2043 -0.1458 -0.1245
  611MOL0     H82439   8.660  11.869   3.554 -0.6968 -0.8273 -0.1312
  611MOL0     H82440   8.732  11.875   3.389 -1.8559  1.2901 -0.6347
  611MOL0     H82441   8.534  12.019   3.399 -0.5245  0.1474  2.6007
  611MOL0     H82442   8.672  12.102   3.339  1.3226 -1.2881 -2.1808
  611MOL0     H82443   8.661  12.233   3.512 -1.1378  0.4854 -2.0140
  611MOL0     H82444   8.634  12.114   3.641 -0.2106 -0.4476  0.1111
  611MOL0     H82445   8.239  12.264   3.657 -0.8346  0.0757  1.4872
  611MOL0     H82446   7.988  12.176   3.868 -0.6228  0.7940  0.0882
  611MOL0     H82447   8.109  12.261   3.985  3.1706 -0.9952 -0.2518
  611MOL0     H82448   8.057  12.311   3.812  3.1899 -0.8253 -1.8496
  611MOL0     H82449   8.009  11.610   4.032  1.4165  1.1592 -0.5013
  611MOL0     H82450   7.952  11.484   4.232  2.9636 -1.5922 -5.9964
  611MOL0     H82451   8.228  11.594   4.557 -1.1460  1.1260 -0.2175
  611MOL0     H82452   8.088  11.608   4.664 -1.8502 -1.3060  0.8010
  611MOL0     H82453   8.192  11.325   4.588 -0.4419 -0.6775  2.0662
  611MOL0     H82454   8.218  11.416   4.736  1.9421  3.8197 -1.9819
  611MOL0     H82455   7.986  11.301   4.624  3.9048  2.1435 -3.1117
  611MOL0     H82456   7.948  11.431   4.738 -0.8496 -2.3679  0.5667
  611MOL0     H82457   8.110  11.309   4.894 -1.5893  0.5594  0.2405
  611MOL0     H82458   7.957  11.210   4.849  0.0275 -1.5372  0.3053
  611MOL0     H82459   8.152  11.083   4.873 -0.6985 -1.7823 -0.4636
  611MOL0     H82460   8.250  11.173   4.754 -0.3702  0.1810  0.2769
  611MOL0     H82461   7.969  11.035   4.717 -0.9896  3.8768 -2.3531
  611MOL0     H82462   8.069  11.071   4.580 -1.5900 -0.0217 -0.6212
  611MOL0     H82463   8.163  10.879   4.801  1.1441 -1.8017 -0.5680
  611MOL0     H82464   8.248  10.895   4.648  0.3494 -2.4002  0.7949
  611MOL0     H82465   8.035  10.834   4.515 -2.0041  0.0590  1.0935
  611MOL0     H82466   7.971  10.798   4.667 -0.3803 -1.4353 -1.0247
  611MOL0     H82467   8.164  11.773   4.472 -1.8747 -1.6125  1.4544
  611MOL0     H82468   8.216  11.897   4.281 -1.9863  0.8012 -0.9561
  611MOL0     H82469   8.346  11.845   3.876  1.6574  0.5686  1.9179
  611MOL0     H82470   8.500  11.933   3.699 -1.6125 -1.6916 -1.7334
  611MOL0     H82471   8.767  11.011   4.666  0.6104  1.3174 -1.3046
  611MOL0     H82472   8.602  10.859   4.760 -2.4091  2.8991 -1.0480
  611MOL0     H82473   8.587  10.278   4.911 -1.2561 -1.6639  1.6810
  611MOL0     H82474   8.424  10.150   5.005  0.2269 -1.4064 -2.2218
  611MOL0     H82475   8.076  10.099   4.854 -1.2409  2.9926  0.8897
  611MOL0     H82476   8.222  10.037   4.930  0.9579  0.4944  0.7726
  611MOL0     H82477   8.080  10.030   5.144  0.1482  2.0348 -1.5378
  611MOL0     H82478   8.057   9.913   5.039  1.7090  0.1778 -1.0582
  611MOL0     H82479   7.844  10.050   4.926 -0.0348  2.0327 -1.2129
  611MOL0     H82480   7.866  10.154   5.061  0.4828 -0.6389 -0.7314
  611MOL0     H82481   7.783   9.855   5.083  0.8432  0.2968 -1.3365
  611MOL0     H82482   7.697  10.003   5.111  0.0295  0.7543 -0.0772
  611MOL0     H82483   7.889   9.950   5.472 -1.7667 -2.5234 -0.1891
  611MOL0     H82484   8.141  10.449   4.936  0.7985  1.3209 -0.2767
  611MOL0     H82485   8.311  10.595   4.790 -2.1700 -0.2475 -2.2653
  612MOL0     O82486   7.626   6.707   8.988 -0.2840  0.5916  0.0053
  612MOL0     C82487   7.743   6.723   8.943 -0.2636 -0.2567 -0.6826
  612MOL0     O82488   7.816   6.627   8.887 -0.1718  0.0162 -0.4623
  612MOL0     C82489   7.757   6.526   8.819  0.0391  0.2292  0.0888
  612MOL0     C82490   7.761   6.535   8.680 -0.2903 -1.1571  0.0864
  612MOL0     C82491   7.711   6.432   8.601 -0.6683 -0.5940  0.8676
  612MOL0     C82492   7.661   6.322   8.656 -0.3023  0.4357  0.9045
  612MOL0     O82493   7.614   6.229   8.566 -0.1859  0.6335  0.0646
  612MOL0     C82494   7.488   6.177   8.583  0.0294  0.3660 -0.3318
  612MOL0     C82495   7.474   6.028   8.557  1.0519  0.1600 -0.0460
  612MOL0     C82496   7.472   5.992   8.406  0.4052  0.8443  0.2717
  612MOL0     C82497   7.599   6.006   8.330 -0.4734  0.7735  0.2205
  612MOL0     C82498   7.604   5.945   8.199 -0.2826  0.0159 -0.0140
  612MOL0     C82499   7.753   5.952   8.138  0.6776  0.3623  0.8161
  612MOL0     C82500   7.805   5.817   8.094  0.7608  0.5251 -0.0768
  612MOL0     C82501   7.714   5.738   7.997  0.0813 -0.6787 -0.0348
  612MOL0     N82502   7.681   5.821   7.873  0.2848  0.0235 -0.0245
  612MOL0     C82503   7.759   5.912   7.809 -0.5524 -0.3369  0.9092
  612MOL0     C82504   7.686   5.953   7.703  0.2931  0.2943 -0.1782
  612MOL0     C82505   7.714   6.051   7.595 -0.1717 -0.0090  0.2172
  612MOL0     C82506   7.697   5.993   7.451 -0.8316 -0.1467 -1.0125
  612MOL0     C82507   7.714   6.115   7.343  0.4703  0.2148 -0.2478
  612MOL0     C82508   7.779   6.067   7.212 -0.0287 -0.2174  0.4808
  612MOL0     O82509   7.923   6.110   7.210  0.2741  0.4663  0.2897
  612MOL0     C82510   8.007   6.054   7.118 -0.3694 -0.5369  0.2085
  612MOL0     C82511   8.011   5.928   7.068 -0.4766  0.1001 -0.9489
  612MOL0     C82512   8.111   5.887   6.975 -0.1698 -0.3116  1.2792
  612MOL0     C82513   8.098   5.736   6.946  0.2402 -0.3302  0.0755
  612MOL0     C82514   8.222   5.975   6.930  0.4046 -0.5147 -1.5638
  612MOL0     C82515   8.331   5.945   6.836 -0.0203  0.8679 -0.1473
  612MOL0     O82516   8.424   6.039   6.798 -0.8429 -0.3694 -0.6317
  612MOL0     C82517   8.485   6.025   6.679 -0.9125 -0.2072 -0.0076
  612MOL0     C82518   8.412   6.059   6.565 -0.0966 -0.8604 -0.0285
  612MOL0     C82519   8.441   6.015   6.436  0.2022 -0.1186  0.4895
  612MOL0     C82520   8.561   5.938   6.417  0.1624 -0.6512 -1.0370
  612MOL0     O82521   8.595   5.913   6.298  0.6171 -0.0035  0.7295
  612MOL0     C82522   8.732   5.864   6.268 -0.7287  0.1097  0.1614
  612MOL0     C82523   8.775   5.882   6.122  0.0223 -0.3265  0.5692
  612MOL0     C82524   8.880   5.789   6.083 -0.8882  0.8473 -0.1397
  612MOL0     C82525   8.883   5.784   5.928 -0.5693 -0.5041 -0.9844
  612MOL0     C82526   9.021   5.770   5.873  0.3196 -0.2233  0.6532
  612MOL0     C82527   9.013   5.767   5.717 -0.0718 -0.3462  0.2602
  612MOL0     C82528   8.963   5.905   5.659 -1.4990 -0.1095 -0.4549
  612MOL0     C82529   9.060   6.017   5.684  0.1332  0.6291 -0.1912
  612MOL0    Cl82530   9.217   5.974   5.616 -0.4772  0.0081 -0.1994
  612MOL0     C82531   8.634   5.898   6.539  0.4488  0.1949  0.7521
  612MOL0     C82532   8.591   5.938   6.663 -0.6374  0.3111 -0.4923
  612MOL0     O82533   8.325   5.832   6.796 -0.1978 -0.3579  0.2446
  612MOL0     C82534   8.206   6.107   6.985 -0.2094 -1.5160 -0.2593
  612MOL0     C82535   8.107   6.143   7.074 -0.3314 -0.1296  0.0077
  612MOL0     N82536   7.562   5.894   7.711  0.3611 -0.8643  0.1547
  612MOL0     N82537   7.556   5.815   7.811  1.1622 -0.6190  0.3391
  612MOL0     C82538   7.662   6.304   8.798  0.9219  0.7792  0.0523
  612MOL0     C82539   7.720   6.400   8.878 -0.4830  0.1991  0.0918
  612MOL0     C82540   7.802   6.859   8.942  0.0976  0.1621  0.4884
  612MOL0     C82541   7.712   6.958   8.961  0.7517 -0.1926 -0.0598
  612MOL0     C82542   7.743   7.097   8.964  0.3817  0.7850 -0.4346
  612MOL0     C82543   7.864   7.143   8.922 -0.1728 -0.0449  1.0311
  612MOL0     O82544   7.894   7.276   8.931 -0.2727  0.0186 -0.1127
  612MOL0     C82545   7.918   7.308   9.071  0.0655 -0.3386 -0.5250
  612MOL0     C82546   8.051   7.245   9.117 -0.0283  0.7070 -0.6664
  612MOL0     C82547   8.153   7.288   9.010 -0.7560  0.7365  0.4703
  612MOL0     C82548   8.286   7.236   9.038 -0.1890  0.2676 -0.4679
  612MOL0     C82549   8.280   7.088   9.067  0.5124 -0.4441  0.4064
  612MOL0     C82550   8.279   6.964   9.070  0.2088 -0.3598  0.9350
  612MOL0     C82551   7.953   7.041   8.871  0.8565  0.5748 -0.6466
  612MOL0     C82552   7.923   6.905   8.895 -0.8835 -0.4454 -0.0611
  612MOL0     H82553   7.818   6.617   8.639 -1.0527 -0.9312 -0.5368
  612MOL0     H82554   7.720   6.451   8.494 -0.0723 -0.4678  0.9375
  612MOL0     H82555   7.437   6.197   8.677  1.0823 -0.6767  0.4901
  612MOL0     H82556   7.422   6.223   8.510 -1.3528  1.4624  1.5312
  612MOL0     H82557   7.561   5.990   8.612  3.5387  0.9278 -3.1414
  612MOL0     H82558   7.378   6.001   8.602  1.5104  1.9282  2.2131
  612MOL0     H82559   7.445   5.886   8.398 -1.2161  1.1780  1.0750
  612MOL0     H82560   7.397   6.059   8.365 -0.3443  0.2431  0.6230
  612MOL0     H82561   7.625   6.112   8.328 -0.7812  0.9246  2.2362
  612MOL0     H82562   7.672   5.954   8.393 -2.2677  0.2670  1.9836
  612MOL0     H82563   7.584   5.837   8.201  0.6029 -0.1600 -0.3164
  612MOL0     H82564   7.544   6.003   8.128  2.4453 -0.3298 -2.7902
  612MOL0     H82565   7.770   6.023   8.056  0.8309  0.4510  0.9239
  612MOL0     H82566   7.823   5.989   8.214 -0.4020 -2.1733  3.2423
  612MOL0     H82567   7.900   5.829   8.042  0.4388  3.1404 -0.1697
  612MOL0     H82568   7.826   5.749   8.177  2.2392 -1.4944 -1.9703
  612MOL0     H82569   7.618   5.698   8.032  0.5960 -0.8069  1.2723
  612MOL0     H82570   7.759   5.643   7.969 -0.1530 -0.0677 -2.8096
  612MOL0     H82571   7.857   5.952   7.830 -0.8207  1.5234 -1.1067
  612MOL0     H82572   7.675   6.153   7.607 -0.7462 -0.1327 -0.5152
  612MOL0     H82573   7.820   6.075   7.592 -0.2228  0.2691  0.4989
  612MOL0     H82574   7.599   5.945   7.445  0.1306 -2.1395 -1.5166
  612MOL0     H82575   7.774   5.916   7.442 -1.9693 -1.3694 -0.6393
  612MOL0     H82576   7.781   6.191   7.384 -0.2184  1.6406 -1.6566
  612MOL0     H82577   7.623   6.174   7.330  1.6806  2.5435  1.2342
  612MOL0     H82578   7.736   6.121   7.127  2.9641  0.0507 -1.0239
  612MOL0     H82579   7.758   5.963   7.187  3.9058 -1.0719 -0.0219
  612MOL0     H82580   7.949   5.851   7.112 -0.0172  1.6217  2.7176
  612MOL0     H82581   8.065   5.711   6.844 -1.4131 -5.0022  1.5071
  612MOL0     H82582   8.191   5.687   6.973  0.0958 -1.7382 -1.7725
  612MOL0     H82583   8.031   5.679   7.011  2.1856 -1.8751  0.8077
  612MOL0     H82584   8.325   6.120   6.585  0.3331 -1.0015  2.8079
  612MOL0     H82585   8.377   6.053   6.357 -1.7359  0.0142  2.0521
  612MOL0     H82586   8.821   5.894   6.324  0.0441  0.5748 -1.2337
  612MOL0     H82587   8.735   5.757   6.291  0.3213 -0.6486 -2.8908
  612MOL0     H82588   8.688   5.882   6.055  0.8228  1.1549 -0.5452
  612MOL0     H82589   8.807   5.987   6.120  0.8141 -0.5704 -0.9126
  612MOL0     H82590   8.848   5.689   6.116 -1.2116  1.2358  0.7517
  612MOL0     H82591   8.981   5.806   6.120  0.0959  0.4215 -2.4147
  612MOL0     H82592   8.816   5.703   5.900 -3.5837  1.1430  0.9475
  612MOL0     H82593   8.839   5.877   5.890  0.9586  0.3560 -0.7461
  612MOL0     H82594   9.051   5.668   5.900 -2.5106 -1.9493 -2.1213
  612MOL0     H82595   9.098   5.840   5.907  2.8387 -2.5911  0.2606
  612MOL0     H82596   9.116   5.749   5.686  0.8819  2.1343  1.6411
  612MOL0     H82597   8.955   5.683   5.679 -0.1669  0.5082 -1.6348
  612MOL0     H82598   8.860   5.936   5.678 -0.5512  1.6575  2.5284
  612MOL0     H82599   8.961   5.890   5.551 -0.7053 -2.2167 -0.2244
  612MOL0     H82600   9.070   6.027   5.792 -1.9258  0.4296  0.0617
  612MOL0     H82601   9.031   6.114   5.642 -0.3345  0.0301 -1.2772
  612MOL0     H82602   8.718   5.830   6.531  1.3886  0.5382  4.9636
  612MOL0     H82603   8.620   5.891   6.756 -2.9853 -2.3299 -0.9418
  612MOL0     H82604   8.275   6.188   6.966 -2.0848  0.8295  2.2099
  612MOL0     H82605   8.097   6.248   7.096  1.4532  0.6535 -2.5140
  612MOL0     H82606   7.641   6.208   8.844 -0.9776  0.5539 -1.1535
  612MOL0     H82607   7.724   6.382   8.985 -0.6620 -0.4372 -0.0070
  612MOL0     H82608   7.605   6.943   8.968  0.9257 -0.9898  1.1667
  612MOL0     H82609   7.661   7.168   8.961  0.6988  1.2242  0.7286
  612MOL0     H82610   7.909   7.414   9.099 -1.2728  0.3639 -3.2729
  612MOL0     H82611   7.842   7.249   9.124  1.5321 -3.4207 -1.6664
  612MOL0     H82612   8.033   7.139   9.134 -3.8906  1.4833  1.1054
  612MOL0     H82613   8.084   7.282   9.214  0.0908  0.0541 -0.4555
  612MOL0     H82614   8.146   7.397   9.006 -1.7700  0.8693  3.5983
  612MOL0     H82615   8.127   7.264   8.906 -1.0401 -0.4197  0.7989
  612MOL0     H82616   8.322   7.279   9.132 -1.7105 -1.4805  1.0124
  612MOL0     H82617   8.363   7.246   8.961  3.7133 -0.4433  2.9843
  612MOL0     H82618   8.304   6.860   9.073 -0.8750 -0.6561  0.0741
  612MOL0     H82619   8.048   7.084   8.838  1.1461 -1.6019 -2.9340
  612MOL0     H82620   7.990   6.825   8.865 -1.4501 -1.8836  2.1912
  613MOL0     O82621   9.783   2.409   3.612  0.6884  0.8597  0.9069
  613MOL0     C82622   9.799   2.496   3.698  0.4345  1.0493  0.0649
  613MOL0     O82623   9.744   2.620   3.707  0.5084  0.3714 -0.0985
  613MOL0     C82624   9.662   2.648   3.598 -0.5918 -0.0228 -0.2332
  613MOL0     C82625   9.534   2.588   3.580  0.3071 -0.2104 -0.3150
  613MOL0     C82626   9.446   2.633   3.476 -0.1077  0.9493  0.2249
  613MOL0     C82627   9.494   2.731   3.381  0.4429  0.2311 -0.0811
  613MOL0     O82628   9.408   2.742   3.278  0.5964 -0.2577 -0.4973
  613MOL0     C82629   9.429   2.658   3.164 -0.1698 -0.0654 -0.2314
  613MOL0     C82630   9.549   2.702   3.085  0.0026 -1.1630 -0.1789
  613MOL0     C82631   9.569   2.605   2.960  0.9611 -0.0933  0.2853
  613MOL0     C82632   9.634   2.667   2.841  0.4348  0.9138 -0.9375
  613MOL0     C82633   9.609   2.586   2.716  0.0738  1.2791  0.2624
  613MOL0     C82634   9.644   2.668   2.598  0.3261  0.4408 -0.9909
  613MOL0     C82635   9.619   2.606   2.457  0.8341  0.2526 -0.2979
  613MOL0     C82636   9.718   2.500   2.412  0.5610  0.1475  1.0221
  613MOL0     N82637   9.713   2.381   2.498  0.1556  0.2680  0.1372
  613MOL0     C82638   9.610   2.294   2.514  0.1362  0.4259  0.0553
  613MOL0     C82639   9.669   2.200   2.597 -0.0932  0.3001 -0.0524
  613MOL0     C82640   9.611   2.068   2.649 -0.5111  0.4204 -0.1053
  613MOL0     C82641   9.464   2.074   2.692  0.1272  0.2475  0.0574
  613MOL0     C82642   9.448   2.169   2.802 -0.3656  0.5588 -0.8859
  613MOL0     C82643   9.316   2.180   2.871  0.1528  0.4708 -0.1108
  613MOL0     O82644   9.232   2.279   2.808  0.1596 -0.0589 -0.1669
  613MOL0     C82645   9.181   2.385   2.890  0.4998  0.3972 -0.5545
  613MOL0     C82646   9.097   2.474   2.827 -0.0855  0.4315 -0.3565
  613MOL0     C82647   9.031   2.578   2.889 -0.6383 -0.2554  0.6971
  613MOL0     C82648   8.952   2.674   2.806 -0.6428 -0.8854  0.0475
  613MOL0     C82649   9.049   2.588   3.029 -0.3934 -0.2929  0.3202
  613MOL0     C82650   9.004   2.708   3.115  0.2513  0.3053 -0.0872
  613MOL0     O82651   8.878   2.702   3.174 -0.2654 -0.1699  0.0496
  613MOL0     C82652   8.822   2.815   3.216 -0.1085  0.6687 -0.9083
  613MOL0     C82653   8.710   2.874   3.156 -0.1092 -0.2135  0.2270
  613MOL0     C82654   8.635   2.975   3.209  0.0815 -0.0325 -0.2412
  613MOL0     C82655   8.670   3.039   3.330  0.1456  0.0528  0.8216
  613MOL0     O82656   8.604   3.151   3.369  0.0073  0.1964 -0.8144
  613MOL0     C82657   8.639   3.225   3.489 -0.0235  0.1983  0.4578
  613MOL0     C82658   8.561   3.345   3.465 -1.2354 -0.5616 -0.1475
  613MOL0     C82659   8.608   3.431   3.350 -0.1208 -0.7999  0.1023
  613MOL0     C82660   8.513   3.549   3.335  0.8647  0.3967  0.2089
  613MOL0     C82661   8.531   3.661   3.443  0.1022  0.7314  0.1001
  613MOL0     C82662   8.653   3.747   3.426 -0.5389 -0.0903 -0.5951
  613MOL0     C82663   8.698   3.813   3.566  0.2958  0.5524  0.0969
  613MOL0     C82664   8.797   3.938   3.556  0.6040 -0.4010  0.3834
  613MOL0    Cl82665   8.696   4.060   3.474  0.2041 -0.3658  0.4092
  613MOL0     C82666   8.783   2.989   3.396  0.4319 -1.3171 -0.5499
  613MOL0     C82667   8.849   2.876   3.346 -0.9173  0.1081 -0.0022
  613MOL0     O82668   9.083   2.812   3.115  0.2064 -0.1475 -0.5449
  613MOL0     C82669   9.139   2.499   3.096  0.7610  0.2906  0.2796
  613MOL0     C82670   9.195   2.401   3.025 -0.0171  0.4821 -0.0564
  613MOL0     N82671   9.796   2.245   2.631  1.2606 -0.0661  0.7562
  613MOL0     N82672   9.816   2.357   2.576 -0.3675  0.1917  0.1340
  613MOL0     C82673   9.624   2.784   3.388 -0.8408 -0.4540 -0.8471
  613MOL0     C82674   9.708   2.738   3.491  0.1983  0.2237 -1.0754
  613MOL0     C82675   9.907   2.481   3.808 -0.3513  0.1689  0.5944
  613MOL0     C82676   9.912   2.575   3.914 -0.0573 -0.2927  1.6148
  613MOL0     C82677  10.016   2.565   4.004  0.3622 -0.1948  0.6842
  613MOL0     C82678  10.107   2.458   3.998 -0.3340  0.4662 -0.2878
  613MOL0     O82679  10.213   2.465   4.087  0.0517  0.3134 -0.3038
  613MOL0     C82680  10.329   2.376   4.091 -0.2105  0.3743  0.0928
  613MOL0     C82681  10.307   2.248   4.173 -0.7365  0.8968 -0.2820
  613MOL0     C82682  10.305   2.246   4.330 -0.6689 -0.5514 -0.0299
  613MOL0     C82683  10.459   2.276   4.375 -1.0459 -0.3853  1.1090
  613MOL0     C82684  10.462   2.256   4.519 -1.2344 -0.3064 -0.1857
  613MOL0     C82685  10.440   2.259   4.639 -0.6465 -0.0019  1.1150
  613MOL0     C82686  10.095   2.358   3.898 -1.2765  0.5302 -0.1751
  613MOL0     C82687  10.001   2.371   3.802 -0.0892  0.1878  1.3592
  613MOL0     H82688   9.500   2.528   3.663  2.8880 -1.0208  0.2457
  613MOL0     H82689   9.343   2.599   3.468 -0.2528  1.7030 -1.2579
  613MOL0     H82690   9.433   2.554   3.200 -0.9913  0.7287  2.3747
  613MOL0     H82691   9.339   2.675   3.104  0.0124 -2.3426 -1.2930
  613MOL0     H82692   9.542   2.809   3.066  0.4206 -1.2577 -0.9215
  613MOL0     H82693   9.639   2.696   3.146 -1.0094  0.5423  1.5842
  613MOL0     H82694   9.623   2.516   2.994 -1.0331 -1.8287 -0.8341
  613MOL0     H82695   9.467   2.578   2.932  0.9577 -0.1793  0.3818
  613MOL0     H82696   9.604   2.772   2.839  1.7600  1.3071 -2.2278
  613MOL0     H82697   9.743   2.654   2.852  0.1466 -2.8232 -1.2685
  613MOL0     H82698   9.658   2.489   2.712 -0.9067  0.8259 -2.2617
  613MOL0     H82699   9.503   2.558   2.716 -0.7983  4.1633 -0.5665
  613MOL0     H82700   9.592   2.762   2.617 -1.1704 -0.2448 -1.5328
  613MOL0     H82701   9.751   2.686   2.608  0.0328  2.0810 -0.5506
  613MOL0     H82702   9.519   2.562   2.452  0.8488 -0.0782  1.7946
  613MOL0     H82703   9.621   2.693   2.390 -0.3324 -0.7379 -1.6818
  613MOL0     H82704   9.819   2.541   2.410  0.4780  0.4155  2.0505
  613MOL0     H82705   9.698   2.461   2.311 -0.7686 -2.1595  2.0927
  613MOL0     H82706   9.509   2.285   2.476  0.0543 -0.2421  0.4124
  613MOL0     H82707   9.618   1.997   2.566  0.2665 -2.5589  2.3398
  613MOL0     H82708   9.671   2.023   2.729  0.3891 -0.5318 -1.2680
  613MOL0     H82709   9.426   1.978   2.728  0.4431  0.8633  2.1710
  613MOL0     H82710   9.408   2.111   2.606  0.0693  2.9481  1.1637
  613MOL0     H82711   9.472   2.268   2.763 -1.3775  1.3383  0.3671
  613MOL0     H82712   9.526   2.158   2.877 -0.6024  3.3582 -0.1039
  613MOL0     H82713   9.347   2.205   2.973  2.1947 -1.4901 -0.1741
  613MOL0     H82714   9.270   2.081   2.873 -1.1535  1.0710  2.5078
  613MOL0     H82715   9.095   2.478   2.718 -1.3472  0.7204 -0.3466
  613MOL0     H82716   8.893   2.621   2.730 -1.4578 -0.8422  0.6403
  613MOL0     H82717   8.888   2.736   2.868  0.0237  2.3540 -2.2451
  613MOL0     H82718   9.025   2.749   2.774 -2.4316  0.8950 -0.0379
  613MOL0     H82719   8.693   2.834   3.056  0.1341  0.0252  0.0908
  613MOL0     H82720   8.551   3.025   3.162 -0.3822 -0.5451  0.0298
  613MOL0     H82721   8.599   3.177   3.578  1.6996  0.7932  1.5991
  613MOL0     H82722   8.746   3.244   3.499  0.0830 -1.0458  1.9565
  613MOL0     H82723   8.461   3.308   3.441  0.4068 -4.0858 -2.3773
  613MOL0     H82724   8.564   3.397   3.561  0.1877 -2.1241  0.7066
  613MOL0     H82725   8.611   3.373   3.258  1.1104  1.3220 -1.2954
  613MOL0     H82726   8.710   3.465   3.367 -0.5373  0.2611  0.6171
  613MOL0     H82727   8.513   3.593   3.235  0.8132  1.9801  0.8790
  613MOL0     H82728   8.409   3.523   3.356  1.4187  0.0470  2.9316
  613MOL0     H82729   8.533   3.616   3.543  2.3781  0.3683 -0.0518
  613MOL0     H82730   8.448   3.732   3.438  2.7065  4.0390  0.1022
  613MOL0     H82731   8.730   3.678   3.390 -1.2285 -1.0785 -0.2244
  613MOL0     H82732   8.638   3.819   3.346 -0.0672  0.2691 -0.3641
  613MOL0     H82733   8.752   3.737   3.623 -1.6685  1.4186  3.3811
  613MOL0     H82734   8.605   3.846   3.614 -1.0408  0.6436 -2.3895
  613MOL0     H82735   8.890   3.928   3.499  0.1139  2.2940 -1.0939
  613MOL0     H82736   8.818   3.968   3.659 -0.2365 -0.2582  0.5192
  613MOL0     H82737   8.811   3.020   3.497  3.4667  0.7548 -1.8743
  613MOL0     H82738   8.937   2.839   3.398 -0.8942  0.9952  0.6084
  613MOL0     H82739   9.160   2.514   3.201  0.1335 -0.1632  0.4731
  613MOL0     H82740   9.251   2.325   3.079 -2.3781 -1.6599 -0.3991
  613MOL0     H82741   9.656   2.850   3.308  0.6248 -0.7120 -0.4907
  613MOL0     H82742   9.801   2.788   3.516 -1.0155  0.9392  2.6003
  613MOL0     H82743   9.831   2.645   3.934 -1.1424 -1.1764  0.5109
  613MOL0     H82744  10.025   2.642   4.080 -2.0225  2.2222 -1.2615
  613MOL0     H82745  10.340   2.339   3.988 -0.2777  0.7165 -0.0406
  613MOL0     H82746  10.416   2.429   4.131 -0.5928 -0.1937  1.7210
  613MOL0     H82747  10.384   2.181   4.132 -1.6541  1.7916 -3.8449
  613MOL0     H82748  10.210   2.209   4.141 -0.6906 -0.2308  0.8945
  613MOL0     H82749  10.269   2.150   4.368 -2.2726  1.0983  2.8901
  613MOL0     H82750  10.234   2.317   4.374 -0.8330  1.0842 -2.6852
  613MOL0     H82751  10.481   2.383   4.377  1.7656 -0.8650  1.0356
  613MOL0     H82752  10.539   2.211   4.337  0.2447  0.1892  2.7448
  613MOL0     H82753  10.416   2.256   4.744 -3.6512  3.3794  0.7264
  613MOL0     H82754  10.160   2.272   3.904 -0.5584  0.7985 -2.7025
  613MOL0     H82755   9.993   2.309   3.714  1.5472  2.6823 -0.7123
  614MOL0     O82756   6.108   8.023   1.690  0.5386  1.4646  0.3090
  614MOL0     C82757   6.147   7.920   1.631  0.2689 -0.4999  0.6193
  614MOL0     O82758   6.076   7.802   1.629 -0.5682  0.6770  0.2064
  614MOL0     C82759   5.967   7.774   1.696  0.1978  0.1666 -0.6174
  614MOL0     C82760   5.909   7.846   1.806  0.5232 -1.1337  0.3163
  614MOL0     C82761   5.794   7.799   1.854  0.3740 -0.2824 -0.1813
  614MOL0     C82762   5.721   7.693   1.804  0.2456  0.1515 -0.0059
  614MOL0     O82763   5.604   7.661   1.869  0.7133  0.6788  0.0382
  614MOL0     C82764   5.537   7.530   1.855  0.3852 -0.0482  0.1273
  614MOL0     C82765   5.550   7.445   1.981 -0.5969  0.7469  0.0909
  614MOL0     C82766   5.697   7.407   2.014  0.3336  0.3652 -0.1582
  614MOL0     C82767   5.716   7.278   2.116 -0.4481 -0.3396 -0.7794
  614MOL0     C82768   5.861   7.237   2.146 -0.4216 -0.3187 -0.2242
  614MOL0     C82769   5.950   7.372   2.158  0.1712  0.6048 -0.2242
  614MOL0     C82770   6.093   7.336   2.186  0.3612 -0.5829 -0.9593
  614MOL0     C82771   6.180   7.462   2.164  1.0389 -0.5915  0.0416
  614MOL0     N82772   6.313   7.452   2.205  0.4315  0.2861  0.6328
  614MOL0     C82773   6.423   7.462   2.127  0.7363 -0.4567 -0.7990
  614MOL0     C82774   6.531   7.447   2.200 -0.1470 -0.6715  0.5520
  614MOL0     C82775   6.673   7.451   2.142 -0.6036 -0.1441 -0.3866
  614MOL0     C82776   6.688   7.326   2.061  0.0071 -0.8098  0.5130
  614MOL0     C82777   6.634   7.196   2.104 -1.0024 -0.1337 -0.2334
  614MOL0     C82778   6.636   7.070   2.014 -1.2768  0.4150 -0.2644
  614MOL0     O82779   6.587   7.107   1.884  0.1720 -0.3464 -0.1345
  614MOL0     C82780   6.454   7.135   1.870 -0.8922 -0.3579 -0.8473
  614MOL0     C82781   6.426   7.224   1.773 -0.1008 -0.0750 -1.2608
  614MOL0     C82782   6.295   7.269   1.753  0.0752 -0.1365  0.4462
  614MOL0     C82783   6.272   7.350   1.632 -0.8366 -0.2288 -0.0913
  614MOL0     C82784   6.191   7.204   1.829 -0.8581  0.5679 -0.4460
  614MOL0     C82785   6.053   7.226   1.797  0.6249  1.0222 -0.7225
  614MOL0     O82786   5.960   7.119   1.798  0.2324 -0.5830  0.1348
  614MOL0     C82787   5.830   7.127   1.781 -0.1254 -0.6452  0.3887
  614MOL0     C82788   5.766   7.028   1.849 -0.2861  0.4760 -0.2183
  614MOL0     C82789   5.629   7.003   1.849 -0.4026  0.3410  0.4852
  614MOL0     C82790   5.548   7.077   1.773 -1.8447 -0.1733  0.6447
  614MOL0     O82791   5.419   7.076   1.768 -0.4806 -0.0325  0.0321
  614MOL0     C82792   5.344   6.970   1.833  0.5630 -0.4581 -0.5711
  614MOL0     C82793   5.226   7.038   1.909 -1.5321 -0.0193  0.2144
  614MOL0     C82794   5.147   6.933   1.996 -0.1696 -0.3716 -0.3422
  614MOL0     C82795   5.011   6.985   2.055 -0.5170 -0.2897  0.3697
  614MOL0     C82796   4.967   6.888   2.159 -0.1841 -0.4033  1.3336
  614MOL0     C82797   4.834   6.942   2.209  0.1886 -0.4742  0.1731
  614MOL0     C82798   4.794   6.863   2.335 -0.4171 -0.3387 -0.8474
  614MOL0     C82799   4.675   6.918   2.421  0.5814  0.2810  0.3119
  614MOL0    Cl82800   4.661   6.820   2.579  0.1347 -0.2570 -0.0637
  614MOL0     C82801   5.607   7.167   1.688  0.9243  0.0845  0.4475
  614MOL0     C82802   5.744   7.200   1.699 -0.1932 -0.4544  0.2958
  614MOL0     O82803   6.012   7.341   1.790  0.1999  0.2634 -0.6271
  614MOL0     C82804   6.227   7.121   1.938  0.4868  0.1685  0.3020
  614MOL0     C82805   6.355   7.086   1.950 -0.2179  1.2285 -0.2734
  614MOL0     N82806   6.486   7.400   2.319 -0.0913 -0.8121 -0.2659
  614MOL0     N82807   6.355   7.419   2.328 -0.1575  0.1066  0.6789
  614MOL0     C82808   5.782   7.620   1.699 -0.4392 -0.1339  1.2953
  614MOL0     C82809   5.908   7.650   1.653  0.4072  0.4104  0.0208
  614MOL0     C82810   6.273   7.922   1.552 -0.0479 -0.3953 -0.3499
  614MOL0     C82811   6.324   7.803   1.499 -0.7084  0.3440  0.0324
  614MOL0     C82812   6.455   7.797   1.439 -0.0204 -0.1958  0.0002
  614MOL0     C82813   6.526   7.924   1.420 -0.3118  1.5603  1.4788
  614MOL0     O82814   6.649   7.936   1.367 -0.3600  0.4678 -0.3360
  614MOL0     C82815   6.740   7.837   1.403  0.1834  0.0039 -0.0343
  614MOL0     C82816   6.864   7.898   1.498  0.1964 -1.0461  0.6785
  614MOL0     C82817   6.971   7.797   1.509  1.4097  0.6228 -0.3500
  614MOL0     C82818   7.090   7.830   1.598 -0.7103 -0.1147  0.3509
  614MOL0     C82819   7.192   7.881   1.504  0.3596 -0.8473 -0.2606
  614MOL0     C82820   7.251   7.926   1.412 -0.8442  1.0421  0.2114
  614MOL0     C82821   6.459   8.044   1.464 -0.5071 -0.0744  0.2013
  614MOL0     C82822   6.340   8.042   1.529  0.0193 -0.2865 -0.1258
  614MOL0     H82823   5.948   7.941   1.839 -0.1278  0.0397 -2.0621
  614MOL0     H82824   5.732   7.834   1.936 -1.2760  0.6425 -1.7540
  614MOL0     H82825   5.432   7.555   1.836  0.1902 -0.7677  0.2385
  614MOL0     H82826   5.575   7.472   1.770  1.1552 -1.9084  1.6604
  614MOL0     H82827   5.488   7.480   2.064 -1.7721 -4.1824  1.6559
  614MOL0     H82828   5.505   7.349   1.952  1.6114 -0.1966 -0.4075
  614MOL0     H82829   5.741   7.390   1.916  2.9512  0.9072  0.8410
  614MOL0     H82830   5.737   7.501   2.054 -3.7311  2.0717  0.4649
  614MOL0     H82831   5.671   7.312   2.210  0.1484 -3.0802  0.5849
  614MOL0     H82832   5.654   7.192   2.091  0.6412 -1.3442 -0.1176
  614MOL0     H82833   5.871   7.173   2.234  1.4377  1.4210  0.9183
  614MOL0     H82834   5.910   7.183   2.064 -0.1848  0.2713 -0.4828
  614MOL0     H82835   5.953   7.430   2.065  3.5919  0.3526 -0.3810
  614MOL0     H82836   5.923   7.445   2.235  2.9860  0.3706  1.1071
  614MOL0     H82837   6.101   7.321   2.294 -3.1549  3.8578  0.2201
  614MOL0     H82838   6.132   7.263   2.114  1.9480  3.4547 -4.6616
  614MOL0     H82839   6.140   7.550   2.217 -1.4304 -0.9817 -1.0531
  614MOL0     H82840   6.180   7.475   2.056 -1.0940 -0.6612 -0.0128
  614MOL0     H82841   6.412   7.470   2.019 -2.4724 -0.4722 -0.5425
  614MOL0     H82842   6.689   7.549   2.096  2.1739 -0.2624  0.1203
  614MOL0     H82843   6.758   7.449   2.211  0.2593  0.1432 -1.4275
  614MOL0     H82844   6.791   7.309   2.027 -0.8801 -3.7741 -1.0374
  614MOL0     H82845   6.635   7.358   1.971  0.6671  2.4163  1.1497
  614MOL0     H82846   6.528   7.208   2.130 -0.7100  2.3759  0.0451
  614MOL0     H82847   6.696   7.173   2.191 -0.3067  0.1965 -0.6348
  614MOL0     H82848   6.604   6.970   2.045  2.8221 -1.6027 -1.8157
  614MOL0     H82849   6.741   7.055   1.989 -1.1140  1.4200 -0.1929
  614MOL0     H82850   6.499   7.266   1.705  2.4043  2.7971  2.7436
  614MOL0     H82851   6.365   7.364   1.577 -0.2406  0.3920  1.0471
  614MOL0     H82852   6.201   7.292   1.572 -1.3148  1.5698 -1.3327
  614MOL0     H82853   6.226   7.446   1.657  1.7006  0.6960  1.3479
  614MOL0     H82854   5.822   6.979   1.928 -0.1534 -1.2994 -1.3486
  614MOL0     H82855   5.600   6.928   1.923  2.9894  0.7513  2.4385
  614MOL0     H82856   5.316   6.903   1.751 -1.3215 -1.0764  0.5108
  614MOL0     H82857   5.398   6.908   1.905 -0.2219  1.5904  1.9484
  614MOL0     H82858   5.275   7.122   1.960  3.4874 -1.2987 -1.8613
  614MOL0     H82859   5.164   7.088   1.834 -0.5903 -0.2964 -0.7743
  614MOL0     H82860   5.210   6.915   2.084 -2.1254 -0.9246  0.9991
  614MOL0     H82861   5.129   6.836   1.950  1.3058 -1.4353  1.1807
  614MOL0     H82862   5.028   7.085   2.097  0.1860  0.6064 -1.9150
  614MOL0     H82863   4.933   6.983   1.978 -0.8005  2.8409  0.4427
  614MOL0     H82864   5.038   6.888   2.242  0.4228 -0.6352  0.8183
  614MOL0     H82865   4.962   6.788   2.114  1.2384 -1.0544  2.5590
  614MOL0     H82866   4.843   7.050   2.229 -2.8578 -0.3709  1.6542
  614MOL0     H82867   4.755   6.933   2.133 -0.7761 -1.2259  1.2307
  614MOL0     H82868   4.880   6.861   2.402  0.0589 -4.7717 -1.2657
  614MOL0     H82869   4.787   6.758   2.302  1.9093 -0.3549 -1.4705
  614MOL0     H82870   4.588   6.920   2.355  2.2939  0.8996 -2.0628
  614MOL0     H82871   4.713   7.019   2.442 -0.4205  1.3463 -2.4783
  614MOL0     H82872   5.547   7.217   1.613  0.3078  0.2755  1.0575
  614MOL0     H82873   5.790   7.274   1.633 -1.1129 -1.2733 -1.3357
  614MOL0     H82874   6.147   7.068   1.989  0.3488 -0.4542 -0.5333
  614MOL0     H82875   6.382   7.033   2.041 -0.9584  3.0720  1.0791
  614MOL0     H82876   5.747   7.524   1.662 -2.1828  1.2171 -0.7841
  614MOL0     H82877   5.948   7.594   1.569  3.3723  3.2907 -0.7001
  614MOL0     H82878   6.277   7.705   1.508 -1.3039  0.4169 -1.7898
  614MOL0     H82879   6.489   7.713   1.381  0.6243  0.0844 -0.0396
  614MOL0     H82880   6.695   7.754   1.459 -0.1609  0.1862 -0.0393
  614MOL0     H82881   6.773   7.791   1.310  1.3874 -1.8424  1.2389
  614MOL0     H82882   6.820   7.919   1.596 -0.8417 -2.4613  0.5326
  614MOL0     H82883   6.892   7.993   1.451 -5.5687 -2.3809 -7.5584
  614MOL0     H82884   7.009   7.762   1.412  0.8415 -2.1013  0.3314
  614MOL0     H82885   6.925   7.708   1.553 -0.7327  2.8359  2.1830
  614MOL0     H82886   7.132   7.740   1.645 -1.4528 -0.9438 -0.5218
  614MOL0     H82887   7.070   7.904   1.675  0.5624  0.5439  0.0727
  614MOL0     H82888   7.314   7.963   1.333 -1.3059 -1.6623 -1.5868
  614MOL0     H82889   6.505   8.141   1.447  1.8674 -1.6178 -3.1247
  614MOL0     H82890   6.298   8.140   1.550  0.1972  0.0281 -1.1831
  615MOL0     O82891   5.977   1.042  10.061  0.7971 -0.3474 -0.4258
  615MOL0     C82892   6.046   0.962  10.125  0.4548  0.6713 -0.4612
  615MOL0     O82893   6.114   0.990  10.238  0.0348  0.8690  0.2443
  615MOL0     C82894   6.165   1.122  10.239 -0.1870 -0.3662  0.0624
  615MOL0     C82895   6.305   1.152  10.243 -0.0228  0.8206  0.2445
  615MOL0     C82896   6.344   1.286  10.252  0.2909 -0.3416  0.2591
  615MOL0     C82897   6.255   1.392  10.261 -0.0096  0.9809  0.0940
  615MOL0     O82898   6.308   1.520  10.259 -0.8037 -0.1331 -0.3630
  615MOL0     C82899   6.222   1.630  10.239  0.3837  0.7124 -0.5663
  615MOL0     C82900   6.289   1.754  10.189 -0.3149 -0.1377 -0.4210
  615MOL0     C82901   6.188   1.864  10.156  0.3478  0.4602 -0.5058
  615MOL0     C82902   6.261   1.993  10.137  0.0010 -0.2356  0.0841
  615MOL0     C82903   6.188   2.094  10.051  0.5961  0.8605  0.2975
  615MOL0     C82904   6.291   2.174   9.969 -0.6710 -0.0510 -0.8941
  615MOL0     C82905   6.220   2.290   9.908 -0.1655  0.4680  0.2576
  615MOL0     C82906   6.310   2.401   9.878 -0.5286  0.1556  0.6390
  615MOL0     N82907   6.231   2.520   9.876  0.1408 -0.5374  0.4494
  615MOL0     C82908   6.207   2.601   9.766 -0.5712  0.4655 -0.0532
  615MOL0     C82909   6.144   2.709   9.802  0.1084  0.0151 -0.3397
  615MOL0     C82910   6.121   2.832   9.723  0.5308  0.5042  0.0766
  615MOL0     C82911   6.184   2.955   9.777 -0.2720 -0.9235  0.3634
  615MOL0     C82912   6.126   3.079   9.707 -0.6940  0.9420 -0.2040
  615MOL0     C82913   6.216   3.193   9.734  0.2532  0.1916 -0.1464
  615MOL0     O82914   6.169   3.309   9.666 -0.2118 -0.6672  0.3400
  615MOL0     C82915   6.253   3.421   9.636  0.1017  1.1267 -0.9624
  615MOL0     C82916   6.382   3.438   9.682 -0.7523 -0.1908  0.3584
  615MOL0     C82917   6.463   3.553   9.652 -0.0847 -0.4017 -0.1536
  615MOL0     C82918   6.611   3.571   9.690 -0.5092  0.3743 -0.1519
  615MOL0     C82919   6.399   3.655   9.576  0.1287  0.1359 -0.3554
  615MOL0     C82920   6.457   3.785   9.548 -0.3894  0.2607  1.0475
  615MOL0     O82921   6.553   3.829   9.628 -0.0554  0.0088  0.4957
  615MOL0     C82922   6.622   3.942   9.589  0.2390  0.1750 -0.3083
  615MOL0     C82923   6.723   3.924   9.491  0.9860  0.2471  0.3076
  615MOL0     C82924   6.797   4.041   9.457  0.4254  0.2891  0.3710
  615MOL0     C82925   6.764   4.163   9.512  0.7938  0.1777 -1.3760
  615MOL0     O82926   6.848   4.254   9.473 -1.1881  0.6326  0.5909
  615MOL0     C82927   6.878   4.365   9.560  0.7803  0.0113 -0.2320
  615MOL0     C82928   7.018   4.411   9.495  0.4014 -0.6069 -0.2802
  615MOL0     C82929   7.112   4.313   9.426  0.3524 -0.7448  0.5565
  615MOL0     C82930   7.178   4.231   9.540 -0.2966  0.5720 -0.3081
  615MOL0     C82931   7.185   4.082   9.494  0.0200  0.4499 -0.5333
  615MOL0     C82932   7.284   4.005   9.574  0.0822 -0.0222 -0.6537
  615MOL0     C82933   7.265   3.850   9.541 -0.4845 -0.1951  0.1768
  615MOL0     C82934   7.355   3.756   9.615  0.1948 -1.0419 -0.4449
  615MOL0    Cl82935   7.363   3.611   9.510  0.5782  0.1824 -0.2754
  615MOL0     C82936   6.662   4.183   9.602 -0.5244  0.6766 -0.6676
  615MOL0     C82937   6.595   4.067   9.645  0.0191 -0.8516 -0.2978
  615MOL0     O82938   6.406   3.849   9.454  0.1194 -0.1757  0.1796
  615MOL0     C82939   6.262   3.636   9.539 -0.4819 -0.3380  0.6898
  615MOL0     C82940   6.190   3.520   9.573 -0.2493 -0.9548 -0.1182
  615MOL0     N82941   6.132   2.696   9.940 -0.4008  0.4621  0.2576
  615MOL0     N82942   6.187   2.586   9.985  0.3628 -0.0827  0.8644
  615MOL0     C82943   6.116   1.368  10.266 -0.2989 -0.4212  0.0879
  615MOL0     C82944   6.072   1.232  10.249 -0.8037 -1.1761 -0.4816
  615MOL0     C82945   6.026   0.815  10.095  0.5994 -0.4853  0.2531
  615MOL0     C82946   5.975   0.774   9.973  0.0919  0.7105  0.0433
  615MOL0     C82947   5.951   0.643   9.944  0.0472  0.7359 -0.8875
  615MOL0     C82948   5.987   0.545  10.039 -0.0496  0.2901  0.7351
  615MOL0     O82949   5.959   0.412  10.030  0.4956  0.3028 -0.7933
  615MOL0     C82950   6.017   0.336   9.919 -0.0976 -0.0148 -0.1289
  615MOL0     C82951   5.946   0.196   9.923 -0.4131  0.0487 -0.3476
  615MOL0     C82952   6.005   0.082   9.840  0.0042 -0.3486  0.4954
  615MOL0     C82953   5.926  -0.052   9.867  0.1387  0.9155 -0.8772
  615MOL0     C82954   5.936  -0.151   9.754 -0.9597  0.3682  0.8798
  615MOL0     C82955   5.932  -0.220   9.648 -0.4932  0.1372  0.0816
  615MOL0     C82956   6.056   0.580  10.150 -0.6605  1.1947  0.0099
  615MOL0     C82957   6.062   0.717  10.187  0.1353 -0.4482  0.2011
  615MOL0     H82958   6.370   1.067  10.224 -1.7441 -0.4484 -0.3218
  615MOL0     H82959   6.447   1.306  10.224 -0.7647  2.9569 -1.9039
  615MOL0     H82960   6.146   1.599  10.167  0.1259 -0.1464  0.0619
  615MOL0     H82961   6.179   1.644  10.338  3.1628 -4.7261  1.8262
  615MOL0     H82962   6.349   1.781  10.277 -1.0710 -5.5160  2.1170
  615MOL0     H82963   6.355   1.728  10.106 -2.3795 -0.2090 -2.1337
  615MOL0     H82964   6.143   1.834  10.061  1.5147 -0.6659 -0.7285
  615MOL0     H82965   6.112   1.875  10.234  3.0009  2.9551  2.0048
  615MOL0     H82966   6.280   2.040  10.234 -5.5548  3.1516 -0.0359
  615MOL0     H82967   6.356   1.979  10.085  0.4513  2.0497  0.2073
  615MOL0     H82968   6.127   2.030   9.986  1.1946  0.8524 -0.2706
  615MOL0     H82969   6.121   2.162  10.104 -0.0776  4.6602 -4.6905
  615MOL0     H82970   6.351   2.226  10.044 -1.2120 -0.9497  0.1928
  615MOL0     H82971   6.363   2.110   9.918  2.3204 -1.9748  4.8687
  615MOL0     H82972   6.163   2.262   9.819  3.0590  0.6617 -2.0364
  615MOL0     H82973   6.149   2.327   9.983  1.2769 -1.7584  2.9219
  615MOL0     H82974   6.363   2.396   9.783  0.0650  0.7355  0.9407
  615MOL0     H82975   6.386   2.412   9.956 -1.0421 -0.7405  1.2963
  615MOL0     H82976   6.246   2.588   9.665  2.1345  1.2520  0.8067
  615MOL0     H82977   6.158   2.819   9.621  1.4739  2.6638  0.0851
  615MOL0     H82978   6.012   2.830   9.721  0.4340 -2.6946  2.0475
  615MOL0     H82979   6.292   2.958   9.759 -0.7153 -1.1204 -2.9954
  615MOL0     H82980   6.159   2.970   9.882  3.0651 -1.8041  1.4232
  615MOL0     H82981   6.025   3.095   9.747 -0.2865  3.9605 -0.1518
  615MOL0     H82982   6.113   3.066   9.599  4.9528 -3.2636 -0.8530
  615MOL0     H82983   6.324   3.175   9.731  0.6858  0.9203  4.3084
  615MOL0     H82984   6.216   3.211   9.842  0.5272  0.7214 -0.2339
  615MOL0     H82985   6.437   3.354   9.725  0.7294 -0.9936 -2.7605
  615MOL0     H82986   6.661   3.478   9.720 -0.9203  0.0600 -0.4341
  615MOL0     H82987   6.666   3.604   9.601 -1.5362  1.6519 -0.3429
  615MOL0     H82988   6.630   3.642   9.771  0.7063 -0.1847  0.0799
  615MOL0     H82989   6.750   3.834   9.436  0.0089 -0.6631  1.2672
  615MOL0     H82990   6.881   4.030   9.390 -0.1674 -3.6237  0.0592
  615MOL0     H82991   6.795   4.435   9.573 -1.1634 -2.3125  0.3952
  615MOL0     H82992   6.907   4.329   9.659 -1.3891  2.3587  1.3939
  615MOL0     H82993   6.987   4.492   9.427 -0.8635 -2.1310 -1.5968
  615MOL0     H82994   7.067   4.467   9.575  0.4851 -1.4485  0.2602
  615MOL0     H82995   7.174   4.368   9.354 -0.4645 -3.4264 -2.4317
  615MOL0     H82996   7.058   4.242   9.362  1.4500 -1.3509  0.2873
  615MOL0     H82997   7.282   4.256   9.561 -0.0952 -1.3892  1.3103
  615MOL0     H82998   7.119   4.229   9.632 -3.5241 -2.0905 -2.2237
  615MOL0     H82999   7.211   4.061   9.389 -0.3737 -1.9345 -0.2237
  615MOL0     H83000   7.086   4.038   9.511 -0.2082  0.8512 -0.7957
  615MOL0     H83001   7.388   4.039   9.569  0.6391 -1.2195  1.3610
  615MOL0     H83002   7.249   4.010   9.678  0.9766 -0.8104 -0.2921
  615MOL0     H83003   7.295   3.838   9.436 -0.3330  1.9611 -0.0627
  615MOL0     H83004   7.163   3.812   9.552  0.3279 -2.7014 -0.2859
  615MOL0     H83005   7.309   3.739   9.713  2.0410 -2.6401  0.2061
  615MOL0     H83006   7.451   3.806   9.626 -0.9527  1.4043 -0.9024
  615MOL0     H83007   6.640   4.275   9.655 -0.9350  1.5123 -2.2246
  615MOL0     H83008   6.523   4.065   9.726 -0.2629  2.1584 -0.3714
  615MOL0     H83009   6.200   3.703   9.481  1.0092 -1.4220 -2.3453
  615MOL0     H83010   6.097   3.502   9.519 -0.9831  0.2101  0.7046
  615MOL0     H83011   6.041   1.444  10.285  0.3726  0.3699 -0.3282
  615MOL0     H83012   5.968   1.203  10.245 -1.0782 -0.5066  1.0271
  615MOL0     H83013   5.944   0.856   9.909 -1.6463  1.1718  1.3771
  615MOL0     H83014   5.907   0.619   9.848  1.5597 -0.5960 -1.2879
  615MOL0     H83015   6.006   0.395   9.827 -1.1647 -1.7175 -1.1571
  615MOL0     H83016   6.119   0.309   9.946 -0.0952  0.4747  0.3765
  615MOL0     H83017   5.839   0.208   9.901 -0.7494 -2.6224 -0.5375
  615MOL0     H83018   5.962   0.167  10.027  0.9378 -0.1414 -0.5895
  615MOL0     H83019   6.114   0.069   9.848  0.5362 -0.1601 -3.9031
  615MOL0     H83020   5.985   0.103   9.735  0.9441 -0.4864  0.2748
  615MOL0     H83021   5.818  -0.035   9.876  0.0360  1.5257 -2.7417
  615MOL0     H83022   5.957  -0.100   9.960  0.9572 -0.4792 -1.8256
  615MOL0     H83023   5.945  -0.258   9.549  1.1125  1.7212 -0.3774
  615MOL0     H83024   6.104   0.504  10.210  1.1097 -0.7317 -3.5468
  615MOL0     H83025   6.117   0.742  10.278  1.1519  0.9990 -0.7704
  616MOL0     O83026   5.608   0.073  10.930  0.5801  0.7153 -0.2406
  616MOL0     C83027   5.624   0.007  10.829  0.0589  0.5001  0.3136
  616MOL0     O83028   5.656  -0.125  10.830  0.7004 -0.1715  0.0686
  616MOL0     C83029   5.688  -0.187  10.949 -0.4455  0.6492 -0.6788
  616MOL0     C83030   5.652  -0.330  10.956  0.0893 -0.2836  0.1827
  616MOL0     C83031   5.676  -0.403  11.078 -0.5229 -1.1236 -1.3056
  616MOL0     C83032   5.721  -0.341  11.194  0.5618 -0.7224  0.7496
  616MOL0     O83033   5.707  -0.405  11.314 -0.8301  0.6396  0.1477
  616MOL0     C83034   5.565  -0.409  11.349  0.3835 -1.0458  0.7101
  616MOL0     C83035   5.564  -0.444  11.498 -0.1530 -0.1350  0.5996
  616MOL0     C83036   5.418  -0.442  11.559  0.6223  0.8613  0.5395
  616MOL0     C83037   5.388  -0.537  11.680  1.0550  0.3365  0.0164
  616MOL0     C83038   5.381  -0.680  11.629 -0.5074  0.2981  0.3060
  616MOL0     C83039   5.289  -0.770  11.722  0.4047  0.0754 -0.3492
  616MOL0     C83040   5.266  -0.909  11.660 -0.9103  0.3339 -0.2503
  616MOL0     C83041   5.386  -1.016  11.664 -0.5489 -0.0666 -0.1017
  616MOL0     N83042   5.464  -1.035  11.780  0.7575 -0.4712 -0.7673
  616MOL0     C83043   5.579  -1.104  11.778  0.1378  0.2501 -0.6785
  616MOL0     C83044   5.626  -1.114  11.907 -0.5482 -1.2268 -0.3146
  616MOL0     C83045   5.746  -1.182  11.957  0.3996 -0.3162 -0.1995
  616MOL0     C83046   5.743  -1.332  11.933  0.0399  0.1365  0.2706
  616MOL0     C83047   5.631  -1.402  12.004  0.7584  0.1454  0.4019
  616MOL0     C83048   5.648  -1.392  12.156 -0.3458 -0.1425 -0.0530
  616MOL0     O83049   5.548  -1.460  12.237 -0.6549  1.3406  1.5482
  616MOL0     C83050   5.419  -1.412  12.262  0.1213  0.1587  0.6708
  616MOL0     C83051   5.341  -1.489  12.341 -0.0243 -0.7859 -0.2186
  616MOL0     C83052   5.203  -1.444  12.366 -0.3947 -0.1299 -0.4318
  616MOL0     C83053   5.128  -1.543  12.461 -0.6605  0.3612  0.2845
  616MOL0     C83054   5.155  -1.327  12.308  0.2493  1.3091 -0.9207
  616MOL0     C83055   5.018  -1.288  12.309 -0.1598 -0.7651 -0.5081
  616MOL0     O83056   4.995  -1.155  12.303 -0.4483  0.0295 -0.1114
  616MOL0     C83057   4.869  -1.113  12.316  0.4093 -0.4192 -0.3290
  616MOL0     C83058   4.806  -1.093  12.446 -0.7612  0.4063  0.0148
  616MOL0     C83059   4.675  -1.065  12.474 -0.1788 -1.1759 -0.4494
  616MOL0     C83060   4.595  -1.062  12.353 -0.2230  0.3566  0.7261
  616MOL0     O83061   4.465  -1.037  12.371  0.1851  0.1301 -0.4533
  616MOL0     C83062   4.371  -1.061  12.269  0.1940  0.0616 -0.8319
  616MOL0     C83063   4.232  -0.988  12.299  0.5475 -0.8637  0.3396
  616MOL0     C83064   4.248  -0.833  12.282  0.2714 -0.3963  0.3633
  616MOL0     C83065   4.162  -0.759  12.172  0.5245  0.3607 -0.7376
  616MOL0     C83066   4.037  -0.831  12.135 -0.1399 -0.0427 -0.0311
  616MOL0     C83067   3.940  -0.745  12.047 -0.0088 -0.2929  0.3021
  616MOL0     C83068   3.881  -0.621  12.116  0.1505 -0.7279 -0.2017
  616MOL0     C83069   3.767  -0.549  12.043 -0.6171  0.2357  0.1876
  616MOL0    Cl83070   3.644  -0.666  12.017 -0.1761  0.5384  0.1446
  616MOL0     C83071   4.649  -1.065  12.230 -0.1529 -0.2944 -0.2984
  616MOL0     C83072   4.786  -1.097  12.205 -0.4721 -0.6224 -0.0346
  616MOL0     O83073   4.934  -1.369  12.323  0.5716  0.4261  0.0824
  616MOL0     C83074   5.249  -1.244  12.246 -0.5446  0.0070 -0.2136
  616MOL0     C83075   5.376  -1.288  12.214 -1.2964  0.3773 -0.0259
  616MOL0     N83076   5.546  -1.034  11.987 -0.2055  0.8300 -0.5290
  616MOL0     N83077   5.455  -0.990  11.910  0.4947 -0.4489  0.1210
  616MOL0     C83078   5.776  -0.214  11.186 -0.2360 -0.2892 -0.7146
  616MOL0     C83079   5.752  -0.141  11.069 -0.2173  1.1246 -0.0375
  616MOL0     C83080   5.623   0.070  10.687 -0.3092  0.2018 -0.0834
  616MOL0     C83081   5.614   0.212  10.675 -0.7333  0.8064  0.1138
  616MOL0     C83082   5.608   0.276  10.550  0.4283  0.0429  0.0004
  616MOL0     C83083   5.620   0.212  10.427 -0.1348 -0.5456 -0.1339
  616MOL0     O83084   5.604   0.290  10.322  0.3058 -0.0666 -0.7485
  616MOL0     C83085   5.564   0.226  10.205  0.3099 -0.5499 -0.2633
  616MOL0     C83086   5.516   0.341  10.109 -0.1354 -0.0918  0.3297
  616MOL0     C83087   5.644   0.410  10.053  0.0598  0.2546  0.3018
  616MOL0     C83088   5.609   0.484   9.928 -0.2490 -0.0380  0.8072
  616MOL0     C83089   5.505   0.584   9.937 -0.0438 -0.7875  0.4915
  616MOL0     C83090   5.412   0.662   9.929  0.2820 -0.3794  0.2911
  616MOL0     C83091   5.619   0.073  10.441 -0.9200  0.8395 -0.7080
  616MOL0     C83092   5.626   0.007  10.566  0.8686 -0.0571 -0.4317
  616MOL0     H83093   5.596  -0.382  10.879 -4.4712  0.9976  2.2866
  616MOL0     H83094   5.643  -0.506  11.079  0.4996 -1.4908 -2.5212
  616MOL0     H83095   5.515  -0.314  11.330 -0.1879 -1.0954  1.9138
  616MOL0     H83096   5.513  -0.492  11.301  0.4561  0.6596 -2.6400
  616MOL0     H83097   5.611  -0.543  11.504 -2.5474 -1.3411  1.0494
  616MOL0     H83098   5.620  -0.373  11.559  1.4515 -2.9188  2.6237
  616MOL0     H83099   5.389  -0.338  11.579 -0.7951  0.6475 -0.2767
  616MOL0     H83100   5.347  -0.483  11.487  1.8270  0.1003 -0.2437
  616MOL0     H83101   5.462  -0.528  11.760  2.0176 -1.6121 -0.6026
  616MOL0     H83102   5.284  -0.522  11.710  1.0097  0.2919 -0.1196
  616MOL0     H83103   5.323  -0.691  11.537 -0.1218  1.6103 -0.1236
  616MOL0     H83104   5.484  -0.711  11.612 -0.9746 -0.9458 -0.3621
  616MOL0     H83105   5.324  -0.790  11.823 -0.6179  1.5456  0.3295
  616MOL0     H83106   5.193  -0.720  11.739  0.8045  0.1309  1.9562
  616MOL0     H83107   5.176  -0.945  11.711 -0.1742 -2.9096 -1.0278
  616MOL0     H83108   5.234  -0.897  11.556 -3.8478  2.6590  0.7636
  616MOL0     H83109   5.454  -0.991  11.583 -1.3103  0.9341 -0.4661
  616MOL0     H83110   5.338  -1.112  11.645 -1.5114  0.3450  0.1816
  616MOL0     H83111   5.624  -1.153  11.693 -2.2904 -3.9082  0.1283
  616MOL0     H83112   5.829  -1.154  11.891  2.0043 -1.7632  1.0969
  616MOL0     H83113   5.767  -1.169  12.063  1.6144 -2.2920 -0.1432
  616MOL0     H83114   5.845  -1.364  11.957  1.8708  5.4447  0.9310
  616MOL0     H83115   5.729  -1.336  11.825 -1.0745 -2.5247  0.4295
  616MOL0     H83116   5.636  -1.510  11.987 -1.0834  0.1080 -0.1357
  616MOL0     H83117   5.532  -1.364  11.977  0.9881  1.4594  1.3015
  616MOL0     H83118   5.660  -1.287  12.186  0.4258 -0.4292  0.6753
  616MOL0     H83119   5.746  -1.435  12.179  0.6691  1.8098 -0.5511
  616MOL0     H83120   5.373  -1.580  12.391 -0.8425 -0.0318  1.8057
  616MOL0     H83121   5.200  -1.591  12.527  0.9089  0.8733 -1.0000
  616MOL0     H83122   5.046  -1.498  12.518 -1.7668  0.8378 -1.5587
  616MOL0     H83123   5.079  -1.621  12.401 -1.8237  2.0924 -1.1120
  616MOL0     H83124   4.875  -1.117  12.526  2.6047  2.1089 -2.1245
  616MOL0     H83125   4.637  -1.056  12.575 -1.5636  0.5810 -1.0593
  616MOL0     H83126   4.397  -1.044  12.164 -1.9141 -1.3477 -1.6516
  616MOL0     H83127   4.362  -1.169  12.256  0.4344 -0.2633  1.3975
  616MOL0     H83128   4.148  -1.039  12.250 -0.3240  0.2280  0.6344
  616MOL0     H83129   4.202  -0.988  12.404 -2.2718  2.7797 -0.2592
  616MOL0     H83130   4.354  -0.815  12.260  0.4414 -1.8134 -0.0553
  616MOL0     H83131   4.236  -0.791  12.382 -1.6033  1.8323 -0.7091
  616MOL0     H83132   4.136  -0.665  12.223  0.5969 -0.5333  1.0107
  616MOL0     H83133   4.233  -0.730  12.094  2.7193  0.7033  1.2803
  616MOL0     H83134   3.979  -0.857  12.223 -0.6799  0.7083 -0.1511
  616MOL0     H83135   4.064  -0.917  12.073  0.9612 -2.7073  3.7981
  616MOL0     H83136   3.981  -0.707  11.953  1.9678 -1.1544  0.7471
  616MOL0     H83137   3.862  -0.810  12.008 -1.8654  1.9790  0.0302
  616MOL0     H83138   3.957  -0.547  12.141  2.3304 -2.6065 -0.9004
  616MOL0     H83139   3.845  -0.658  12.213  3.0607 -2.7549  0.2315
  616MOL0     H83140   3.810  -0.504  11.953  0.0479  0.8539  0.8069
  616MOL0     H83141   3.736  -0.467  12.108  3.0457  0.7519  1.4806
  616MOL0     H83142   4.593  -1.044  12.139 -0.9873  1.6902  0.6015
  616MOL0     H83143   4.818  -1.089  12.101 -4.1188  0.7392 -1.1987
  616MOL0     H83144   5.205  -1.153  12.207 -4.2152  0.0894  3.4894
  616MOL0     H83145   5.439  -1.235  12.143  2.3080 -4.1398 -0.7285
  616MOL0     H83146   5.831  -0.172  11.269  1.4893 -1.6300 -1.1271
  616MOL0     H83147   5.795  -0.041  11.070 -0.8969  1.4167  0.7778
  616MOL0     H83148   5.625   0.270  10.767  1.3904  0.4412  0.1280
  616MOL0     H83149   5.608   0.385  10.556 -1.5651  0.1206 -0.7382
  616MOL0     H83150   5.627   0.159  10.147 -2.2483 -3.2213 -0.1788
  616MOL0     H83151   5.478   0.161  10.224 -0.3604  0.9301  2.3298
  616MOL0     H83152   5.446   0.405  10.163 -2.3788 -0.5146 -1.9250
  616MOL0     H83153   5.460   0.290  10.030 -2.3623  1.3440  0.9046
  616MOL0     H83154   5.734   0.351  10.030 -1.0268 -1.0476 -0.7867
  616MOL0     H83155   5.669   0.492  10.121  1.7174 -2.2045  2.8407
  616MOL0     H83156   5.584   0.416   9.846 -1.6816  2.3023 -0.8062
  616MOL0     H83157   5.698   0.537   9.892 -0.7613 -0.9565 -2.0878
  616MOL0     H83158   5.343   0.742   9.914  0.7211 -0.2041 -0.8935
  616MOL0     H83159   5.601   0.014  10.351  4.4726  0.2375 -1.6894
  616MOL0     H83160   5.616  -0.101  10.563  1.9247 -0.3975  3.0855
  617MOL0     O83161  10.357   2.681   7.821 -0.1812 -0.2374 -1.3004
  617MOL0     C83162  10.235   2.677   7.812 -0.1423  0.1941  1.2548
  617MOL0     O83163  10.154   2.768   7.743  0.3452 -0.0009  0.0619
  617MOL0     C83164  10.210   2.884   7.701 -0.5516  0.8694  0.3395
  617MOL0     C83165  10.210   2.900   7.562 -0.2398  0.5471 -0.9042
  617MOL0     C83166  10.232   3.021   7.500  0.0695  0.4321 -0.2790
  617MOL0     C83167  10.251   3.137   7.572  0.7783 -0.9247 -0.8902
  617MOL0     O83168  10.261   3.245   7.491  0.1729 -0.2473  1.4149
  617MOL0     C83169  10.401   3.259   7.465 -0.0215 -0.3938 -0.1008
  617MOL0     C83170  10.437   3.347   7.342  0.6682 -1.1771  0.4790
  617MOL0     C83171  10.398   3.265   7.209  0.4827  0.3941 -0.0726
  617MOL0     C83172  10.438   3.353   7.086  0.1792 -0.1803  0.2626
  617MOL0     C83173  10.389   3.278   6.957 -0.6242 -0.0063 -0.1209
  617MOL0     C83174  10.432   3.363   6.838 -0.7428  0.0340  0.4966
  617MOL0     C83175  10.358   3.322   6.708 -1.3568 -0.0067 -0.3192
  617MOL0     C83176  10.372   3.446   6.608 -0.9882  0.2975  0.2714
  617MOL0     N83177  10.302   3.422   6.478  0.2053  1.0022 -0.6740
  617MOL0     C83178  10.169   3.380   6.470 -0.2563 -0.0153 -0.9056
  617MOL0     C83179  10.128   3.402   6.348 -0.4098 -0.0397 -0.0876
  617MOL0     C83180   9.986   3.376   6.299 -0.0855 -0.3399  0.8758
  617MOL0     C83181   9.928   3.498   6.211 -0.0397 -0.0723  0.7205
  617MOL0     C83182  10.003   3.513   6.070  0.1254 -0.6695  0.0235
  617MOL0     C83183   9.948   3.419   5.957 -0.3413  0.7782  0.9785
  617MOL0     O83184   9.817   3.473   5.904  0.0815 -0.5401 -0.5505
  617MOL0     C83185   9.758   3.418   5.797 -0.1105  1.0883  0.4452
  617MOL0     C83186   9.802   3.296   5.744  0.2968 -0.5532 -0.1794
  617MOL0     C83187   9.751   3.246   5.626 -0.9197 -1.2649  0.7906
  617MOL0     C83188   9.813   3.112   5.576 -0.3644 -0.2202  0.2339
  617MOL0     C83189   9.672   3.328   5.537 -0.5752  0.5824  0.0959
  617MOL0     C83190   9.618   3.270   5.411  0.8005  0.6245  0.3736
  617MOL0     O83191   9.665   3.160   5.340  0.7116 -0.2345 -0.1411
  617MOL0     C83192   9.578   3.124   5.237  0.0057  0.1211  0.2382
  617MOL0     C83193   9.529   3.214   5.137  1.1858  0.3103 -0.6102
  617MOL0     C83194   9.447   3.164   5.035 -0.0128  1.0819 -0.0990
  617MOL0     C83195   9.429   3.030   5.019  0.5228 -0.1512  0.8183
  617MOL0     O83196   9.373   2.989   4.899  0.6581  0.2166 -0.2854
  617MOL0     C83197   9.288   2.867   4.894  1.1362 -0.1637  0.2578
  617MOL0     C83198   9.181   2.870   5.011  0.7999 -0.3004  0.3860
  617MOL0     C83199   9.086   2.743   5.014 -0.5699  0.4068 -0.1342
  617MOL0     C83200   8.988   2.756   5.128  0.2137  0.2084  1.2497
  617MOL0     C83201   9.043   2.725   5.265 -0.5074  0.3287  0.4882
  617MOL0     C83202   8.956   2.762   5.383  0.1056  0.0042 -0.0811
  617MOL0     C83203   8.995   2.683   5.508  0.0163  0.0822 -0.6956
  617MOL0     C83204   8.944   2.751   5.645 -0.4995 -0.3292  0.0087
  617MOL0    Cl83205   9.082   2.851   5.696 -0.1220 -0.1171  0.3566
  617MOL0     C83206   9.476   2.940   5.115 -0.8856 -0.1510  0.4580
  617MOL0     C83207   9.544   2.989   5.227 -0.4697 -0.9924 -0.1765
  617MOL0     O83208   9.507   3.316   5.400  0.2450  0.6056 -0.0631
  617MOL0     C83209   9.632   3.450   5.594  0.3421  0.3303  0.8529
  617MOL0     C83210   9.658   3.489   5.725  0.1101  0.1318 -0.4805
  617MOL0     N83211  10.233   3.470   6.285  0.8141 -0.5722 -0.6471
  617MOL0     N83212  10.336   3.477   6.362  0.0898 -0.2877 -0.2511
  617MOL0     C83213  10.270   3.123   7.712  0.2233  0.8846 -0.3969
  617MOL0     C83214  10.252   2.999   7.779 -0.8682  0.5473  0.9951
  617MOL0     C83215  10.192   2.565   7.884  0.2008  0.5796  0.1734
  617MOL0     C83216  10.277   2.485   7.971  0.5199  1.1277  0.6324
  617MOL0     C83217  10.227   2.373   8.042 -1.4581 -0.6404  0.9707
  617MOL0     C83218  10.093   2.333   8.018  0.1282 -0.6527 -1.0227
  617MOL0     O83219  10.058   2.211   8.075 -0.8735 -0.0497  0.4431
  617MOL0     C83220  10.018   2.219   8.218  0.3013  0.9665  0.4053
  617MOL0     C83221   9.861   2.235   8.235  0.1666 -0.4571 -0.3169
  617MOL0     C83222   9.833   2.253   8.384  0.3157  0.5571 -0.5991
  617MOL0     C83223   9.688   2.270   8.422  0.4748  1.3149  0.0388
  617MOL0     C83224   9.688   2.358   8.530 -1.2673  0.1703 -0.8308
  617MOL0     C83225   9.689   2.426   8.629  0.7799 -0.4447 -0.1510
  617MOL0     C83226  10.010   2.414   7.940  0.1965  0.4626  0.0622
  617MOL0     C83227  10.056   2.524   7.868  0.1194 -0.4962 -0.5664
  617MOL0     H83228  10.170   2.819   7.500  0.7970 -2.4068  1.9832
  617MOL0     H83229  10.232   3.017   7.392  0.7092  1.5654 -0.3300
  617MOL0     H83230  10.448   3.317   7.544  1.9236 -0.3494 -1.2092
  617MOL0     H83231  10.457   3.167   7.447  1.6189  0.9609 -2.5491
  617MOL0     H83232  10.384   3.442   7.352  1.7095 -0.7296  2.0249
  617MOL0     H83233  10.542   3.374   7.333  0.1402  0.2299 -2.4703
  617MOL0     H83234  10.458   3.174   7.215  2.0897  1.1449 -2.9671
  617MOL0     H83235  10.295   3.232   7.196  0.0518  1.4580  0.5254
  617MOL0     H83236  10.389   3.451   7.080  0.9757  0.2735  0.8830
  617MOL0     H83237  10.545   3.376   7.084  0.4002 -1.0561  1.1584
  617MOL0     H83238  10.426   3.175   6.951  2.2899  0.6652  3.1855
  617MOL0     H83239  10.281   3.263   6.970 -0.5059 -1.1396 -0.2792
  617MOL0     H83240  10.400   3.464   6.864 -2.7143 -1.2497  3.5895
  617MOL0     H83241  10.541   3.369   6.829 -0.9245  1.6994 -1.3350
  617MOL0     H83242  10.405   3.231   6.670 -1.1363  0.1130 -0.3362
  617MOL0     H83243  10.256   3.289   6.728 -1.2808 -2.2258 -2.9998
  617MOL0     H83244  10.476   3.471   6.586 -0.6559 -1.0056  0.3058
  617MOL0     H83245  10.330   3.542   6.641 -0.7660  1.0816 -1.5853
  617MOL0     H83246  10.122   3.346   6.562  1.6564  1.5280  0.7629
  617MOL0     H83247   9.986   3.289   6.232 -0.8705  0.4313 -0.1477
  617MOL0     H83248   9.930   3.350   6.390  1.4245  0.5977  2.1203
  617MOL0     H83249   9.949   3.581   6.279 -1.3729  0.1215  0.9271
  617MOL0     H83250   9.821   3.488   6.192  0.2130  1.4428 -2.0949
  617MOL0     H83251  10.107   3.481   6.078  0.3549 -0.6623 -2.3235
  617MOL0     H83252   9.995   3.608   6.016 -2.1862 -1.5860 -1.4221
  617MOL0     H83253   9.936   3.317   5.994 -0.7954 -0.2180 -1.6778
  617MOL0     H83254  10.020   3.416   5.874 -2.0592 -2.9640 -0.5877
  617MOL0     H83255   9.888   3.253   5.795  0.0586  0.4015  1.0771
  617MOL0     H83256   9.727   3.050   5.602 -0.8251  1.5174  3.4034
  617MOL0     H83257   9.842   3.118   5.471  0.3184  2.1861  0.5027
  617MOL0     H83258   9.896   3.088   5.643 -0.5338 -0.2674  0.4278
  617MOL0     H83259   9.564   3.317   5.134 -1.6847  1.3391 -1.9918
  617MOL0     H83260   9.408   3.242   4.969 -1.7632 -0.1173 -0.5517
  617MOL0     H83261   9.229   2.858   4.802 -0.6557 -3.5582  1.5466
  617MOL0     H83262   9.349   2.777   4.902 -1.5545 -2.4354 -2.3888
  617MOL0     H83263   9.228   2.886   5.109 -2.9802 -0.0741  2.3593
  617MOL0     H83264   9.125   2.964   5.019  3.9453  1.8093 -0.6567
  617MOL0     H83265   9.144   2.651   5.025 -0.9182  0.0320 -1.3423
  617MOL0     H83266   9.038   2.738   4.916  1.9434  0.5201 -1.4451
  617MOL0     H83267   8.938   2.853   5.128 -0.3512 -0.0696  2.1762
  617MOL0     H83268   8.904   2.687   5.116  0.3271  0.0353  1.4341
  617MOL0     H83269   9.143   2.767   5.281  0.0468 -0.3535 -1.0541
  617MOL0     H83270   9.058   2.617   5.263  2.2257  0.6164  1.1618
  617MOL0     H83271   8.977   2.869   5.393 -1.3610  0.2145  1.0549
  617MOL0     H83272   8.850   2.747   5.359 -0.2642  1.3545  0.5969
  617MOL0     H83273   9.102   2.659   5.507 -0.4734 -2.4306 -2.3203
  617MOL0     H83274   8.948   2.587   5.490  1.2752 -0.4511 -1.2799
  617MOL0     H83275   8.918   2.673   5.717  0.7017 -2.3316 -1.6282
  617MOL0     H83276   8.861   2.822   5.640  0.4134  0.8018  0.5072
  617MOL0     H83277   9.465   2.832   5.107 -0.1708 -0.4174  2.5603
  617MOL0     H83278   9.572   2.919   5.305 -2.0209 -2.2068 -0.6683
  617MOL0     H83279   9.581   3.524   5.534  2.8151  0.5129 -1.2316
  617MOL0     H83280   9.623   3.584   5.765  0.6468  0.8638 -1.6965
  617MOL0     H83281  10.264   3.223   7.752 -2.1429  1.3459 -1.7511
  617MOL0     H83282  10.252   2.980   7.886  2.2434  0.2386  1.0390
  617MOL0     H83283  10.384   2.499   7.977  0.8101 -0.2618 -0.5725
  617MOL0     H83284  10.300   2.317   8.101 -0.5561  0.5180  0.9945
  617MOL0     H83285  10.049   2.133   8.280 -0.9052  1.2810  1.4895
  617MOL0     H83286  10.054   2.304   8.276  1.1513  1.7363 -1.2016
  617MOL0     H83287   9.803   2.148   8.203 -1.2980  0.7926 -1.1916
  617MOL0     H83288   9.813   2.319   8.183 -1.8660 -1.5929 -0.3811
  617MOL0     H83289   9.896   2.332   8.427 -2.4122  2.0103  0.9813
  617MOL0     H83290   9.872   2.160   8.426  0.4969  1.7748  2.2109
  617MOL0     H83291   9.647   2.172   8.448  3.3019  0.3161  1.0463
  617MOL0     H83292   9.627   2.310   8.340 -3.2380 -0.6400  1.5944
  617MOL0     H83293   9.691   2.488   8.716  1.3239  1.1950 -1.2726
  617MOL0     H83294   9.908   2.380   7.922 -0.7340  4.1627 -2.9169
  617MOL0     H83295   9.996   2.596   7.813  3.6759  2.5872 -0.8259
  618MOL0     O83296   0.726   6.730   4.602  0.0554  0.5100  0.0584
  618MOL0     C83297   0.621   6.699   4.638  0.4107 -0.3431  0.0908
  618MOL0     O83298   0.507   6.740   4.586 -0.0514 -0.3803  0.2559
  618MOL0     C83299   0.519   6.813   4.474  0.0477  0.5020 -0.7940
  618MOL0     C83300   0.520   6.756   4.353 -0.5145  0.2142  0.0296
  618MOL0     C83301   0.516   6.832   4.237  0.4832  0.3956  0.8328
  618MOL0     C83302   0.515   6.972   4.247  0.3652 -0.1012 -0.4300
  618MOL0     O83303   0.503   7.048   4.134  0.8844 -0.3567 -0.0396
  618MOL0     C83304   0.604   7.156   4.137  0.5765  0.2567  0.0749
  618MOL0     C83305   0.742   7.086   4.122 -0.4341  0.6066  0.2453
  618MOL0     C83306   0.862   7.182   4.108  1.6509  0.1177  0.0147
  618MOL0     C83307   0.880   7.277   4.238 -0.1739 -0.5751  0.0594
  618MOL0     C83308   0.971   7.391   4.185  0.9608 -0.6408  0.1316
  618MOL0     C83309   0.895   7.519   4.118 -0.1273  0.6325 -0.0851
  618MOL0     C83310   1.004   7.604   4.049  0.2596  0.9328 -1.1547
  618MOL0     C83311   0.976   7.758   4.048  0.7880  0.0540  1.2663
  618MOL0     N83312   1.024   7.823   4.170 -0.4965 -0.2927 -0.7388
  618MOL0     C83313   0.952   7.861   4.283  0.0080 -0.9850  0.5560
  618MOL0     C83314   1.047   7.923   4.364 -0.0915  0.1327  0.5697
  618MOL0     C83315   1.031   8.001   4.495  0.1594  0.4488 -1.7329
  618MOL0     C83316   0.898   8.059   4.516 -1.4109  0.9392 -0.2140
  618MOL0     C83317   0.902   8.161   4.638  0.2768  0.3436 -0.1484
  618MOL0     C83318   0.808   8.274   4.632 -0.0592 -0.8126 -0.3431
  618MOL0     O83319   0.839   8.371   4.738  0.3145  1.1508  0.4977
  618MOL0     C83320   0.732   8.450   4.791 -0.1946  0.1559 -0.2071
  618MOL0     C83321   0.755   8.528   4.896 -0.9841 -0.4731  0.3493
  618MOL0     C83322   0.666   8.617   4.955  0.3847 -0.5564 -0.0233
  618MOL0     C83323   0.701   8.710   5.066 -0.3815 -0.5492  0.3180
  618MOL0     C83324   0.529   8.622   4.902  0.2974 -0.8484 -0.0451
  618MOL0     C83325   0.415   8.713   4.939 -0.3484  0.0749 -0.3611
  618MOL0     O83326   0.294   8.669   4.890  0.4665 -0.2473  0.1617
  618MOL0     C83327   0.188   8.750   4.912  0.5387 -0.1303  0.8451
  618MOL0     C83328   0.069   8.684   4.940  0.5731  0.4870  0.0636
  618MOL0     C83329  -0.051   8.752   4.953  0.8416  0.0046 -0.9735
  618MOL0     C83330  -0.056   8.883   4.936 -0.2631 -0.7725  0.7598
  618MOL0     O83331  -0.171   8.951   4.954 -0.4072 -0.0489  0.7282
  618MOL0     C83332  -0.265   8.966   4.850 -0.0437 -0.3246  0.0082
  618MOL0     C83333  -0.380   9.043   4.912  0.8750  1.2494 -0.0602
  618MOL0     C83334  -0.423   8.990   5.062 -0.5946 -0.7354 -0.4096
  618MOL0     C83335  -0.559   9.043   5.120 -0.6589 -0.3822  0.6066
  618MOL0     C83336  -0.673   8.947   5.070 -0.4024  0.5934  0.1177
  618MOL0     C83337  -0.812   8.993   5.111 -0.6515 -0.0302 -0.7978
  618MOL0     C83338  -0.927   8.911   5.042  0.9379  0.3293  0.1564
  618MOL0     C83339  -1.069   8.971   5.057  0.3489 -1.3332  0.5986
  618MOL0    Cl83340  -1.192   8.853   4.977 -0.0819  0.1622 -0.5032
  618MOL0     C83341   0.062   8.956   4.917 -0.7848 -0.1384 -0.4523
  618MOL0     C83342   0.187   8.891   4.899  0.2803 -0.9340  0.1354
  618MOL0     O83343   0.433   8.815   5.005  0.0982 -0.0931  0.5457
  618MOL0     C83344   0.504   8.542   4.785 -0.0331  0.6349 -0.2473
  618MOL0     C83345   0.606   8.461   4.729 -0.3073 -0.4793 -0.1695
  618MOL0     N83346   1.169   7.920   4.303 -0.6694  0.2528  0.6767
  618MOL0     N83347   1.160   7.857   4.185  0.1019 -1.5071  0.0770
  618MOL0     C83348   0.512   7.027   4.381 -0.6556 -0.8869  0.0208
  618MOL0     C83349   0.514   6.947   4.497  0.3302 -0.3247 -0.4078
  618MOL0     C83350   0.600   6.644   4.770  0.3082 -0.5583 -0.6414
  618MOL0     C83351   0.690   6.542   4.804  1.4680  0.2622  0.1223
  618MOL0     C83352   0.656   6.473   4.920  0.1610 -0.1029  0.2382
  618MOL0     C83353   0.545   6.495   4.997 -1.1461 -0.5431  0.1945
  618MOL0     O83354   0.547   6.422   5.118  0.2678 -0.4198  0.7164
  618MOL0     C83355   0.425   6.376   5.168 -0.7185  0.3344 -0.6008
  618MOL0     C83356   0.413   6.423   5.312  0.6492 -0.7957 -0.8961
  618MOL0     C83357   0.421   6.571   5.325 -0.5772 -0.1866  0.0766
  618MOL0     C83358   0.414   6.624   5.467  0.1765  0.1083  0.0708
  618MOL0     C83359   0.525   6.580   5.557 -0.0053  2.0130  0.9413
  618MOL0     C83360   0.600   6.515   5.628 -0.8352 -0.2919  0.4523
  618MOL0     C83361   0.463   6.602   4.957 -0.8840 -0.1954  0.3266
  618MOL0     C83362   0.485   6.668   4.844  0.0367 -1.5249  0.7287
  618MOL0     H83363   0.513   6.649   4.336  1.8110  0.0049  0.1238
  618MOL0     H83364   0.500   6.792   4.138  0.5642  0.7886  0.6578
  618MOL0     H83365   0.591   7.221   4.050  2.4011  1.8690  0.9372
  618MOL0     H83366   0.611   7.221   4.225 -3.2250  0.5744  0.3230
  618MOL0     H83367   0.761   7.020   4.207 -0.8758  1.9978  1.4710
  618MOL0     H83368   0.734   7.023   4.033 -0.3704 -2.7011  2.4064
  618MOL0     H83369   0.948   7.116   4.093  0.9845 -0.1965 -3.2853
  618MOL0     H83370   0.842   7.237   4.016  1.3716  0.6647  0.4005
  618MOL0     H83371   0.789   7.330   4.267 -0.5647 -0.0849 -1.8991
  618MOL0     H83372   0.939   7.226   4.314  0.7749  1.5768  0.8480
  618MOL0     H83373   1.024   7.441   4.267  0.9123  1.4571 -1.0538
  618MOL0     H83374   1.040   7.352   4.109 -0.6302  2.6548 -3.3078
  618MOL0     H83375   0.824   7.487   4.042 -0.0143 -1.4138  0.5961
  618MOL0     H83376   0.833   7.564   4.196  0.1554 -1.7252  1.6322
  618MOL0     H83377   1.092   7.583   4.110 -1.2020  2.2815  1.5765
  618MOL0     H83378   1.011   7.555   3.951 -0.3801 -5.3753  1.4808
  618MOL0     H83379   0.869   7.772   4.028  0.5511  0.2063  2.5930
  618MOL0     H83380   1.028   7.800   3.961 -0.8391  3.0371  1.6190
  618MOL0     H83381   0.844   7.860   4.290 -0.4007  5.6240  0.7188
  618MOL0     H83382   1.058   7.945   4.585  0.2463  2.2688 -0.5732
  618MOL0     H83383   1.105   8.082   4.496 -0.7345  1.3792  1.7132
  618MOL0     H83384   0.836   7.976   4.550  1.5783 -1.8667 -1.1620
  618MOL0     H83385   0.852   8.116   4.434 -4.8485  2.2714  2.3972
  618MOL0     H83386   1.004   8.197   4.658  1.7432 -2.8071 -1.1788
  618MOL0     H83387   0.879   8.095   4.722 -3.4406  0.2982 -1.0302
  618MOL0     H83388   0.705   8.244   4.651  0.7230 -3.9246 -0.5335
  618MOL0     H83389   0.809   8.320   4.533 -1.4957 -3.4942 -1.7210
  618MOL0     H83390   0.860   8.520   4.922 -0.5590 -0.8852 -1.3581
  618MOL0     H83391   0.751   8.795   5.018 -1.2502 -0.9015 -1.2734
  618MOL0     H83392   0.619   8.738   5.133 -0.1377 -4.8850  2.7736
  618MOL0     H83393   0.783   8.666   5.124  1.1814 -0.0314 -1.4211
  618MOL0     H83394   0.072   8.575   4.945 -1.5436  0.1990 -2.3944
  618MOL0     H83395  -0.141   8.701   4.985  0.8776  0.2187 -0.5246
  618MOL0     H83396  -0.228   9.027   4.767 -0.6946 -0.1723 -0.1773
  618MOL0     H83397  -0.291   8.867   4.809 -0.9223 -0.9326  1.9294
  618MOL0     H83398  -0.353   9.148   4.924 -0.5858  1.8380 -1.6257
  618MOL0     H83399  -0.454   9.029   4.833  1.2356 -1.1699 -0.0542
  618MOL0     H83400  -0.345   9.007   5.137 -0.0606 -1.9701 -0.6795
  618MOL0     H83401  -0.437   8.883   5.049  1.6978 -0.9615 -1.4508
  618MOL0     H83402  -0.552   9.043   5.229  0.2185  0.1527  0.5624
  618MOL0     H83403  -0.587   9.143   5.085  1.7589  1.5785  3.7308
  618MOL0     H83404  -0.651   8.844   5.099 -3.5634  0.4930  2.7526
  618MOL0     H83405  -0.679   8.951   4.961  3.3116  0.9132 -0.2182
  618MOL0     H83406  -0.826   9.011   5.218 -1.1068 -2.5725 -0.3640
  618MOL0     H83407  -0.825   9.094   5.071 -2.9333 -0.4496 -1.2080
  618MOL0     H83408  -0.925   8.805   5.068  1.1005  0.2226 -0.2867
  618MOL0     H83409  -0.894   8.919   4.938  3.9260 -0.7858  0.9233
  618MOL0     H83410  -1.077   9.065   5.002 -0.5036 -0.7949  1.6195
  618MOL0     H83411  -1.091   8.992   5.162 -2.4352 -1.9624  0.2264
  618MOL0     H83412   0.060   9.064   4.927  1.7143 -0.2065  2.0275
  618MOL0     H83413   0.271   8.957   4.878 -0.3190  0.3538  1.6238
  618MOL0     H83414   0.419   8.559   4.720 -0.9376 -0.9674  0.4652
  618MOL0     H83415   0.575   8.402   4.643 -1.6051 -2.7149  1.6989
  618MOL0     H83416   0.509   7.135   4.399 -5.1339 -0.4536 -2.0796
  618MOL0     H83417   0.505   6.987   4.598  0.1406 -1.7857  0.1761
  618MOL0     H83418   0.780   6.511   4.750 -0.4650 -0.4820 -2.9165
  618MOL0     H83419   0.708   6.385   4.955 -0.8726 -1.3685 -1.2823
  618MOL0     H83420   0.343   6.412   5.105 -0.4248  4.2978  1.0252
  618MOL0     H83421   0.416   6.267   5.169 -0.6591  0.2372 -2.9550
  618MOL0     H83422   0.481   6.372   5.381 -2.6705 -2.0460  1.7132
  618MOL0     H83423   0.309   6.395   5.330  0.3876 -0.0004 -1.1089
  618MOL0     H83424   0.321   6.599   5.290 -1.1024 -1.5772  0.3916
  618MOL0     H83425   0.507   6.616   5.275  0.3394 -0.2761  1.5067
  618MOL0     H83426   0.321   6.582   5.505  1.4557 -2.3391  0.7369
  618MOL0     H83427   0.425   6.732   5.471  0.7735  0.0126  1.3357
  618MOL0     H83428   0.657   6.477   5.709  0.6033 -2.4081 -1.4339
  618MOL0     H83429   0.388   6.636   5.027 -0.3296  4.1624 -0.9015
  618MOL0     H83430   0.413   6.743   4.811 -1.7608 -2.9822  1.1247
  619MOL0     O83431   9.816   1.877  10.153  0.4510  0.4063 -0.3762
  619MOL0     C83432   9.812   1.969  10.073  0.5994  0.4502  0.0988
  619MOL0     O83433   9.705   1.996   9.994  0.0594  0.1469 -0.8215
  619MOL0     C83434   9.590   1.917  10.029  0.4096 -0.8025 -0.1074
  619MOL0     C83435   9.539   1.899  10.159  0.9840 -0.7389  0.5265
  619MOL0     C83436   9.415   1.838  10.169 -0.6965  0.1847  0.2731
  619MOL0     C83437   9.350   1.779  10.063 -0.3769 -0.7119 -0.1530
  619MOL0     O83438   9.248   1.700  10.094  0.2752  0.2752 -0.2861
  619MOL0     C83439   9.293   1.565  10.072 -0.6351  1.0881  0.4383
  619MOL0     C83440   9.179   1.465  10.089 -0.1516 -0.0662  0.6981
  619MOL0     C83441   9.221   1.329  10.034 -0.5595  0.3198 -0.1707
  619MOL0     C83442   9.103   1.229  10.016 -0.2436 -1.5147 -0.0321
  619MOL0     C83443   9.055   1.171  10.146  0.7696  0.6218 -0.0140
  619MOL0     C83444   8.954   1.067  10.105 -1.0581  0.0677 -1.2736
  619MOL0     C83445   8.909   0.984  10.226 -0.2139  0.2772  0.3820
  619MOL0     C83446   8.791   0.891  10.198 -0.3443 -0.1907 -0.4028
  619MOL0     N83447   8.820   0.789  10.103 -0.3778  1.4675  0.7024
  619MOL0     C83448   8.784   0.794   9.970 -0.3283  0.4288  0.1553
  619MOL0     C83449   8.836   0.687   9.921 -0.2883 -0.1936 -1.0708
  619MOL0     C83450   8.818   0.643   9.783  0.0286 -0.9783  0.8359
  619MOL0     C83451   8.811   0.501   9.753  0.4156  0.2201  1.1911
  619MOL0     C83452   8.793   0.477   9.599  0.8165  0.1345  0.2280
  619MOL0     C83453   8.835   0.325   9.578  0.0703 -0.2487 -0.1166
  619MOL0     O83454   8.974   0.309   9.612  0.1237 -0.5053  0.0444
  619MOL0     C83455   9.035   0.188   9.593  0.6831  0.3053  0.1054
  619MOL0     C83456   9.173   0.182   9.600  0.0522  0.3791 -0.0877
  619MOL0     C83457   9.244   0.066   9.577  0.5788  0.4176  0.5085
  619MOL0     C83458   9.394   0.076   9.600 -0.4780 -0.2384 -0.2649
  619MOL0     C83459   9.172  -0.056   9.551 -0.6559  0.4306  0.0673
  619MOL0     C83460   9.228  -0.190   9.510 -0.5450 -0.9554  0.4215
  619MOL0     O83461   9.139  -0.298   9.495 -1.0486  0.3543 -0.8672
  619MOL0     C83462   9.205  -0.417   9.500 -0.2566  0.4379 -0.4380
  619MOL0     C83463   9.247  -0.470   9.622 -0.0667  1.4866 -0.2606
  619MOL0     C83464   9.304  -0.595   9.630 -0.7174  0.1737 -0.4185
  619MOL0     C83465   9.302  -0.676   9.519  0.0501  1.0374  0.0740
  619MOL0     O83466   9.357  -0.797   9.541 -0.2257 -0.8365  0.5983
  619MOL0     C83467   9.305  -0.906   9.461  0.2187 -1.8799 -0.5269
  619MOL0     C83468   9.330  -1.033   9.534  0.3321  0.0276 -0.5376
  619MOL0     C83469   9.245  -1.150   9.486  1.7400  0.6339 -0.6991
  619MOL0     C83470   9.261  -1.186   9.335  0.2796 -0.3901 -0.2251
  619MOL0     C83471   9.168  -1.297   9.286  0.1495 -0.1077 -0.2161
  619MOL0     C83472   9.024  -1.243   9.287 -0.0416 -0.4689  0.0125
  619MOL0     C83473   8.923  -1.339   9.228  0.4318 -0.3584  0.3905
  619MOL0     C83474   8.876  -1.448   9.323  0.5091  0.4018  0.2815
  619MOL0    Cl83475   8.811  -1.386   9.473  0.3424  0.3940  0.1051
  619MOL0     C83476   9.242  -0.629   9.396 -0.6290 -0.0435 -1.2011
  619MOL0     C83477   9.194  -0.499   9.386 -0.7554 -0.3932  0.6775
  619MOL0     O83478   9.349  -0.194   9.515  0.3109  0.3686 -0.3335
  619MOL0     C83479   9.039  -0.050   9.551 -0.6040 -0.3680 -1.2470
  619MOL0     C83480   8.966   0.065   9.581 -0.4010 -0.9197  1.6037
  619MOL0     N83481   8.898   0.613  10.022 -0.1034  0.6456  0.0783
  619MOL0     N83482   8.891   0.682  10.128  0.0940 -0.5235  0.1238
  619MOL0     C83483   9.411   1.794   9.933  1.3764  0.0071  0.1053
  619MOL0     C83484   9.518   1.876   9.915  1.2215  0.4443 -0.6476
  619MOL0     C83485   9.911   2.075  10.086 -1.2563  0.6890 -0.4111
  619MOL0     C83486  10.036   2.031  10.128 -0.5004  0.1743  0.3740
  619MOL0     C83487  10.137   2.121  10.139 -0.2467  0.4720 -1.0495
  619MOL0     C83488  10.117   2.251  10.112 -0.2481 -0.9944  0.2612
  619MOL0     O83489  10.228   2.331  10.121  0.4431  0.4558  0.7948
  619MOL0     C83490  10.277   2.360  10.252 -0.3324  0.4654 -0.5835
  619MOL0     C83491  10.262   2.506  10.272  0.3821  0.2362  0.8988
  619MOL0     C83492  10.340   2.559  10.399  0.1849  1.1104 -0.0888
  619MOL0     C83493  10.287   2.513  10.533  0.2254 -0.3934 -0.4145
  619MOL0     C83494  10.354   2.586  10.646  0.0255 -0.6347 -0.4831
  619MOL0     C83495  10.425   2.634  10.737 -0.0560  0.8137  0.5130
  619MOL0     C83496   9.992   2.302  10.092 -0.0762 -0.2102  0.0314
  619MOL0     C83497   9.885   2.220  10.085  0.2217 -0.1435  0.5140
  619MOL0     H83498   9.590   1.923  10.252  0.2057 -3.0204  1.6261
  619MOL0     H83499   9.384   1.820  10.271  0.1841 -1.2057  0.3171
  619MOL0     H83500   9.331   1.553   9.970 -1.1656  0.0279  0.3478
  619MOL0     H83501   9.378   1.541  10.137 -0.4183 -0.5254 -0.3895
  619MOL0     H83502   9.164   1.446  10.196  0.6731 -3.4977  0.3229
  619MOL0     H83503   9.087   1.496  10.039 -0.9162  0.2708  2.2405
  619MOL0     H83504   9.277   1.342   9.941  2.5536 -0.1439  1.5146
  619MOL0     H83505   9.286   1.282  10.109 -0.8159 -0.5959 -0.5109
  619MOL0     H83506   9.038   1.285   9.948  0.7847  0.3300  0.4303
  619MOL0     H83507   9.141   1.151   9.950  1.3573  1.5515 -3.0308
  619MOL0     H83508   9.145   1.138  10.199  2.1083  3.7141 -0.1448
  619MOL0     H83509   8.998   1.235  10.214 -0.0876 -0.2075  0.0634
  619MOL0     H83510   8.868   1.103  10.050 -0.8114  0.1448 -1.6134
  619MOL0     H83511   9.009   0.994  10.045  1.6114  2.2538 -1.7251
  619MOL0     H83512   9.000   0.926  10.246  1.8237  3.5414  1.2973
  619MOL0     H83513   8.899   1.048  10.314 -3.2349  2.8394 -1.5765
  619MOL0     H83514   8.710   0.948  10.150  1.8857  2.4436 -1.3411
  619MOL0     H83515   8.753   0.844  10.289  2.3550 -3.1931 -0.6531
  619MOL0     H83516   8.710   0.867   9.940 -0.9853  0.9210  2.7112
  619MOL0     H83517   8.742   0.709   9.740  1.7795  1.4808  1.3028
  619MOL0     H83518   8.913   0.679   9.740  0.8070 -1.6896  1.9244
  619MOL0     H83519   8.748   0.442   9.820  0.1493 -1.2011 -0.2562
  619MOL0     H83520   8.897   0.443   9.788  0.1003 -2.6926 -2.2543
  619MOL0     H83521   8.836   0.557   9.538  3.4227  1.1267  3.0799
  619MOL0     H83522   8.686   0.477   9.577  0.5524 -2.1916  1.2303
  619MOL0     H83523   8.821   0.294   9.474 -0.4111  3.1848 -1.1800
  619MOL0     H83524   8.769   0.283   9.654  1.0836  1.2987  1.7037
  619MOL0     H83525   9.214   0.280   9.622 -2.6803  1.3520  1.2147
  619MOL0     H83526   9.452   0.074   9.507 -1.5597  0.7219 -0.9930
  619MOL0     H83527   9.421   0.175   9.638  1.4549 -0.9290  0.2873
  619MOL0     H83528   9.433   0.005   9.673  1.0931  1.3357  0.4831
  619MOL0     H83529   9.235  -0.408   9.711  1.7148 -0.9717  1.8793
  619MOL0     H83530   9.356  -0.624   9.720 -0.3260 -1.6009 -1.1636
  619MOL0     H83531   9.197  -0.899   9.444  0.4981 -2.6731 -3.1925
  619MOL0     H83532   9.358  -0.901   9.365 -1.0741  0.2030 -1.1896
  619MOL0     H83533   9.436  -1.058   9.528 -0.0468 -3.0911  2.7139
  619MOL0     H83534   9.309  -1.023   9.641 -1.3207 -0.0284 -0.8265
  619MOL0     H83535   9.143  -1.134   9.522  0.6947 -3.3111 -1.4654
  619MOL0     H83536   9.279  -1.237   9.542  2.3171  1.7703  0.8136
  619MOL0     H83537   9.247  -1.107   9.261  1.2482  1.6284  1.6188
  619MOL0     H83538   9.366  -1.215   9.324  0.8179  1.2019  0.4000
  619MOL0     H83539   9.182  -1.390   9.342 -2.9263 -0.7379 -0.3387
  619MOL0     H83540   9.199  -1.320   9.184  3.2952 -1.3084  0.8763
  619MOL0     H83541   9.010  -1.215   9.392  2.0085  1.5432 -0.1723
  619MOL0     H83542   9.027  -1.157   9.220  1.9467  1.1431  2.0005
  619MOL0     H83543   8.965  -1.372   9.133  0.5203 -1.6349  0.8621
  619MOL0     H83544   8.835  -1.283   9.195  1.8387  1.7723 -0.0059
  619MOL0     H83545   8.959  -1.520   9.328 -0.5552 -1.0005 -1.1082
  619MOL0     H83546   8.805  -1.518   9.277  3.0039 -0.7283 -2.1146
  619MOL0     H83547   9.234  -0.689   9.307 -2.2812  0.5621 -1.4783
  619MOL0     H83548   9.136  -0.456   9.305 -0.4442 -1.7003 -0.2735
  619MOL0     H83549   8.978  -0.139   9.546 -0.9918 -0.3464  1.5914
  619MOL0     H83550   8.858   0.065   9.570 -0.1912  0.4625 -1.7719
  619MOL0     H83551   9.358   1.750   9.849  0.4498  2.8779 -0.9520
  619MOL0     H83552   9.556   1.879   9.813  0.4696 -2.1242 -1.0937
  619MOL0     H83553  10.060   1.929  10.154 -0.4353  0.2709  0.7000
  619MOL0     H83554  10.235   2.082  10.168 -0.9017  0.2386  1.0559
  619MOL0     H83555  10.218   2.311  10.330 -0.7900  3.6397  1.2589
  619MOL0     H83556  10.379   2.323  10.263 -0.1169  0.0120 -3.3811
  619MOL0     H83557  10.157   2.530  10.292  0.7184  0.0161  3.1362
  619MOL0     H83558  10.305   2.559  10.186  1.3734 -1.3862  0.3518
  619MOL0     H83559  10.333   2.668  10.410 -1.6395  0.7774  3.3922
  619MOL0     H83560  10.447   2.546  10.379  0.2066  1.4192 -0.1972
  619MOL0     H83561  10.297   2.404  10.536  0.7522 -0.3348  1.8699
  619MOL0     H83562  10.182   2.540  10.526  0.5173  1.1069  0.4538
  619MOL0     H83563  10.488   2.686  10.807  0.0652  0.2711  0.8170
  619MOL0     H83564   9.985   2.409  10.076 -3.1246 -0.1071  1.4124
  619MOL0     H83565   9.783   2.251  10.069  1.5762  4.5414 -0.5426
  620MOL0     O83566   5.790   1.413   0.101 -0.2121  0.0711  0.7660
  620MOL0     C83567   5.914   1.393   0.081  0.0211  0.3372  0.0672
  620MOL0     O83568   5.966   1.278   0.024  0.0005 -0.3366  0.6002
  620MOL0     C83569   5.886   1.171   0.006  1.1331  0.3871  0.3355
  620MOL0     C83570   5.918   1.069  -0.095  0.1668  1.0687  0.6192
  620MOL0     C83571   5.832   0.952  -0.115 -0.9068  1.0831  0.3212
  620MOL0     C83572   5.709   0.942  -0.056 -0.3862 -0.3405  0.1355
  620MOL0     O83573   5.636   0.839  -0.095 -0.6892  0.5110  0.3813
  620MOL0     C83574   5.568   0.765   0.006 -0.2723  0.2827  0.3830
  620MOL0     C83575   5.467   0.678  -0.059  0.9794 -0.5934  0.2104
  620MOL0     C83576   5.502   0.608  -0.196 -0.2147  0.0691  0.0488
  620MOL0     C83577   5.400   0.500  -0.238  0.1055  0.2403 -0.1188
  620MOL0     C83578   5.262   0.554  -0.274  0.2363  0.4424  0.7498
  620MOL0     C83579   5.163   0.441  -0.291 -0.8360 -0.5794  0.6840
  620MOL0     C83580   5.030   0.480  -0.345  0.6415 -0.2241  0.3444
  620MOL0     C83581   4.931   0.496  -0.233 -1.2575 -0.5746 -0.1556
  620MOL0     N83582   4.866   0.374  -0.211  0.5747  0.8519  0.2631
  620MOL0     C83583   4.765   0.320  -0.275  0.2080  0.4406 -0.5152
  620MOL0     C83584   4.747   0.197  -0.215  0.7217  0.6319 -0.2608
  620MOL0     C83585   4.640   0.105  -0.269  0.8565 -0.8612  0.1625
  620MOL0     C83586   4.696   0.023  -0.389  0.6550 -0.4042 -0.9479
  620MOL0     C83587   4.585  -0.069  -0.437  0.4554 -0.4805 -0.7489
  620MOL0     C83588   4.618  -0.146  -0.567  0.4172 -0.3503 -0.8823
  620MOL0     O83589   4.661  -0.052  -0.668 -0.3613  0.0838 -0.1598
  620MOL0     C83590   4.740  -0.105  -0.774 -0.5082  0.2345  0.2344
  620MOL0     C83591   4.767  -0.242  -0.798 -0.3188  0.0292  1.0626
  620MOL0     C83592   4.852  -0.282  -0.902  0.2323 -0.2968 -0.2011
  620MOL0     C83593   4.850  -0.436  -0.914 -0.0033  0.0347 -0.3217
  620MOL0     C83594   4.911  -0.178  -0.989  0.2652 -0.1817  0.1771
  620MOL0     C83595   5.000  -0.214  -1.104 -0.7770  0.0414 -0.9855
  620MOL0     O83596   5.022  -0.108  -1.186 -0.3304 -0.5493  0.8794
  620MOL0     C83597   5.105  -0.134  -1.291  1.1413 -0.0137  0.8756
  620MOL0     C83598   5.240  -0.149  -1.266  0.7898 -0.3368  0.3350
  620MOL0     C83599   5.325  -0.158  -1.380 -0.3145  0.5427  0.7128
  620MOL0     C83600   5.276  -0.146  -1.513 -0.5375 -0.1564 -0.2984
  620MOL0     O83601   5.372  -0.155  -1.618  0.6827  0.0566 -0.5767
  620MOL0     C83602   5.333  -0.105  -1.743 -0.4880  0.2975 -0.2003
  620MOL0     C83603   5.257  -0.207  -1.823  0.3854  0.5927  0.1576
  620MOL0     C83604   5.333  -0.352  -1.826  0.3584  0.1773  0.8913
  620MOL0     C83605   5.292  -0.423  -1.964 -0.0448 -0.0824  0.7362
  620MOL0     C83606   5.393  -0.533  -2.012 -0.2260 -0.2119  0.1708
  620MOL0     C83607   5.420  -0.656  -1.916 -0.1152 -0.8766 -0.3518
  620MOL0     C83608   5.539  -0.737  -1.949 -0.4853  1.1339  0.0729
  620MOL0     C83609   5.517  -0.862  -2.034  1.1585 -0.3524 -0.2477
  620MOL0    Cl83610   5.676  -0.929  -2.059 -0.5782 -0.6848 -0.2606
  620MOL0     C83611   5.140  -0.112  -1.526 -0.5817 -0.3119 -0.3997
  620MOL0     C83612   5.063  -0.101  -1.420 -0.4227  0.9256 -0.2559
  620MOL0     O83613   5.051  -0.322  -1.112 -0.2484  0.0623  0.4443
  620MOL0     C83614   4.885  -0.044  -0.954 -0.7591 -1.3329  0.0209
  620MOL0     C83615   4.807  -0.006  -0.845 -0.9793 -0.3476 -0.2760
  620MOL0     N83616   4.839   0.173  -0.112  0.5388  0.3842 -0.8880
  620MOL0     N83617   4.914   0.278  -0.123 -0.1873 -0.2405  0.2045
  620MOL0     C83618   5.677   1.036   0.044 -0.5044  0.5534 -0.2754
  620MOL0     C83619   5.767   1.137   0.082  0.5217 -0.9431  0.3292
  620MOL0     C83620   6.001   1.493   0.131  0.4702  0.1147  0.4720
  620MOL0     C83621   6.146   1.477   0.116 -0.5424  0.2874 -0.3273
  620MOL0     C83622   6.236   1.576   0.166 -0.7534  1.0896 -0.1452
  620MOL0     C83623   6.201   1.688   0.236 -0.7754 -0.0600  0.1475
  620MOL0     O83624   6.300   1.773   0.285 -0.7606 -0.2485  0.2860
  620MOL0     C83625   6.278   1.858   0.400  0.5022  0.5826 -0.0079
  620MOL0     C83626   6.281   1.781   0.543 -0.2981  0.4840  0.1526
  620MOL0     C83627   6.399   1.678   0.544  0.8182 -0.0495 -0.5352
  620MOL0     C83628   6.458   1.665   0.680 -0.5061 -0.8482  0.5703
  620MOL0     C83629   6.365   1.637   0.783  0.8724  0.1099 -0.6691
  620MOL0     C83630   6.267   1.592   0.839 -0.8891  0.3743  0.4633
  620MOL0     C83631   6.064   1.711   0.235 -0.2055  0.0859  0.3801
  620MOL0     C83632   5.974   1.617   0.183  0.7791  0.2194 -0.0547
  620MOL0     H83633   6.000   1.084  -0.163 -0.5955 -1.9806 -1.1964
  620MOL0     H83634   5.849   0.872  -0.186 -0.8521 -1.7322  3.2581
  620MOL0     H83635   5.626   0.700   0.072 -2.4114 -1.2890  0.8074
  620MOL0     H83636   5.506   0.830   0.069 -1.1676 -0.9809  0.8431
  620MOL0     H83637   5.449   0.600   0.017  3.3400 -0.4705  0.9979
  620MOL0     H83638   5.373   0.734  -0.065  0.0055 -2.1611  0.2371
  620MOL0     H83639   5.511   0.682  -0.277  1.6934  2.3338  2.1645
  620MOL0     H83640   5.596   0.552  -0.200 -0.1754  0.1971 -1.7272
  620MOL0     H83641   5.441   0.438  -0.318  2.3667 -1.1264  1.9682
  620MOL0     H83642   5.383   0.431  -0.155  0.6632 -1.7476 -1.5786
  620MOL0     H83643   5.228   0.621  -0.196 -0.1056  1.7573 -0.4850
  620MOL0     H83644   5.268   0.603  -0.372 -0.0517 -1.5055 -0.2896
  620MOL0     H83645   5.206   0.371  -0.362  0.4217  0.2612  0.5904
  620MOL0     H83646   5.162   0.383  -0.198 -0.7414 -2.7637 -0.6201
  620MOL0     H83647   5.041   0.572  -0.404  1.7422  0.7900  2.0544
  620MOL0     H83648   4.999   0.401  -0.414  0.2177 -0.6858  1.0567
  620MOL0     H83649   4.857   0.573  -0.258 -3.0403 -2.1705 -0.0929
  620MOL0     H83650   4.987   0.531  -0.146  0.1297  2.4872 -2.1186
  620MOL0     H83651   4.716   0.356  -0.365 -0.1434  1.6672  0.1529
  620MOL0     H83652   4.603   0.038  -0.191  1.3679  0.9620  2.0676
  620MOL0     H83653   4.550   0.162  -0.295  2.0939  1.5715  0.9242
  620MOL0     H83654   4.780  -0.035  -0.349  0.9920  1.0257  0.5875
  620MOL0     H83655   4.723   0.086  -0.474  2.0422 -0.8491 -0.8723
  620MOL0     H83656   4.492  -0.012  -0.442  1.2720  0.8490 -1.1758
  620MOL0     H83657   4.575  -0.134  -0.350 -1.2368  1.3499  0.5063
  620MOL0     H83658   4.531  -0.206  -0.593  0.9808 -1.5829 -0.0290
  620MOL0     H83659   4.694  -0.221  -0.543 -1.2537 -1.3592  1.7534
  620MOL0     H83660   4.719  -0.319  -0.738  1.0846 -3.2067 -1.6311
  620MOL0     H83661   4.813  -0.476  -0.820 -1.2701  1.6855 -0.0669
  620MOL0     H83662   4.804  -0.475  -1.005  2.1176  0.3873 -1.6242
  620MOL0     H83663   4.956  -0.464  -0.919  0.5471  1.2364  2.7350
  620MOL0     H83664   5.275  -0.151  -1.163  2.1766  1.2313 -0.0506
  620MOL0     H83665   5.432  -0.175  -1.369 -0.4153 -0.0121  0.8548
  620MOL0     H83666   5.284  -0.008  -1.750  1.3939  1.3451  0.3159
  620MOL0     H83667   5.430  -0.087  -1.792  1.5107 -0.6396  3.0500
  620MOL0     H83668   5.157  -0.220  -1.781  0.4306  0.6820  0.2940
  620MOL0     H83669   5.240  -0.168  -1.924 -0.4295  1.9409  0.7900
  620MOL0     H83670   5.295  -0.419  -1.748  0.8995 -3.3972 -1.6208
  620MOL0     H83671   5.442  -0.339  -1.825  1.2749 -5.1233  0.0938
  620MOL0     H83672   5.193  -0.468  -1.967 -0.9381  1.7378  1.0165
  620MOL0     H83673   5.294  -0.347  -2.043 -0.0874 -0.4640  0.3675
  620MOL0     H83674   5.490  -0.497  -2.047 -1.4661 -0.1770 -3.6752
  620MOL0     H83675   5.348  -0.575  -2.102  0.5924  1.7744 -1.2286
  620MOL0     H83676   5.431  -0.624  -1.812 -0.2012  0.4339 -0.7260
  620MOL0     H83677   5.332  -0.716  -1.943  0.6032 -0.6271 -3.7172
  620MOL0     H83678   5.584  -0.769  -1.855 -1.2374 -0.1239  0.0245
  620MOL0     H83679   5.611  -0.664  -1.986 -0.1747  1.6612  1.6551
  620MOL0     H83680   5.474  -0.832  -2.129  0.9240  1.8770  0.5128
  620MOL0     H83681   5.459  -0.942  -1.986  1.4693 -1.0540 -1.0032
  620MOL0     H83682   5.113  -0.080  -1.627  2.4409  0.3215 -1.1203
  620MOL0     H83683   4.962  -0.066  -1.436  0.3576  2.3332 -2.4221
  620MOL0     H83684   4.935   0.038  -1.005 -3.2301 -1.0642 -2.1571
  620MOL0     H83685   4.795   0.099  -0.820  0.7621  0.9163 -3.9592
  620MOL0     H83686   5.584   1.018   0.096  1.2835 -4.4378  1.7848
  620MOL0     H83687   5.719   1.202   0.155  1.3400  1.0079 -0.8138
  620MOL0     H83688   6.191   1.396   0.060  0.4662  0.9196 -0.4527
  620MOL0     H83689   6.341   1.559   0.145 -0.7315  1.0115  0.0311
  620MOL0     H83690   6.352   1.938   0.392 -0.0469  1.1181  0.1995
  620MOL0     H83691   6.179   1.903   0.392  0.4846  0.8764  1.5773
  620MOL0     H83692   6.190   1.727   0.570 -0.3823 -0.1732 -1.3725
  620MOL0     H83693   6.293   1.863   0.615 -0.9569  2.8573 -2.2961
  620MOL0     H83694   6.472   1.716   0.473  0.7158  2.4779  0.6145
  620MOL0     H83695   6.377   1.571   0.528 -1.6266  0.0256  1.6129
  620MOL0     H83696   6.519   1.751   0.713  0.4971 -0.9802 -0.8578
  620MOL0     H83697   6.531   1.583   0.684 -1.2401 -1.4840  1.1808
  620MOL0     H83698   6.185   1.526   0.853  0.2384 -0.8601  1.5601
  620MOL0     H83699   6.026   1.808   0.263  0.5532  1.1661 -2.0455
  620MOL0     H83700   5.867   1.636   0.191  0.5205 -1.3359  0.5161
  621MOL0     O83701  10.819   4.865   4.186 -0.0952  0.5283 -0.3189
  621MOL0     C83702  10.900   4.886   4.282 -0.5435 -0.3882  0.5504
  621MOL0     O83703  11.022   4.937   4.268 -0.6023  0.2097  0.1476
  621MOL0     C83704  11.060   5.024   4.168  0.5271  1.2828 -0.0434
  621MOL0     C83705  10.974   5.088   4.077  0.6157 -0.3453 -0.2053
  621MOL0     C83706  11.032   5.157   3.974 -1.2003 -0.2784  0.5323
  621MOL0     C83707  11.166   5.158   3.939 -1.0031  1.1544  0.6782
  621MOL0     O83708  11.218   5.225   3.830 -0.0937  0.3339  0.0151
  621MOL0     C83709  11.146   5.335   3.778 -0.2156  0.1691  0.7834
  621MOL0     C83710  11.249   5.383   3.664 -0.4790 -0.3273  0.8387
  621MOL0     C83711  11.297   5.526   3.694  0.0882 -0.1552 -0.6208
  621MOL0     C83712  11.422   5.565   3.614 -0.3998 -0.3245  0.2145
  621MOL0     C83713  11.455   5.717   3.639  0.3875 -0.0778  0.5435
  621MOL0     C83714  11.597   5.760   3.586 -0.8591  0.6197  1.1873
  621MOL0     C83715  11.712   5.686   3.661 -0.7251  1.3541 -0.3953
  621MOL0     C83716  11.838   5.681   3.577  0.5101 -0.0320 -0.0354
  621MOL0     N83717  11.888   5.802   3.513  0.3175  1.1677  0.3094
  621MOL0     C83718  12.003   5.870   3.550  0.3356 -0.1807 -0.2417
  621MOL0     C83719  12.053   5.925   3.434  0.5111  0.4172 -0.2566
  621MOL0     C83720  12.194   5.987   3.424  0.1597  0.8423  0.1490
  621MOL0     C83721  12.173   6.139   3.402  0.5785  0.4500 -0.2062
  621MOL0     C83722  12.303   6.222   3.424  0.2640  0.2116  0.5260
  621MOL0     C83723  12.279   6.372   3.402  0.1985 -0.2075 -0.1012
  621MOL0     O83724  12.407   6.438   3.413  0.3937 -0.2711 -0.9007
  621MOL0     C83725  12.411   6.570   3.385  0.8407  0.0914  1.0986
  621MOL0     C83726  12.302   6.661   3.400 -0.2167 -0.2617 -0.0047
  621MOL0     C83727  12.315   6.801   3.385  0.0699  0.2046  0.4655
  621MOL0     C83728  12.188   6.875   3.407 -0.1815 -0.1639  0.2806
  621MOL0     C83729  12.431   6.867   3.340  0.5657  0.3704  0.1013
  621MOL0     C83730  12.447   7.012   3.328 -0.4840  0.6479 -0.0991
  621MOL0     O83731  12.578   7.036   3.339  0.1909  0.1128  1.1170
  621MOL0     C83732  12.638   7.161   3.347 -0.3404 -0.0960 -0.0331
  621MOL0     C83733  12.716   7.190   3.460  0.9978  1.0931  0.4700
  621MOL0     C83734  12.776   7.312   3.483  0.0459 -0.4042 -0.1320
  621MOL0     C83735  12.766   7.415   3.391 -0.5671  0.3946 -0.3804
  621MOL0     O83736  12.833   7.531   3.415  0.0884 -0.6856 -0.3038
  621MOL0     C83737  12.859   7.621   3.318 -0.2515 -1.1372 -0.5033
  621MOL0     C83738  12.935   7.747   3.363 -0.5934  0.2677 -0.1532
  621MOL0     C83739  13.083   7.716   3.374  0.2613  0.2257  0.3020
  621MOL0     C83740  13.163   7.836   3.423 -0.0472 -0.0385 -0.1321
  621MOL0     C83741  13.308   7.806   3.425 -0.4959  0.0386  0.4439
  621MOL0     C83742  13.400   7.846   3.308  0.7837  0.5818 -0.4224
  621MOL0     C83743  13.546   7.849   3.340 -0.2032 -0.2541  0.0685
  621MOL0     C83744  13.594   7.980   3.398  0.8347 -0.3550 -0.7324
  621MOL0    Cl83745  13.474   8.083   3.461  0.0032  0.1763 -0.0768
  621MOL0     C83746  12.695   7.392   3.272  0.6612 -0.6801 -0.1184
  621MOL0     C83747  12.626   7.267   3.253 -0.2557  0.2791  0.7635
  621MOL0     O83748  12.356   7.092   3.291  0.4310  0.0154 -0.0631
  621MOL0     C83749  12.537   6.775   3.311 -0.4098  0.2589 -0.2439
  621MOL0     C83750  12.528   6.636   3.344 -0.4056 -0.3255 -0.0369
  621MOL0     N83751  11.976   5.885   3.326 -0.1917 -0.0860  0.0505
  621MOL0     N83752  11.869   5.810   3.371 -0.2588 -0.0660 -0.2344
  621MOL0     C83753  11.254   5.082   4.012 -0.6536 -0.0365  0.2305
  621MOL0     C83754  11.201   5.027   4.132  0.8697  0.3085  0.9006
  621MOL0     C83755  10.862   4.872   4.419  1.0855  0.4289 -0.1697
  621MOL0     C83756  10.961   4.880   4.515 -0.2714  0.3356  0.5002
  621MOL0     C83757  10.934   4.869   4.653 -0.0575  0.8346  0.0496
  621MOL0     C83758  10.799   4.872   4.697  0.9675 -0.6920 -0.6268
  621MOL0     O83759  10.755   4.878   4.829  0.1968 -0.1938  0.4872
  621MOL0     C83760  10.855   4.890   4.931  0.2947 -0.3902 -1.0870
  621MOL0     C83761  10.779   4.889   5.057  0.0009  0.0080 -0.5735
  621MOL0     C83762  10.872   4.904   5.183  0.6556  0.6957 -0.7934
  621MOL0     C83763  10.810   4.874   5.327 -0.5055  0.7298 -0.1640
  621MOL0     C83764  10.915   4.881   5.428 -0.1686 -0.5053  1.1652
  621MOL0     C83765  10.986   4.867   5.522  0.4783  0.1068 -0.7799
  621MOL0     C83766  10.698   4.875   4.599  0.1197  0.0410  0.5998
  621MOL0     C83767  10.728   4.873   4.463 -0.6285 -0.6562 -0.2662
  621MOL0     H83768  10.869   5.080   4.102  1.5412 -3.0571  3.9720
  621MOL0     H83769  10.965   5.201   3.901  1.0192  0.0600 -1.4338
  621MOL0     H83770  11.054   5.298   3.730  0.9454 -0.4008 -1.1201
  621MOL0     H83771  11.128   5.416   3.849 -2.6660 -1.3142  1.9917
  621MOL0     H83772  11.343   5.328   3.663 -0.3963 -0.2670 -1.4898
  621MOL0     H83773  11.191   5.368   3.573 -0.2334  1.6871  0.2832
  621MOL0     H83774  11.208   5.588   3.680 -1.5642 -2.6165 -1.5995
  621MOL0     H83775  11.325   5.530   3.800  0.7113  0.6222 -0.8109
  621MOL0     H83776  11.499   5.489   3.630  0.4075  0.7776  1.9186
  621MOL0     H83777  11.393   5.561   3.509  0.2919 -0.5939  0.0288
  621MOL0     H83778  11.373   5.771   3.590  0.6848  1.1848  1.3880
  621MOL0     H83779  11.462   5.751   3.742  1.1087 -0.2509  0.5533
  621MOL0     H83780  11.601   5.742   3.478  3.2734 -4.7095  1.7949
  621MOL0     H83781  11.621   5.863   3.615  2.3283 -0.4859  3.0425
  621MOL0     H83782  11.732   5.734   3.757  2.1282  3.1818 -1.7571
  621MOL0     H83783  11.696   5.578   3.675  1.5760  0.5404 -3.0213
  621MOL0     H83784  11.806   5.615   3.496 -0.7249 -1.9214  1.8666
  621MOL0     H83785  11.921   5.632   3.629  1.4253  0.0709 -1.3658
  621MOL0     H83786  12.059   5.874   3.643 -1.1414  3.1020  0.6436
  621MOL0     H83787  12.250   5.971   3.516 -0.6928  1.2580  0.7591
  621MOL0     H83788  12.239   5.939   3.337  0.3351  2.3261 -0.6117
  621MOL0     H83789  12.098   6.185   3.468  0.9414 -0.7681  1.1067
  621MOL0     H83790  12.138   6.143   3.298  0.9718 -2.0037 -0.5006
  621MOL0     H83791  12.374   6.189   3.348 -0.5496 -1.2270  0.3533
  621MOL0     H83792  12.333   6.203   3.527  0.1344 -3.8247 -0.0380
  621MOL0     H83793  12.204   6.408   3.473 -1.5287  0.4014 -2.1020
  621MOL0     H83794  12.230   6.390   3.305 -1.2149 -2.7804  0.0234
  621MOL0     H83795  12.203   6.619   3.413  0.6570 -2.1313  1.2090
  621MOL0     H83796  12.211   6.949   3.484 -2.9482 -0.2006  1.2255
  621MOL0     H83797  12.145   6.926   3.320 -1.8043 -1.2886  0.3805
  621MOL0     H83798  12.110   6.818   3.458  1.4138 -0.9403  1.9479
  621MOL0     H83799  12.728   7.105   3.528  0.6262 -3.8111 -4.8176
  621MOL0     H83800  12.840   7.341   3.567  0.1558 -2.1830  0.4481
  621MOL0     H83801  12.915   7.572   3.237 -1.5853 -4.0638  0.1979
  621MOL0     H83802  12.762   7.651   3.277 -0.2739 -1.3555 -0.6116
  621MOL0     H83803  12.917   7.819   3.284 -0.0197  0.6761  0.0869
  621MOL0     H83804  12.894   7.779   3.460 -0.7306 -1.5964  0.4579
  621MOL0     H83805  13.113   7.688   3.272 -1.0002 -1.0494  0.2523
  621MOL0     H83806  13.108   7.628   3.435 -2.2181  0.0319  1.1330
  621MOL0     H83807  13.144   7.916   3.351 -2.2399 -0.7016 -0.3505
  621MOL0     H83808  13.130   7.857   3.526  0.1869  1.4696 -0.3380
  621MOL0     H83809  13.325   7.698   3.426 -0.0528  0.1023 -0.3139
  621MOL0     H83810  13.351   7.863   3.509  0.1355  5.4501 -3.0508
  621MOL0     H83811  13.382   7.784   3.220  0.2214  3.8423 -2.8134
  621MOL0     H83812  13.363   7.942   3.268  0.1702 -0.1777 -1.7571
  621MOL0     H83813  13.604   7.838   3.248 -0.6052  0.6783 -0.3122
  621MOL0     H83814  13.571   7.766   3.406  3.4443  1.9965  1.9005
  621MOL0     H83815  13.641   8.041   3.320  0.9857  0.2844 -0.1540
  621MOL0     H83816  13.660   7.950   3.480 -0.7759 -1.5494  0.1987
  621MOL0     H83817  12.694   7.466   3.192 -4.0950  2.3505  2.2867
  621MOL0     H83818  12.568   7.249   3.164  1.8168  2.5804 -1.1978
  621MOL0     H83819  12.636   6.810   3.285 -0.4384  0.5176 -0.0226
  621MOL0     H83820  12.619   6.576   3.336  1.6345  2.7404 -1.9747
  621MOL0     H83821  11.357   5.096   3.984 -0.9989  3.4797  0.3130
  621MOL0     H83822  11.264   4.961   4.191  1.3424 -0.4779 -0.4417
  621MOL0     H83823  11.067   4.871   4.493 -0.2211 -0.8370  1.1136
  621MOL0     H83824  11.014   4.873   4.726  0.0538  1.3862 -0.0974
  621MOL0     H83825  10.932   4.813   4.938 -0.2336 -0.8262  4.2426
  621MOL0     H83826  10.908   4.983   4.910 -1.4868  0.8429 -0.4075
  621MOL0     H83827  10.720   4.797   5.065  0.6952 -0.4968 -1.1334
  621MOL0     H83828  10.712   4.976   5.063  0.4865  0.3043  1.2255
  621MOL0     H83829  10.922   5.000   5.186  2.3462 -0.1311  3.0989
  621MOL0     H83830  10.950   4.829   5.166  0.9292  0.5591  0.9440
  621MOL0     H83831  10.779   4.769   5.324 -1.4298  0.8684  2.4031
  621MOL0     H83832  10.726   4.937   5.356 -0.0202  0.2946  2.4168
  621MOL0     H83833  11.036   4.850   5.615  0.9568 -1.9388 -1.3655
  621MOL0     H83834  10.593   4.865   4.624 -0.7444  2.2440 -1.7373
  621MOL0     H83835  10.644   4.874   4.393 -1.3642  3.1495  0.4408
  622MOL0     O83836   2.058   5.212   4.005 -0.1377  0.1673  1.1461
  622MOL0     C83837   2.010   5.288   4.093 -0.7374  0.9356 -1.1889
  622MOL0     O83838   2.019   5.267   4.230 -0.6736 -0.2270 -0.0122
  622MOL0     C83839   2.100   5.160   4.257  0.1507 -1.1810  0.1053
  622MOL0     C83840   2.064   5.068   4.359 -0.3095 -0.0163  0.9335
  622MOL0     C83841   2.146   4.961   4.397 -0.3841 -0.6801  0.9278
  622MOL0     C83842   2.282   4.943   4.338  0.4981  0.3530 -0.7834
  622MOL0     O83843   2.359   4.833   4.358 -0.3289 -0.7493 -0.3089
  622MOL0     C83844   2.285   4.711   4.378  0.7735  0.2365 -1.2381
  622MOL0     C83845   2.381   4.598   4.418 -0.3400  0.2012  0.5181
  622MOL0     C83846   2.321   4.456   4.410 -0.3491  0.1879  0.4897
  622MOL0     C83847   2.203   4.434   4.501  0.2146 -0.6007 -0.4208
  622MOL0     C83848   2.178   4.283   4.514  0.5840 -0.1280  0.7291
  622MOL0     C83849   2.106   4.241   4.380 -1.1443  0.3078 -0.7311
  622MOL0     C83850   2.056   4.093   4.398  0.4789  0.8176 -0.4082
  622MOL0     C83851   1.938   4.087   4.489  0.6522 -0.7063  0.4823
  622MOL0     N83852   1.845   3.980   4.454  0.1769  0.3472  0.4644
  622MOL0     C83853   1.759   3.957   4.344 -0.3006 -0.7019  0.3677
  622MOL0     C83854   1.677   3.857   4.388  0.4007 -0.8793  0.5691
  622MOL0     C83855   1.556   3.790   4.319  0.3319 -0.8286  1.3157
  622MOL0     C83856   1.500   3.871   4.200  0.2005  0.2140 -0.0580
  622MOL0     C83857   1.402   3.782   4.125 -0.5030 -0.7908  0.1597
  622MOL0     C83858   1.356   3.842   3.990 -0.0447  0.0421  0.4053
  622MOL0     O83859   1.309   3.734   3.909 -0.1688  0.3149  0.7589
  622MOL0     C83860   1.243   3.757   3.795 -0.0326  1.2777  0.2470
  622MOL0     C83861   1.240   3.645   3.706 -0.1997  1.0030  0.4190
  622MOL0     C83862   1.193   3.660   3.578  0.7597 -0.1672 -0.5947
  622MOL0     C83863   1.190   3.539   3.495  0.4077 -1.2853 -0.6301
  622MOL0     C83864   1.141   3.784   3.534  0.7122 -0.1772  0.7224
  622MOL0     C83865   1.082   3.802   3.392 -0.7918  0.7765 -0.4013
  622MOL0     O83866   1.054   3.937   3.369  0.5769 -0.6914  0.4706
  622MOL0     C83867   1.017   3.987   3.248  1.3107 -0.0384  0.6818
  622MOL0     C83868   0.973   4.119   3.264  0.0953 -0.8833 -0.2270
  622MOL0     C83869   0.944   4.202   3.155 -0.6870  0.2671 -0.4166
  622MOL0     C83870   0.958   4.150   3.018  0.0087  0.6346  0.6524
  622MOL0     O83871   0.913   4.231   2.913 -0.0373  0.3383  0.5248
  622MOL0     C83872   0.904   4.176   2.783 -0.0632 -0.1815  0.5007
  622MOL0     C83873   0.844   4.274   2.675 -0.3769  0.6442 -0.8783
  622MOL0     C83874   0.880   4.408   2.702  0.9292 -1.3501 -0.0947
  622MOL0     C83875   0.834   4.512   2.588 -0.3163  0.7796 -0.2057
  622MOL0     C83876   0.826   4.655   2.634 -0.1518 -0.0348 -0.0113
  622MOL0     C83877   0.967   4.701   2.662  0.1426 -0.1311  0.7510
  622MOL0     C83878   0.964   4.852   2.696 -0.5655 -0.1600 -0.5157
  622MOL0     C83879   1.086   4.888   2.775 -0.4306 -0.3689  0.2987
  622MOL0    Cl83880   1.086   5.063   2.816 -0.1399  0.3090 -0.0181
  622MOL0     C83881   1.009   4.018   3.011 -0.3310 -0.0363 -0.5095
  622MOL0     C83882   1.028   3.938   3.121  0.1938 -0.2250  0.7038
  622MOL0     O83883   1.045   3.710   3.311 -0.0100 -0.0390  0.4187
  622MOL0     C83884   1.135   3.889   3.624 -0.0803  0.3132 -0.0649
  622MOL0     C83885   1.180   3.874   3.750  0.6824 -0.0610 -1.3039
  622MOL0     N83886   1.710   3.830   4.515 -0.6887 -0.3316 -1.2602
  622MOL0     N83887   1.819   3.883   4.555 -0.9491 -0.3486  0.7372
  622MOL0     C83888   2.321   5.041   4.252  0.9885 -0.7854 -0.0584
  622MOL0     C83889   2.233   5.140   4.205  0.4743 -0.1606  0.6903
  622MOL0     C83890   1.928   5.400   4.057 -0.2790  0.9312  0.4166
  622MOL0     C83891   1.904   5.509   4.141 -0.4517  0.9722 -1.4143
  622MOL0     C83892   1.833   5.615   4.094 -0.5466  0.2732 -0.6145
  622MOL0     C83893   1.754   5.604   3.975 -0.7024 -0.7003  0.6402
  622MOL0     O83894   1.679   5.703   3.918  0.7752 -0.3787 -0.1018
  622MOL0     C83895   1.706   5.838   3.955 -0.3155 -0.1084  0.7216
  622MOL0     C83896   1.607   5.882   4.071 -0.1728 -0.3361  0.5225
  622MOL0     C83897   1.620   6.036   4.108  0.3080  0.7313  0.3978
  622MOL0     C83898   1.737   6.067   4.204 -0.3424  0.4174 -0.0285
  622MOL0     C83899   1.865   6.095   4.139  0.2314 -0.9161 -0.0477
  622MOL0     C83900   1.975   6.107   4.087  1.2598 -0.0550  0.3860
  622MOL0     C83901   1.774   5.488   3.901  0.4091  0.6173  0.9143
  622MOL0     C83902   1.869   5.394   3.932 -0.3091  0.8205  0.0230
  622MOL0     H83903   1.973   5.087   4.414 -0.8691  3.6562 -0.9726
  622MOL0     H83904   2.111   4.891   4.472 -1.7474  0.4024  1.3574
  622MOL0     H83905   2.207   4.720   4.454 -1.7857  0.9328 -3.8165
  622MOL0     H83906   2.240   4.676   4.285 -0.3783  1.1400 -1.0378
  622MOL0     H83907   2.458   4.588   4.341  0.9222 -0.9887  1.8737
  622MOL0     H83908   2.418   4.621   4.518 -0.1027  1.3018  0.1815
  622MOL0     H83909   2.276   4.449   4.310  0.8627  0.1217 -0.0743
  622MOL0     H83910   2.409   4.392   4.423 -1.4772 -1.3242  0.9006
  622MOL0     H83911   2.211   4.468   4.605  0.5593 -0.9397 -0.3337
  622MOL0     H83912   2.109   4.477   4.465  0.1244  0.4929  1.0050
  622MOL0     H83913   2.261   4.217   4.540 -0.5162 -0.0254  5.3762
  622MOL0     H83914   2.099   4.280   4.590  0.8593 -0.5586  0.9946
  622MOL0     H83915   2.025   4.307   4.348 -1.1441  0.3473 -0.6509
  622MOL0     H83916   2.181   4.244   4.301  0.1681 -1.1967  0.3938
  622MOL0     H83917   2.028   4.071   4.295  0.8243  2.5690 -0.9167
  622MOL0     H83918   2.133   4.027   4.440  0.8549  1.8657  0.5931
  622MOL0     H83919   1.886   4.183   4.489  0.9274 -0.4938 -1.7044
  622MOL0     H83920   1.982   4.066   4.587  3.2383  0.4752 -0.3266
  622MOL0     H83921   1.771   4.001   4.245 -1.0952 -0.0827  0.5380
  622MOL0     H83922   1.581   3.689   4.286 -0.6384 -0.6713  0.0131
  622MOL0     H83923   1.480   3.780   4.396 -0.3712  0.9313  0.8895
  622MOL0     H83924   1.573   3.905   4.126 -2.1686  1.2936 -2.0433
  622MOL0     H83925   1.452   3.962   4.238  0.0112 -0.1025  0.4608
  622MOL0     H83926   1.318   3.756   4.190 -0.9882  1.4551  0.5244
  622MOL0     H83927   1.444   3.683   4.105  1.5254  0.3167 -1.4360
  622MOL0     H83928   1.443   3.868   3.930 -2.5606  1.4022 -2.9774
  622MOL0     H83929   1.292   3.929   4.004 -1.3571 -0.9617  0.9403
  622MOL0     H83930   1.282   3.556   3.752  0.0840  0.6038 -0.5771
  622MOL0     H83931   1.083   3.515   3.492 -0.1458  0.8957 -0.2458
  622MOL0     H83932   1.234   3.578   3.403 -0.4111  0.7182 -0.2238
  622MOL0     H83933   1.243   3.450   3.529 -1.0202 -1.8214  0.3004
  622MOL0     H83934   0.968   4.163   3.363  2.7491 -1.6858  0.3444
  622MOL0     H83935   0.895   4.298   3.164 -0.2509  0.4268  0.3289
  622MOL0     H83936   1.005   4.154   2.747 -0.2271  1.0768 -0.8263
  622MOL0     H83937   0.840   4.088   2.793 -0.9929  0.6239  2.1476
  622MOL0     H83938   0.885   4.240   2.579 -0.8213  3.5304 -2.2144
  622MOL0     H83939   0.735   4.264   2.684  0.0429 -2.9449  3.3496
  622MOL0     H83940   0.989   4.418   2.700  0.8391  1.4940 -4.2882
  622MOL0     H83941   0.833   4.429   2.798  0.2794 -0.1071 -0.6567
  622MOL0     H83942   0.893   4.505   2.496  0.0419  0.8831  0.0105
  622MOL0     H83943   0.733   4.494   2.551 -0.9560  3.4811 -0.0014
  622MOL0     H83944   0.754   4.667   2.714  0.3681  3.9040  0.0808
  622MOL0     H83945   0.787   4.706   2.546  2.8854 -1.9417 -2.7307
  622MOL0     H83946   1.014   4.642   2.741 -1.2579 -2.1261  0.1689
  622MOL0     H83947   1.028   4.673   2.576  0.6903 -3.8398  2.1777
  622MOL0     H83948   0.881   4.872   2.764 -0.4883 -2.7556  0.4610
  622MOL0     H83949   0.946   4.916   2.609 -2.6440 -0.8864 -0.6839
  622MOL0     H83950   1.170   4.869   2.708  1.1852 -3.0679  2.8517
  622MOL0     H83951   1.100   4.826   2.864  2.9616  0.4418  0.4416
  622MOL0     H83952   1.034   3.965   2.920 -0.7737 -0.9141 -0.1355
  622MOL0     H83953   1.049   3.832   3.109 -2.9253 -0.9808  1.1600
  622MOL0     H83954   1.111   3.990   3.592  2.7861  1.0877 -0.0755
  622MOL0     H83955   1.176   3.956   3.821 -1.7727 -1.1346 -0.0866
  622MOL0     H83956   2.423   5.043   4.217  1.3213  0.0420  0.9234
  622MOL0     H83957   2.267   5.205   4.125 -0.4442 -0.8705 -0.3122
  622MOL0     H83958   1.953   5.521   4.237 -0.3557 -0.8250 -1.2163
  622MOL0     H83959   1.835   5.702   4.159 -1.9632  1.6319 -2.2976
  622MOL0     H83960   1.807   5.860   3.992 -0.6143  0.8477  0.9885
  622MOL0     H83961   1.692   5.907   3.871 -0.1129 -0.8102  0.0975
  622MOL0     H83962   1.634   5.830   4.163  0.3182 -1.8240 -0.4316
  622MOL0     H83963   1.505   5.852   4.047  0.4459 -1.0407 -1.4094
  622MOL0     H83964   1.522   6.044   4.154 -0.1488 -0.0110 -0.4193
  622MOL0     H83965   1.623   6.097   4.018  0.8042  2.2981  1.4415
  622MOL0     H83966   1.762   5.976   4.260  2.1374  0.1699 -1.3854
  622MOL0     H83967   1.709   6.146   4.274  1.1247  2.8810 -2.0618
  622MOL0     H83968   2.072   6.108   4.043  1.1420 -3.0367 -0.1946
  622MOL0     H83969   1.737   5.487   3.799  2.5515 -1.3985  0.0688
  622MOL0     H83970   1.894   5.310   3.869  0.7062 -2.1928  4.0258
  623MOL0     O83971   5.094   3.905   1.609  0.0727 -0.2935 -0.7658
  623MOL0     C83972   5.184   3.940   1.695 -0.5422 -0.1745  0.2645
  623MOL0     O83973   5.295   4.020   1.678  0.5580 -0.2573  0.3561
  623MOL0     C83974   5.343   4.056   1.559 -0.5900  0.0229  0.8560
  623MOL0     C83975   5.285   4.096   1.441  0.3509  0.6671  0.7289
  623MOL0     C83976   5.357   4.136   1.326  0.7487  1.2940 -0.6665
  623MOL0     C83977   5.495   4.123   1.327 -0.0515 -0.7211 -0.9593
  623MOL0     O83978   5.567   4.144   1.207  0.2972 -0.0695 -0.5396
  623MOL0     C83979   5.531   4.254   1.125 -0.4137  0.6818 -0.4182
  623MOL0     C83980   5.544   4.386   1.190 -0.0883 -0.7504 -0.3175
  623MOL0     C83981   5.683   4.429   1.218 -0.5182 -1.0736  0.4047
  623MOL0     C83982   5.692   4.579   1.210 -0.1785  0.2860 -1.0436
  623MOL0     C83983   5.631   4.636   1.329 -0.7308 -0.6005 -1.3398
  623MOL0     C83984   5.667   4.779   1.365  0.4460 -1.0007 -0.3673
  623MOL0     C83985   5.598   4.826   1.499 -0.0289  0.8256  0.6809
  623MOL0     C83986   5.442   4.840   1.480 -0.5976  0.5046  0.0663
  623MOL0     N83987   5.370   4.720   1.517 -0.2036 -0.8487  0.3288
  623MOL0     C83988   5.391   4.639   1.627  0.7112 -0.3513  0.7322
  623MOL0     C83989   5.300   4.541   1.609 -0.9692  0.1454 -1.0622
  623MOL0     C83990   5.279   4.406   1.679  0.6461 -0.4796  0.3340
  623MOL0     C83991   5.337   4.381   1.819 -0.6038  0.7738 -1.4293
  623MOL0     C83992   5.243   4.404   1.938  0.3047  0.0722 -0.3562
  623MOL0     C83993   5.259   4.302   2.055 -0.0992  0.0190 -0.2324
  623MOL0     O83994   5.372   4.325   2.124 -0.6627 -0.2494 -0.5229
  623MOL0     C83995   5.401   4.273   2.242  0.3442  0.4220  0.4722
  623MOL0     C83996   5.305   4.206   2.322  0.6728 -0.3863 -0.0876
  623MOL0     C83997   5.334   4.164   2.450  0.0151 -0.4425  0.0839
  623MOL0     C83998   5.210   4.108   2.527 -0.3558  0.1086  0.1020
  623MOL0     C83999   5.466   4.167   2.498  0.9295 -0.5151 -0.7367
  623MOL0     C84000   5.509   4.113   2.630 -0.5502  1.1923 -0.5363
  623MOL0     O84001   5.419   4.044   2.707  0.1339  0.2289  0.6655
  623MOL0     C84002   5.443   4.012   2.842  0.1057 -0.3360 -0.8136
  623MOL0     C84003   5.568   4.006   2.907 -0.2910 -0.0126 -0.6356
  623MOL0     C84004   5.577   3.982   3.047 -0.2299 -0.1621 -0.0950
  623MOL0     C84005   5.461   3.966   3.130 -0.2974  0.0980 -0.0130
  623MOL0     O84006   5.460   3.950   3.270  0.5550 -0.0160 -0.8940
  623MOL0     C84007   5.556   4.037   3.339 -0.9688  0.2387 -0.0104
  623MOL0     C84008   5.487   4.143   3.426  0.5947 -0.0242  0.3337
  623MOL0     C84009   5.584   4.262   3.456  0.0787 -0.0617  0.0996
  623MOL0     C84010   5.548   4.328   3.588  0.4113 -0.6588 -0.5725
  623MOL0     C84011   5.416   4.397   3.606 -0.8237  0.0025 -0.4626
  623MOL0     C84012   5.408   4.449   3.746  0.5596 -0.2484  0.4472
  623MOL0     C84013   5.268   4.493   3.793 -0.3917 -0.2556 -0.6320
  623MOL0     C84014   5.254   4.539   3.942 -0.2138 -0.2740  0.1509
  623MOL0    Cl84015   5.381   4.650   3.995 -0.0977 -0.1768 -0.2675
  623MOL0     C84016   5.341   3.981   3.058  0.5624  0.7349 -0.5698
  623MOL0     C84017   5.328   3.992   2.917 -1.0434  0.2117 -0.8020
  623MOL0     O84018   5.631   4.131   2.650  0.2454 -0.1956  0.5929
  623MOL0     C84019   5.557   4.229   2.415  0.6328  0.2678  0.4498
  623MOL0     C84020   5.526   4.281   2.290  0.4105 -0.3337 -0.1345
  623MOL0     N84021   5.216   4.585   1.514 -0.6262 -0.7694  0.3668
  623MOL0     N84022   5.260   4.689   1.450 -0.0581  0.0309 -0.0923
  623MOL0     C84023   5.553   4.083   1.443 -0.1553 -0.2332 -0.2604
  623MOL0     C84024   5.479   4.062   1.559  0.7261  0.2204 -0.2283
  623MOL0     C84025   5.154   3.903   1.836  0.3614  0.3318 -0.2313
  623MOL0     C84026   5.227   3.952   1.944  0.3269  0.4439  0.4517
  623MOL0     C84027   5.192   3.934   2.075  0.3373  0.2278 -0.5732
  623MOL0     C84028   5.068   3.873   2.105 -0.5898 -0.0227  0.7786
  623MOL0     O84029   5.042   3.870   2.237  0.5447  0.2806  0.7740
  623MOL0     C84030   4.923   3.801   2.286  0.9398 -0.3403 -0.6226
  623MOL0     C84031   4.891   3.855   2.436 -0.0977  0.8644  0.0440
  623MOL0     C84032   4.811   3.741   2.524 -0.6592 -0.5152 -0.0620
  623MOL0     C84033   4.676   3.709   2.464 -0.4844  0.2934 -0.1874
  623MOL0     C84034   4.589   3.831   2.466  0.3144 -0.2627  0.4587
  623MOL0     C84035   4.515   3.926   2.465 -0.4103 -0.9602  1.9379
  623MOL0     C84036   4.995   3.814   2.003  0.2845 -0.3811 -0.3164
  623MOL0     C84037   5.035   3.823   1.867  0.6976  0.0404  0.3324
  623MOL0     H84038   5.177   4.102   1.429  0.3104 -1.8942 -0.9405
  623MOL0     H84039   5.314   4.154   1.228  1.5522 -2.1574 -1.7991
  623MOL0     H84040   5.604   4.242   1.045  0.6813 -4.4313  0.9615
  623MOL0     H84041   5.430   4.248   1.082 -1.1567  1.5113  1.1206
  623MOL0     H84042   5.508   4.467   1.126  0.4627 -2.2377 -2.6216
  623MOL0     H84043   5.491   4.391   1.286 -2.5327 -0.6886 -1.5930
  623MOL0     H84044   5.709   4.398   1.320 -1.6942  0.5878  1.2460
  623MOL0     H84045   5.753   4.391   1.143 -0.1119  1.1476 -0.4310
  623MOL0     H84046   5.798   4.605   1.206  0.1807 -1.1813 -1.6068
  623MOL0     H84047   5.637   4.619   1.124 -1.2772  0.4613 -0.2893
  623MOL0     H84048   5.524   4.616   1.319 -0.8759  0.2293 -1.4609
  623MOL0     H84049   5.656   4.584   1.422 -1.9280  3.1222  1.2771
  623MOL0     H84050   5.774   4.801   1.360  0.2836 -0.3332 -4.1476
  623MOL0     H84051   5.632   4.849   1.288  0.5676  0.9021  1.2350
  623MOL0     H84052   5.629   4.759   1.580 -0.1266 -0.2734 -0.1568
  623MOL0     H84053   5.635   4.928   1.508 -3.9760  2.7401 -1.9317
  623MOL0     H84054   5.431   4.860   1.373 -0.7767 -0.3466 -0.0842
  623MOL0     H84055   5.401   4.925   1.536 -1.9389 -0.6527  0.9239
  623MOL0     H84056   5.466   4.650   1.704  0.7376 -1.2997  0.8516
  623MOL0     H84057   5.171   4.391   1.671  0.5166  0.3985  0.3167
  623MOL0     H84058   5.322   4.335   1.608 -0.4494 -0.6925 -0.1424
  623MOL0     H84059   5.412   4.460   1.824  0.7078 -0.3270 -2.7192
  623MOL0     H84060   5.385   4.283   1.832 -0.3905  0.8100 -1.9044
  623MOL0     H84061   5.142   4.391   1.899 -0.7305  0.5684  1.9797
  623MOL0     H84062   5.247   4.507   1.976 -4.0936  0.5621 -0.6967
  623MOL0     H84063   5.264   4.199   2.018  0.0725 -0.3851  0.8640
  623MOL0     H84064   5.165   4.307   2.111 -0.4698  0.9812 -0.9169
  623MOL0     H84065   5.204   4.204   2.283 -0.1757  1.9918  1.7575
  623MOL0     H84066   5.128   4.119   2.456  1.6282 -0.0779 -2.3531
  623MOL0     H84067   5.218   4.000   2.541 -2.0249 -0.3217 -1.7903
  623MOL0     H84068   5.191   4.163   2.620 -3.4374  0.3834 -0.5835
  623MOL0     H84069   5.663   4.024   2.857  1.1324  1.0385  2.2148
  623MOL0     H84070   5.672   3.975   3.099  0.3830 -0.8913 -1.2639
  623MOL0     H84071   5.607   3.968   3.408 -1.9693 -1.5915 -1.0348
  623MOL0     H84072   5.632   4.078   3.271  0.9218  1.0124  2.3913
  623MOL0     H84073   5.396   4.179   3.379  0.0374 -0.4157  1.0844
  623MOL0     H84074   5.456   4.096   3.520  2.8562  2.8372  2.6972
  623MOL0     H84075   5.591   4.324   3.367 -0.1400 -0.9365 -0.5378
  623MOL0     H84076   5.679   4.209   3.471 -0.3821 -0.6295  1.1712
  623MOL0     H84077   5.565   4.249   3.662 -3.5042 -2.6590 -1.5363
  623MOL0     H84078   5.624   4.405   3.607 -1.5014  0.9028  1.2154
  623MOL0     H84079   5.336   4.323   3.608 -0.7597 -0.0778  2.3647
  623MOL0     H84080   5.395   4.473   3.530 -0.6149  1.5529  0.9864
  623MOL0     H84081   5.434   4.362   3.806 -0.5756 -2.6786 -2.3102
  623MOL0     H84082   5.485   4.523   3.769 -1.1533  0.8673  3.0292
  623MOL0     H84083   5.194   4.413   3.786  0.9523 -1.5117 -0.9820
  623MOL0     H84084   5.240   4.581   3.735 -2.1363 -1.0350 -1.0389
  623MOL0     H84085   5.256   4.452   4.007  3.8831  0.0030  0.6754
  623MOL0     H84086   5.162   4.598   3.951  0.5209  0.5850  3.2389
  623MOL0     H84087   5.257   3.951   3.120  2.6269  0.0951  2.0777
  623MOL0     H84088   5.235   3.977   2.864 -0.9003 -3.8330 -0.2385
  623MOL0     H84089   5.662   4.234   2.444  2.0294 -1.7862 -3.5594
  623MOL0     H84090   5.598   4.325   2.222 -1.1549  2.5988 -0.0619
  623MOL0     H84091   5.660   4.062   1.448  0.5841  2.3781 -2.2802
  623MOL0     H84092   5.515   4.027   1.655 -1.0600  0.6104  0.6097
  623MOL0     H84093   5.321   3.996   1.912  1.1493 -2.5907 -1.7582
  623MOL0     H84094   5.250   3.969   2.159  3.0478 -0.9632 -1.8209
  623MOL0     H84095   4.838   3.811   2.219 -1.4439  2.7111  2.4645
  623MOL0     H84096   4.934   3.694   2.305 -1.0435 -0.8629 -2.1515
  623MOL0     H84097   4.832   3.946   2.423  2.7606  2.8085 -0.0534
  623MOL0     H84098   4.984   3.884   2.484  0.5742 -0.8214 -0.1756
  623MOL0     H84099   4.797   3.774   2.627  2.6345  1.6896 -0.1797
  623MOL0     H84100   4.868   3.649   2.534  1.0732  0.3769 -1.3285
  623MOL0     H84101   4.633   3.623   2.516 -1.9410  1.3659  0.4382
  623MOL0     H84102   4.678   3.656   2.368 -4.3968 -1.0201  0.2650
  623MOL0     H84103   4.439   4.001   2.477 -3.1407 -3.1112 -0.5459
  623MOL0     H84104   4.908   3.755   2.029  0.0173  0.6243  1.2552
  623MOL0     H84105   4.985   3.783   1.779  1.6267  0.6432 -0.4829
  624MOL0     O84106   8.103   8.244   9.533 -0.2830  0.1619 -0.2033
  624MOL0     C84107   8.034   8.146   9.537 -0.4172 -0.3356 -0.1082
  624MOL0     O84108   8.090   8.015   9.539  0.1714  0.1336  0.0718
  624MOL0     C84109   8.222   7.987   9.542  0.3099  0.3882 -0.2813
  624MOL0     C84110   8.311   8.065   9.467 -0.6502 -0.4406 -0.5161
  624MOL0     C84111   8.446   8.029   9.465 -0.0462 -0.4540 -0.4819
  624MOL0     C84112   8.506   7.928   9.547 -0.5358 -0.2326  0.1954
  624MOL0     O84113   8.641   7.890   9.525  1.0678  0.1892  0.6941
  624MOL0     C84114   8.685   7.788   9.606 -0.2130  0.7840  0.8009
  624MOL0     C84115   8.817   7.753   9.539  0.0211  0.1221 -0.6385
  624MOL0     C84116   8.837   7.745   9.394  0.7919 -0.0895  1.2319
  624MOL0     C84117   8.964   7.663   9.340 -0.1777  0.0331 -0.3089
  624MOL0     C84118   9.095   7.731   9.376  0.6051  0.4193 -0.6763
  624MOL0     C84119   9.152   7.665   9.506  0.8032 -0.3776  0.0102
  624MOL0     C84120   9.237   7.541   9.480 -1.1075 -0.1327 -0.4385
  624MOL0     C84121   9.320   7.522   9.614  0.0227 -0.4440 -0.2711
  624MOL0     N84122   9.458   7.569   9.615  0.1756  0.3919 -1.3312
  624MOL0     C84123   9.555   7.521   9.522 -0.6880  0.0734  0.1043
  624MOL0     C84124   9.646   7.621   9.523  0.0985 -0.3206 -0.0544
  624MOL0     C84125   9.774   7.625   9.454  0.1749  0.1569  1.3004
  624MOL0     C84126   9.880   7.722   9.507 -0.0171 -0.5580 -0.0128
  624MOL0     C84127  10.020   7.685   9.463  0.3260  0.3594 -0.0910
  624MOL0     C84128  10.063   7.692   9.317  0.3206  0.9962  0.2430
  624MOL0     O84129  10.115   7.821   9.296 -0.7929  0.0815  0.9005
  624MOL0     C84130  10.098   7.867   9.167 -0.6507 -1.6617 -0.4997
  624MOL0     C84131  10.097   8.011   9.154  0.0616  0.6303  0.2862
  624MOL0     C84132  10.080   8.072   9.024 -0.5537 -0.0475 -0.7246
  624MOL0     C84133  10.081   8.220   9.020 -0.2454  0.3609  0.5970
  624MOL0     C84134  10.081   7.997   8.907  0.9723  0.5566 -0.1223
  624MOL0     C84135  10.092   8.054   8.773  0.2812  0.2120 -0.0938
  624MOL0     O84136  10.111   8.187   8.749 -1.0058 -0.6216  0.5355
  624MOL0     C84137  10.113   8.226   8.610  0.8923  0.5677 -0.3550
  624MOL0     C84138  10.238   8.248   8.531  0.5865  0.1711  0.5893
  624MOL0     C84139  10.237   8.298   8.400 -0.3972 -0.1774  0.8201
  624MOL0     C84140  10.119   8.338   8.347 -0.1719  0.3284  1.1134
  624MOL0     O84141  10.115   8.397   8.221 -0.6533  0.3898 -0.2406
  624MOL0     C84142  10.234   8.467   8.183 -0.5432  0.1927 -1.1239
  624MOL0     C84143  10.200   8.519   8.044 -0.2268  0.2193 -1.0603
  624MOL0     C84144  10.198   8.406   7.932 -0.4288  1.0273  0.0641
  624MOL0     C84145  10.227   8.451   7.797  0.1043  0.1715  0.5242
  624MOL0     C84146  10.229   8.343   7.686 -0.4040 -0.0688  0.4263
  624MOL0     C84147  10.284   8.408   7.554 -0.4715  0.5336  0.3670
  624MOL0     C84148  10.282   8.303   7.436 -0.0706  0.4120 -0.0825
  624MOL0     C84149  10.139   8.242   7.405 -0.7524 -1.1860  0.0114
  624MOL0    Cl84150  10.128   8.159   7.247 -0.1443  0.0674  0.0853
  624MOL0     C84151  10.002   8.310   8.414 -0.6459 -0.4655 -0.0835
  624MOL0     C84152   9.998   8.258   8.543  1.0067 -0.4046 -0.7054
  624MOL0     O84153  10.060   7.976   8.683 -0.2235 -0.0993  0.0766
  624MOL0     C84154  10.083   7.859   8.937 -1.3095  0.2477  0.8332
  624MOL0     C84155  10.088   7.789   9.054  1.1427  0.1035  0.3158
  624MOL0     N84156   9.607   7.719   9.611 -0.8142 -0.7931 -0.4156
  624MOL0     N84157   9.490   7.696   9.665  0.2209 -0.4317  0.8635
  624MOL0     C84158   8.412   7.854   9.620 -0.0249  0.2521  0.0470
  624MOL0     C84159   8.269   7.881   9.612  0.0679  0.4677 -0.6739
  624MOL0     C84160   7.895   8.176   9.511  0.4124 -0.4391 -1.2493
  624MOL0     C84161   7.842   8.307   9.532 -0.9143 -0.2428 -0.3588
  624MOL0     C84162   7.709   8.349   9.517 -0.7618  1.1125 -0.3650
  624MOL0     C84163   7.616   8.247   9.493  0.3412 -0.7545  0.7685
  624MOL0     O84164   7.482   8.285   9.510 -0.4999  0.0842 -0.4293
  624MOL0     C84165   7.431   8.297   9.646 -0.2730 -0.5322 -0.2914
  624MOL0     C84166   7.284   8.295   9.632  0.8397 -0.2691 -0.4325
  624MOL0     C84167   7.232   8.172   9.545  0.6340  0.3470  0.5001
  624MOL0     C84168   7.198   8.228   9.399  1.0136  0.5615  0.0459
  624MOL0     C84169   7.210   8.117   9.303 -0.4173 -0.1097 -0.0255
  624MOL0     C84170   7.231   8.023   9.236  0.5720 -0.3702  0.1624
  624MOL0     C84171   7.653   8.111   9.473 -0.2838 -0.0207  0.1105
  624MOL0     C84172   7.792   8.081   9.485 -0.1554 -0.1768 -0.2302
  624MOL0     H84173   8.278   8.141   9.396  1.4529 -0.4416 -1.5650
  624MOL0     H84174   8.525   8.073   9.405 -1.7552  1.5230 -1.4061
  624MOL0     H84175   8.699   7.813   9.712  0.2674  1.0820  0.6696
  624MOL0     H84176   8.615   7.705   9.596  2.6762 -1.4972 -3.0595
  624MOL0     H84177   8.891   7.831   9.559  0.7800  0.0834 -2.9721
  624MOL0     H84178   8.852   7.657   9.580  1.8865  1.6485  1.6031
  624MOL0     H84179   8.749   7.689   9.359 -0.4948  1.3784  1.9805
  624MOL0     H84180   8.841   7.843   9.346  0.1447 -1.4517 -1.8290
  624MOL0     H84181   8.975   7.560   9.377  0.8547  0.8340  1.7350
  624MOL0     H84182   8.946   7.649   9.233 -0.6052 -2.3461  0.0199
  624MOL0     H84183   9.169   7.724   9.296  1.3317  1.3347 -0.0989
  624MOL0     H84184   9.091   7.839   9.389 -1.2257  0.1501  1.5622
  624MOL0     H84185   9.214   7.743   9.553 -0.6419 -0.0896  1.5479
  624MOL0     H84186   9.068   7.642   9.572  0.2370 -2.9771 -1.4922
  624MOL0     H84187   9.183   7.449   9.457 -1.3524 -0.3115  0.7898
  624MOL0     H84188   9.299   7.553   9.391  0.3952 -0.8755  0.4706
  624MOL0     H84189   9.329   7.413   9.622  1.5810 -0.2876  0.4156
  624MOL0     H84190   9.271   7.562   9.703 -0.7760 -0.1988 -0.8085
  624MOL0     H84191   9.558   7.434   9.457 -0.1293  1.4408 -1.7764
  624MOL0     H84192   9.816   7.526   9.439  0.3434  0.6170 -1.8321
  624MOL0     H84193   9.748   7.654   9.352  2.7705  1.6620  0.9903
  624MOL0     H84194   9.866   7.722   9.615 -1.2733  0.2087 -0.1572
  624MOL0     H84195   9.848   7.821   9.473  0.9112 -1.0549 -2.6211
  624MOL0     H84196  10.033   7.587   9.509  0.5545 -0.0212 -0.9552
  624MOL0     H84197  10.082   7.759   9.515  1.6598  0.0220 -1.1300
  624MOL0     H84198   9.965   7.668   9.274  0.4468 -0.4489  0.7023
  624MOL0     H84199  10.143   7.624   9.285  0.2876  1.3801 -0.6816
  624MOL0     H84200  10.110   8.065   9.247 -0.4518  1.8780 -0.3515
  624MOL0     H84201  10.177   8.247   8.975 -0.7958  1.1857 -0.1176
  624MOL0     H84202   9.991   8.260   8.973  1.1024  0.9285 -1.6666
  624MOL0     H84203  10.077   8.258   9.122 -1.0453  2.5291 -0.1884
  624MOL0     H84204  10.335   8.215   8.566  0.8673  0.5144  0.1337
  624MOL0     H84205  10.332   8.299   8.348 -1.2318  0.4604 -0.7775
  624MOL0     H84206  10.250   8.551   8.251 -0.9899 -0.3322 -0.3640
  624MOL0     H84207  10.326   8.407   8.183 -0.4917  0.2653 -0.4381
  624MOL0     H84208  10.100   8.564   8.049 -0.3103 -0.1053  0.8568
  624MOL0     H84209  10.274   8.591   8.009  1.2396 -1.6164 -1.8861
  624MOL0     H84210  10.097   8.363   7.925 -0.4116  1.0812 -0.5390
  624MOL0     H84211  10.272   8.328   7.951  1.3116  1.2436 -4.5973
  624MOL0     H84212  10.161   8.532   7.764 -2.1335 -0.9061  2.0266
  624MOL0     H84213  10.326   8.497   7.802  0.6647 -0.8487 -0.6695
  624MOL0     H84214  10.135   8.290   7.667  0.2877 -1.8144  1.6016
  624MOL0     H84215  10.299   8.264   7.714  0.3187 -0.1403 -1.4409
  624MOL0     H84216  10.227   8.498   7.528 -0.3963  1.2764  2.5755
  624MOL0     H84217  10.385   8.442   7.576 -0.4737  0.0686  1.1523
  624MOL0     H84218  10.360   8.231   7.465 -0.4309  0.4077  0.9091
  624MOL0     H84219  10.327   8.363   7.356  1.3764  1.8255  1.6867
  624MOL0     H84220  10.066   8.323   7.418  1.0880  0.5785 -0.0286
  624MOL0     H84221  10.121   8.166   7.481  2.7826 -3.0325 -0.7728
  624MOL0     H84222   9.918   8.345   8.354  2.3675  1.1020 -3.8466
  624MOL0     H84223   9.905   8.246   8.599  0.1853 -1.4222 -2.2017
  624MOL0     H84224  10.090   7.799   8.847  1.9176  4.5948 -2.2728
  624MOL0     H84225  10.081   7.681   9.047  1.2777  0.1285 -0.2305
  624MOL0     H84226   8.422   7.765   9.682 -3.2321 -0.9062 -0.8615
  624MOL0     H84227   8.204   7.812   9.666 -0.0488  1.8811  1.0907
  624MOL0     H84228   7.908   8.388   9.562 -0.3265 -0.9730  0.3542
  624MOL0     H84229   7.680   8.453   9.525  0.3342  1.6866 -3.0685
  624MOL0     H84230   7.480   8.223   9.710  0.2768  1.0668  1.2524
  624MOL0     H84231   7.458   8.391   9.695 -0.7263  0.0191 -1.0791
  624MOL0     H84232   7.255   8.394   9.596  1.4233  1.0573  2.4098
  624MOL0     H84233   7.249   8.293   9.736  1.1375  1.1758 -0.2828
  624MOL0     H84234   7.140   8.132   9.587  1.1632  0.2727  1.6332
  624MOL0     H84235   7.312   8.097   9.547 -2.8450 -3.6787  0.9238
  624MOL0     H84236   7.246   8.319   9.361  0.0988  0.3690 -1.6542
  624MOL0     H84237   7.095   8.265   9.395  0.3648 -1.2792 -1.3936
  624MOL0     H84238   7.265   7.943   9.174  3.4989  0.1549  0.9601
  624MOL0     H84239   7.582   8.030   9.460  0.4131 -0.1628 -5.0137
  624MOL0     H84240   7.818   7.976   9.484 -0.1192 -0.1672 -1.8953
  625MOL0     O84241  11.099   6.839   9.017 -0.0657 -0.1251  0.9563
  625MOL0     C84242  11.168   6.793   9.103 -0.1649 -0.4524  0.5582
  625MOL0     O84243  11.129   6.704   9.196 -0.4003 -0.2439  0.5984
  625MOL0     C84244  11.014   6.624   9.198 -0.5648 -0.0136 -0.1013
  625MOL0     C84245  10.938   6.590   9.079 -0.4174 -0.5872 -0.4852
  625MOL0     C84246  10.830   6.500   9.085  0.1802 -1.1138 -0.3868
  625MOL0     C84247  10.788   6.435   9.201 -0.0401 -1.2092 -0.3805
  625MOL0     O84248  10.682   6.352   9.186 -0.0862  0.1333 -0.0194
  625MOL0     C84249  10.648   6.269   9.304 -0.7288  0.2509 -0.2421
  625MOL0     C84250  10.555   6.140   9.285  0.0551 -0.3059 -0.4441
  625MOL0     C84251  10.454   6.146   9.174 -0.1740  1.0745 -0.3142
  625MOL0     C84252  10.325   6.216   9.220 -0.6396 -0.8947 -0.0385
  625MOL0     C84253  10.236   6.126   9.308 -0.0825  0.6840 -0.7131
  625MOL0     C84254  10.096   6.152   9.258 -0.2802  0.3235 -1.1699
  625MOL0     C84255   9.988   6.105   9.353 -0.4335 -0.3798  0.0131
  625MOL0     C84256   9.839   6.095   9.303  0.6379  0.4103  0.2116
  625MOL0     N84257   9.772   6.226   9.285 -0.2738  0.4635 -0.0388
  625MOL0     C84258   9.681   6.266   9.183  0.2801  0.6384 -0.3207
  625MOL0     C84259   9.645   6.398   9.210 -0.0121  0.2245 -0.6197
  625MOL0     C84260   9.545   6.485   9.128  0.2730 -0.1092 -0.9255
  625MOL0     C84261   9.603   6.493   8.984 -0.0934 -0.5305 -0.7482
  625MOL0     C84262   9.530   6.591   8.881  0.1466 -1.2634 -0.2390
  625MOL0     C84263   9.583   6.601   8.737 -1.1442 -0.1841 -0.5704
  625MOL0     O84264   9.493   6.668   8.645 -0.2037 -0.5603  0.1220
  625MOL0     C84265   9.366   6.628   8.629  0.1477 -0.8274  0.9067
  625MOL0     C84266   9.269   6.727   8.595 -1.2011  0.0351 -0.3287
  625MOL0     C84267   9.144   6.692   8.559  1.2680 -1.2590  0.7765
  625MOL0     C84268   9.048   6.810   8.542  0.1203  0.6030 -0.1211
  625MOL0     C84269   9.111   6.555   8.540  0.2432  0.4708 -0.6458
  625MOL0     C84270   8.984   6.508   8.483 -0.7181  0.2260  0.9579
  625MOL0     O84271   8.958   6.364   8.501 -0.1462 -0.2902 -0.1087
  625MOL0     C84272   8.848   6.317   8.425  0.8568 -0.7423 -0.7996
  625MOL0     C84273   8.716   6.337   8.451  1.3444 -0.0445  0.6558
  625MOL0     C84274   8.619   6.262   8.382 -0.4387 -0.4166  0.3344
  625MOL0     C84275   8.651   6.172   8.289 -0.7128 -0.5279  0.2131
  625MOL0     O84276   8.568   6.073   8.239  0.1889 -0.5906  0.4494
  625MOL0     C84277   8.428   6.098   8.226 -0.6274 -0.0651  0.4502
  625MOL0     C84278   8.336   5.981   8.178  0.4853 -0.5496  1.1234
  625MOL0     C84279   8.399   5.881   8.073 -0.3648 -0.1288  0.1233
  625MOL0     C84280   8.316   5.755   8.051  0.2524  0.0344  0.6269
  625MOL0     C84281   8.407   5.653   7.977  0.1804  0.0722  1.0798
  625MOL0     C84282   8.345   5.505   7.992 -0.1462 -0.3413 -0.6813
  625MOL0     C84283   8.210   5.497   7.926 -0.2584  0.5607  0.0985
  625MOL0     C84284   8.204   5.379   7.837  0.4479 -0.9972 -0.2937
  625MOL0    Cl84285   8.296   5.382   7.689  0.1082 -0.2359 -0.0123
  625MOL0     C84286   8.781   6.174   8.245 -0.7729 -0.2342  0.8040
  625MOL0     C84287   8.884   6.246   8.310 -0.4682  0.5656 -0.6684
  625MOL0     O84288   8.912   6.580   8.416 -0.0243 -0.9811  0.2507
  625MOL0     C84289   9.205   6.458   8.570  0.8071 -0.7453  0.2154
  625MOL0     C84290   9.331   6.499   8.620 -0.3865 -0.2661  0.4791
  625MOL0     N84291   9.709   6.425   9.336  0.3549  0.1953 -0.0649
  625MOL0     N84292   9.786   6.326   9.363  0.4715  0.3215 -0.5887
  625MOL0     C84293  10.864   6.466   9.317  0.4498 -0.8218 -0.4342
  625MOL0     C84294  10.975   6.554   9.314  1.0505 -0.0124 -0.3978
  625MOL0     C84295  11.295   6.846   9.122 -0.3704  0.4992  0.3989
  625MOL0     C84296  11.393   6.785   9.201  0.4070  0.3569  0.7354
  625MOL0     C84297  11.520   6.832   9.210 -0.4510  0.2239  0.0136
  625MOL0     C84298  11.565   6.938   9.134 -1.0037 -0.5790 -0.0730
  625MOL0     O84299  11.695   6.981   9.138  0.1243  0.2053  0.4764
  625MOL0     C84300  11.798   6.936   9.222 -0.9642  0.1292  0.5256
  625MOL0     C84301  11.781   6.973   9.370 -0.9243 -0.1681 -1.1221
  625MOL0     C84302  11.879   6.901   9.474  0.6194  0.0912  0.9486
  625MOL0     C84303  11.852   6.751   9.479 -0.8593  0.5187 -0.5138
  625MOL0     C84304  11.721   6.729   9.517 -0.5144  0.8769 -0.1405
  625MOL0     C84305  11.602   6.712   9.541  0.1419 -1.4076 -0.6144
  625MOL0     C84306  11.480   6.993   9.045  1.9750 -0.3501  0.8092
  625MOL0     C84307  11.343   6.947   9.035  0.2380 -1.7563  0.6278
  625MOL0     H84308  10.959   6.623   8.978 -2.7897  2.1943 -0.2003
  625MOL0     H84309  10.765   6.489   8.999 -1.5905 -0.4407  0.8024
  625MOL0     H84310  10.745   6.230   9.337 -2.3195 -3.9494  0.0127
  625MOL0     H84311  10.608   6.332   9.384 -1.2051 -1.2407  0.7317
  625MOL0     H84312  10.620   6.056   9.262 -2.1683 -1.3863 -3.5464
  625MOL0     H84313  10.509   6.130   9.384  1.3877  0.4712  0.2831
  625MOL0     H84314  10.501   6.191   9.085 -1.1787  0.4055 -1.2062
  625MOL0     H84315  10.426   6.048   9.136  0.1555  0.7294  0.3214
  625MOL0     H84316  10.349   6.309   9.272  1.4408 -0.6688 -1.2870
  625MOL0     H84317  10.277   6.251   9.128 -1.3805 -1.9635 -0.0683
  625MOL0     H84318  10.253   6.020   9.286 -2.1332  0.3994 -1.0869
  625MOL0     H84319  10.250   6.133   9.417  1.6109  0.8711 -0.9153
  625MOL0     H84320  10.079   6.261   9.257  0.5093  0.4780 -0.1011
  625MOL0     H84321  10.085   6.100   9.162 -0.5797 -1.7168 -0.0827
  625MOL0     H84322  10.024   6.003   9.371  0.0158 -0.4357 -1.0910
  625MOL0     H84323   9.980   6.157   9.448 -0.9791  0.9979 -0.7614
  625MOL0     H84324   9.783   6.038   9.378 -0.5823  0.7590 -0.4125
  625MOL0     H84325   9.822   6.039   9.211 -1.7991  1.6809 -0.1872
  625MOL0     H84326   9.662   6.191   9.107  1.5648 -0.9537  0.8342
  625MOL0     H84327   9.448   6.439   9.109  1.2981 -2.0084 -1.8870
  625MOL0     H84328   9.533   6.589   9.159  3.9827 -0.0579  0.9159
  625MOL0     H84329   9.598   6.391   8.944 -0.9354  0.0386 -2.1803
  625MOL0     H84330   9.705   6.532   8.979 -0.2430 -0.2607 -2.4141
  625MOL0     H84331   9.541   6.689   8.928  0.6357 -1.0861 -0.7169
  625MOL0     H84332   9.422   6.577   8.890  0.4801 -2.7053  5.4617
  625MOL0     H84333   9.614   6.513   8.679  2.6203 -0.1356  1.0794
  625MOL0     H84334   9.677   6.656   8.739 -0.3051 -1.5523  1.5607
  625MOL0     H84335   9.305   6.829   8.596 -1.3138  0.0826  1.3660
  625MOL0     H84336   9.067   6.865   8.449 -0.0829  0.2579 -0.3649
  625MOL0     H84337   8.946   6.773   8.548  0.4870 -0.3700  0.2954
  625MOL0     H84338   9.053   6.888   8.618  0.7980  1.2867 -0.8378
  625MOL0     H84339   8.691   6.387   8.544 -0.3300 -1.2292  0.8978
  625MOL0     H84340   8.513   6.263   8.403 -1.3541  0.9363 -3.6111
  625MOL0     H84341   8.377   6.121   8.320 -3.5900  0.4577 -1.1611
  625MOL0     H84342   8.406   6.178   8.156 -0.9972 -2.3181 -2.1801
  625MOL0     H84343   8.324   5.913   8.262 -1.7038  0.5513  1.7650
  625MOL0     H84344   8.238   6.022   8.154  0.2692 -0.9912  1.2482
  625MOL0     H84345   8.498   5.843   8.101  0.9094  3.3566  0.8636
  625MOL0     H84346   8.413   5.936   7.979  0.6484  2.2533  1.5678
  625MOL0     H84347   8.277   5.717   8.146  0.0066  1.5142  1.1513
  625MOL0     H84348   8.228   5.785   7.993 -0.9009 -0.0106  2.3012
  625MOL0     H84349   8.510   5.647   8.013 -0.9947 -1.3623  4.7078
  625MOL0     H84350   8.416   5.671   7.870 -0.8521  0.1949  1.0034
  625MOL0     H84351   8.418   5.434   7.951  0.3741  1.7488 -3.7538
  625MOL0     H84352   8.324   5.483   8.097  0.5618 -1.9260 -0.8361
  625MOL0     H84353   8.190   5.585   7.864  3.2104  1.3564 -0.0818
  625MOL0     H84354   8.134   5.478   8.002  0.1091 -2.2076 -0.0987
  625MOL0     H84355   8.106   5.358   7.794  0.7105 -1.3793 -0.7147
  625MOL0     H84356   8.235   5.292   7.894  0.5431 -1.7218 -1.4130
  625MOL0     H84357   8.796   6.097   8.170  0.1574 -0.4335  1.1878
  625MOL0     H84358   8.984   6.216   8.280 -1.8145 -2.9130 -2.2974
  625MOL0     H84359   9.194   6.350   8.564  1.8345 -0.7917 -1.4441
  625MOL0     H84360   9.393   6.411   8.630  0.1078  0.1315  0.9530
  625MOL0     H84361  10.839   6.414   9.409  0.0673  1.2016  0.6664
  625MOL0     H84362  11.012   6.560   9.415 -2.4715 -1.9739  1.1836
  625MOL0     H84363  11.379   6.690   9.251  0.6634  0.1219  0.3730
  625MOL0     H84364  11.607   6.779   9.248 -0.4328  0.3873  0.1998
  625MOL0     H84365  11.799   6.827   9.211  0.9459 -0.2172  3.2138
  625MOL0     H84366  11.892   6.971   9.180 -1.7142  2.1857  0.4312
  625MOL0     H84367  11.676   6.957   9.397 -1.3554  0.1236 -2.5834
  625MOL0     H84368  11.794   7.080   9.390  4.9502 -0.5669 -1.1971
  625MOL0     H84369  11.866   6.943   9.574 -0.4977 -3.1002  2.2509
  625MOL0     H84370  11.986   6.914   9.457  0.7723  1.2225  2.5471
  625MOL0     H84371  11.909   6.705   9.560  1.9254  1.0531 -2.0745
  625MOL0     H84372  11.897   6.696   9.396 -2.6099 -1.3594 -0.3125
  625MOL0     H84373  11.496   6.700   9.551  0.0936 -0.8477 -0.3951
  625MOL0     H84374  11.498   7.094   9.010 -3.5260  1.3592  1.8528
  625MOL0     H84375  11.276   7.006   8.974 -1.6610 -2.4125  1.9989
  626MOL0     O84376   4.649   2.354   3.865  0.7315  0.5533 -0.1269
  626MOL0     C84377   4.640   2.418   3.763  0.8451  0.3021 -0.5034
  626MOL0     O84378   4.534   2.489   3.711  0.5701  0.6977  0.3508
  626MOL0     C84379   4.402   2.433   3.732 -1.2674 -0.7428  0.5148
  626MOL0     C84380   4.315   2.405   3.623 -0.7147 -0.6671  0.0806
  626MOL0     C84381   4.184   2.379   3.647  0.2717  1.3035  0.5930
  626MOL0     C84382   4.136   2.346   3.773 -0.4012 -1.0055 -0.0856
  626MOL0     O84383   4.008   2.315   3.783 -0.9565  0.0012  0.5537
  626MOL0     C84384   3.965   2.235   3.895 -0.2151 -0.0838 -0.2521
  626MOL0     C84385   3.896   2.307   4.014  0.7686 -0.0230  0.1943
  626MOL0     C84386   3.828   2.193   4.096 -0.0494 -0.5120  0.1275
  626MOL0     C84387   3.759   2.276   4.214  0.2704 -0.0899  0.2427
  626MOL0     C84388   3.680   2.182   4.296 -0.0181 -1.5156  0.7222
  626MOL0     C84389   3.768   2.091   4.383  1.1578  1.0959 -0.4574
  626MOL0     C84390   3.669   2.008   4.474 -0.7372 -0.1777  0.1184
  626MOL0     C84391   3.729   1.870   4.501  0.7074  1.0013  1.4603
  626MOL0     N84392   3.715   1.780   4.389  0.5708  0.3169  0.2867
  626MOL0     C84393   3.823   1.722   4.340 -0.6960  0.5549 -0.5938
  626MOL0     C84394   3.781   1.629   4.248 -0.6512 -0.4174 -0.6573
  626MOL0     C84395   3.859   1.522   4.172 -0.4399 -0.0582 -0.9448
  626MOL0     C84396   3.953   1.589   4.079  0.3225 -0.6457 -0.5539
  626MOL0     C84397   3.871   1.658   3.962 -0.1356  0.5007 -0.6061
  626MOL0     C84398   3.956   1.676   3.844 -0.4367  0.6066  0.5701
  626MOL0     O84399   4.056   1.775   3.858 -0.4034 -0.1336  0.3959
  626MOL0     C84400   4.098   1.819   3.734  0.5649  0.2107 -0.4744
  626MOL0     C84401   4.113   1.735   3.625  0.8655  0.4144  0.2833
  626MOL0     C84402   4.172   1.784   3.508  0.1468  0.0743  0.1429
  626MOL0     C84403   4.200   1.671   3.409 -0.0755  0.3347 -0.0031
  626MOL0     C84404   4.195   1.930   3.500  0.1841  0.2184  0.7557
  626MOL0     C84405   4.253   2.003   3.379  1.1431 -0.0891 -0.3797
  626MOL0     O84406   4.264   2.140   3.376 -0.4376 -0.9267  0.1813
  626MOL0     C84407   4.280   2.206   3.257  1.4369  0.3063  0.5611
  626MOL0     C84408   4.410   2.227   3.207 -0.6800  0.5104 -0.5977
  626MOL0     C84409   4.429   2.307   3.089 -0.0543  0.2378 -0.3563
  626MOL0     C84410   4.314   2.351   3.017  0.6353 -0.3455  0.0067
  626MOL0     O84411   4.337   2.442   2.913  0.5677 -0.4035  0.1455
  626MOL0     C84412   4.230   2.464   2.822 -0.3125 -0.5497  0.5830
  626MOL0     C84413   4.296   2.494   2.682 -0.6087 -0.1062 -0.2825
  626MOL0     C84414   4.185   2.522   2.573  0.1126  0.2637 -0.0208
  626MOL0     C84415   4.099   2.645   2.583 -0.2963 -0.1512  1.2003
  626MOL0     C84416   3.945   2.600   2.571 -0.2768  0.4594  0.0360
  626MOL0     C84417   3.908   2.510   2.682 -0.4821 -0.1780 -0.6532
  626MOL0     C84418   3.760   2.504   2.691 -0.4286 -0.4185 -0.3569
  626MOL0     C84419   3.686   2.392   2.601 -0.3315  0.0381  0.4863
  626MOL0    Cl84420   3.545   2.471   2.529 -0.0797  0.2730  0.8586
  626MOL0     C84421   4.183   2.314   3.066  0.6360  0.0978  0.6129
  626MOL0     C84422   4.174   2.241   3.181  0.0191  0.5630 -0.4681
  626MOL0     O84423   4.293   1.934   3.286  0.2613  0.2884  1.1078
  626MOL0     C84424   4.155   2.012   3.604 -0.1956 -0.5296 -0.0508
  626MOL0     C84425   4.118   1.952   3.723  0.2653  0.3743  0.0685
  626MOL0     N84426   3.647   1.643   4.242 -0.1826  0.4277 -0.1358
  626MOL0     N84427   3.602   1.732   4.324 -0.4296  0.8870 -0.1600
  626MOL0     C84428   4.223   2.360   3.876  0.3687 -0.6020 -0.5816
  626MOL0     C84429   4.351   2.419   3.861  0.5468  0.5739  0.1111
  626MOL0     C84430   4.758   2.425   3.673 -0.8077  0.4965 -0.1975
  626MOL0     C84431   4.765   2.525   3.579 -0.5023  0.9633  0.5962
  626MOL0     C84432   4.868   2.534   3.488  0.0457 -0.1500  0.1495
  626MOL0     C84433   4.983   2.446   3.506 -0.4629 -0.1302  0.3544
  626MOL0     O84434   5.095   2.458   3.412  0.3586  0.3305 -0.8367
  626MOL0     C84435   5.112   2.564   3.314 -0.5779 -0.3206 -0.6458
  626MOL0     C84436   5.241   2.527   3.226  0.0230 -0.9579 -0.2075
  626MOL0     C84437   5.255   2.615   3.105 -0.0986  0.3542 -0.4946
  626MOL0     C84438   5.366   2.572   3.010 -0.0676  1.4670 -0.1816
  626MOL0     C84439   5.352   2.654   2.886  0.0445  0.5649 -0.9463
  626MOL0     C84440   5.322   2.729   2.798 -0.4800 -0.3106  0.5057
  626MOL0     C84441   4.974   2.346   3.602  0.6597  0.5739  0.0338
  626MOL0     C84442   4.863   2.339   3.682  0.1637 -0.0337 -0.4500
  626MOL0     H84443   4.349   2.424   3.522 -1.2158 -2.0456 -0.3610
  626MOL0     H84444   4.126   2.363   3.556 -0.0288  0.5077  0.9152
  626MOL0     H84445   3.889   2.164   3.859 -1.3360 -0.3464  2.3911
  626MOL0     H84446   4.044   2.173   3.936 -2.2054 -2.3075  0.4720
  626MOL0     H84447   3.971   2.350   4.081  2.1269 -0.6447 -0.8937
  626MOL0     H84448   3.817   2.377   3.986 -0.0820 -1.0541 -0.0568
  626MOL0     H84449   3.756   2.148   4.028 -1.6206  0.5665  0.9916
  626MOL0     H84450   3.906   2.123   4.127 -1.6625 -1.7873  1.4922
  626MOL0     H84451   3.837   2.320   4.277 -0.3331 -1.2266  1.8399
  626MOL0     H84452   3.701   2.354   4.164  0.4927 -1.6499 -2.6298
  626MOL0     H84453   3.612   2.247   4.351  1.9976  2.6575 -1.2930
  626MOL0     H84454   3.604   2.122   4.244 -0.3783  0.2214 -0.8476
  626MOL0     H84455   3.813   2.015   4.318 -2.4064 -2.1007  0.4289
  626MOL0     H84456   3.851   2.137   4.436  1.6586  0.0514 -0.3147
  626MOL0     H84457   3.656   2.068   4.564 -0.7674  2.8013 -1.7093
  626MOL0     H84458   3.571   1.992   4.426 -1.7185  1.2920  1.5283
  626MOL0     H84459   3.678   1.823   4.586 -0.9931  1.3508  0.6764
  626MOL0     H84460   3.838   1.876   4.505  0.8743  2.4341 -1.8875
  626MOL0     H84461   3.925   1.736   4.375 -1.3002  2.1862  0.6716
  626MOL0     H84462   3.922   1.475   4.247 -1.0161 -2.0878 -1.6731
  626MOL0     H84463   3.799   1.451   4.114  0.4720 -0.0402 -1.9225
  626MOL0     H84464   4.020   1.512   4.040  0.9081 -0.7883  0.7060
  626MOL0     H84465   4.015   1.666   4.126  1.9241 -0.6506 -2.5246
  626MOL0     H84466   3.826   1.753   3.992  0.5089  0.5358  0.3137
  626MOL0     H84467   3.792   1.587   3.937 -1.7461  1.1461  2.1687
  626MOL0     H84468   3.893   1.661   3.756 -0.2743  0.6352  0.4476
  626MOL0     H84469   4.028   1.594   3.830  2.0139  2.8595 -0.8670
  626MOL0     H84470   4.088   1.630   3.632 -1.1062  0.9164  1.4841
  626MOL0     H84471   4.289   1.612   3.434 -2.5464 -4.5427 -1.3629
  626MOL0     H84472   4.117   1.599   3.416  0.8745 -0.6461  2.2319
  626MOL0     H84473   4.214   1.712   3.309 -2.7872  2.0476  0.2033
  626MOL0     H84474   4.499   2.187   3.254 -0.2608 -0.9534 -2.5169
  626MOL0     H84475   4.529   2.328   3.052 -0.4488  1.9652 -0.5189
  626MOL0     H84476   4.167   2.376   2.804 -0.5548 -0.1197 -0.7850
  626MOL0     H84477   4.173   2.554   2.847  0.0338 -0.9452  3.0288
  626MOL0     H84478   4.354   2.587   2.681 -0.3062 -0.2164 -3.3672
  626MOL0     H84479   4.360   2.409   2.655 -1.0947  0.8304 -5.4627
  626MOL0     H84480   4.133   2.426   2.568  1.8633 -1.1391  4.0127
  626MOL0     H84481   4.243   2.523   2.480 -2.9779 -3.1554 -2.2777
  626MOL0     H84482   4.115   2.701   2.676 -2.3889  0.8238  1.0284
  626MOL0     H84483   4.118   2.712   2.498  1.0288 -0.5347  1.1709
  626MOL0     H84484   3.947   2.548   2.474  0.7549 -0.5918  0.5887
  626MOL0     H84485   3.887   2.692   2.563  2.7307  2.4962  0.0708
  626MOL0     H84486   3.953   2.411   2.674  1.2663  0.5882 -0.7080
  626MOL0     H84487   3.936   2.553   2.779  0.0369  0.9768 -1.2972
  626MOL0     H84488   3.710   2.601   2.692  3.8982  2.0549 -0.6864
  626MOL0     H84489   3.733   2.461   2.788  2.3489 -0.7224  0.3411
  626MOL0     H84490   3.666   2.297   2.652  1.3550  0.3596  1.8557
  626MOL0     H84491   3.758   2.366   2.523 -1.0861 -2.9068  0.6628
  626MOL0     H84492   4.095   2.349   3.012 -0.0699 -1.6374  0.5891
  626MOL0     H84493   4.073   2.203   3.194 -0.6952  0.6115 -4.4973
  626MOL0     H84494   4.180   2.118   3.596 -2.1815  0.0071  0.1789
  626MOL0     H84495   4.108   2.017   3.810  2.3460  0.1407  0.5553
  626MOL0     H84496   4.194   2.348   3.980  1.0337 -0.8592 -0.4229
  626MOL0     H84497   4.413   2.438   3.948  1.0797  0.8774 -0.3227
  626MOL0     H84498   4.690   2.604   3.576 -2.5925 -0.8864  1.3629
  626MOL0     H84499   4.861   2.622   3.425  0.9101 -1.6808 -2.2230
  626MOL0     H84500   5.029   2.592   3.249  2.2959  1.5149 -3.8384
  626MOL0     H84501   5.126   2.654   3.374  3.5086 -2.2237  1.7199
  626MOL0     H84502   5.229   2.425   3.187 -0.5850 -0.0828 -2.4762
  626MOL0     H84503   5.334   2.534   3.284  0.2626  0.6162 -0.7330
  626MOL0     H84504   5.279   2.720   3.129 -1.4128  0.7587 -0.8712
  626MOL0     H84505   5.155   2.616   3.061 -1.2089  0.8014  1.8498
  626MOL0     H84506   5.378   2.464   2.997  2.0925  1.4194  1.6648
  626MOL0     H84507   5.459   2.592   3.065  0.1327 -0.1847  0.1306
  626MOL0     H84508   5.309   2.798   2.717 -0.9982 -4.7553 -3.6937
  626MOL0     H84509   5.066   2.290   3.599 -1.2731 -2.9220  0.6352
  626MOL0     H84510   4.876   2.270   3.765  2.9664  2.7478  1.6618
  627MOL0     O84511   6.956   0.970   0.485  0.0128 -0.4651  0.0375
  627MOL0     C84512   7.012   0.900   0.399  0.3268 -0.2021 -0.0201
  627MOL0     O84513   7.061   0.775   0.424 -0.4997 -0.1491  0.0379
  627MOL0     C84514   7.031   0.707   0.543  0.6916  0.4601  0.7271
  627MOL0     C84515   7.137   0.668   0.627  0.0711  0.3360 -0.4256
  627MOL0     C84516   7.112   0.613   0.756  0.5184  0.8723 -0.1075
  627MOL0     C84517   6.979   0.586   0.797 -0.0107  0.1303 -1.0597
  627MOL0     O84518   6.951   0.550   0.929 -0.5119 -1.0640 -0.1515
  627MOL0     C84519   6.822   0.508   0.981 -0.5181  0.3505  0.6963
  627MOL0     C84520   6.812   0.461   1.126 -0.2093 -0.1794  0.5996
  627MOL0     C84521   6.672   0.433   1.164 -0.0700 -0.0376  0.4229
  627MOL0     C84522   6.652   0.434   1.313  0.1801  0.2445  0.3455
  627MOL0     C84523   6.505   0.413   1.349 -0.5072 -1.1328 -0.0253
  627MOL0     C84524   6.410   0.496   1.267 -0.4471 -0.4973  0.3708
  627MOL0     C84525   6.425   0.654   1.287  0.5702 -0.8828 -0.4000
  627MOL0     C84526   6.356   0.727   1.169  0.0147  0.2492  0.4130
  627MOL0     N84527   6.448   0.741   1.061 -0.6955 -0.3803  0.3014
  627MOL0     C84528   6.556   0.822   1.058 -0.2035  0.0503 -0.3480
  627MOL0     C84529   6.627   0.803   0.940  0.4553 -0.8287 -1.3219
  627MOL0     C84530   6.755   0.870   0.906 -0.0826  0.2082 -0.8475
  627MOL0     C84531   6.729   0.954   0.787  0.7911  0.8723  0.5634
  627MOL0     C84532   6.647   1.089   0.807  0.0759  0.0433 -0.6266
  627MOL0     C84533   6.604   1.145   0.668 -0.0368 -0.6686 -0.3141
  627MOL0     O84534   6.501   1.063   0.626  0.1385  0.3385 -0.4917
  627MOL0     C84535   6.377   1.112   0.640 -0.7493 -0.2957 -0.9767
  627MOL0     C84536   6.322   1.204   0.553  1.1110 -0.0571  0.1229
  627MOL0     C84537   6.195   1.265   0.565  0.3840 -0.0156  0.5292
  627MOL0     C84538   6.152   1.367   0.456 -0.8963 -0.6373 -0.6831
  627MOL0     C84539   6.120   1.224   0.671  0.3803 -1.4358  0.1218
  627MOL0     C84540   5.981   1.283   0.706  0.3413 -0.3123  0.8021
  627MOL0     O84541   5.934   1.392   0.625  0.9110  0.0113 -0.7222
  627MOL0     C84542   5.813   1.438   0.656 -0.2933  0.6764  0.2037
  627MOL0     C84543   5.714   1.426   0.559  0.5445 -0.0076  0.2440
  627MOL0     C84544   5.581   1.468   0.589  0.2733  0.3475 -0.2043
  627MOL0     C84545   5.553   1.538   0.704  0.9923  0.2900 -0.3363
  627MOL0     O84546   5.434   1.587   0.742 -0.1526  0.3145 -0.2757
  627MOL0     C84547   5.348   1.501   0.817  0.7487  0.2623 -0.2729
  627MOL0     C84548   5.265   1.591   0.903  0.6223 -0.0779 -1.2513
  627MOL0     C84549   5.349   1.677   0.999  0.0278 -0.6448  0.4264
  627MOL0     C84550   5.272   1.792   1.067  0.0390  0.8633 -1.3110
  627MOL0     C84551   5.216   1.896   0.965 -0.0913  0.4491 -0.7604
  627MOL0     C84552   5.156   2.020   1.050  0.8303  0.1129  0.5969
  627MOL0     C84553   5.019   2.018   1.127 -0.1565 -0.5051  0.4469
  627MOL0     C84554   4.940   2.148   1.133 -0.6096 -0.3059 -0.0935
  627MOL0    Cl84555   5.031   2.280   1.185  0.0251 -0.7914  0.0608
  627MOL0     C84556   5.654   1.541   0.805 -0.3222  1.0895  1.6062
  627MOL0     C84557   5.783   1.499   0.782 -0.1011  0.2270 -0.0683
  627MOL0     O84558   5.923   1.237   0.812 -0.5371 -0.3554  0.8154
  627MOL0     C84559   6.163   1.116   0.764 -0.2935 -0.1591 -0.1590
  627MOL0     C84560   6.291   1.067   0.746  0.3050  1.0345  0.4552
  627MOL0     N84561   6.550   0.714   0.871 -0.6607 -0.2609  0.3977
  627MOL0     N84562   6.458   0.668   0.947 -0.1540  0.1902 -0.1063
  627MOL0     C84563   6.870   0.627   0.709 -1.1920  1.7786 -0.1633
  627MOL0     C84564   6.899   0.680   0.588 -0.2153  0.5878  0.6059
  627MOL0     C84565   7.070   0.961   0.282  0.2142 -1.2075  0.4280
  627MOL0     C84566   7.045   1.101   0.251 -0.0849 -0.1411  0.8105
  627MOL0     C84567   7.103   1.161   0.137 -0.2109  0.0589  0.5645
  627MOL0     C84568   7.187   1.083   0.053 -0.1917 -0.6324  0.3950
  627MOL0     O84569   7.260   1.144  -0.046 -0.6268  0.3494  0.4152
  627MOL0     C84570   7.263   1.292  -0.079  0.1224  0.1913  0.0558
  627MOL0     C84571   7.383   1.319  -0.173  0.8478  0.7054  0.3111
  627MOL0     C84572   7.335   1.293  -0.318 -0.1189  0.0328  0.7287
  627MOL0     C84573   7.451   1.337  -0.410  0.2659 -0.0348  0.1948
  627MOL0     C84574   7.544   1.226  -0.415  0.0978 -0.5910  0.4477
  627MOL0     C84575   7.615   1.132  -0.437  1.1100 -0.1927  0.2326
  627MOL0     C84576   7.221   0.949   0.082  1.0354 -0.0248  0.6165
  627MOL0     C84577   7.161   0.893   0.197  0.6040  0.5384 -0.1876
  627MOL0     H84578   7.238   0.687   0.593  1.1850 -1.0252  1.8768
  627MOL0     H84579   7.184   0.584   0.832 -0.2162 -1.3601 -0.1893
  627MOL0     H84580   6.760   0.596   0.964  0.5893  0.9846 -0.1572
  627MOL0     H84581   6.778   0.432   0.916  2.9535 -0.8557 -0.4741
  627MOL0     H84582   6.868   0.367   1.126  0.4210  0.0522 -3.3191
  627MOL0     H84583   6.861   0.527   1.198 -0.4622  0.0985  0.5185
  627MOL0     H84584   6.606   0.493   1.101  1.0921  0.2752 -0.5507
  627MOL0     H84585   6.645   0.331   1.133 -0.3754 -0.1064  0.9169
  627MOL0     H84586   6.711   0.354   1.361  0.9087 -0.5953 -1.8354
  627MOL0     H84587   6.682   0.530   1.356 -1.7289  0.6918  0.7515
  627MOL0     H84588   6.468   0.310   1.349 -3.0321 -0.2905  0.1121
  627MOL0     H84589   6.502   0.441   1.455  3.1936 -1.4031  0.2812
  627MOL0     H84590   6.417   0.469   1.161  3.8391  0.7045  0.1581
  627MOL0     H84591   6.305   0.477   1.294 -0.6149  0.3215  0.3148
  627MOL0     H84592   6.389   0.690   1.384  0.1306 -0.0002 -0.8866
  627MOL0     H84593   6.526   0.689   1.266 -0.7520  1.6059 -3.5167
  627MOL0     H84594   6.307   0.819   1.202 -2.1201  0.1475 -2.1538
  627MOL0     H84595   6.281   0.662   1.123  1.1730  0.0096 -1.2399
  627MOL0     H84596   6.584   0.896   1.133 -2.2846  2.1499 -1.5185
  627MOL0     H84597   6.809   0.916   0.989  2.9591 -1.4293 -1.7826
  627MOL0     H84598   6.828   0.796   0.873  1.5560  1.3297  0.1520
  627MOL0     H84599   6.685   0.889   0.710  2.1628  0.0290  0.4551
  627MOL0     H84600   6.829   0.979   0.750  1.7331  0.7667  2.9189
  627MOL0     H84601   6.731   1.142   0.851  1.2582 -4.7625  3.9599
  627MOL0     H84602   6.564   1.072   0.877  1.2639 -0.7264  0.6474
  627MOL0     H84603   6.689   1.124   0.603 -0.7206  1.9814 -2.2205
  627MOL0     H84604   6.579   1.251   0.671 -3.5262 -1.3926  1.8035
  627MOL0     H84605   6.389   1.236   0.474 -0.0933 -2.5094 -2.0314
  627MOL0     H84606   6.230   1.395   0.384 -0.9432  1.1413 -0.0813
  627MOL0     H84607   6.075   1.319   0.395 -1.9006 -0.6427  0.5616
  627MOL0     H84608   6.124   1.457   0.510 -1.8582  0.5740 -3.0666
  627MOL0     H84609   5.718   1.366   0.469 -1.0869  2.4925 -1.6559
  627MOL0     H84610   5.502   1.447   0.518  0.6323 -3.3374  0.2732
  627MOL0     H84611   5.289   1.428   0.760 -1.3346 -0.3764  2.4889
  627MOL0     H84612   5.402   1.442   0.891  0.3394 -0.8929 -0.8786
  627MOL0     H84613   5.207   1.660   0.841 -2.2338 -0.8505  0.3518
  627MOL0     H84614   5.197   1.530   0.964  0.3648  0.1750 -1.2816
  627MOL0     H84615   5.437   1.718   0.950 -0.0978 -0.6034  0.2346
  627MOL0     H84616   5.385   1.610   1.077 -1.9507 -0.5583  1.4713
  627MOL0     H84617   5.184   1.743   1.108 -0.1923  2.1106 -0.2715
  627MOL0     H84618   5.343   1.844   1.132 -2.4530  2.5788  0.1617
  627MOL0     H84619   5.129   1.866   0.906 -0.2527  1.7612 -1.2212
  627MOL0     H84620   5.282   1.930   0.885 -1.2705 -0.6989 -2.2780
  627MOL0     H84621   5.231   2.056   1.120  2.1973 -0.6168 -0.4431
  627MOL0     H84622   5.133   2.097   0.976 -2.4975  0.6263  2.0139
  627MOL0     H84623   5.061   2.005   1.227  0.2786  0.0923  0.3513
  627MOL0     H84624   4.957   1.935   1.092 -1.7802  0.9280 -0.2078
  627MOL0     H84625   4.844   2.143   1.185 -0.6964  1.3117 -0.0514
  627MOL0     H84626   4.911   2.168   1.030 -1.8416  0.3071  0.3597
  627MOL0     H84627   5.622   1.581   0.900 -0.7992 -2.2279  2.9836
  627MOL0     H84628   5.866   1.504   0.852 -0.3293 -0.0550  0.2285
  627MOL0     H84629   6.110   1.095   0.857  1.2982  2.9865  1.6542
  627MOL0     H84630   6.323   0.998   0.822 -2.6948  0.7161  1.5686
  627MOL0     H84631   6.763   0.624   0.728 -1.8690 -2.5538 -3.1340
  627MOL0     H84632   6.811   0.709   0.531  1.0585  2.3281 -0.5917
  627MOL0     H84633   6.977   1.159   0.312  0.4466  0.6219  0.6937
  627MOL0     H84634   7.080   1.265   0.113  1.8001  0.4230  0.0619
  627MOL0     H84635   7.172   1.319  -0.133 -1.0011 -2.2926  0.5537
  627MOL0     H84636   7.266   1.353   0.012  3.5507 -0.0372  0.2239
  627MOL0     H84637   7.468   1.255  -0.148 -0.4230 -1.9934 -1.8361
  627MOL0     H84638   7.405   1.425  -0.157 -0.0527  1.1306 -1.0948
  627MOL0     H84639   7.252   1.357  -0.352  1.5931  0.8357 -2.3311
  627MOL0     H84640   7.307   1.189  -0.337 -2.9136  1.2159 -3.0931
  627MOL0     H84641   7.496   1.426  -0.366 -0.6218  2.0467 -2.8272
  627MOL0     H84642   7.411   1.353  -0.510 -1.6715  0.5502  1.0216
  627MOL0     H84643   7.678   1.051  -0.467  0.3761 -1.2562  1.4523
  627MOL0     H84644   7.279   0.880   0.022 -0.8560 -3.4586  2.3879
  627MOL0     H84645   7.181   0.788   0.212  1.3612  0.5625 -0.9126
  628MOL0     O84646   8.818   7.693   3.231  0.4555  0.3691 -0.4784
  628MOL0     C84647   8.808   7.799   3.292  0.3339  0.1111  0.4142
  628MOL0     O84648   8.701   7.889   3.294  0.2747 -0.1628 -0.4962
  628MOL0     C84649   8.577   7.882   3.224 -0.5578  1.0192 -0.7253
  628MOL0     C84650   8.538   7.777   3.138 -0.4001  0.6427 -0.3659
  628MOL0     C84651   8.410   7.773   3.073 -0.6183 -0.8563 -0.6544
  628MOL0     C84652   8.325   7.872   3.109 -0.4722  0.4351  0.4335
  628MOL0     O84653   8.209   7.869   3.047  0.5014  0.3769 -0.6233
  628MOL0     C84654   8.133   7.756   3.082  0.8536 -0.4213  0.7176
  628MOL0     C84655   7.979   7.796   3.101 -1.0730 -0.0657  2.1782
  628MOL0     C84656   7.914   7.841   2.965  0.2310  0.5739  0.6322
  628MOL0     C84657   7.759   7.855   2.999 -0.9142 -0.3664  0.4726
  628MOL0     C84658   7.661   7.906   2.887  0.0476 -0.5549  0.1142
  628MOL0     C84659   7.635   7.811   2.764  0.9937  0.2127 -1.1983
  628MOL0     C84660   7.510   7.869   2.680  0.5126  0.8562  0.2826
  628MOL0     C84661   7.499   7.795   2.551  0.5778  0.0766 -0.2591
  628MOL0     N84662   7.415   7.868   2.453 -0.0599  1.0025 -0.1012
  628MOL0     C84663   7.332   7.804   2.361  0.3533  0.3619 -0.6320
  628MOL0     C84664   7.257   7.906   2.310  0.0519 -0.2448 -0.2492
  628MOL0     C84665   7.144   7.904   2.208 -0.4765  0.4439  0.7320
  628MOL0     C84666   7.178   7.986   2.086 -0.0945 -1.3488 -0.2179
  628MOL0     C84667   7.230   7.914   1.972 -0.4116  0.5730  0.0435
  628MOL0     C84668   7.333   7.797   2.005  0.2063 -1.2405  1.0243
  628MOL0     O84669   7.266   7.690   2.055 -0.9529  0.0104 -0.4296
  628MOL0     C84670   7.230   7.580   1.985 -0.5397 -0.5453 -0.4873
  628MOL0     C84671   7.175   7.477   2.058  0.9319  0.6002 -0.2010
  628MOL0     C84672   7.145   7.345   2.001 -0.4670 -0.2499 -0.5909
  628MOL0     C84673   7.085   7.239   2.090 -1.2241  0.6981  0.3307
  628MOL0     C84674   7.155   7.340   1.862  0.3872 -0.1481  0.0066
  628MOL0     C84675   7.110   7.220   1.784  0.7426 -0.0604 -0.3765
  628MOL0     O84676   7.193   7.195   1.676  0.2012  0.1765  0.6574
  628MOL0     C84677   7.172   7.083   1.593  1.4778  0.5624 -0.4137
  628MOL0     C84678   7.227   6.954   1.623 -0.6769  0.2048  0.3047
  628MOL0     C84679   7.194   6.838   1.542  0.2362 -0.0969 -0.0734
  628MOL0     C84680   7.111   6.855   1.429  0.3346  0.7603  0.3852
  628MOL0     O84681   7.052   6.762   1.346 -0.5874  1.1659  0.2213
  628MOL0     C84682   6.995   6.647   1.401 -0.9190  0.3387 -0.3241
  628MOL0     C84683   6.866   6.690   1.484  0.0364 -0.0467 -0.3387
  628MOL0     C84684   6.755   6.724   1.381 -0.3883  0.3966  0.1335
  628MOL0     C84685   6.623   6.740   1.443 -0.4621  0.1373 -0.0340
  628MOL0     C84686   6.595   6.874   1.517  0.7042  0.0091 -0.7387
  628MOL0     C84687   6.474   6.875   1.613  0.2410 -0.3701 -0.7795
  628MOL0     C84688   6.355   6.781   1.581  0.8359  0.0019  0.6184
  628MOL0     C84689   6.235   6.808   1.651  1.0813 -0.2734 -0.6001
  628MOL0    Cl84690   6.134   6.663   1.636  0.0662 -0.0317  0.1165
  628MOL0     C84691   7.061   6.976   1.396 -0.3857  0.3965 -0.5310
  628MOL0     C84692   7.088   7.090   1.474 -0.2383  0.6706 -1.3542
  628MOL0     O84693   7.017   7.140   1.825  0.2963 -0.7158 -0.6248
  628MOL0     C84694   7.220   7.440   1.792 -1.0695  0.2519 -0.2570
  628MOL0     C84695   7.264   7.564   1.845  0.1919 -0.0746 -0.7462
  628MOL0     N84696   7.295   8.023   2.369 -0.0346  0.0418 -0.0000
  628MOL0     N84697   7.386   8.005   2.458  0.5339  0.0216  0.1840
  628MOL0     C84698   8.358   7.986   3.184  0.2850 -0.1782 -0.3070
  628MOL0     C84699   8.485   7.987   3.243 -0.8983  0.1587  0.2295
  628MOL0     C84700   8.925   7.850   3.362 -1.0581 -0.4033 -0.0398
  628MOL0     C84701   9.052   7.792   3.347  1.2460  0.8925  0.9204
  628MOL0     C84702   9.165   7.836   3.402 -0.9518 -0.7600  0.5727
  628MOL0     C84703   9.166   7.954   3.482  0.1253 -0.4791 -0.5221
  628MOL0     O84704   9.276   7.990   3.553 -0.1267  0.6332  0.5864
  628MOL0     C84705   9.363   8.082   3.492  0.3857 -0.0328  0.3727
  628MOL0     C84706   9.502   8.015   3.470 -0.1863 -0.4159 -0.3241
  628MOL0     C84707   9.540   7.945   3.604 -0.3639 -0.0913  0.1570
  628MOL0     C84708   9.682   7.892   3.612  0.5395  0.3573 -0.9066
  628MOL0     C84709   9.786   7.995   3.616  0.0505 -0.5221 -0.4695
  628MOL0     C84710   9.863   8.090   3.603  0.3795  0.6184  0.5637
  628MOL0     C84711   9.039   8.016   3.508 -1.5157 -0.0988  0.4777
  628MOL0     C84712   8.916   7.968   3.454  1.3004 -0.9419  0.3358
  628MOL0     H84713   8.599   7.687   3.134 -2.3129 -0.6639 -1.5018
  628MOL0     H84714   8.371   7.693   3.011  0.0314  0.0365 -2.3027
  628MOL0     H84715   8.139   7.676   3.007 -2.5115  0.5166 -0.7081
  628MOL0     H84716   8.155   7.719   3.183  1.5051 -3.8815 -0.5295
  628MOL0     H84717   7.928   7.716   3.156 -0.2486 -0.8788  1.8005
  628MOL0     H84718   7.995   7.881   3.168 -1.1908  0.9675  0.9366
  628MOL0     H84719   7.947   7.943   2.940 -2.1320  1.3282  0.3353
  628MOL0     H84720   7.931   7.775   2.880 -0.8117 -0.7282  1.4082
  628MOL0     H84721   7.729   7.755   3.031 -5.2445 -0.2743 -2.4476
  628MOL0     H84722   7.739   7.929   3.078  1.1300  0.4289  0.3198
  628MOL0     H84723   7.567   7.935   2.934  0.0374 -2.7778  1.6134
  628MOL0     H84724   7.710   7.996   2.848 -1.1396  0.6972  1.4203
  628MOL0     H84725   7.717   7.791   2.696  0.6255  0.0016 -1.5855
  628MOL0     H84726   7.609   7.715   2.810  0.7358  0.8063 -0.0440
  628MOL0     H84727   7.414   7.872   2.732  0.0753  1.0527 -0.5191
  628MOL0     H84728   7.548   7.970   2.662 -3.6604  2.5589 -0.1736
  628MOL0     H84729   7.445   7.704   2.576  1.9969 -0.5046  0.8430
  628MOL0     H84730   7.594   7.770   2.502 -1.0608 -1.8861 -2.6638
  628MOL0     H84731   7.328   7.698   2.340  0.7711  0.1781  0.1553
  628MOL0     H84732   7.117   7.802   2.181  0.0038  0.1817  1.2189
  628MOL0     H84733   7.052   7.948   2.248 -1.8240 -1.1157 -0.5314
  628MOL0     H84734   7.242   8.070   2.118 -1.0503 -0.3569 -0.8405
  628MOL0     H84735   7.079   8.016   2.052  0.8465  0.5720 -1.4520
  628MOL0     H84736   7.272   7.986   1.901  2.7005 -1.8548 -0.8363
  628MOL0     H84737   7.157   7.859   1.913  0.0933 -3.2197  2.5842
  628MOL0     H84738   7.402   7.840   2.078 -0.6849 -3.9439  3.6315
  628MOL0     H84739   7.390   7.772   1.915 -0.8419  0.3817 -0.1575
  628MOL0     H84740   7.164   7.472   2.166 -1.9061 -4.0944 -0.4461
  628MOL0     H84741   6.977   7.235   2.077 -1.6389  1.9925  2.7800
  628MOL0     H84742   7.123   7.140   2.062  0.9978  1.6950 -0.3896
  628MOL0     H84743   7.111   7.248   2.196  2.9301  0.6645 -0.4799
  628MOL0     H84744   7.279   6.942   1.718 -1.1787 -0.7903  0.4609
  628MOL0     H84745   7.230   6.738   1.563  0.3484 -0.1064 -0.3081
  628MOL0     H84746   6.961   6.596   1.311  0.7955  2.7309 -2.4758
  628MOL0     H84747   7.068   6.588   1.457  1.1174  3.3116  0.4032
  628MOL0     H84748   6.840   6.612   1.557  2.8210  1.7258  2.8184
  628MOL0     H84749   6.887   6.774   1.551  1.1619  0.3027 -1.1098
  628MOL0     H84750   6.750   6.641   1.311 -3.4486 -2.8512  3.7735
  628MOL0     H84751   6.785   6.809   1.318 -0.1828  1.0071  1.0288
  628MOL0     H84752   6.551   6.719   1.363  1.4383  0.9693 -2.0402
  628MOL0     H84753   6.612   6.661   1.518 -4.2362 -0.8115 -1.3313
  628MOL0     H84754   6.586   6.950   1.439  2.3242  2.5623  1.3874
  628MOL0     H84755   6.682   6.900   1.578  1.1945 -0.3686 -1.2640
  628MOL0     H84756   6.498   6.840   1.714  0.2059 -0.6223 -0.8577
  628MOL0     H84757   6.441   6.978   1.628 -0.3568 -0.5986 -0.4648
  628MOL0     H84758   6.384   6.680   1.612 -1.7158 -1.4128 -1.1453
  628MOL0     H84759   6.328   6.763   1.476 -3.6308 -0.7568  1.6660
  628MOL0     H84760   6.188   6.902   1.620  1.2725 -0.4778 -1.5375
  628MOL0     H84761   6.278   6.824   1.750  0.9398 -0.7310 -0.4602
  628MOL0     H84762   6.987   6.973   1.316  2.0479  2.0796 -3.0344
  628MOL0     H84763   7.028   7.177   1.451 -4.4241 -1.4027  0.7168
  628MOL0     H84764   7.226   7.435   1.684 -1.8589  2.3518 -0.4383
  628MOL0     H84765   7.313   7.635   1.780  2.0057 -0.0340  0.5943
  628MOL0     H84766   8.272   8.051   3.190 -0.4061 -1.0582 -0.5319
  628MOL0     H84767   8.522   8.067   3.306  1.7217 -1.9028  1.5054
  628MOL0     H84768   9.041   7.712   3.275 -2.2325  2.0699 -0.0711
  628MOL0     H84769   9.260   7.787   3.388 -1.9504 -3.6016  2.7391
  628MOL0     H84770   9.321   8.127   3.401 -2.8552 -3.3033  0.0451
  628MOL0     H84771   9.385   8.158   3.567  2.3740 -1.7548  1.6298
  628MOL0     H84772   9.576   8.095   3.456 -0.7611  0.4780  1.4982
  628MOL0     H84773   9.496   7.949   3.383 -2.3543 -1.6262  0.6664
  628MOL0     H84774   9.478   7.855   3.604 -1.2944  0.5250 -0.5591
  628MOL0     H84775   9.523   8.006   3.693  1.2251 -3.5216  3.0719
  628MOL0     H84776   9.702   7.819   3.533 -0.6256 -0.6782 -0.2829
  628MOL0     H84777   9.707   7.833   3.701 -3.1200  0.4537  0.3882
  628MOL0     H84778   9.937   8.167   3.592  2.0100 -1.0470 -0.9387
  628MOL0     H84779   9.017   8.098   3.574  0.0818 -0.8908  2.0727
  628MOL0     H84780   8.832   8.034   3.467  1.5338 -0.4569 -0.5398
  629MOL0     O84781   2.618   5.640  10.502  0.7732  0.3226 -0.7062
  629MOL0     C84782   2.640   5.762  10.510  0.6569 -0.4825  0.7870
  629MOL0     O84783   2.759   5.827  10.556  0.1999  0.1615  0.0706
  629MOL0     C84784   2.855   5.743  10.610  0.7398  0.3404  0.1032
  629MOL0     C84785   2.915   5.765  10.730  0.9495 -0.0069  0.3714
  629MOL0     C84786   3.038   5.701  10.749 -1.4385 -0.2247 -0.0093
  629MOL0     C84787   3.084   5.596  10.674 -0.1378 -2.4997 -0.2963
  629MOL0     O84788   3.196   5.525  10.710  0.4473  0.8670 -0.1748
  629MOL0     C84789   3.255   5.528  10.845 -0.6134 -0.3462 -0.1012
  629MOL0     C84790   3.406   5.492  10.823 -0.1593  0.2500 -0.4381
  629MOL0     C84791   3.433   5.346  10.778  0.3626  0.1699  0.4724
  629MOL0     C84792   3.564   5.282  10.835  0.0685 -0.2740 -0.0740
  629MOL0     C84793   3.613   5.156  10.765 -0.5691 -0.3030  0.4135
  629MOL0     C84794   3.516   5.035  10.780  0.2013  0.0170  0.1398
  629MOL0     C84795   3.573   4.919  10.696  0.2249 -0.5598 -0.2016
  629MOL0     C84796   3.556   4.795  10.779 -0.1008 -1.3769 -0.2304
  629MOL0     N84797   3.512   4.678  10.706  0.1454 -0.2912  0.4384
  629MOL0     C84798   3.589   4.604  10.619  0.0466  0.1099 -0.0131
  629MOL0     C84799   3.503   4.538  10.530 -0.9031  0.4640 -0.6532
  629MOL0     C84800   3.554   4.419  10.449 -0.8172  0.4723 -0.6752
  629MOL0     C84801   3.440   4.323  10.430  0.3058 -0.2919 -0.1971
  629MOL0     C84802   3.371   4.257  10.559 -0.6634 -0.1819 -0.2944
  629MOL0     C84803   3.264   4.166  10.501 -0.7079 -0.4962  0.5856
  629MOL0     O84804   3.155   4.112  10.568 -0.2207  0.3967  0.3066
  629MOL0     C84805   3.186   4.055  10.688  0.1468  0.0623 -0.2672
  629MOL0     C84806   3.154   4.121  10.799  0.6717 -0.2535 -1.5361
  629MOL0     C84807   3.216   4.075  10.923  0.6988  0.8911  0.7889
  629MOL0     C84808   3.187   4.145  11.053  0.3307  0.4331 -0.2523
  629MOL0     C84809   3.314   3.963  10.921  0.7313 -0.1008 -0.6381
  629MOL0     C84810   3.391   3.914  11.043  0.0063 -1.5766  0.3406
  629MOL0     O84811   3.496   3.838  11.004  0.6065 -0.4466 -0.1810
  629MOL0     C84812   3.578   3.800  11.101 -0.5717  0.1555 -0.9372
  629MOL0     C84813   3.711   3.788  11.073 -0.5067 -1.0962  0.9130
  629MOL0     C84814   3.812   3.733  11.156 -0.8181 -0.2419  1.2496
  629MOL0     C84815   3.770   3.674  11.271 -0.2503  0.1163 -0.4758
  629MOL0     O84816   3.854   3.615  11.366 -0.4326  0.4781  0.5535
  629MOL0     C84817   4.000   3.622  11.324  0.1249  0.0243 -0.8707
  629MOL0     C84818   4.081   3.535  11.418 -1.3558  1.0549 -0.6593
  629MOL0     C84819   4.225   3.524  11.359  0.0088  0.5136 -0.6506
  629MOL0     C84820   4.317   3.442  11.457  0.0921  0.3878  1.1791
  629MOL0     C84821   4.464   3.451  11.411  0.4895 -0.0934  0.2124
  629MOL0     C84822   4.562   3.358  11.477 -0.0606 -1.1446 -1.3416
  629MOL0     C84823   4.706   3.366  11.431  0.0762  0.5422  1.0769
  629MOL0     C84824   4.774   3.489  11.499  0.2572 -0.7097  0.0633
  629MOL0    Cl84825   4.828   3.439  11.664 -0.5114 -0.5694  0.3041
  629MOL0     C84826   3.628   3.686  11.305  0.3100 -0.6079  0.5623
  629MOL0     C84827   3.533   3.744  11.223 -1.7116  0.0849  0.8218
  629MOL0     O84828   3.368   3.959  11.154  0.3589 -0.6369 -1.1083
  629MOL0     C84829   3.327   3.890  10.809 -0.3900  0.0849  0.3502
  629MOL0     C84830   3.262   3.938  10.696 -0.1832 -1.6022 -0.0711
  629MOL0     N84831   3.372   4.572  10.574 -0.3267 -0.6514  0.2492
  629MOL0     N84832   3.380   4.652  10.677 -0.4312 -0.5518 -0.2828
  629MOL0     C84833   3.001   5.561  10.565  0.0746 -0.3602 -0.4589
  629MOL0     C84834   2.897   5.640  10.529  0.5637 -0.2048 -0.3515
  629MOL0     C84835   2.531   5.852  10.475 -0.0563  0.1666 -0.0074
  629MOL0     C84836   2.426   5.805  10.393  0.2580  0.0759  0.0519
  629MOL0     C84837   2.319   5.896  10.365 -0.1983  0.8858 -0.2602
  629MOL0     C84838   2.318   6.026  10.413  0.7592 -0.5242 -0.1885
  629MOL0     O84839   2.216   6.118  10.393  0.2548  0.0353 -0.8699
  629MOL0     C84840   2.107   6.083  10.310  0.3590  0.9643 -0.4586
  629MOL0     C84841   2.037   6.218  10.264 -0.5142 -0.6240  0.8179
  629MOL0     C84842   1.955   6.285  10.369 -0.2759  0.7662 -0.4465
  629MOL0     C84843   1.893   6.415  10.313 -0.4234  0.2247  0.1661
  629MOL0     C84844   1.789   6.396  10.212 -0.3808 -0.6241  0.5546
  629MOL0     C84845   1.719   6.391  10.113  0.0664 -0.6175 -0.4798
  629MOL0     C84846   2.416   6.063  10.499 -0.6814  0.2907 -0.5395
  629MOL0     C84847   2.520   5.977  10.540  0.8775  0.2826  0.2262
  629MOL0     H84848   2.874   5.847  10.789  1.8505  2.1743 -1.8531
  629MOL0     H84849   3.089   5.735  10.838 -2.4581 -1.0165  0.9128
  629MOL0     H84850   3.261   5.629  10.885  0.9498  0.1494 -1.5065
  629MOL0     H84851   3.201   5.459  10.911 -1.5537  1.1615  0.7648
  629MOL0     H84852   3.450   5.563  10.752  0.7853  0.5578  0.4308
  629MOL0     H84853   3.456   5.518  10.917 -1.0209 -1.7455  0.6150
  629MOL0     H84854   3.357   5.275  10.811  0.8957 -0.0306  1.2925
  629MOL0     H84855   3.435   5.347  10.668  1.1524  0.1199  0.4819
  629MOL0     H84856   3.640   5.360  10.846  0.2625 -0.0213 -2.6261
  629MOL0     H84857   3.540   5.246  10.935 -1.0630 -0.1422 -0.2806
  629MOL0     H84858   3.606   5.192  10.662 -0.3642 -1.8227 -0.1662
  629MOL0     H84859   3.717   5.124  10.778  0.2126  0.1366 -3.5086
  629MOL0     H84860   3.508   5.015  10.888 -0.3863 -0.1536  0.0702
  629MOL0     H84861   3.414   5.060  10.751 -0.1838 -2.0397 -0.4679
  629MOL0     H84862   3.510   4.921  10.606  3.1426 -0.7340 -2.4010
  629MOL0     H84863   3.671   4.923  10.647  0.0507 -0.0881 -0.5213
  629MOL0     H84864   3.487   4.816  10.862  0.3530 -2.4140  0.4352
  629MOL0     H84865   3.654   4.779  10.824  0.5172  2.4896  0.1250
  629MOL0     H84866   3.697   4.598  10.624 -0.0453 -0.4566  2.3730
  629MOL0     H84867   3.579   4.452  10.347 -0.5304  0.2785 -0.6664
  629MOL0     H84868   3.645   4.383  10.497 -3.6085 -2.9265  2.6267
  629MOL0     H84869   3.470   4.239  10.366  1.4947  1.4800 -2.0678
  629MOL0     H84870   3.369   4.375  10.365  0.3896 -0.2491 -0.2536
  629MOL0     H84871   3.335   4.342  10.617  1.5005  1.8799 -1.7794
  629MOL0     H84872   3.439   4.205  10.627 -0.3727  0.0042 -0.4422
  629MOL0     H84873   3.311   4.077  10.458  2.3474 -0.4751  3.4220
  629MOL0     H84874   3.222   4.225  10.420 -0.9335  1.5482  2.1112
  629MOL0     H84875   3.095   4.210  10.814  2.3118  0.5272  1.0297
  629MOL0     H84876   3.275   4.204  11.083  0.8273  0.4948 -1.7257
  629MOL0     H84877   3.094   4.200  11.038 -1.9276 -2.8233  0.7714
  629MOL0     H84878   3.169   4.071  11.131 -2.6535  0.6669 -0.6299
  629MOL0     H84879   3.728   3.830  10.974  2.9644 -0.3059  1.6745
  629MOL0     H84880   3.918   3.744  11.132 -1.0223 -1.0538 -0.0958
  629MOL0     H84881   4.010   3.582  11.222 -1.6337 -0.0480 -1.0451
  629MOL0     H84882   4.039   3.724  11.328  1.0766 -0.3916  1.8994
  629MOL0     H84883   4.074   3.588  11.513 -3.5051 -0.6449  0.1983
  629MOL0     H84884   4.031   3.440  11.432 -0.6640  1.0386  2.3680
  629MOL0     H84885   4.269   3.622  11.339  3.2783 -0.1518  2.3431
  629MOL0     H84886   4.222   3.469  11.264  1.0016  3.2207 -2.3648
  629MOL0     H84887   4.311   3.488  11.557  1.4602  1.0540  0.9785
  629MOL0     H84888   4.274   3.341  11.462 -2.0066  0.9979 -1.8141
  629MOL0     H84889   4.497   3.555  11.419 -0.9664  0.5120 -0.9313
  629MOL0     H84890   4.475   3.440  11.302 -0.9927  0.1789  0.0043
  629MOL0     H84891   4.551   3.369  11.585 -0.1690 -1.6182 -1.3055
  629MOL0     H84892   4.532   3.256  11.452 -1.0744 -0.9927 -0.7953
  629MOL0     H84893   4.710   3.361  11.321 -2.1603 -2.4648  0.9762
  629MOL0     H84894   4.762   3.283  11.474  0.8591  1.2195  1.3798
  629MOL0     H84895   4.708   3.576  11.515  2.2374  0.8193  0.2471
  629MOL0     H84896   4.863   3.514  11.441  1.8419 -1.3276  2.1459
  629MOL0     H84897   3.598   3.650  11.403 -0.5242 -2.4702 -0.3179
  629MOL0     H84898   3.429   3.735  11.254 -1.4658 -1.1562  1.3600
  629MOL0     H84899   3.403   3.818  10.782  2.2714  1.8901  2.4821
  629MOL0     H84900   3.273   3.900  10.595  0.8663 -0.4159 -0.4273
  629MOL0     H84901   3.031   5.473  10.511 -1.3439 -1.7035  0.8280
  629MOL0     H84902   2.856   5.619  10.430  1.7557  0.0050 -0.9174
  629MOL0     H84903   2.413   5.699  10.372 -0.2020 -0.5889  3.1385
  629MOL0     H84904   2.241   5.841  10.314 -0.9246  0.7353  0.9580
  629MOL0     H84905   2.145   6.023  10.227 -0.1812 -0.6950  0.4463
  629MOL0     H84906   2.030   6.034  10.370 -1.1119  3.2898 -0.3043
  629MOL0     H84907   1.963   6.206  10.185  0.7395  0.4617 -0.5932
  629MOL0     H84908   2.109   6.297  10.239 -0.5259 -0.9329 -0.2778
  629MOL0     H84909   2.021   6.303  10.454  1.4570 -0.0065 -1.5806
  629MOL0     H84910   1.870   6.231  10.413 -1.6123  2.7489 -0.4697
  629MOL0     H84911   1.979   6.464  10.267  0.1472 -0.0672  0.9127
  629MOL0     H84912   1.857   6.476  10.396  1.3868  0.4217  0.8530
  629MOL0     H84913   1.666   6.367  10.024  1.4289 -4.0890 -0.5166
  629MOL0     H84914   2.397   6.166  10.528  1.0722  1.1255 -2.1322
  629MOL0     H84915   2.590   6.012  10.616  0.0843  2.5159 -0.0042
  630MOL0     O84916   9.286   7.341   2.080  0.2385 -0.9194  0.9264
  630MOL0     C84917   9.391   7.281   2.086  0.4283  0.6205  0.3961
  630MOL0     O84918   9.469   7.251   1.974 -0.3123 -0.3580 -0.7709
  630MOL0     C84919   9.405   7.263   1.852 -0.6501  0.3585 -0.7215
  630MOL0     C84920   9.337   7.153   1.788  0.2476  0.2648 -0.3674
  630MOL0     C84921   9.283   7.172   1.661 -0.2744 -0.1382  0.8144
  630MOL0     C84922   9.274   7.305   1.606 -1.2264  0.2292  1.0799
  630MOL0     O84923   9.219   7.304   1.477  0.6509  0.3195 -0.8217
  630MOL0     C84924   9.210   7.422   1.400  0.2615 -0.9091 -0.0373
  630MOL0     C84925   9.094   7.413   1.297  0.6938  0.5187 -0.1474
  630MOL0     C84926   9.081   7.528   1.196 -0.5044  0.0329  0.0861
  630MOL0     C84927   8.985   7.632   1.232  0.3138  0.6622  0.7631
  630MOL0     C84928   8.949   7.721   1.115  1.1856  0.0245  0.1794
  630MOL0     C84929   9.063   7.793   1.045  0.1612 -0.8323 -0.5684
  630MOL0     C84930   9.027   7.922   0.966  0.7022 -0.3080 -0.4107
  630MOL0     C84931   8.949   8.019   1.065 -0.6904  0.5831  0.0589
  630MOL0     N84932   8.946   8.155   1.010  0.2210  0.9291  0.1746
  630MOL0     C84933   9.047   8.247   1.025 -0.7014 -0.0505  1.0622
  630MOL0     C84934   9.022   8.350   0.942 -0.1260 -0.0599  0.1962
  630MOL0     C84935   9.114   8.466   0.910 -0.3956 -0.4275 -0.1067
  630MOL0     C84936   9.256   8.436   0.839  0.0480 -0.2310  0.0971
  630MOL0     C84937   9.240   8.363   0.698 -0.2347  0.0345 -0.2425
  630MOL0     C84938   9.360   8.372   0.600 -0.0383  0.0185 -0.2262
  630MOL0     O84939   9.496   8.341   0.643  0.3388 -0.7393 -0.7151
  630MOL0     C84940   9.506   8.225   0.716 -0.5724 -0.0584 -0.9351
  630MOL0     C84941   9.430   8.116   0.715  0.3944  0.5198 -0.1559
  630MOL0     C84942   9.459   8.007   0.796  0.2094  1.0166 -0.8173
  630MOL0     C84943   9.366   7.878   0.784 -0.8402  0.6141  0.3527
  630MOL0     C84944   9.583   8.008   0.882  0.7994 -0.2244  0.3775
  630MOL0     C84945   9.622   7.890   0.963  0.1934  0.4931  0.8850
  630MOL0     O84946   9.709   7.910   1.066 -0.7634 -0.4033 -0.5826
  630MOL0     C84947   9.771   7.799   1.134 -0.0706 -1.0447  0.1169
  630MOL0     C84948   9.829   7.694   1.074  0.8452  0.6611 -0.1900
  630MOL0     C84949   9.917   7.607   1.140 -0.6544 -0.1194  0.0249
  630MOL0     C84950   9.935   7.617   1.279 -0.1040 -0.7748  0.4052
  630MOL0     O84951  10.010   7.525   1.361 -0.8406 -0.2511 -0.3055
  630MOL0     C84952  10.065   7.402   1.300 -0.7940  0.0775  0.1238
  630MOL0     C84953  10.124   7.310   1.410 -0.1135  1.1499  0.1528
  630MOL0     C84954  10.231   7.390   1.495 -0.0345  0.2559  0.2531
  630MOL0     C84955  10.254   7.326   1.631 -0.4324 -0.1713 -0.1862
  630MOL0     C84956  10.371   7.220   1.619 -0.5870  0.5146 -0.5360
  630MOL0     C84957  10.388   7.139   1.757  0.0540 -0.1422 -0.0592
  630MOL0     C84958  10.493   7.028   1.745  0.3169  0.5536  0.4660
  630MOL0     C84959  10.511   6.946   1.879 -0.1867 -0.3853  0.2666
  630MOL0    Cl84960  10.638   6.831   1.841  0.1223 -0.6569  0.0164
  630MOL0     C84961   9.869   7.720   1.346 -0.5272  0.0757 -0.4391
  630MOL0     C84962   9.794   7.819   1.273 -0.1047  0.2012 -0.2926
  630MOL0     O84963   9.573   7.779   0.929  0.1055 -0.1569 -0.4240
  630MOL0     C84964   9.657   8.126   0.884 -1.0094 -1.0156 -0.4848
  630MOL0     C84965   9.625   8.233   0.799 -0.1059  0.0297  0.1640
  630MOL0     N84966   8.895   8.331   0.890  0.1821 -0.2807  0.4582
  630MOL0     N84967   8.844   8.216   0.943 -0.3670 -0.2698  0.3595
  630MOL0     C84968   9.343   7.413   1.665  0.2148 -0.4855 -0.1372
  630MOL0     C84969   9.392   7.390   1.794 -0.7712  0.1615 -0.3988
  630MOL0     C84970   9.441   7.259   2.224  0.3400 -1.0400  0.0512
  630MOL0     C84971   9.575   7.265   2.260  0.1416  0.3562 -0.1271
  630MOL0     C84972   9.604   7.264   2.395  0.6876  0.0092  0.5580
  630MOL0     C84973   9.514   7.258   2.499 -0.1395  1.1592  0.4268
  630MOL0     O84974   9.568   7.267   2.623  0.3615 -0.4745  0.7856
  630MOL0     C84975   9.485   7.249   2.733 -0.1556  0.3348  0.1074
  630MOL0     C84976   9.569   7.296   2.852  0.4277  0.1865  0.0712
  630MOL0     C84977   9.611   7.445   2.850  0.9707  0.5425  0.8178
  630MOL0     C84978   9.761   7.461   2.849 -0.4614 -0.8990 -0.5109
  630MOL0     C84979   9.809   7.596   2.836 -0.1780  0.4255 -0.3492
  630MOL0     C84980   9.840   7.714   2.824 -0.0000 -0.6706  0.9369
  630MOL0     C84981   9.378   7.253   2.463 -0.4871  0.4318  0.2377
  630MOL0     C84982   9.343   7.255   2.328 -1.0767  0.3350 -0.6624
  630MOL0     H84983   9.346   7.060   1.845 -3.6147 -0.6357 -0.8962
  630MOL0     H84984   9.232   7.107   1.591  0.4461 -1.6364  1.6253
  630MOL0     H84985   9.199   7.516   1.454  0.8556 -2.0316  2.1466
  630MOL0     H84986   9.295   7.421   1.330  0.3132  0.5028 -0.0254
  630MOL0     H84987   9.089   7.323   1.234 -2.7310 -1.1240  2.1572
  630MOL0     H84988   9.005   7.417   1.360  0.6134  1.0895 -0.2964
  630MOL0     H84989   9.175   7.570   1.158 -1.3767  1.6821 -0.3503
  630MOL0     H84990   9.034   7.473   1.114 -1.8443 -1.5901  1.8537
  630MOL0     H84991   8.903   7.575   1.276  0.2287  0.3526  0.2161
  630MOL0     H84992   9.032   7.695   1.308 -0.1411  0.5426  1.1435
  630MOL0     H84993   8.873   7.678   1.050 -0.2102  2.1262  0.3251
  630MOL0     H84994   8.878   7.790   1.160  0.2244 -0.7331 -0.1529
  630MOL0     H84995   9.145   7.818   1.113 -0.7368  1.2577 -0.1702
  630MOL0     H84996   9.108   7.718   0.980 -2.0812 -3.2530  0.4795
  630MOL0     H84997   9.110   7.972   0.915 -2.2947  2.1613 -3.2822
  630MOL0     H84998   8.967   7.899   0.877 -0.2083 -0.6633  0.2829
  630MOL0     H84999   8.999   8.018   1.162  1.1111  1.1431 -0.8365
  630MOL0     H85000   8.842   8.001   1.081 -0.8990  2.5137  1.2098
  630MOL0     H85001   9.145   8.236   1.071  0.8412 -0.8149 -2.1235
  630MOL0     H85002   9.050   8.525   0.844  1.1917 -1.3770 -2.6206
  630MOL0     H85003   9.125   8.527   1.000 -0.0399 -1.0510  0.2868
  630MOL0     H85004   9.323   8.374   0.900  0.2324 -1.8741 -1.6814
  630MOL0     H85005   9.302   8.534   0.837 -3.3807  1.5309 -0.6863
  630MOL0     H85006   9.156   8.405   0.641  0.6931  1.8540 -0.3405
  630MOL0     H85007   9.210   8.260   0.720  2.9023 -1.3761 -1.8542
  630MOL0     H85008   9.369   8.478   0.575  0.1927  0.0287 -0.1040
  630MOL0     H85009   9.333   8.315   0.510 -0.8336  2.0711 -1.3426
  630MOL0     H85010   9.349   8.124   0.643 -1.6282  0.4302  2.0037
  630MOL0     H85011   9.422   7.803   0.728 -1.8016  1.3865 -1.7608
  630MOL0     H85012   9.333   7.852   0.885  0.2364 -0.2894  0.4976
  630MOL0     H85013   9.278   7.900   0.723  0.4591 -1.4681 -2.4609
  630MOL0     H85014   9.804   7.670   0.972 -3.9729 -1.7074  1.2639
  630MOL0     H85015   9.970   7.526   1.091  1.4841  1.2850 -0.1153
  630MOL0     H85016   9.988   7.353   1.239  0.9399 -1.2673 -1.0932
  630MOL0     H85017  10.148   7.438   1.240 -0.5856  0.3105  0.5466
  630MOL0     H85018  10.056   7.254   1.474  0.0643  0.3002 -0.3870
  630MOL0     H85019  10.186   7.233   1.363  0.6676  1.2470  1.0044
  630MOL0     H85020  10.195   7.491   1.514 -0.7126  1.0306 -4.1821
  630MOL0     H85021  10.327   7.388   1.443  1.8135 -2.0902  3.4039
  630MOL0     H85022  10.278   7.396   1.712 -0.8873  1.5754 -1.4812
  630MOL0     H85023  10.163   7.271   1.659 -1.1027  1.0459  0.1284
  630MOL0     H85024  10.466   7.264   1.587 -0.1043 -1.3147 -1.7500
  630MOL0     H85025  10.346   7.142   1.547 -2.0796 -0.7349  1.2553
  630MOL0     H85026  10.420   7.206   1.837 -3.0617  0.9162  0.4571
  630MOL0     H85027  10.291   7.096   1.785 -0.3904 -0.3173 -1.7543
  630MOL0     H85028  10.590   7.066   1.711 -1.7956  3.2580 -3.3055
  630MOL0     H85029  10.483   6.955   1.664  0.5564  1.2488 -0.2075
  630MOL0     H85030  10.426   6.884   1.909 -0.0905 -0.7277 -0.1460
  630MOL0     H85031  10.542   7.005   1.965  2.2306 -1.4174  0.1709
  630MOL0     H85032   9.886   7.733   1.452  2.1527 -1.8788 -0.4996
  630MOL0     H85033   9.758   7.906   1.328  1.7511 -1.5084  4.1277
  630MOL0     H85034   9.731   8.143   0.962 -2.0058 -1.8537  0.6928
  630MOL0     H85035   9.689   8.320   0.810  0.8753  0.6217 -6.4449
  630MOL0     H85036   9.333   7.513   1.623 -1.0990 -0.5040  0.0977
  630MOL0     H85037   9.433   7.467   1.859 -2.3538 -0.0451  0.9118
  630MOL0     H85038   9.658   7.282   2.191  0.7102  0.4433  0.5718
  630MOL0     H85039   9.708   7.278   2.420 -0.1214  3.4696  2.7157
  630MOL0     H85040   9.397   7.311   2.716 -1.5224 -2.3531 -4.5127
  630MOL0     H85041   9.452   7.145   2.734 -0.3059  0.2902 -2.3548
  630MOL0     H85042   9.661   7.239   2.867  1.4152  1.6511 -0.1646
  630MOL0     H85043   9.502   7.283   2.937  4.1675  1.3470  3.4928
  630MOL0     H85044   9.546   7.491   2.924 -1.1610  4.0723 -2.8078
  630MOL0     H85045   9.574   7.478   2.752  2.1386  2.6523  1.0295
  630MOL0     H85046   9.800   7.394   2.771 -0.0874 -0.1615 -0.9654
  630MOL0     H85047   9.796   7.420   2.944 -2.1919 -1.9738 -0.2992
  630MOL0     H85048   9.871   7.815   2.808 -1.1806 -0.5084 -0.4974
  630MOL0     H85049   9.300   7.234   2.537  0.5266 -3.6819  0.5162
  630MOL0     H85050   9.236   7.261   2.313 -1.5432 -0.2829  1.8937
  631MOL0     O85051   8.752   7.373   7.939 -0.2723  0.0431  0.2225
  631MOL0     C85052   8.804   7.397   8.050 -0.0020 -0.0552 -0.0291
  631MOL0     O85053   8.831   7.305   8.146  0.2214  0.0157 -0.5477
  631MOL0     C85054   8.843   7.172   8.120  0.8603 -0.0858  0.1842
  631MOL0     C85055   8.779   7.087   8.210 -0.2391 -0.1062  0.2263
  631MOL0     C85056   8.811   6.947   8.216  0.6782  1.2810  0.1789
  631MOL0     C85057   8.908   6.898   8.135  0.1454  0.1374 -0.4958
  631MOL0     O85058   8.948   6.766   8.125  0.2299 -0.0837  0.6426
  631MOL0     C85059   8.842   6.676   8.089  0.0262 -0.1480 -0.4272
  631MOL0     C85060   8.902   6.532   8.086  0.6435 -0.6221 -0.3271
  631MOL0     C85061   8.969   6.517   7.945  1.4398 -0.4017 -0.3803
  631MOL0     C85062   8.940   6.389   7.879  0.9870  0.8467 -0.7358
  631MOL0     C85063   8.787   6.386   7.844 -0.1981 -0.2016 -0.0603
  631MOL0     C85064   8.753   6.248   7.782  0.1594 -0.2458  0.3867
  631MOL0     C85065   8.605   6.228   7.771  0.2637 -0.7915 -0.7629
  631MOL0     C85066   8.572   6.083   7.784  0.7199 -0.1974 -0.2228
  631MOL0     N85067   8.643   5.996   7.693  0.4812  0.6342 -0.5414
  631MOL0     C85068   8.676   5.860   7.712 -0.0558  1.4999 -0.7861
  631MOL0     C85069   8.722   5.808   7.592  0.4635 -0.4394  0.3358
  631MOL0     C85070   8.752   5.665   7.562  0.1046  0.1732  0.3042
  631MOL0     C85071   8.807   5.658   7.421 -0.4394  0.2394  0.9574
  631MOL0     C85072   8.960   5.680   7.420 -0.0801  0.0280 -0.5043
  631MOL0     C85073   9.019   5.674   7.283  0.6573 -1.1329  0.5094
  631MOL0     O85074   8.944   5.779   7.205 -1.1357 -0.2362  0.1223
  631MOL0     C85075   8.964   5.770   7.082 -0.5934 -1.4099  0.3415
  631MOL0     C85076   9.085   5.779   7.024  0.1377 -0.5520 -0.7879
  631MOL0     C85077   9.103   5.762   6.887  0.1347 -0.1452 -0.6496
  631MOL0     C85078   9.243   5.750   6.837  0.2226  0.1386  0.0521
  631MOL0     C85079   8.983   5.751   6.801 -0.2728 -0.0340  0.0343
  631MOL0     C85080   8.995   5.720   6.665 -0.5161  0.2133 -0.0120
  631MOL0     O85081   9.058   5.607   6.634  0.8185 -0.1025 -0.0075
  631MOL0     C85082   9.038   5.565   6.507 -0.2603  0.3716  0.5105
  631MOL0     C85083   9.151   5.515   6.434  0.4954  0.4094  0.4107
  631MOL0     C85084   9.131   5.474   6.295  0.1438 -0.2786 -0.6302
  631MOL0     C85085   9.004   5.485   6.244  0.2013  0.5063 -0.5071
  631MOL0     O85086   8.995   5.446   6.104 -0.0111  0.4160 -0.2450
  631MOL0     C85087   8.865   5.413   6.058  1.2438 -0.3070 -0.0417
  631MOL0     C85088   8.875   5.323   5.935  0.2786  0.4696 -0.5730
  631MOL0     C85089   8.870   5.386   5.793 -0.0786  0.7059  0.0971
  631MOL0     C85090   8.902   5.266   5.696  0.5419  0.8616  0.7285
  631MOL0     C85091   8.875   5.305   5.544  1.4117  0.1535  0.9671
  631MOL0     C85092   8.964   5.412   5.480 -0.0162  0.2158  0.2905
  631MOL0     C85093   9.109   5.432   5.536 -0.2167  0.2432  0.8772
  631MOL0     C85094   9.185   5.521   5.428  0.6113  0.7419 -0.0856
  631MOL0    Cl85095   9.358   5.481   5.429 -0.1317  0.2946 -0.1435
  631MOL0     C85096   8.894   5.517   6.324 -0.6536 -0.8791 -1.1212
  631MOL0     C85097   8.906   5.561   6.458  0.1113 -0.6574  0.5699
  631MOL0     O85098   8.972   5.811   6.583 -0.4590 -0.0885 -0.4841
  631MOL0     C85099   8.857   5.759   6.858  0.1414 -0.7366 -0.6923
  631MOL0     C85100   8.857   5.767   7.002  0.8618 -0.2974  1.5632
  631MOL0     N85101   8.715   5.915   7.506 -0.3502 -1.0557  0.8846
  631MOL0     N85102   8.679   6.024   7.566 -0.0449  1.1334  1.2972
  631MOL0     C85103   8.982   6.989   8.053 -1.0790 -0.0466  0.2480
  631MOL0     C85104   8.950   7.126   8.045  0.5044  0.5666  0.3562
  631MOL0     C85105   8.816   7.542   8.083  0.3354 -0.5225  0.4408
  631MOL0     C85106   8.805   7.600   8.204  1.0458  0.2555 -0.0907
  631MOL0     C85107   8.828   7.736   8.225  0.1351  0.3643 -0.5478
  631MOL0     C85108   8.863   7.814   8.122  0.8594 -0.8451  0.6465
  631MOL0     O85109   8.882   7.953   8.128 -0.1495 -0.6483 -0.3460
  631MOL0     C85110   8.905   8.011   8.263 -0.6548 -0.0843 -0.9930
  631MOL0     C85111   8.977   8.143   8.266 -0.0275  0.0711  0.4041
  631MOL0     C85112   8.904   8.266   8.204  0.2888  0.5042 -0.0987
  631MOL0     C85113   8.795   8.320   8.300  0.2498 -0.6100 -0.3307
  631MOL0     C85114   8.655   8.292   8.275 -0.0759  0.3677  0.0656
  631MOL0     C85115   8.541   8.258   8.263 -0.7547 -0.6084 -0.4673
  631MOL0     C85116   8.876   7.762   7.996  1.4035 -0.8475  0.6923
  631MOL0     C85117   8.856   7.623   7.973  0.2581 -0.3417  0.7494
  631MOL0     H85118   8.707   7.125   8.281  0.8618 -2.3082  2.6674
  631MOL0     H85119   8.773   6.889   8.300  2.4853 -2.6356 -1.4713
  631MOL0     H85120   8.764   6.674   8.166  2.9563 -0.2232  2.7727
  631MOL0     H85121   8.800   6.706   7.993 -3.2470 -1.5899  0.4262
  631MOL0     H85122   8.973   6.522   8.169 -1.3837 -0.2631  1.5504
  631MOL0     H85123   8.827   6.455   8.105  0.8388 -0.9183 -0.7544
  631MOL0     H85124   8.938   6.597   7.877 -4.0437 -1.6341  0.2557
  631MOL0     H85125   9.078   6.519   7.956  1.3390  0.5214  0.5882
  631MOL0     H85126   9.008   6.396   7.794  2.3903  2.6932  0.4441
  631MOL0     H85127   8.974   6.304   7.939 -0.0594  2.3069  2.1059
  631MOL0     H85128   8.730   6.405   7.935  0.6001 -0.9378  0.6115
  631MOL0     H85129   8.755   6.460   7.771 -0.5911  0.3336  0.6458
  631MOL0     H85130   8.793   6.252   7.680  2.9363 -0.2021  1.3810
  631MOL0     H85131   8.801   6.168   7.839 -0.1359  1.0776  2.6017
  631MOL0     H85132   8.558   6.273   7.859  0.6933 -3.3361  0.8712
  631MOL0     H85133   8.572   6.272   7.677 -1.1948 -0.4592 -0.1247
  631MOL0     H85134   8.463   6.075   7.771  0.5067  1.5253  0.1883
  631MOL0     H85135   8.582   6.054   7.889  3.1986 -1.7847 -0.8249
  631MOL0     H85136   8.668   5.803   7.804  1.0986 -0.2893 -1.7327
  631MOL0     H85137   8.821   5.626   7.638  1.3460 -0.5733 -1.1680
  631MOL0     H85138   8.666   5.600   7.582 -0.1891 -0.1858 -1.8961
  631MOL0     H85139   8.766   5.740   7.361  1.6569  0.6257 -0.0327
  631MOL0     H85140   8.783   5.562   7.376  1.0215  2.1211 -4.7041
  631MOL0     H85141   9.001   5.601   7.484  1.2944 -0.8532 -2.3871
  631MOL0     H85142   8.978   5.775   7.471 -4.0149  1.7153 -1.8563
  631MOL0     H85143   9.006   5.581   7.227  2.0091 -0.6164 -0.7308
  631MOL0     H85144   9.122   5.707   7.300  0.3978  0.0135 -0.0683
  631MOL0     H85145   9.175   5.765   7.083  1.0876  1.0314 -1.7948
  631MOL0     H85146   9.233   5.668   6.765 -2.5877 -0.1078  0.5780
  631MOL0     H85147   9.282   5.840   6.790  1.8680 -0.2249  0.6443
  631MOL0     H85148   9.313   5.710   6.911 -1.1926 -3.4207 -0.3080
  631MOL0     H85149   9.244   5.494   6.485  1.2045 -3.1886 -1.9988
  631MOL0     H85150   9.211   5.441   6.229  1.1813  0.1374  0.3770
  631MOL0     H85151   8.804   5.357   6.130 -1.3834 -1.0899 -2.6812
  631MOL0     H85152   8.799   5.496   6.030  2.0231  0.2560 -0.2558
  631MOL0     H85153   8.976   5.284   5.945 -0.2280 -1.5622 -2.6115
  631MOL0     H85154   8.796   5.247   5.944  0.9924 -0.2428 -0.2396
  631MOL0     H85155   8.946   5.465   5.788  1.1543 -0.4597 -0.2849
  631MOL0     H85156   8.773   5.432   5.772 -1.2680 -2.3160 -1.5315
  631MOL0     H85157   9.004   5.229   5.709  0.0182 -0.4056  1.3928
  631MOL0     H85158   8.843   5.178   5.723  1.2226  0.1478 -0.0695
  631MOL0     H85159   8.768   5.325   5.533 -0.0122 -4.8515  2.7572
  631MOL0     H85160   8.888   5.213   5.486  1.2748  1.7576 -1.7762
  631MOL0     H85161   8.987   5.399   5.374  1.6432 -0.8921  0.7512
  631MOL0     H85162   8.917   5.506   5.512  1.1285  1.1237 -0.5749
  631MOL0     H85163   9.154   5.333   5.549 -0.0652  0.0335 -0.9862
  631MOL0     H85164   9.106   5.480   5.635  1.0174 -2.2355  2.2216
  631MOL0     H85165   9.180   5.630   5.434 -0.1933  0.6651  0.7322
  631MOL0     H85166   9.142   5.494   5.331 -0.1497 -0.3563  0.5346
  631MOL0     H85167   8.790   5.525   6.293 -0.5355 -3.0577 -2.2391
  631MOL0     H85168   8.825   5.586   6.526 -2.8511 -3.4906 -1.6158
  631MOL0     H85169   8.772   5.752   6.790  1.8466 -1.0370 -2.8972
  631MOL0     H85170   8.757   5.745   7.039  0.8968  0.2526  2.0051
  631MOL0     H85171   9.073   6.955   8.006  0.1549  0.9221  1.8240
  631MOL0     H85172   9.010   7.190   7.981  0.7115 -1.0720 -1.1550
  631MOL0     H85173   8.772   7.549   8.294  1.1165  0.1601 -0.1187
  631MOL0     H85174   8.811   7.778   8.323 -2.3462 -1.7137  0.0046
  631MOL0     H85175   8.810   8.019   8.317 -0.2990 -0.6666 -0.2645
  631MOL0     H85176   8.964   7.944   8.326 -0.6000 -0.1321 -1.0949
  631MOL0     H85177   9.069   8.124   8.210  1.8724 -1.0318  3.6116
  631MOL0     H85178   9.011   8.176   8.364 -0.1677  2.2423 -0.2373
  631MOL0     H85179   8.852   8.237   8.113  2.0620  1.0728 -1.3667
  631MOL0     H85180   8.989   8.330   8.177 -2.0423  3.1702 -1.5439
  631MOL0     H85181   8.807   8.427   8.282 -1.9543  0.2429  2.5288
  631MOL0     H85182   8.832   8.301   8.401  3.1728  1.1793 -0.9574
  631MOL0     H85183   8.437   8.234   8.256 -0.5423 -1.8596  0.4003
  631MOL0     H85184   8.887   7.839   7.921 -0.4006  0.8999  2.1049
  631MOL0     H85185   8.873   7.577   7.876 -2.5292 -0.4087  0.2221
  632MOL0     O85186   4.803  10.825   6.000 -0.8825  1.1362 -0.0077
  632MOL0     C85187   4.926  10.845   6.007  0.1207  0.3735  0.5222
  632MOL0     O85188   5.009  10.882   5.896 -0.4980  0.1848 -0.0422
  632MOL0     C85189   4.952  10.881   5.771  0.0168 -0.1395  0.2225
  632MOL0     C85190   5.019  10.963   5.672 -0.0943 -0.4104 -0.8300
  632MOL0     C85191   4.968  10.969   5.545  0.4215  0.1047 -1.1376
  632MOL0     C85192   4.872  10.879   5.500 -1.2587  1.0359 -0.9256
  632MOL0     O85193   4.824  10.876   5.376  0.3403 -0.5400 -0.3047
  632MOL0     C85194   4.916  10.907   5.279  0.0931 -0.8729 -0.3175
  632MOL0     C85195   4.883  10.854   5.136 -0.6439 -0.2441 -0.5452
  632MOL0     C85196   4.938  10.712   5.106  0.0381 -0.3594 -0.2578
  632MOL0     C85197   4.840  10.623   5.038  1.7159 -0.4088  0.4344
  632MOL0     C85198   4.896  10.486   5.001 -0.1094 -0.4423  0.6272
  632MOL0     C85199   4.797  10.401   4.926 -0.1792 -0.0222  0.2722
  632MOL0     C85200   4.856  10.267   4.877 -0.2132 -0.1030  0.2024
  632MOL0     C85201   4.974  10.277   4.780 -0.4819  0.0562  0.5127
  632MOL0     N85202   5.002  10.145   4.719  0.5677  0.1852 -0.1005
  632MOL0     C85203   4.912  10.039   4.693 -1.2655  0.2484  0.1945
  632MOL0     C85204   4.994   9.948   4.615 -0.1313 -0.0028  0.1349
  632MOL0     C85205   4.946   9.819   4.552 -0.0436 -0.4130 -0.9167
  632MOL0     C85206   5.034   9.733   4.456 -1.1674  0.5092  0.0710
  632MOL0     C85207   5.180   9.727   4.503 -0.2157 -0.1543  0.0592
  632MOL0     C85208   5.210   9.679   4.640  0.6274 -0.3654 -0.8408
  632MOL0     O85209   5.328   9.598   4.647 -0.4720  0.3413 -0.2530
  632MOL0     C85210   5.381   9.559   4.774  0.3469 -0.3750  0.7249
  632MOL0     C85211   5.306   9.592   4.885 -0.3007 -0.2564  0.1829
  632MOL0     C85212   5.354   9.534   5.005 -0.1051 -2.0911  0.0143
  632MOL0     C85213   5.290   9.597   5.129  0.3749 -0.3787 -0.4407
  632MOL0     C85214   5.462   9.438   5.014  0.4556 -1.0032 -0.5710
  632MOL0     C85215   5.491   9.363   5.132 -0.7593  0.0181 -0.5904
  632MOL0     O85216   5.386   9.342   5.221  0.0203 -1.0224  1.0879
  632MOL0     C85217   5.414   9.253   5.318  0.5881 -0.0014 -0.6373
  632MOL0     C85218   5.424   9.119   5.293  0.0570  0.1326  0.0695
  632MOL0     C85219   5.470   9.028   5.393 -0.1100  0.1345 -0.7899
  632MOL0     C85220   5.499   9.083   5.520 -1.1405 -0.7032  0.6546
  632MOL0     O85221   5.552   9.008   5.624  0.5703  0.2145 -0.0337
  632MOL0     C85222   5.644   8.902   5.587  1.1217 -0.6229  1.0487
  632MOL0     C85223   5.670   8.824   5.716 -1.0588  0.6949 -0.5863
  632MOL0     C85224   5.550   8.732   5.749 -0.4300  0.2388  0.7777
  632MOL0     C85225   5.493   8.763   5.879 -0.4214  0.0559 -0.2926
  632MOL0     C85226   5.374   8.668   5.919 -0.0594  0.0296 -0.2903
  632MOL0     C85227   5.419   8.535   5.955  0.6285  0.1795 -0.0871
  632MOL0     C85228   5.314   8.436   6.000  0.5645  0.2130 -0.1406
  632MOL0     C85229   5.216   8.387   5.895  0.1952 -0.6873  0.1030
  632MOL0    Cl85230   5.277   8.263   5.786  0.4094  0.3465 -0.2257
  632MOL0     C85231   5.460   9.208   5.550  0.1707  0.3723  0.0762
  632MOL0     C85232   5.427   9.294   5.444  0.0456 -0.1612  0.8570
  632MOL0     O85233   5.597   9.302   5.130 -0.4901 -0.2839 -0.3552
  632MOL0     C85234   5.527   9.415   4.895 -0.2442 -0.3195 -0.6431
  632MOL0     C85235   5.490   9.477   4.778  0.2969 -0.3693 -0.0286
  632MOL0     N85236   5.123  10.002   4.621  0.3354  0.2231 -0.4598
  632MOL0     N85237   5.126  10.116   4.678  0.1058  0.5941  0.0843
  632MOL0     C85238   4.806  10.792   5.595 -0.4748 -0.1289 -1.3334
  632MOL0     C85239   4.854  10.786   5.730  0.0957 -0.4237  0.4796
  632MOL0     C85240   4.987  10.854   6.135  0.0068  0.3337  0.2637
  632MOL0     C85241   5.080  10.953   6.166  0.5705  0.7129  0.2238
  632MOL0     C85242   5.129  10.972   6.290  0.0760 -0.5732  0.5684
  632MOL0     C85243   5.083  10.896   6.397  0.2910  0.1526 -0.0441
  632MOL0     O85244   5.143  10.912   6.519  0.6557  0.0519 -0.1570
  632MOL0     C85245   5.095  10.836   6.627 -1.3955  1.4518 -0.4714
  632MOL0     C85246   5.165  10.883   6.758  1.1170  0.5507  0.0897
  632MOL0     C85247   5.307  10.933   6.738  0.2647 -0.5796 -0.0783
  632MOL0     C85248   5.365  10.980   6.867 -0.0928 -0.6747  0.4761
  632MOL0     C85249   5.438  10.885   6.947 -0.0389  0.2656  0.2036
  632MOL0     C85250   5.510  10.789   6.995 -0.0061 -0.8525 -0.6221
  632MOL0     C85251   4.989  10.804   6.369 -0.1275  0.5985 -0.1043
  632MOL0     C85252   4.938  10.779   6.243 -0.6071 -1.2303 -0.3662
  632MOL0     H85253   5.107  11.012   5.713 -1.5706  1.9285 -0.2645
  632MOL0     H85254   5.008  11.039   5.473  3.0414 -0.6337 -0.5262
  632MOL0     H85255   4.931  11.015   5.271 -0.8397 -0.6153  1.0159
  632MOL0     H85256   5.011  10.867   5.315  1.2895  1.6401 -0.4335
  632MOL0     H85257   4.775  10.856   5.118 -0.6828  3.2017 -0.7000
  632MOL0     H85258   4.939  10.920   5.069 -0.2726  0.8316  0.7744
  632MOL0     H85259   5.003  10.732   5.020 -2.3333  0.4338 -1.9635
  632MOL0     H85260   4.977  10.660   5.194  0.9866  2.1463  0.9010
  632MOL0     H85261   4.742  10.615   5.086 -0.1634  0.0137 -3.0213
  632MOL0     H85262   4.806  10.681   4.951  1.0499 -0.7692  0.4517
  632MOL0     H85263   4.988  10.500   4.944 -0.7190  2.0616  0.1233
  632MOL0     H85264   4.911  10.421   5.088 -2.5537 -1.8169  0.1032
  632MOL0     H85265   4.713  10.367   4.988  0.6404  1.6393  2.3914
  632MOL0     H85266   4.743  10.459   4.850 -3.3639 -3.7354 -0.6497
  632MOL0     H85267   4.887  10.214   4.968 -2.8930  1.1034  1.9243
  632MOL0     H85268   4.771  10.215   4.832  1.3714 -1.4049 -1.4794
  632MOL0     H85269   5.069  10.294   4.833  1.6218 -2.0718 -2.2509
  632MOL0     H85270   4.978  10.348   4.697  2.5067 -2.1227 -1.4095
  632MOL0     H85271   4.807  10.039   4.718 -0.7625  0.6197  2.5103
  632MOL0     H85272   4.919   9.759   4.639  2.4181 -0.7880 -0.3308
  632MOL0     H85273   4.848   9.840   4.507  0.3424  1.6519 -0.8830
  632MOL0     H85274   5.027   9.775   4.355 -0.2723  2.2742  0.6928
  632MOL0     H85275   4.984   9.636   4.460 -4.6332  2.1577  3.7481
  632MOL0     H85276   5.227   9.822   4.474  2.2721 -1.9502 -2.3286
  632MOL0     H85277   5.228   9.653   4.438 -0.9027 -0.8656  0.3427
  632MOL0     H85278   5.124   9.628   4.683  0.5427  1.0872  0.8270
  632MOL0     H85279   5.239   9.760   4.707  1.2968 -0.6757 -0.7411
  632MOL0     H85280   5.226   9.664   4.891 -2.1380 -2.3162  2.1915
  632MOL0     H85281   5.203   9.541   5.166  0.8055 -0.3776  0.6142
  632MOL0     H85282   5.361   9.599   5.212  0.9913  2.4891 -0.9575
  632MOL0     H85283   5.265   9.703   5.120  0.5035  0.2084  3.8415
  632MOL0     H85284   5.407   9.080   5.193  3.4409 -2.4850  0.3300
  632MOL0     H85285   5.498   8.928   5.361  1.5501 -0.5781  2.4631
  632MOL0     H85286   5.597   8.835   5.515  1.8002  1.1767 -1.1738
  632MOL0     H85287   5.735   8.937   5.538 -1.6838  2.0157 -2.8758
  632MOL0     H85288   5.757   8.759   5.704  0.2023  2.3099 -0.5714
  632MOL0     H85289   5.699   8.893   5.795  0.4697 -1.7035  1.0785
  632MOL0     H85290   5.597   8.634   5.737 -2.3471 -0.3800 -4.9801
  632MOL0     H85291   5.482   8.738   5.664  2.6856  3.6835 -1.8037
  632MOL0     H85292   5.573   8.752   5.953 -0.5781 -0.4587 -0.1975
  632MOL0     H85293   5.444   8.861   5.877  2.8418  1.8883  1.4955
  632MOL0     H85294   5.292   8.656   5.848  0.0719 -1.2007 -0.2633
  632MOL0     H85295   5.330   8.705   6.012 -1.1798 -3.0525  0.5287
  632MOL0     H85296   5.484   8.496   5.877  2.9662 -1.9297  2.6727
  632MOL0     H85297   5.491   8.539   6.038  3.1673 -1.5081 -2.0598
  632MOL0     H85298   5.254   8.478   6.081  0.3378  0.2142 -0.3101
  632MOL0     H85299   5.365   8.354   6.051 -0.9498  0.4851  1.9239
  632MOL0     H85300   5.189   8.459   5.817 -0.1571  0.6896  1.4658
  632MOL0     H85301   5.123   8.348   5.939  0.4546  0.7742  2.0839
  632MOL0     H85302   5.490   9.252   5.645 -1.0580 -0.7603  1.0168
  632MOL0     H85303   5.416   9.400   5.463  1.3241  0.3878 -1.1443
  632MOL0     H85304   5.605   9.341   4.907 -1.0352 -0.8594  1.6753
  632MOL0     H85305   5.535   9.447   4.684  3.9434  2.2540  0.6333
  632MOL0     H85306   4.721  10.728   5.574 -0.4474 -0.8544  0.5917
  632MOL0     H85307   4.809  10.720   5.803 -0.8687  1.7759  1.9996
  632MOL0     H85308   5.126  11.024   6.098  0.6511  0.0524 -0.4253
  632MOL0     H85309   5.203  11.048   6.313 -2.4742  2.5319 -0.7214
  632MOL0     H85310   4.986  10.837   6.639 -1.1696  0.0958  2.5326
  632MOL0     H85311   5.130  10.733   6.611  0.3235  2.1750 -1.6821
  632MOL0     H85312   5.160  10.811   6.840  0.5338  0.4114 -0.0599
  632MOL0     H85313   5.102  10.965   6.793 -1.2679 -2.1623  2.6546
  632MOL0     H85314   5.312  11.016   6.667  3.4498  1.6500  2.4952
  632MOL0     H85315   5.364  10.851   6.695  1.1319 -1.1089  1.9688
  632MOL0     H85316   5.289  11.031   6.927  0.2589  0.3386  0.0826
  632MOL0     H85317   5.435  11.054   6.827 -3.2534  2.3730  0.1307
  632MOL0     H85318   5.570  10.707   7.028 -1.7978 -2.1225 -0.3791
  632MOL0     H85319   4.946  10.745   6.449  0.4787  0.1858 -0.0729
  632MOL0     H85320   4.848  10.721   6.226 -1.6485  0.4642 -0.9036
  633MOL0     O85321  11.098   3.876   1.966  0.6412  0.2360  0.5342
  633MOL0     C85322  11.019   3.883   1.868  0.1144  0.5201 -1.0714
  633MOL0     O85323  11.061   3.903   1.740 -0.6690  0.2457  0.8010
  633MOL0     C85324  11.192   3.876   1.697 -0.3508  0.1935 -0.4230
  633MOL0     C85325  11.322   3.881   1.769  0.5205  0.5023  0.3044
  633MOL0     C85326  11.437   3.856   1.705 -0.1621  0.1634 -0.4630
  633MOL0     C85327  11.442   3.830   1.569  1.5961  0.5255  1.1581
  633MOL0     O85328  11.569   3.806   1.521 -0.2553  0.7735 -0.3139
  633MOL0     C85329  11.585   3.736   1.395 -0.1441  0.4174  0.3181
  633MOL0     C85330  11.724   3.686   1.391  0.4500  0.2360  0.0446
  633MOL0     C85331  11.750   3.560   1.488 -0.0386 -0.1459  0.0435
  633MOL0     C85332  11.890   3.494   1.449  0.0175  0.5722 -0.1904
  633MOL0     C85333  11.905   3.356   1.514 -0.8338 -0.9038  0.2653
  633MOL0     C85334  11.930   3.353   1.656  0.1054 -1.0646 -0.5148
  633MOL0     C85335  11.941   3.209   1.719 -0.8028 -0.2949  0.3608
  633MOL0     C85336  11.997   3.218   1.864 -0.1583 -0.7299 -0.9443
  633MOL0     N85337  11.942   3.112   1.939  0.6868  0.1140 -0.3225
  633MOL0     C85338  11.808   3.112   1.972  0.4878  0.6534 -0.4561
  633MOL0     C85339  11.782   2.982   1.997  0.5498  0.8035  0.4087
  633MOL0     C85340  11.643   2.930   2.014 -0.6286  0.1218 -0.7811
  633MOL0     C85341  11.622   2.861   2.146  0.3729 -0.1949 -0.2083
  633MOL0     C85342  11.541   2.737   2.124 -0.4670 -0.2422  0.3127
  633MOL0     C85343  11.553   2.640   2.238  0.0883 -0.1638 -0.7340
  633MOL0     O85344  11.473   2.526   2.209  1.1872  0.2821  0.3674
  633MOL0     C85345  11.456   2.411   2.284  1.0012  0.2963 -0.9070
  633MOL0     C85346  11.346   2.333   2.253  0.0904 -0.0333 -1.2196
  633MOL0     C85347  11.337   2.201   2.303 -0.8127  0.0824  0.8163
  633MOL0     C85348  11.246   2.111   2.219 -0.1829 -0.5805  0.0066
  633MOL0     C85349  11.434   2.151   2.400 -0.0747 -0.0495 -0.4654
  633MOL0     C85350  11.416   2.020   2.462 -0.2057  0.7228 -0.1712
  633MOL0     O85351  11.524   1.949   2.490 -0.3425  0.2971  0.2592
  633MOL0     C85352  11.520   1.816   2.538 -0.1976  0.0662  0.3926
  633MOL0     C85353  11.581   1.776   2.660 -0.3361  0.2323  0.2349
  633MOL0     C85354  11.602   1.649   2.708  0.5204  0.6133  0.1166
  633MOL0     C85355  11.539   1.546   2.641 -0.0909 -0.1744  0.3429
  633MOL0     O85356  11.545   1.420   2.687  0.5113 -0.1943  0.5962
  633MOL0     C85357  11.478   1.387   2.807  0.0706 -1.1215 -0.1178
  633MOL0     C85358  11.325   1.350   2.805  0.2406 -0.2073 -0.6462
  633MOL0     C85359  11.267   1.227   2.730 -0.4036 -0.7016  0.2609
  633MOL0     C85360  11.123   1.206   2.772  0.4171  1.7422 -0.4860
  633MOL0     C85361  11.094   1.055   2.727 -0.4578 -0.7405  0.3924
  633MOL0     C85362  10.948   1.025   2.741  0.0161 -0.1889 -0.0568
  633MOL0     C85363  10.903   0.890   2.694  0.1342  0.1798 -0.0436
  633MOL0     C85364  10.910   0.875   2.543 -0.9656 -0.3721 -0.3879
  633MOL0    Cl85365  10.869   0.716   2.483  0.7344 -0.3651  0.0312
  633MOL0     C85366  11.493   1.570   2.511 -0.1933 -0.1636  0.4255
  633MOL0     C85367  11.478   1.707   2.462 -0.0384  0.1191  0.0353
  633MOL0     O85368  11.302   1.983   2.475 -0.3592 -0.0001 -0.2312
  633MOL0     C85369  11.524   2.243   2.450 -0.0875  0.7957 -0.6449
  633MOL0     C85370  11.538   2.367   2.389 -0.0775 -0.5447 -0.0496
  633MOL0     N85371  11.900   2.903   1.987 -0.7150 -0.6141  0.2751
  633MOL0     N85372  11.995   2.989   1.949 -0.1606  0.3922  0.0394
  633MOL0     C85373  11.323   3.835   1.496 -0.9104  0.2930  0.6137
  633MOL0     C85374  11.203   3.849   1.561 -1.0610 -0.3685  0.2283
  633MOL0     C85375  10.871   3.897   1.895 -0.1594  0.3525 -0.4719
  633MOL0     C85376  10.817   3.899   2.023 -0.4191 -0.5198  0.1743
  633MOL0     C85377  10.689   3.941   2.038 -0.1273 -1.1406 -0.1799
  633MOL0     C85378  10.603   3.964   1.929 -0.5528  0.3178  0.8803
  633MOL0     O85379  10.483   4.027   1.958  0.0209 -0.2694 -0.0734
  633MOL0     C85380  10.428   4.124   1.859  0.2212 -0.1857 -0.2663
  633MOL0     C85381  10.289   4.163   1.920 -0.3419 -0.0792  0.9373
  633MOL0     C85382  10.239   4.286   1.828  0.0046  0.5435 -0.8605
  633MOL0     C85383  10.218   4.236   1.688  0.0296 -0.2813  0.2649
  633MOL0     C85384  10.185   4.349   1.603 -0.8727  0.3472 -0.2182
  633MOL0     C85385  10.152   4.455   1.546  0.0979  0.4676 -0.0270
  633MOL0     C85386  10.653   3.932   1.803 -0.9303 -0.5622  0.1921
  633MOL0     C85387  10.777   3.891   1.780 -0.3637 -0.0634 -0.5021
  633MOL0     H85388  11.321   3.900   1.876  2.8237 -3.7208  1.3233
  633MOL0     H85389  11.532   3.856   1.758 -0.9812 -1.3415  1.0789
  633MOL0     H85390  11.524   3.648   1.376  1.7819 -0.8100 -0.4610
  633MOL0     H85391  11.563   3.811   1.318 -3.2652 -1.3559 -0.6839
  633MOL0     H85392  11.748   3.674   1.284 -3.0078  4.1571 -1.4251
  633MOL0     H85393  11.795   3.764   1.419  1.9016  0.1197 -2.8496
  633MOL0     H85394  11.749   3.603   1.589 -0.2701  2.1975 -0.8770
  633MOL0     H85395  11.667   3.492   1.468  0.2570 -0.7009  0.6680
  633MOL0     H85396  11.907   3.487   1.341  2.9037  0.1160  0.2163
  633MOL0     H85397  11.966   3.568   1.475 -2.2464  2.3501  1.8843
  633MOL0     H85398  11.809   3.309   1.492 -0.8666 -0.4409 -0.6243
  633MOL0     H85399  11.998   3.321   1.468  0.4461  2.6893 -0.2702
  633MOL0     H85400  12.023   3.407   1.674 -1.5232  0.8922  3.5398
  633MOL0     H85401  11.857   3.414   1.711  0.8703 -0.0383 -0.6117
  633MOL0     H85402  11.846   3.156   1.709  0.9439 -3.4682 -0.9995
  633MOL0     H85403  12.009   3.144   1.662  0.0874  0.0270  1.0258
  633MOL0     H85404  11.959   3.309   1.910  1.8018 -1.0720  1.5545
  633MOL0     H85405  12.107   3.215   1.866 -0.0444  1.6859 -1.1965
  633MOL0     H85406  11.741   3.198   1.976  1.4153  1.4157 -0.7311
  633MOL0     H85407  11.573   3.012   1.994  1.1890  1.4286 -2.0707
  633MOL0     H85408  11.624   2.862   1.930 -2.1937  0.9029 -1.0948
  633MOL0     H85409  11.580   2.931   2.219 -2.8140 -1.2196 -0.9370
  633MOL0     H85410  11.718   2.836   2.192 -0.7967  0.3278  2.7230
  633MOL0     H85411  11.576   2.689   2.032 -0.8794 -2.0099  1.0289
  633MOL0     H85412  11.435   2.761   2.112 -0.2735  0.6851  0.4214
  633MOL0     H85413  11.535   2.673   2.340  0.3936  1.2108 -1.1134
  633MOL0     H85414  11.654   2.600   2.246 -0.5902 -1.6422  1.4780
  633MOL0     H85415  11.285   2.380   2.176 -1.5038 -1.4501 -0.8715
  633MOL0     H85416  11.234   2.156   2.120 -0.1493  3.8002  1.7635
  633MOL0     H85417  11.301   2.019   2.196 -3.9338 -4.3111  4.0648
  633MOL0     H85418  11.146   2.098   2.260 -0.1990  0.8155  0.4637
  633MOL0     H85419  11.623   1.865   2.707 -3.6038  1.0017  2.0255
  633MOL0     H85420  11.671   1.628   2.789  2.3734  0.1919 -1.5086
  633MOL0     H85421  11.532   1.305   2.855  3.1432  1.5934  1.4885
  633MOL0     H85422  11.498   1.470   2.875  0.5665 -2.4378  1.4019
  633MOL0     H85423  11.295   1.330   2.908  0.6153  2.3311  0.0064
  633MOL0     H85424  11.270   1.439   2.773  1.4968  0.5476 -0.7522
  633MOL0     H85425  11.328   1.137   2.747  1.0120  0.3030  0.6696
  633MOL0     H85426  11.271   1.254   2.625  0.3200 -0.5024  0.3337
  633MOL0     H85427  11.112   1.215   2.881  2.2477  2.5753 -0.3155
  633MOL0     H85428  11.051   1.275   2.727 -1.5288  1.4317  1.9628
  633MOL0     H85429  11.151   0.991   2.796  1.7788 -0.5196 -1.1421
  633MOL0     H85430  11.119   1.040   2.621  0.6026 -0.1596  0.5439
  633MOL0     H85431  10.923   1.016   2.847  2.4333 -1.9659  0.4337
  633MOL0     H85432  10.887   1.097   2.686  2.2953 -0.0365 -2.6468
  633MOL0     H85433  10.798   0.880   2.724  0.4185  1.0527  1.3208
  633MOL0     H85434  10.970   0.816   2.739  1.4360  0.5346 -1.3319
  633MOL0     H85435  11.016   0.894   2.523 -0.2878 -1.4042  1.9185
  633MOL0     H85436  10.862   0.949   2.479 -1.2063 -1.7339 -1.8772
  633MOL0     H85437  11.464   1.496   2.438  2.3437  0.1697 -1.0496
  633MOL0     H85438  11.440   1.715   2.361  1.0414 -1.7912 -0.5877
  633MOL0     H85439  11.586   2.215   2.534 -0.9892  3.0992  0.8997
  633MOL0     H85440  11.614   2.435   2.427 -0.3442 -1.6336  2.6951
  633MOL0     H85441  11.308   3.815   1.391  2.0551 -0.6400  0.2568
  633MOL0     H85442  11.113   3.845   1.501 -1.2251  0.2445  0.4334
  633MOL0     H85443  10.878   3.888   2.112  0.6570  0.3910 -0.4163
  633MOL0     H85444  10.657   3.957   2.141  0.2216 -1.4331 -0.0238
  633MOL0     H85445  10.496   4.210   1.858 -0.5686  0.4449  0.1692
  633MOL0     H85446  10.414   4.074   1.762 -1.7409  1.0334 -0.6635
  633MOL0     H85447  10.295   4.187   2.027 -0.1473  2.0544  0.4911
  633MOL0     H85448  10.226   4.075   1.903 -1.6028  0.9420  0.1441
  633MOL0     H85449  10.309   4.369   1.845  0.5997  0.6325 -3.2772
  633MOL0     H85450  10.138   4.314   1.858 -0.9016 -1.9422 -1.3494
  633MOL0     H85451  10.139   4.164   1.711  2.3880 -2.5818  1.6833
  633MOL0     H85452  10.302   4.196   1.631  0.5049  2.6406 -1.2616
  633MOL0     H85453  10.127   4.551   1.505  1.4071  0.8323 -0.0318
  633MOL0     H85454  10.573   3.928   1.729 -2.2839 -0.3980  1.5795
  633MOL0     H85455  10.805   3.880   1.676 -2.7287  1.0431 -1.3306
  634MOL0     O85456   6.830   2.953   6.185 -0.1861  0.6672  0.0428
  634MOL0     C85457   6.791   3.061   6.223  0.2861  0.9980  0.2946
  634MOL0     O85458   6.807   3.179   6.158  0.2419 -0.5813  0.3045
  634MOL0     C85459   6.858   3.195   6.032  0.2494 -0.5808  0.3491
  634MOL0     C85460   6.869   3.325   6.012 -0.2160 -0.1428 -0.9327
  634MOL0     C85461   6.921   3.378   5.885 -0.2013 -0.1126 -0.0097
  634MOL0     C85462   6.955   3.285   5.782 -0.3443  0.2716  0.5408
  634MOL0     O85463   6.984   3.342   5.657  0.8306 -0.1490  0.5182
  634MOL0     C85464   7.075   3.263   5.574  0.4668 -0.1974  0.2420
  634MOL0     C85465   7.215   3.287   5.627 -0.2929 -1.3215 -0.5390
  634MOL0     C85466   7.311   3.188   5.563 -0.6085  0.8646 -0.1072
  634MOL0     C85467   7.365   3.246   5.436 -0.1194  0.4747 -0.6672
  634MOL0     C85468   7.463   3.157   5.366 -0.1557  0.6734  0.3155
  634MOL0     C85469   7.553   3.064   5.452 -0.0598  0.0514  0.1290
  634MOL0     C85470   7.639   3.161   5.539 -0.0355  0.2001  0.2009
  634MOL0     C85471   7.749   3.236   5.470 -0.3020  0.0561 -0.9286
  634MOL0     N85472   7.847   3.284   5.572 -0.1650 -0.7969 -0.3226
  634MOL0     C85473   7.974   3.227   5.573 -0.1235  0.7042  1.2137
  634MOL0     C85474   8.057   3.316   5.628  0.4206 -0.2649 -0.2827
  634MOL0     C85475   8.201   3.311   5.610  0.0757 -0.5424  0.3725
  634MOL0     C85476   8.243   3.359   5.474  0.5179 -0.7307 -0.2419
  634MOL0     C85477   8.190   3.493   5.452  0.1026  1.0440  0.6602
  634MOL0     C85478   8.215   3.609   5.554  0.4145 -0.4961  0.8484
  634MOL0     O85479   8.356   3.624   5.589  0.3221 -0.2943  0.7199
  634MOL0     C85480   8.407   3.749   5.608  0.4129  0.0798 -0.6145
  634MOL0     C85481   8.514   3.797   5.537 -0.2040  0.7259  0.0716
  634MOL0     C85482   8.558   3.929   5.538 -0.2253  0.7799 -0.3658
  634MOL0     C85483   8.690   3.960   5.463  0.5560  0.0662  0.2661
  634MOL0     C85484   8.493   4.017   5.626 -0.2960  0.3499  0.6396
  634MOL0     C85485   8.551   4.156   5.652  0.0460 -0.1937  0.0847
  634MOL0     O85486   8.477   4.240   5.739  0.1074  0.3619 -0.4250
  634MOL0     C85487   8.535   4.364   5.750 -0.3597  0.7385 -0.0330
  634MOL0     C85488   8.526   4.453   5.651 -0.2292 -0.6096  0.8663
  634MOL0     C85489   8.561   4.582   5.675 -0.7658  0.8816 -0.1003
  634MOL0     C85490   8.624   4.618   5.795  0.7978  0.2688  1.2333
  634MOL0     O85491   8.671   4.747   5.812  0.4748 -0.7414 -1.0313
  634MOL0     C85492   8.703   4.799   5.945  0.5941  0.9356 -0.2850
  634MOL0     C85493   8.646   4.941   5.957 -0.8157  0.3210  0.5753
  634MOL0     C85494   8.673   5.007   6.089  0.4368 -0.4198  0.0589
  634MOL0     C85495   8.624   4.932   6.207  0.1875 -0.5270 -1.1006
  634MOL0     C85496   8.670   4.986   6.343  0.3589 -0.0665 -0.3178
  634MOL0     C85497   8.637   4.889   6.455  0.9549 -0.2851  0.2753
  634MOL0     C85498   8.635   4.951   6.595 -0.7040 -0.5497  0.6212
  634MOL0     C85499   8.544   4.895   6.697  0.3556  0.5520 -0.2659
  634MOL0    Cl85500   8.424   5.014   6.768 -0.3327 -0.0135  0.1272
  634MOL0     C85501   8.638   4.520   5.891  0.3045  0.3024 -0.1553
  634MOL0     C85502   8.587   4.398   5.873  0.9927 -0.5358 -0.0869
  634MOL0     O85503   8.650   4.197   5.595 -0.6367 -0.0404  0.4625
  634MOL0     C85504   8.382   3.969   5.696  0.2960  0.4479  0.6835
  634MOL0     C85505   8.337   3.837   5.690 -0.3174 -0.7586 -0.0598
  634MOL0     N85506   7.972   3.421   5.672  0.1807  0.4936 -0.1970
  634MOL0     N85507   7.849   3.404   5.636  0.0598 -0.2724  0.2225
  634MOL0     C85508   6.932   3.152   5.800 -0.6344  0.7158 -0.3925
  634MOL0     C85509   6.892   3.108   5.929  0.4524  0.2980  0.6047
  634MOL0     C85510   6.717   3.060   6.349  0.3591 -0.4767 -0.2968
  634MOL0     C85511   6.702   3.171   6.424 -0.2554  0.4772 -0.6876
  634MOL0     C85512   6.644   3.173   6.555 -1.1268  0.9231 -1.0085
  634MOL0     C85513   6.581   3.051   6.603  0.2355 -0.1789 -0.2510
  634MOL0     O85514   6.528   3.031   6.724 -0.0264 -0.3491 -0.3034
  634MOL0     C85515   6.428   3.125   6.763 -0.2259  0.5860 -0.8006
  634MOL0     C85516   6.339   3.185   6.661  0.5184 -0.0613  0.6920
  634MOL0     C85517   6.260   3.077   6.587  0.0949 -0.1263 -0.4939
  634MOL0     C85518   6.143   3.136   6.506 -0.2021  0.8776  1.2467
  634MOL0     C85519   6.026   3.173   6.585  0.3526 -0.2890  0.8235
  634MOL0     C85520   5.937   3.181   6.660  0.3630  0.0135 -1.4169
  634MOL0     C85521   6.583   2.937   6.524 -0.9626  0.2543 -0.0052
  634MOL0     C85522   6.654   2.946   6.400 -0.2480 -0.0989  0.4544
  634MOL0     H85523   6.838   3.399   6.085 -2.7884  2.4309 -4.2929
  634MOL0     H85524   6.934   3.485   5.874 -2.1868  0.0323 -1.6125
  634MOL0     H85525   7.049   3.157   5.564 -0.7747  0.1550 -0.4497
  634MOL0     H85526   7.077   3.298   5.470  0.7637 -2.1667 -0.4519
  634MOL0     H85527   7.244   3.391   5.612  0.0142 -0.9487  2.2253
  634MOL0     H85528   7.223   3.273   5.735 -4.1150  1.4611  0.3143
  634MOL0     H85529   7.389   3.152   5.631 -3.4573 -2.8806  1.5502
  634MOL0     H85530   7.250   3.098   5.546 -0.7346  0.9501 -0.1031
  634MOL0     H85531   7.279   3.249   5.368  1.1334 -0.2333 -2.3481
  634MOL0     H85532   7.403   3.347   5.456  5.8003 -1.4909 -0.0894
  634MOL0     H85533   7.406   3.082   5.311 -1.6614  1.6139  0.5388
  634MOL0     H85534   7.526   3.208   5.293  1.1761 -0.8525  0.3458
  634MOL0     H85535   7.510   2.981   5.510  0.8103 -0.7510 -0.3566
  634MOL0     H85536   7.620   3.023   5.376  0.8996  1.0444  0.4292
  634MOL0     H85537   7.587   3.235   5.601  2.1578 -0.6423  3.2985
  634MOL0     H85538   7.687   3.100   5.616  2.2049  1.9939  0.3156
  634MOL0     H85539   7.691   3.316   5.424 -1.1716  0.5618  0.9188
  634MOL0     H85540   7.800   3.184   5.389  2.3830 -0.7474  1.1013
  634MOL0     H85541   8.016   3.137   5.530  3.1866  3.2736 -1.4672
  634MOL0     H85542   8.260   3.346   5.695  3.6113 -6.1484  0.6904
  634MOL0     H85543   8.223   3.205   5.601 -0.2895 -0.5588 -0.3981
  634MOL0     H85544   8.215   3.288   5.395  0.6548 -0.1930 -0.7789
  634MOL0     H85545   8.351   3.352   5.463  0.4331 -0.6091 -1.2594
  634MOL0     H85546   8.083   3.496   5.430  0.2758  5.6872 -0.5234
  634MOL0     H85547   8.244   3.518   5.360 -0.0171  1.4133  0.6903
  634MOL0     H85548   8.146   3.599   5.639  0.5346  1.6955  1.2557
  634MOL0     H85549   8.198   3.702   5.500 -0.6683 -0.3934  1.3483
  634MOL0     H85550   8.562   3.724   5.472 -0.1806  0.3445  0.5114
  634MOL0     H85551   8.763   3.994   5.537  0.0499  0.9945  0.3639
  634MOL0     H85552   8.724   3.868   5.416 -1.3367 -1.2939  1.3898
  634MOL0     H85553   8.682   4.036   5.385  0.4916 -0.7244 -0.5122
  634MOL0     H85554   8.460   4.424   5.569 -2.4432  1.9286  1.5735
  634MOL0     H85555   8.541   4.654   5.596  3.1733  0.2962 -1.8760
  634MOL0     H85556   8.645   4.741   6.018  0.1577 -0.2909 -1.5601
  634MOL0     H85557   8.810   4.805   5.967  0.2661 -1.4209  2.4815
  634MOL0     H85558   8.691   5.006   5.881 -3.0047  1.3746  0.0910
  634MOL0     H85559   8.542   4.935   5.925 -0.2815  2.5774 -2.0170
  634MOL0     H85560   8.631   5.108   6.087  1.1229 -0.1200  0.3777
  634MOL0     H85561   8.781   5.023   6.091  0.6079 -1.3229 -0.9208
  634MOL0     H85562   8.515   4.940   6.204 -0.0726  0.0217  3.2853
  634MOL0     H85563   8.662   4.830   6.221  1.3708  0.0449  0.0954
  634MOL0     H85564   8.615   5.081   6.352 -1.6501 -1.2640  0.7605
  634MOL0     H85565   8.776   5.014   6.344  0.4431 -0.3913  0.2094
  634MOL0     H85566   8.532   4.872   6.427  1.1180 -1.1148  0.1375
  634MOL0     H85567   8.683   4.790   6.444 -0.1527 -0.5577 -3.2381
  634MOL0     H85568   8.631   5.060   6.585  2.4491 -0.5292 -1.8327
  634MOL0     H85569   8.737   4.945   6.635  1.4049 -0.8052 -4.1757
  634MOL0     H85570   8.604   4.851   6.778  0.4603 -1.4525 -1.3835
  634MOL0     H85571   8.497   4.810   6.648  1.0127 -1.1145  1.7931
  634MOL0     H85572   8.700   4.540   5.978  2.1088  0.9243 -1.5140
  634MOL0     H85573   8.592   4.321   5.949  1.0005 -0.2903  0.1596
  634MOL0     H85574   8.335   4.038   5.764 -2.4199  0.6503 -1.2180
  634MOL0     H85575   8.255   3.796   5.748  0.2263 -4.7612 -1.8106
  634MOL0     H85576   6.941   3.083   5.717  0.6256 -1.0487  1.1264
  634MOL0     H85577   6.879   3.001   5.942  0.1846  0.1488 -0.6683
  634MOL0     H85578   6.761   3.259   6.401  1.4707 -1.2967 -3.8278
  634MOL0     H85579   6.639   3.261   6.617 -0.4814  0.2709  0.0021
  634MOL0     H85580   6.362   3.074   6.835  0.7763  1.4665  0.8073
  634MOL0     H85581   6.478   3.206   6.818  0.1253 -0.2953  0.2234
  634MOL0     H85582   6.403   3.239   6.590  0.4785  0.8507  1.3380
  634MOL0     H85583   6.269   3.258   6.703 -0.0559  0.0977 -0.4866
  634MOL0     H85584   6.236   3.006   6.666  4.3945  0.4132  1.5653
  634MOL0     H85585   6.330   3.025   6.521  0.3701  1.3506 -1.4423
  634MOL0     H85586   6.109   3.061   6.435 -0.5904  0.1587  2.1622
  634MOL0     H85587   6.187   3.206   6.434  1.2225 -3.4164 -2.4980
  634MOL0     H85588   5.852   3.190   6.726  0.8634 -0.9923 -0.5942
  634MOL0     H85589   6.541   2.840   6.549 -1.1073 -0.5640 -3.0659
  634MOL0     H85590   6.646   2.861   6.334 -4.7314 -0.5651  1.2673
  635MOL0     O85591   0.565   1.014   4.491 -0.2814  0.4265 -0.0555
  635MOL0     C85592   0.579   1.021   4.611  0.3191 -0.2682 -0.5452
  635MOL0     O85593   0.483   0.996   4.706 -0.4842 -0.3159  0.0402
  635MOL0     C85594   0.373   0.903   4.690 -1.1694  0.3254 -0.6184
  635MOL0     C85595   0.335   0.850   4.562 -0.4450  0.5409  0.5510
  635MOL0     C85596   0.245   0.744   4.556  0.0695 -0.0685 -0.3355
  635MOL0     C85597   0.192   0.678   4.673 -0.3523 -0.0803  0.0314
  635MOL0     O85598   0.136   0.553   4.673  0.5272 -0.8883  0.0469
  635MOL0     C85599   0.145   0.457   4.578 -1.1174  0.2149  0.6078
  635MOL0     C85600   0.118   0.317   4.630 -0.6873 -0.0026 -0.4570
  635MOL0     C85601   0.127   0.214   4.519 -0.3403  0.1110 -0.0432
  635MOL0     C85602   0.116   0.072   4.578  0.3560  0.0688 -0.2254
  635MOL0     C85603   0.101  -0.029   4.473 -0.4486  0.6012  0.2332
  635MOL0     C85604   0.211  -0.041   4.356  0.2330  0.3072  0.7411
  635MOL0     C85605   0.183  -0.160   4.258  0.5793 -1.0789 -0.5707
  635MOL0     C85606   0.248  -0.297   4.307 -0.8560 -0.6022 -0.4282
  635MOL0     N85607   0.396  -0.302   4.313  0.4914  0.4257 -1.3828
  635MOL0     C85608   0.468  -0.343   4.203  0.3238 -1.1884 -0.3650
  635MOL0     C85609   0.597  -0.338   4.243 -0.3249 -0.4695  0.0260
  635MOL0     C85610   0.723  -0.356   4.157  0.1025 -0.7694  0.2623
  635MOL0     C85611   0.803  -0.492   4.182 -0.0107 -0.4182 -0.3705
  635MOL0     C85612   0.919  -0.492   4.092 -0.0980 -0.0260 -0.1763
  635MOL0     C85613   1.025  -0.390   4.140  1.2544 -0.5090 -0.4707
  635MOL0     O85614   1.136  -0.411   4.061 -0.2634 -0.3849  1.2460
  635MOL0     C85615   1.246  -0.345   4.107 -1.9349 -0.0753 -1.3693
  635MOL0     C85616   1.352  -0.411   4.165 -0.4018  0.1696 -0.9636
  635MOL0     C85617   1.469  -0.344   4.201 -0.1739  0.5249  0.6802
  635MOL0     C85618   1.579  -0.418   4.270  0.0062  0.6953  0.6811
  635MOL0     C85619   1.475  -0.203   4.183 -0.6351 -0.1198 -1.0100
  635MOL0     C85620   1.600  -0.118   4.210 -0.0068  0.7622  0.0063
  635MOL0     O85621   1.721  -0.181   4.210 -0.2614 -0.1672 -0.5192
  635MOL0     C85622   1.827  -0.101   4.218 -1.2004  0.0898 -0.3921
  635MOL0     C85623   1.840  -0.001   4.125  0.3617 -0.3678 -0.5602
  635MOL0     C85624   1.958   0.080   4.136  0.8157 -0.8429  0.3026
  635MOL0     C85625   2.067   0.050   4.215 -0.1096 -1.1631 -0.3745
  635MOL0     O85626   2.187   0.115   4.209 -0.1317  0.4067  0.0912
  635MOL0     C85627   2.224   0.153   4.068 -0.0520 -0.3956 -0.4489
  635MOL0     C85628   2.374   0.161   4.067  0.9397  0.0441  0.4047
  635MOL0     C85629   2.439   0.028   4.087  0.3152 -0.7565  0.0308
  635MOL0     C85630   2.596   0.034   4.066  0.2800 -0.8220 -0.7348
  635MOL0     C85631   2.674  -0.098   4.066  0.0736  0.8083  0.7535
  635MOL0     C85632   2.696  -0.142   4.219 -0.1183  0.6194 -0.6218
  635MOL0     C85633   2.711  -0.295   4.229 -0.2531  0.6412 -0.9949
  635MOL0     C85634   2.823  -0.336   4.326  0.2332 -0.0515 -0.1244
  635MOL0    Cl85635   2.800  -0.506   4.379  0.1712  0.0298  0.0468
  635MOL0     C85636   2.058  -0.061   4.304  0.2492 -0.3658 -0.3591
  635MOL0     C85637   1.944  -0.140   4.300  0.2616 -0.4614  0.5439
  635MOL0     O85638   1.578  -0.003   4.258 -0.6705  0.3254 -0.2868
  635MOL0     C85639   1.361  -0.140   4.146  0.1908  0.9226  0.4176
  635MOL0     C85640   1.256  -0.212   4.094  0.7310  0.2707 -0.8743
  635MOL0     N85641   0.599  -0.309   4.380 -0.9524 -0.4577  0.1968
  635MOL0     N85642   0.482  -0.278   4.410 -0.1466  0.7803 -0.0029
  635MOL0     C85643   0.214   0.741   4.799 -0.5235 -0.3565 -0.2958
  635MOL0     C85644   0.305   0.848   4.805  0.1081 -0.5407  0.2576
  635MOL0     C85645   0.697   1.103   4.663 -0.4856  0.2119  0.7361
  635MOL0     C85646   0.703   1.148   4.797 -0.5456 -0.0509  1.0947
  635MOL0     C85647   0.814   1.229   4.834  0.1576  0.2470 -0.1803
  635MOL0     C85648   0.926   1.248   4.745 -0.0993  0.2558 -0.6655
  635MOL0     O85649   1.052   1.299   4.770  0.8326 -0.4878 -0.6112
  635MOL0     C85650   1.094   1.307   4.902  0.2849  0.1859 -0.5858
  635MOL0     C85651   1.121   1.163   4.942  0.4387 -0.6181  0.4369
  635MOL0     C85652   1.153   1.136   5.095 -0.4134 -0.6602 -0.0067
  635MOL0     C85653   1.178   1.000   5.133  0.3341  0.4596  0.3442
  635MOL0     C85654   1.060   0.933   5.191  1.1797 -0.1951  0.2597
  635MOL0     C85655   0.965   0.864   5.228  0.9396  0.6430 -0.5742
  635MOL0     C85656   0.918   1.189   4.618 -0.9309  0.4932 -0.2976
  635MOL0     C85657   0.801   1.127   4.569  0.5418 -0.2452 -0.7345
  635MOL0     H85658   0.382   0.888   4.472 -1.0434 -1.9179 -0.8786
  635MOL0     H85659   0.218   0.698   4.461  2.7786 -2.4691 -0.0699
  635MOL0     H85660   0.066   0.467   4.502  1.0971  0.4273 -1.8344
  635MOL0     H85661   0.244   0.450   4.530 -1.8232 -2.2706 -0.6919
  635MOL0     H85662   0.189   0.296   4.711 -1.3993 -0.6748  0.0134
  635MOL0     H85663   0.019   0.305   4.675  0.6010 -0.8037  2.3874
  635MOL0     H85664   0.052   0.243   4.445 -0.0045 -0.1108 -0.4756
  635MOL0     H85665   0.226   0.222   4.473 -1.1339 -0.9111 -2.0336
  635MOL0     H85666   0.218   0.048   4.610  0.1630 -2.4034 -1.2390
  635MOL0     H85667   0.036   0.055   4.651 -0.1299  0.6555 -0.6072
  635MOL0     H85668   0.119  -0.120   4.531 -1.0863  0.1782 -0.2234
  635MOL0     H85669   0.004  -0.039   4.424 -1.4579 -3.2810  2.5878
  635MOL0     H85670   0.207   0.046   4.290  1.9644 -1.0371 -1.2385
  635MOL0     H85671   0.316  -0.040   4.388  0.2817 -0.8023  0.6412
  635MOL0     H85672   0.077  -0.159   4.231  0.0420 -4.7104  0.8594
  635MOL0     H85673   0.217  -0.132   4.158 -1.1671  1.3618 -0.5577
  635MOL0     H85674   0.213  -0.372   4.235 -0.0958 -0.3574 -1.0726
  635MOL0     H85675   0.206  -0.339   4.399 -1.2415 -2.2858 -1.3322
  635MOL0     H85676   0.440  -0.349   4.099  1.1562  3.2372 -1.0680
  635MOL0     H85677   0.682  -0.356   4.055  0.9598  2.5215 -0.2042
  635MOL0     H85678   0.780  -0.266   4.180 -1.9551  0.2001  1.9641
  635MOL0     H85679   0.742  -0.569   4.134  0.0676  0.0874 -1.3080
  635MOL0     H85680   0.827  -0.516   4.286  1.0375  1.0087 -0.2585
  635MOL0     H85681   0.898  -0.470   3.987 -3.2055  2.2260  0.7578
  635MOL0     H85682   0.965  -0.590   4.080  0.7517  0.5406 -1.9208
  635MOL0     H85683   1.036  -0.410   4.248 -0.3628  0.5904 -0.0740
  635MOL0     H85684   0.986  -0.288   4.137 -0.1991 -0.9803 -5.2741
  635MOL0     H85685   1.328  -0.516   4.177  0.5997 -0.1211 -1.3945
  635MOL0     H85686   1.558  -0.517   4.312  5.2925  0.3779  3.5030
  635MOL0     H85687   1.670  -0.437   4.212  0.7878  3.6128  0.7971
  635MOL0     H85688   1.600  -0.368   4.365  1.6058 -1.4272  1.5458
  635MOL0     H85689   1.757   0.033   4.064  0.1605 -2.0661 -1.2805
  635MOL0     H85690   1.959   0.165   4.068  2.7717 -1.6229 -0.7198
  635MOL0     H85691   2.200   0.073   3.998  2.5879 -1.4516 -0.2745
  635MOL0     H85692   2.172   0.243   4.035  0.7955 -0.1362 -1.1375
  635MOL0     H85693   2.406   0.205   3.972 -2.7031  3.6505  0.5836
  635MOL0     H85694   2.408   0.222   4.151 -1.8838  0.9170  1.0060
  635MOL0     H85695   2.396  -0.032   4.006 -0.2776  2.3350 -2.1299
  635MOL0     H85696   2.417  -0.019   4.183  0.3170 -3.4168 -1.1764
  635MOL0     H85697   2.616   0.090   3.974  1.3422  1.1091  0.5806
  635MOL0     H85698   2.639   0.102   4.140  1.0399 -3.3069  1.2293
  635MOL0     H85699   2.772  -0.094   4.017  0.4771 -2.6325  1.0145
  635MOL0     H85700   2.620  -0.172   4.005  1.1738  2.5087 -2.5220
  635MOL0     H85701   2.783  -0.087   4.253  0.8135  1.8295 -4.4714
  635MOL0     H85702   2.608  -0.121   4.281 -1.4032 -1.0229 -1.7601
  635MOL0     H85703   2.744  -0.331   4.131  1.0928  1.0399 -0.7178
  635MOL0     H85704   2.620  -0.349   4.256 -0.9267  2.2241  0.0575
  635MOL0     H85705   2.825  -0.279   4.420  1.1699 -2.2365  1.2350
  635MOL0     H85706   2.918  -0.315   4.276 -0.0879 -3.8800 -2.7837
  635MOL0     H85707   2.138  -0.089   4.371  0.3577  0.6890 -0.0234
  635MOL0     H85708   1.947  -0.231   4.359  2.4640 -1.6089 -1.1862
  635MOL0     H85709   1.352  -0.033   4.130  0.2723  0.9399  0.4887
  635MOL0     H85710   1.169  -0.169   4.046 -3.0046 -1.0973  3.8449
  635MOL0     H85711   0.196   0.717   4.904  0.0777  3.7195  0.9317
  635MOL0     H85712   0.333   0.894   4.899  0.2410 -3.8134  1.9401
  635MOL0     H85713   0.629   1.118   4.871 -0.9399  0.6476  0.9955
  635MOL0     H85714   0.826   1.259   4.938  0.2046  0.1607 -0.1609
  635MOL0     H85715   1.183   1.370   4.897  0.1392  0.3872 -0.6697
  635MOL0     H85716   1.024   1.356   4.971  1.5407  1.7963 -0.3893
  635MOL0     H85717   1.204   1.134   4.877 -1.1816 -1.2189 -1.4349
  635MOL0     H85718   1.035   1.098   4.924 -2.6267  3.2853 -0.5340
  635MOL0     H85719   1.073   1.176   5.157  0.9067  2.5760 -0.2184
  635MOL0     H85720   1.239   1.200   5.114  1.0538 -3.0149  1.8517
  635MOL0     H85721   1.264   0.971   5.193 -1.1118 -0.4793  2.0481
  635MOL0     H85722   1.209   0.951   5.040 -0.8337  0.7082 -0.2035
  635MOL0     H85723   0.881   0.806   5.258  1.3601 -0.8508 -2.1240
  635MOL0     H85724   0.996   1.201   4.544  0.4105 -2.6808  0.4558
  635MOL0     H85725   0.807   1.095   4.465  2.1766 -2.0960 -0.1371
  636MOL0     O85726   7.522  11.529  11.362  0.0547 -0.2695 -0.0443
  636MOL0     C85727   7.429  11.580  11.293 -0.2184 -0.6244  0.9988
  636MOL0     O85728   7.422  11.719  11.266 -0.0979 -0.3588  0.4100
  636MOL0     C85729   7.511  11.808  11.316  0.2131  0.7741 -0.7184
  636MOL0     C85730   7.471  11.926  11.372  0.0856 -0.0170 -0.5202
  636MOL0     C85731   7.562  12.029  11.417  0.8054  0.5387 -0.2331
  636MOL0     C85732   7.701  11.995  11.416  1.3922 -0.0077 -0.2139
  636MOL0     O85733   7.791  12.089  11.459  0.8893 -1.1090  0.2328
  636MOL0     C85734   7.904  12.122  11.385  1.3147  0.8480 -0.4567
  636MOL0     C85735   7.958  12.256  11.421 -0.0435  0.0504  0.8635
  636MOL0     C85736   7.852  12.357  11.425  0.0171 -0.2488 -0.8338
  636MOL0     C85737   7.816  12.394  11.570 -0.4172 -0.2594  0.9053
  636MOL0     C85738   7.689  12.484  11.579  0.2167  0.2367  0.4489
  636MOL0     C85739   7.690  12.594  11.692 -0.5377  0.4967  0.6386
  636MOL0     C85740   7.553  12.651  11.717  0.8260 -0.0728 -0.3101
  636MOL0     C85741   7.537  12.767  11.818  0.1194  0.2270  0.6998
  636MOL0     N85742   7.620  12.876  11.770 -0.4418 -0.0415 -0.2394
  636MOL0     C85743   7.737  12.922  11.823 -0.2116 -1.3268  0.1139
  636MOL0     C85744   7.756  13.038  11.761  0.3748 -0.3946 -0.3261
  636MOL0     C85745   7.869  13.135  11.787 -0.1745 -0.1948  0.7734
  636MOL0     C85746   8.009  13.092  11.745 -0.7294 -0.5107 -0.1978
  636MOL0     C85747   8.060  12.957  11.792  0.2422  0.5512  0.2281
  636MOL0     C85748   8.209  12.912  11.759  0.1109 -0.4862 -1.1739
  636MOL0     O85749   8.314  13.009  11.807  0.5407 -0.5461 -0.7196
  636MOL0     C85750   8.430  12.999  11.747  0.3675 -0.6941  0.5480
  636MOL0     C85751   8.507  13.116  11.737 -0.7749  0.9163 -0.2041
  636MOL0     C85752   8.644  13.118  11.690 -0.3162  0.7197  0.9677
  636MOL0     C85753   8.714  13.252  11.721 -0.2988 -0.1055 -0.6938
  636MOL0     C85754   8.686  12.996  11.639  0.0610 -0.2299 -0.2421
  636MOL0     C85755   8.803  12.987  11.553  0.1000 -0.1854  0.2004
  636MOL0     O85756   8.853  12.860  11.536 -0.5195 -0.7409 -0.2503
  636MOL0     C85757   8.970  12.825  11.480  0.5676 -0.4137 -0.2574
  636MOL0     C85758   9.078  12.903  11.447 -0.1850 -1.0433  0.3163
  636MOL0     C85759   9.189  12.846  11.383 -0.8473  0.0203 -0.8156
  636MOL0     C85760   9.197  12.708  11.369  0.3973 -0.0191 -0.5404
  636MOL0     O85761   9.298  12.651  11.301 -0.5746  0.8960 -0.1728
  636MOL0     C85762   9.252  12.566  11.196  0.1940 -0.0378  0.3174
  636MOL0     C85763   9.365  12.537  11.106 -0.4010 -0.5303  0.3188
  636MOL0     C85764   9.427  12.662  11.033 -0.0341  0.3341 -0.0603
  636MOL0     C85765   9.564  12.640  10.965  1.3668 -0.1113 -0.9371
  636MOL0     C85766   9.627  12.777  10.949 -1.0004  0.7606  0.0884
  636MOL0     C85767   9.755  12.764  10.859  0.1280  0.4479 -0.2167
  636MOL0     C85768   9.865  12.669  10.902  1.0155  0.2483 -0.9945
  636MOL0     C85769   9.952  12.688  11.027 -0.0008 -0.7385  0.3477
  636MOL0    Cl85770   9.991  12.857  11.064  0.6909  0.2673  0.3514
  636MOL0     C85771   9.089  12.629  11.420 -0.4802 -0.0529  1.0367
  636MOL0     C85772   8.976  12.690  11.475  0.2042  0.9605 -0.8083
  636MOL0     O85773   8.850  13.086  11.502  0.0242  0.4492 -0.2436
  636MOL0     C85774   8.604  12.879  11.644 -1.0685 -0.4621 -0.5920
  636MOL0     C85775   8.479  12.883  11.707 -0.9222  0.2584 -0.2573
  636MOL0     N85776   7.651  13.065  11.675 -0.4160 -1.0032 -0.4003
  636MOL0     N85777   7.575  12.972  11.679  0.5284 -0.0493 -0.1584
  636MOL0     C85778   7.745  11.871  11.363  0.5711 -0.6900  0.2599
  636MOL0     C85779   7.652  11.784  11.312  0.0036  0.3916 -0.1666
  636MOL0     C85780   7.350  11.482  11.218  0.2935  0.1769  0.2732
  636MOL0     C85781   7.398  11.352  11.201 -0.4517  0.3637  0.4393
  636MOL0     C85782   7.316  11.261  11.133  0.1782  0.6612  0.7991
  636MOL0     C85783   7.182  11.288  11.097  1.3568  0.0428 -0.6375
  636MOL0     O85784   7.108  11.183  11.050 -0.6360  0.6282  0.0281
  636MOL0     C85785   6.971  11.193  11.015  0.0216  0.5026 -0.3511
  636MOL0     C85786   6.915  11.070  10.953  0.7620  0.0435 -0.2018
  636MOL0     C85787   6.951  11.044  10.810 -0.5824  0.9019  0.4810
  636MOL0     C85788   7.041  10.917  10.796  0.3758  0.3581 -0.0896
  636MOL0     C85789   7.115  10.919  10.671  0.7028  0.1216  0.3951
  636MOL0     C85790   7.168  10.936  10.566  0.1951  0.0122 -0.1988
  636MOL0     C85791   7.137  11.413  11.115  0.0972  0.1549  0.8775
  636MOL0     C85792   7.219  11.515  11.170  0.3103  0.2124  0.7392
  636MOL0     H85793   7.364  11.940  11.386 -0.8092 -4.4185 -1.4785
  636MOL0     H85794   7.531  12.123  11.461 -1.3215 -0.9458  1.7679
  636MOL0     H85795   7.974  12.039  11.400 -1.2610 -1.1960  1.1498
  636MOL0     H85796   7.873  12.129  11.281  1.6237  2.1565 -0.4761
  636MOL0     H85797   8.015  12.246  11.514  3.1709  5.2758 -0.1441
  636MOL0     H85798   8.036  12.284  11.350 -0.2236 -2.6255 -0.4970
  636MOL0     H85799   7.894  12.447  11.379  0.7009 -0.7969 -1.3152
  636MOL0     H85800   7.768  12.318  11.368 -2.4667  2.9824  0.3020
  636MOL0     H85801   7.807  12.305  11.634 -2.0135 -0.2662  0.7078
  636MOL0     H85802   7.892  12.461  11.611 -1.7564  1.2427  1.0269
  636MOL0     H85803   7.682  12.532  11.481  1.8600  3.0388  1.5946
  636MOL0     H85804   7.607  12.412  11.576 -2.0231  2.6536 -1.4098
  636MOL0     H85805   7.729  12.544  11.781 -1.4847 -4.4081 -1.3871
  636MOL0     H85806   7.765  12.667  11.660  2.8933 -3.0714 -0.2361
  636MOL0     H85807   7.510  12.691  11.624  2.4810  1.1407 -0.5833
  636MOL0     H85808   7.488  12.567  11.746  3.2507 -0.7366  3.9424
  636MOL0     H85809   7.572  12.733  11.916 -1.2165  1.1292  1.5159
  636MOL0     H85810   7.431  12.792  11.810 -0.1254 -0.9456  0.0459
  636MOL0     H85811   7.788  12.873  11.905  0.3458 -2.9005 -1.1233
  636MOL0     H85812   7.836  13.229  11.740  1.4152  0.1885  0.3856
  636MOL0     H85813   7.870  13.150  11.896 -0.3414  1.4203  0.5812
  636MOL0     H85814   8.072  13.171  11.787 -0.6662 -2.0407  2.8613
  636MOL0     H85815   8.010  13.080  11.637 -1.1469 -1.3875 -0.1169
  636MOL0     H85816   8.002  12.875  11.749  0.2985  1.2065 -1.1199
  636MOL0     H85817   8.043  12.972  11.900  1.4583  0.5747  0.4228
  636MOL0     H85818   8.200  12.904  11.650  1.2748 -2.6341 -1.1404
  636MOL0     H85819   8.239  12.818  11.804  1.9372 -0.0781 -1.4539
  636MOL0     H85820   8.462  13.200  11.789  0.4542  0.8551  1.0203
  636MOL0     H85821   8.734  13.306  11.628  0.8921  0.0264 -0.3802
  636MOL0     H85822   8.656  13.303  11.799  3.9936  0.1277  2.8107
  636MOL0     H85823   8.812  13.222  11.760 -0.5010 -2.0559 -1.5494
  636MOL0     H85824   9.082  13.011  11.455  2.7849 -0.9099 -1.3662
  636MOL0     H85825   9.258  12.915  11.335 -2.8860  1.0003 -2.5178
  636MOL0     H85826   9.230  12.469  11.241 -0.2454 -0.6786 -1.2116
  636MOL0     H85827   9.179  12.607  11.125  0.5407 -0.5081 -0.3211
  636MOL0     H85828   9.440  12.481  11.162  1.0640  0.2439 -0.7972
  636MOL0     H85829   9.332  12.473  11.023 -0.7916  0.2637 -0.1453
  636MOL0     H85830   9.435  12.740  11.110 -1.7503 -0.0502  0.5508
  636MOL0     H85831   9.350  12.699  10.965 -2.8872 -0.9426  2.2619
  636MOL0     H85832   9.633  12.588  11.033  2.4186 -1.4641 -2.9257
  636MOL0     H85833   9.566  12.578  10.875 -2.4771  0.4566 -1.5839
  636MOL0     H85834   9.649  12.829  11.042 -0.9936 -1.3968  1.3411
  636MOL0     H85835   9.557  12.835  10.887  2.2824  1.1367 -3.6962
  636MOL0     H85836   9.723  12.727  10.761  2.6768  0.6312 -1.2061
  636MOL0     H85837   9.802  12.860  10.834 -0.5317  1.8244  3.2953
  636MOL0     H85838   9.929  12.664  10.813 -1.1733  2.4814 -2.8515
  636MOL0     H85839   9.822  12.568  10.904 -0.6510  0.9413  0.6201
  636MOL0     H85840  10.034  12.616  11.027  0.2475 -0.5364  2.5171
  636MOL0     H85841   9.884  12.669  11.110 -0.7967  1.5980  0.3267
  636MOL0     H85842   9.092  12.522  11.400  1.2109  0.1900 -0.2444
  636MOL0     H85843   8.902  12.615  11.501 -1.4909  3.2222  1.3530
  636MOL0     H85844   8.643  12.785  11.604 -0.4950  0.1258 -1.4497
  636MOL0     H85845   8.417  12.793  11.700 -1.4383  0.6673 -1.0619
  636MOL0     H85846   7.851  11.852  11.372  0.0929 -3.6181  0.6068
  636MOL0     H85847   7.695  11.697  11.265  2.5134 -0.3913  3.1623
  636MOL0     H85848   7.497  11.321  11.233  0.1304  2.0839  0.4014
  636MOL0     H85849   7.357  11.167  11.099  1.4008  2.1833 -2.4434
  636MOL0     H85850   6.906  11.218  11.099 -0.5230  1.9523 -1.1693
  636MOL0     H85851   6.967  11.275  10.943  1.2461  0.3613 -0.6018
  636MOL0     H85852   6.808  11.092  10.947  0.2991 -2.3227 -2.3379
  636MOL0     H85853   6.938  10.981  11.013  2.8009  0.4677 -0.2867
  636MOL0     H85854   7.001  11.133  10.773  0.4639  0.1835  0.1291
  636MOL0     H85855   6.857  11.033  10.754 -0.5267 -1.1667  0.6995
  636MOL0     H85856   6.981  10.828  10.816  0.1743  1.1329  3.1862
  636MOL0     H85857   7.116  10.921  10.876  0.5926  0.5608 -0.3004
  636MOL0     H85858   7.200  10.924  10.464  1.7856 -1.7946  0.4513
  636MOL0     H85859   7.029  11.421  11.126 -0.4850 -1.2304 -2.7800
  636MOL0     H85860   7.182  11.615  11.191  0.6157  1.0076 -2.1006
  637MOL0     O85861   7.430  10.525   0.861  1.0135  0.0475 -0.2647
  637MOL0     C85862   7.548  10.563   0.834  0.1152  0.7772  0.5869
  637MOL0     O85863   7.662  10.496   0.865  0.7852  0.0685  0.3705
  637MOL0     C85864   7.671  10.396   0.963  0.1789 -0.0820  0.2988
  637MOL0     C85865   7.558  10.331   1.007 -0.3810  0.1445  0.1859
  637MOL0     C85866   7.568  10.239   1.110 -0.0843  0.8263  0.0590
  637MOL0     C85867   7.686  10.192   1.166 -0.7957 -1.1966 -0.1641
  637MOL0     O85868   7.687  10.102   1.265  0.2107  0.1606 -0.3287
  637MOL0     C85869   7.778  10.107   1.366  0.6252  0.9707  0.1057
  637MOL0     C85870   7.710  10.092   1.498  0.1175 -0.2639  0.0390
  637MOL0     C85871   7.806  10.119   1.617  0.6411  0.4598 -0.5824
  637MOL0     C85872   7.745  10.065   1.743 -0.2379  0.0529 -0.7208
  637MOL0     C85873   7.835  10.063   1.867 -0.0657 -0.2221  0.8875
  637MOL0     C85874   7.758   9.984   1.980 -0.0627 -1.4289 -0.4024
  637MOL0     C85875   7.807  10.000   2.119 -0.8274 -0.3014 -0.8985
  637MOL0     C85876   7.790  10.131   2.184 -0.1172 -0.6071  0.7299
  637MOL0     N85877   7.675  10.209   2.146  0.4535  0.0841  0.5697
  637MOL0     C85878   7.568  10.251   2.229 -0.1081 -0.1709  0.5635
  637MOL0     C85879   7.505  10.351   2.157 -0.0154  1.3253 -0.3518
  637MOL0     C85880   7.386  10.424   2.216  0.4484 -0.5208 -0.1208
  637MOL0     C85881   7.407  10.576   2.192  1.2386 -0.4902  0.4010
  637MOL0     C85882   7.323  10.673   2.274  0.5061 -0.2284 -0.0734
  637MOL0     C85883   7.177  10.663   2.245 -0.3816  0.4590  0.7291
  637MOL0     O85884   7.110  10.549   2.301 -0.0598  0.4144  0.0962
  637MOL0     C85885   6.969  10.534   2.280  0.9600  0.1611  0.1068
  637MOL0     C85886   6.895  10.609   2.369 -0.6107  0.5598  1.7285
  637MOL0     C85887   6.762  10.605   2.368  0.2625 -0.7864  0.2807
  637MOL0     C85888   6.684  10.673   2.477  0.0122  0.7660 -0.7595
  637MOL0     C85889   6.687  10.520   2.276 -0.0375  0.2536 -0.4306
  637MOL0     C85890   6.546  10.506   2.262  0.1877 -0.2887 -0.5685
  637MOL0     O85891   6.489  10.377   2.237  0.0974 -0.6123 -0.5125
  637MOL0     C85892   6.365  10.338   2.288 -0.6662 -0.2300  0.6147
  637MOL0     C85893   6.342  10.333   2.428 -0.4362  0.2000  0.8997
  637MOL0     C85894   6.229  10.288   2.487  0.0816 -0.2523 -0.1911
  637MOL0     C85895   6.123  10.241   2.401 -0.4248 -0.5394  0.2386
  637MOL0     O85896   6.002  10.212   2.451  0.4368  0.1908  1.1430
  637MOL0     C85897   5.905  10.135   2.383  0.5019  0.4144  0.2708
  637MOL0     C85898   5.929   9.986   2.374  0.0725  0.1791 -0.2897
  637MOL0     C85899   5.981   9.919   2.502 -0.3074  1.5396  0.7455
  637MOL0     C85900   5.997   9.763   2.461 -0.4375 -0.0628  0.2783
  637MOL0     C85901   6.026   9.662   2.580 -0.2436  0.0401  0.3463
  637MOL0     C85902   5.920   9.647   2.686 -0.0243  0.6958  0.2356
  637MOL0     C85903   5.981   9.592   2.825  0.4870  0.2507 -1.4660
  637MOL0     C85904   6.024   9.447   2.812  1.1946 -0.0105 -0.2196
  637MOL0    Cl85905   6.195   9.410   2.818 -0.3598  0.3399  0.6520
  637MOL0     C85906   6.149  10.239   2.259  0.2446 -0.4742 -0.3628
  637MOL0     C85907   6.271  10.282   2.209  1.1701  0.1117  0.0268
  637MOL0     O85908   6.481  10.615   2.287 -0.7791 -0.0676  0.7217
  637MOL0     C85909   6.766  10.443   2.189  0.3813 -0.5218  0.2476
  637MOL0     C85910   6.902  10.451   2.189  0.6928 -0.1605 -0.6674
  637MOL0     N85911   7.566  10.358   2.037 -0.5599 -0.5451  0.1953
  637MOL0     N85912   7.666  10.283   2.031 -0.4798 -0.4345 -0.1350
  637MOL0     C85913   7.800  10.263   1.122 -0.2067 -0.1586 -0.0398
  637MOL0     C85914   7.793  10.349   1.016 -0.3693 -0.4571  0.6047
  637MOL0     C85915   7.546  10.693   0.771  0.5301  1.1813 -0.2553
  637MOL0     C85916   7.663  10.744   0.727  0.1354 -0.4544 -0.3804
  637MOL0     C85917   7.672  10.872   0.667  0.3512 -0.0032  0.1297
  637MOL0     C85918   7.553  10.943   0.639  0.8007 -0.0802  0.5935
  637MOL0     O85919   7.546  11.064   0.578 -0.2463  0.4246 -0.1488
  637MOL0     C85920   7.582  11.068   0.438  0.1194  0.1479  0.3718
  637MOL0     C85921   7.527  11.192   0.361 -0.4107  1.0304 -0.4002
  637MOL0     C85922   7.371  11.212   0.367  0.2981 -0.2171 -0.6952
  637MOL0     C85923   7.343  11.355   0.297  0.1725  0.3287  0.1345
  637MOL0     C85924   7.363  11.350   0.158 -0.7522 -0.0809  1.0948
  637MOL0     C85925   7.378  11.340   0.035  0.6114 -0.0864 -0.9688
  637MOL0     C85926   7.437  10.900   0.687  0.1670 -0.5716 -0.0930
  637MOL0     C85927   7.433  10.781   0.759 -0.5411 -0.0120 -0.1715
  637MOL0     H85928   7.456  10.329   0.968 -1.3964  0.2549  2.6890
  637MOL0     H85929   7.478  10.194   1.151  0.3366  1.3223  1.5875
  637MOL0     H85930   7.867  10.044   1.360  2.8600  3.8967  0.0622
  637MOL0     H85931   7.824  10.205   1.383  1.3653  0.2886  2.2854
  637MOL0     H85932   7.633  10.170   1.500 -0.5419 -0.9173  2.0650
  637MOL0     H85933   7.656   9.998   1.506  0.6901 -0.4346  2.8483
  637MOL0     H85934   7.901  10.070   1.595  2.7094  4.7037 -2.2293
  637MOL0     H85935   7.839  10.223   1.620  1.1409  0.3008 -0.5431
  637MOL0     H85936   7.652  10.115   1.773 -0.1308  0.0826 -0.4348
  637MOL0     H85937   7.725   9.961   1.717  0.3022 -0.2837  0.1663
  637MOL0     H85938   7.924  10.003   1.848 -1.1024 -2.5417  2.8675
  637MOL0     H85939   7.854  10.166   1.899 -2.8634  1.7794 -3.0821
  637MOL0     H85940   7.658  10.028   1.980 -0.1727 -1.6512  0.7059
  637MOL0     H85941   7.749   9.877   1.956 -1.8453 -0.6885 -3.6380
  637MOL0     H85942   7.740   9.930   2.168 -1.0369  1.0275  0.7911
  637MOL0     H85943   7.906   9.957   2.136 -2.6948 -5.3545 -1.1020
  637MOL0     H85944   7.876  10.195   2.161 -0.0704 -1.1970 -0.8982
  637MOL0     H85945   7.797  10.131   2.293 -0.3427 -4.6954  0.8695
  637MOL0     H85946   7.555  10.226   2.334  1.7222 -0.0728  0.8392
  637MOL0     H85947   7.294  10.396   2.163 -0.2632  0.6230  0.4817
  637MOL0     H85948   7.366  10.410   2.323  0.6438 -2.5863 -0.3053
  637MOL0     H85949   7.405  10.597   2.085 -1.8990  1.7446  0.7443
  637MOL0     H85950   7.509  10.602   2.222  0.5901  1.6422  0.9723
  637MOL0     H85951   7.337  10.781   2.260 -1.8236  0.2193  0.6821
  637MOL0     H85952   7.343  10.656   2.381 -0.4250  2.5759  0.6313
  637MOL0     H85953   7.159  10.668   2.137  0.1548 -0.0052  0.6145
  637MOL0     H85954   7.139  10.753   2.294 -0.7053 -2.0554  5.6375
  637MOL0     H85955   6.949  10.669   2.442 -0.3031 -0.7800  2.6315
  637MOL0     H85956   6.754  10.713   2.551 -2.1953  0.2171  1.8083
  637MOL0     H85957   6.620  10.753   2.439 -0.6619  0.6593  0.1182
  637MOL0     H85958   6.613  10.607   2.528  0.5374  1.8650  1.5537
  637MOL0     H85959   6.427  10.370   2.486  2.9213 -2.0212 -2.1835
  637MOL0     H85960   6.195  10.304   2.588 -1.1542  1.0220 -0.7735
  637MOL0     H85961   5.811  10.152   2.438  0.9426 -1.3308  1.6571
  637MOL0     H85962   5.875  10.185   2.290  0.3016 -0.9725 -0.4516
  637MOL0     H85963   5.839   9.935   2.338  1.3436 -1.4108 -1.4090
  637MOL0     H85964   6.011   9.961   2.305  2.1820  0.9770  1.7924
  637MOL0     H85965   5.918   9.949   2.587 -0.0243  3.3517  0.3512
  637MOL0     H85966   6.082   9.953   2.525  0.4796 -0.0711 -0.1729
  637MOL0     H85967   5.908   9.724   2.411 -1.4223  0.0460  1.8611
  637MOL0     H85968   6.085   9.747   2.398 -0.1558 -1.0197  0.8890
  637MOL0     H85969   6.118   9.690   2.632 -0.5207 -0.6885  1.2414
  637MOL0     H85970   6.037   9.559   2.546  1.0763 -0.9419  3.3870
  637MOL0     H85971   5.882   9.749   2.694 -2.7742 -0.0183 -2.0104
  637MOL0     H85972   5.833   9.585   2.661  0.4391 -1.6611  3.7828
  637MOL0     H85973   5.911   9.592   2.908  2.5756  0.0700  0.3875
  637MOL0     H85974   6.062   9.658   2.859  0.3428 -0.0594 -0.5195
  637MOL0     H85975   5.971   9.402   2.728 -1.0824  1.7276  0.1813
  637MOL0     H85976   5.983   9.387   2.893 -0.2295 -1.0154 -1.6430
  637MOL0     H85977   6.076  10.205   2.186  0.6978 -2.6947  0.1495
  637MOL0     H85978   6.275  10.261   2.102  0.4909 -1.1272  0.2332
  637MOL0     H85979   6.728  10.369   2.120  0.7700  0.3808 -0.9785
  637MOL0     H85980   6.965  10.395   2.120 -2.2083 -3.4696 -0.9315
  637MOL0     H85981   7.897  10.239   1.164 -0.3136 -0.3281  0.1151
  637MOL0     H85982   7.885  10.399   0.991  0.3752 -1.7923  0.5827
  637MOL0     H85983   7.752  10.682   0.730 -1.7266 -3.3207 -0.4355
  637MOL0     H85984   7.759  10.910   0.614 -1.5295  0.0332 -3.1753
  637MOL0     H85985   7.688  11.076   0.414  0.3937 -1.7013  0.8028
  637MOL0     H85986   7.543  10.976   0.393  1.2701 -1.4465  2.4104
  637MOL0     H85987   7.549  11.172   0.256  0.7987  1.0202 -0.1608
  637MOL0     H85988   7.579  11.282   0.394  1.1789  0.3102 -0.8624
  637MOL0     H85989   7.324  11.215   0.465 -0.0778 -1.5470 -0.8127
  637MOL0     H85990   7.329  11.125   0.316  0.3129 -0.3855 -0.4223
  637MOL0     H85991   7.400  11.432   0.349  0.2702  0.8617 -0.7411
  637MOL0     H85992   7.240  11.392   0.306  0.5049  1.3601 -0.1031
  637MOL0     H85993   7.404  11.349  -0.069  2.5425  2.9206 -0.3809
  637MOL0     H85994   7.346  10.958   0.676  1.2499  0.8360 -2.3100
  637MOL0     H85995   7.339  10.754   0.807 -0.9652 -2.6245 -2.2191
  638MOL0     O85996  10.224  11.010   8.271 -0.2409  0.6955 -0.1736
  638MOL0     C85997  10.218  11.111   8.204  0.4361 -0.4720 -0.8277
  638MOL0     O85998  10.228  11.123   8.067  0.5530 -0.4781 -0.1597
  638MOL0     C85999  10.270  11.014   7.993  0.6082  1.3209  0.5198
  638MOL0     C86000  10.238  10.878   8.025 -0.4287  0.4842 -0.1851
  638MOL0     C86001  10.280  10.779   7.935 -0.4943 -0.2213 -0.8096
  638MOL0     C86002  10.341  10.814   7.814  0.0317 -0.4128  0.0004
  638MOL0     O86003  10.367  10.709   7.730 -0.8568 -0.9636 -0.2935
  638MOL0     C86004  10.507  10.664   7.709 -0.5502 -0.4783 -0.9268
  638MOL0     C86005  10.494  10.513   7.708 -0.8172  0.3038 -0.6483
  638MOL0     C86006  10.633  10.457   7.699 -0.1582  0.4518 -0.3075
  638MOL0     C86007  10.693  10.428   7.836 -0.3599 -0.2122  0.1892
  638MOL0     C86008  10.834  10.405   7.822 -0.6526 -1.2371 -0.4976
  638MOL0     C86009  10.859  10.272   7.762  0.0820 -0.6696 -0.0077
  638MOL0     C86010  11.012  10.240   7.788  0.0625 -0.4769  0.0452
  638MOL0     C86011  11.029  10.109   7.720  0.6391 -0.9141 -0.0582
  638MOL0     N86012  11.170  10.073   7.689  0.4948  0.2421  0.1384
  638MOL0     C86013  11.254   9.997   7.764  0.1608  0.1085  0.0518
  638MOL0     C86014  11.353   9.976   7.685 -0.6479  1.5939 -0.2480
  638MOL0     C86015  11.482   9.904   7.731  0.1833  0.1044 -0.1621
  638MOL0     C86016  11.607   9.923   7.643 -0.1644 -1.2831 -0.0636
  638MOL0     C86017  11.736   9.858   7.696 -0.2224  0.1878 -0.3284
  638MOL0     C86018  11.825   9.829   7.583  0.3631 -0.3819  0.0783
  638MOL0     O86019  11.937   9.748   7.618 -0.3374 -0.4197  0.2252
  638MOL0     C86020  12.033   9.716   7.527  0.2558  0.7073 -0.0549
  638MOL0     C86021  12.131   9.625   7.572  0.2178  0.0433 -0.9536
  638MOL0     C86022  12.235   9.582   7.495 -0.3989  0.3612 -0.1923
  638MOL0     C86023  12.319   9.470   7.538 -0.0451  0.1832 -1.1009
  638MOL0     C86024  12.244   9.630   7.368 -1.0515  1.5880 -0.0354
  638MOL0     C86025  12.367   9.597   7.284  0.7392  0.2987  0.7115
  638MOL0     O86026  12.493   9.565   7.331  0.1627 -0.1431 -0.3612
  638MOL0     C86027  12.591   9.507   7.254 -0.1719 -0.5423 -0.1608
  638MOL0     C86028  12.612   9.524   7.112 -0.1206  0.1261 -0.4106
  638MOL0     C86029  12.713   9.459   7.037  1.1026  0.0378 -0.7718
  638MOL0     C86030  12.801   9.373   7.105 -1.2298  0.7068 -0.6557
  638MOL0     O86031  12.896   9.300   7.042 -0.3693  0.5821 -0.5730
  638MOL0     C86032  13.021   9.288   7.111 -0.7881 -0.0243 -0.9696
  638MOL0     C86033  13.111   9.195   7.020  0.5959 -0.4561 -1.4801
  638MOL0     C86034  13.063   9.051   7.034  1.2331  0.0581 -0.5051
  638MOL0     C86035  13.177   8.957   7.014  0.2751 -0.7103  0.9316
  638MOL0     C86036  13.144   8.810   7.035 -0.2885 -0.1299 -0.2329
  638MOL0     C86037  13.044   8.761   6.931 -0.2551  0.2898  0.2195
  638MOL0     C86038  13.003   8.621   6.973 -0.1338  0.2824  0.2906
  638MOL0     C86039  12.898   8.565   6.871 -0.5800 -0.4514 -0.5530
  638MOL0    Cl86040  12.993   8.542   6.711 -0.4270 -0.1879  0.0917
  638MOL0     C86041  12.782   9.361   7.245 -0.2344  0.7588  0.7915
  638MOL0     C86042  12.682   9.421   7.313  0.7412 -0.6889 -0.6678
  638MOL0     O86043  12.341   9.614   7.158  0.1143  0.3014  0.2610
  638MOL0     C86044  12.152   9.731   7.322 -0.7471 -0.0842  0.1095
  638MOL0     C86045  12.044   9.765   7.400  0.7002 -0.4610 -0.4204
  638MOL0     N86046  11.334  10.043   7.563  0.3264 -0.9197  0.3021
  638MOL0     N86047  11.229  10.101   7.573 -0.3560  0.2683  0.0712
  638MOL0     C86048  10.362  10.945   7.775  0.8280  0.6985 -1.3691
  638MOL0     C86049  10.334  11.047   7.866 -0.0029  0.2448  0.5696
  638MOL0     C86050  10.181  11.239   8.283 -0.3506  0.0154 -0.2169
  638MOL0     C86051  10.139  11.346   8.217  0.2616  0.5897  0.2699
  638MOL0     C86052  10.105  11.467   8.279 -1.6041  0.5645  0.7437
  638MOL0     C86053  10.120  11.477   8.408  1.0520 -0.7290  0.9741
  638MOL0     O86054  10.099  11.592   8.482 -0.3775  0.5481 -0.8268
  638MOL0     C86055  10.163  11.714   8.447 -0.3882  0.5207 -0.8427
  638MOL0     C86056  10.173  11.801   8.573 -0.0831 -0.3992  0.2281
  638MOL0     C86057  10.048  11.878   8.597  0.5194  0.9972 -0.3338
  638MOL0     C86058  10.071  11.955   8.730  0.2452  0.5217  1.0333
  638MOL0     C86059   9.954  12.034   8.790 -0.2273 -0.2617  0.4240
  638MOL0     C86060   9.854  12.093   8.833 -0.5295  0.6788 -0.5328
  638MOL0     C86061  10.165  11.364   8.478  0.7758 -0.8376  0.4502
  638MOL0     C86062  10.201  11.243   8.419 -0.9019  0.1602 -0.6019
  638MOL0     H86063  10.182  10.837   8.109  0.1796 -2.9023 -1.2817
  638MOL0     H86064  10.264  10.675   7.957 -0.6177 -0.2427 -1.0039
  638MOL0     H86065  10.542  10.708   7.615 -0.9215 -2.4140 -2.0343
  638MOL0     H86066  10.579  10.699   7.783 -1.0171 -4.9645  2.0708
  638MOL0     H86067  10.452  10.468   7.799  0.4776 -2.2075 -1.2132
  638MOL0     H86068  10.428  10.483   7.626  1.7955  0.3963 -2.9202
  638MOL0     H86069  10.658  10.366   7.643 -0.4622 -0.0480  0.3692
  638MOL0     H86070  10.693  10.537   7.653 -0.0558  0.2045 -0.6073
  638MOL0     H86071  10.682  10.520   7.894  0.2133 -0.1704  0.2402
  638MOL0     H86072  10.641  10.348   7.889 -1.0666  1.0722  1.5232
  638MOL0     H86073  10.882  10.486   7.766 -1.6548  0.2054  0.6407
  638MOL0     H86074  10.887  10.410   7.917 -5.1631 -0.2391  2.2795
  638MOL0     H86075  10.813  10.197   7.828  3.0414 -2.1112  0.6047
  638MOL0     H86076  10.828  10.263   7.658  0.9824  1.6335 -0.5377
  638MOL0     H86077  11.072  10.312   7.731 -0.3484 -1.3903 -1.6057
  638MOL0     H86078  11.034  10.238   7.895  1.9745  1.3068 -0.2327
  638MOL0     H86079  10.975  10.110   7.625  0.0114  1.2887  0.2731
  638MOL0     H86080  10.978  10.036   7.784 -0.9100  0.4538  0.3198
  638MOL0     H86081  11.238   9.947   7.859 -2.3523 -2.1518 -1.4208
  638MOL0     H86082  11.500   9.921   7.838  0.6728 -0.9935 -0.0552
  638MOL0     H86083  11.459   9.798   7.719 -0.1232  0.2332 -0.7381
  638MOL0     H86084  11.620  10.031   7.642 -1.9954 -1.0165  0.8407
  638MOL0     H86085  11.580   9.889   7.542  2.9866 -0.1935 -1.4214
  638MOL0     H86086  11.705   9.769   7.752 -1.7139 -0.0392 -1.4429
  638MOL0     H86087  11.796   9.913   7.769  2.3553 -1.3540 -1.1511
  638MOL0     H86088  11.858   9.930   7.558 -1.3984 -0.0544 -1.1419
  638MOL0     H86089  11.778   9.795   7.490  1.0920  0.8784 -0.7899
  638MOL0     H86090  12.108   9.594   7.673  1.4422  0.7249 -0.4416
  638MOL0     H86091  12.282   9.423   7.630  1.2538 -1.3931 -1.3343
  638MOL0     H86092  12.331   9.388   7.466  4.2323  2.2526 -3.1304
  638MOL0     H86093  12.415   9.507   7.575  2.6662 -4.9242 -2.1256
  638MOL0     H86094  12.547   9.599   7.068  1.1601  1.9608  0.7030
  638MOL0     H86095  12.705   9.468   6.929 -1.7842  2.9606 -0.4731
  638MOL0     H86096  13.069   9.387   7.110  1.7486 -1.1636 -2.8175
  638MOL0     H86097  13.036   9.246   7.211  1.5643 -0.2189 -1.3532
  638MOL0     H86098  13.105   9.212   6.912  3.9819  0.5383 -1.6307
  638MOL0     H86099  13.214   9.196   7.058  0.4771 -1.6587 -1.0844
  638MOL0     H86100  12.991   9.039   6.953  0.4111 -0.8632  0.3370
  638MOL0     H86101  13.014   9.027   7.129 -0.0987  0.2374 -1.1219
  638MOL0     H86102  13.234   8.968   6.921 -0.2153 -0.4558  0.6544
  638MOL0     H86103  13.252   8.967   7.093  3.1860  1.5397 -1.8181
  638MOL0     H86104  13.108   8.812   7.138 -1.3722  1.3201 -0.6033
  638MOL0     H86105  13.239   8.760   7.053  1.9618  3.5057 -0.9964
  638MOL0     H86106  12.958   8.825   6.910  1.0018  1.0747 -3.1715
  638MOL0     H86107  13.100   8.753   6.837 -0.4789  0.4275  0.0737
  638MOL0     H86108  12.956   8.621   7.072  1.4863 -0.9418  1.0963
  638MOL0     H86109  13.087   8.552   6.977 -0.2321  0.2222  2.2097
  638MOL0     H86110  12.822   8.641   6.854 -0.2854 -0.4168 -1.7865
  638MOL0     H86111  12.847   8.472   6.897 -0.4312 -0.2652  0.4566
  638MOL0     H86112  12.832   9.286   7.305  2.5920  2.0924  0.2751
  638MOL0     H86113  12.685   9.418   7.421 -0.2974  2.2460 -0.4586
  638MOL0     H86114  12.170   9.765   7.220 -1.8416 -1.1371 -0.4585
  638MOL0     H86115  11.964   9.830   7.366 -0.1793 -0.4404  1.5235
  638MOL0     H86116  10.417  10.961   7.683 -0.1115  1.9036 -1.7379
  638MOL0     H86117  10.387  11.141   7.847  3.5492 -1.9242 -1.5306
  638MOL0     H86118  10.115  11.335   8.112 -3.8160  2.7722  0.7818
  638MOL0     H86119  10.064  11.547   8.219 -0.1108  0.5531 -0.3372
  638MOL0     H86120  10.260  11.705   8.399  0.1148  3.9120 -0.7373
  638MOL0     H86121  10.099  11.757   8.370  0.5717 -0.0286 -1.9713
  638MOL0     H86122  10.258  11.865   8.553  0.3364 -0.9998  0.0676
  638MOL0     H86123  10.207  11.738   8.656  1.6298  0.1964  0.0052
  638MOL0     H86124   9.963  11.812   8.613  2.5061 -2.0408 -1.3947
  638MOL0     H86125  10.029  11.959   8.525  0.6693 -1.8801 -3.9002
  638MOL0     H86126  10.161  12.017   8.719  0.9879 -0.8038 -0.7599
  638MOL0     H86127  10.088  11.872   8.800  0.5513 -0.9682 -0.7384
  638MOL0     H86128   9.768  12.133   8.884  0.1288  0.5847  0.6874
  638MOL0     H86129  10.181  11.372   8.585 -1.3341 -2.3282  0.9419
  638MOL0     H86130  10.231  11.157   8.478 -0.8858  0.2342 -0.5011
  639MOL0     O86131   8.486   6.621   7.295 -0.0842 -0.5438 -0.9192
  639MOL0     C86132   8.377   6.586   7.344  0.0932 -1.1202 -0.0319
  639MOL0     O86133   8.289   6.670   7.405 -0.1604  0.6276  0.3324
  639MOL0     C86134   8.309   6.807   7.422  0.1329  0.1796 -0.3428
  639MOL0     C86135   8.382   6.894   7.336 -0.7563  0.1436  0.2792
  639MOL0     C86136   8.384   7.028   7.377 -0.3900  0.2675  0.0249
  639MOL0     C86137   8.333   7.078   7.497 -0.3554 -1.1111  0.5970
  639MOL0     O86138   8.344   7.203   7.539 -0.1706 -0.2091  0.3557
  639MOL0     C86139   8.416   7.293   7.458  0.5358  0.2681 -0.2210
  639MOL0     C86140   8.465   7.414   7.536  0.5829  0.0304 -1.6873
  639MOL0     C86141   8.514   7.522   7.437 -0.2092  0.7395 -0.6536
  639MOL0     C86142   8.659   7.560   7.465 -0.2530 -0.9597 -0.2806
  639MOL0     C86143   8.727   7.668   7.366 -0.1783  0.1826  0.3026
  639MOL0     C86144   8.881   7.665   7.370  0.5068 -0.4547  0.1294
  639MOL0     C86145   8.924   7.738   7.499 -0.2937  0.4700  0.1526
  639MOL0     C86146   9.070   7.741   7.524 -0.7080  1.2557 -0.4642
  639MOL0     N86147   9.112   7.611   7.570 -0.0425  0.0453  0.2776
  639MOL0     C86148   9.223   7.537   7.535 -0.8883  0.4345  0.1396
  639MOL0     C86149   9.227   7.431   7.613 -0.3833 -0.1833 -0.0863
  639MOL0     C86150   9.325   7.324   7.603 -0.5548 -1.1185  0.0998
  639MOL0     C86151   9.290   7.232   7.488 -0.5068  0.3955 -0.0743
  639MOL0     C86152   9.383   7.118   7.452 -0.4442  0.4725 -0.7032
  639MOL0     C86153   9.331   7.005   7.352 -0.6858 -0.8606 -0.7040
  639MOL0     O86154   9.430   6.918   7.311 -0.0407  0.7362 -0.7332
  639MOL0     C86155   9.409   6.803   7.240  0.7201  0.8619  0.1774
  639MOL0     C86156   9.517   6.717   7.220  0.1560 -1.1632 -0.3466
  639MOL0     C86157   9.505   6.600   7.133  0.4175 -0.5252 -1.0619
  639MOL0     C86158   9.629   6.516   7.114  0.5703  0.0296 -1.4108
  639MOL0     C86159   9.388   6.577   7.053  0.5193  0.4318  0.0185
  639MOL0     C86160   9.378   6.464   6.953 -0.1280  0.2175 -1.0858
  639MOL0     O86161   9.251   6.410   6.942  0.4250 -0.2030  0.2527
  639MOL0     C86162   9.222   6.349   6.827 -0.2223 -0.2539  0.9450
  639MOL0     C86163   9.244   6.212   6.814  0.2487  0.6329 -0.4410
  639MOL0     C86164   9.228   6.146   6.690  0.0282  0.0270 -1.1069
  639MOL0     C86165   9.189   6.215   6.581  0.3268 -0.1643  0.0547
  639MOL0     O86166   9.181   6.144   6.460 -0.1267 -0.8180  0.1277
  639MOL0     C86167   9.107   6.209   6.356  0.2114  0.9086 -0.7423
  639MOL0     C86168   9.076   6.114   6.245  0.4037 -0.2748  1.1296
  639MOL0     C86169   9.170   6.134   6.123  0.1641  0.0063 -0.4189
  639MOL0     C86170   9.320   6.114   6.166 -0.2550  0.5602  0.1525
  639MOL0     C86171   9.342   5.961   6.204  0.6971 -0.3801  1.3717
  639MOL0     C86172   9.482   5.940   6.262 -1.5059 -0.5414  0.4611
  639MOL0     C86173   9.510   5.786   6.280  0.4108 -0.2790  0.8922
  639MOL0     C86174   9.631   5.729   6.362 -0.0242 -0.1103 -1.1830
  639MOL0    Cl86175   9.602   5.767   6.532  0.0492  0.5931  0.1001
  639MOL0     C86176   9.184   6.360   6.590 -0.4721  0.3056 -0.4294
  639MOL0     C86177   9.198   6.429   6.718  0.0161  0.2677 -1.3350
  639MOL0     O86178   9.472   6.440   6.875  0.0598  0.0376  0.3552
  639MOL0     C86179   9.277   6.656   7.087 -0.4153  0.1817 -0.3265
  639MOL0     C86180   9.288   6.768   7.180  0.3758  0.4548  0.6519
  639MOL0     N86181   9.119   7.432   7.702  0.1476 -0.1211 -0.3530
  639MOL0     N86182   9.060   7.544   7.686 -0.6434  0.0323  0.4122
  639MOL0     C86183   8.252   6.991   7.565 -0.0839  0.8111 -0.1574
  639MOL0     C86184   8.235   6.858   7.528  0.5704 -0.3666 -0.5682
  639MOL0     C86185   8.343   6.438   7.352 -0.6139  0.0603  0.2469
  639MOL0     C86186   8.440   6.342   7.315  0.3743  0.6685 -1.4408
  639MOL0     C86187   8.426   6.202   7.343 -0.2490 -1.0886  0.1513
  639MOL0     C86188   8.300   6.162   7.382  0.0481 -0.0934  0.2511
  639MOL0     O86189   8.256   6.030   7.393  0.1810 -0.2028 -0.7480
  639MOL0     C86190   8.349   5.922   7.376 -0.1430 -1.1166  0.0456
  639MOL0     C86191   8.284   5.796   7.325  0.1871 -0.2950 -0.3610
  639MOL0     C86192   8.165   5.767   7.413 -0.3698 -1.0909 -0.4847
  639MOL0     C86193   8.125   5.619   7.415  0.1987  0.0770 -0.4885
  639MOL0     C86194   8.042   5.600   7.529  0.4297  0.3353 -1.1149
  639MOL0     C86195   7.970   5.594   7.627  0.6437  0.1568  0.0057
  639MOL0     C86196   8.191   6.249   7.397 -0.9537 -0.2789 -0.0372
  639MOL0     C86197   8.216   6.381   7.384 -0.0678 -0.3612 -0.4428
  639MOL0     H86198   8.434   6.858   7.248 -0.3751  0.2693  0.4533
  639MOL0     H86199   8.428   7.099   7.308 -2.9750  0.5818 -1.4329
  639MOL0     H86200   8.509   7.248   7.423 -0.0811 -2.3614  1.2294
  639MOL0     H86201   8.359   7.327   7.371 -2.7005  1.3340  2.0727
  639MOL0     H86202   8.381   7.453   7.594  2.1142 -0.1977  0.8637
  639MOL0     H86203   8.537   7.390   7.616  0.1883 -1.3041 -1.7064
  639MOL0     H86204   8.516   7.493   7.331 -0.9243  1.6656 -0.9367
  639MOL0     H86205   8.453   7.612   7.446  1.5815  1.8496  1.3894
  639MOL0     H86206   8.673   7.594   7.569  0.7357  0.6519 -0.8956
  639MOL0     H86207   8.705   7.462   7.449 -0.4575 -1.2517  0.7981
  639MOL0     H86208   8.685   7.649   7.267  0.6266 -1.1765  0.2049
  639MOL0     H86209   8.689   7.770   7.383 -3.3253 -0.8148 -0.1373
  639MOL0     H86210   8.910   7.560   7.385  1.8085 -0.1733 -0.3057
  639MOL0     H86211   8.918   7.711   7.278 -0.1216  0.5435  0.3525
  639MOL0     H86212   8.885   7.839   7.481 -4.7447 -1.2376 -1.1698
  639MOL0     H86213   8.872   7.701   7.588 -1.6776 -2.4089 -1.7064
  639MOL0     H86214   9.092   7.802   7.612 -3.1191  0.7761  0.5404
  639MOL0     H86215   9.137   7.773   7.443 -0.0380  0.8078 -0.0931
  639MOL0     H86216   9.313   7.560   7.479  2.1170 -0.7660  4.0081
  639MOL0     H86217   9.419   7.376   7.586 -2.3462  2.5408  0.3771
  639MOL0     H86218   9.329   7.280   7.703  0.1172  0.6982  0.9138
  639MOL0     H86219   9.276   7.298   7.402 -1.0970  2.6043  1.6193
  639MOL0     H86220   9.195   7.183   7.514  0.1681 -1.6323 -1.2364
  639MOL0     H86221   9.407   7.070   7.547 -2.7768  1.9640  0.7462
  639MOL0     H86222   9.472   7.169   7.413 -0.2175  0.5009 -0.1597
  639MOL0     H86223   9.288   7.053   7.264 -3.1009 -0.4000  0.6545
  639MOL0     H86224   9.256   6.943   7.402 -1.7995  1.2833  0.4118
  639MOL0     H86225   9.614   6.742   7.262  2.0823 -0.9853 -4.4265
  639MOL0     H86226   9.684   6.534   7.021 -1.7211  1.0571 -2.6529
  639MOL0     H86227   9.697   6.538   7.197 -2.1308 -2.1794  1.6093
  639MOL0     H86228   9.601   6.411   7.121 -0.5473  0.2792 -1.9120
  639MOL0     H86229   9.275   6.150   6.897  2.2244  1.1791 -0.7033
  639MOL0     H86230   9.232   6.038   6.678 -0.2413  0.3204 -6.7421
  639MOL0     H86231   9.008   6.235   6.395 -0.6855 -1.5764 -1.1595
  639MOL0     H86232   9.149   6.306   6.330  2.4836  0.3817  0.6522
  639MOL0     H86233   9.072   6.007   6.271  0.1997 -0.2845  1.0581
  639MOL0     H86234   8.973   6.136   6.217 -0.7222 -3.1554  2.5799
  639MOL0     H86235   9.148   6.240   6.106  4.9156  1.1105 -1.2428
  639MOL0     H86236   9.137   6.083   6.032 -1.3275 -0.1197  0.1692
  639MOL0     H86237   9.388   6.127   6.081 -0.5295 -1.1473 -0.3666
  639MOL0     H86238   9.345   6.184   6.247 -0.2807  0.0097  0.6463
  639MOL0     H86239   9.333   5.901   6.113  0.8691  1.3133  0.1893
  639MOL0     H86240   9.281   5.924   6.287 -2.1650  0.0665 -0.3846
  639MOL0     H86241   9.554   5.992   6.197 -1.5876  0.4716  1.1547
  639MOL0     H86242   9.481   5.990   6.360 -0.2211 -0.2394  0.3436
  639MOL0     H86243   9.524   5.749   6.178 -3.5683  0.7136 -0.1878
  639MOL0     H86244   9.415   5.741   6.308 -1.4504  1.4013 -2.1575
  639MOL0     H86245   9.725   5.777   6.338  1.0286 -0.4420  1.8332
  639MOL0     H86246   9.647   5.624   6.335  1.5542  0.1106 -1.1477
  639MOL0     H86247   9.166   6.418   6.500 -1.7115  0.5266 -0.0631
  639MOL0     H86248   9.216   6.536   6.723  0.3913  0.1906 -1.0179
  639MOL0     H86249   9.184   6.617   7.047  0.3608  1.6907 -3.8960
  639MOL0     H86250   9.202   6.829   7.205 -0.4176  0.8487 -2.5594
  639MOL0     H86251   8.192   7.051   7.632 -2.2295 -0.7022 -0.6207
  639MOL0     H86252   8.178   6.783   7.581  1.8845 -1.9052 -1.2347
  639MOL0     H86253   8.530   6.379   7.267  1.3345  2.0307  1.1959
  639MOL0     H86254   8.503   6.135   7.306  2.0284  0.8805  1.0171
  639MOL0     H86255   8.428   5.947   7.305 -0.8157  0.5096 -0.1903
  639MOL0     H86256   8.386   5.904   7.477 -1.8267 -0.4722  0.8143
  639MOL0     H86257   8.359   5.717   7.329 -0.5672 -0.9894  0.2673
  639MOL0     H86258   8.260   5.807   7.219  2.5987 -0.7695 -1.0240
  639MOL0     H86259   8.079   5.828   7.383  0.1730 -0.9255 -1.7969
  639MOL0     H86260   8.199   5.784   7.515  3.2395  1.3189 -1.8916
  639MOL0     H86261   8.210   5.552   7.429 -0.4418 -0.5274  0.7545
  639MOL0     H86262   8.064   5.593   7.327  1.0122  2.0739 -1.6830
  639MOL0     H86263   7.923   5.595   7.722 -0.3200 -0.1806 -0.4591
  639MOL0     H86264   8.095   6.203   7.414 -1.2120  0.2926  0.0775
  639MOL0     H86265   8.144   6.454   7.419  1.1773 -0.1878  1.9859
  640MOL0     O86266   2.140   7.263   8.508  0.4020 -0.8090  0.4027
  640MOL0     C86267   2.142   7.160   8.438  0.3336 -0.7057 -0.2267
  640MOL0     O86268   2.254   7.080   8.412  0.4107 -0.3014 -0.7558
  640MOL0     C86269   2.369   7.099   8.479 -0.5321  0.1433 -0.8471
  640MOL0     C86270   2.488   7.063   8.420  0.2144  0.3677 -0.4948
  640MOL0     C86271   2.618   7.067   8.489 -0.6376  0.1726  0.2167
  640MOL0     C86272   2.620   7.119   8.623  0.2485 -1.3208 -0.3992
  640MOL0     O86273   2.723   7.095   8.708  0.6018  0.3870 -0.1973
  640MOL0     C86274   2.768   7.204   8.793 -0.0360  0.3620 -0.1453
  640MOL0     C86275   2.845   7.144   8.917  0.0652  0.5141 -0.3042
  640MOL0     C86276   2.849   7.225   9.048 -1.0251 -0.0848 -0.5729
  640MOL0     C86277   2.712   7.247   9.116  0.1996  0.6797  0.1669
  640MOL0     C86278   2.741   7.299   9.256  0.4612  0.5328  0.5947
  640MOL0     C86279   2.611   7.316   9.342 -0.6388 -0.2661  0.9842
  640MOL0     C86280   2.560   7.182   9.367  0.3687  0.1399 -1.7173
  640MOL0     C86281   2.543   7.153   9.524 -0.0847  0.8914 -0.5084
  640MOL0     N86282   2.409   7.184   9.580 -0.4081  0.1393 -0.4844
  640MOL0     C86283   2.316   7.281   9.533 -0.6436 -0.9186  0.4486
  640MOL0     C86284   2.214   7.267   9.618  0.0190  0.1142  0.4055
  640MOL0     C86285   2.078   7.332   9.597  0.4748  0.1674 -0.5451
  640MOL0     C86286   2.072   7.480   9.663  0.2770  0.0483  0.2852
  640MOL0     C86287   1.946   7.564   9.615  1.1292  0.0917 -0.6058
  640MOL0     C86288   1.975   7.715   9.589 -0.8334 -0.0717 -0.0914
  640MOL0     O86289   1.869   7.779   9.523  0.5123  0.0540 -0.1003
  640MOL0     C86290   1.887   7.889   9.446 -0.4036  0.8579  1.3393
  640MOL0     C86291   1.993   7.977   9.462 -0.2419 -0.8419  0.6111
  640MOL0     C86292   2.016   8.081   9.364  0.2548 -0.8038  0.5942
  640MOL0     C86293   2.146   8.153   9.388 -0.1389  0.3134 -0.5843
  640MOL0     C86294   1.909   8.110   9.273 -0.4594  0.3887 -0.0886
  640MOL0     C86295   1.902   8.231   9.201  0.0899 -0.1391 -0.9412
  640MOL0     O86296   1.858   8.232   9.073  0.0090 -0.5712 -0.0180
  640MOL0     C86297   1.808   8.347   9.022  0.3596 -0.1229 -0.2887
  640MOL0     C86298   1.858   8.378   8.892  0.2627 -0.3908 -0.2481
  640MOL0     C86299   1.814   8.499   8.835  0.0181  0.1096  0.1513
  640MOL0     C86300   1.737   8.602   8.897 -0.2848  0.3485  0.5097
  640MOL0     O86301   1.689   8.714   8.830  0.3164  0.1887 -0.2532
  640MOL0     C86302   1.762   8.778   8.720 -0.6029  0.4158  0.2738
  640MOL0     C86303   1.697   8.910   8.692 -0.0357  0.3015  0.3639
  640MOL0     C86304   1.772   8.973   8.569  0.3919  0.5465 -0.0778
  640MOL0     C86305   1.671   9.053   8.481  0.0796  0.3637  0.1079
  640MOL0     C86306   1.565   8.962   8.418  0.9446  0.3675  1.3247
  640MOL0     C86307   1.505   9.033   8.282 -0.7820 -0.1492  0.0906
  640MOL0     C86308   1.444   9.164   8.319 -0.2142  0.4210 -0.0610
  640MOL0     C86309   1.420   9.264   8.196  0.2383  0.9807 -0.7011
  640MOL0    Cl86310   1.583   9.321   8.141  0.0866 -0.1678  0.0602
  640MOL0     C86311   1.685   8.559   9.022  1.0113  0.2536  0.6193
  640MOL0     C86312   1.719   8.443   9.085 -0.3199  0.4242  0.0893
  640MOL0     O86313   1.955   8.329   9.258  0.4199  0.0806  0.0784
  640MOL0     C86314   1.806   8.017   9.259 -0.0006  0.4701  1.1084
  640MOL0     C86315   1.799   7.912   9.342  0.7855  1.1334  0.2098
  640MOL0     N86316   2.233   7.162   9.701 -1.5319 -0.6612 -0.5168
  640MOL0     N86317   2.351   7.111   9.677 -0.2409  0.1174 -0.0805
  640MOL0     C86318   2.494   7.160   8.682 -0.4887  0.0313 -0.5336
  640MOL0     C86319   2.374   7.149   8.610 -0.4626 -0.6053 -0.0457
  640MOL0     C86320   2.011   7.117   8.387  0.6504 -2.0104  0.0301
  640MOL0     C86321   1.988   7.006   8.311 -0.3590  0.0488  0.2359
  640MOL0     C86322   1.868   6.957   8.261 -0.3383 -0.8182 -1.1645
  640MOL0     C86323   1.752   7.022   8.305 -0.7977 -1.4181 -0.5869
  640MOL0     O86324   1.631   6.972   8.274  0.4322  0.1261 -1.2647
  640MOL0     C86325   1.583   6.874   8.361  0.1734  0.1959 -0.7916
  640MOL0     C86326   1.444   6.910   8.399  0.0658 -0.6568  0.2109
  640MOL0     C86327   1.397   6.839   8.531 -0.0382 -0.1898  0.2654
  640MOL0     C86328   1.356   6.950   8.631  0.6222  0.1454  0.1900
  640MOL0     C86329   1.462   7.052   8.665 -0.3914 -0.7481  0.4957
  640MOL0     C86330   1.550   7.134   8.686  1.1694  1.2549 -0.5365
  640MOL0     C86331   1.770   7.141   8.390 -0.0183 -0.0488 -0.3749
  640MOL0     C86332   1.897   7.193   8.421  0.6219  1.1942  0.4367
  640MOL0     H86333   2.488   7.043   8.313  2.5353  1.9224 -0.8670
  640MOL0     H86334   2.702   7.024   8.436  0.1644  1.9363 -0.0153
  640MOL0     H86335   2.854   7.258   8.751  2.3356 -3.5864 -0.8602
  640MOL0     H86336   2.694   7.277   8.826 -0.6449 -0.7069  0.9295
  640MOL0     H86337   2.792   7.049   8.933 -0.2464  0.5629 -1.0057
  640MOL0     H86338   2.942   7.118   8.873 -0.2441  1.5797 -1.7025
  640MOL0     H86339   2.915   7.179   9.122 -1.8740 -1.2843 -0.5363
  640MOL0     H86340   2.884   7.327   9.029 -1.1703  0.1325  0.2924
  640MOL0     H86341   2.645   7.308   9.055 -1.0527 -0.9185 -0.1144
  640MOL0     H86342   2.669   7.148   9.132  1.8686  0.4050  4.4198
  640MOL0     H86343   2.809   7.235   9.313 -0.8971 -3.1051 -1.5155
  640MOL0     H86344   2.797   7.393   9.250 -0.5845  1.1220 -0.3760
  640MOL0     H86345   2.649   7.365   9.432  1.3879 -0.5859  0.3602
  640MOL0     H86346   2.536   7.376   9.289 -1.3596 -0.0141  2.2490
  640MOL0     H86347   2.467   7.169   9.311 -0.2771  2.8196 -1.4034
  640MOL0     H86348   2.632   7.108   9.330  0.5338  0.3814 -1.8834
  640MOL0     H86349   2.616   7.206   9.585  1.3659 -0.4450 -1.0365
  640MOL0     H86350   2.573   7.049   9.541 -3.3897  0.3661  3.7196
  640MOL0     H86351   2.344   7.342   9.448  2.3113  0.6356  2.3664
  640MOL0     H86352   2.062   7.338   9.489  0.7396 -1.7134 -0.7252
  640MOL0     H86353   1.999   7.262   9.627  2.0997 -1.3216  0.4424
  640MOL0     H86354   2.163   7.530   9.629  0.9938 -0.7018  1.0328
  640MOL0     H86355   2.076   7.471   9.772  1.1752  2.7817  0.5455
  640MOL0     H86356   1.870   7.563   9.694  2.9027 -0.2100  1.1899
  640MOL0     H86357   1.914   7.505   9.529 -1.1396 -2.1397  1.6031
  640MOL0     H86358   2.057   7.730   9.518 -1.0873  0.1005 -0.3480
  640MOL0     H86359   1.991   7.765   9.685 -3.1181 -1.5602  1.1561
  640MOL0     H86360   2.051   7.980   9.554  0.9173  3.6527 -0.0532
  640MOL0     H86361   2.176   8.216   9.303 -0.6410  1.7264  0.2532
  640MOL0     H86362   2.144   8.220   9.474 -0.8582 -0.8686  0.3373
  640MOL0     H86363   2.225   8.082   9.413  0.5786  0.4853 -2.2371
  640MOL0     H86364   1.918   8.305   8.838 -1.0133 -2.2577  0.7551
  640MOL0     H86365   1.858   8.513   8.737  4.0576 -0.0492  1.7378
  640MOL0     H86366   1.869   8.783   8.738 -0.7571  0.4953  1.2176
  640MOL0     H86367   1.747   8.702   8.643 -1.8921 -1.5164  2.2843
  640MOL0     H86368   1.588   8.907   8.702  0.0309  2.1530  2.3681
  640MOL0     H86369   1.720   8.972   8.779  0.2402  1.9619 -0.8208
  640MOL0     H86370   1.809   8.892   8.505 -3.2721 -0.4701 -1.1403
  640MOL0     H86371   1.853   9.038   8.603 -1.1565  1.8435  1.2719
  640MOL0     H86372   1.628   9.124   8.552 -1.6085 -1.9058  1.5074
  640MOL0     H86373   1.730   9.109   8.408 -1.0309 -0.7756 -1.7307
  640MOL0     H86374   1.489   8.947   8.495  1.9095 -1.3093  2.0012
  640MOL0     H86375   1.602   8.863   8.392  0.2002  0.0764  1.3541
  640MOL0     H86376   1.578   9.047   8.201 -2.5736 -0.8291 -1.7343
  640MOL0     H86377   1.424   8.969   8.246 -1.3507  0.3887  0.4033
  640MOL0     H86378   1.511   9.211   8.392  1.7522 -2.6874  0.3327
  640MOL0     H86379   1.353   9.148   8.377  0.8927  0.7106  1.8582
  640MOL0     H86380   1.345   9.341   8.215 -2.4835 -2.0144  1.7680
  640MOL0     H86381   1.370   9.205   8.119  0.4648 -1.5302  0.9286
  640MOL0     H86382   1.611   8.623   9.069  0.4677  1.1382 -1.3335
  640MOL0     H86383   1.685   8.407   9.182  2.8844 -1.1408  0.7751
  640MOL0     H86384   1.724   8.022   9.189  0.9908 -1.5914 -0.3033
  640MOL0     H86385   1.718   7.841   9.330  0.9660  0.8378  0.7180
  640MOL0     H86386   2.490   7.169   8.790  1.0818  1.4418 -0.5463
  640MOL0     H86387   2.281   7.163   8.664 -0.5912  0.1445 -0.4464
  640MOL0     H86388   2.081   6.955   8.288 -0.1172  1.0052 -1.0750
  640MOL0     H86389   1.854   6.861   8.213 -2.6177 -1.1231 -0.0355
  640MOL0     H86390   1.587   6.778   8.309 -1.7835 -0.1671 -0.3718
  640MOL0     H86391   1.642   6.864   8.452 -2.3693 -0.6393  0.8837
  640MOL0     H86392   1.378   6.885   8.315 -0.9811 -1.6172  1.2774
  640MOL0     H86393   1.436   7.018   8.411  0.9440 -0.8407  2.9591
  640MOL0     H86394   1.473   6.768   8.563  0.5571 -1.3201 -3.2090
  640MOL0     H86395   1.309   6.781   8.501  0.9168 -1.3363 -0.3909
  640MOL0     H86396   1.326   6.895   8.721 -1.2937  0.6962 -0.0676
  640MOL0     H86397   1.266   7.005   8.604  0.6607 -0.3471 -0.9624
  640MOL0     H86398   1.629   7.205   8.698  3.7236 -0.8914 -3.0609
  640MOL0     H86399   1.675   7.191   8.408  0.4198  0.6198  0.1310
  640MOL0     H86400   1.909   7.286   8.476  2.6005  1.0266  0.3737
  641MOL0     O86401   7.965   3.663  10.208  0.3813  0.5658 -0.3588
  641MOL0     C86402   8.084   3.675  10.250  0.3739  0.5459 -0.0891
  641MOL0     O86403   8.195   3.627  10.185  0.0135  0.5761 -0.2459
  641MOL0     C86404   8.199   3.575  10.054  0.7272  0.2971 -0.5819
  641MOL0     C86405   8.323   3.557  10.003 -0.3768  0.4933 -0.4503
  641MOL0     C86406   8.350   3.512   9.872  0.2676 -0.2571  0.2309
  641MOL0     C86407   8.237   3.480   9.787  0.1554 -0.7220 -0.2755
  641MOL0     O86408   8.237   3.432   9.664 -0.2398  0.7513  0.1919
  641MOL0     C86409   8.337   3.346   9.623 -1.1111  0.1668 -0.4087
  641MOL0     C86410   8.429   3.429   9.545  0.4807 -0.0986  0.9177
  641MOL0     C86411   8.373   3.470   9.410  0.5711 -0.5436 -0.4179
  641MOL0     C86412   8.473   3.542   9.322  0.1462 -0.5912  0.9698
  641MOL0     C86413   8.413   3.554   9.186 -0.2479  0.0305  0.5327
  641MOL0     C86414   8.543   3.579   9.106  0.7047  0.7723 -0.7806
  641MOL0     C86415   8.520   3.623   8.959  1.0165 -0.2132 -0.3292
  641MOL0     C86416   8.530   3.503   8.859 -0.6989  0.7019 -0.5869
  641MOL0     N86417   8.512   3.543   8.721 -0.1488  0.0012  0.1437
  641MOL0     C86418   8.420   3.495   8.631  0.3555 -0.7791 -1.1740
  641MOL0     C86419   8.431   3.584   8.525  0.0402 -0.0173 -0.3002
  641MOL0     C86420   8.329   3.591   8.423 -0.2390  0.8501  1.0398
  641MOL0     C86421   8.345   3.479   8.330 -1.2919  0.1204  0.7796
  641MOL0     C86422   8.495   3.459   8.292 -0.2385  0.3420  1.2249
  641MOL0     C86423   8.509   3.362   8.172  0.2398 -0.0342 -0.1475
  641MOL0     O86424   8.642   3.389   8.114 -0.3893  0.3755  0.4962
  641MOL0     C86425   8.666   3.298   8.026 -1.1569 -0.8742  0.3135
  641MOL0     C86426   8.767   3.204   8.050  0.0335 -0.0191 -0.1523
  641MOL0     C86427   8.776   3.093   7.958  0.4503  0.0915 -1.0320
  641MOL0     C86428   8.859   2.974   7.987  0.6991  0.0220  0.2223
  641MOL0     C86429   8.701   3.096   7.838  0.9663  0.7767 -0.6815
  641MOL0     C86430   8.700   2.995   7.725  0.9947 -0.2688 -0.1556
  641MOL0     O86431   8.618   3.021   7.621 -0.1632  0.2451 -0.3403
  641MOL0     C86432   8.606   2.940   7.514  0.3331 -0.6505  0.1095
  641MOL0     C86433   8.568   2.804   7.525  0.6734 -0.0780  0.2431
  641MOL0     C86434   8.552   2.721   7.416  0.0123  0.0004  0.5658
  641MOL0     C86435   8.570   2.777   7.287  0.0233 -0.7192  0.2860
  641MOL0     O86436   8.557   2.687   7.189 -0.2389  0.0498 -0.7500
  641MOL0     C86437   8.424   2.654   7.149 -0.1789 -0.3076 -0.1636
  641MOL0     C86438   8.426   2.567   7.021 -0.6759  0.5485 -1.1431
  641MOL0     C86439   8.451   2.658   6.903 -0.0359 -0.3204 -0.9493
  641MOL0     C86440   8.419   2.566   6.778 -0.5496  0.3758  0.0166
  641MOL0     C86441   8.343   2.651   6.671 -0.4839 -0.3727 -0.6759
  641MOL0     C86442   8.290   2.557   6.564 -0.0819 -0.5625  0.0447
  641MOL0     C86443   8.243   2.625   6.440 -0.2758 -0.5949 -0.6263
  641MOL0     C86444   8.272   2.554   6.313 -0.1599  0.5347  0.3007
  641MOL0    Cl86445   8.305   2.676   6.187 -0.0525 -0.1917  0.1506
  641MOL0     C86446   8.620   2.908   7.270 -0.6842 -0.1884  1.2779
  641MOL0     C86447   8.634   2.998   7.385 -0.4224 -0.5232 -0.6842
  641MOL0     O86448   8.777   2.899   7.733 -1.0009  0.5570 -0.2423
  641MOL0     C86449   8.607   3.200   7.821  0.0769  0.0405  0.6221
  641MOL0     C86450   8.601   3.304   7.907 -0.0170 -0.0096  0.0691
  641MOL0     N86451   8.535   3.678   8.556 -0.0334  0.3361 -0.2131
  641MOL0     N86452   8.573   3.659   8.674  0.0375  0.5917 -0.4161
  641MOL0     C86453   8.115   3.521   9.827  0.1782  0.1545 -0.0379
  641MOL0     C86454   8.098   3.575   9.954  0.9864 -0.3148  0.0896
  641MOL0     C86455   8.101   3.764  10.372 -0.4482  0.0576  0.2321
  641MOL0     C86456   8.181   3.713  10.476  0.3060 -0.2036 -0.8773
  641MOL0     C86457   8.201   3.794  10.594 -1.2300  1.0579  0.3924
  641MOL0     C86458   8.146   3.917  10.609  0.2088 -0.1188  0.4882
  641MOL0     O86459   8.161   3.990  10.718 -0.2906  0.3977 -0.3714
  641MOL0     C86460   8.235   3.942  10.838 -0.7640  0.2399  0.1907
  641MOL0     C86461   8.154   3.843  10.924 -0.1810  0.5140  0.1921
  641MOL0     C86462   8.024   3.906  10.962 -0.0461 -0.1116  0.3755
  641MOL0     C86463   7.943   3.833  11.059  0.0736 -0.4921  0.5535
  641MOL0     C86464   7.836   3.931  11.090  0.0441  0.3537 -0.0333
  641MOL0     C86465   7.749   4.021  11.116 -0.1679 -0.4866  0.2244
  641MOL0     C86466   8.075   3.970  10.502 -0.2642  1.4732  0.0690
  641MOL0     C86467   8.053   3.897  10.383 -0.3314  0.2973 -0.3317
  641MOL0     H86468   8.395   3.579  10.081  0.2052 -1.3540 -0.4177
  641MOL0     H86469   8.453   3.485   9.850  0.6388 -0.3730  1.9386
  641MOL0     H86470   8.384   3.299   9.709  1.2293 -1.4683 -2.4235
  641MOL0     H86471   8.314   3.263   9.555  0.8996 -0.1983 -0.7277
  641MOL0     H86472   8.444   3.522   9.601 -1.7664  3.3037 -3.5073
  641MOL0     H86473   8.528   3.384   9.539  1.4500  1.4894  3.2386
  641MOL0     H86474   8.347   3.378   9.356  1.5896 -2.8335  2.6689
  641MOL0     H86475   8.283   3.528   9.430  0.6367 -0.6921  0.3733
  641MOL0     H86476   8.488   3.643   9.363 -0.9961  0.5659 -1.2863
  641MOL0     H86477   8.565   3.484   9.331 -0.6984 -1.7886  2.5237
  641MOL0     H86478   8.369   3.463   9.145  0.1319  0.4878 -0.9694
  641MOL0     H86479   8.350   3.644   9.183 -2.1289 -1.2645 -1.1142
  641MOL0     H86480   8.610   3.646   9.161 -0.5470 -0.4677  2.4197
  641MOL0     H86481   8.607   3.491   9.109 -0.0619  0.2360  0.3069
  641MOL0     H86482   8.424   3.676   8.950  1.1807 -0.0408 -1.2473
  641MOL0     H86483   8.594   3.696   8.925 -0.5127  1.9983  0.8030
  641MOL0     H86484   8.444   3.436   8.872 -1.5172  1.2964 -2.6133
  641MOL0     H86485   8.625   3.450   8.872 -1.2406 -0.3571 -0.8312
  641MOL0     H86486   8.333   3.431   8.645 -1.4440  1.5589 -0.9762
  641MOL0     H86487   8.230   3.575   8.467  0.4813  1.3165  2.9048
  641MOL0     H86488   8.347   3.686   8.371  2.0709  0.2577  0.6726
  641MOL0     H86489   8.282   3.502   8.243  1.2296  5.4862 -0.0281
  641MOL0     H86490   8.320   3.388   8.386 -0.1315 -2.1731 -2.1782
  641MOL0     H86491   8.554   3.433   8.380  2.3889  1.0621 -0.2180
  641MOL0     H86492   8.531   3.552   8.247 -1.0425 -1.0473 -2.6747
  641MOL0     H86493   8.422   3.378   8.108  0.8469  0.4269 -0.8681
  641MOL0     H86494   8.502   3.260   8.211  1.0467 -0.6013 -1.4276
  641MOL0     H86495   8.837   3.214   8.132  0.7099  0.7192 -0.8085
  641MOL0     H86496   8.927   2.966   7.902 -2.1563  2.2141 -2.5123
  641MOL0     H86497   8.902   2.988   8.087 -1.3162 -1.6685  1.4129
  641MOL0     H86498   8.796   2.885   7.991  0.7736  0.0003  1.0976
  641MOL0     H86499   8.539   2.760   7.620  4.4931  0.1598  1.6712
  641MOL0     H86500   8.538   2.615   7.434  1.4276 -0.3289 -0.1349
  641MOL0     H86501   8.385   2.589   7.228 -1.4965  1.7020  0.9449
  641MOL0     H86502   8.350   2.732   7.126 -0.3004 -0.0442  1.0646
  641MOL0     H86503   8.506   2.492   7.021 -0.5522  0.6305  0.5505
  641MOL0     H86504   8.330   2.516   7.029  1.0740 -2.8034  0.5229
  641MOL0     H86505   8.553   2.697   6.901 -0.1725 -0.0026 -2.0563
  641MOL0     H86506   8.385   2.745   6.905 -0.4484 -0.6379 -0.4078
  641MOL0     H86507   8.508   2.522   6.733 -0.2365  0.6815  0.3254
  641MOL0     H86508   8.351   2.488   6.814 -1.0694  1.2209  0.9369
  641MOL0     H86509   8.411   2.730   6.639  2.3628 -2.0793  0.7354
  641MOL0     H86510   8.259   2.686   6.732 -0.8990 -2.8797  0.2989
  641MOL0     H86511   8.383   2.506   6.540  0.0122 -0.7936  0.8745
  641MOL0     H86512   8.211   2.492   6.602 -0.2583 -0.0388  0.5962
  641MOL0     H86513   8.291   2.722   6.431  0.2594 -0.7630  0.2376
  641MOL0     H86514   8.136   2.647   6.454  0.2401  2.4498 -0.9375
  641MOL0     H86515   8.198   2.483   6.276 -0.9861  1.9843 -0.9338
  641MOL0     H86516   8.368   2.501   6.316 -0.5890 -0.4589  4.7452
  641MOL0     H86517   8.639   2.927   7.165 -3.1848  0.2917  0.8618
  641MOL0     H86518   8.677   3.097   7.372  0.9229 -1.1062 -0.7553
  641MOL0     H86519   8.549   3.215   7.731 -0.0132  0.5625  0.7653
  641MOL0     H86520   8.551   3.399   7.890 -2.3024 -1.2270 -0.3897
  641MOL0     H86521   8.026   3.504   9.767 -0.4043  2.6250  0.0190
  641MOL0     H86522   7.995   3.592   9.987  1.3352 -0.1563  1.1502
  641MOL0     H86523   8.213   3.610  10.467 -0.9927 -0.6869 -0.3539
  641MOL0     H86524   8.265   3.751  10.670  0.3600  0.4977 -1.1742
  641MOL0     H86525   8.331   3.894  10.818 -0.2633  1.7237 -1.1903
  641MOL0     H86526   8.262   4.023  10.907 -0.4816 -0.2582  0.6687
  641MOL0     H86527   8.207   3.815  11.015  0.4428  0.9032 -0.0454
  641MOL0     H86528   8.137   3.746  10.877  1.2739  0.8882 -1.2123
  641MOL0     H86529   7.971   3.919  10.867  1.1481  1.7563 -0.0901
  641MOL0     H86530   8.049   4.002  11.009 -0.2337 -1.3384  3.1735
  641MOL0     H86531   7.992   3.793  11.148  1.2305 -0.0786  0.1336
  641MOL0     H86532   7.900   3.748  11.006  1.3023 -0.8588  0.1077
  641MOL0     H86533   7.700   4.113  11.137  0.7486  0.2237 -0.6413
  641MOL0     H86534   8.053   4.075  10.518  0.7956  1.5396  1.2127
  641MOL0     H86535   8.004   3.946  10.300 -1.2524  1.3220  0.7719
  642MOL0     O86536   5.111   9.604  10.206  0.2490 -0.4046 -0.9508
  642MOL0     C86537   5.190   9.637  10.118 -0.4571  0.4133  1.1498
  642MOL0     O86538   5.159   9.728  10.024  0.1377 -0.1229 -0.2399
  642MOL0     C86539   5.045   9.806  10.018  0.6477 -1.5293 -0.7644
  642MOL0     C86540   5.003   9.840   9.894 -0.1924  0.0634 -0.7954
  642MOL0     C86541   4.879   9.908   9.873  0.5844 -0.2476  0.7188
  642MOL0     C86542   4.797   9.941   9.984 -1.1174  0.6505  0.4102
  642MOL0     O86543   4.677  10.007   9.975 -0.3750  0.1998 -0.0752
  642MOL0     C86544   4.653  10.087   9.861 -0.3840  0.5933 -0.1847
  642MOL0     C86545   4.529  10.174   9.897 -0.3746  0.8592  0.4694
  642MOL0     C86546   4.554  10.247  10.033 -0.1860  1.5057  0.5039
  642MOL0     C86547   4.443  10.346  10.062  0.7677  0.1183  0.3851
  642MOL0     C86548   4.295  10.290  10.052 -0.3329 -0.9630  0.0632
  642MOL0     C86549   4.205  10.326  10.173 -0.6060 -0.7168 -0.3689
  642MOL0     C86550   4.068  10.258  10.185 -0.1036  0.8352 -1.5344
  642MOL0     C86551   3.971  10.303  10.076  0.3948 -0.9267  0.1848
  642MOL0     N86552   3.862  10.210  10.041  0.5956  0.5723 -0.7891
  642MOL0     C86553   3.741  10.216  10.101 -0.0040 -0.5422  0.8821
  642MOL0     C86554   3.697  10.090  10.099  0.6050 -0.7003 -0.2218
  642MOL0     C86555   3.555  10.055  10.120  0.7151 -0.0363 -0.1290
  642MOL0     C86556   3.516   9.995  10.251  0.2812  0.6367 -0.9548
  642MOL0     C86557   3.597   9.871  10.298  0.2305 -0.0869 -0.7435
  642MOL0     C86558   3.597   9.750  10.201 -0.0566  0.2849 -0.4468
  642MOL0     O86559   3.644   9.636  10.268 -0.1260  0.0261  0.9320
  642MOL0     C86560   3.782   9.622  10.279 -0.6908 -0.4288 -0.9312
  642MOL0     C86561   3.836   9.519  10.358  1.0165  0.1704 -0.7800
  642MOL0     C86562   3.970   9.511  10.399 -0.8323  0.1015  0.5439
  642MOL0     C86563   4.021   9.416  10.502  0.5667  1.2452  0.6238
  642MOL0     C86564   4.066   9.600  10.333 -0.6157 -0.8572 -0.8348
  642MOL0     C86565   4.214   9.609  10.355  0.3569 -0.3571 -0.5235
  642MOL0     O86566   4.284   9.685  10.266 -0.8602  0.1364  0.0299
  642MOL0     C86567   4.414   9.714  10.305  0.3031  0.3428 -0.1922
  642MOL0     C86568   4.433   9.805  10.409 -0.1430 -0.4683  0.2518
  642MOL0     C86569   4.566   9.831  10.451  0.2153 -0.0447  0.0122
  642MOL0     C86570   4.676   9.757  10.395 -1.3328 -0.2996 -0.2718
  642MOL0     O86571   4.812   9.784  10.430  0.4383 -0.2836  0.5052
  642MOL0     C86572   4.827   9.848  10.561 -0.2399  0.7674  0.0913
  642MOL0     C86573   4.969   9.807  10.612  0.1332  0.9197  0.0454
  642MOL0     C86574   5.085   9.850  10.503 -1.2228 -0.8062 -0.7009
  642MOL0     C86575   5.195   9.942  10.554  0.0740 -1.0847  0.2354
  642MOL0     C86576   5.299   9.981  10.445  0.3462 -0.3434  0.5570
  642MOL0     C86577   5.427  10.045  10.502  0.0488 -0.8462 -0.6956
  642MOL0     C86578   5.539  10.054  10.406  0.5812 -0.2181  0.1618
  642MOL0     C86579   5.518  10.182  10.315 -0.0371 -0.3678  0.8258
  642MOL0    Cl86580   5.497  10.324  10.423 -0.4598 -0.2145 -0.1898
  642MOL0     C86581   4.655   9.664  10.299  0.4873 -0.1335  0.2446
  642MOL0     C86582   4.522   9.639  10.258  0.3874 -0.0865  0.4791
  642MOL0     O86583   4.266   9.535  10.438  0.1705 -0.1100 -0.0294
  642MOL0     C86584   4.015   9.697  10.237 -0.2999 -0.4606 -0.0751
  642MOL0     C86585   3.878   9.702  10.216 -0.5036 -0.4913  0.3565
  642MOL0     N86586   3.782  10.006  10.035  0.6110 -0.7886 -0.0645
  642MOL0     N86587   3.881  10.081   9.991  0.1445  0.5223 -0.4551
  642MOL0     C86588   4.844   9.921  10.113 -0.5724  0.1875 -0.1676
  642MOL0     C86589   4.965   9.850  10.124 -0.5041 -0.5980 -0.8952
  642MOL0     C86590   5.317   9.558  10.110  0.0669 -0.2644  0.5248
  642MOL0     C86591   5.319   9.424  10.150 -0.9963  0.8252  0.8618
  642MOL0     C86592   5.440   9.357  10.189  0.0205  0.4514 -0.3003
  642MOL0     C86593   5.566   9.420  10.176  0.3847  0.6724 -0.1225
  642MOL0     O86594   5.678   9.361  10.225 -0.1763 -0.5556 -0.1134
  642MOL0     C86595   5.817   9.413  10.200  1.0528  0.1916 -0.6010
  642MOL0     C86596   5.867   9.412  10.053  0.2579  1.5444  0.1475
  642MOL0     C86597   5.896   9.261  10.012 -0.0758 -0.4352 -0.2639
  642MOL0     C86598   5.773   9.174   9.991  0.2854  0.0653 -0.4015
  642MOL0     C86599   5.800   9.043   9.939 -1.2212 -0.3584  0.1855
  642MOL0     C86600   5.860   8.934   9.915  0.6323 -0.8219  0.3211
  642MOL0     C86601   5.559   9.546  10.116 -0.5388  0.9750  0.6186
  642MOL0     C86602   5.440   9.612  10.077  1.2436 -0.4227  0.1383
  642MOL0     H86603   5.065   9.815   9.808 -0.0711  0.6100 -0.8707
  642MOL0     H86604   4.856   9.918   9.767  0.0727 -0.0365  0.8468
  642MOL0     H86605   4.737  10.156   9.856 -0.6643  0.8408 -2.1317
  642MOL0     H86606   4.633  10.025   9.773  1.0457  0.3433 -0.3559
  642MOL0     H86607   4.517  10.246   9.816  0.5128  0.9209  0.3795
  642MOL0     H86608   4.444  10.105   9.903  0.2271  0.1156  0.5378
  642MOL0     H86609   4.569  10.172  10.111 -1.8074  1.4292  0.7618
  642MOL0     H86610   4.647  10.304  10.026  0.4233  0.4153 -0.9308
  642MOL0     H86611   4.450  10.379  10.166 -1.6524  2.1702 -0.0044
  642MOL0     H86612   4.461  10.440  10.009  0.7050  1.3284  2.4154
  642MOL0     H86613   4.259  10.317   9.952 -1.2992  0.6390  0.8232
  642MOL0     H86614   4.311  10.183  10.067  3.1324 -0.5483  0.1666
  642MOL0     H86615   4.257  10.303  10.267  1.4342 -0.1565 -1.2952
  642MOL0     H86616   4.190  10.434  10.176 -0.9252 -0.7423 -0.9255
  642MOL0     H86617   4.078  10.149  10.178  0.1372  0.8123 -0.8720
  642MOL0     H86618   4.017  10.275  10.280 -2.4226 -2.9200 -1.9184
  642MOL0     H86619   4.014  10.324   9.978 -2.9558  1.9284 -0.8491
  642MOL0     H86620   3.934  10.403  10.097  2.2642  0.7183 -3.4739
  642MOL0     H86621   3.679  10.297  10.136  0.2257  0.3843 -0.7709
  642MOL0     H86622   3.498  10.146  10.103  3.4972  1.2072 -4.2265
  642MOL0     H86623   3.527   9.990  10.036  0.8236  1.2408 -1.1776
  642MOL0     H86624   3.411   9.965  10.245 -0.1265  2.1969 -2.5688
  642MOL0     H86625   3.528  10.075  10.324  0.4596 -1.0803  0.9811
  642MOL0     H86626   3.567   9.847  10.401  0.8645  2.2778  0.0615
  642MOL0     H86627   3.697   9.913  10.309  0.3802 -0.4157 -0.8440
  642MOL0     H86628   3.635   9.769  10.100 -0.9118 -0.7281 -0.9869
  642MOL0     H86629   3.493   9.727  10.175 -0.0591  0.7583 -0.8628
  642MOL0     H86630   3.770   9.456  10.418  1.1419  0.8371  0.0897
  642MOL0     H86631   4.073   9.482  10.571  3.9586 -0.1259 -0.4190
  642MOL0     H86632   3.946   9.356  10.555 -0.5686  4.1758  2.5561
  642MOL0     H86633   4.087   9.339  10.460 -2.9233 -0.7702 -1.7543
  642MOL0     H86634   4.339   9.841  10.449  0.7652 -1.2359  3.3364
  642MOL0     H86635   4.585   9.900  10.532 -2.4616  0.8273 -0.0228
  642MOL0     H86636   4.827   9.957  10.546 -0.9641  1.0457  1.7848
  642MOL0     H86637   4.754   9.808  10.632 -0.4050 -1.6835 -1.3565
  642MOL0     H86638   4.996   9.843  10.711 -1.1468 -3.1324  2.0892
  642MOL0     H86639   4.956   9.699  10.623 -0.3520  0.8925 -0.6975
  642MOL0     H86640   5.042   9.911  10.424  0.2293  3.0216  1.2295
  642MOL0     H86641   5.129   9.762  10.455  2.6023  0.6572 -0.1961
  642MOL0     H86642   5.141  10.030  10.591 -0.4883 -0.2928 -2.2275
  642MOL0     H86643   5.254   9.897  10.634  3.1626 -0.5658 -1.5779
  642MOL0     H86644   5.248  10.054  10.381 -2.1527 -0.4541  2.2727
  642MOL0     H86645   5.309   9.883  10.397  1.1581 -0.4386  0.9121
  642MOL0     H86646   5.411  10.145  10.543  2.8180 -1.1063  1.2792
  642MOL0     H86647   5.467   9.991  10.589  2.3863  0.4934 -0.8770
  642MOL0     H86648   5.539   9.955  10.359  1.7472 -0.9043  1.5199
  642MOL0     H86649   5.639  10.065  10.450  0.2911  2.0034  0.3805
  642MOL0     H86650   5.430  10.180  10.250  1.5740 -2.1620 -1.4811
  642MOL0     H86651   5.605  10.211  10.256 -0.9915  0.5048 -0.1950
  642MOL0     H86652   4.737   9.612  10.250 -1.3040 -1.1192 -1.8824
  642MOL0     H86653   4.493   9.551  10.202  1.9592 -0.1455 -0.3127
  642MOL0     H86654   4.082   9.769  10.192  1.4228 -2.5666 -1.0490
  642MOL0     H86655   3.857   9.775  10.138  3.0068  1.6648  1.2099
  642MOL0     H86656   4.788   9.952  10.201 -0.4177 -0.4159  0.1523
  642MOL0     H86657   4.999   9.833  10.226  3.0490  1.6579 -1.5247
  642MOL0     H86658   5.225   9.383  10.186 -0.3481 -0.4242  1.2066
  642MOL0     H86659   5.426   9.267  10.249 -1.1270  0.9492  0.2137
  642MOL0     H86660   5.824   9.513  10.246  5.2550  0.5518 -1.6070
  642MOL0     H86661   5.885   9.347  10.254  1.3411 -0.9339 -2.2816
  642MOL0     H86662   5.957   9.470  10.032 -0.5712  2.0086 -2.6647
  642MOL0     H86663   5.799   9.466   9.986  1.4732  0.7220 -1.8532
  642MOL0     H86664   5.970   9.226  10.084  1.4994 -1.6934 -2.3787
  642MOL0     H86665   5.947   9.273   9.916  1.5641  0.4859  0.6745
  642MOL0     H86666   5.702   9.230   9.929 -0.1273 -0.6077 -0.5570
  642MOL0     H86667   5.726   9.165  10.089 -2.4066  0.3275 -1.5866
  642MOL0     H86668   5.898   8.841   9.878 -1.8995 -2.4471  1.5726
  642MOL0     H86669   5.648   9.604  10.095  0.7121 -1.6537 -2.2188
  642MOL0     H86670   5.438   9.715  10.041 -1.7113 -0.9388 -1.4101
  643MOL0     O86671   5.446   7.978   0.902 -0.8229  0.0619  0.5986
  643MOL0     C86672   5.501   7.910   0.986  0.0050 -0.1400 -0.2769
  643MOL0     O86673   5.523   7.942   1.109 -0.3677 -0.5822 -0.9280
  643MOL0     C86674   5.490   8.069   1.154  0.1435  0.0826  0.1812
  643MOL0     C86675   5.591   8.165   1.150 -0.3933  0.7882  0.2000
  643MOL0     C86676   5.561   8.289   1.190  0.5929  0.2151  0.0563
  643MOL0     C86677   5.436   8.326   1.244 -0.7339 -1.4152 -0.2892
  643MOL0     O86678   5.406   8.449   1.305  0.4189 -0.4610 -0.1803
  643MOL0     C86679   5.416   8.567   1.217  0.0823  0.8261 -0.5224
  643MOL0     C86680   5.400   8.699   1.285 -0.1048  0.3258 -0.0810
  643MOL0     C86681   5.404   8.801   1.172  0.1566 -0.8200 -0.5399
  643MOL0     C86682   5.432   8.950   1.226 -0.0856  0.0244 -0.4692
  643MOL0     C86683   5.434   9.059   1.109 -0.6621  1.0501  0.0162
  643MOL0     C86684   5.441   9.210   1.152 -0.9120 -0.1335 -0.0077
  643MOL0     C86685   5.313   9.277   1.205  0.7773 -1.3300 -0.7201
  643MOL0     C86686   5.339   9.375   1.321  0.2712 -0.0788  0.4534
  643MOL0     N86687   5.407   9.494   1.291  0.1061 -0.2760 -0.5212
  643MOL0     C86688   5.525   9.520   1.233 -0.1299 -0.1625  0.9539
  643MOL0     C86689   5.531   9.652   1.215  0.3927  0.4338 -0.3251
  643MOL0     C86690   5.636   9.740   1.158  1.1033 -0.4909 -0.1900
  643MOL0     C86691   5.657   9.714   1.003 -0.3843 -0.4979  0.3869
  643MOL0     C86692   5.517   9.740   0.933  0.2393 -1.1559  0.0560
  643MOL0     C86693   5.548   9.742   0.781  0.6918  0.1550  0.0904
  643MOL0     O86694   5.656   9.659   0.733 -0.4157  0.3997  0.0698
  643MOL0     C86695   5.633   9.600   0.609 -0.2282  0.1771  0.4212
  643MOL0     C86696   5.659   9.649   0.483  0.6844 -0.3627 -0.5695
  643MOL0     C86697   5.612   9.581   0.367  1.0431  0.6985 -0.8160
  643MOL0     C86698   5.609   9.657   0.235 -0.3252  0.2979  0.5506
  643MOL0     C86699   5.540   9.452   0.374  0.0399 -0.2404  0.2018
  643MOL0     C86700   5.472   9.373   0.261 -0.5467  0.1274  0.4200
  643MOL0     O86701   5.389   9.269   0.298  0.4382 -0.2944  0.4653
  643MOL0     C86702   5.323   9.191   0.202 -0.2686  0.5750 -0.3629
  643MOL0     C86703   5.180   9.174   0.213 -0.1300 -0.6515  0.3862
  643MOL0     C86704   5.108   9.132   0.100  0.5330  0.7650 -1.0516
  643MOL0     C86705   5.176   9.081  -0.011  0.3600 -0.1730 -0.4639
  643MOL0     O86706   5.090   9.025  -0.107 -0.6474 -0.0631  1.2480
  643MOL0     C86707   5.127   8.913  -0.194 -0.5652  0.0497 -0.2495
  643MOL0     C86708   4.994   8.833  -0.206 -0.0005  0.1498  0.3131
  643MOL0     C86709   5.003   8.693  -0.139 -0.1803  0.4248  0.4486
  643MOL0     C86710   4.910   8.698  -0.015 -0.2936 -0.3898 -0.5919
  643MOL0     C86711   4.929   8.565   0.060  0.3931  0.1699 -0.5648
  643MOL0     C86712   4.889   8.440  -0.028  0.5328  0.8856 -0.1928
  643MOL0     C86713   4.914   8.309   0.060 -0.3267  0.5793  0.3890
  643MOL0     C86714   5.067   8.293   0.089 -0.5341  0.4759 -0.9935
  643MOL0    Cl86715   5.140   8.135   0.118 -0.3630  0.1656  0.2611
  643MOL0     C86716   5.313   9.067  -0.008 -0.3857 -1.8170  0.3723
  643MOL0     C86717   5.386   9.123   0.096 -1.1108  0.5632  0.1042
  643MOL0     O86718   5.495   9.411   0.141 -0.2675  0.3285 -0.5323
  643MOL0     C86719   5.510   9.414   0.504  0.1857 -0.6368  0.4075
  643MOL0     C86720   5.552   9.485   0.617  0.0453  0.4873  0.9154
  643MOL0     N86721   5.425   9.711   1.283  0.5087  0.1082 -0.6285
  643MOL0     N86722   5.354   9.615   1.335 -1.0128 -0.1124  0.0948
  643MOL0     C86723   5.345   8.223   1.254  0.5736 -0.2860  0.9630
  643MOL0     C86724   5.365   8.090   1.204  0.7710  0.4412 -1.7442
  643MOL0     C86725   5.531   7.775   0.944 -0.4338  0.6771  0.4787
  643MOL0     C86726   5.631   7.698   1.009  1.2435  1.0318  0.2905
  643MOL0     C86727   5.663   7.573   0.963  0.3883  1.1443  0.6490
  643MOL0     C86728   5.607   7.521   0.848 -0.6203  0.3550 -0.2146
  643MOL0     O86729   5.647   7.400   0.791 -0.9265  0.3012  0.6983
  643MOL0     C86730   5.666   7.414   0.643 -0.3212 -0.3693 -0.0288
  643MOL0     C86731   5.775   7.319   0.591 -0.4314  0.0393 -1.3399
  643MOL0     C86732   5.717   7.199   0.498 -0.2814  0.6203 -1.1085
  643MOL0     C86733   5.810   7.071   0.518  0.0455 -0.3163  0.1825
  643MOL0     C86734   5.746   6.955   0.460 -0.5149 -0.5783  0.0345
  643MOL0     C86735   5.691   6.857   0.404 -0.1875 -0.5632 -0.0453
  643MOL0     C86736   5.495   7.589   0.800  0.0425 -0.0227 -1.8644
  643MOL0     C86737   5.455   7.712   0.849  0.3141  0.4307  0.8504
  643MOL0     H86738   5.692   8.141   1.120  0.3008 -1.5259  3.7128
  643MOL0     H86739   5.649   8.350   1.209  0.9604 -0.9335  2.3864
  643MOL0     H86740   5.518   8.562   1.177 -0.6934  0.0063 -2.5766
  643MOL0     H86741   5.356   8.543   1.128  2.3438  0.8678 -2.1468
  643MOL0     H86742   5.308   8.717   1.341  0.2423 -1.3331  1.1021
  643MOL0     H86743   5.481   8.722   1.355 -1.3758  2.7016  0.7486
  643MOL0     H86744   5.491   8.784   1.108 -1.1509  0.2164 -2.7053
  643MOL0     H86745   5.308   8.787   1.122 -0.9149  0.6491  0.9663
  643MOL0     H86746   5.359   8.977   1.303  1.6892  2.7569  0.3899
  643MOL0     H86747   5.531   8.950   1.274 -0.0357  0.1072 -0.5736
  643MOL0     H86748   5.523   9.037   1.048  1.0721 -0.9530  3.0245
  643MOL0     H86749   5.348   9.026   1.050 -0.5650 -0.9819  0.9051
  643MOL0     H86750   5.521   9.210   1.227 -1.4465 -1.3880  0.5964
  643MOL0     H86751   5.476   9.283   1.078  2.2500 -1.0490  0.4525
  643MOL0     H86752   5.259   9.332   1.127 -2.7780 -0.2239  2.1926
  643MOL0     H86753   5.242   9.199   1.234 -1.9882  1.6036  1.1747
  643MOL0     H86754   5.398   9.330   1.401 -2.1351 -0.8761  1.8882
  643MOL0     H86755   5.241   9.395   1.364  1.8499  0.3335  4.2662
  643MOL0     H86756   5.598   9.454   1.187 -0.5953  0.7203 -1.1790
  643MOL0     H86757   5.607   9.846   1.165 -0.4250 -0.9926  2.1295
  643MOL0     H86758   5.718   9.714   1.226  0.3925 -2.5981 -0.0948
  643MOL0     H86759   5.699   9.614   0.991  3.4434  0.8466  0.9938
  643MOL0     H86760   5.723   9.791   0.962 -0.7904 -1.0347 -1.3160
  643MOL0     H86761   5.473   9.831   0.975  0.0317 -1.6072  0.8452
  643MOL0     H86762   5.448   9.660   0.963  0.9167 -1.4554  0.8798
  643MOL0     H86763   5.576   9.845   0.758 -0.7542  0.5422 -0.0048
  643MOL0     H86764   5.452   9.718   0.735  0.1417  4.1662 -1.1883
  643MOL0     H86765   5.721   9.738   0.487 -2.8649  2.3009  0.2036
  643MOL0     H86766   5.661   9.751   0.256 -0.4667  0.2973  0.9176
  643MOL0     H86767   5.650   9.599   0.151 -0.1587  2.3506 -0.8689
  643MOL0     H86768   5.507   9.679   0.204 -0.5569 -1.8535 -0.3924
  643MOL0     H86769   5.127   9.227   0.291 -0.7543  2.6677 -2.0393
  643MOL0     H86770   5.000   9.135   0.103  0.4572 -1.1394  0.0008
  643MOL0     H86771   5.162   8.941  -0.294  3.2360 -1.4381  0.4796
  643MOL0     H86772   5.210   8.847  -0.165 -0.4714 -0.4080 -1.5179
  643MOL0     H86773   4.911   8.891  -0.164  1.6240  4.3334 -1.6574
  643MOL0     H86774   4.970   8.827  -0.313  1.9144 -1.9897 -0.0791
  643MOL0     H86775   5.107   8.670  -0.118  0.6877  2.4048 -1.2998
  643MOL0     H86776   4.967   8.629  -0.220  0.6741 -1.5282  1.5569
  643MOL0     H86777   4.941   8.770   0.062 -2.2969 -1.5106  1.3681
  643MOL0     H86778   4.805   8.721  -0.037  0.5981  2.4018 -2.5069
  643MOL0     H86779   4.870   8.569   0.152 -4.1394 -0.9147 -3.0928
  643MOL0     H86780   5.036   8.558   0.082  0.1991 -1.0162  0.0526
  643MOL0     H86781   4.782   8.448  -0.048  0.0343 -0.4215  1.7160
  643MOL0     H86782   4.938   8.450  -0.125  1.5448 -0.3885  0.1544
  643MOL0     H86783   4.896   8.221  -0.002  3.1868 -1.4212  1.9057
  643MOL0     H86784   4.854   8.320   0.151  0.1643 -2.3013  1.1672
  643MOL0     H86785   5.094   8.358   0.173  0.9926  2.0544 -2.6100
  643MOL0     H86786   5.118   8.339   0.004 -0.4054  0.7435 -0.7718
  643MOL0     H86787   5.350   9.026  -0.102  1.8681 -2.8839  1.6327
  643MOL0     H86788   5.494   9.123   0.087 -1.1703  0.0007 -0.7916
  643MOL0     H86789   5.448   9.325   0.511 -0.4580 -0.1016  2.2001
  643MOL0     H86790   5.527   9.447   0.715 -1.2658 -1.9432 -0.2505
  643MOL0     H86791   5.242   8.241   1.286 -0.3745 -1.1230 -1.3638
  643MOL0     H86792   5.300   8.003   1.209 -0.1626  1.1762  0.6254
  643MOL0     H86793   5.692   7.731   1.092  0.3121 -0.0871  1.4533
  643MOL0     H86794   5.744   7.515   1.008  0.2283 -0.0341 -0.5157
  643MOL0     H86795   5.572   7.401   0.589  0.0038 -3.4220 -0.0406
  643MOL0     H86796   5.713   7.511   0.630  2.5267 -1.9063 -2.3630
  643MOL0     H86797   5.830   7.275   0.675  0.9742  2.1324 -1.0948
  643MOL0     H86798   5.854   7.369   0.534  0.5311 -0.3783 -0.4047
  643MOL0     H86799   5.720   7.233   0.394  3.3827  2.9821 -0.4145
  643MOL0     H86800   5.616   7.179   0.536  1.1954 -1.4427  2.1240
  643MOL0     H86801   5.830   7.054   0.624  3.9080  0.6568 -0.2523
  643MOL0     H86802   5.911   7.090   0.482  0.1282  2.1727  1.5388
  643MOL0     H86803   5.641   6.781   0.347 -3.6911 -1.1021  3.2982
  643MOL0     H86804   5.449   7.522   0.728  1.3388 -3.0361 -0.0880
  643MOL0     H86805   5.360   7.755   0.818  0.6014  0.8116  0.4976
  644MOL0     O86806  10.544   7.263   8.525  0.8125  0.4473  0.9773
  644MOL0     C86807  10.508   7.272   8.412  0.5213 -0.0383  1.1688
  644MOL0     O86808  10.418   7.194   8.342 -1.5333  0.8091 -0.5479
  644MOL0     C86809  10.334   7.117   8.417 -0.6303 -0.0038 -0.6548
  644MOL0     C86810  10.229   7.182   8.482  1.5705 -0.0791  0.0058
  644MOL0     C86811  10.123   7.109   8.531 -0.0190 -0.1697  0.1047
  644MOL0     C86812  10.136   6.965   8.541 -0.1134 -0.2035  0.2670
  644MOL0     O86813  10.042   6.882   8.598 -0.5876 -0.4730 -0.2796
  644MOL0     C86814   9.919   6.871   8.529  0.5135 -0.3508  0.9923
  644MOL0     C86815   9.922   6.761   8.420  0.3740 -0.8085  0.2854
  644MOL0     C86816   9.816   6.777   8.304 -0.6441  0.5434 -0.4234
  644MOL0     C86817   9.674   6.762   8.351  0.5578  0.0401  0.1179
  644MOL0     C86818   9.572   6.829   8.249 -0.2776  0.6886  0.2041
  644MOL0     C86819   9.426   6.795   8.276 -0.2693 -0.7527 -1.0404
  644MOL0     C86820   9.412   6.646   8.235 -0.1321 -1.5702 -0.5185
  644MOL0     C86821   9.270   6.594   8.215  0.5575 -0.4000  0.6632
  644MOL0     N86822   9.269   6.447   8.184  0.5738 -0.1912  0.5454
  644MOL0     C86823   9.339   6.383   8.080 -0.2059  0.3919  0.6156
  644MOL0     C86824   9.297   6.259   8.081  0.3199 -0.6109  0.3817
  644MOL0     C86825   9.362   6.157   8.001  1.0699 -0.1877  0.1488
  644MOL0     C86826   9.504   6.143   8.028 -0.6008 -0.3460  0.7654
  644MOL0     C86827   9.572   6.028   7.946  0.4132 -0.1638  0.0141
  644MOL0     C86828   9.539   5.880   7.982  0.4469  1.3277 -0.6591
  644MOL0     O86829   9.544   5.849   8.125  0.1846 -0.1719 -0.6183
  644MOL0     C86830   9.479   5.742   8.174 -0.0628  0.0475 -0.6816
  644MOL0     C86831   9.504   5.706   8.308 -0.8078  0.5199  0.8080
  644MOL0     C86832   9.444   5.591   8.379  0.8154 -0.5825  0.2371
  644MOL0     C86833   9.488   5.570   8.516  0.2471 -0.1897  1.1960
  644MOL0     C86834   9.347   5.511   8.307 -0.3200 -0.2111  1.0646
  644MOL0     C86835   9.291   5.375   8.347 -0.9340 -0.3276  0.2053
  644MOL0     O86836   9.230   5.318   8.248 -0.3683 -0.5378  0.6508
  644MOL0     C86837   9.133   5.230   8.281  0.3699  0.2624  0.0986
  644MOL0     C86838   9.162   5.094   8.262  0.5676 -0.4996 -0.1484
  644MOL0     C86839   9.056   4.998   8.278 -0.0959 -0.1877 -0.4141
  644MOL0     C86840   8.932   5.041   8.327  0.6166  0.7955 -0.0475
  644MOL0     O86841   8.828   4.947   8.345  0.7560 -0.0912  0.6653
  644MOL0     C86842   8.840   4.835   8.435 -0.6477 -0.2732 -0.1061
  644MOL0     C86843   8.712   4.750   8.430 -0.7657  0.0274 -0.4963
  644MOL0     C86844   8.716   4.663   8.300 -1.0969  0.9731 -0.0783
  644MOL0     C86845   8.592   4.661   8.213  0.3948 -0.7241  0.7283
  644MOL0     C86846   8.578   4.543   8.121  0.4271 -0.9503  0.1741
  644MOL0     C86847   8.459   4.576   8.038 -0.6439  0.5124 -0.2691
  644MOL0     C86848   8.464   4.483   7.919  1.1373 -0.1733 -0.0745
  644MOL0     C86849   8.327   4.461   7.861  0.0024  0.3035  0.6387
  644MOL0    Cl86850   8.242   4.623   7.825  0.3107 -0.2896 -0.2344
  644MOL0     C86851   8.908   5.180   8.343 -1.3207  0.6935 -0.4779
  644MOL0     C86852   9.011   5.270   8.333 -0.2241 -0.0565  1.1468
  644MOL0     O86853   9.298   5.332   8.466 -0.3335 -0.1144  0.7630
  644MOL0     C86854   9.336   5.550   8.165  0.1387  0.5282 -0.6918
  644MOL0     C86855   9.401   5.654   8.107 -0.5703 -0.0859 -0.3008
  644MOL0     N86856   9.212   6.243   8.187  0.7311  0.5211  0.6129
  644MOL0     N86857   9.194   6.355   8.243  0.1561 -0.0140 -0.0872
  644MOL0     C86858  10.246   6.894   8.486 -0.8474 -0.0916  0.8965
  644MOL0     C86859  10.339   6.972   8.413  0.2299 -1.0472  0.9031
  644MOL0     C86860  10.579   7.376   8.323  0.1493 -0.1855 -0.6294
  644MOL0     C86861  10.600   7.368   8.186  0.6848  1.0303  0.1655
  644MOL0     C86862  10.665   7.456   8.112 -0.4714 -0.1326 -1.2688
  644MOL0     C86863  10.730   7.557   8.176 -0.2868  0.3480 -0.3992
  644MOL0     O86864  10.796   7.653   8.108  0.8079 -0.0822  0.3100
  644MOL0     C86865  10.711   7.754   8.040 -1.0791 -0.3461 -0.0825
  644MOL0     C86866  10.673   7.872   8.135  0.7538  0.5725 -0.7452
  644MOL0     C86867  10.787   7.943   8.210  0.2613 -0.0569  0.3549
  644MOL0     C86868  10.910   7.955   8.124  0.0644  0.5940  0.5327
  644MOL0     C86869  10.888   8.040   8.000  0.3578 -0.2165 -0.1738
  644MOL0     C86870  10.871   8.126   7.916 -0.5520  0.0201  0.5633
  644MOL0     C86871  10.720   7.569   8.316  0.1814 -0.0016  0.3582
  644MOL0     C86872  10.639   7.484   8.391 -0.4969 -0.2322  0.0082
  644MOL0     H86873  10.220   7.290   8.483  0.8197 -0.1098 -1.1846
  644MOL0     H86874  10.031   7.155   8.566 -1.2100  0.0476 -2.9972
  644MOL0     H86875   9.833   6.849   8.593  0.6777  1.2825  1.8227
  644MOL0     H86876   9.901   6.965   8.478  1.1671 -1.4240 -1.3660
  644MOL0     H86877  10.018   6.769   8.367 -0.8707 -0.7118 -2.0835
  644MOL0     H86878   9.931   6.660   8.461  0.0407 -1.5366 -1.3581
  644MOL0     H86879   9.831   6.877   8.263  0.2842  0.5638 -0.0447
  644MOL0     H86880   9.840   6.701   8.229  0.5927  0.4153  0.0878
  644MOL0     H86881   9.660   6.655   8.366  3.7935 -0.5982 -0.6798
  644MOL0     H86882   9.648   6.801   8.450 -1.9919  2.1801 -1.2624
  644MOL0     H86883   9.580   6.936   8.272  0.1760  0.5379  0.7569
  644MOL0     H86884   9.607   6.815   8.146 -0.4932 -0.0339  0.2235
  644MOL0     H86885   9.391   6.817   8.378 -1.2500 -0.0035 -1.5204
  644MOL0     H86886   9.359   6.861   8.219  0.3701  0.3551 -0.5456
  644MOL0     H86887   9.467   6.621   8.144  1.6545 -0.3809  0.1865
  644MOL0     H86888   9.451   6.591   8.322 -1.0126  2.7674  3.0091
  644MOL0     H86889   9.221   6.648   8.133  1.9473 -0.7902 -0.4562
  644MOL0     H86890   9.219   6.617   8.309  0.1008  3.1689 -0.3089
  644MOL0     H86891   9.407   6.434   8.012 -0.2284 -1.6640 -1.0615
  644MOL0     H86892   9.315   6.060   8.022  1.5957  0.1239  3.3150
  644MOL0     H86893   9.330   6.175   7.898 -1.8180 -1.7711  0.6518
  644MOL0     H86894   9.526   6.121   8.132 -1.5228 -1.7306  0.6888
  644MOL0     H86895   9.541   6.241   7.996 -0.2484 -0.5447  0.5518
  644MOL0     H86896   9.679   6.039   7.961  0.4725 -1.3303  0.5995
  644MOL0     H86897   9.542   6.043   7.842 -4.8911 -0.1342  1.2513
  644MOL0     H86898   9.614   5.812   7.941 -1.9069 -1.9734  0.1046
  644MOL0     H86899   9.445   5.850   7.935  0.8268 -2.5491  0.7206
  644MOL0     H86900   9.569   5.779   8.357  2.6762 -0.6971 -1.6380
  644MOL0     H86901   9.406   5.544   8.584 -0.3350  0.0183  0.5734
  644MOL0     H86902   9.555   5.485   8.532  1.0826  0.4386  1.0940
  644MOL0     H86903   9.549   5.657   8.546  2.3998 -0.0952 -2.8255
  644MOL0     H86904   9.262   5.065   8.230 -0.1578 -1.2182 -1.9226
  644MOL0     H86905   9.066   4.895   8.246 -0.9201 -0.6561  0.7774
  644MOL0     H86906   8.918   4.762   8.411 -0.5328  0.4903 -2.3304
  644MOL0     H86907   8.855   4.874   8.536  0.7300 -0.4942 -0.1998
  644MOL0     H86908   8.715   4.684   8.518  2.5540 -1.1842 -1.3562
  644MOL0     H86909   8.627   4.816   8.446  0.5403  1.2006  2.2275
  644MOL0     H86910   8.757   4.566   8.328 -2.6918  0.7200  1.5925
  644MOL0     H86911   8.793   4.695   8.229  1.7439  0.4062  2.5267
  644MOL0     H86912   8.504   4.677   8.276  0.3111  0.8178  0.2745
  644MOL0     H86913   8.609   4.748   8.148  0.6889 -1.9819 -0.9278
  644MOL0     H86914   8.567   4.447   8.172  1.2717  0.4214  3.1186
  644MOL0     H86915   8.667   4.541   8.057 -0.4911  1.4540 -1.2985
  644MOL0     H86916   8.365   4.566   8.094  0.9019 -1.5529  2.2248
  644MOL0     H86917   8.464   4.677   7.999  0.3913  0.6625  0.2239
  644MOL0     H86918   8.498   4.386   7.958  0.4544  0.3813  2.0015
  644MOL0     H86919   8.543   4.507   7.847  0.7620  0.1762 -0.3695
  644MOL0     H86920   8.277   4.395   7.933 -0.1291 -1.7756 -1.2360
  644MOL0     H86921   8.337   4.403   7.769  1.7102  2.5790 -0.7031
  644MOL0     H86922   8.806   5.190   8.378 -0.6106 -0.2272  2.0314
  644MOL0     H86923   8.986   5.372   8.362  0.7425  1.2515 -2.0384
  644MOL0     H86924   9.273   5.492   8.098  2.3938 -1.2448 -1.4181
  644MOL0     H86925   9.377   5.657   8.001  0.2950 -4.3285 -0.7959
  644MOL0     H86926  10.251   6.786   8.478 -2.9732 -0.1835  0.3087
  644MOL0     H86927  10.423   6.932   8.357  1.4110  1.0816  1.0124
  644MOL0     H86928  10.541   7.290   8.140  0.4072  0.8537  0.8072
  644MOL0     H86929  10.688   7.459   8.006  1.9721  2.0052 -0.7802
  644MOL0     H86930  10.774   7.809   7.969 -2.7903  3.4076  1.1012
  644MOL0     H86931  10.623   7.717   7.987  0.4729 -2.0451 -1.6281
  644MOL0     H86932  10.600   7.833   8.207  2.0886 -0.5368  0.0811
  644MOL0     H86933  10.615   7.947   8.082 -0.7243 -0.9188 -1.3154
  644MOL0     H86934  10.796   7.883   8.301 -2.4768 -0.3166  0.5446
  644MOL0     H86935  10.780   8.047   8.245 -0.4645  1.6638 -4.1782
  644MOL0     H86936  10.932   7.854   8.087 -1.4369  1.0352 -1.8160
  644MOL0     H86937  10.991   7.992   8.188  0.6157 -3.2886  2.3518
  644MOL0     H86938  10.830   8.186   7.837 -2.6273  0.4472  1.8987
  644MOL0     H86939  10.767   7.657   8.357 -0.7888  0.5713  0.2724
  644MOL0     H86940  10.625   7.495   8.498  0.2020  1.0811 -0.0149
  645MOL0     O86941   4.450   9.944   3.549  0.8202 -0.5241 -0.1148
  645MOL0     C86942   4.372  10.036   3.515  0.0079  0.9979 -1.0076
  645MOL0     O86943   4.275  10.082   3.592  0.1214 -0.8342 -0.5806
  645MOL0     C86944   4.227  10.023   3.702  0.0459 -0.2716  1.2296
  645MOL0     C86945   4.258   9.890   3.740 -0.0016  0.5737 -1.1819
  645MOL0     C86946   4.190   9.834   3.859  0.6527  0.9370 -0.3785
  645MOL0     C86947   4.113   9.915   3.939  0.2937 -0.6546  1.1336
  645MOL0     O86948   4.054   9.854   4.049  0.2657 -0.1887 -0.0349
  645MOL0     C86949   3.979   9.930   4.151  0.2945 -0.8238  0.1198
  645MOL0     C86950   3.832   9.959   4.104 -0.7004  0.4888 -0.8877
  645MOL0     C86951   3.760  10.062   4.179  0.0882  0.7330  0.0007
  645MOL0     C86952   3.618  10.079   4.132 -0.2683  0.5114 -0.1395
  645MOL0     C86953   3.541  10.161   4.245 -0.1271 -0.2078 -0.0722
  645MOL0     C86954   3.397  10.190   4.217 -0.5172  0.8309  0.6114
  645MOL0     C86955   3.319  10.241   4.341  0.4937 -0.0616 -0.4462
  645MOL0     C86956   3.178  10.272   4.290  0.5361  0.3785  0.0241
  645MOL0     N86957   3.090  10.328   4.393 -0.0672 -0.3021  0.2894
  645MOL0     C86958   3.073  10.463   4.422 -1.1076  0.1857 -0.1763
  645MOL0     C86959   2.967  10.464   4.515 -0.3745 -0.1150 -0.1237
  645MOL0     C86960   2.919  10.592   4.582 -0.0256 -0.3190 -0.2245
  645MOL0     C86961   2.831  10.562   4.703  0.7730  0.3105 -0.1032
  645MOL0     C86962   2.796  10.687   4.785 -0.5173  0.2657  0.0970
  645MOL0     C86963   2.924  10.739   4.858 -0.3148  0.2854  0.1685
  645MOL0     O86964   2.976  10.636   4.933  0.5381  0.0799 -0.3980
  645MOL0     C86965   3.039  10.662   5.052  0.0146 -1.0646  0.2058
  645MOL0     C86966   3.087  10.784   5.108  0.2987 -0.3474  0.5733
  645MOL0     C86967   3.132  10.782   5.247 -0.6255  0.9842  0.1776
  645MOL0     C86968   3.169  10.916   5.300  0.4259  0.4634 -0.0181
  645MOL0     C86969   3.162  10.659   5.309  0.7156  0.1860  0.3439
  645MOL0     C86970   3.234  10.640   5.438  0.1110  0.1711  0.7370
  645MOL0     O86971   3.223  10.512   5.495 -0.0150 -0.6807  0.9406
  645MOL0     C86972   3.303  10.469   5.594  0.9022 -0.1996  0.0496
  645MOL0     C86973   3.409  10.541   5.662  0.3715  0.7679 -0.6767
  645MOL0     C86974   3.464  10.497   5.787  0.1057  0.2207  0.0265
  645MOL0     C86975   3.421  10.375   5.847  0.9028 -0.0152 -0.4097
  645MOL0     O86976   3.467  10.332   5.975  0.2532  0.5880  0.7072
  645MOL0     C86977   3.380  10.259   6.064  0.0387  0.7678  0.8372
  645MOL0     C86978   3.447  10.267   6.203  0.6812  0.4413  0.5247
  645MOL0     C86979   3.548  10.147   6.232 -0.3606 -0.3826  1.4914
  645MOL0     C86980   3.517  10.071   6.360  0.4363 -0.0648 -0.0281
  645MOL0     C86981   3.546  10.163   6.480  0.0461 -0.9121  0.3240
  645MOL0     C86982   3.450  10.166   6.592  0.9148 -1.2575  0.5580
  645MOL0     C86983   3.414  10.033   6.665  0.6609  0.3749  1.1103
  645MOL0     C86984   3.536   9.973   6.744  0.7841 -0.5325 -0.0721
  645MOL0    Cl86985   3.528  10.038   6.914  0.1321  0.0901 -0.2493
  645MOL0     C86986   3.331  10.290   5.772  0.2248 -0.4014  0.2876
  645MOL0     C86987   3.283  10.344   5.645  0.0144  0.7275  1.0772
  645MOL0     O86988   3.292  10.742   5.485 -0.4002  0.0510  0.3611
  645MOL0     C86989   3.113  10.540   5.245 -0.2692  0.0481 -0.8224
  645MOL0     C86990   3.056  10.536   5.117  0.4242  0.9547 -0.1806
  645MOL0     N86991   2.931  10.328   4.537  0.5450  0.5245 -0.2295
  645MOL0     N86992   3.005  10.255   4.457 -0.3572 -0.2165 -0.1572
  645MOL0     C86993   4.103  10.055   3.908  0.0465  0.3138 -1.1109
  645MOL0     C86994   4.145  10.103   3.787 -0.4446  0.2053  0.6005
  645MOL0     C86995   4.401  10.097   3.382  0.7988 -0.6422  0.5689
  645MOL0     C86996   4.499  10.039   3.294  0.2469 -0.8988 -0.8481
  645MOL0     C86997   4.528  10.099   3.171  0.2177  0.4229 -0.0723
  645MOL0     C86998   4.454  10.208   3.125 -0.5918 -0.2111 -0.1498
  645MOL0     O86999   4.476  10.226   2.994 -0.1532  1.4026  0.1628
  645MOL0     C87000   4.409  10.332   2.916 -0.2718  0.7117 -0.0776
  645MOL0     C87001   4.467  10.472   2.943 -0.1654  0.0276  0.0394
  645MOL0     C87002   4.411  10.588   2.868  0.7847  0.2315  1.0107
  645MOL0     C87003   4.389  10.717   2.954  0.1612  0.8229  0.4689
  645MOL0     C87004   4.506  10.792   2.968  0.1781 -0.3580  0.1622
  645MOL0     C87005   4.615  10.842   2.948  0.3404  0.4913 -0.8652
  645MOL0     C87006   4.360  10.274   3.208  0.7105 -0.2373 -0.4621
  645MOL0     C87007   4.332  10.217   3.334  0.4525 -0.4094 -0.0112
  645MOL0     H87008   4.311   9.817   3.680  0.5433  2.6020 -3.2901
  645MOL0     H87009   4.181   9.728   3.882 -0.2337  0.6313 -1.9624
  645MOL0     H87010   3.975   9.864   4.238 -1.9229 -2.5152 -1.1745
  645MOL0     H87011   4.032  10.023   4.174  2.8343 -1.2225 -3.3052
  645MOL0     H87012   3.843  10.010   4.008  1.9726 -0.0443 -0.9467
  645MOL0     H87013   3.777   9.868   4.083 -1.7757  1.4213 -2.2805
  645MOL0     H87014   3.754  10.030   4.283 -3.4255 -2.8879 -1.0712
  645MOL0     H87015   3.812  10.158   4.184  1.1278  0.2494 -0.9552
  645MOL0     H87016   3.630  10.131   4.037  3.6461 -4.5753 -2.9690
  645MOL0     H87017   3.568   9.983   4.113  1.1640 -0.4391  0.6915
  645MOL0     H87018   3.534  10.102   4.336 -1.2921 -2.0427 -1.2805
  645MOL0     H87019   3.599  10.252   4.262  1.2736 -0.3583 -3.2705
  645MOL0     H87020   3.398  10.266   4.138 -0.6672  0.6842  0.4684
  645MOL0     H87021   3.352  10.098   4.178  1.2091 -0.0248  0.5725
  645MOL0     H87022   3.321  10.168   4.422 -0.3279  0.6697  0.2564
  645MOL0     H87023   3.353  10.337   4.381  1.3707  2.2024 -5.7152
  645MOL0     H87024   3.123  10.185   4.253  0.7940  0.6900 -1.1102
  645MOL0     H87025   3.181  10.344   4.208  0.3896  1.9464  1.3315
  645MOL0     H87026   3.115  10.552   4.376 -1.8706 -1.3397 -4.1781
  645MOL0     H87027   3.003  10.657   4.608 -0.1614  0.1189 -0.8582
  645MOL0     H87028   2.860  10.661   4.521  0.8473 -0.3897 -1.1759
  645MOL0     H87029   2.887  10.485   4.757 -2.7875 -2.5090  0.0137
  645MOL0     H87030   2.741  10.514   4.662  0.2905  1.7678 -0.8307
  645MOL0     H87031   2.726  10.656   4.864  0.8089  3.1036  2.5691
  645MOL0     H87032   2.753  10.757   4.714  0.8908  0.5466 -0.5067
  645MOL0     H87033   2.909  10.827   4.922  3.1271  0.7620  0.4864
  645MOL0     H87034   2.999  10.758   4.780  0.2012  0.0319  0.5995
  645MOL0     H87035   3.062  10.877   5.057 -3.1857 -1.3999  0.0851
  645MOL0     H87036   3.156  10.915   5.409 -0.5736  1.5799 -0.1083
  645MOL0     H87037   3.272  10.944   5.278  0.1855  0.3651 -1.3581
  645MOL0     H87038   3.102  10.986   5.250  0.0855  0.1916  0.0491
  645MOL0     H87039   3.431  10.646   5.642 -1.8292  1.4709  0.2889
  645MOL0     H87040   3.548  10.553   5.826  0.4502  1.8966 -2.8431
  645MOL0     H87041   3.281  10.305   6.067  1.2385  3.6446 -0.2383
  645MOL0     H87042   3.389  10.155   6.032 -1.7108  1.7589 -3.6311
  645MOL0     H87043   3.499  10.364   6.205 -3.3024  2.8715 -1.6919
  645MOL0     H87044   3.367  10.272   6.276 -1.0281 -1.1333 -1.1257
  645MOL0     H87045   3.651  10.184   6.234  0.5895 -2.6762  5.1116
  645MOL0     H87046   3.562  10.081   6.146  3.8046  1.8108  0.2266
  645MOL0     H87047   3.415  10.033   6.354  0.4817 -0.6103  2.0001
  645MOL0     H87048   3.591   9.990   6.358  1.7009  1.0249 -2.7057
  645MOL0     H87049   3.568  10.264   6.445 -3.1983  0.0271  0.6456
  645MOL0     H87050   3.636  10.128   6.532  0.2495 -2.3403 -0.9116
  645MOL0     H87051   3.486  10.241   6.662  0.4980 -0.1826 -0.3502
  645MOL0     H87052   3.360  10.207   6.545  1.1434 -0.6479  0.6539
  645MOL0     H87053   3.365   9.966   6.594  1.7965  1.6459 -0.9920
  645MOL0     H87054   3.341  10.051   6.745 -0.2545 -0.6446  0.5285
  645MOL0     H87055   3.628   9.993   6.689  0.3341 -2.0852 -1.5051
  645MOL0     H87056   3.535   9.863   6.746 -2.6836 -0.6419 -0.6333
  645MOL0     H87057   3.295  10.196   5.812  1.5029 -0.7704  0.6148
  645MOL0     H87058   3.221  10.276   5.587  1.6030 -0.6644  0.9459
  645MOL0     H87059   3.125  10.439   5.282 -1.7069 -0.1160 -0.7558
  645MOL0     H87060   3.008  10.448   5.075  0.5883  2.3184 -3.6046
  645MOL0     H87061   4.056  10.123   3.979 -0.3077 -0.8123 -0.2322
  645MOL0     H87062   4.124  10.203   3.750  2.2399 -0.0409 -1.9435
  645MOL0     H87063   4.543   9.942   3.314 -3.0445 -2.0318  1.8914
  645MOL0     H87064   4.604  10.060   3.103  3.3067  1.0361  2.7686
  645MOL0     H87065   4.410  10.304   2.811  0.7173  0.9173 -0.1337
  645MOL0     H87066   4.310  10.323   2.960  0.2407  3.0511  1.7706
  645MOL0     H87067   4.576  10.469   2.935  0.1325 -1.3889  3.0446
  645MOL0     H87068   4.454  10.488   3.051 -3.0901  0.2561 -0.2581
  645MOL0     H87069   4.310  10.569   2.832  1.2908 -0.5310 -0.0403
  645MOL0     H87070   4.472  10.590   2.778 -0.2633 -0.6389  0.2610
  645MOL0     H87071   4.337  10.685   3.045  0.2175 -0.9941 -0.1002
  645MOL0     H87072   4.320  10.786   2.905  1.0214  1.9253  0.7608
  645MOL0     H87073   4.702  10.898   2.923  0.6537  2.7197  4.0172
  645MOL0     H87074   4.305  10.363   3.177  0.4117  1.0352  3.2501
  645MOL0     H87075   4.274  10.279   3.402  2.5398  1.0154  0.5913
  646MOL0     O87076   3.464   3.449  10.082  0.7382 -0.2058 -0.3190
  646MOL0     C87077   3.494   3.354  10.152 -0.2588 -0.2502 -0.1148
  646MOL0     O87078   3.429   3.320  10.271 -0.2435  0.6795  0.7278
  646MOL0     C87079   3.303   3.372  10.298  0.8268  0.4693 -0.3919
  646MOL0     C87080   3.278   3.403  10.428  0.9704 -0.0497  0.5981
  646MOL0     C87081   3.153   3.454  10.471 -0.1512  0.3275  0.6594
  646MOL0     C87082   3.044   3.466  10.379 -0.6291  0.0658  0.1575
  646MOL0     O87083   2.924   3.523  10.413  0.8126 -0.1761  0.1270
  646MOL0     C87084   2.887   3.527  10.550 -0.0968  0.0141 -0.1243
  646MOL0     C87085   2.738   3.566  10.566  0.3450 -0.4914 -0.1718
  646MOL0     C87086   2.642   3.455  10.511  0.2011 -0.8684  0.2246
  646MOL0     C87087   2.610   3.482  10.366  0.0794  0.2351  1.3253
  646MOL0     C87088   2.537   3.370  10.291 -0.4135  0.1619 -0.7111
  646MOL0     C87089   2.405   3.334  10.367 -0.6568  0.4852 -0.1011
  646MOL0     C87090   2.312   3.448  10.371  0.1260 -0.6722 -0.2223
  646MOL0     C87091   2.171   3.409  10.398  0.1045  0.1339 -0.0706
  646MOL0     N87092   2.091   3.332  10.298  0.3880  0.6572 -0.6885
  646MOL0     C87093   2.057   3.198  10.318 -0.3874 -0.1518 -0.1205
  646MOL0     C87094   1.957   3.187  10.225 -0.4171 -0.5438 -0.8876
  646MOL0     C87095   1.859   3.082  10.209 -0.3422 -0.6084 -0.7705
  646MOL0     C87096   1.814   3.013  10.343  0.0572  0.3884 -0.2878
  646MOL0     C87097   1.747   3.103  10.448  1.7740  0.3660 -1.1634
  646MOL0     C87098   1.608   3.148  10.413  0.1126  0.2832  0.2555
  646MOL0     O87099   1.558   3.230  10.521  0.3922 -0.0222  0.5448
  646MOL0     C87100   1.552   3.366  10.488  0.3658  0.4900 -1.4995
  646MOL0     C87101   1.470   3.448  10.567 -0.7424 -0.1328  0.3456
  646MOL0     C87102   1.436   3.577  10.529 -0.0138  1.0761 -0.1974
  646MOL0     C87103   1.333   3.649  10.618 -0.6665  0.0648 -0.3680
  646MOL0     C87104   1.485   3.630  10.409  0.4953 -0.1580 -0.8557
  646MOL0     C87105   1.462   3.766  10.347  0.1396  0.1754  0.7385
  646MOL0     O87106   1.528   3.797  10.227 -0.7925 -0.5809 -0.0441
  646MOL0     C87107   1.508   3.921  10.174  0.0148 -0.6834 -0.0847
  646MOL0     C87108   1.391   3.986  10.163  0.0890  0.0987 -0.1284
  646MOL0     C87109   1.387   4.108  10.085  0.8216  0.1327  0.2976
  646MOL0     C87110   1.509   4.170  10.051 -0.9504  0.5398  0.7908
  646MOL0     O87111   1.524   4.297   9.984 -0.0120 -0.0496 -0.7611
  646MOL0     C87112   1.420   4.395   9.995  0.5861  0.6621  0.1674
  646MOL0     C87113   1.488   4.517   9.942 -0.4844 -0.8047 -0.0051
  646MOL0     C87114   1.575   4.581  10.047 -0.0649  0.2522 -1.3396
  646MOL0     C87115   1.716   4.522  10.076 -0.3228  0.0233  0.0532
  646MOL0     C87116   1.806   4.620  10.152 -0.7973  0.5238 -1.2992
  646MOL0     C87117   1.950   4.569  10.173 -0.0823  0.0488 -0.5802
  646MOL0     C87118   2.028   4.652  10.284  0.6748  0.0854  0.4120
  646MOL0     C87119   2.176   4.655  10.249 -0.8437  0.2032 -0.3230
  646MOL0    Cl87120   2.250   4.498  10.300 -0.1114  0.4224  0.7262
  646MOL0     C87121   1.631   4.118  10.101 -0.1259 -0.7579 -0.0535
  646MOL0     C87122   1.631   3.988  10.140 -0.2790  0.2481 -0.3268
  646MOL0     O87123   1.381   3.840  10.402  0.5677 -0.2633  0.5441
  646MOL0     C87124   1.591   3.560  10.354  0.2786 -0.7007  0.8852
  646MOL0     C87125   1.622   3.430  10.385  0.4575  0.2056  0.4016
  646MOL0     N87126   1.936   3.314  10.154  0.1143  0.4983 -0.7949
  646MOL0     N87127   2.023   3.394  10.205  0.5085  0.6061 -0.7440
  646MOL0     C87128   3.068   3.416  10.245 -0.7897 -0.2639  0.3509
  646MOL0     C87129   3.200   3.382  10.206  0.5304  0.5777  0.5951
  646MOL0     C87130   3.601   3.267  10.107  1.1321  0.1563  0.4091
  646MOL0     C87131   3.643   3.275   9.973 -0.2645  0.8788  0.3196
  646MOL0     C87132   3.756   3.202   9.931 -0.3606 -0.1710  0.0668
  646MOL0     C87133   3.827   3.116  10.015  0.1600  0.2277  0.7915
  646MOL0     O87134   3.939   3.055   9.954  0.2991 -0.8120  0.4872
  646MOL0     C87135   3.991   2.948  10.029 -0.6894  0.9344  0.3144
  646MOL0     C87136   4.120   2.997  10.102 -0.5809  0.8446 -1.0600
  646MOL0     C87137   4.232   3.055  10.033  0.0472  0.5902  0.2842
  646MOL0     C87138   4.342   3.082  10.136  0.5390  0.1739 -0.8231
  646MOL0     C87139   4.411   3.198  10.085  0.2696  0.5044 -0.5176
  646MOL0     C87140   4.472   3.298  10.049  0.3188 -0.0245 -0.0754
  646MOL0     C87141   3.786   3.105  10.143 -0.4615  0.5521 -0.0269
  646MOL0     C87142   3.671   3.184  10.195 -0.8801 -0.7916 -1.0163
  646MOL0     H87143   3.357   3.400  10.503 -0.3376 -0.4156  2.0012
  646MOL0     H87144   3.142   3.492  10.572  0.1806 -0.5850  1.0581
  646MOL0     H87145   2.908   3.431  10.598  0.4806 -0.0004 -0.4081
  646MOL0     H87146   2.949   3.606  10.593  1.0762  0.1012 -1.8948
  646MOL0     H87147   2.724   3.590  10.671  1.8547  0.3926 -0.1418
  646MOL0     H87148   2.729   3.663  10.516  0.2442  0.0473  0.8784
  646MOL0     H87149   2.691   3.358  10.526  2.3895 -0.1535 -1.7075
  646MOL0     H87150   2.544   3.458  10.558  0.4509  1.9796  0.7685
  646MOL0     H87151   2.541   3.567  10.375  2.4891  2.4363  0.2301
  646MOL0     H87152   2.691   3.499  10.295  1.4249 -3.8642  1.6499
  646MOL0     H87153   2.509   3.415  10.196 -0.9094  3.4656  0.8721
  646MOL0     H87154   2.609   3.287  10.289  1.0190  1.3129  0.4818
  646MOL0     H87155   2.349   3.259  10.309 -2.0957  1.0732  0.4643
  646MOL0     H87156   2.413   3.296  10.470 -2.5210  2.9219  1.0617
  646MOL0     H87157   2.338   3.517  10.452  2.0312  2.0537 -2.9388
  646MOL0     H87158   2.316   3.517  10.286  2.4580 -0.2649  0.1679
  646MOL0     H87159   2.118   3.502  10.421 -0.3408 -0.6048  2.1297
  646MOL0     H87160   2.172   3.359  10.495 -1.7856  1.0258  0.4552
  646MOL0     H87161   2.101   3.124  10.384  2.1140 -0.0382 -1.5184
  646MOL0     H87162   1.774   3.106  10.144 -0.6511 -2.6252 -1.1672
  646MOL0     H87163   1.922   3.007  10.161  3.1974 -0.2477  2.8160
  646MOL0     H87164   1.901   2.961  10.384 -1.6350 -1.2699  1.3783
  646MOL0     H87165   1.739   2.936  10.326  1.1725 -1.0377  0.9804
  646MOL0     H87166   1.812   3.190  10.464  1.6984  0.4279 -1.1975
  646MOL0     H87167   1.734   3.042  10.538  0.2210 -0.5662 -1.9996
  646MOL0     H87168   1.533   3.069  10.408 -0.6200  0.9033  0.9705
  646MOL0     H87169   1.612   3.205  10.320 -0.6148  1.1123  0.7150
  646MOL0     H87170   1.419   3.403  10.651 -0.2993  0.6301  1.0431
  646MOL0     H87171   1.338   3.758  10.615 -1.6714  0.1366  0.2657
  646MOL0     H87172   1.236   3.620  10.575  0.4423 -3.1199 -0.9818
  646MOL0     H87173   1.355   3.619  10.720 -2.4559  0.5216  0.1972
  646MOL0     H87174   1.296   3.938  10.185 -0.8107  1.4684 -0.8868
  646MOL0     H87175   1.294   4.147  10.044  1.1423  0.3650 -0.2191
  646MOL0     H87176   1.345   4.349   9.931  0.0339 -0.0787  1.3170
  646MOL0     H87177   1.376   4.415  10.094  0.5041 -0.9150  0.4682
  646MOL0     H87178   1.540   4.500   9.847  0.3563 -0.9699  0.4777
  646MOL0     H87179   1.406   4.586   9.917  0.9826  1.8733  2.0138
  646MOL0     H87180   1.516   4.585  10.139  0.6178 -0.9897 -0.8285
  646MOL0     H87181   1.580   4.688  10.028 -2.2301  0.8588  0.9010
  646MOL0     H87182   1.716   4.430  10.135  2.7928  0.5496  1.1157
  646MOL0     H87183   1.773   4.496   9.985  0.6593  1.4791  0.2216
  646MOL0     H87184   1.766   4.640  10.253  0.5117 -1.8764 -0.2266
  646MOL0     H87185   1.805   4.708  10.087 -2.4140  1.3934 -0.1814
  646MOL0     H87186   1.947   4.462  10.197 -3.7937  0.1214 -0.1203
  646MOL0     H87187   1.993   4.577  10.073 -0.3610 -1.4013 -0.8406
  646MOL0     H87188   2.020   4.613  10.386 -2.0522 -0.1234  0.2010
  646MOL0     H87189   1.980   4.750  10.274 -2.5467 -1.5115 -1.8524
  646MOL0     H87190   2.223   4.732  10.311 -2.4849 -1.2535  2.9692
  646MOL0     H87191   2.187   4.688  10.145 -0.6814 -1.2326 -0.7835
  646MOL0     H87192   1.730   4.156  10.078 -0.8862  0.8768 -0.8490
  646MOL0     H87193   1.726   3.944  10.168  0.5047 -0.2978 -3.4193
  646MOL0     H87194   1.646   3.596  10.268  2.8464 -1.0625  2.2717
  646MOL0     H87195   1.708   3.383  10.338  0.5236 -1.9722  2.5098
  646MOL0     H87196   2.994   3.415  10.166  0.9728 -0.7306 -1.4004
  646MOL0     H87197   3.225   3.371  10.101  0.8166  2.3332  0.4469
  646MOL0     H87198   3.599   3.337   9.897 -1.3489  2.4952  2.1681
  646MOL0     H87199   3.792   3.216   9.830 -0.7417 -0.7136 -0.1532
  646MOL0     H87200   3.914   2.896  10.088  1.4334 -0.3280  2.1173
  646MOL0     H87201   4.028   2.859   9.978 -0.2254  0.9171  0.6733
  646MOL0     H87202   4.156   2.911  10.159  0.9273  1.3509 -1.2005
  646MOL0     H87203   4.078   3.074  10.169 -0.7292 -2.1089  2.5588
  646MOL0     H87204   4.201   3.145   9.979 -4.0300 -1.1434 -0.6250
  646MOL0     H87205   4.265   2.970   9.971  2.3648 -0.3814  2.6503
  646MOL0     H87206   4.412   2.998  10.127 -0.4727 -0.6552 -1.0640
  646MOL0     H87207   4.309   3.095  10.239  3.3453 -1.7661  0.4546
  646MOL0     H87208   4.521   3.388  10.017  1.1641 -0.3023  0.4129
  646MOL0     H87209   3.836   3.040  10.214 -1.3880 -0.2459 -0.0901
  646MOL0     H87210   3.642   3.187  10.299 -1.4606  2.1870 -1.1824
  647MOL0     O87211   4.920   5.930   3.195 -0.5066  0.6426  0.6191
  647MOL0     C87212   4.802   5.965   3.186 -1.0617  0.5106 -0.5353
  647MOL0     O87213   4.692   5.927   3.268  0.6877 -0.6646 -0.2465
  647MOL0     C87214   4.705   5.848   3.383 -0.4128 -0.1034 -0.8022
  647MOL0     C87215   4.595   5.783   3.430 -0.4188  0.1866  0.2540
  647MOL0     C87216   4.598   5.696   3.530  0.2344 -0.0861 -0.0378
  647MOL0     C87217   4.717   5.653   3.592  0.3558 -1.1207 -0.2451
  647MOL0     O87218   4.720   5.552   3.683  0.4578  0.5216  0.7897
  647MOL0     C87219   4.755   5.414   3.634 -0.7631  0.3556 -0.2395
  647MOL0     C87220   4.901   5.393   3.599 -0.1934 -0.1351  0.3690
  647MOL0     C87221   4.992   5.406   3.717  0.3443  0.7103 -0.9524
  647MOL0     C87222   4.985   5.281   3.805  0.5769  0.4816 -0.6297
  647MOL0     C87223   5.045   5.305   3.946  0.7134  0.4413 -0.0674
  647MOL0     C87224   5.035   5.179   4.038 -0.5294 -0.4348 -0.6258
  647MOL0     C87225   5.067   5.219   4.184 -0.2513  0.3124  0.1394
  647MOL0     C87226   5.193   5.303   4.212 -0.4823  0.2986  0.4779
  647MOL0     N87227   5.219   5.345   4.350 -0.1053 -0.3155  0.3985
  647MOL0     C87228   5.258   5.269   4.455 -0.2835  0.3606  0.1293
  647MOL0     C87229   5.249   5.347   4.568  0.0798 -0.1521  0.8981
  647MOL0     C87230   5.276   5.307   4.715 -0.5881  0.3376 -0.3846
  647MOL0     C87231   5.350   5.410   4.802  0.1349  0.0274  0.0870
  647MOL0     C87232   5.380   5.344   4.935  0.1225  0.4813 -0.3943
  647MOL0     C87233   5.425   5.454   5.034  0.2784  0.1752  0.3644
  647MOL0     O87234   5.491   5.397   5.147 -0.0893 -0.0587 -0.2837
  647MOL0     C87235   5.551   5.482   5.232 -0.8267 -0.1486  0.0888
  647MOL0     C87236   5.672   5.437   5.281 -0.9823 -0.9223 -0.3610
  647MOL0     C87237   5.761   5.518   5.348  0.1398  0.7086 -0.9840
  647MOL0     C87238   5.893   5.455   5.402  0.0779 -0.5181  0.3725
  647MOL0     C87239   5.732   5.655   5.358  0.7982  0.1075 -0.8116
  647MOL0     C87240   5.835   5.753   5.391  0.7039 -0.5405 -0.4184
  647MOL0     O87241   5.924   5.728   5.486  0.2619  0.8783 -0.2028
  647MOL0     C87242   6.012   5.832   5.523  0.2038 -0.2784  0.2747
  647MOL0     C87243   5.977   5.946   5.591  0.1316  0.6916 -1.0632
  647MOL0     C87244   6.064   6.028   5.658 -0.2929 -0.5711  0.0048
  647MOL0     C87245   6.198   6.007   5.651 -0.1697  0.8414  0.3256
  647MOL0     O87246   6.296   6.085   5.711  0.5319  0.4027  0.1099
  647MOL0     C87247   6.295   6.218   5.663 -0.7718  0.2705 -0.4993
  647MOL0     C87248   6.270   6.326   5.760  1.1787 -0.3996 -0.1071
  647MOL0     C87249   6.280   6.475   5.704  0.0362  0.5869  0.2759
  647MOL0     C87250   6.248   6.570   5.818  0.2544  0.2848 -0.7425
  647MOL0     C87251   6.256   6.714   5.772 -0.0446 -0.1352 -0.1198
  647MOL0     C87252   6.213   6.799   5.888 -0.0373  0.7845 -0.7067
  647MOL0     C87253   6.206   6.947   5.868 -0.0033 -0.0045  1.0548
  647MOL0     C87254   6.088   6.984   5.776  0.3664 -0.5004  0.7384
  647MOL0    Cl87255   5.947   7.012   5.883  0.7647  0.3495  0.1414
  647MOL0     C87256   6.245   5.894   5.589 -1.0652 -0.1318  0.2594
  647MOL0     C87257   6.150   5.802   5.541  0.6896  0.3081  1.0805
  647MOL0     O87258   5.833   5.853   5.316  0.0181 -0.0708 -0.4414
  647MOL0     C87259   5.601   5.700   5.317 -0.2150  0.5112  0.1403
  647MOL0     C87260   5.507   5.617   5.263  0.3450  0.0065  0.0430
  647MOL0     N87261   5.212   5.473   4.524  1.1292  0.3554 -0.6362
  647MOL0     N87262   5.182   5.464   4.404  1.3379 -0.1909  0.4170
  647MOL0     C87263   4.831   5.724   3.558 -0.1487  0.0133  0.6598
  647MOL0     C87264   4.828   5.819   3.455 -0.3467 -0.3385 -0.4223
  647MOL0     C87265   4.766   6.029   3.053 -0.2890 -0.2361 -1.2324
  647MOL0     C87266   4.628   6.064   3.038 -0.4036 -0.5291 -0.2760
  647MOL0     C87267   4.583   6.114   2.915  0.4350  0.4320 -1.3315
  647MOL0     C87268   4.676   6.148   2.816  0.1726  0.3936 -0.2638
  647MOL0     O87269   4.643   6.200   2.695 -0.9957  0.2406  0.1158
  647MOL0     C87270   4.530   6.294   2.685  0.6038 -0.3005  0.7554
  647MOL0     C87271   4.407   6.213   2.626 -1.1570 -0.1175  0.6486
  647MOL0     C87272   4.362   6.251   2.487  0.3853 -0.2490  0.3343
  647MOL0     C87273   4.456   6.181   2.379  0.3989  0.3195  0.7082
  647MOL0     C87274   4.404   6.225   2.241  0.2255 -0.6148  0.1895
  647MOL0     C87275   4.355   6.279   2.144  0.3667 -0.5485 -0.0673
  647MOL0     C87276   4.805   6.113   2.832  0.1825 -0.3039 -0.1671
  647MOL0     C87277   4.855   6.049   2.950 -0.4422  0.2803  0.5927
  647MOL0     H87278   4.498   5.814   3.391 -0.9572  0.8000  1.9854
  647MOL0     H87279   4.500   5.649   3.535 -0.0956  0.7282  2.2385
  647MOL0     H87280   4.724   5.342   3.710  0.9278  1.6062  1.7082
  647MOL0     H87281   4.687   5.398   3.549  0.1222  0.9420 -1.0881
  647MOL0     H87282   4.908   5.288   3.569 -0.7264 -0.5720  1.7224
  647MOL0     H87283   4.942   5.457   3.520 -1.0384 -0.0504 -0.0085
  647MOL0     H87284   5.097   5.410   3.687  0.3570 -0.6652 -1.1966
  647MOL0     H87285   4.976   5.503   3.764  1.0116  0.0141  0.7790
  647MOL0     H87286   4.883   5.248   3.821 -0.0013  2.3575 -0.1429
  647MOL0     H87287   5.044   5.196   3.769 -1.0473 -1.9004  1.9177
  647MOL0     H87288   5.148   5.336   3.925  1.0091  1.1048  2.0753
  647MOL0     H87289   4.991   5.388   3.992  1.0989  1.4922 -1.4516
  647MOL0     H87290   4.930   5.149   4.031 -0.4085 -1.2815  0.7237
  647MOL0     H87291   5.109   5.104   4.006  0.3766 -1.1938  2.7848
  647MOL0     H87292   4.983   5.276   4.225 -1.6829 -2.1189  0.7488
  647MOL0     H87293   5.083   5.133   4.249 -0.4953  0.2100  0.0655
  647MOL0     H87294   5.193   5.392   4.148  1.7338  0.0457  0.0380
  647MOL0     H87295   5.280   5.242   4.189  0.6174  1.2385  1.9701
  647MOL0     H87296   5.269   5.162   4.450  0.2865  0.3258  1.5850
  647MOL0     H87297   5.179   5.294   4.763  0.2294  0.5701  1.3756
  647MOL0     H87298   5.328   5.210   4.713 -0.2787  0.4777  0.6355
  647MOL0     H87299   5.292   5.500   4.823  2.5799  1.5754  0.6842
  647MOL0     H87300   5.444   5.442   4.755  1.3317 -0.3456  2.1019
  647MOL0     H87301   5.460   5.274   4.912 -1.9509 -1.6349 -1.5260
  647MOL0     H87302   5.291   5.293   4.972  1.4643 -0.4528  1.7652
  647MOL0     H87303   5.342   5.524   5.043 -0.3719  0.1451 -3.6950
  647MOL0     H87304   5.503   5.504   4.977  1.4113 -0.3326  1.4105
  647MOL0     H87305   5.693   5.332   5.260  1.2551 -0.4182 -0.9969
  647MOL0     H87306   5.908   5.474   5.509 -2.1259  0.4564  0.5660
  647MOL0     H87307   5.891   5.346   5.395  0.9274 -0.4994 -0.2406
  647MOL0     H87308   5.984   5.478   5.345 -0.7600 -0.0033 -0.8205
  647MOL0     H87309   5.873   5.977   5.588  0.5296  2.0014 -2.2105
  647MOL0     H87310   6.025   6.112   5.715 -0.2734  0.3843 -1.3390
  647MOL0     H87311   6.393   6.230   5.616 -1.8593 -2.9886 -4.1525
  647MOL0     H87312   6.236   6.241   5.574  1.5517  1.0872 -1.9321
  647MOL0     H87313   6.164   6.321   5.785  0.2504  0.1648 -3.4814
  647MOL0     H87314   6.324   6.311   5.854  1.0624  0.8907  0.1817
  647MOL0     H87315   6.213   6.482   5.618 -0.3812 -4.1437 -0.0092
  647MOL0     H87316   6.385   6.501   5.683  1.4016 -5.0002 -1.4406
  647MOL0     H87317   6.143   6.562   5.846  0.7631  0.0701  1.2016
  647MOL0     H87318   6.308   6.550   5.906 -1.7368  1.4929  0.9871
  647MOL0     H87319   6.192   6.724   5.684  1.2715 -0.1547 -1.1082
  647MOL0     H87320   6.361   6.738   5.754 -0.3153  0.5750 -0.8089
  647MOL0     H87321   6.114   6.772   5.926  2.2270 -2.6811  3.6004
  647MOL0     H87322   6.280   6.786   5.974 -1.2468  0.5242  0.2289
  647MOL0     H87323   6.301   6.985   5.831 -0.1505 -0.6949 -0.1150
  647MOL0     H87324   6.185   6.993   5.965 -3.3058  0.4804  0.2233
  647MOL0     H87325   6.066   6.900   5.710  0.4210  0.6174 -0.7534
  647MOL0     H87326   6.101   7.068   5.708 -1.5385  1.4657  2.6539
  647MOL0     H87327   6.351   5.869   5.592 -0.7034  1.3650  0.4245
  647MOL0     H87328   6.192   5.713   5.495 -2.0202 -0.7046  0.3937
  647MOL0     H87329   5.590   5.807   5.333  1.7728  1.0411 -1.5391
  647MOL0     H87330   5.400   5.630   5.250  0.5151  0.3224 -1.1354
  647MOL0     H87331   4.927   5.702   3.603  1.7513  4.5846 -0.6457
  647MOL0     H87332   4.914   5.877   3.422 -1.6821  0.3834 -2.9140
  647MOL0     H87333   4.564   6.048   3.124 -0.3197 -1.6240 -0.3977
  647MOL0     H87334   4.477   6.128   2.895  0.4420  1.9947 -0.4040
  647MOL0     H87335   4.504   6.338   2.782  1.5581 -1.2743  1.4765
  647MOL0     H87336   4.562   6.371   2.615 -0.7007 -0.9784 -0.6407
  647MOL0     H87337   4.324   6.234   2.694 -2.8902  1.1355 -1.7172
  647MOL0     H87338   4.431   6.107   2.621  0.7408  0.3470 -1.1219
  647MOL0     H87339   4.369   6.360   2.484  0.1229  0.0301  4.4804
  647MOL0     H87340   4.264   6.207   2.468  0.2922  0.0872  0.0411
  647MOL0     H87341   4.441   6.074   2.394 -0.8930  0.2612 -0.8334
  647MOL0     H87342   4.562   6.207   2.392  0.5421 -1.3012  3.5161
  647MOL0     H87343   4.307   6.343   2.073  3.6647  3.3560  0.8700
  647MOL0     H87344   4.877   6.143   2.756  0.4640  2.4869  1.0693
  647MOL0     H87345   4.960   6.026   2.967 -0.4576 -1.6645 -1.5046
  648MOL0     O87346  11.277   1.067   4.425 -0.8199  0.7756  0.1143
  648MOL0     C87347  11.181   0.996   4.402 -0.0140 -0.4488 -0.4372
  648MOL0     O87348  11.177   0.892   4.316 -0.4613 -0.1226 -0.8971
  648MOL0     C87349  11.287   0.839   4.252  0.8316 -0.1865  0.7407
  648MOL0     C87350  11.421   0.851   4.302 -1.5568  0.6628 -0.4537
  648MOL0     C87351  11.532   0.801   4.227  0.6619  0.6250  0.5833
  648MOL0     C87352  11.508   0.749   4.098 -0.4018  0.2056 -0.8924
  648MOL0     O87353  11.605   0.696   4.017  0.6746  0.2620  0.7084
  648MOL0     C87354  11.737   0.753   4.008 -1.0213 -0.3427 -0.1775
  648MOL0     C87355  11.850   0.667   4.071 -0.4330 -0.1411 -0.6989
  648MOL0     C87356  11.834   0.524   4.030  0.0539  0.5723  0.5382
  648MOL0     C87357  11.936   0.442   4.108 -0.6650 -0.1745 -0.4060
  648MOL0     C87358  11.941   0.289   4.082 -0.7151 -0.8707 -0.1781
  648MOL0     C87359  12.028   0.194   4.171 -0.1105 -0.3965  0.0819
  648MOL0     C87360  12.049   0.048   4.116 -0.3381  0.2524 -0.6975
  648MOL0     C87361  12.150   0.044   3.992  0.4501  0.1246 -0.4003
  648MOL0     N87362  12.171  -0.097   3.953  0.6216 -0.0784 -0.3663
  648MOL0     C87363  12.290  -0.142   3.908 -0.2793  0.1596 -0.2665
  648MOL0     C87364  12.274  -0.221   3.795  0.0222  0.3710 -1.3296
  648MOL0     C87365  12.381  -0.292   3.724  0.4998  0.2562 -0.7771
  648MOL0     C87366  12.487  -0.204   3.681  0.0060 -0.4279  0.5499
  648MOL0     C87367  12.592  -0.258   3.593  0.7702 -1.4659  0.3974
  648MOL0     C87368  12.698  -0.160   3.532 -0.1486  0.1913  0.5712
  648MOL0     O87369  12.773  -0.115   3.655  0.7160  0.4332  0.1478
  648MOL0     C87370  12.909  -0.129   3.642  0.3529 -0.3392 -0.3818
  648MOL0     C87371  12.971  -0.067   3.536 -0.0146  0.2480 -0.1076
  648MOL0     C87372  13.114  -0.058   3.532 -0.1784 -1.3947 -0.0894
  648MOL0     C87373  13.182   0.038   3.428 -0.5529  0.1443 -0.4866
  648MOL0     C87374  13.188  -0.138   3.625  0.4540  0.3696  0.3845
  648MOL0     C87375  13.333  -0.158   3.606 -0.3486 -0.4965  0.5514
  648MOL0     O87376  13.402  -0.173   3.725 -0.2705 -0.3567 -0.0011
  648MOL0     C87377  13.527  -0.228   3.733 -0.5896 -0.1299 -0.1572
  648MOL0     C87378  13.610  -0.183   3.841 -0.7124  0.2362  0.1429
  648MOL0     C87379  13.735  -0.234   3.858 -0.1624  1.4505 -0.4144
  648MOL0     C87380  13.787  -0.341   3.788  0.7866 -0.2179 -0.3607
  648MOL0     O87381  13.911  -0.380   3.808  0.6429  0.2896 -0.0500
  648MOL0     C87382  13.983  -0.446   3.704  0.2057  0.1439 -0.8253
  648MOL0     C87383  14.130  -0.434   3.718 -0.0280  0.9733 -0.6366
  648MOL0     C87384  14.189  -0.499   3.839 -1.0219  0.5272  1.4622
  648MOL0     C87385  14.155  -0.648   3.820 -0.0401  0.2196 -0.0304
  648MOL0     C87386  14.250  -0.717   3.914 -0.6298 -0.1010 -0.6945
  648MOL0     C87387  14.227  -0.730   4.067  0.2733  0.4456 -0.0557
  648MOL0     C87388  14.318  -0.839   4.132 -0.3895  0.9326  0.8059
  648MOL0     C87389  14.466  -0.823   4.065 -0.3279 -0.8522  0.4447
  648MOL0    Cl87390  14.585  -0.896   4.166 -0.4506 -0.0348  0.6040
  648MOL0     C87391  13.694  -0.390   3.689  0.9873 -0.1065  0.0745
  648MOL0     C87392  13.572  -0.336   3.659 -1.4317 -0.5435  0.4969
  648MOL0     O87393  13.381  -0.179   3.493  0.1847  0.3582 -0.2428
  648MOL0     C87394  13.120  -0.199   3.730 -0.0224  0.1623 -1.0204
  648MOL0     C87395  12.985  -0.180   3.745  0.9053  0.7285 -0.1029
  648MOL0     N87396  12.138  -0.218   3.762  0.4285 -0.8731 -0.2847
  648MOL0     N87397  12.081  -0.155   3.864  0.1679 -0.4665  0.1327
  648MOL0     C87398  11.381   0.758   4.046  0.4415  0.2561 -0.2576
  648MOL0     C87399  11.271   0.801   4.124 -0.7268  0.0064  0.1623
  648MOL0     C87400  11.061   1.028   4.475  0.1019  0.3386 -0.3380
  648MOL0     C87401  10.935   0.969   4.432 -0.1765  0.0950  0.1441
  648MOL0     C87402  10.813   1.015   4.483  0.8760  0.9316  0.7559
  648MOL0     C87403  10.818   1.103   4.588 -0.3601 -0.1325 -0.4880
  648MOL0     O87404  10.692   1.124   4.644  0.9769 -0.3575  0.1619
  648MOL0     C87405  10.682   1.230   4.739 -0.4412 -0.3955  0.0166
  648MOL0     C87406  10.548   1.292   4.744  0.3855 -0.0638  0.4999
  648MOL0     C87407  10.507   1.402   4.640 -0.0608 -0.9709 -0.0839
  648MOL0     C87408  10.353   1.439   4.649  0.2816  0.3424 -0.5175
  648MOL0     C87409  10.341   1.518   4.780 -0.6705 -0.8141  0.6914
  648MOL0     C87410  10.343   1.583   4.884  0.5241  0.0506  0.1500
  648MOL0     C87411  10.944   1.151   4.644 -1.1308  0.5637 -0.0965
  648MOL0     C87412  11.064   1.111   4.588  0.1672  0.0300  0.2143
  648MOL0     H87413  11.441   0.896   4.399 -0.0288  1.7614 -1.2216
  648MOL0     H87414  11.627   0.793   4.280  0.6015  0.3381  0.6489
  648MOL0     H87415  11.750   0.781   3.903  0.9065 -1.2519 -0.2314
  648MOL0     H87416  11.742   0.841   4.073 -0.1836  0.1332 -0.8688
  648MOL0     H87417  11.947   0.714   4.056 -1.8908  2.8640 -1.4610
  648MOL0     H87418  11.826   0.671   4.177 -0.8574  0.3445 -0.8097
  648MOL0     H87419  11.738   0.480   4.058  0.7254  0.2277  2.3722
  648MOL0     H87420  11.842   0.513   3.921  1.2802  0.2366  0.6425
  648MOL0     H87421  12.037   0.482   4.096  0.0975 -0.7784  2.9339
  648MOL0     H87422  11.913   0.454   4.214 -1.0837 -1.2014 -0.3696
  648MOL0     H87423  11.835   0.260   4.082 -0.4418 -1.9136 -0.6553
  648MOL0     H87424  11.993   0.300   3.987 -2.3514  5.1953 -0.7784
  648MOL0     H87425  12.123   0.243   4.194 -1.6090  2.3687  0.8224
  648MOL0     H87426  11.982   0.185   4.270 -0.7152  2.1504  0.0989
  648MOL0     H87427  12.088  -0.014   4.197 -2.2449  1.9144  1.6344
  648MOL0     H87428  11.956   0.014   4.070 -0.8256  1.0050 -0.2931
  648MOL0     H87429  12.246   0.087   4.023  0.5549  0.3909 -1.0858
  648MOL0     H87430  12.116   0.103   3.906 -0.8949 -1.7154 -1.1904
  648MOL0     H87431  12.391  -0.124   3.945  0.2613 -1.3462 -0.9093
  648MOL0     H87432  12.423  -0.382   3.769  3.2880 -0.0189 -3.5443
  648MOL0     H87433  12.326  -0.339   3.642 -0.8350 -0.2620  0.3834
  648MOL0     H87434  12.528  -0.178   3.779  1.1258 -2.0538  0.5574
  648MOL0     H87435  12.447  -0.121   3.623  1.6330 -0.1192 -0.1925
  648MOL0     H87436  12.538  -0.324   3.526 -2.0545  1.4288 -0.4339
  648MOL0     H87437  12.668  -0.313   3.650  1.0398  1.7391  3.4914
  648MOL0     H87438  12.660  -0.064   3.495  0.8738 -0.2581 -1.7851
  648MOL0     H87439  12.764  -0.206   3.459 -1.4598 -0.7686 -0.0523
  648MOL0     H87440  12.919  -0.024   3.451  1.7762  1.4460 -0.6479
  648MOL0     H87441  13.109   0.101   3.375  0.0197  1.8483  0.6499
  648MOL0     H87442  13.241   0.118   3.472 -3.8613  1.8475  1.2754
  648MOL0     H87443  13.241  -0.009   3.349  2.3394  2.2325  0.2814
  648MOL0     H87444  13.565  -0.098   3.891 -0.9500 -0.7953  1.7651
  648MOL0     H87445  13.783  -0.181   3.940 -1.1226  0.9881  0.4660
  648MOL0     H87446  13.948  -0.550   3.697 -0.2466  0.3207 -1.2675
  648MOL0     H87447  13.966  -0.400   3.606  2.6803  4.4402  0.5349
  648MOL0     H87448  14.168  -0.486   3.629 -3.1504 -4.4977  0.8294
  648MOL0     H87449  14.159  -0.328   3.717  0.1623  1.0295  2.4614
  648MOL0     H87450  14.144  -0.461   3.931 -0.7094  1.7391  1.1356
  648MOL0     H87451  14.293  -0.465   3.841 -0.4269 -0.7571 -1.7061
  648MOL0     H87452  14.049  -0.671   3.838  0.4550 -1.4342  0.9523
  648MOL0     H87453  14.174  -0.680   3.717 -2.4582  1.9767 -1.1328
  648MOL0     H87454  14.346  -0.664   3.914 -2.0480  2.7284  0.7529
  648MOL0     H87455  14.264  -0.819   3.877 -1.3879  0.3098 -2.2283
  648MOL0     H87456  14.255  -0.636   4.115  0.1086 -0.5052  2.0384
  648MOL0     H87457  14.125  -0.762   4.093  0.0061  1.2038 -0.1327
  648MOL0     H87458  14.280  -0.940   4.118 -0.1871  0.6202  2.3427
  648MOL0     H87459  14.329  -0.816   4.238 -1.8069  1.2338  0.9082
  648MOL0     H87460  14.498  -0.720   4.047  0.7355 -1.1372  0.6196
  648MOL0     H87461  14.474  -0.882   3.973  0.1393 -0.4144  0.2006
  648MOL0     H87462  13.723  -0.474   3.628 -0.6825 -1.0010  0.4565
  648MOL0     H87463  13.505  -0.386   3.589  1.3853 -0.3883 -2.5563
  648MOL0     H87464  13.175  -0.259   3.803  1.9874  1.9234 -1.0073
  648MOL0     H87465  12.929  -0.226   3.826 -0.9501 -0.4325 -1.9354
  648MOL0     H87466  11.354   0.704   3.956 -1.6484 -1.5743  1.3427
  648MOL0     H87467  11.179   0.818   4.069  0.1725  1.5681 -0.9348
  648MOL0     H87468  10.935   0.891   4.357 -1.1207  0.3380 -0.1285
  648MOL0     H87469  10.723   0.976   4.435  0.9103 -0.4112  1.7121
  648MOL0     H87470  10.700   1.189   4.839 -1.0380  1.4798  0.9359
  648MOL0     H87471  10.748   1.317   4.728 -0.2890 -0.3473  1.1689
  648MOL0     H87472  10.543   1.347   4.838  3.3240  2.3250 -0.5985
  648MOL0     H87473  10.479   1.207   4.737 -0.3627  0.6486 -2.8821
  648MOL0     H87474  10.520   1.351   4.544 -4.7851 -0.9240 -0.9831
  648MOL0     H87475  10.572   1.489   4.630  0.1891 -1.1825 -0.3249
  648MOL0     H87476  10.280   1.358   4.655 -1.4449  1.8515 -0.1717
  648MOL0     H87477  10.329   1.497   4.560  0.7176 -2.9641 -2.9867
  648MOL0     H87478  10.351   1.628   4.981 -2.3077 -2.6769  1.8309
  648MOL0     H87479  10.958   1.215   4.730  4.4634 -0.5275  0.1556
  648MOL0     H87480  11.147   1.164   4.634  1.8119  0.0856 -2.6035
  649MOL0     O87481   4.687   1.793   6.203  0.3599 -0.4399  0.8991
  649MOL0     C87482   4.701   1.881   6.282 -1.0422  0.0799  0.6859
  649MOL0     O87483   4.823   1.945   6.316  0.2913  0.1259  0.2744
  649MOL0     C87484   4.931   1.920   6.238 -0.0779  0.0191  0.1691
  649MOL0     C87485   4.942   1.979   6.108  0.8180 -0.0750  0.3280
  649MOL0     C87486   5.051   1.954   6.022 -0.4542  0.0565 -1.3860
  649MOL0     C87487   5.151   1.860   6.073 -0.4234  0.3766  0.5288
  649MOL0     O87488   5.256   1.821   5.995  0.1775  0.0491 -0.6209
  649MOL0     C87489   5.218   1.756   5.876 -0.1874 -0.3941 -0.4187
  649MOL0     C87490   5.129   1.642   5.889  0.2219  0.2404  0.0169
  649MOL0     C87491   5.206   1.522   5.964  0.6469  0.6207  1.5780
  649MOL0     C87492   5.104   1.437   6.044  0.4069  0.5398  0.0067
  649MOL0     C87493   5.177   1.312   6.119  0.2987  0.0656 -0.2030
  649MOL0     C87494   5.168   1.199   6.015 -0.0500 -0.2080  0.1494
  649MOL0     C87495   5.260   1.080   6.074 -0.4732  0.2253 -0.1446
  649MOL0     C87496   5.402   1.087   6.037 -0.3919  0.6252 -0.2523
  649MOL0     N87497   5.492   1.013   6.122 -0.5261 -0.2967 -0.1754
  649MOL0     C87498   5.533   1.021   6.253  0.1392 -1.3253  0.4530
  649MOL0     C87499   5.589   0.897   6.282 -0.3173  0.2733 -0.2633
  649MOL0     C87500   5.652   0.847   6.418  0.6201  0.1169 -0.4253
  649MOL0     C87501   5.765   0.934   6.470 -0.0003  0.5517  0.0844
  649MOL0     C87502   5.822   0.881   6.598 -0.6034 -0.1858 -0.0149
  649MOL0     C87503   5.715   0.872   6.704  0.6287  0.4495  0.2964
  649MOL0     O87504   5.681   0.738   6.722  0.3858  0.5006  0.9650
  649MOL0     C87505   5.753   0.662   6.810 -0.2140 -0.6604  0.7686
  649MOL0     C87506   5.868   0.682   6.893  0.1613  0.2933 -0.5835
  649MOL0     C87507   5.920   0.584   6.978 -0.5311  1.0014 -0.3948
  649MOL0     C87508   6.036   0.629   7.068  0.4896 -0.6429 -0.2281
  649MOL0     C87509   5.860   0.457   6.985 -0.7956 -0.3963  0.4630
  649MOL0     C87510   5.907   0.348   7.080 -0.4847  0.7434 -0.4524
  649MOL0     O87511   6.036   0.340   7.116  0.0340 -1.1445 -0.0947
  649MOL0     C87512   6.067   0.258   7.219  0.2377  0.2367  0.2548
  649MOL0     C87513   5.990   0.192   7.324  0.3357 -0.2679 -0.5689
  649MOL0     C87514   6.048   0.120   7.428  0.9102 -0.5616 -0.1156
  649MOL0     C87515   6.191   0.090   7.418  1.3204 -0.8415 -0.3357
  649MOL0     O87516   6.261   0.017   7.507 -0.0839  0.5696 -0.3428
  649MOL0     C87517   6.223  -0.000   7.646 -0.2899  0.2883  0.9916
  649MOL0     C87518   6.330  -0.089   7.724 -0.1168 -0.6037  0.6564
  649MOL0     C87519   6.469  -0.023   7.709 -0.4096  1.3652  0.6722
  649MOL0     C87520   6.488   0.109   7.778 -0.6374 -0.2741 -1.3024
  649MOL0     C87521   6.641   0.129   7.783 -0.3981  0.4538  0.5371
  649MOL0     C87522   6.664   0.279   7.803 -0.2841 -0.2242  0.2430
  649MOL0     C87523   6.812   0.311   7.798  0.8881 -0.4697 -0.3359
  649MOL0     C87524   6.836   0.463   7.803  0.7750 -0.8736  0.1272
  649MOL0    Cl87525   6.783   0.527   7.968 -0.1967 -0.3485  0.1933
  649MOL0     C87526   6.268   0.140   7.319  0.4078 -1.2374  0.2977
  649MOL0     C87527   6.203   0.223   7.223 -0.4664 -0.6674 -0.0159
  649MOL0     O87528   5.826   0.261   7.108  0.5008  0.0376  0.2061
  649MOL0     C87529   5.754   0.434   6.894  1.8073 -1.0335  0.3581
  649MOL0     C87530   5.702   0.536   6.814  0.8989  0.0270 -0.1200
  649MOL0     N87531   5.594   0.825   6.168  0.2552  0.8606  0.0640
  649MOL0     N87532   5.548   0.896   6.078 -0.7511  0.9753 -0.3890
  649MOL0     C87533   5.147   1.807   6.198 -0.2586  0.0408  0.0073
  649MOL0     C87534   5.036   1.836   6.283 -0.1894 -0.5301  0.0158
  649MOL0     C87535   4.584   1.902   6.372 -0.9717  0.4301  0.1187
  649MOL0     C87536   4.466   1.814   6.378 -0.0117 -0.3237 -0.4767
  649MOL0     C87537   4.345   1.860   6.433 -0.2523 -0.1175 -0.8577
  649MOL0     C87538   4.345   1.993   6.491 -0.2510 -0.7468  0.6362
  649MOL0     O87539   4.241   2.049   6.560  0.3296 -0.4000 -0.5406
  649MOL0     C87540   4.105   2.021   6.519  0.1306 -1.0332 -0.0941
  649MOL0     C87541   4.038   1.925   6.625 -0.3729 -0.0745 -0.7025
  649MOL0     C87542   3.887   1.958   6.630 -0.3392  0.1573  0.1363
  649MOL0     C87543   3.856   2.083   6.719  0.3986 -0.8036  0.4603
  649MOL0     C87544   3.871   2.060   6.864 -0.1529  0.2060  0.4256
  649MOL0     C87545   3.877   2.027   6.980 -0.3759  0.5125  0.0328
  649MOL0     C87546   4.460   2.074   6.487  0.2170 -0.9828  0.3137
  649MOL0     C87547   4.575   2.031   6.428  0.2378 -0.2199 -0.4785
  649MOL0     H87548   4.863   2.044   6.073  2.1560  0.9337 -0.9566
  649MOL0     H87549   5.048   2.002   5.924 -0.6123 -0.5374 -1.6805
  649MOL0     H87550   5.185   1.832   5.805  1.5605 -1.6609 -2.7447
  649MOL0     H87551   5.312   1.716   5.837 -0.1828 -0.7279 -0.0718
  649MOL0     H87552   5.035   1.666   5.939  0.9160 -2.9911  3.3241
  649MOL0     H87553   5.092   1.612   5.790 -1.9824  4.4327 -0.6498
  649MOL0     H87554   5.260   1.452   5.899  0.1639  0.8638  0.9024
  649MOL0     H87555   5.266   1.557   6.048 -0.8211  3.6229  1.4935
  649MOL0     H87556   5.072   1.505   6.123  1.3185 -0.5477  1.3775
  649MOL0     H87557   5.023   1.405   5.979  1.6493 -0.8978 -0.9016
  649MOL0     H87558   5.274   1.351   6.148 -0.3718  0.6816  1.3184
  649MOL0     H87559   5.124   1.276   6.208 -0.2037 -1.4396 -1.0834
  649MOL0     H87560   5.066   1.171   5.986  0.2859  1.9185 -3.9323
  649MOL0     H87561   5.208   1.234   5.919  1.3947  3.7512  1.9906
  649MOL0     H87562   5.244   1.088   6.182  2.4539  1.1694  0.2978
  649MOL0     H87563   5.219   0.986   6.036 -1.8272  0.5071  0.5446
  649MOL0     H87564   5.444   1.188   6.025 -0.2807  0.3487 -2.6399
  649MOL0     H87565   5.417   1.053   5.934 -0.6938  3.8896 -1.5009
  649MOL0     H87566   5.516   1.084   6.340  1.0255 -1.1449  0.5101
  649MOL0     H87567   5.567   0.842   6.487  2.2320 -0.4071  1.6220
  649MOL0     H87568   5.682   0.742   6.409 -3.5980 -1.6791  2.9351
  649MOL0     H87569   5.728   1.035   6.490 -1.3736 -0.3124  2.2605
  649MOL0     H87570   5.850   0.936   6.401  1.1091 -4.9226  0.8182
  649MOL0     H87571   5.899   0.952   6.628 -0.7447  0.9838 -2.1731
  649MOL0     H87572   5.873   0.788   6.572 -1.4240 -0.6555  0.0150
  649MOL0     H87573   5.627   0.928   6.673 -0.1154 -1.2847 -0.9222
  649MOL0     H87574   5.760   0.907   6.798 -1.7009 -0.0272  1.6680
  649MOL0     H87575   5.920   0.777   6.889  1.6903 -0.4466  0.8610
  649MOL0     H87576   6.021   0.591   7.170  1.7601  2.2511  1.1259
  649MOL0     H87577   6.135   0.596   7.036  0.6810  0.7270 -1.0949
  649MOL0     H87578   6.033   0.738   7.068 -1.1480 -0.6461  0.7429
  649MOL0     H87579   5.881   0.193   7.317  0.1225 -1.2080  1.9144
  649MOL0     H87580   5.995   0.075   7.512 -3.3288 -0.1714 -2.3134
  649MOL0     H87581   6.214   0.093   7.702  0.5139  0.6770  0.4927
  649MOL0     H87582   6.132  -0.062   7.646 -0.5223  0.6013 -0.0688
  649MOL0     H87583   6.310  -0.103   7.831 -1.1769 -0.7374  0.4498
  649MOL0     H87584   6.332  -0.181   7.666  1.5839  1.2933 -2.6229
  649MOL0     H87585   6.479  -0.003   7.602 -0.9320  2.9176  0.8821
  649MOL0     H87586   6.543  -0.093   7.747  1.4194  2.5939 -0.4659
  649MOL0     H87587   6.427   0.180   7.723 -0.9827  0.6020  0.1541
  649MOL0     H87588   6.454   0.087   7.880  1.9867 -1.7263 -0.6170
  649MOL0     H87589   6.689   0.091   7.692  0.8191  0.0599  1.3272
  649MOL0     H87590   6.693   0.072   7.860  1.0433 -0.9023 -1.3349
  649MOL0     H87591   6.609   0.331   7.725 -3.1127 -4.9631 -1.3534
  649MOL0     H87592   6.621   0.318   7.896 -0.8668  3.9717 -1.5740
  649MOL0     H87593   6.850   0.278   7.701 -0.7342  0.3253 -1.2881
  649MOL0     H87594   6.865   0.261   7.880 -1.8657  1.2167  2.6879
  649MOL0     H87595   6.786   0.511   7.718  0.5666 -2.0095 -0.4017
  649MOL0     H87596   6.945   0.467   7.805  0.9712 -2.5360 -2.4629
  649MOL0     H87597   6.373   0.110   7.315  1.1037  0.5571  2.7494
  649MOL0     H87598   6.276   0.264   7.153  1.0333 -2.4586  0.4084
  649MOL0     H87599   5.700   0.340   6.903  0.9502 -0.5300  0.6777
  649MOL0     H87600   5.603   0.521   6.772 -0.2337 -1.4021  2.7362
  649MOL0     H87601   5.234   1.752   6.230  0.9039  2.4014  1.1900
  649MOL0     H87602   5.031   1.797   6.385  2.4119  0.4619  0.5900
  649MOL0     H87603   4.472   1.714   6.337 -0.3312 -1.0633  1.1924
  649MOL0     H87604   4.257   1.801   6.452  0.2897  0.1858  3.7724
  649MOL0     H87605   4.061   2.121   6.526 -3.3141 -2.3280 -1.3051
  649MOL0     H87606   4.095   1.988   6.415 -1.6986  0.6868 -0.5063
  649MOL0     H87607   4.094   1.927   6.719 -2.5242  0.0088  0.6244
  649MOL0     H87608   4.052   1.821   6.593  0.4193 -0.3291  0.4113
  649MOL0     H87609   3.828   1.877   6.672 -0.1255 -1.2916 -2.2050
  649MOL0     H87610   3.857   1.962   6.525 -2.7760 -4.1516  0.4637
  649MOL0     H87611   3.758   2.124   6.692 -0.2315 -1.7031  1.3157
  649MOL0     H87612   3.926   2.165   6.699  0.6581 -1.3967 -1.1814
  649MOL0     H87613   3.879   1.998   7.084  0.0025 -1.1291 -0.4058
  649MOL0     H87614   4.445   2.168   6.540 -2.4320  0.2156 -2.3040
  649MOL0     H87615   4.661   2.097   6.427 -0.4774  0.8192  1.3668
  650MOL0     O87616   8.268   1.648   2.648  0.3843 -0.6997 -0.4576
  650MOL0     C87617   8.155   1.668   2.599  0.7257 -0.4885 -0.0655
  650MOL0     O87618   8.129   1.734   2.480  0.5170  0.5692  0.0275
  650MOL0     C87619   8.239   1.758   2.396  0.0066  0.2526  0.5917
  650MOL0     C87620   8.273   1.687   2.274  0.5280  0.1534 -0.7167
  650MOL0     C87621   8.382   1.723   2.199 -0.6086 -0.1798 -0.7947
  650MOL0     C87622   8.457   1.832   2.233  0.3335  0.0788 -0.7831
  650MOL0     O87623   8.563   1.885   2.170  0.2223  0.2724  0.1799
  650MOL0     C87624   8.618   1.826   2.046 -0.0149 -0.6186  0.0508
  650MOL0     C87625   8.698   1.702   2.085 -0.1066  0.7035  0.7122
  650MOL0     C87626   8.730   1.615   1.953  0.3239 -0.0506 -0.0728
  650MOL0     C87627   8.827   1.686   1.863  0.5164  1.3884  0.1202
  650MOL0     C87628   8.866   1.597   1.742  0.4574 -0.6997 -0.3089
  650MOL0     C87629   8.979   1.669   1.662 -0.2379  0.2341  0.8351
  650MOL0     C87630   9.011   1.576   1.538 -0.3225 -0.2610 -0.1065
  650MOL0     C87631   9.117   1.470   1.580  0.3642 -0.4254 -0.7639
  650MOL0     N87632   9.118   1.372   1.474 -0.1082 -0.0687  0.5850
  650MOL0     C87633   9.141   1.399   1.341 -0.5529  0.2716 -0.4516
  650MOL0     C87634   9.125   1.274   1.284 -0.1850  0.3853 -0.2584
  650MOL0     C87635   9.178   1.223   1.160 -0.2683 -0.3524 -0.3637
  650MOL0     C87636   9.083   1.161   1.054 -0.5023  0.2803 -0.6357
  650MOL0     C87637   9.172   1.078   0.950 -0.2304 -0.5110  0.8516
  650MOL0     C87638   9.243   1.169   0.850  0.2722 -0.6314 -0.3054
  650MOL0     O87639   9.289   1.094   0.732 -0.6740  0.7014  0.1700
  650MOL0     C87640   9.419   1.118   0.691  0.6289  1.0334 -0.4376
  650MOL0     C87641   9.453   1.114   0.559 -0.0786 -1.2719 -0.6850
  650MOL0     C87642   9.586   1.128   0.510 -0.3297 -0.0276  1.0894
  650MOL0     C87643   9.577   1.140   0.358  0.2843  0.2054 -0.3880
  650MOL0     C87644   9.695   1.154   0.590  0.4010 -0.2985 -0.2639
  650MOL0     C87645   9.837   1.191   0.543  0.0003 -1.1282 -0.1515
  650MOL0     O87646   9.932   1.241   0.630 -0.2577  0.6429  0.7036
  650MOL0     C87647  10.014   1.337   0.582  0.9387 -0.0739  1.0875
  650MOL0     C87648   9.986   1.423   0.466  0.2856  1.7446 -0.2431
  650MOL0     C87649  10.071   1.523   0.441  0.2279  0.3084  0.1403
  650MOL0     C87650  10.183   1.543   0.519 -1.0159 -0.0184 -0.3570
  650MOL0     O87651  10.267   1.647   0.493 -0.3538 -0.0913  0.3587
  650MOL0     C87652  10.240   1.742   0.395 -0.4413 -0.4354 -0.0832
  650MOL0     C87653  10.360   1.830   0.381 -0.2031 -0.9361 -0.9942
  650MOL0     C87654  10.317   1.950   0.291  0.8325 -0.1935  0.2423
  650MOL0     C87655  10.439   2.040   0.290  0.5803 -0.1472 -0.3221
  650MOL0     C87656  10.417   2.174   0.219 -0.0038  1.0069  0.1294
  650MOL0     C87657  10.553   2.231   0.165 -1.0023 -0.0133 -0.1496
  650MOL0     C87658  10.557   2.330   0.047  0.9174  0.7161  0.2267
  650MOL0     C87659  10.455   2.448   0.058  0.6005  0.0688  1.4389
  650MOL0    Cl87660  10.286   2.402   0.025  0.3887 -0.2551  0.2178
  650MOL0     C87661  10.206   1.458   0.632 -0.1873 -0.6030  0.2517
  650MOL0     C87662  10.118   1.362   0.665  0.0070  0.6480  0.3279
  650MOL0     O87663   9.845   1.177   0.421 -0.5137  0.4039  0.2109
  650MOL0     C87664   9.660   1.159   0.731 -0.3402 -0.4441 -0.2130
  650MOL0     C87665   9.534   1.125   0.781  0.6468 -0.7518  0.2708
  650MOL0     N87666   9.090   1.186   1.389 -0.9908  0.3598 -0.2560
  650MOL0     N87667   9.095   1.241   1.504 -1.0438 -0.3134 -0.4212
  650MOL0     C87668   8.422   1.899   2.344 -0.4079 -0.5625 -0.3496
  650MOL0     C87669   8.307   1.874   2.425  0.4928  0.0036 -0.3542
  650MOL0     C87670   8.037   1.617   2.669 -0.1443  0.4278 -0.0427
  650MOL0     C87671   7.914   1.616   2.596  0.0563 -0.2942  0.4638
  650MOL0     C87672   7.799   1.595   2.674  0.3388 -0.4802  0.4004
  650MOL0     C87673   7.805   1.558   2.808 -1.1686 -0.2139 -0.6142
  650MOL0     O87674   7.694   1.536   2.889  0.1462 -0.8970 -0.0075
  650MOL0     C87675   7.601   1.447   2.823 -0.4686  0.2474 -0.6835
  650MOL0     C87676   7.522   1.352   2.917  0.4734 -0.1837 -0.8743
  650MOL0     C87677   7.542   1.207   2.903 -0.5868  0.2519 -0.0913
  650MOL0     C87678   7.426   1.137   2.829  0.1948 -0.3534 -0.4311
  650MOL0     C87679   7.441   0.991   2.836  0.2396  0.1500  0.0811
  650MOL0     C87680   7.448   0.869   2.856 -0.0499  0.7681  0.3138
  650MOL0     C87681   7.926   1.556   2.872 -0.6902  1.1380  0.4901
  650MOL0     C87682   8.052   1.579   2.807  0.0784  1.2240 -0.0235
  650MOL0     H87683   8.215   1.606   2.233 -0.2353 -0.3935  1.3361
  650MOL0     H87684   8.411   1.667   2.110 -0.4200 -1.5799  0.1109
  650MOL0     H87685   8.531   1.816   1.981  1.1507  0.1070 -1.6771
  650MOL0     H87686   8.676   1.897   1.986 -1.1467  1.6680  1.5244
  650MOL0     H87687   8.796   1.724   2.128  0.6155 -1.5374  0.3648
  650MOL0     H87688   8.640   1.646   2.159  1.4684 -0.2764  1.2562
  650MOL0     H87689   8.782   1.521   1.969 -1.2499 -1.1800 -1.3429
  650MOL0     H87690   8.643   1.601   1.889 -0.4706 -1.2853  1.2281
  650MOL0     H87691   8.773   1.769   1.817  0.2751  0.1803 -1.8830
  650MOL0     H87692   8.917   1.723   1.913  2.5387 -1.1527 -1.4180
  650MOL0     H87693   8.908   1.501   1.773 -1.6626 -1.3058  0.9386
  650MOL0     H87694   8.778   1.569   1.683  0.3744 -3.0233  0.8366
  650MOL0     H87695   8.941   1.763   1.621 -2.6079 -1.3834 -1.0104
  650MOL0     H87696   9.058   1.706   1.727 -1.0875  3.3513  0.2784
  650MOL0     H87697   8.922   1.529   1.494 -0.8493 -1.2554  1.9203
  650MOL0     H87698   9.048   1.637   1.455 -0.9900  1.1185  0.5663
  650MOL0     H87699   9.095   1.426   1.678 -0.5541  2.5588  0.4780
  650MOL0     H87700   9.219   1.510   1.588  0.5981 -0.4587 -2.9947
  650MOL0     H87701   9.181   1.490   1.296 -0.4780  0.1366 -0.6602
  650MOL0     H87702   9.223   1.298   1.094 -0.0069 -1.2146 -1.1850
  650MOL0     H87703   9.259   1.157   1.194  0.8201  1.7975  1.5486
  650MOL0     H87704   9.034   1.248   1.009 -1.0066  0.2171 -0.2054
  650MOL0     H87705   9.009   1.095   1.099 -0.7253  3.5348  4.6133
  650MOL0     H87706   9.116   1.004   0.891  1.5687 -0.3567 -1.1684
  650MOL0     H87707   9.244   1.026   1.015  0.1115 -1.2558 -0.0964
  650MOL0     H87708   9.322   1.225   0.900 -0.8409 -1.1187  2.1635
  650MOL0     H87709   9.180   1.250   0.814  2.1816  1.0383 -0.0585
  650MOL0     H87710   9.361   1.100   0.502 -2.3473  0.1230  2.3468
  650MOL0     H87711   9.624   1.232   0.323 -0.9640  0.0906 -2.5656
  650MOL0     H87712   9.627   1.055   0.311 -0.7500 -1.4368  1.3179
  650MOL0     H87713   9.471   1.143   0.327 -0.5247  0.1234  2.1761
  650MOL0     H87714   9.892   1.414   0.412  1.2747  1.8335 -2.0588
  650MOL0     H87715  10.053   1.580   0.350 -1.0359  4.0467  2.5160
  650MOL0     H87716  10.230   1.688   0.300  1.8460 -2.6168  0.8093
  650MOL0     H87717  10.149   1.799   0.415 -0.4486 -0.5064  0.0893
  650MOL0     H87718  10.377   1.872   0.480 -2.0985 -1.4801 -0.3924
  650MOL0     H87719  10.449   1.778   0.346  2.2661  2.4411 -0.2224
  650MOL0     H87720  10.233   2.001   0.338  2.3408  1.3944  1.3488
  650MOL0     H87721  10.280   1.938   0.189 -0.8439  3.4980  0.2558
  650MOL0     H87722  10.478   2.051   0.391  5.2414 -2.2952 -1.6117
  650MOL0     H87723  10.524   1.985   0.249 -0.6796 -1.6100 -1.0445
  650MOL0     H87724  10.372   2.249   0.284 -0.5792  0.8466 -0.0716
  650MOL0     H87725  10.352   2.147   0.135 -1.0901 -0.2214  1.3071
  650MOL0     H87726  10.602   2.268   0.255 -2.6648  1.3987  0.2307
  650MOL0     H87727  10.611   2.149   0.122 -0.4560 -1.3952  3.0075
  650MOL0     H87728  10.532   2.282  -0.048  0.0933  2.6326 -0.5725
  650MOL0     H87729  10.658   2.372   0.037  1.7199 -1.3304 -0.8664
  650MOL0     H87730  10.473   2.540   0.002 -1.3779  0.6778  1.7148
  650MOL0     H87731  10.467   2.476   0.164  5.5704  0.2940  1.0623
  650MOL0     H87732  10.293   1.481   0.693  2.4804  1.4297 -3.8636
  650MOL0     H87733  10.127   1.295   0.750 -2.6311 -0.9592 -0.5388
  650MOL0     H87734   9.742   1.175   0.801 -1.7100  0.5188  1.2607
  650MOL0     H87735   9.536   1.111   0.889 -1.1191 -5.7320 -0.0708
  650MOL0     H87736   8.482   1.986   2.371 -1.6628 -0.9599  4.6759
  650MOL0     H87737   8.271   1.931   2.510 -0.3250 -0.6292 -0.2598
  650MOL0     H87738   7.904   1.648   2.493 -1.3539  0.0303  0.6894
  650MOL0     H87739   7.701   1.616   2.632 -0.4488 -2.8566  0.8640
  650MOL0     H87740   7.528   1.502   2.764 -0.0113 -0.4706 -1.9530
  650MOL0     H87741   7.662   1.387   2.755 -0.7666  0.0208 -0.7519
  650MOL0     H87742   7.415   1.364   2.899  0.6030  0.5635 -1.1974
  650MOL0     H87743   7.546   1.384   3.019 -4.8579  3.5829 -0.3760
  650MOL0     H87744   7.547   1.151   2.997 -0.5260 -1.3321 -1.0025
  650MOL0     H87745   7.633   1.178   2.849 -0.4017  0.2390  0.2228
  650MOL0     H87746   7.421   1.166   2.723 -4.3472  1.8789  0.1517
  650MOL0     H87747   7.331   1.164   2.876 -1.3112  0.1993 -3.5275
  650MOL0     H87748   7.444   0.771   2.899  1.5602  1.1637  1.4725
  650MOL0     H87749   7.930   1.533   2.978  1.0393  0.3979  0.2825
  650MOL0     H87750   8.140   1.571   2.869 -1.1258  2.3476  1.9451
  651MOL0     O87751  10.803   8.051   8.547 -0.3471 -0.7895 -0.4492
  651MOL0     C87752  10.693   8.103   8.534 -0.0365 -0.2579  0.8981
  651MOL0     O87753  10.568   8.043   8.546  0.3350 -0.0619  0.0709
  651MOL0     C87754  10.543   7.931   8.616  0.9050  0.6175  0.5327
  651MOL0     C87755  10.415   7.888   8.606 -0.0321  0.6393  0.4305
  651MOL0     C87756  10.360   7.773   8.659 -1.2587  0.7589 -0.0257
  651MOL0     C87757  10.454   7.691   8.723  0.4986  0.9984  0.7323
  651MOL0     O87758  10.420   7.583   8.798  0.3152  0.9022  0.1378
  651MOL0     C87759  10.278   7.541   8.805 -0.4913 -0.3002  0.0028
  651MOL0     C87760  10.256   7.420   8.893  0.8462  1.1098 -0.2897
  651MOL0     C87761  10.303   7.289   8.818  0.5458 -0.0827 -0.3390
  651MOL0     C87762  10.309   7.169   8.911  0.4814  0.1439  0.5554
  651MOL0     C87763  10.373   7.045   8.840 -0.4330  0.5749  0.8559
  651MOL0     C87764  10.324   6.913   8.906  0.3529 -0.4735 -0.1406
  651MOL0     C87765  10.384   6.783   8.840 -0.5565  0.0974  0.0379
  651MOL0     C87766  10.490   6.716   8.923 -0.1377 -0.4073  0.8267
  651MOL0     N87767  10.605   6.680   8.844 -0.5692  0.0465  0.7072
  651MOL0     C87768  10.702   6.770   8.807 -0.6351  0.5457  0.4635
  651MOL0     C87769  10.783   6.693   8.726  0.3773  0.9313  1.0659
  651MOL0     C87770  10.900   6.740   8.649  0.2988 -0.6540  0.1212
  651MOL0     C87771  10.947   6.883   8.687 -0.4694 -0.7982  0.1698
  651MOL0     C87772  11.090   6.920   8.631  1.4554  0.8676 -0.1682
  651MOL0     C87773  11.133   7.043   8.694 -0.1375  0.1336  0.3450
  651MOL0     O87774  11.264   7.064   8.658  0.2717  0.1610 -1.0027
  651MOL0     C87775  11.319   7.189   8.681  0.5034  0.0988  0.3412
  651MOL0     C87776  11.456   7.215   8.658  0.1474  0.7221  0.5245
  651MOL0     C87777  11.522   7.334   8.689  0.4266 -0.2918  0.2237
  651MOL0     C87778  11.660   7.337   8.651 -0.1662  0.0716  0.0405
  651MOL0     C87779  11.453   7.436   8.771 -0.5497 -0.4475 -0.1919
  651MOL0     C87780  11.515   7.573   8.814  0.3809 -0.5839 -0.5263
  651MOL0     O87781  11.419   7.674   8.843 -0.1220 -0.1301  0.6321
  651MOL0     C87782  11.459   7.807   8.847  0.7744 -0.0177 -0.1557
  651MOL0     C87783  11.394   7.877   8.955 -0.4633  0.2245 -0.3918
  651MOL0     C87784  11.424   8.008   8.988  1.6177 -1.0283 -0.1324
  651MOL0     C87785  11.523   8.074   8.919  0.3301 -0.1204  0.2989
  651MOL0     O87786  11.564   8.203   8.937 -0.0937  0.3916 -0.2292
  651MOL0     C87787  11.461   8.293   8.975 -0.0936 -0.5312 -0.3420
  651MOL0     C87788  11.522   8.426   8.972 -0.1834  0.4740  0.4085
  651MOL0     C87789  11.478   8.503   8.844 -0.1911 -0.3206  0.2233
  651MOL0     C87790  11.561   8.635   8.858  0.6930 -1.2027 -0.7350
  651MOL0     C87791  11.694   8.626   8.795  0.6897  0.6602 -0.4820
  651MOL0     C87792  11.772   8.753   8.817 -0.2406  0.2360 -0.6720
  651MOL0     C87793  11.911   8.735   8.758 -0.3359 -0.6638 -0.1436
  651MOL0     C87794  11.971   8.877   8.750  0.4693  1.1977  0.4717
  651MOL0    Cl87795  12.137   8.859   8.668 -0.1047 -0.0597 -0.5793
  651MOL0     C87796  11.600   8.006   8.818  0.0824 -0.2238  0.6743
  651MOL0     C87797  11.558   7.879   8.780  0.2590 -0.7362  0.6525
  651MOL0     O87798  11.635   7.594   8.803 -0.0328 -0.1988  0.2572
  651MOL0     C87799  11.320   7.400   8.795  0.0062 -0.8352 -1.1725
  651MOL0     C87800  11.255   7.292   8.750  0.2809  0.3198  0.0392
  651MOL0     N87801  10.734   6.562   8.727  0.9140 -0.3058  0.4731
  651MOL0     N87802  10.630   6.550   8.798  0.1119 -0.3706  0.6897
  651MOL0     C87803  10.587   7.737   8.740  1.0273  0.1062  1.4015
  651MOL0     C87804  10.637   7.851   8.685  0.5676 -0.4524 -0.6555
  651MOL0     C87805  10.697   8.249   8.514  0.0747  0.6907  1.4994
  651MOL0     C87806  10.800   8.301   8.439  0.7576  0.7155 -0.4935
  651MOL0     C87807  10.813   8.431   8.408 -0.4793  0.4935  0.3778
  651MOL0     C87808  10.728   8.527   8.445  0.3134  0.0011 -0.5416
  651MOL0     O87809  10.752   8.659   8.409 -0.0592  0.1580 -0.9167
  651MOL0     C87810  10.633   8.744   8.374 -0.1323 -0.2566  0.2851
  651MOL0     C87811  10.557   8.675   8.258 -0.0279 -0.5841  0.0334
  651MOL0     C87812  10.636   8.700   8.134 -0.1941  0.4152 -0.2739
  651MOL0     C87813  10.615   8.591   8.034 -1.3434 -0.6065 -0.1099
  651MOL0     C87814  10.641   8.457   8.077 -0.3996 -0.8743 -0.4621
  651MOL0     C87815  10.657   8.339   8.109 -0.0633 -0.4857  0.0673
  651MOL0     C87816  10.625   8.479   8.529 -0.4294 -0.7428 -0.7691
  651MOL0     C87817  10.614   8.344   8.564  0.5021 -0.1441  0.5129
  651MOL0     H87818  10.361   7.951   8.536  2.9423  0.6297 -2.0844
  651MOL0     H87819  10.258   7.738   8.649 -0.5581 -0.9001 -2.2541
  651MOL0     H87820  10.216   7.624   8.840 -0.6490  0.6066 -2.2637
  651MOL0     H87821  10.233   7.514   8.709 -0.3650  1.1284 -0.4785
  651MOL0     H87822  10.321   7.435   8.980  2.2809  0.2775 -1.1845
  651MOL0     H87823  10.152   7.405   8.923  0.0792  0.0500 -3.1842
  651MOL0     H87824  10.227   7.269   8.742 -0.6358  1.7404  0.2964
  651MOL0     H87825  10.401   7.298   8.770  1.6218 -2.7209  1.1269
  651MOL0     H87826  10.362   7.186   9.006  0.9549 -2.2633  0.7947
  651MOL0     H87827  10.207   7.152   8.945  0.5044  0.7905  0.9635
  651MOL0     H87828  10.364   7.040   8.731 -0.5329 -4.4159  0.8429
  651MOL0     H87829  10.480   7.063   8.851 -0.7091  3.2503 -0.1478
  651MOL0     H87830  10.332   6.920   9.014 -0.9629  0.5570 -0.0797
  651MOL0     H87831  10.217   6.910   8.884  0.2735  1.5517 -0.2505
  651MOL0     H87832  10.308   6.708   8.817 -0.0154 -0.7814  1.0307
  651MOL0     H87833  10.428   6.812   8.744  0.2758  2.9607  1.1716
  651MOL0     H87834  10.450   6.625   8.970 -0.7257  0.1175  1.3501
  651MOL0     H87835  10.529   6.787   8.996  1.7633  3.2279 -3.2482
  651MOL0     H87836  10.715   6.876   8.823 -0.0016  0.4781  0.4412
  651MOL0     H87837  10.980   6.665   8.655  1.2891 -0.0759 -3.4110
  651MOL0     H87838  10.878   6.751   8.543  1.8543  3.6518  0.0333
  651MOL0     H87839  10.939   6.898   8.795  1.2113  0.7324  0.1361
  651MOL0     H87840  10.871   6.954   8.654 -2.9169 -2.8895  0.9640
  651MOL0     H87841  11.093   6.933   8.523 -0.0136 -1.1197 -0.5122
  651MOL0     H87842  11.157   6.838   8.659 -0.0720 -0.5845 -0.6231
  651MOL0     H87843  11.125   7.032   8.803 -0.3351  1.3879  0.4729
  651MOL0     H87844  11.073   7.129   8.664  1.4849  0.7432 -1.2679
  651MOL0     H87845  11.505   7.132   8.609  2.4586  2.4531 -0.2862
  651MOL0     H87846  11.686   7.262   8.575  0.2669 -2.4251  2.4812
  651MOL0     H87847  11.695   7.433   8.612 -4.2010  2.2034  1.0985
  651MOL0     H87848  11.724   7.321   8.738 -0.3429  5.0488  1.3689
  651MOL0     H87849  11.322   7.814   9.006 -0.0252  0.0816  0.0526
  651MOL0     H87850  11.362   8.056   9.063  1.3052 -1.7821  0.0999
  651MOL0     H87851  11.367   8.278   8.920  0.5003  1.2777 -1.9213
  651MOL0     H87852  11.439   8.269   9.080  0.1888 -0.0282 -0.1634
  651MOL0     H87853  11.502   8.485   9.062  0.8149  0.9513  0.3407
  651MOL0     H87854  11.630   8.406   8.975 -0.3570 -0.4599  0.4742
  651MOL0     H87855  11.369   8.506   8.850 -0.2326 -1.5127  0.1958
  651MOL0     H87856  11.502   8.465   8.744 -1.6484  1.1089 -0.7085
  651MOL0     H87857  11.511   8.717   8.805  3.1883 -1.6710 -4.1929
  651MOL0     H87858  11.576   8.664   8.962 -1.5866  1.5910 -1.0770
  651MOL0     H87859  11.686   8.597   8.690  0.0841 -0.4661 -0.1395
  651MOL0     H87860  11.729   8.535   8.844 -4.2246 -0.9425  0.6247
  651MOL0     H87861  11.722   8.828   8.754 -0.3197 -1.0188 -2.1437
  651MOL0     H87862  11.768   8.788   8.921  1.9094 -0.8345 -0.1755
  651MOL0     H87863  11.922   8.687   8.661  2.6745  0.3041 -0.3763
  651MOL0     H87864  11.971   8.671   8.823 -1.6776 -1.5792  0.2311
  651MOL0     H87865  11.985   8.908   8.854  0.9529 -1.3735  1.2453
  651MOL0     H87866  11.895   8.929   8.692 -0.9683 -1.1859  0.0804
  651MOL0     H87867  11.677   8.060   8.764 -2.5634  3.0836 -0.0636
  651MOL0     H87868  11.621   7.830   8.706  2.5603  0.3633  1.7770
  651MOL0     H87869  11.264   7.471   8.854  0.3809 -1.4196 -0.0895
  651MOL0     H87870  11.150   7.299   8.779 -0.7150 -2.6814 -2.4198
  651MOL0     H87871  10.658   7.676   8.796 -0.2525 -1.0633  1.7957
  651MOL0     H87872  10.744   7.869   8.688  0.6054 -0.7501 -0.0205
  651MOL0     H87873  10.865   8.232   8.385  1.3743  3.5274 -3.7240
  651MOL0     H87874  10.898   8.454   8.344  1.0831  0.2308  2.2919
  651MOL0     H87875  10.558   8.759   8.452 -2.7007 -1.5922 -1.7339
  651MOL0     H87876  10.656   8.843   8.332 -0.1568  0.7179  2.4581
  651MOL0     H87877  10.457   8.717   8.242  0.2914 -0.8200 -3.2122
  651MOL0     H87878  10.538   8.568   8.274  0.8493 -0.8243 -0.4585
  651MOL0     H87879  10.740   8.723   8.156 -0.2275 -0.4693  0.9227
  651MOL0     H87880  10.591   8.787   8.086 -1.0098  0.5466  0.6816
  651MOL0     H87881  10.686   8.603   7.952 -1.3139 -2.1996 -0.3632
  651MOL0     H87882  10.512   8.576   8.000 -1.7712 -0.2984  1.0043
  651MOL0     H87883  10.664   8.235   8.131  5.8119  0.0447  2.5747
  651MOL0     H87884  10.562   8.549   8.583 -0.3710 -2.5586  1.8080
  651MOL0     H87885  10.540   8.308   8.636 -3.3459 -0.3974 -3.1624
  652MOL0     O87886   7.196   8.943   8.776 -0.3480 -0.6239 -0.3158
  652MOL0     C87887   7.093   8.959   8.836  0.1971 -0.9182 -1.1079
  652MOL0     O87888   7.076   8.942   8.972 -0.3716  0.1160  0.8592
  652MOL0     C87889   7.168   8.879   9.052  0.2556 -0.0453  0.0444
  652MOL0     C87890   7.206   8.743   9.035  0.2330  0.4598  0.2603
  652MOL0     C87891   7.303   8.694   9.116 -1.2623 -0.2963  0.3551
  652MOL0     C87892   7.361   8.766   9.216 -0.3521  0.3802  0.0223
  652MOL0     O87893   7.461   8.726   9.306 -0.0401  0.0743 -0.1679
  652MOL0     C87894   7.555   8.640   9.244  0.1932 -0.2557 -0.0312
  652MOL0     C87895   7.689   8.715   9.258 -0.2518 -0.0482  0.5867
  652MOL0     C87896   7.801   8.637   9.193  0.1079  1.0859  0.3646
  652MOL0     C87897   7.931   8.699   9.225  0.6778  0.2960  1.3181
  652MOL0     C87898   7.979   8.808   9.131  0.3203 -0.3841 -0.0129
  652MOL0     C87899   7.995   8.767   8.986 -0.8015  0.0500 -0.5999
  652MOL0     C87900   8.087   8.859   8.905  0.8999  0.2835  0.5783
  652MOL0     C87901   8.000   8.972   8.835  0.6482  0.3055  0.1155
  652MOL0     N87902   8.093   9.060   8.767  0.1490 -0.1056 -0.0980
  652MOL0     C87903   8.209   9.112   8.826 -0.0787  0.1893  0.5542
  652MOL0     C87904   8.309   9.126   8.730  0.3724 -1.2486  0.2273
  652MOL0     C87905   8.448   9.173   8.736  0.0851  0.3448 -0.4992
  652MOL0     C87906   8.523   9.085   8.841 -0.0131  0.2987  0.5726
  652MOL0     C87907   8.665   9.142   8.839 -0.3119 -0.1255  0.6540
  652MOL0     C87908   8.739   9.065   8.955 -0.5182  1.1077  0.4353
  652MOL0     O87909   8.770   8.921   8.940 -0.7070 -0.3320 -0.9846
  652MOL0     C87910   8.835   8.886   8.828  1.2712 -0.0807  0.8483
  652MOL0     C87911   8.971   8.902   8.819  0.1857  0.9363  0.1077
  652MOL0     C87912   9.031   8.868   8.695  0.0133  0.2044  0.7288
  652MOL0     C87913   9.174   8.921   8.686  1.0639 -0.9844 -0.3460
  652MOL0     C87914   8.959   8.801   8.586  0.0068 -0.2561  0.5542
  652MOL0     C87915   9.025   8.743   8.467 -0.4525  0.1267 -0.7276
  652MOL0     O87916   9.163   8.750   8.468 -0.3437 -0.3035 -1.2313
  652MOL0     C87917   9.223   8.741   8.349 -0.0300 -0.4681  0.1449
  652MOL0     C87918   9.249   8.862   8.283 -0.4267  0.0345  0.1715
  652MOL0     C87919   9.319   8.859   8.156 -0.5540  0.0713 -0.2306
  652MOL0     C87920   9.347   8.738   8.100 -0.2622  0.9864  0.4021
  652MOL0     O87921   9.414   8.733   7.981  0.5260  0.2154 -0.4482
  652MOL0     C87922   9.472   8.837   7.906 -0.4616  0.8433  0.1532
  652MOL0     C87923   9.378   8.878   7.796 -0.2779 -0.6709  0.7434
  652MOL0     C87924   9.266   8.980   7.854  0.2929  0.3000  0.7245
  652MOL0     C87925   9.161   9.034   7.751 -0.2491 -0.7396  0.5683
  652MOL0     C87926   9.057   8.930   7.714 -0.0362  1.1260  0.8411
  652MOL0     C87927   8.934   9.001   7.649 -0.8579  0.5710  0.3194
  652MOL0     C87928   8.803   8.929   7.675  0.6891 -0.7076 -0.3131
  652MOL0     C87929   8.685   8.997   7.602 -0.0179 -0.2278  0.4861
  652MOL0    Cl87930   8.527   8.955   7.692  0.0201  0.0141 -0.1179
  652MOL0     C87931   9.317   8.616   8.169 -0.3228 -1.2634  0.0749
  652MOL0     C87932   9.240   8.621   8.288  0.0534  0.3350 -0.2676
  652MOL0     O87933   8.953   8.711   8.371 -0.3600 -0.4708  0.0371
  652MOL0     C87934   8.821   8.800   8.604  0.7932 -0.0951  0.4937
  652MOL0     C87935   8.761   8.837   8.719  0.2070 -0.5908 -0.1393
  652MOL0     N87936   8.247   9.098   8.609  0.2744  0.4846  0.2555
  652MOL0     N87937   8.122   9.055   8.638 -0.6148 -0.2720 -0.0464
  652MOL0     C87938   7.307   8.887   9.242  0.3278 -0.3679  1.2677
  652MOL0     C87939   7.213   8.950   9.160  0.0719 -0.0175  0.4689
  652MOL0     C87940   6.975   9.032   8.763  0.0342 -0.2085 -0.7063
  652MOL0     C87941   6.974   9.047   8.618 -0.0686  0.2057 -0.6647
  652MOL0     C87942   6.877   9.126   8.555 -0.8717 -0.3154  0.1917
  652MOL0     C87943   6.783   9.195   8.627  0.4885 -0.5499 -1.0647
  652MOL0     O87944   6.686   9.269   8.578 -0.4945  0.1120  0.7851
  652MOL0     C87945   6.563   9.259   8.645  0.2427  0.5909  0.3207
  652MOL0     C87946   6.462   9.308   8.547 -0.3860 -0.6648 -0.2263
  652MOL0     C87947   6.424   9.198   8.452  0.5316 -0.6018 -0.1092
  652MOL0     C87948   6.280   9.213   8.405 -0.1531 -0.1601  0.6739
  652MOL0     C87949   6.264   9.296   8.279  0.7287  0.5182 -0.0798
  652MOL0     C87950   6.258   9.325   8.159  0.5441  0.2201 -0.0158
  652MOL0     C87951   6.802   9.195   8.768  0.1075 -0.6913  0.2496
  652MOL0     C87952   6.901   9.129   8.832  0.4795  0.2506  0.5291
  652MOL0     H87953   7.159   8.687   8.955 -0.8432 -1.6250  2.2228
  652MOL0     H87954   7.339   8.595   9.090  0.3157 -0.0070  1.3163
  652MOL0     H87955   7.547   8.544   9.297 -2.5513  0.0045  0.1784
  652MOL0     H87956   7.542   8.616   9.138 -0.0630  1.8105 -0.4984
  652MOL0     H87957   7.683   8.810   9.204 -0.2315 -1.3042 -1.7779
  652MOL0     H87958   7.702   8.747   9.362  1.7912  2.2516 -0.2736
  652MOL0     H87959   7.804   8.537   9.239  2.5581  1.1587  0.5178
  652MOL0     H87960   7.782   8.616   9.087  0.8140  0.7521  0.2982
  652MOL0     H87961   7.933   8.741   9.326  1.0614  0.2442  1.3317
  652MOL0     H87962   8.006   8.620   9.222  0.4327  0.0895  0.0734
  652MOL0     H87963   7.900   8.883   9.124  0.5862 -0.2425 -2.0618
  652MOL0     H87964   8.071   8.847   9.173  0.5724 -1.4073  0.4256
  652MOL0     H87965   8.055   8.676   8.998  1.1317  1.1499 -1.4969
  652MOL0     H87966   7.904   8.747   8.929 -0.7202 -0.9744 -0.3882
  652MOL0     H87967   8.159   8.896   8.979 -2.7522  1.9284  3.6374
  652MOL0     H87968   8.130   8.801   8.823 -1.7969 -1.0883  0.0019
  652MOL0     H87969   7.941   9.037   8.900 -1.2812 -1.8996  0.7102
  652MOL0     H87970   7.928   8.927   8.766  1.6033  1.1288 -1.4655
  652MOL0     H87971   8.230   9.132   8.931  0.5108 -0.3976  0.5562
  652MOL0     H87972   8.500   9.193   8.641  0.2617  1.9794 -0.0925
  652MOL0     H87973   8.455   9.271   8.784 -0.7187  0.4345 -0.5538
  652MOL0     H87974   8.510   8.980   8.814  1.7914  0.9956 -3.9423
  652MOL0     H87975   8.476   9.095   8.939  1.2454  2.4775  1.0217
  652MOL0     H87976   8.677   9.249   8.856  3.5289  0.6041 -4.2123
  652MOL0     H87977   8.725   9.132   8.748 -2.3449  1.4479 -0.9412
  652MOL0     H87978   8.681   9.086   9.046  1.5542  1.5603  1.7057
  652MOL0     H87979   8.834   9.110   8.984  1.2606 -1.2343 -1.4544
  652MOL0     H87980   9.020   8.935   8.910 -0.0893 -0.7060  0.9047
  652MOL0     H87981   9.207   8.980   8.772 -2.5291 -0.3524  0.7523
  652MOL0     H87982   9.241   8.835   8.694 -1.3512 -2.9375 -0.1904
  652MOL0     H87983   9.191   8.991   8.603 -0.0596 -0.2156  0.0598
  652MOL0     H87984   9.201   8.951   8.323 -0.4067 -0.7841  2.1239
  652MOL0     H87985   9.346   8.954   8.112  2.0876 -0.0801  0.8567
  652MOL0     H87986   9.500   8.929   7.957  0.9688  1.9657 -2.5007
  652MOL0     H87987   9.565   8.796   7.866 -1.2358 -0.8580 -0.0275
  652MOL0     H87988   9.452   8.930   7.735 -2.1359  1.5461  0.2461
  652MOL0     H87989   9.347   8.793   7.734 -0.9883  0.5507 -0.6302
  652MOL0     H87990   9.325   9.059   7.900 -0.0554  0.5304  0.7828
  652MOL0     H87991   9.201   8.929   7.927 -0.5010  0.7953  0.3791
  652MOL0     H87992   9.119   9.126   7.794 -2.3721 -2.0304  1.4389
  652MOL0     H87993   9.212   9.079   7.666 -0.4335  2.0648  1.8516
  652MOL0     H87994   9.014   8.874   7.798 -1.5125 -2.0569 -1.8073
  652MOL0     H87995   9.097   8.853   7.647 -2.7744 -0.6551  1.0985
  652MOL0     H87996   8.920   9.097   7.699 -1.2510  0.2488  0.8494
  652MOL0     H87997   8.956   9.015   7.543  3.3390 -1.2978  0.7446
  652MOL0     H87998   8.782   8.935   7.782  1.2719 -1.9099 -0.1181
  652MOL0     H87999   8.816   8.822   7.656  0.5533 -1.3647  2.7587
  652MOL0     H88000   8.684   8.964   7.498 -3.0819  0.9636  0.0259
  652MOL0     H88001   8.699   9.106   7.607  2.5091 -0.4781  0.2646
  652MOL0     H88002   9.338   8.528   8.110  0.0673 -0.9569 -0.2462
  652MOL0     H88003   9.211   8.529   8.338 -4.9369 -0.0245 -3.0896
  652MOL0     H88004   8.763   8.768   8.518  1.3041  4.7557 -2.0385
  652MOL0     H88005   8.657   8.808   8.729  0.1062 -0.5789 -1.0569
  652MOL0     H88006   7.331   8.923   9.342  1.5025  2.8965 -0.0697
  652MOL0     H88007   7.165   9.045   9.184 -1.5872 -0.3370 -1.3263
  652MOL0     H88008   7.051   8.988   8.569 -0.3070  1.5979 -2.8420
  652MOL0     H88009   6.870   9.124   8.447  0.3931 -1.3860  0.1096
  652MOL0     H88010   6.546   9.156   8.677  4.5698  0.1045  1.7859
  652MOL0     H88011   6.564   9.313   8.740 -1.0126 -1.2794  1.4785
  652MOL0     H88012   6.499   9.398   8.496  0.7055 -1.3690 -0.7240
  652MOL0     H88013   6.383   9.343   8.614  0.8263  2.3600 -0.1819
  652MOL0     H88014   6.427   9.102   8.504  0.2044 -0.3915  0.3007
  652MOL0     H88015   6.495   9.198   8.369 -0.0430  1.6559 -0.6648
  652MOL0     H88016   6.210   9.253   8.479 -0.8098  3.3269 -1.5934
  652MOL0     H88017   6.254   9.112   8.370  2.0498 -0.5907  0.1732
  652MOL0     H88018   6.263   9.335   8.053  0.6619  0.4438  0.0109
  652MOL0     H88019   6.740   9.236   8.847  2.4954  1.2303  1.2720
  652MOL0     H88020   6.895   9.123   8.941  1.5282  0.2626  0.5974
  653MOL0     O88021   8.829   9.967  11.560  0.4150 -0.2935 -0.2001
  653MOL0     C88022   8.896   9.925  11.648 -1.1054  0.4526 -0.8511
  653MOL0     O88023   8.912   9.973  11.778 -1.0256  1.1478 -0.4026
  653MOL0     C88024   8.866  10.098  11.816  0.6218  0.4702  0.2935
  653MOL0     C88025   8.959  10.189  11.852 -0.0744  0.5292  0.3314
  653MOL0     C88026   8.915  10.311  11.909 -0.0835  0.0545 -0.7608
  653MOL0     C88027   8.780  10.354  11.913 -0.0044  0.0949 -0.2555
  653MOL0     O88028   8.734  10.473  11.962 -0.2403 -0.6220 -0.6241
  653MOL0     C88029   8.825  10.572  11.988  0.2576  0.0320  0.2906
  653MOL0     C88030   8.766  10.715  11.993 -0.1258  1.1419 -0.2583
  653MOL0     C88031   8.701  10.763  11.870 -0.0337  0.1006  1.3353
  653MOL0     C88032   8.734  10.907  11.834 -1.4163 -0.6413 -0.6596
  653MOL0     C88033   8.660  11.012  11.923 -0.1040 -0.3430 -0.0420
  653MOL0     C88034   8.736  11.144  11.908 -0.3155 -0.3919 -0.3291
  653MOL0     C88035   8.630  11.256  11.922  0.4493  0.1063  0.1303
  653MOL0     C88036   8.694  11.384  11.898 -0.0238 -0.3043  0.0374
  653MOL0     N88037   8.597  11.497  11.878 -0.1934  0.6824 -0.1715
  653MOL0     C88038   8.617  11.578  11.782  0.3512 -0.0403  0.6245
  653MOL0     C88039   8.510  11.663  11.788 -1.1110 -0.1911 -1.3280
  653MOL0     C88040   8.497  11.769  11.692  0.0930 -0.2706  0.2946
  653MOL0     C88041   8.365  11.757  11.614  0.2495  0.7798 -0.1420
  653MOL0     C88042   8.259  11.817  11.694  0.3857 -0.1936  0.2060
  653MOL0     C88043   8.131  11.814  11.620 -0.0716 -0.7082  0.2916
  653MOL0     O88044   8.041  11.916  11.662  0.3002  0.1615 -0.2276
  653MOL0     C88045   7.938  11.873  11.743 -0.5569  1.0926  0.3661
  653MOL0     C88046   7.834  11.801  11.696  0.1448  0.4009  1.4297
  653MOL0     C88047   7.751  11.734  11.786 -0.9554 -0.6209 -0.5882
  653MOL0     C88048   7.649  11.649  11.728 -0.5318 -0.2659 -0.4900
  653MOL0     C88049   7.744  11.772  11.924  0.3214  0.7758 -0.1475
  653MOL0     C88050   7.635  11.726  12.005  0.3320 -0.0709 -0.4272
  653MOL0     O88051   7.567  11.810  12.100 -0.5926  0.3475 -0.3200
  653MOL0     C88052   7.473  11.744  12.179  1.0110 -0.3086  0.1100
  653MOL0     C88053   7.464  11.755  12.319 -0.6211  0.0011 -0.4611
  653MOL0     C88054   7.366  11.701  12.392 -1.0943 -0.4468  0.2831
  653MOL0     C88055   7.253  11.649  12.328 -0.0450  0.4022 -0.2920
  653MOL0     O88056   7.146  11.613  12.411  1.3657  0.3485  0.2720
  653MOL0     C88057   7.024  11.661  12.347  0.1572 -0.6856 -0.5329
  653MOL0     C88058   6.901  11.672  12.442 -0.3060  0.8561  0.0723
  653MOL0     C88059   6.779  11.703  12.369  0.2753  0.4744  0.5625
  653MOL0     C88060   6.659  11.654  12.443  0.1925 -0.1021  0.6901
  653MOL0     C88061   6.536  11.721  12.370 -0.3632  0.5089  0.0251
  653MOL0     C88062   6.508  11.862  12.417  0.5217  0.4545  0.3683
  653MOL0     C88063   6.373  11.906  12.358 -0.1494 -0.1663  0.3549
  653MOL0     C88064   6.249  11.867  12.447 -0.1257  0.1574  0.3553
  653MOL0    Cl88065   6.106  11.833  12.346 -0.1489  0.2345 -0.2288
  653MOL0     C88066   7.258  11.626  12.190  0.4231 -0.3485  0.2261
  653MOL0     C88067   7.367  11.680  12.112  0.5212  0.1824 -0.5373
  653MOL0     O88068   7.638  11.601  12.007  0.9886 -0.1261 -0.4755
  653MOL0     C88069   7.848  11.856  11.977  0.9721 -0.5267 -0.1947
  653MOL0     C88070   7.942  11.894  11.882  0.3917 -0.6626 -0.0921
  653MOL0     N88071   8.434  11.634  11.900 -0.1056 -0.7289  0.4252
  653MOL0     N88072   8.487  11.530  11.960 -0.4456 -0.4183  0.4414
  653MOL0     C88073   8.687  10.251  11.874  0.0392  0.1227  0.6899
  653MOL0     C88074   8.728  10.127  11.824  0.0260 -0.4241 -0.0157
  653MOL0     C88075   8.986   9.821  11.611  0.2711  1.7084  0.8043
  653MOL0     C88076   9.089   9.776  11.697  0.0574 -0.1032  0.8201
  653MOL0     C88077   9.186   9.683  11.653 -0.4683 -0.4926  0.8743
  653MOL0     C88078   9.173   9.617  11.529 -0.3746 -0.5372  0.3854
  653MOL0     O88079   9.277   9.528  11.507  0.6206 -0.0343 -0.0966
  653MOL0     C88080   9.265   9.446  11.399  1.0085 -0.1952  0.2549
  653MOL0     C88081   9.393   9.371  11.405  0.1503  1.2452 -0.3573
  653MOL0     C88082   9.438   9.278  11.289  0.2964  0.0626 -0.0474
  653MOL0     C88083   9.321   9.217  11.214 -0.2218  0.2975  0.0711
  653MOL0     C88084   9.250   9.126  11.304  0.4311 -1.5534  0.3484
  653MOL0     C88085   9.201   9.041  11.372  0.1132 -0.5963 -0.6818
  653MOL0     C88086   9.065   9.654  11.440 -0.5761 -0.0530  0.0596
  653MOL0     C88087   8.972   9.753  11.486  0.4311  0.1689  0.8247
  653MOL0     H88088   9.066  10.179  11.838  0.2404  1.9917  1.4060
  653MOL0     H88089   8.990  10.387  11.929  0.6322  0.1893 -3.5294
  653MOL0     H88090   8.888  10.551  12.075  0.9149 -1.7492 -0.5751
  653MOL0     H88091   8.894  10.575  11.903 -0.3668 -6.9394 -1.0274
  653MOL0     H88092   8.694  10.704  12.075  2.5602 -1.2429  2.0001
  653MOL0     H88093   8.846  10.783  12.022  0.3152 -0.6101  3.0061
  653MOL0     H88094   8.740  10.701  11.788  2.9016 -0.5034  3.0403
  653MOL0     H88095   8.593  10.744  11.876 -0.1769 -0.5969 -1.8743
  653MOL0     H88096   8.840  10.928  11.851 -1.2693 -1.2946 -0.7394
  653MOL0     H88097   8.709  10.927  11.729  2.2598  2.3762 -1.1612
  653MOL0     H88098   8.557  11.021  11.887 -0.9692 -3.1589  1.4613
  653MOL0     H88099   8.648  10.970  12.023  0.1538  0.4603  0.3356
  653MOL0     H88100   8.808  11.145  11.990 -0.4776 -0.9606 -0.1783
  653MOL0     H88101   8.794  11.146  11.815  0.7296 -2.6947  0.2041
  653MOL0     H88102   8.549  11.244  11.850  0.1470 -0.8188  0.6095
  653MOL0     H88103   8.601  11.261  12.027  0.8975  1.2710  0.2125
  653MOL0     H88104   8.758  11.381  11.809 -0.5466  2.2424 -0.5117
  653MOL0     H88105   8.763  11.402  11.980 -0.7773 -0.7631  0.7888
  653MOL0     H88106   8.695  11.572  11.707  0.6342 -3.1831  1.0547
  653MOL0     H88107   8.515  11.867  11.737  0.5706 -1.2374  2.3385
  653MOL0     H88108   8.563  11.753  11.606 -1.4673 -0.9554 -0.8193
  653MOL0     H88109   8.328  11.654  11.612 -1.7676  1.4605  0.1100
  653MOL0     H88110   8.375  11.800  11.514 -1.7671 -0.5929 -0.9936
  653MOL0     H88111   8.273  11.924  11.710  1.3911 -0.7864  4.4100
  653MOL0     H88112   8.238  11.764  11.787  1.8587 -0.0379  0.6577
  653MOL0     H88113   8.089  11.714  11.631  0.8098 -0.8744  2.6617
  653MOL0     H88114   8.154  11.827  11.514  1.1225 -0.6598  0.5396
  653MOL0     H88115   7.842  11.781  11.590  0.9377 -0.8571  1.7130
  653MOL0     H88116   7.549  11.694  11.736 -0.2149  0.0051  3.6250
  653MOL0     H88117   7.656  11.645  11.618 -2.1045  1.4018 -0.7042
  653MOL0     H88118   7.657  11.546  11.764 -0.0670 -0.3977 -0.9586
  653MOL0     H88119   7.530  11.822  12.374 -2.0413  0.4977  0.7098
  653MOL0     H88120   7.376  11.727  12.497 -2.8951 -0.8971  0.6001
  653MOL0     H88121   7.038  11.767  12.325  0.2114 -0.2696  1.3830
  653MOL0     H88122   6.997  11.600  12.259 -3.6875 -5.0186  3.0881
  653MOL0     H88123   6.886  11.569  12.475  2.6587 -0.0624 -1.0985
  653MOL0     H88124   6.914  11.750  12.519 -0.5893  0.4414  0.5418
  653MOL0     H88125   6.786  11.651  12.273  2.7096 -0.4881  1.1915
  653MOL0     H88126   6.770  11.812  12.363 -0.8152  0.7285  4.2227
  653MOL0     H88127   6.656  11.547  12.418  0.3473  0.4301 -1.7732
  653MOL0     H88128   6.649  11.666  12.552  1.8528  0.0756  0.8414
  653MOL0     H88129   6.449  11.660  12.392  0.0561  0.1248  0.6731
  653MOL0     H88130   6.564  11.720  12.264  1.9373  1.7751  0.5383
  653MOL0     H88131   6.499  11.873  12.525  0.3111 -2.0643  0.6599
  653MOL0     H88132   6.589  11.934  12.398  0.5163  0.2348 -0.5436
  653MOL0     H88133   6.354  11.866  12.258 -0.1360  0.9875 -0.1243
  653MOL0     H88134   6.376  12.014  12.343  1.1594  0.0924  2.2049
  653MOL0     H88135   6.239  11.955  12.511  0.4097  1.9778 -1.9262
  653MOL0     H88136   6.269  11.781  12.512 -2.7223 -0.1012  0.9313
  653MOL0     H88137   7.177  11.590  12.126 -0.7283  2.5503 -0.0746
  653MOL0     H88138   7.360  11.682  12.004 -0.9534  1.7829 -0.4488
  653MOL0     H88139   7.853  11.870  12.085  1.7115 -1.4666 -0.0899
  653MOL0     H88140   8.031  11.936  11.929  0.3475 -0.0205 -0.5692
  653MOL0     H88141   8.581  10.275  11.876  0.1371  1.2818 -2.3299
  653MOL0     H88142   8.666  10.046  11.788  1.3594 -0.5109 -2.3422
  653MOL0     H88143   9.092   9.831  11.791 -0.0052 -1.4355  1.6252
  653MOL0     H88144   9.267   9.663  11.723  2.1696 -2.3726 -2.3584
  653MOL0     H88145   9.176   9.382  11.398 -1.1797  2.6034 -1.0914
  653MOL0     H88146   9.274   9.503  11.305 -0.1150 -0.8274 -0.2543
  653MOL0     H88147   9.378   9.311  11.496 -2.5800  0.9772 -0.8844
  653MOL0     H88148   9.480   9.434  11.425  1.2047 -0.4183  0.5808
  653MOL0     H88149   9.510   9.199  11.315 -1.6222 -1.8779 -0.2906
  653MOL0     H88150   9.494   9.339  11.217 -0.5086 -0.7004 -1.3519
  653MOL0     H88151   9.357   9.144  11.141  6.3078  0.4364  2.4915
  653MOL0     H88152   9.255   9.293  11.171 -1.6235  0.3924  2.2488
  653MOL0     H88153   9.144   8.960  11.414  0.2529 -0.6931 -0.6765
  653MOL0     H88154   9.054   9.607  11.343  0.5890  1.1404 -0.6902
  653MOL0     H88155   8.889   9.782  11.423  0.2326 -1.2271  0.3978
  654MOL0     O88156   2.518   4.843   5.900 -0.2751  0.1036 -0.2134
  654MOL0     C88157   2.420   4.805   5.958 -0.2935  0.3634 -0.0523
  654MOL0     O88158   2.412   4.795   6.095 -0.0063 -0.0863 -0.0881
  654MOL0     C88159   2.521   4.829   6.171 -0.0740 -0.3470  0.4270
  654MOL0     C88160   2.550   4.740   6.278 -0.9930 -0.2800 -0.0245
  654MOL0     C88161   2.654   4.763   6.368  0.1676 -0.1233  0.9353
  654MOL0     C88162   2.723   4.883   6.368  0.2233 -0.1009 -0.3057
  654MOL0     O88163   2.812   4.901   6.468 -0.1433 -0.3092 -0.6650
  654MOL0     C88164   2.800   5.024   6.544  0.0437 -0.4234  0.0957
  654MOL0     C88165   2.710   5.022   6.669 -0.3381  0.3592  0.4996
  654MOL0     C88166   2.740   4.910   6.770  0.1352 -0.1231  0.2298
  654MOL0     C88167   2.874   4.937   6.836  0.3179  0.3188 -0.2344
  654MOL0     C88168   2.943   4.806   6.897 -0.8283 -0.1584 -0.6260
  654MOL0     C88169   3.093   4.819   6.910  0.8364  0.3433 -0.4712
  654MOL0     C88170   3.137   4.915   7.009  0.6632  0.5147 -0.2065
  654MOL0     C88171   3.287   4.910   7.019  0.7431  0.0562  0.3445
  654MOL0     N88172   3.356   4.881   7.149 -0.0363 -0.0890  0.1518
  654MOL0     C88173   3.341   4.768   7.231  0.0346 -0.4025  0.5272
  654MOL0     C88174   3.423   4.793   7.335 -0.0613  0.8381 -0.1238
  654MOL0     C88175   3.449   4.702   7.455 -0.4830  0.7109  0.2603
  654MOL0     C88176   3.599   4.669   7.471  0.7412 -0.1302  0.0192
  654MOL0     C88177   3.649   4.732   7.597 -0.5108  0.0932  0.0810
  654MOL0     C88178   3.656   4.886   7.597  0.4829  0.0624 -0.1800
  654MOL0     O88179   3.748   4.931   7.697 -0.2679 -0.0774 -0.6503
  654MOL0     C88180   3.734   5.074   7.710  0.2326 -0.7359  0.2684
  654MOL0     C88181   3.704   5.113   7.841 -0.1238 -0.6983  0.2449
  654MOL0     C88182   3.692   5.248   7.877  0.5067  1.0860  0.0148
  654MOL0     C88183   3.641   5.281   8.019 -0.2834 -0.2354 -1.2319
  654MOL0     C88184   3.717   5.348   7.784 -0.7965 -0.1156  0.1342
  654MOL0     C88185   3.682   5.495   7.810 -0.8275  0.1596 -0.0252
  654MOL0     O88186   3.738   5.580   7.726  0.4613  0.3143 -0.6010
  654MOL0     C88187   3.732   5.715   7.748 -0.0629 -0.3490  0.2231
  654MOL0     C88188   3.855   5.768   7.796 -0.1584  0.0791 -0.7228
  654MOL0     C88189   3.871   5.907   7.783  0.2924  0.4709  0.3864
  654MOL0     C88190   3.763   5.990   7.747  0.6030 -0.2152 -0.0494
  654MOL0     O88191   3.779   6.128   7.747  0.9029  0.1842 -1.1444
  654MOL0     C88192   3.733   6.178   7.626  0.4382 -0.5680 -0.6799
  654MOL0     C88193   3.762   6.330   7.630 -0.0839  0.1687 -0.1997
  654MOL0     C88194   3.735   6.391   7.499  0.2106  0.9036  0.3095
  654MOL0     C88195   3.688   6.539   7.506  0.2792  0.1813 -0.0755
  654MOL0     C88196   3.687   6.600   7.367  0.1414  0.5558 -0.8145
  654MOL0     C88197   3.591   6.530   7.279  0.7899  0.8978 -0.2854
  654MOL0     C88198   3.610   6.589   7.138 -0.2456 -0.0016 -0.6256
  654MOL0     C88199   3.517   6.523   7.036 -0.3825 -0.5617 -0.0193
  654MOL0    Cl88200   3.545   6.582   6.860  0.1304  0.1028 -0.0191
  654MOL0     C88201   3.642   5.931   7.724  0.5143 -0.0120  0.9745
  654MOL0     C88202   3.626   5.793   7.715  1.2954 -0.0944 -0.1688
  654MOL0     O88203   3.602   5.523   7.893 -1.0429  0.5050 -0.4418
  654MOL0     C88204   3.756   5.311   7.651  0.4664 -0.3293  0.3024
  654MOL0     C88205   3.759   5.175   7.615 -0.3238  0.0081 -0.3768
  654MOL0     N88206   3.476   4.925   7.320 -0.1329 -0.2499  0.4426
  654MOL0     N88207   3.442   4.968   7.201  0.0637 -0.5084 -0.2179
  654MOL0     C88208   2.703   4.976   6.267  0.3460 -0.1849 -0.5537
  654MOL0     C88209   2.595   4.951   6.170  0.0227 -0.1630  0.1232
  654MOL0     C88210   2.315   4.735   5.877  0.2673  0.3112 -0.0430
  654MOL0     C88211   2.188   4.704   5.940 -0.2981 -0.6308  0.1027
  654MOL0     C88212   2.074   4.650   5.865  0.5482 -0.3450 -0.7993
  654MOL0     C88213   2.094   4.601   5.738 -0.0593 -0.0565 -0.1300
  654MOL0     O88214   1.989   4.543   5.673 -0.3263 -0.0181  0.2160
  654MOL0     C88215   1.992   4.398   5.658  0.3849  0.3104 -0.6510
  654MOL0     C88216   1.923   4.361   5.528 -0.0508 -0.3744  0.4253
  654MOL0     C88217   1.776   4.401   5.516  0.1569 -0.4661  0.2360
  654MOL0     C88218   1.745   4.480   5.386  0.4919 -0.3910  0.5935
  654MOL0     C88219   1.799   4.616   5.387 -0.3201 -0.0241 -0.2476
  654MOL0     C88220   1.842   4.729   5.372 -0.5570 -0.0952  0.4098
  654MOL0     C88221   2.217   4.627   5.676 -0.6812 -0.3055  0.3527
  654MOL0     C88222   2.329   4.687   5.740 -0.1444 -0.9582 -0.4968
  654MOL0     H88223   2.494   4.649   6.299 -0.4310 -0.5280  0.4285
  654MOL0     H88224   2.658   4.692   6.449  1.0406 -2.2541 -0.8811
  654MOL0     H88225   2.901   5.055   6.573  0.7083 -0.2672 -2.2444
  654MOL0     H88226   2.764   5.110   6.487  0.0551 -0.6301 -0.2280
  654MOL0     H88227   2.715   5.123   6.712 -2.8317  2.1417 -2.8957
  654MOL0     H88228   2.606   5.022   6.634  0.1299  1.8310 -1.0441
  654MOL0     H88229   2.666   4.904   6.850  2.5661 -1.9127  2.5598
  654MOL0     H88230   2.760   4.818   6.714  1.1790  0.7151 -0.8246
  654MOL0     H88231   2.945   4.978   6.764  0.5203  3.4429  1.5623
  654MOL0     H88232   2.864   5.018   6.908 -0.0197  0.8324 -0.8499
  654MOL0     H88233   2.902   4.793   6.998 -2.2026  0.7106 -1.0438
  654MOL0     H88234   2.917   4.716   6.841 -1.3483 -0.4139  0.0077
  654MOL0     H88235   3.136   4.722   6.937  0.9490  0.1968 -1.1786
  654MOL0     H88236   3.131   4.845   6.811  4.0340 -0.1621  0.5155
  654MOL0     H88237   3.100   5.014   6.982  0.8987  0.7044  0.1522
  654MOL0     H88238   3.084   4.894   7.103  0.7424 -1.9525 -0.6357
  654MOL0     H88239   3.311   5.009   6.980  1.2473 -0.1164  0.2011
  654MOL0     H88240   3.320   4.842   6.939 -0.6802 -0.4721  0.1697
  654MOL0     H88241   3.275   4.688   7.198  0.1057 -1.1163  2.0517
  654MOL0     H88242   3.411   4.750   7.545 -3.2753  2.4825 -1.7254
  654MOL0     H88243   3.388   4.611   7.449 -0.2443  0.5602  0.0666
  654MOL0     H88244   3.660   4.716   7.394 -3.0232  4.3856 -0.6621
  654MOL0     H88245   3.607   4.560   7.469  0.8045 -0.1319  0.3971
  654MOL0     H88246   3.755   4.702   7.599  0.0190  1.8242  0.0069
  654MOL0     H88247   3.601   4.690   7.686 -3.6954  0.4797 -1.3189
  654MOL0     H88248   3.557   4.930   7.614  0.6417  0.9996 -1.5447
  654MOL0     H88249   3.682   4.922   7.497 -3.4430 -1.9395 -2.2169
  654MOL0     H88250   3.665   5.034   7.905 -0.6589  0.2676  1.1466
  654MOL0     H88251   3.633   5.185   8.071 -1.3173 -0.5221 -1.8944
  654MOL0     H88252   3.705   5.354   8.069  1.3360 -2.0105 -0.5697
  654MOL0     H88253   3.538   5.316   8.009 -0.5979  0.4734  2.8342
  654MOL0     H88254   3.931   5.693   7.814 -0.4320 -0.0435 -0.0302
  654MOL0     H88255   3.960   5.954   7.824  2.4357 -1.8631 -1.2984
  654MOL0     H88256   3.794   6.125   7.552  2.4233 -2.6560  2.2109
  654MOL0     H88257   3.625   6.168   7.608 -0.6645 -0.2128  4.3938
  654MOL0     H88258   3.699   6.376   7.706  0.7864 -1.6907  1.7608
  654MOL0     H88259   3.865   6.349   7.663  0.3792 -0.1055 -1.4326
  654MOL0     H88260   3.669   6.318   7.451  1.7357 -2.5653  2.9960
  654MOL0     H88261   3.834   6.380   7.455  0.0533  0.9255 -0.0532
  654MOL0     H88262   3.584   6.551   7.539  0.0418 -0.4007 -0.5828
  654MOL0     H88263   3.753   6.585   7.580  1.4954 -1.4951 -0.0454
  654MOL0     H88264   3.787   6.604   7.324  0.8957 -1.0861  0.6374
  654MOL0     H88265   3.654   6.704   7.377 -2.8845 -0.4364  1.2747
  654MOL0     H88266   3.613   6.424   7.267  2.6772  1.5532 -5.2557
  654MOL0     H88267   3.494   6.538   7.328  0.2314 -3.4869 -0.3008
  654MOL0     H88268   3.709   6.565   7.100  0.6632  1.5415  0.6493
  654MOL0     H88269   3.599   6.698   7.140 -1.3991 -0.1039  0.4298
  654MOL0     H88270   3.416   6.553   7.065 -0.0850 -1.1751  1.7632
  654MOL0     H88271   3.532   6.415   7.035 -3.8730 -1.2460  2.6285
  654MOL0     H88272   3.553   5.992   7.711  0.4585  0.0409  1.5652
  654MOL0     H88273   3.542   5.741   7.670  1.0484 -0.3751  0.6048
  654MOL0     H88274   3.743   5.386   7.574 -2.7511 -1.1944 -0.1116
  654MOL0     H88275   3.781   5.153   7.511 -2.7762 -2.2174 -0.5346
  654MOL0     H88276   2.757   5.070   6.264  1.0675 -0.6152 -1.6996
  654MOL0     H88277   2.584   5.023   6.090 -0.4744  0.3440  0.6284
  654MOL0     H88278   2.179   4.735   6.044 -2.5634  1.2165 -0.5587
  654MOL0     H88279   1.977   4.631   5.910  1.4359  0.7249  1.7939
  654MOL0     H88280   2.095   4.362   5.663  0.2195 -0.1439 -0.4604
  654MOL0     H88281   1.943   4.343   5.739 -0.7581  0.8262 -0.9694
  654MOL0     H88282   1.912   4.254   5.546  1.7901 -0.2938  2.4235
  654MOL0     H88283   1.979   4.399   5.441  0.4389 -0.7329  0.5814
  654MOL0     H88284   1.760   4.466   5.602 -0.4217  0.6467 -0.6743
  654MOL0     H88285   1.704   4.319   5.526  0.0631 -0.2246  1.8234
  654MOL0     H88286   1.639   4.488   5.360  0.3336  3.2278  1.7742
  654MOL0     H88287   1.799   4.445   5.298 -0.9409  3.8586 -2.3135
  654MOL0     H88288   1.882   4.825   5.345  0.2497 -1.3618 -3.4271
  654MOL0     H88289   2.235   4.608   5.571 -2.2927  0.0100 -0.0154
  654MOL0     H88290   2.430   4.703   5.704  0.7548  0.2460  2.2506
  655MOL0     O88291   4.817   1.206   6.017 -0.4089 -0.8264 -0.3845
  655MOL0     C88292   4.767   1.118   6.088  0.7058  0.3542 -0.9830
  655MOL0     O88293   4.784   1.112   6.223 -0.5310 -0.1721  0.6120
  655MOL0     C88294   4.812   1.228   6.297 -0.2438  0.4930  0.1885
  655MOL0     C88295   4.889   1.205   6.406 -0.1101 -0.4854  0.8310
  655MOL0     C88296   4.933   1.308   6.499  0.2948  1.1753 -0.0944
  655MOL0     C88297   4.917   1.443   6.452  0.1788  0.4898 -0.0772
  655MOL0     O88298   4.965   1.559   6.516  0.4144  1.0641  0.5237
  655MOL0     C88299   4.992   1.559   6.660  0.9746  0.1663  0.0743
  655MOL0     C88300   4.859   1.563   6.751 -0.0571  0.0026  0.0778
  655MOL0     C88301   4.777   1.684   6.699  0.4117 -1.0453 -0.5252
  655MOL0     C88302   4.662   1.711   6.801 -0.3923 -0.6575  0.0512
  655MOL0     C88303   4.580   1.832   6.764  1.1319  0.0459 -0.6849
  655MOL0     C88304   4.531   1.918   6.892  0.1294 -0.1583 -0.1262
  655MOL0     C88305   4.421   2.031   6.865  0.1898 -0.5208  0.2786
  655MOL0     C88306   4.382   2.076   7.000  0.0113 -0.0620  0.1487
  655MOL0     N88307   4.327   2.206   6.999  1.2303 -0.3801  0.1274
  655MOL0     C88308   4.193   2.241   6.993  0.2646  1.2110  0.9152
  655MOL0     C88309   4.181   2.364   7.040 -0.5525  0.9773  0.9953
  655MOL0     C88310   4.055   2.447   7.048 -0.0161  0.0983  0.3070
  655MOL0     C88311   3.972   2.443   7.190 -0.2099 -1.4507  1.2554
  655MOL0     C88312   4.076   2.443   7.294 -0.0191  0.6552 -0.9510
  655MOL0     C88313   4.019   2.445   7.436  0.0550 -2.0424  0.2468
  655MOL0     O88314   3.962   2.329   7.490  0.0306  0.4572  0.7593
  655MOL0     C88315   3.913   2.332   7.621  0.1857 -0.2186  0.2526
  655MOL0     C88316   3.931   2.439   7.715  0.2581 -0.1118  0.5540
  655MOL0     C88317   3.867   2.431   7.839 -0.5378  0.8010 -0.1445
  655MOL0     C88318   3.869   2.558   7.923  0.5177  0.4051 -0.1771
  655MOL0     C88319   3.818   2.303   7.885  0.1297 -1.4757  0.0999
  655MOL0     C88320   3.775   2.285   8.024  0.9624  0.2195 -0.4072
  655MOL0     O88321   3.882   2.302   8.115  0.2404  0.9290 -0.7794
  655MOL0     C88322   3.824   2.297   8.247  0.2269  0.9909  0.2082
  655MOL0     C88323   3.856   2.189   8.331  0.0899 -0.3483  0.1198
  655MOL0     C88324   3.802   2.176   8.455  0.2603 -0.3674 -1.0357
  655MOL0     C88325   3.694   2.261   8.484  0.6431 -0.0994  0.4477
  655MOL0     O88326   3.618   2.246   8.597 -0.0119  0.4777  0.0484
  655MOL0     C88327   3.534   2.125   8.594 -0.7229  0.0650  1.5842
  655MOL0     C88328   3.428   2.137   8.696 -0.6830 -0.0686  0.2478
  655MOL0     C88329   3.308   2.040   8.670  0.3709 -0.1442  1.0341
  655MOL0     C88330   3.180   2.102   8.733 -0.6996 -0.3443 -0.3259
  655MOL0     C88331   3.097   2.172   8.622 -0.3918 -1.1329 -0.0706
  655MOL0     C88332   3.006   2.075   8.540  0.6535 -0.0234  0.2429
  655MOL0     C88333   2.985   2.150   8.410  0.5058  0.2684 -0.3563
  655MOL0     C88334   2.856   2.093   8.344 -0.2936 -0.0596  0.4466
  655MOL0    Cl88335   2.712   2.152   8.430 -0.5936 -0.3476 -0.6836
  655MOL0     C88336   3.672   2.372   8.406  0.7164 -0.5141 -0.4289
  655MOL0     C88337   3.734   2.389   8.284 -0.4598  0.3160 -0.2453
  655MOL0     O88338   3.665   2.241   8.042  0.6813  0.3659 -0.4753
  655MOL0     C88339   3.830   2.196   7.802  0.1481 -0.1616  0.4528
  655MOL0     C88340   3.866   2.212   7.665 -0.6736 -0.0869  0.1435
  655MOL0     N88341   4.310   2.411   7.070 -0.7561  0.2654  0.2857
  655MOL0     N88342   4.401   2.312   7.049 -0.1136 -0.1649 -0.0265
  655MOL0     C88343   4.845   1.465   6.338 -0.0194 -0.1060 -0.0073
  655MOL0     C88344   4.775   1.355   6.270  0.7848  0.8813  0.3841
  655MOL0     C88345   4.652   1.033   6.035  1.0822 -0.0403  0.6623
  655MOL0     C88346   4.646   1.015   5.896  0.5073  0.7190 -0.5427
  655MOL0     C88347   4.540   0.935   5.846  0.4389  0.9138 -0.2340
  655MOL0     C88348   4.444   0.869   5.930 -0.5963 -0.1609 -0.4884
  655MOL0     O88349   4.329   0.811   5.882  0.1548 -0.5932  0.6256
  655MOL0     C88350   4.306   0.790   5.740  0.2163  0.2748 -0.4561
  655MOL0     C88351   4.159   0.742   5.718 -0.0414  0.4999  0.4246
  655MOL0     C88352   4.071   0.873   5.734  0.2111 -0.4211  0.6481
  655MOL0     C88353   4.068   0.975   5.617 -0.6801  0.1490 -0.0548
  655MOL0     C88354   3.961   1.076   5.631 -0.3681 -1.3371 -0.6639
  655MOL0     C88355   3.884   1.161   5.642  0.2917 -0.3237  1.0218
  655MOL0     C88356   4.455   0.897   6.065 -0.4043  0.6518  0.0640
  655MOL0     C88357   4.564   0.970   6.117 -0.4942  0.5296 -0.5746
  655MOL0     H88358   4.910   1.102   6.433  0.1930 -1.1212 -1.5726
  655MOL0     H88359   4.984   1.275   6.589  0.9585  1.2306 -0.4370
  655MOL0     H88360   5.053   1.472   6.684 -1.0622 -2.1466 -2.4354
  655MOL0     H88361   5.056   1.646   6.677  1.4497  0.1658 -1.5564
  655MOL0     H88362   4.796   1.476   6.732 -1.0045 -0.0265  2.9737
  655MOL0     H88363   4.882   1.576   6.857  2.3202  2.1840 -0.5849
  655MOL0     H88364   4.836   1.775   6.684 -0.4332 -0.5578 -0.9589
  655MOL0     H88365   4.732   1.652   6.605 -0.4594 -0.0761 -0.4561
  655MOL0     H88366   4.611   1.616   6.820  0.5969 -1.3826 -0.7288
  655MOL0     H88367   4.710   1.735   6.896  1.7858  1.3361 -1.4320
  655MOL0     H88368   4.642   1.905   6.711  1.1902  1.6100  1.4159
  655MOL0     H88369   4.491   1.798   6.710 -0.3682 -0.6150  2.0276
  655MOL0     H88370   4.493   1.859   6.976  0.9555 -0.8432 -0.2105
  655MOL0     H88371   4.618   1.977   6.924  2.5899 -3.2177 -0.6129
  655MOL0     H88372   4.455   2.108   6.794 -1.0641 -0.1477  0.0457
  655MOL0     H88373   4.335   1.993   6.809 -2.0373  3.0843  0.8914
  655MOL0     H88374   4.474   2.086   7.059 -0.4486  0.3117  0.8158
  655MOL0     H88375   4.312   2.008   7.049 -2.3888  1.3873 -1.0766
  655MOL0     H88376   4.110   2.182   6.956  1.8761  1.8915 -4.6607
  655MOL0     H88377   4.089   2.549   7.028  1.5945 -0.0590  1.9283
  655MOL0     H88378   3.978   2.420   6.975 -0.9359  1.0205  0.9082
  655MOL0     H88379   3.902   2.359   7.191 -0.9807 -0.8778 -0.3530
  655MOL0     H88380   3.911   2.534   7.197 -0.5101 -1.1931 -2.4680
  655MOL0     H88381   4.151   2.520   7.277  1.7753 -1.2098 -1.8999
  655MOL0     H88382   4.121   2.344   7.287  0.5238  0.9007 -0.9549
  655MOL0     H88383   3.937   2.518   7.441  1.0806 -0.9089  1.1753
  655MOL0     H88384   4.103   2.485   7.492  0.1032 -1.0670 -0.4869
  655MOL0     H88385   3.976   2.533   7.688 -2.1428  0.1256 -3.3047
  655MOL0     H88386   3.782   2.618   7.895  0.1722 -0.8293 -2.0013
  655MOL0     H88387   3.856   2.544   8.030 -0.6882  1.6246 -0.1381
  655MOL0     H88388   3.961   2.614   7.904 -0.0512  0.6285 -2.5812
  655MOL0     H88389   3.912   2.113   8.280 -0.4563 -0.5418 -0.1989
  655MOL0     H88390   3.822   2.097   8.527  1.0714  1.3491  0.7078
  655MOL0     H88391   3.472   2.139   8.506  2.2894 -0.0868 -0.7246
  655MOL0     H88392   3.586   2.031   8.576  2.9669  2.2137 -0.3041
  655MOL0     H88393   3.470   2.123   8.796 -0.1933  0.5828  0.1430
  655MOL0     H88394   3.393   2.240   8.687 -0.4331 -0.0207 -0.2167
  655MOL0     H88395   3.330   1.947   8.723 -0.5439  0.0696  1.8055
  655MOL0     H88396   3.298   2.019   8.563 -0.1439  0.1804  1.0167
  655MOL0     H88397   3.119   2.020   8.773  0.0060 -0.8320 -0.2206
  655MOL0     H88398   3.200   2.165   8.820  0.8133 -1.1505 -0.0609
  655MOL0     H88399   3.157   2.231   8.551 -2.2948 -2.7173 -3.2003
  655MOL0     H88400   3.034   2.253   8.659  0.4272  0.1105 -1.2974
  655MOL0     H88401   3.043   1.972   8.537 -0.8118 -0.7567  3.3336
  655MOL0     H88402   2.907   2.069   8.586  1.1232  1.1768  1.4819
  655MOL0     H88403   3.067   2.126   8.342  1.6695  2.2327  0.2630
  655MOL0     H88404   2.983   2.260   8.415 -2.0150  0.7473 -5.4061
  655MOL0     H88405   2.871   1.985   8.338 -2.3656 -0.2911 -2.3473
  655MOL0     H88406   2.853   2.123   8.239  4.3648 -0.5935 -0.0452
  655MOL0     H88407   3.586   2.436   8.421 -0.6893 -1.9381 -1.9566
  655MOL0     H88408   3.717   2.468   8.211  2.0815  1.6090  0.4616
  655MOL0     H88409   3.781   2.103   7.827  1.0390 -0.9320 -0.5718
  655MOL0     H88410   3.846   2.141   7.585  1.3532 -0.4526 -0.0968
  655MOL0     H88411   4.832   1.567   6.305 -5.5321 -0.8426 -1.1105
  655MOL0     H88412   4.732   1.386   6.176  2.1024  2.5998  0.2853
  655MOL0     H88413   4.714   1.079   5.840  0.5844 -0.6632 -2.1004
  655MOL0     H88414   4.543   0.931   5.737  0.7685 -0.9928 -0.1913
  655MOL0     H88415   4.325   0.884   5.687  2.7955 -1.3844 -2.6818
  655MOL0     H88416   4.375   0.709   5.717 -0.1042  0.0585 -0.6587
  655MOL0     H88417   4.129   0.663   5.788  0.7893  0.3378  0.6133
  655MOL0     H88418   4.136   0.688   5.625 -0.3133  0.7434  0.3506
  655MOL0     H88419   4.105   0.932   5.820 -2.9255  1.0063  1.0431
  655MOL0     H88420   3.964   0.849   5.738 -0.3631  1.6288 -0.8062
  655MOL0     H88421   4.043   0.924   5.523 -2.9051 -0.1673  0.6497
  655MOL0     H88422   4.167   1.021   5.612  0.7322 -2.4358  1.5756
  655MOL0     H88423   3.808   1.237   5.652  0.1713 -0.4766  1.2789
  655MOL0     H88424   4.384   0.840   6.123 -1.3457  0.7659 -0.9524
  655MOL0     H88425   4.561   0.986   6.225 -0.3716  0.0131 -0.4904
  656MOL0     O88426   5.997   2.814  11.369 -0.4808 -0.4236 -0.1528
  656MOL0     C88427   6.015   2.881  11.269  0.0753 -0.4493  0.0593
  656MOL0     O88428   5.949   3.002  11.238  0.5592 -0.1382 -0.2049
  656MOL0     C88429   5.863   3.054  11.327 -0.5313  0.3974 -0.9754
  656MOL0     C88430   5.906   3.115  11.448 -0.0867 -0.8285  0.0934
  656MOL0     C88431   5.821   3.141  11.553 -1.1874 -1.0514 -0.1338
  656MOL0     C88432   5.689   3.113  11.537  0.2097 -0.1838  0.0494
  656MOL0     O88433   5.619   3.136  11.651 -0.7292 -0.3739  1.2253
  656MOL0     C88434   5.503   3.058  11.666 -0.6618 -0.1295 -0.3410
  656MOL0     C88435   5.381   3.128  11.630  0.4176 -0.7670 -0.2436
  656MOL0     C88436   5.264   3.106  11.727 -0.2212 -0.1574 -0.7798
  656MOL0     C88437   5.141   3.193  11.687  0.3502 -0.7250  0.0867
  656MOL0     C88438   5.037   3.205  11.805  0.5889 -0.1321 -0.6976
  656MOL0     C88439   5.062   3.329  11.901 -0.2544 -0.4958 -0.4733
  656MOL0     C88440   5.140   3.281  12.021  0.1095  0.1406 -0.0940
  656MOL0     C88441   5.258   3.363  12.059 -0.9053  0.2618 -0.1267
  656MOL0     N88442   5.370   3.349  11.960 -0.1233 -0.7563  0.6439
  656MOL0     C88443   5.396   3.425  11.851  0.2211 -0.5239  0.0819
  656MOL0     C88444   5.526   3.404  11.829  0.0863  0.5804 -0.6140
  656MOL0     C88445   5.606   3.485  11.725  0.6490 -0.3085 -0.0759
  656MOL0     C88446   5.562   3.456  11.578  0.0690  0.7656 -0.4282
  656MOL0     C88447   5.678   3.506  11.484  0.6928 -0.1975  0.6762
  656MOL0     C88448   5.639   3.521  11.337 -0.0961 -0.1782  0.1940
  656MOL0     O88449   5.567   3.407  11.290  0.1281 -0.5840  0.5033
  656MOL0     C88450   5.534   3.419  11.157 -0.3180  0.1018  0.1478
  656MOL0     C88451   5.574   3.514  11.060  1.0042 -0.4312 -0.0229
  656MOL0     C88452   5.539   3.490  10.921 -0.3017 -0.3563 -0.1827
  656MOL0     C88453   5.590   3.580  10.821  0.4905 -0.1797  0.4220
  656MOL0     C88454   5.463   3.381  10.878 -0.5952 -0.0304  0.5105
  656MOL0     C88455   5.403   3.340  10.749 -0.0685 -0.7216  0.9533
  656MOL0     O88456   5.370   3.210  10.718 -0.5541  0.0241 -0.0158
  656MOL0     C88457   5.329   3.169  10.593  0.4010 -0.1238  0.4585
  656MOL0     C88458   5.192   3.160  10.558 -0.2046 -0.5589  0.6661
  656MOL0     C88459   5.156   3.133  10.421 -0.0916  0.3847  0.2864
  656MOL0     C88460   5.254   3.108  10.328 -0.0987  0.4513  0.5243
  656MOL0     O88461   5.229   3.064  10.199 -0.1861  0.3195  0.1873
  656MOL0     C88462   5.130   2.957  10.176  0.3775  1.0753 -0.5813
  656MOL0     C88463   5.152   2.908  10.034  0.1409 -0.7640  0.8791
  656MOL0     C88464   5.289   2.855  10.003 -0.0517 -0.1965  0.3980
  656MOL0     C88465   5.310   2.807   9.858 -1.0372 -0.2964 -0.7123
  656MOL0     C88466   5.451   2.751   9.850 -0.1734 -0.1058  0.9386
  656MOL0     C88467   5.498   2.692   9.714  1.0779 -0.1308 -0.4739
  656MOL0     C88468   5.647   2.683   9.700 -0.1349  0.1065  1.0245
  656MOL0     C88469   5.692   2.670   9.552  0.0121  0.3639 -0.0125
  656MOL0    Cl88470   5.870   2.701   9.533  0.4078  0.0347  0.1753
  656MOL0     C88471   5.386   3.112  10.360  0.3636 -0.1661 -0.0094
  656MOL0     C88472   5.424   3.142  10.497  0.5043 -0.2141  0.6180
  656MOL0     O88473   5.382   3.434  10.675 -0.2167 -0.2009  0.3979
  656MOL0     C88474   5.421   3.290  10.975 -0.0146 -0.6021  0.7639
  656MOL0     C88475   5.464   3.307  11.107  0.5090 -0.8103 -0.6046
  656MOL0     N88476   5.570   3.299  11.919  0.3396  0.5861 -0.2508
  656MOL0     N88477   5.474   3.274  12.001  0.3292 -0.3872 -0.6454
  656MOL0     C88478   5.639   3.070  11.405 -0.3399  0.9754 -0.6215
  656MOL0     C88479   5.729   3.036  11.312  0.3533 -0.3083 -0.0182
  656MOL0     C88480   6.126   2.843  11.190 -0.3273  0.5470 -0.8355
  656MOL0     C88481   6.156   2.888  11.061  0.1356  0.4100 -1.3056
  656MOL0     C88482   6.272   2.858  10.998 -0.4003  0.1398 -0.0878
  656MOL0     C88483   6.365   2.769  11.046 -1.1888 -0.3351  0.7093
  656MOL0     O88484   6.488   2.759  10.976 -0.2173  0.5548 -0.5036
  656MOL0     C88485   6.602   2.723  11.056 -1.0423  0.2688  0.1394
  656MOL0     C88486   6.736   2.748  10.989 -0.1892 -1.0788  1.1816
  656MOL0     C88487   6.782   2.632  10.900  0.7166  0.3655  0.4800
  656MOL0     C88488   6.931   2.655  10.862 -0.9151 -0.5107  0.4287
  656MOL0     C88489   6.957   2.781  10.789 -0.3133  0.3066  0.4646
  656MOL0     C88490   6.974   2.883  10.731 -1.0789 -0.2175 -0.3539
  656MOL0     C88491   6.325   2.706  11.168 -0.3417 -0.5567  0.0887
  656MOL0     C88492   6.216   2.750  11.255 -1.4758  0.4824  0.0841
  656MOL0     H88493   6.012   3.134  11.463  0.1666  1.2519 -3.2549
  656MOL0     H88494   5.864   3.167  11.649 -0.3767  0.1376 -0.7918
  656MOL0     H88495   5.509   2.962  11.613  1.8443  0.1672 -0.7400
  656MOL0     H88496   5.496   3.037  11.773 -0.7658  1.6078  0.0236
  656MOL0     H88497   5.385   3.237  11.637  0.0104 -0.8622  2.8923
  656MOL0     H88498   5.355   3.105  11.526  2.9717 -3.6720 -0.3889
  656MOL0     H88499   5.237   3.001  11.732 -2.3755  0.3777 -0.0300
  656MOL0     H88500   5.285   3.141  11.828 -2.4922 -1.1293  0.0991
  656MOL0     H88501   5.164   3.294  11.654  3.6826 -0.8565  1.6111
  656MOL0     H88502   5.090   3.131  11.612 -3.2162 -0.8383  2.3630
  656MOL0     H88503   4.938   3.225  11.763  0.6570 -2.0201 -1.8836
  656MOL0     H88504   5.039   3.111  11.862  1.9332  0.3964  0.1829
  656MOL0     H88505   5.119   3.414  11.864  1.8150 -1.2782  0.7297
  656MOL0     H88506   4.978   3.385  11.941 -0.0239  0.6714 -1.5747
  656MOL0     H88507   5.075   3.288  12.109  1.3305  2.3112  0.6901
  656MOL0     H88508   5.169   3.176  12.012 -0.9945 -0.0753 -1.6746
  656MOL0     H88509   5.290   3.343  12.162 -1.7745  1.9130  0.4982
  656MOL0     H88510   5.223   3.466  12.074 -0.4696  0.3768  0.1148
  656MOL0     H88511   5.329   3.486  11.790 -0.1879 -2.3926 -1.4384
  656MOL0     H88512   5.615   3.592  11.746  0.8709  0.0348 -1.7278
  656MOL0     H88513   5.706   3.449  11.750 -1.0345 -2.5803  4.5981
  656MOL0     H88514   5.471   3.515  11.566  0.3887  1.7036  1.3703
  656MOL0     H88515   5.547   3.348  11.569  1.8484  0.2216  2.0921
  656MOL0     H88516   5.754   3.428  11.487  2.9567  1.8638  0.5391
  656MOL0     H88517   5.718   3.600  11.524 -1.1014  1.8248 -1.9704
  656MOL0     H88518   5.731   3.543  11.283 -0.4167 -1.8445 -1.1383
  656MOL0     H88519   5.569   3.605  11.328 -2.9698 -2.3855  0.4439
  656MOL0     H88520   5.646   3.593  11.081  4.0699 -2.5609 -1.7709
  656MOL0     H88521   5.541   3.579  10.724  0.0666  0.1601  0.6311
  656MOL0     H88522   5.590   3.679  10.868 -0.5172 -0.5164  1.1711
  656MOL0     H88523   5.693   3.552  10.799  1.4051  2.8011  0.4877
  656MOL0     H88524   5.123   3.196  10.635  4.0636  0.1861  4.5937
  656MOL0     H88525   5.055   3.133  10.382  2.0912  2.4339 -7.0506
  656MOL0     H88526   5.142   2.883  10.255  1.5439 -0.1038 -1.8051
  656MOL0     H88527   5.027   2.995  10.181 -0.9912 -2.3901  0.3463
  656MOL0     H88528   5.079   2.830  10.009 -2.5571  2.4263 -2.2028
  656MOL0     H88529   5.127   2.992   9.970 -0.2424 -2.6451 -1.6080
  656MOL0     H88530   5.289   2.767  10.067 -0.1784  0.0904  0.8005
  656MOL0     H88531   5.366   2.913  10.054  0.0909  0.0294 -0.0726
  656MOL0     H88532   5.233   2.731   9.842 -3.1157  1.2014  1.4744
  656MOL0     H88533   5.298   2.891   9.789 -0.9969 -0.1454 -0.5326
  656MOL0     H88534   5.453   2.664   9.916  0.8069  1.0538  2.4855
  656MOL0     H88535   5.530   2.821   9.877  0.8203  0.2549 -2.4062
  656MOL0     H88536   5.445   2.596   9.708 -1.4290  1.0465  0.9808
  656MOL0     H88537   5.458   2.757   9.635 -2.1493  1.0101  1.8772
  656MOL0     H88538   5.689   2.590   9.740  2.7272  0.1036 -1.5238
  656MOL0     H88539   5.695   2.767   9.750 -0.2317  0.7640  0.0412
  656MOL0     H88540   5.633   2.741   9.492 -0.8077 -0.7542 -0.5695
  656MOL0     H88541   5.663   2.572   9.513 -0.3414 -0.6091  2.5122
  656MOL0     H88542   5.461   3.090  10.284 -1.6957 -0.1484 -2.1810
  656MOL0     H88543   5.529   3.157  10.519  1.2420  0.4090 -2.7527
  656MOL0     H88544   5.349   3.210  10.957 -1.8678  1.2360 -0.4515
  656MOL0     H88545   5.443   3.223  11.173  2.5002 -0.1229  1.0102
  656MOL0     H88546   5.535   3.052  11.380  0.0418 -1.6993 -0.5217
  656MOL0     H88547   5.690   2.988  11.223 -0.9214  0.2015  0.2486
  656MOL0     H88548   6.084   2.954  11.014  1.9730  0.9445 -3.5172
  656MOL0     H88549   6.285   2.900  10.899 -1.9121 -0.9986 -0.7929
  656MOL0     H88550   6.603   2.780  11.149  3.3440 -1.7135  1.5876
  656MOL0     H88551   6.601   2.615  11.071  2.2736 -0.0244 -0.8980
  656MOL0     H88552   6.816   2.776  11.058  1.7961  0.4556 -1.5087
  656MOL0     H88553   6.717   2.834  10.925 -0.9890 -1.2139  1.2257
  656MOL0     H88554   6.728   2.620  10.806  0.9977  2.1388  0.0545
  656MOL0     H88555   6.780   2.538  10.955 -0.3324  0.5014  0.6901
  656MOL0     H88556   6.983   2.569  10.818 -0.3739 -0.0222  0.0933
  656MOL0     H88557   6.969   2.656  10.965 -3.8958 -3.4406  1.7251
  656MOL0     H88558   7.001   2.978  10.691  5.1348 -0.9585  1.0778
  656MOL0     H88559   6.401   2.640  11.208  2.2360  0.2784 -3.0450
  656MOL0     H88560   6.211   2.713  11.357  3.8475  1.9737  1.1772
  657MOL0     O88561   2.005   1.111   5.811 -0.2591  0.3123  0.0914
  657MOL0     C88562   1.952   1.010   5.764 -0.5893 -0.2313  0.5581
  657MOL0     O88563   1.876   0.917   5.830 -0.1550 -0.4390 -0.9051
  657MOL0     C88564   1.817   0.949   5.950  0.2777 -0.0912  0.1213
  657MOL0     C88565   1.769   1.078   5.992  0.4435 -0.0288  0.0034
  657MOL0     C88566   1.711   1.092   6.113 -0.8815 -0.2290 -1.1131
  657MOL0     C88567   1.675   0.981   6.192 -0.8698  0.0184  0.4416
  657MOL0     O88568   1.597   1.012   6.295  0.8448  0.6661  0.7268
  657MOL0     C88569   1.565   0.902   6.377 -0.3735  0.1068  0.4718
  657MOL0     C88570   1.464   0.966   6.484  0.2155 -0.0101  0.5242
  657MOL0     C88571   1.324   1.011   6.420 -0.7626  1.1564 -0.1493
  657MOL0     C88572   1.240   1.059   6.546  0.6526  1.1806  0.2652
  657MOL0     C88573   1.109   1.110   6.496 -0.3412  0.3477 -0.0428
  657MOL0     C88574   1.036   1.147   6.620  0.6027  0.5861 -0.6239
  657MOL0     C88575   0.901   1.222   6.585  0.7060  0.3640 -0.6793
  657MOL0     C88576   0.868   1.367   6.652 -0.8611  0.6031  0.0243
  657MOL0     N88577   0.973   1.463   6.614  0.7594  0.3669 -0.5728
  657MOL0     C88578   1.044   1.528   6.714 -0.0105  0.9731 -0.2465
  657MOL0     C88579   1.117   1.622   6.650  0.1154  0.5183 -0.3080
  657MOL0     C88580   1.214   1.718   6.711  0.2323 -0.6956  0.4380
  657MOL0     C88581   1.139   1.832   6.791  0.2949  0.9864  0.4259
  657MOL0     C88582   1.242   1.940   6.809  0.9249 -0.8638  0.7487
  657MOL0     C88583   1.190   2.025   6.929 -0.7082 -0.3069  0.3029
  657MOL0     O88584   1.196   1.966   7.061  0.5152 -0.4941  0.7520
  657MOL0     C88585   1.307   1.921   7.123  0.8232 -0.4172  0.3485
  657MOL0     C88586   1.431   1.973   7.082  0.3481 -0.2797  0.5338
  657MOL0     C88587   1.549   1.916   7.129  0.2820 -0.8983  0.6221
  657MOL0     C88588   1.673   1.967   7.070 -0.1543  0.5009 -0.2278
  657MOL0     C88589   1.540   1.807   7.220 -0.5237 -0.3381 -0.5955
  657MOL0     C88590   1.659   1.751   7.289 -0.6067 -0.5856  0.5091
  657MOL0     O88591   1.642   1.700   7.419  0.6591 -0.1941 -0.5942
  657MOL0     C88592   1.735   1.623   7.484  0.0530  0.0822  0.0935
  657MOL0     C88593   1.673   1.528   7.557 -0.1940 -0.1178  1.0760
  657MOL0     C88594   1.753   1.441   7.634  0.2556  0.1101  0.3309
  657MOL0     C88595   1.894   1.447   7.640 -0.3365  0.1749  0.4569
  657MOL0     O88596   1.970   1.350   7.707 -0.1082  0.3189  0.3741
  657MOL0     C88597   2.047   1.398   7.810  0.2813  0.1646  0.6935
  657MOL0     C88598   2.089   1.272   7.869  0.4705 -0.0652 -0.0639
  657MOL0     C88599   2.196   1.289   7.976  0.1305 -0.3381  0.6803
  657MOL0     C88600   2.198   1.174   8.080 -0.5651 -0.5284  0.0716
  657MOL0     C88601   2.330   1.158   8.156  0.2772 -0.4251 -0.1105
  657MOL0     C88602   2.318   1.038   8.251 -0.0499 -0.0326  0.5059
  657MOL0     C88603   2.449   1.015   8.325  0.7107  0.5922 -0.1224
  657MOL0     C88604   2.409   0.896   8.413  0.5142 -0.8405 -0.1591
  657MOL0    Cl88605   2.558   0.817   8.491  0.0204 -0.4117  0.2899
  657MOL0     C88606   1.952   1.553   7.569 -0.0352 -0.1565 -0.2798
  657MOL0     C88607   1.872   1.634   7.487 -0.1352 -0.0428 -0.3445
  657MOL0     O88608   1.769   1.745   7.224  0.1004  0.1810 -0.2760
  657MOL0     C88609   1.413   1.773   7.274 -0.6165 -0.0648  1.5655
  657MOL0     C88610   1.297   1.831   7.217  0.1179 -0.3121  0.3651
  657MOL0     N88611   1.095   1.606   6.511 -0.8015 -0.0893  0.2932
  657MOL0     N88612   1.008   1.508   6.488 -0.5408  0.2162 -0.1989
  657MOL0     C88613   1.709   0.849   6.143 -0.3019  0.7469 -0.3119
  657MOL0     C88614   1.791   0.835   6.031  0.0521 -0.7480  0.1177
  657MOL0     C88615   1.986   0.978   5.621 -1.3551  0.4262 -0.7470
  657MOL0     C88616   2.059   1.073   5.545 -1.0073 -0.5962  0.3585
  657MOL0     C88617   2.086   1.044   5.412  0.1424  0.3314 -0.2171
  657MOL0     C88618   2.056   0.912   5.356 -0.9343 -0.5908  1.0391
  657MOL0     O88619   2.093   0.897   5.221  0.3266 -0.1403  0.0029
  657MOL0     C88620   2.017   0.807   5.141 -0.0486  0.0665 -0.2727
  657MOL0     C88621   2.041   0.840   4.991 -0.1378  0.1319  0.3863
  657MOL0     C88622   2.007   0.983   4.954  0.1195  0.2195 -0.0325
  657MOL0     C88623   2.142   1.060   4.921 -0.3249 -0.4131 -0.5761
  657MOL0     C88624   2.212   1.018   4.797 -0.2273  0.6700  0.1827
  657MOL0     C88625   2.255   0.992   4.688  0.4201  0.1867 -0.1513
  657MOL0     C88626   1.983   0.817   5.434  1.2457  0.4787  0.5778
  657MOL0     C88627   1.951   0.846   5.571 -0.0162 -0.6305 -0.7616
  657MOL0     H88628   1.774   1.165   5.928  2.2133  0.9019  1.3165
  657MOL0     H88629   1.703   1.194   6.149 -3.3714 -1.2831  1.8605
  657MOL0     H88630   1.512   0.825   6.320 -0.5692  2.9454 -3.5925
  657MOL0     H88631   1.643   0.854   6.437 -2.0354 -0.3828  2.3167
  657MOL0     H88632   1.444   0.896   6.565 -3.3400 -2.3301 -2.0756
  657MOL0     H88633   1.508   1.059   6.520 -1.5602  0.8293  0.6019
  657MOL0     H88634   1.343   1.081   6.339 -1.5872 -0.2789 -1.6454
  657MOL0     H88635   1.277   0.917   6.388 -2.1530  3.0613 -4.3154
  657MOL0     H88636   1.225   0.979   6.620 -2.8387  1.7680  0.3223
  657MOL0     H88637   1.291   1.144   6.593  2.0903  1.8700 -2.3751
  657MOL0     H88638   1.128   1.190   6.424 -0.0865  0.5342  0.2307
  657MOL0     H88639   1.055   1.029   6.445  1.0276  0.8665 -2.4860
  657MOL0     H88640   1.008   1.062   6.683  1.2251  1.8422  1.4201
  657MOL0     H88641   1.101   1.203   6.687  1.6083 -2.5690  1.2697
  657MOL0     H88642   0.915   1.231   6.476  2.1416 -2.9985 -0.9086
  657MOL0     H88643   0.828   1.144   6.606  1.3387 -0.3573 -1.0774
  657MOL0     H88644   0.877   1.354   6.760  1.6006  1.6854 -0.0063
  657MOL0     H88645   0.778   1.415   6.611  0.1433  0.9275 -1.9558
  657MOL0     H88646   1.044   1.506   6.820  2.3086 -0.0602 -0.4208
  657MOL0     H88647   1.282   1.665   6.778  1.0065 -1.6852 -1.0773
  657MOL0     H88648   1.265   1.772   6.631 -1.7088 -0.3009 -0.5937
  657MOL0     H88649   1.113   1.803   6.894 -3.3319 -0.3945 -0.7011
  657MOL0     H88650   1.043   1.859   6.746 -2.3001 -0.9653  4.1982
  657MOL0     H88651   1.253   1.993   6.715 -1.5573 -1.5844 -0.0312
  657MOL0     H88652   1.337   1.903   6.848  0.6613  1.2363  3.7052
  657MOL0     H88653   1.082   2.043   6.918 -1.0772 -1.2379  1.9822
  657MOL0     H88654   1.241   2.121   6.932 -0.7221 -0.1853 -1.9364
  657MOL0     H88655   1.449   2.047   7.005  2.7481 -2.0173 -0.6993
  657MOL0     H88656   1.656   2.040   6.991 -0.0520 -0.8286 -1.5340
  657MOL0     H88657   1.748   1.996   7.144 -0.8879 -0.6321  1.0142
  657MOL0     H88658   1.719   1.878   7.024 -2.5071 -0.4250 -0.9346
  657MOL0     H88659   1.565   1.520   7.564 -0.6019  3.8319  1.2786
  657MOL0     H88660   1.707   1.359   7.689 -1.9008  0.7514 -0.4210
  657MOL0     H88661   2.123   1.468   7.776 -0.2935  0.8846  0.8554
  657MOL0     H88662   1.982   1.444   7.886 -1.2327 -2.3015  1.0027
  657MOL0     H88663   1.997   1.228   7.909 -1.0406 -0.0842 -3.2441
  657MOL0     H88664   2.126   1.201   7.795  1.2636  0.8750 -0.5891
  657MOL0     H88665   2.167   1.377   8.035 -2.1650 -1.1242  0.8447
  657MOL0     H88666   2.290   1.315   7.926  0.9829 -1.5120  1.6402
  657MOL0     H88667   2.126   1.189   8.161  1.4840 -0.9700  2.0912
  657MOL0     H88668   2.184   1.082   8.022  0.9851  0.2973 -1.7414
  657MOL0     H88669   2.351   1.248   8.213  1.5886  1.6438 -3.5458
  657MOL0     H88670   2.402   1.149   8.074  0.0828 -6.7583 -0.0696
  657MOL0     H88671   2.232   1.047   8.318 -1.5902  0.4206 -1.4407
  657MOL0     H88672   2.299   0.952   8.187  0.7763 -0.2007  0.4756
  657MOL0     H88673   2.475   1.095   8.396 -1.8458 -2.6695  5.1287
  657MOL0     H88674   2.538   0.978   8.273  1.2032 -1.7104  2.1606
  657MOL0     H88675   2.341   0.831   8.357 -1.1651  0.0928  0.7341
  657MOL0     H88676   2.349   0.933   8.496  2.0871  1.8578 -0.1042
  657MOL0     H88677   2.053   1.591   7.572 -0.7034  1.9448 -2.2204
  657MOL0     H88678   1.920   1.712   7.428 -1.1880  1.8110  1.1499
  657MOL0     H88679   1.407   1.694   7.348 -2.5214 -0.3501  1.1710
  657MOL0     H88680   1.199   1.821   7.263  0.4019  0.2104  1.0940
  657MOL0     H88681   1.676   0.762   6.198  2.3581 -0.0789  0.1663
  657MOL0     H88682   1.832   0.739   6.000 -0.0487 -0.1832 -1.8521
  657MOL0     H88683   2.092   1.159   5.603  0.9458  0.6717 -2.4186
  657MOL0     H88684   2.158   1.111   5.366  1.2769  0.9736  2.3163
  657MOL0     H88685   2.051   0.708   5.170  3.2222  0.6980 -1.4667
  657MOL0     H88686   1.911   0.809   5.165 -0.2559 -0.9953 -1.0163
  657MOL0     H88687   1.984   0.766   4.933  1.0557  1.9399 -3.3795
  657MOL0     H88688   2.141   0.811   4.956 -1.9941 -1.6314 -4.3587
  657MOL0     H88689   1.950   1.032   5.033  2.2508  0.2322  1.5731
  657MOL0     H88690   1.934   0.990   4.873 -2.1105 -0.9320  1.7649
  657MOL0     H88691   2.209   1.050   5.006 -0.9934 -1.7973 -0.1704
  657MOL0     H88692   2.112   1.165   4.917 -2.8898 -1.0624 -0.3566
  657MOL0     H88693   2.307   0.976   4.596  0.3112  1.0132 -0.3712
  657MOL0     H88694   1.954   0.719   5.399  1.6499 -0.1109  1.8568
  657MOL0     H88695   1.904   0.773   5.635 -0.5029  0.9391  0.7670
  658MOL0     O88696   8.793   9.614   4.574 -0.0745  0.2367  0.5236
  658MOL0     C88697   8.794   9.573   4.692  0.3602 -1.3560 -0.2259
  658MOL0     O88698   8.898   9.514   4.755  0.2494 -0.5549  0.6655
  658MOL0     C88699   9.010   9.464   4.686  0.4351  0.5869  0.3241
  658MOL0     C88700   9.079   9.348   4.720  1.4463  0.5460 -0.1931
  658MOL0     C88701   9.193   9.309   4.646  0.2884 -0.8428 -0.2045
  658MOL0     C88702   9.244   9.381   4.536 -0.4880 -0.1556 -0.0667
  658MOL0     O88703   9.353   9.360   4.459  0.5622 -0.1949 -0.3189
  658MOL0     C88704   9.438   9.238   4.478 -0.0516 -0.9419  0.1798
  658MOL0     C88705   9.561   9.242   4.387 -0.0506  0.0692  0.3514
  658MOL0     C88706   9.666   9.123   4.392  0.3988  0.5496 -0.1748
  658MOL0     C88707   9.610   8.990   4.352 -0.7552 -0.0810 -1.0030
  658MOL0     C88708   9.701   8.863   4.331  0.4599 -0.6323 -0.9662
  658MOL0     C88709   9.742   8.800   4.459  0.7272  0.1165  0.7315
  658MOL0     C88710   9.813   8.656   4.432 -0.3657  0.2214 -0.5721
  658MOL0     C88711   9.870   8.576   4.550  0.2800 -0.0838  0.5221
  658MOL0     N88712   9.913   8.433   4.512 -0.4922  0.1659 -0.9901
  658MOL0     C88713  10.034   8.384   4.471 -0.5434 -0.1654  0.5734
  658MOL0     C88714  10.027   8.250   4.483 -1.8089  0.1130  0.4754
  658MOL0     C88715  10.144   8.166   4.448 -0.9423 -0.1288 -0.4518
  658MOL0     C88716  10.188   8.116   4.582 -0.1052 -0.0809 -0.7213
  658MOL0     C88717  10.268   7.983   4.567  0.8417  0.7358  0.2028
  658MOL0     C88718  10.421   8.015   4.552 -0.2229 -0.2618 -0.1218
  658MOL0     O88719  10.508   7.907   4.571  0.6993 -0.5678 -0.1361
  658MOL0     C88720  10.543   7.874   4.701  0.4608 -0.2514  0.0937
  658MOL0     C88721  10.470   7.895   4.814 -0.1223  0.3172  1.1554
  658MOL0     C88722  10.498   7.839   4.931  0.4172 -0.4168  0.4556
  658MOL0     C88723  10.379   7.840   5.031 -0.0793  0.1253 -0.7559
  658MOL0     C88724  10.617   7.766   4.952 -1.0027 -0.5109  0.0591
  658MOL0     C88725  10.636   7.699   5.081 -0.6912 -0.2110  0.2847
  658MOL0     O88726  10.661   7.796   5.178 -0.0218  0.1041  0.5071
  658MOL0     C88727  10.642   7.774   5.308 -0.0677 -0.4607  0.0710
  658MOL0     C88728  10.704   7.867   5.394 -0.2032 -0.0201 -1.2327
  658MOL0     C88729  10.688   7.857   5.537  1.0872  0.8453 -0.4533
  658MOL0     C88730  10.626   7.745   5.592  0.3812 -0.1389 -0.5397
  658MOL0     O88731  10.624   7.727   5.729 -0.4749 -0.0939 -0.3445
  658MOL0     C88732  10.754   7.711   5.796 -1.0673  0.1058 -0.7175
  658MOL0     C88733  10.722   7.640   5.931  0.7201  0.2969  0.1832
  658MOL0     C88734  10.672   7.497   5.894 -0.0196 -0.5979  0.6511
  658MOL0     C88735  10.625   7.428   6.025 -0.7556 -0.0303 -0.4158
  658MOL0     C88736  10.599   7.271   5.998  0.7472  0.2582 -0.9592
  658MOL0     C88737  10.730   7.192   5.986  0.2426 -0.0070  1.2642
  658MOL0     C88738  10.728   7.042   6.004  0.9422 -0.1002 -0.5911
  658MOL0     C88739  10.618   6.988   5.919 -0.5523  1.0650  0.0523
  658MOL0    Cl88740  10.630   6.820   5.954 -0.7251  0.2104 -0.5332
  658MOL0     C88741  10.557   7.658   5.502 -0.5984 -0.0387 -0.5798
  658MOL0     C88742  10.574   7.670   5.365  0.7113  0.7924 -0.3804
  658MOL0     O88743  10.656   7.575   5.087  0.5064  0.4276  0.4556
  658MOL0     C88744  10.703   7.749   4.837  0.6007  0.8009 -0.2879
  658MOL0     C88745  10.656   7.801   4.715 -0.6101  0.2853  0.2915
  658MOL0     N88746   9.905   8.227   4.541 -0.0144  1.0820  0.0803
  658MOL0     N88747   9.842   8.334   4.563  0.0741 -0.1301  0.5128
  658MOL0     C88748   9.170   9.500   4.498  0.4032  1.7689 -0.4116
  658MOL0     C88749   9.062   9.536   4.575 -1.0381 -0.0135 -0.3310
  658MOL0     C88750   8.672   9.607   4.773  0.2470  0.5970  0.2701
  658MOL0     C88751   8.635   9.527   4.882 -0.5036  0.1440 -0.6576
  658MOL0     C88752   8.515   9.538   4.945  1.2090 -0.3661  0.6100
  658MOL0     C88753   8.417   9.629   4.897 -0.1861  0.5021  0.4002
  658MOL0     O88754   8.284   9.623   4.937 -0.2759  0.2863 -0.1344
  658MOL0     C88755   8.249   9.705   5.043  0.3465  0.8571  0.2246
  658MOL0     C88756   8.282   9.633   5.180  0.3770 -0.1488 -0.4376
  658MOL0     C88757   8.179   9.679   5.286 -0.8346  0.0507  0.6512
  658MOL0     C88758   8.231   9.620   5.425 -0.3786  0.8712 -0.1808
  658MOL0     C88759   8.146   9.662   5.530 -0.4341 -0.4355  0.8786
  658MOL0     C88760   8.074   9.689   5.619  0.0249  0.6816 -1.6009
  658MOL0     C88761   8.447   9.708   4.782  0.5137  0.1488 -0.6974
  658MOL0     C88762   8.571   9.691   4.722  0.2032  0.8328 -0.1128
  658MOL0     H88763   9.052   9.289   4.806 -0.6936 -1.4633 -2.1172
  658MOL0     H88764   9.255   9.225   4.674  0.5286 -0.0588  1.7393
  658MOL0     H88765   9.475   9.238   4.581  0.6517  0.1058 -0.0582
  658MOL0     H88766   9.379   9.155   4.439  3.0615 -2.5602 -1.4627
  658MOL0     H88767   9.529   9.242   4.283 -0.5034  0.9204  0.4767
  658MOL0     H88768   9.619   9.331   4.414  0.2653  0.3970 -1.3424
  658MOL0     H88769   9.749   9.139   4.322  0.0085 -1.2026 -1.0964
  658MOL0     H88770   9.718   9.106   4.487  1.4734  0.0028 -0.8335
  658MOL0     H88771   9.519   8.968   4.410 -1.4133  1.4980 -1.3842
  658MOL0     H88772   9.555   9.014   4.260  0.8078  1.1279 -1.6639
  658MOL0     H88773   9.631   8.804   4.271 -1.6080  1.5468 -0.8174
  658MOL0     H88774   9.787   8.887   4.268  0.0088  1.1274 -0.9482
  658MOL0     H88775   9.819   8.866   4.499  1.9405  0.7107 -2.3324
  658MOL0     H88776   9.659   8.789   4.529  1.3503  0.3092  1.5141
  658MOL0     H88777   9.733   8.591   4.393 -0.6176 -0.0772  0.4210
  658MOL0     H88778   9.897   8.659   4.362 -0.3551  0.1314 -0.5628
  658MOL0     H88779   9.796   8.567   4.631 -2.2573  0.1748 -1.6376
  658MOL0     H88780   9.954   8.631   4.593 -0.3930  4.1509 -2.8949
  658MOL0     H88781  10.120   8.439   4.433 -0.7583 -1.1237 -1.4378
  658MOL0     H88782  10.096   8.080   4.400 -1.0213 -0.9406  1.0045
  658MOL0     H88783  10.223   8.219   4.395  0.1351  0.2456  1.4373
  658MOL0     H88784  10.105   8.088   4.648  0.7799  0.7557  0.8033
  658MOL0     H88785  10.243   8.185   4.647 -4.9670 -0.1720  4.2282
  658MOL0     H88786  10.224   7.930   4.482  0.9831  0.8576  0.0522
  658MOL0     H88787  10.247   7.913   4.648 -4.6280  2.6140  0.8740
  658MOL0     H88788  10.448   8.084   4.633 -0.3711  0.6293 -0.8050
  658MOL0     H88789  10.439   8.059   4.453 -1.2805 -2.0639 -1.1605
  658MOL0     H88790  10.381   7.957   4.812 -1.0731 -1.0068  0.2712
  658MOL0     H88791  10.283   7.852   4.979 -1.0640  2.2785  1.3473
  658MOL0     H88792  10.379   7.747   5.090  0.5312  0.7073  0.1863
  658MOL0     H88793  10.387   7.922   5.102 -1.7290  0.4883 -0.9490
  658MOL0     H88794  10.760   7.950   5.352 -2.4432  1.5328 -1.3241
  658MOL0     H88795  10.745   7.925   5.600  2.7713 -0.9925  0.0899
  658MOL0     H88796  10.823   7.648   5.739 -2.0786 -0.8954 -0.8553
  658MOL0     H88797  10.795   7.813   5.804 -0.9615  0.1442 -1.6087
  658MOL0     H88798  10.817   7.627   5.985  0.8078 -1.7816 -0.3935
  658MOL0     H88799  10.647   7.689   5.994  1.7926 -0.1313  1.8764
  658MOL0     H88800  10.759   7.449   5.847  0.1079  0.0345  0.2395
  658MOL0     H88801  10.581   7.513   5.836  0.3148  0.7935  0.4812
  658MOL0     H88802  10.704   7.448   6.098 -0.8946  3.2420 -1.0046
  658MOL0     H88803  10.534   7.484   6.051 -0.1300  1.4757 -1.3641
  658MOL0     H88804  10.540   7.266   5.906 -2.6509 -3.0346  1.0899
  658MOL0     H88805  10.543   7.231   6.083  0.8442 -0.0576 -1.0440
  658MOL0     H88806  10.784   7.208   5.892  0.8141  2.0500  1.8958
  658MOL0     H88807  10.792   7.227   6.069  2.5134 -1.0685  0.1125
  658MOL0     H88808  10.704   7.019   6.109  2.0178 -0.5704 -0.4412
  658MOL0     H88809  10.830   7.004   5.998  1.8128  1.7978  0.9433
  658MOL0     H88810  10.628   7.012   5.813  0.3915  1.1614  0.1535
  658MOL0     H88811  10.518   7.023   5.946 -0.8849  0.4510 -0.3625
  658MOL0     H88812  10.506   7.579   5.557 -1.1130  1.3863  1.1008
  658MOL0     H88813  10.522   7.595   5.307 -1.6241  0.1994  2.2404
  658MOL0     H88814  10.797   7.695   4.841 -0.1910 -0.7947 -1.5839
  658MOL0     H88815  10.705   7.768   4.623 -1.7525 -1.5992  0.3141
  658MOL0     H88816   9.188   9.556   4.407  2.7329  2.7722  0.5818
  658MOL0     H88817   9.026   9.634   4.546  2.5608  1.3226 -0.8359
  658MOL0     H88818   8.706   9.451   4.916 -1.2082 -1.1473 -1.9373
  658MOL0     H88819   8.487   9.485   5.035 -4.3026  2.0949  0.7406
  658MOL0     H88820   8.297   9.803   5.032 -0.3554  1.2282  0.4363
  658MOL0     H88821   8.141   9.714   5.029  0.1584 -0.1051  0.9706
  658MOL0     H88822   8.381   9.640   5.225 -0.5795 -1.4485  2.1397
  658MOL0     H88823   8.267   9.526   5.164 -2.7889  0.3913 -1.8925
  658MOL0     H88824   8.081   9.640   5.257  0.1045 -0.4216 -2.1803
  658MOL0     H88825   8.185   9.788   5.275 -0.8838 -0.1683 -2.1392
  658MOL0     H88826   8.325   9.673   5.439 -0.4842  1.2236 -0.7425
  658MOL0     H88827   8.253   9.513   5.415  1.4697  0.9204  2.4724
  658MOL0     H88828   7.995   9.713   5.687  0.9067 -0.2520 -0.1864
  658MOL0     H88829   8.365   9.765   4.739  2.4664  1.8711 -2.3555
  658MOL0     H88830   8.579   9.756   4.636 -0.3186  0.0820 -0.7462
  659MOL0     O88831  10.576  11.320   1.071  0.3444  0.7337 -0.5749
  659MOL0     C88832  10.695  11.340   1.100  0.1486  0.5051 -1.1450
  659MOL0     O88833  10.734  11.373   1.228  0.3181  0.7550  0.0087
  659MOL0     C88834  10.631  11.365   1.325  0.0726  0.7474  0.2446
  659MOL0     C88835  10.553  11.472   1.359 -0.0507  0.0534  0.2291
  659MOL0     C88836  10.444  11.459   1.457  0.3856  1.0719 -0.0775
  659MOL0     C88837  10.406  11.331   1.506  0.3755  0.3611 -0.0612
  659MOL0     O88838  10.298  11.305   1.594 -0.1840 -0.2913 -1.2784
  659MOL0     C88839  10.178  11.383   1.566 -0.6658  1.1436 -0.4312
  659MOL0     C88840  10.152  11.461   1.683  0.5664 -0.6516 -0.4083
  659MOL0     C88841  10.162  11.393   1.819 -0.1084 -0.2904  0.1329
  659MOL0     C88842  10.054  11.277   1.824 -0.4962  0.5975  0.5571
  659MOL0     C88843   9.983  11.259   1.953  1.3697 -0.1366 -0.0756
  659MOL0     C88844  10.068  11.211   2.067 -1.1524 -0.8973  0.3968
  659MOL0     C88845  10.003  11.246   2.206  0.0586  0.0817  0.3186
  659MOL0     C88846  10.040  11.144   2.325  0.4753  0.2591  0.3752
  659MOL0     N88847  10.030  11.195   2.460  0.0670  0.2854 -0.3909
  659MOL0     C88848  10.073  11.316   2.504  0.1698 -0.0585 -1.2777
  659MOL0     C88849  10.055  11.307   2.644  0.2281 -0.8998 -0.0152
  659MOL0     C88850  10.080  11.428   2.743 -1.3504  1.0191 -0.0858
  659MOL0     C88851   9.958  11.529   2.739 -0.1188  0.3435  0.0318
  659MOL0     C88852   9.821  11.466   2.762  0.6115  0.2230  0.0454
  659MOL0     C88853   9.801  11.370   2.879  0.7431  0.3376 -0.1879
  659MOL0     O88854   9.673  11.310   2.866  0.2660 -0.2270 -0.0327
  659MOL0     C88855   9.626  11.217   2.960 -0.0703 -0.9111 -0.0268
  659MOL0     C88856   9.722  11.148   3.040  0.7828 -0.6278  0.4378
  659MOL0     C88857   9.682  11.055   3.144 -0.1429  0.7721 -0.1252
  659MOL0     C88858   9.796  11.002   3.234  0.0104 -0.9071  0.1235
  659MOL0     C88859   9.547  11.020   3.149  0.4119 -0.6794 -0.3122
  659MOL0     C88860   9.491  10.922   3.248  0.4276  0.4310 -0.7027
  659MOL0     O88861   9.356  10.892   3.223  0.0271 -0.5466  0.6930
  659MOL0     C88862   9.274  10.825   3.307  0.1193  0.0439 -0.0948
  659MOL0     C88863   9.250  10.689   3.296 -0.0817  1.1048 -1.6597
  659MOL0     C88864   9.167  10.615   3.394  0.7497 -1.4447  1.0532
  659MOL0     C88865   9.101  10.691   3.495  0.1459  0.4587 -0.6876
  659MOL0     O88866   8.998  10.646   3.583  0.4727  0.0754 -0.1514
  659MOL0     C88867   9.007  10.500   3.625 -0.1420  0.6175 -0.8951
  659MOL0     C88868   9.120  10.488   3.719  0.2306 -0.8232 -0.4509
  659MOL0     C88869   9.117  10.370   3.813  0.0175 -0.6190 -0.3737
  659MOL0     C88870   9.262  10.334   3.850  0.7033 -0.9287  0.0978
  659MOL0     C88871   9.269  10.201   3.929  0.3867  0.5435 -0.1581
  659MOL0     C88872   9.262  10.220   4.081  0.0119 -0.2380  1.3453
  659MOL0     C88873   9.264  10.078   4.129 -0.0560  0.8315  0.2370
  659MOL0     C88874   9.222  10.066   4.273  0.0231 -0.0395 -0.6285
  659MOL0    Cl88875   9.332  10.164   4.393 -0.1914  0.4342  0.1915
  659MOL0     C88876   9.136  10.827   3.516 -0.3806  0.2174 -0.0557
  659MOL0     C88877   9.223  10.883   3.419 -0.2061 -0.1952  0.3619
  659MOL0     O88878   9.560  10.862   3.339 -0.1660 -0.7667 -0.2653
  659MOL0     C88879   9.450  11.082   3.059 -0.3477  0.1797 -0.3916
  659MOL0     C88880   9.491  11.180   2.971 -0.3229  0.1592  0.6151
  659MOL0     N88881   9.988  11.188   2.668 -0.0403 -0.3185  0.8963
  659MOL0     N88882   9.964  11.125   2.557 -1.2846 -0.1262  0.7253
  659MOL0     C88883  10.495  11.231   1.476 -0.0526 -0.3177 -0.9823
  659MOL0     C88884  10.604  11.242   1.388  0.6277  0.6011 -0.3298
  659MOL0     C88885  10.792  11.330   0.991  0.2040  0.3842  0.4760
  659MOL0     C88886  10.928  11.326   1.022  1.0459 -0.1940 -0.6202
  659MOL0     C88887  11.020  11.334   0.910  0.4963  0.1375  0.0026
  659MOL0     C88888  10.979  11.330   0.782  0.1739  0.4632 -0.5442
  659MOL0     O88889  11.083  11.346   0.688 -0.2347  0.7882  0.1529
  659MOL0     C88890  11.044  11.361   0.553 -0.5769  0.9839  0.7474
  659MOL0     C88891  11.167  11.364   0.452  1.0841  0.1966 -0.1057
  659MOL0     C88892  11.134  11.310   0.310 -0.0678 -0.7338 -0.0113
  659MOL0     C88893  11.198  11.178   0.267 -0.4393  0.6908 -0.9865
  659MOL0     C88894  11.343  11.188   0.286  0.3338 -0.7962  0.2855
  659MOL0     C88895  11.462  11.178   0.286 -1.0260  0.2641  0.4478
  659MOL0     C88896  10.836  11.316   0.755 -0.4246  1.3365  0.8647
  659MOL0     C88897  10.742  11.322   0.862  0.5579 -0.0811 -0.3556
  659MOL0     H88898  10.574  11.565   1.307  0.2818 -0.5693 -0.7564
  659MOL0     H88899  10.367  11.535   1.469 -1.0574 -0.4905  1.0542
  659MOL0     H88900  10.176  11.448   1.479 -2.5662  5.7813  2.6891
  659MOL0     H88901  10.109  11.298   1.558  1.4891 -0.5969 -1.3843
  659MOL0     H88902  10.231  11.537   1.675  2.1824 -2.4180 -2.7520
  659MOL0     H88903  10.056  11.511   1.668 -0.1939 -1.4627  1.5153
  659MOL0     H88904  10.267  11.366   1.832 -0.6235 -1.8001  1.3790
  659MOL0     H88905  10.137  11.473   1.890  0.3714 -1.8796  2.1829
  659MOL0     H88906   9.981  11.294   1.745 -1.0328  1.4719  1.2181
  659MOL0     H88907  10.103  11.179   1.817  1.8474  1.7896 -1.0312
  659MOL0     H88908   9.952  11.362   1.973 -2.8535 -1.3631  0.7326
  659MOL0     H88909   9.896  11.194   1.939  1.6772 -0.9543  1.5535
  659MOL0     H88910  10.088  11.104   2.069  0.4180 -0.6215  1.1633
  659MOL0     H88911  10.159  11.270   2.051 -3.1635  2.1610 -0.7102
  659MOL0     H88912  10.044  11.342   2.235  1.2736 -0.5315  0.7014
  659MOL0     H88913   9.894  11.256   2.202  0.1672  1.0227 -1.0008
  659MOL0     H88914  10.142  11.121   2.291  0.1372 -2.0334  0.7508
  659MOL0     H88915   9.974  11.058   2.312  0.8629  0.2770 -2.2726
  659MOL0     H88916  10.127  11.395   2.453  2.4012 -1.3750 -1.1119
  659MOL0     H88917  10.085  11.384   2.843 -0.6795  1.2598 -0.0110
  659MOL0     H88918  10.170  11.475   2.704 -2.3761  0.8211 -2.9681
  659MOL0     H88919   9.960  11.573   2.639 -3.3898 -1.7351 -1.0748
  659MOL0     H88920   9.988  11.602   2.816  3.4681  1.0849 -1.8158
  659MOL0     H88921   9.798  11.401   2.678  0.8754  0.6326 -0.3482
  659MOL0     H88922   9.746  11.546   2.765  1.4225  0.9845  0.7220
  659MOL0     H88923   9.807  11.426   2.973  0.4445  1.7164 -0.9725
  659MOL0     H88924   9.874  11.289   2.882  1.4115  0.9558  1.3271
  659MOL0     H88925   9.830  11.151   3.036  0.7598 -0.9640 -2.4865
  659MOL0     H88926   9.813  10.895   3.246 -0.0291 -0.8045  1.2569
  659MOL0     H88927   9.892  11.049   3.211 -1.4645  1.2329 -2.0746
  659MOL0     H88928   9.767  11.035   3.335 -0.9280 -0.3293 -0.3203
  659MOL0     H88929   9.292  10.638   3.210  2.1651 -3.4132  1.6808
  659MOL0     H88930   9.146  10.514   3.359  1.6384 -0.6882 -1.9636
  659MOL0     H88931   8.916  10.477   3.683  0.5300 -1.2709 -0.5170
  659MOL0     H88932   9.010  10.425   3.546  2.6338 -0.3662  0.0148
  659MOL0     H88933   9.219  10.487   3.673 -0.1999 -0.1852 -1.4050
  659MOL0     H88934   9.114  10.581   3.777 -1.4346 -0.7387 -0.6978
  659MOL0     H88935   9.052  10.288   3.779  2.6383 -3.1220  0.2845
  659MOL0     H88936   9.076  10.401   3.909  1.3302 -1.6996  0.5674
  659MOL0     H88937   9.311  10.324   3.753 -0.3037  0.6692 -0.6311
  659MOL0     H88938   9.322  10.416   3.891  0.4613 -1.8727  2.4678
  659MOL0     H88939   9.365  10.151   3.915 -0.3026 -0.2551 -2.5159
  659MOL0     H88940   9.190  10.133   3.895  1.5936 -0.5018 -0.9228
  659MOL0     H88941   9.344  10.282   4.119 -1.4962  1.9686  1.1815
  659MOL0     H88942   9.168  10.272   4.103 -1.1571 -2.0757  0.9015
  659MOL0     H88943   9.366  10.038   4.120  1.1188  2.8103  3.2223
  659MOL0     H88944   9.208  10.003   4.073  1.6291  0.0171 -0.4273
  659MOL0     H88945   9.238   9.961   4.302  2.8856  0.0856 -1.4392
  659MOL0     H88946   9.117  10.095   4.274  0.6088  2.2072  0.1567
  659MOL0     H88947   9.084  10.885   3.591 -0.1998  1.3224 -0.7611
  659MOL0     H88948   9.253  10.985   3.439  3.5531 -0.9540 -0.5932
  659MOL0     H88949   9.346  11.055   3.074 -0.4185 -0.8519 -2.4428
  659MOL0     H88950   9.413  11.226   2.912 -0.2446 -2.3473 -1.6454
  659MOL0     H88951  10.482  11.133   1.521 -2.8980  0.4302 -0.0372
  659MOL0     H88952  10.676  11.162   1.379 -1.9002 -1.7008 -1.4732
  659MOL0     H88953  10.958  11.318   1.126 -2.3717  0.9619  0.5941
  659MOL0     H88954  11.128  11.337   0.921  0.4516 -1.2870  1.1615
  659MOL0     H88955  10.989  11.273   0.518  0.7286  0.4779 -0.1391
  659MOL0     H88956  10.989  11.455   0.543 -2.2295 -0.0688 -0.5789
  659MOL0     H88957  11.239  11.296   0.499 -1.2127  0.0151  3.5451
  659MOL0     H88958  11.199  11.468   0.450 -0.2286  0.6986  2.0263
  659MOL0     H88959  11.181  11.386   0.246 -4.1078  2.0403 -0.0594
  659MOL0     H88960  11.028  11.307   0.284 -0.1175 -0.0983  0.0934
  659MOL0     H88961  11.172  11.138   0.169 -0.2803 -3.7373  0.5550
  659MOL0     H88962  11.162  11.098   0.333 -2.7443  0.7760 -2.0188
  659MOL0     H88963  11.568  11.161   0.294 -1.4147 -2.6134  0.5902
  659MOL0     H88964  10.800  11.311   0.653  0.5032 -0.9368  0.5949
  659MOL0     H88965  10.636  11.321   0.844  0.6184  1.5952 -0.9762
  660MOL0     O88966  10.094   9.763   9.672  0.3416 -0.8011 -0.2383
  660MOL0     C88967  10.150   9.872   9.699 -0.2803 -0.1616 -0.0686
  660MOL0     O88968  10.217   9.892   9.814  0.0421 -0.1889  0.7023
  660MOL0     C88969  10.230   9.809   9.918  0.7025  0.1714  0.9518
  660MOL0     C88970  10.196   9.845  10.042  0.6491 -0.1392 -0.2890
  660MOL0     C88971  10.207   9.745  10.141  0.0677  0.2037 -0.0988
  660MOL0     C88972  10.261   9.619  10.129  0.0030  0.4475  0.2961
  660MOL0     O88973  10.259   9.540  10.240 -0.0421 -0.4161 -0.7030
  660MOL0     C88974  10.324   9.420  10.244 -1.5615 -0.7162  0.0751
  660MOL0     C88975  10.287   9.337  10.357  0.6600 -0.1583  0.3358
  660MOL0     C88976  10.407   9.324  10.457  0.9699  0.5517  0.2719
  660MOL0     C88977  10.403   9.209  10.555 -0.2252  0.5433 -0.0194
  660MOL0     C88978  10.315   9.236  10.676  1.1993  0.1664 -0.3330
  660MOL0     C88979  10.298   9.110  10.760  0.1403  0.1414 -0.3177
  660MOL0     C88980  10.196   9.007  10.720  0.8867  0.5392 -0.4116
  660MOL0     C88981  10.239   8.874  10.776  0.6451 -0.3550  0.1044
  660MOL0     N88982  10.376   8.823  10.759  0.9523 -0.3714  0.1013
  660MOL0     C88983  10.436   8.799  10.635  0.1068 -0.4135  0.4131
  660MOL0     C88984  10.546   8.726  10.664 -0.5071  0.0500 -0.2880
  660MOL0     C88985  10.662   8.683  10.582  0.0148  0.8270 -0.5213
  660MOL0     C88986  10.806   8.722  10.632 -0.0670 -0.1983 -0.8734
  660MOL0     C88987  10.858   8.613  10.730 -0.1881  0.1202  0.4749
  660MOL0     C88988  11.016   8.617  10.754 -0.0337  0.1374 -0.3437
  660MOL0     O88989  11.091   8.590  10.633  0.0815 -0.2723  0.4084
  660MOL0     C88990  11.133   8.460  10.619  0.0176 -0.0647 -0.0965
  660MOL0     C88991  11.262   8.434  10.636 -0.3795  0.6079 -1.3141
  660MOL0     C88992  11.318   8.309  10.645  0.7978  0.4712  0.3152
  660MOL0     C88993  11.461   8.304  10.697  0.1237 -0.4005 -0.5548
  660MOL0     C88994  11.236   8.197  10.639 -0.2713  0.1455 -0.2524
  660MOL0     C88995  11.310   8.062  10.641  0.0877 -0.4726  0.8464
  660MOL0     O88996  11.257   7.961  10.721 -1.2472 -0.4206 -0.2970
  660MOL0     C88997  11.304   7.835  10.724 -0.5114  0.5034  1.0474
  660MOL0     C88998  11.353   7.766  10.606  0.6975 -0.0074  0.1135
  660MOL0     C88999  11.425   7.642  10.628  0.0357 -0.5833  0.4480
  660MOL0     C89000  11.425   7.572  10.752 -0.7380 -0.3016 -0.4808
  660MOL0     O89001  11.473   7.442  10.745  0.7717  0.0684  0.0153
  660MOL0     C89002  11.484   7.366  10.866  0.6577 -0.5326 -0.6735
  660MOL0     C89003  11.617   7.405  10.924 -0.1797 -0.1834 -0.4913
  660MOL0     C89004  11.723   7.367  10.823  0.4627 -1.0102  0.9147
  660MOL0     C89005  11.860   7.382  10.882 -0.5067  0.4084  0.2716
  660MOL0     C89006  11.911   7.522  10.922  0.7181 -0.0603 -0.8159
  660MOL0     C89007  12.064   7.538  10.948  1.1919  0.6313 -0.1575
  660MOL0     C89008  12.114   7.443  11.062  0.4498 -0.1420 -0.5365
  660MOL0     C89009  12.230   7.497  11.148  0.5686 -0.0822 -0.4091
  660MOL0    Cl89010  12.323   7.353  11.198 -0.3126  0.0677 -0.5870
  660MOL0     C89011  11.371   7.638  10.861 -0.3786  0.5655  1.1412
  660MOL0     C89012  11.315   7.770  10.844  1.3862  0.2074  0.0703
  660MOL0     O89013  11.404   8.052  10.558 -0.6762 -0.0805  0.4651
  660MOL0     C89014  11.099   8.218  10.602 -0.2853 -0.3053 -1.6243
  660MOL0     C89015  11.050   8.354  10.600 -0.1610 -0.2495 -0.0808
  660MOL0     N89016  10.557   8.717  10.803 -0.5105 -0.4321 -0.6013
  660MOL0     N89017  10.453   8.771  10.854  0.3008  0.5864 -0.6100
  660MOL0     C89018  10.305   9.588  10.003 -0.5589 -0.2243  0.8638
  660MOL0     C89019  10.288   9.680   9.899  0.1600 -1.7433 -0.2367
  660MOL0     C89020  10.123   9.985   9.605  0.4555 -0.3326 -0.2676
  660MOL0     C89021  10.100  10.123   9.647  0.4195  0.5927 -0.7149
  660MOL0     C89022  10.053  10.206   9.548  0.3485 -0.2535  0.1560
  660MOL0     C89023  10.061  10.176   9.403  0.4949  0.1606 -0.9426
  660MOL0     O89024  10.050  10.266   9.305 -1.0431  1.0624 -0.9102
  660MOL0     C89025  10.115  10.385   9.333 -0.9062 -0.4910 -0.6516
  660MOL0     C89026  10.196  10.451   9.222 -0.3917 -0.4354 -0.3734
  660MOL0     C89027  10.300  10.357   9.152 -0.8969 -0.0904  0.1159
  660MOL0     C89028  10.335  10.381   9.009  0.2449  0.1309  0.4530
  660MOL0     C89029  10.428  10.490   8.985  0.0773  0.5064 -0.6361
  660MOL0     C89030  10.494  10.592   8.973 -1.0659  0.2182  0.2660
  660MOL0     C89031  10.073  10.039   9.372 -0.3433  0.3598  0.5312
  660MOL0     C89032  10.098   9.948   9.465  0.9362  0.6210  0.0894
  660MOL0     H89033  10.166   9.945  10.073  1.0304  0.0096 -0.3790
  660MOL0     H89034  10.171   9.766  10.241 -2.0109 -4.3329  0.3288
  660MOL0     H89035  10.286   9.367  10.156 -3.2063 -2.6465  1.8268
  660MOL0     H89036  10.432   9.435  10.237 -1.7085 -0.3830 -1.8987
  660MOL0     H89037  10.190   9.363  10.399 -0.2839 -2.1838 -0.4651
  660MOL0     H89038  10.271   9.236  10.319  0.1254 -0.4984  1.4490
  660MOL0     H89039  10.501   9.316  10.401  1.1532 -1.7342  0.8075
  660MOL0     H89040  10.420   9.422  10.505  3.6622  0.4494 -0.0759
  660MOL0     H89041  10.380   9.116  10.501  2.3593 -2.5688  3.6225
  660MOL0     H89042  10.508   9.190  10.577 -0.1716 -4.3626 -3.0037
  660MOL0     H89043  10.360   9.317  10.734  0.4483  0.4563 -0.1497
  660MOL0     H89044  10.214   9.263  10.645 -0.0115 -0.3220  2.8137
  660MOL0     H89045  10.401   9.075  10.769  0.0678  0.4047  2.1594
  660MOL0     H89046  10.268   9.132  10.863 -0.6506  0.9219 -0.6960
  660MOL0     H89047  10.093   9.024  10.750 -0.7260 -1.6079 -4.0111
  660MOL0     H89048  10.195   8.991  10.612 -1.6591 -2.9754 -0.0183
  660MOL0     H89049  10.174   8.799  10.730  0.5488 -0.9230  1.1443
  660MOL0     H89050  10.213   8.882  10.882  1.2400  1.3102  0.1713
  660MOL0     H89051  10.403   8.829  10.536  2.2927  2.7052  0.5077
  660MOL0     H89052  10.659   8.576  10.564  1.7734  0.5101  0.8201
  660MOL0     H89053  10.635   8.717  10.482  1.4326 -1.7432 -1.8763
  660MOL0     H89054  10.804   8.813  10.693 -0.7260 -1.5158  1.1584
  660MOL0     H89055  10.871   8.723  10.544  1.3058 -3.1444 -0.0099
  660MOL0     H89056  10.840   8.513  10.689 -3.2616  0.9553 -0.4473
  660MOL0     H89057  10.799   8.624  10.821  0.0124 -2.9433  1.0743
  660MOL0     H89058  11.052   8.548  10.831  0.3502 -0.2728 -0.8800
  660MOL0     H89059  11.033   8.718  10.793  1.2549 -0.3169  0.3521
  660MOL0     H89060  11.315   8.522  10.673  0.4094 -0.5232  0.3882
  660MOL0     H89061  11.526   8.280  10.613 -1.7723 -0.7403 -1.9793
  660MOL0     H89062  11.481   8.399  10.749  0.6751 -0.5447 -0.4989
  660MOL0     H89063  11.471   8.233  10.780  1.3737 -2.1889 -2.1672
  660MOL0     H89064  11.329   7.810  10.510 -0.0277 -0.3717  0.1190
  660MOL0     H89065  11.466   7.593  10.541 -0.4470 -3.1927  1.5806
  660MOL0     H89066  11.395   7.390  10.924 -0.5820  0.4363 -2.8801
  660MOL0     H89067  11.483   7.257  10.851  0.5661 -0.5101 -0.8360
  660MOL0     H89068  11.612   7.512  10.944 -0.6785 -0.3402  0.2616
  660MOL0     H89069  11.642   7.352  11.016  1.8981 -2.5987 -2.3059
  660MOL0     H89070  11.721   7.438  10.739  0.4182  1.4915  2.9131
  660MOL0     H89071  11.698   7.268  10.784 -0.6844 -0.7662  1.0031
  660MOL0     H89072  11.866   7.320  10.972  2.3711 -0.9375 -0.7046
  660MOL0     H89073  11.936   7.343  10.814  1.7833  1.3493  2.1403
  660MOL0     H89074  11.862   7.551  11.015  1.1422  1.0007 -0.9107
  660MOL0     H89075  11.886   7.597  10.846 -1.3578 -0.8392 -0.9928
  660MOL0     H89076  12.120   7.517  10.856  0.6383 -1.6443 -0.0451
  660MOL0     H89077  12.084   7.640  10.982  1.5036  0.9285 -1.1774
  660MOL0     H89078  12.160   7.360  11.009  0.7070  0.8601 -1.9431
  660MOL0     H89079  12.030   7.407  11.123  0.6162  1.2727  0.5980
  660MOL0     H89080  12.181   7.541  11.235 -2.5544 -3.6736 -0.0578
  660MOL0     H89081  12.294   7.566  11.092 -0.8943  0.5974 -1.2933
  660MOL0     H89082  11.382   7.595  10.959 -1.5176  2.6746  2.2676
  660MOL0     H89083  11.263   7.822  10.924  5.7856  0.0892  3.3813
  660MOL0     H89084  11.029   8.137  10.585 -1.7566  0.7452 -0.7556
  660MOL0     H89085  10.947   8.364  10.566 -1.0938  0.5368  2.7141
  660MOL0     H89086  10.339   9.491   9.966 -3.4937  0.2688 -3.9570
  660MOL0     H89087  10.330   9.648   9.804  0.7701  1.9891 -1.3827
  660MOL0     H89088  10.091  10.152   9.751 -0.3316  0.5445 -0.7662
  660MOL0     H89089  10.039  10.310   9.572 -0.0112 -0.5016  1.0479
  660MOL0     H89090  10.039  10.464   9.336  1.4727  1.9337  0.2152
  660MOL0     H89091  10.175  10.387   9.425 -0.8357 -0.9332 -0.6863
  660MOL0     H89092  10.248  10.538   9.264 -1.5891  0.0172  0.2537
  660MOL0     H89093  10.123  10.486   9.148 -1.3024  1.0478  1.1270
  660MOL0     H89094  10.271  10.252   9.157  2.4018 -1.2442 -1.3789
  660MOL0     H89095  10.399  10.353   9.199  0.0398  3.2846 -1.2763
  660MOL0     H89096  10.238  10.397   8.960  1.9340 -0.9490 -3.6897
  660MOL0     H89097  10.373  10.286   8.969  1.8242  0.7367  0.4523
  660MOL0     H89098  10.552  10.680   8.952  1.4518 -1.3736  0.1611
  660MOL0     H89099  10.050  10.009   9.270 -3.0931 -1.7138  1.6315
  660MOL0     H89100  10.087   9.846   9.430  0.0227  0.5181  0.6484
  661MOL0     O89101  10.105   3.785   7.822  0.1431 -0.0047 -0.4487
  661MOL0     C89102   9.995   3.771   7.771  0.3402 -0.2019 -0.1059
  661MOL0     O89103   9.966   3.781   7.631 -0.6696  0.0176  0.0343
  661MOL0     C89104  10.065   3.816   7.546 -0.2366 -0.0327 -0.8808
  661MOL0     C89105  10.088   3.729   7.440  0.6772  0.5497  0.3084
  661MOL0     C89106  10.198   3.747   7.358  0.7559 -0.5541  0.0126
  661MOL0     C89107  10.290   3.851   7.380  0.1207 -0.0582  0.5580
  661MOL0     O89108  10.395   3.866   7.294 -1.4053  0.7850 -0.2816
  661MOL0     C89109  10.470   3.743   7.285 -0.3635  0.3703  1.3538
  661MOL0     C89110  10.603   3.783   7.221  0.5965  0.6150 -0.1942
  661MOL0     C89111  10.707   3.678   7.241  0.0888 -0.1341  1.1822
  661MOL0     C89112  10.839   3.726   7.185 -0.0741  0.1770 -0.4768
  661MOL0     C89113  10.940   3.612   7.154 -0.2347  0.5940  0.2082
  661MOL0     C89114  11.008   3.560   7.284 -0.1886 -0.0687  0.3625
  661MOL0     C89115  11.078   3.427   7.234 -0.1646  0.3770  0.3051
  661MOL0     C89116  11.228   3.451   7.207 -0.0968  0.5984 -0.1378
  661MOL0     N89117  11.252   3.468   7.065  1.5503  0.7556  0.3276
  661MOL0     C89118  11.283   3.366   6.979  0.6124  0.2506 -0.5622
  661MOL0     C89119  11.316   3.424   6.856 -0.8032 -0.2023 -0.5708
  661MOL0     C89120  11.379   3.346   6.732  1.2080  0.5242  0.2196
  661MOL0     C89121  11.528   3.310   6.768  0.3806 -0.0566 -0.1326
  661MOL0     C89122  11.560   3.184   6.677 -0.4903 -0.1629  0.0270
  661MOL0     C89123  11.699   3.148   6.720  1.1642 -0.2796  0.4971
  661MOL0     O89124  11.747   3.036   6.649 -0.3367 -0.6317 -0.2994
  661MOL0     C89125  11.802   3.039   6.517  0.2542 -0.5567  0.2539
  661MOL0     C89126  11.836   2.912   6.466  0.0551  0.3335  0.2393
  661MOL0     C89127  11.908   2.906   6.344  0.8828  0.2711  0.0827
  661MOL0     C89128  11.966   2.769   6.310 -0.5313  0.4193  0.4475
  661MOL0     C89129  11.956   3.028   6.283  0.8734  0.3330  0.2022
  661MOL0     C89130  12.043   3.034   6.161  0.9619  0.0791 -0.3913
  661MOL0     O89131  12.110   3.153   6.160 -0.0514 -0.0932 -0.1226
  661MOL0     C89132  12.176   3.177   6.043  0.5065 -0.9748 -0.3319
  661MOL0     C89133  12.306   3.149   6.025 -0.3586  0.6385  0.1426
  661MOL0     C89134  12.369   3.188   5.910 -0.0094  0.2816 -0.4526
  661MOL0     C89135  12.314   3.253   5.807  0.3523 -0.3403 -0.2181
  661MOL0     O89136  12.380   3.300   5.694 -0.1403 -0.3331 -0.6533
  661MOL0     C89137  12.496   3.230   5.637 -0.0268  0.4492 -0.7314
  661MOL0     C89138  12.469   3.193   5.491 -0.5778 -0.3189 -1.0829
  661MOL0     C89139  12.375   3.288   5.400  0.0602  0.1335 -0.2618
  661MOL0     C89140  12.362   3.251   5.241 -0.3049  0.6129 -0.7954
  661MOL0     C89141  12.488   3.209   5.159  0.3461  0.2376 -0.5090
  661MOL0     C89142  12.592   3.314   5.143  0.3990 -0.7390 -0.4537
  661MOL0     C89143  12.708   3.308   5.037  0.0024 -0.5532 -0.1480
  661MOL0     C89144  12.839   3.357   5.099 -0.4053 -0.8874  0.0556
  661MOL0    Cl89145  12.848   3.541   5.099  0.0269 -0.6821  0.2895
  661MOL0     C89146  12.176   3.284   5.829 -0.5151  0.1194  0.3722
  661MOL0     C89147  12.109   3.248   5.946 -0.2922 -0.3392  0.0171
  661MOL0     O89148  12.041   2.946   6.079 -0.3515 -0.2885  0.1736
  661MOL0     C89149  11.912   3.150   6.335  0.7689  0.0009 -0.4665
  661MOL0     C89150  11.829   3.153   6.446  0.1546  0.6623  0.5619
  661MOL0     N89151  11.300   3.561   6.872 -0.5169 -0.3911 -0.3932
  661MOL0     N89152  11.264   3.579   6.998 -1.1926 -0.2341 -1.4013
  661MOL0     C89153  10.263   3.939   7.485 -0.5022  1.0979  0.2894
  661MOL0     C89154  10.159   3.926   7.565 -0.7640  0.2082 -0.2190
  661MOL0     C89155   9.883   3.727   7.848  0.7551  0.6070 -0.2289
  661MOL0     C89156   9.755   3.715   7.789 -0.1427 -0.5222  0.3116
  661MOL0     C89157   9.643   3.666   7.859  0.0294 -0.2964  0.5308
  661MOL0     C89158   9.664   3.626   7.985  0.4249  0.3438  0.0074
  661MOL0     O89159   9.553   3.561   8.034 -0.3566  0.7104  0.0638
  661MOL0     C89160   9.526   3.437   7.960  1.4870 -0.4980 -0.5523
  661MOL0     C89161   9.411   3.360   8.030 -0.7875  0.2385  0.1692
  661MOL0     C89162   9.320   3.279   7.933 -0.4382  0.5976  1.4616
  661MOL0     C89163   9.194   3.207   7.985  0.0523  0.3936 -0.4263
  661MOL0     C89164   9.225   3.104   8.090  0.1005  0.4207  0.1264
  661MOL0     C89165   9.252   3.009   8.163 -0.5385 -0.0377  0.5976
  661MOL0     C89166   9.789   3.642   8.051 -0.2267 -0.2001 -0.8667
  661MOL0     C89167   9.892   3.688   7.984 -0.3598  0.3207  0.3666
  661MOL0     H89168  10.035   3.639   7.410  1.4566  1.0345 -2.9885
  661MOL0     H89169  10.206   3.681   7.272 -0.5820  0.7881 -1.2112
  661MOL0     H89170  10.500   3.704   7.383  0.0066  3.3836  2.5633
  661MOL0     H89171  10.411   3.671   7.228  3.0611 -3.2183  1.8457
  661MOL0     H89172  10.573   3.816   7.121  1.6455  4.5582  0.6122
  661MOL0     H89173  10.637   3.877   7.265  2.4520 -0.1646  0.1329
  661MOL0     H89174  10.728   3.649   7.344 -0.4392  0.2210  1.3963
  661MOL0     H89175  10.675   3.584   7.196  0.2483  0.3358  0.0446
  661MOL0     H89176  10.821   3.786   7.095 -0.1355  0.8920  0.0022
  661MOL0     H89177  10.876   3.795   7.261 -0.3479 -1.7845  1.5359
  661MOL0     H89178  10.896   3.523   7.107  2.4123 -1.3219  1.0815
  661MOL0     H89179  11.020   3.640   7.086 -0.4518  0.3032 -0.1733
  661MOL0     H89180  11.074   3.639   7.319 -2.5053  0.5304  3.8946
  661MOL0     H89181  10.943   3.545   7.371  2.8392  1.6184  3.1036
  661MOL0     H89182  11.089   3.351   7.311 -2.2454 -1.9287 -1.4825
  661MOL0     H89183  11.035   3.373   7.149 -0.5415 -0.3669  0.9563
  661MOL0     H89184  11.292   3.371   7.245 -0.6522  1.4150  2.7399
  661MOL0     H89185  11.260   3.539   7.264 -1.2273 -0.1107  1.6839
  661MOL0     H89186  11.287   3.259   6.995 -1.8716 -0.1097 -1.7595
  661MOL0     H89187  11.319   3.257   6.715  0.4965  1.4641 -2.5911
  661MOL0     H89188  11.367   3.406   6.641  0.0479  1.0672  0.7066
  661MOL0     H89189  11.543   3.296   6.876  3.2350  0.3295 -0.3952
  661MOL0     H89190  11.587   3.393   6.729 -0.4853 -0.8256 -3.3197
  661MOL0     H89191  11.562   3.221   6.574  1.4535  1.6261  0.6330
  661MOL0     H89192  11.491   3.099   6.685 -2.3380  1.1545 -1.1473
  661MOL0     H89193  11.692   3.109   6.822 -0.3069  0.9182  0.8923
  661MOL0     H89194  11.766   3.234   6.718 -0.2666  0.8597  0.4890
  661MOL0     H89195  11.804   2.823   6.520 -0.3450 -0.6153 -1.4884
  661MOL0     H89196  12.005   2.748   6.210  1.2453 -1.3964  1.4638
  661MOL0     H89197  12.035   2.730   6.384 -3.4110 -0.4731  2.8903
  661MOL0     H89198  11.879   2.703   6.316 -0.9288  0.9466  0.6118
  661MOL0     H89199  12.354   3.094   6.105  1.0639  0.5363 -0.7459
  661MOL0     H89200  12.473   3.158   5.903  0.1059 -0.3537  2.5069
  661MOL0     H89201  12.584   3.294   5.653  1.9893 -2.6560  1.7142
  661MOL0     H89202  12.514   3.140   5.696 -1.6059  0.3310 -0.3829
  661MOL0     H89203  12.569   3.171   5.452 -0.7835 -2.6629 -0.4500
  661MOL0     H89204  12.431   3.090   5.492  1.8347 -1.2789 -0.6264
  661MOL0     H89205  12.432   3.382   5.406  3.1303 -1.6664  0.7815
  661MOL0     H89206  12.273   3.305   5.435 -0.0163 -0.8952  0.0322
  661MOL0     H89207  12.304   3.159   5.225  0.4434 -0.1587  0.7389
  661MOL0     H89208  12.310   3.330   5.187 -0.6526  3.3500  3.1672
  661MOL0     H89209  12.452   3.184   5.059 -0.7032  1.8181 -0.5607
  661MOL0     H89210  12.510   3.120   5.218 -4.7349 -0.3591  0.9383
  661MOL0     H89211  12.547   3.414   5.150  1.5114 -0.3389  1.8297
  661MOL0     H89212  12.647   3.316   5.237 -1.3888  0.5323  0.6446
  661MOL0     H89213  12.671   3.372   4.956 -2.0858  1.1490  2.0111
  661MOL0     H89214  12.716   3.203   5.006  0.1453 -1.9675  4.0486
  661MOL0     H89215  12.922   3.316   5.042 -0.6549 -0.3847 -0.6893
  661MOL0     H89216  12.849   3.323   5.202 -1.5928  1.2440  0.9429
  661MOL0     H89217  12.122   3.350   5.762 -0.4380  1.1144  1.2607
  661MOL0     H89218  12.009   3.278   5.976  0.5535  0.8887  1.8109
  661MOL0     H89219  11.946   3.247   6.299 -0.6098  0.3727 -0.8433
  661MOL0     H89220  11.782   3.244   6.481  0.4452  1.2975 -0.6255
  661MOL0     H89221  10.335   4.016   7.509  0.8062  0.1929 -0.6301
  661MOL0     H89222  10.147   3.997   7.646  0.3340 -1.4045  1.4599
  661MOL0     H89223   9.736   3.735   7.684  0.1614 -3.4037 -0.3791
  661MOL0     H89224   9.543   3.659   7.817 -0.2027 -2.3077  1.2943
  661MOL0     H89225   9.478   3.475   7.870 -2.2110 -1.6737  0.7381
  661MOL0     H89226   9.617   3.381   7.936  2.3177  1.0181 -1.0658
  661MOL0     H89227   9.344   3.419   8.093 -0.6122 -2.3905  3.0670
  661MOL0     H89228   9.458   3.280   8.088  1.7326  1.7018  0.3116
  661MOL0     H89229   9.381   3.213   7.870  2.4147  3.4919  0.9103
  661MOL0     H89230   9.270   3.358   7.876 -2.6148 -0.3701  1.9345
  661MOL0     H89231   9.152   3.139   7.910 -2.0684  0.2130  0.8647
  661MOL0     H89232   9.123   3.280   8.025 -0.6179  0.6009 -1.9160
  661MOL0     H89233   9.277   2.917   8.211 -0.9312 -1.0895 -1.0969
  661MOL0     H89234   9.801   3.603   8.151  0.0381 -3.7938 -2.1471
  661MOL0     H89235   9.994   3.685   8.021  0.1889  0.2428 -1.0870
  662MOL0     O89236   5.024   3.227   5.293 -0.5760  0.4871  0.0224
  662MOL0     C89237   5.045   3.238   5.165 -0.0660  0.2809 -1.4971
  662MOL0     O89238   4.946   3.235   5.063  0.1923  0.4724 -0.3367
  662MOL0     C89239   4.818   3.235   5.109  0.1395  0.2136 -1.3126
  662MOL0     C89240   4.761   3.354   5.140 -0.3823 -0.4463  1.1071
  662MOL0     C89241   4.634   3.351   5.192 -0.3706 -0.2413  1.2389
  662MOL0     C89242   4.562   3.236   5.208 -0.2714 -0.6671  0.7942
  662MOL0     O89243   4.435   3.251   5.264 -1.1488  0.5360  0.3005
  662MOL0     C89244   4.334   3.335   5.222  0.2426  0.3701  0.5865
  662MOL0     C89245   4.217   3.304   5.308 -0.3587  0.6555 -0.2316
  662MOL0     C89246   4.087   3.371   5.256 -0.1131 -0.0356 -0.1975
  662MOL0     C89247   3.969   3.286   5.309 -0.8904 -0.6995 -0.0802
  662MOL0     C89248   3.840   3.364   5.308  0.1440 -0.3752 -0.0125
  662MOL0     C89249   3.782   3.382   5.165 -0.3817  0.0675 -0.1437
  662MOL0     C89250   3.645   3.466   5.179 -0.3217  0.5082  1.3302
  662MOL0     C89251   3.580   3.452   5.038 -0.3591 -0.1514 -0.2698
  662MOL0     N89252   3.435   3.446   5.041 -0.4509 -0.7726  0.4775
  662MOL0     C89253   3.351   3.478   4.939 -0.3674  0.3836  0.5209
  662MOL0     C89254   3.231   3.431   4.982 -0.2565  0.6682  0.2286
  662MOL0     C89255   3.112   3.424   4.884  0.4559 -0.5937  0.5455
  662MOL0     C89256   3.006   3.535   4.912  0.2171 -0.0065 -1.5252
  662MOL0     C89257   2.922   3.508   5.047  0.4438 -0.1742 -0.8027
  662MOL0     C89258   2.829   3.626   5.089  0.1381 -0.1623  1.4779
  662MOL0     O89259   2.736   3.622   4.975 -0.4686  0.3800  0.1241
  662MOL0     C89260   2.631   3.712   4.978 -0.8176 -0.5378  0.0221
  662MOL0     C89261   2.519   3.675   4.919  1.6189 -0.3046  0.0125
  662MOL0     C89262   2.401   3.760   4.924  0.1703  1.3015  0.5198
  662MOL0     C89263   2.270   3.700   4.864  0.5280 -0.0532  0.3471
  662MOL0     C89264   2.428   3.890   4.971  0.1648 -0.3003 -0.6512
  662MOL0     C89265   2.317   3.985   4.982 -0.1151  0.3630 -0.0855
  662MOL0     O89266   2.200   3.966   4.934  0.1984 -0.3888 -0.3594
  662MOL0     C89267   2.109   4.075   4.920 -0.1342  0.7076 -0.6333
  662MOL0     C89268   2.142   4.208   4.898 -0.1820  0.3410 -0.6830
  662MOL0     C89269   2.047   4.308   4.881  1.5762  1.3085  1.2831
  662MOL0     C89270   1.915   4.274   4.882  0.7675  0.1354 -0.2009
  662MOL0     O89271   1.808   4.360   4.863 -0.0759 -0.5903 -0.5922
  662MOL0     C89272   1.796   4.468   4.962 -0.0067  0.2135 -0.2830
  662MOL0     C89273   1.659   4.531   4.964  0.2540  0.1786  0.4392
  662MOL0     C89274   1.619   4.578   4.827 -0.9832 -1.0277  0.6104
  662MOL0     C89275   1.523   4.497   4.753  0.7109  0.0245  0.3797
  662MOL0     C89276   1.537   4.521   4.600 -0.0460  0.1985 -0.2171
  662MOL0     C89277   1.482   4.400   4.531 -0.1407 -0.0816 -0.1669
  662MOL0     C89278   1.496   4.424   4.380 -0.4804  0.5530 -0.9574
  662MOL0     C89279   1.399   4.330   4.304 -0.8802 -0.5656 -1.4066
  662MOL0    Cl89280   1.412   4.370   4.126 -0.4182 -0.2474 -0.2108
  662MOL0     C89281   1.872   4.143   4.895 -0.6020  0.1625  0.1881
  662MOL0     C89282   1.971   4.043   4.921  0.1789 -0.4473  0.4770
  662MOL0     O89283   2.339   4.082   5.055  0.4436 -0.2874 -0.3942
  662MOL0     C89284   2.555   3.939   5.012  1.2192 -0.2264 -0.8877
  662MOL0     C89285   2.658   3.842   5.017  0.5049 -0.4403  0.1250
  662MOL0     N89286   3.256   3.366   5.108  0.2055  0.3882 -0.0637
  662MOL0     N89287   3.372   3.376   5.141  0.0083 -0.0318 -0.1309
  662MOL0     C89288   4.615   3.120   5.171 -0.4627  0.2615  0.2030
  662MOL0     C89289   4.747   3.116   5.127 -0.3892  0.2281 -0.9799
  662MOL0     C89290   5.191   3.240   5.122 -0.1440  0.4601  0.3663
  662MOL0     C89291   5.290   3.169   5.194  0.5340  1.0086  1.0963
  662MOL0     C89292   5.423   3.174   5.158 -1.0361  0.8267 -0.0572
  662MOL0     C89293   5.464   3.246   5.039  0.1867 -0.1340  0.2782
  662MOL0     O89294   5.593   3.254   5.001  0.5374  0.7312 -0.5862
  662MOL0     C89295   5.681   3.152   5.049 -0.8584  0.3174 -0.3491
  662MOL0     C89296   5.799   3.152   4.955  0.9783  0.8362  1.0529
  662MOL0     C89297   5.916   3.110   5.042 -0.4255  0.4696 -0.5437
  662MOL0     C89298   6.059   3.111   4.997  0.8141  0.0946  0.3073
  662MOL0     C89299   6.089   3.190   4.883  0.6901 -0.3785 -0.6509
  662MOL0     C89300   6.110   3.267   4.790 -0.7216  0.5304  0.5230
  662MOL0     C89301   5.362   3.306   4.968  0.3470 -0.0565  0.6395
  662MOL0     C89302   5.233   3.300   5.003  0.4521 -1.1653  0.1222
  662MOL0     H89303   4.818   3.447   5.140  2.0921 -1.8474 -0.6265
  662MOL0     H89304   4.617   3.453   5.225  0.7133 -0.1098  1.4210
  662MOL0     H89305   4.370   3.437   5.237 -0.7612  0.8535 -0.1365
  662MOL0     H89306   4.297   3.310   5.122 -1.7481 -1.8547  1.7696
  662MOL0     H89307   4.206   3.196   5.296  1.5824  0.6310 -2.4203
  662MOL0     H89308   4.241   3.327   5.413  0.5690 -0.4647 -0.1883
  662MOL0     H89309   4.079   3.474   5.292  0.7724  0.4752 -1.3943
  662MOL0     H89310   4.091   3.383   5.147  1.1749 -2.5488 -0.5105
  662MOL0     H89311   3.969   3.190   5.256  2.1495 -2.7317  3.0871
  662MOL0     H89312   4.000   3.256   5.410  0.4582 -0.8051 -0.5037
  662MOL0     H89313   3.756   3.318   5.360 -1.8337 -1.5613 -3.8998
  662MOL0     H89314   3.859   3.465   5.348 -0.1206 -1.4013  2.9706
  662MOL0     H89315   3.848   3.438   5.097 -3.1456  3.1174 -0.6140
  662MOL0     H89316   3.767   3.288   5.111  0.7151 -0.6878  0.8243
  662MOL0     H89317   3.581   3.431   5.260 -3.1694  0.6810 -0.7136
  662MOL0     H89318   3.674   3.572   5.190  0.9533  0.3432 -0.0687
  662MOL0     H89319   3.618   3.371   4.975 -1.3934 -0.8118 -0.0756
  662MOL0     H89320   3.600   3.544   4.982 -0.1415 -0.1671 -0.2194
  662MOL0     H89321   3.393   3.523   4.851  1.2439  3.8980  2.8573
  662MOL0     H89322   3.149   3.443   4.783 -0.7537 -3.0128 -0.4384
  662MOL0     H89323   3.064   3.326   4.882  0.6333 -0.7466 -3.0893
  662MOL0     H89324   2.936   3.546   4.829 -1.6159  2.9054  0.2474
  662MOL0     H89325   3.049   3.635   4.923 -0.7064  0.6366 -3.4172
  662MOL0     H89326   3.000   3.478   5.118  1.5887  3.9468 -0.0814
  662MOL0     H89327   2.861   3.420   5.025  2.9247 -2.0298 -0.7063
  662MOL0     H89328   2.894   3.714   5.095  2.2480 -1.5255  0.1551
  662MOL0     H89329   2.779   3.610   5.185 -1.5822 -0.2807  0.5940
  662MOL0     H89330   2.507   3.577   4.874  0.1050  0.0319 -0.3864
  662MOL0     H89331   2.205   3.665   4.945 -0.3785 -1.7233 -1.0213
  662MOL0     H89332   2.212   3.766   4.799  2.2325  0.1453 -1.0323
  662MOL0     H89333   2.303   3.615   4.803 -1.9946 -1.6456  1.0374
  662MOL0     H89334   2.244   4.245   4.902 -0.6234  1.6307 -0.9484
  662MOL0     H89335   2.085   4.407   4.856  1.4255  1.2255  0.7145
  662MOL0     H89336   1.820   4.420   5.058  0.9710  0.5001 -0.3811
  662MOL0     H89337   1.872   4.546   4.955  0.1361 -0.0155 -1.3493
  662MOL0     H89338   1.584   4.463   5.006 -1.3893  0.4732 -1.8565
  662MOL0     H89339   1.662   4.612   5.037  0.1997 -0.0661  0.7154
  662MOL0     H89340   1.707   4.588   4.763 -0.1652 -1.1367  1.6948
  662MOL0     H89341   1.576   4.678   4.841 -0.4763 -0.8850  1.1767
  662MOL0     H89342   1.528   4.390   4.778  0.9490 -1.0024 -3.4001
  662MOL0     H89343   1.422   4.525   4.785  0.2780  0.9570 -1.6069
  662MOL0     H89344   1.639   4.536   4.563 -1.3938  1.5929 -3.8991
  662MOL0     H89345   1.486   4.611   4.562  2.0735  1.2000 -0.8530
  662MOL0     H89346   1.534   4.305   4.544 -0.4359 -0.6202 -2.3737
  662MOL0     H89347   1.378   4.381   4.559 -0.1800 -1.0753 -0.9306
  662MOL0     H89348   1.602   4.410   4.357 -0.3858 -1.1648  0.3033
  662MOL0     H89349   1.478   4.529   4.354 -0.4229  0.4344 -1.4907
  662MOL0     H89350   1.295   4.347   4.334 -0.3619  3.7897 -1.4916
  662MOL0     H89351   1.428   4.227   4.325  4.0499  0.9645  0.6480
  662MOL0     H89352   1.766   4.120   4.898 -0.2847 -1.3970  0.5341
  662MOL0     H89353   1.952   3.936   4.932  4.6787 -1.4892  0.4329
  662MOL0     H89354   2.566   4.046   5.026  0.6791 -0.4233  1.3450
  662MOL0     H89355   2.760   3.863   5.049  0.9714 -0.6225 -1.2095
  662MOL0     H89356   4.550   3.033   5.169 -3.2458  2.2068 -0.1290
  662MOL0     H89357   4.791   3.017   5.120 -2.3632 -1.0304  2.3252
  662MOL0     H89358   5.258   3.119   5.285  1.5614 -1.2043  0.3251
  662MOL0     H89359   5.489   3.115   5.220 -0.6638  2.6655  1.3795
  662MOL0     H89360   5.714   3.173   5.151 -0.2024  0.1541 -0.5273
  662MOL0     H89361   5.644   3.050   5.035  2.4400 -0.7823 -2.2058
  662MOL0     H89362   5.807   3.258   4.928 -3.6896  1.3925  0.9816
  662MOL0     H89363   5.788   3.086   4.868  1.5629  0.4421  1.2742
  662MOL0     H89364   5.906   3.010   5.084 -3.1864  1.9031  2.7497
  662MOL0     H89365   5.919   3.181   5.126  1.0838  2.2607 -2.0234
  662MOL0     H89366   6.081   3.008   4.967 -0.8342 -0.3432  0.4850
  662MOL0     H89367   6.134   3.131   5.074  1.2218  0.3120 -0.1400
  662MOL0     H89368   6.114   3.336   4.709 -0.8126 -2.3263 -2.1001
  662MOL0     H89369   5.385   3.367   4.880  0.3414 -0.0529  0.6402
  662MOL0     H89370   5.157   3.347   4.942  1.0243 -0.9197 -0.4105
  663MOL0     O89371   4.706   3.823   0.087 -0.5854  0.2825  0.1749
  663MOL0     C89372   4.631   3.896   0.148 -0.0630 -0.3572  0.0678
  663MOL0     O89373   4.666   3.966   0.258  0.5961 -0.3356 -0.3604
  663MOL0     C89374   4.784   3.944   0.328 -0.4780 -0.3926 -0.0631
  663MOL0     C89375   4.858   3.815   0.327  0.0897  0.1127  0.2679
  663MOL0     C89376   4.987   3.811   0.390  0.8862  0.3662  0.2670
  663MOL0     C89377   5.033   3.921   0.455  1.0312 -0.3620  0.5140
  663MOL0     O89378   5.153   3.928   0.518 -0.1203  0.0017  0.2207
  663MOL0     C89379   5.265   3.929   0.432 -0.4116 -0.8054 -0.8725
  663MOL0     C89380   5.307   3.793   0.385 -0.1562  0.6731 -0.8346
  663MOL0     C89381   5.461   3.789   0.378 -0.4199  0.5908  0.0223
  663MOL0     C89382   5.516   3.708   0.497 -0.2363  0.1046  0.0391
  663MOL0     C89383   5.665   3.698   0.505 -0.2749 -0.8502  0.2640
  663MOL0     C89384   5.716   3.608   0.611 -0.7494  0.2689 -0.4385
  663MOL0     C89385   5.871   3.573   0.611 -0.3865  0.8333  0.1362
  663MOL0     C89386   5.898   3.466   0.503  0.2914 -0.2163 -0.1192
  663MOL0     N89387   6.039   3.453   0.476 -0.5750  0.2116 -0.9228
  663MOL0     C89388   6.130   3.370   0.523  0.6353  0.4051 -0.7701
  663MOL0     C89389   6.251   3.412   0.483  1.4050  0.3606 -0.1876
  663MOL0     C89390   6.366   3.360   0.556 -0.7905 -0.3858  0.3521
  663MOL0     C89391   6.372   3.417   0.705 -0.4760 -0.2753  0.2766
  663MOL0     C89392   6.484   3.350   0.778 -0.0729  0.4174  0.6385
  663MOL0     C89393   6.469   3.393   0.930  0.5238 -1.0072 -0.1028
  663MOL0     O89394   6.358   3.326   0.986 -0.3059 -0.0843 -0.0024
  663MOL0     C89395   6.342   3.350   1.115 -0.9078 -0.5274 -0.5477
  663MOL0     C89396   6.445   3.344   1.213  0.5105  0.2144 -0.6711
  663MOL0     C89397   6.419   3.354   1.353  0.4073 -0.7475 -0.2862
  663MOL0     C89398   6.545   3.343   1.431 -0.6604  0.5324 -0.2369
  663MOL0     C89399   6.283   3.360   1.384 -0.1902  0.1124  0.2330
  663MOL0     C89400   6.239   3.378   1.530 -0.0423  0.1856  0.3451
  663MOL0     O89401   6.117   3.333   1.550  0.7122  0.0316  0.6611
  663MOL0     C89402   6.058   3.327   1.676  0.5313  0.6436 -0.5619
  663MOL0     C89403   6.107   3.378   1.797  0.6486 -0.1725 -1.0810
  663MOL0     C89404   6.045   3.364   1.918  0.0019 -0.4884 -0.8549
  663MOL0     C89405   5.921   3.307   1.916 -0.2753 -0.6256 -0.1040
  663MOL0     O89406   5.842   3.305   2.033 -0.1370  0.0788  0.3651
  663MOL0     C89407   5.891   3.216   2.141 -0.3976  0.6483  0.4557
  663MOL0     C89408   5.828   3.257   2.267 -0.9385 -0.5873  1.1567
  663MOL0     C89409   5.895   3.384   2.331 -0.2881  0.4215 -0.8289
  663MOL0     C89410   5.847   3.414   2.470  0.7625 -0.4574  0.7393
  663MOL0     C89411   5.696   3.426   2.476  0.3505 -0.1785 -0.5432
  663MOL0     C89412   5.628   3.458   2.614  0.0123 -0.3283  1.0548
  663MOL0     C89413   5.672   3.587   2.672  0.4592  0.2043  0.0722
  663MOL0     C89414   5.574   3.656   2.765  0.0842 -0.2378 -0.0587
  663MOL0    Cl89415   5.611   3.576   2.925  0.6721  0.0179  0.0248
  663MOL0     C89416   5.864   3.253   1.796 -0.3449  0.5646 -0.4457
  663MOL0     C89417   5.929   3.260   1.670  0.1577 -0.5444 -0.0746
  663MOL0     O89418   6.323   3.394   1.621 -0.4226  0.7203 -0.0118
  663MOL0     C89419   6.171   3.370   1.295 -0.3977  0.3351 -0.7793
  663MOL0     C89420   6.211   3.360   1.162 -0.5615  0.5932 -0.0533
  663MOL0     N89421   6.242   3.515   0.395  1.1856 -0.4260  0.0613
  663MOL0     N89422   6.111   3.549   0.402 -0.2887 -0.1971  0.2893
  663MOL0     C89423   4.964   4.045   0.453  0.9470 -0.4405 -0.3646
  663MOL0     C89424   4.836   4.054   0.395 -0.6296 -0.2735  0.2395
  663MOL0     C89425   4.489   3.921   0.091  0.0116  1.8994 -0.1869
  663MOL0     C89426   4.462   3.892  -0.042 -0.4912  0.5761  0.2111
  663MOL0     C89427   4.333   3.911  -0.098 -0.2565 -0.4037 -1.1337
  663MOL0     C89428   4.227   3.949  -0.011  0.3302 -0.9983 -0.9186
  663MOL0     O89429   4.102   3.957  -0.065  0.1760 -0.1668  0.6838
  663MOL0     C89430   4.039   4.093  -0.045 -0.8118  0.6476  0.5579
  663MOL0     C89431   3.912   4.125  -0.130 -0.6555  0.5172  0.0454
  663MOL0     C89432   3.814   4.016  -0.124 -0.7771  0.5130  0.2298
  663MOL0     C89433   3.694   4.041  -0.204  0.5159  1.2214  0.2630
  663MOL0     C89434   3.608   4.150  -0.178 -0.1142 -1.2151  0.4991
  663MOL0     C89435   3.557   4.257  -0.159  0.4147  0.1874 -0.0887
  663MOL0     C89436   4.258   3.986   0.124  0.7860 -1.2243  0.5612
  663MOL0     C89437   4.391   3.971   0.171  0.5608 -0.6219 -0.3658
  663MOL0     H89438   4.805   3.734   0.278 -1.5182  0.3400  1.5450
  663MOL0     H89439   5.033   3.715   0.411 -1.0589 -0.7037 -0.2040
  663MOL0     H89440   5.253   4.005   0.355 -0.5008  0.4571  0.3375
  663MOL0     H89441   5.351   3.975   0.483 -0.0260  0.8739 -2.9025
  663MOL0     H89442   5.267   3.719   0.456 -2.3394 -3.1236 -5.4301
  663MOL0     H89443   5.265   3.780   0.285  0.7815 -2.4188 -0.9368
  663MOL0     H89444   5.495   3.721   0.299 -1.1515 -4.0145  3.2338
  663MOL0     H89445   5.501   3.889   0.360 -1.6062  0.8107 -1.5826
  663MOL0     H89446   5.484   3.762   0.587 -0.2271 -0.0045  0.1081
  663MOL0     H89447   5.465   3.611   0.500  1.6964 -1.0712 -1.9390
  663MOL0     H89448   5.710   3.674   0.408  1.0264  0.2702  0.5505
  663MOL0     H89449   5.710   3.795   0.531  0.8224 -0.6517 -2.1080
  663MOL0     H89450   5.694   3.637   0.714  2.7594 -1.1023  0.8073
  663MOL0     H89451   5.660   3.514   0.605 -0.6113 -0.1389  2.8038
  663MOL0     H89452   5.912   3.670   0.582 -0.6845  0.6337 -0.9959
  663MOL0     H89453   5.904   3.552   0.713 -2.7521  0.0757  0.8032
  663MOL0     H89454   5.841   3.493   0.413  0.3854  1.0846  0.1837
  663MOL0     H89455   5.850   3.371   0.527 -0.7958 -0.3233 -2.4433
  663MOL0     H89456   6.113   3.281   0.583 -0.9272  1.1445 -0.0540
  663MOL0     H89457   6.365   3.251   0.555 -1.3657 -0.4780 -3.6271
  663MOL0     H89458   6.460   3.393   0.510 -2.0974  2.4395 -0.5019
  663MOL0     H89459   6.279   3.388   0.754 -0.0960 -1.1410  0.5150
  663MOL0     H89460   6.381   3.525   0.691 -0.0458 -0.4481 -0.8938
  663MOL0     H89461   6.572   3.396   0.733 -2.7744  1.5122 -4.2669
  663MOL0     H89462   6.481   3.240   0.774 -1.0355  0.3484  2.3254
  663MOL0     H89463   6.445   3.500   0.926 -3.3731 -1.7840 -1.6333
  663MOL0     H89464   6.560   3.376   0.988  0.3086  3.4686  2.0028
  663MOL0     H89465   6.548   3.335   1.179  0.0847 -5.0929 -1.4092
  663MOL0     H89466   6.534   3.357   1.539  0.9611  0.6347 -0.0683
  663MOL0     H89467   6.597   3.250   1.407  1.9293  2.5268 -3.1020
  663MOL0     H89468   6.607   3.424   1.393  0.4291 -0.8309 -1.4467
  663MOL0     H89469   6.197   3.438   1.801  3.8286 -4.4863 -0.2696
  663MOL0     H89470   6.072   3.400   2.017  0.7822 -1.7659 -0.5782
  663MOL0     H89471   5.854   3.117   2.115 -3.4609  1.6553  0.5572
  663MOL0     H89472   6.000   3.209   2.138 -0.1275  3.5895 -1.2186
  663MOL0     H89473   5.720   3.268   2.251 -0.2210  5.6779 -3.1645
  663MOL0     H89474   5.837   3.175   2.339 -1.7574 -0.7502  1.0866
  663MOL0     H89475   5.878   3.469   2.265 -2.3453 -0.1454 -1.1059
  663MOL0     H89476   6.002   3.362   2.332 -0.2263  0.6063  0.9641
  663MOL0     H89477   5.871   3.335   2.542  1.3273  0.5844  1.7361
  663MOL0     H89478   5.892   3.511   2.497  1.5067 -1.4724  3.5221
  663MOL0     H89479   5.645   3.332   2.454 -4.7933  2.3720 -0.9482
  663MOL0     H89480   5.669   3.491   2.393  0.5273  0.4306 -0.1359
  663MOL0     H89481   5.522   3.456   2.588  0.4102 -4.4100 -1.1148
  663MOL0     H89482   5.650   3.373   2.679  4.9392  0.6219  1.0765
  663MOL0     H89483   5.699   3.654   2.590 -1.6454  1.5990  0.4308
  663MOL0     H89484   5.750   3.562   2.745 -0.1284  1.0714  1.0260
  663MOL0     H89485   5.468   3.638   2.743 -0.4393 -0.4901  2.4066
  663MOL0     H89486   5.609   3.760   2.769 -0.4948 -0.0399 -0.0680
  663MOL0     H89487   5.773   3.195   1.808  2.1305 -3.2544  1.9829
  663MOL0     H89488   5.903   3.226   1.571 -0.1889 -0.8011  0.1027
  663MOL0     H89489   6.069   3.392   1.326 -0.2149 -1.3781  1.2734
  663MOL0     H89490   6.138   3.371   1.082 -1.2309 -1.2372  0.2589
  663MOL0     H89491   4.993   4.135   0.507  2.0975 -0.0437 -1.5996
  663MOL0     H89492   4.775   4.144   0.402 -0.1624 -0.0560  2.2414
  663MOL0     H89493   4.544   3.853  -0.102  1.3051 -0.8948  3.3752
  663MOL0     H89494   4.311   3.893  -0.203 -0.2130 -2.4288 -0.8226
  663MOL0     H89495   4.004   4.095   0.058 -2.3047  0.8904  0.0676
  663MOL0     H89496   4.116   4.168  -0.067  0.4022 -0.8016 -0.3599
  663MOL0     H89497   3.944   4.130  -0.234 -1.3238 -2.3518 -0.3708
  663MOL0     H89498   3.867   4.221  -0.101 -2.1157 -0.3726  0.8945
  663MOL0     H89499   3.791   3.991  -0.020 -0.6343 -2.5256 -0.3710
  663MOL0     H89500   3.864   3.930  -0.170  3.3857  2.5726  0.5092
  663MOL0     H89501   3.633   3.951  -0.193 -0.7111  2.1564  1.3559
  663MOL0     H89502   3.726   4.046  -0.309  2.5025 -1.4533  0.6079
  663MOL0     H89503   3.503   4.344  -0.128  1.7970  2.8746 -4.4082
  663MOL0     H89504   4.179   4.029   0.184  1.3771 -0.0721  0.5261
  663MOL0     H89505   4.406   3.994   0.277 -2.4609  1.3769 -0.2424
  664MOL0     O89506   5.838   1.294  10.503  0.3799 -0.2064 -0.8858
  664MOL0     C89507   5.733   1.270  10.553  1.1100 -0.3133 -0.8688
  664MOL0     O89508   5.674   1.346  10.656 -0.6968  0.6402  0.1854
  664MOL0     C89509   5.736   1.461  10.695  0.3811 -0.0885 -1.0952
  664MOL0     C89510   5.841   1.459  10.793  0.4150 -0.2537  0.4895
  664MOL0     C89511   5.907   1.587  10.816 -0.2966 -0.1614 -0.4752
  664MOL0     C89512   5.851   1.717  10.772 -0.9808  0.9578 -0.5590
  664MOL0     O89513   5.922   1.827  10.800 -0.3440 -0.9514 -0.9388
  664MOL0     C89514   5.839   1.919  10.871  0.0490  0.0123  0.6061
  664MOL0     C89515   5.874   2.052  10.799 -0.2629  0.5285 -0.4200
  664MOL0     C89516   5.785   2.167  10.848 -0.0646  0.0599  0.1079
  664MOL0     C89517   5.775   2.192  11.001 -0.4751 -0.1918 -0.5662
  664MOL0     C89518   5.728   2.329  11.041 -1.0086  0.3122  0.1343
  664MOL0     C89519   5.656   2.349  11.175 -0.6484  0.0177 -0.5666
  664MOL0     C89520   5.534   2.278  11.174  0.9664 -0.7733  1.2334
  664MOL0     C89521   5.453   2.312  11.304 -0.0256 -0.2875 -0.3181
  664MOL0     N89522   5.386   2.444  11.314  0.1524 -0.6206  0.4395
  664MOL0     C89523   5.383   2.510  11.430 -0.0738  0.4588 -1.0395
  664MOL0     C89524   5.323   2.627  11.405  1.3841  0.5470 -0.0997
  664MOL0     C89525   5.292   2.741  11.494  0.2277 -0.8186  0.2636
  664MOL0     C89526   5.151   2.804  11.488 -0.5592 -0.0639  0.2597
  664MOL0     C89527   5.044   2.710  11.544  0.6399  0.0579 -0.1598
  664MOL0     C89528   4.902   2.757  11.515  0.2158  0.4187 -0.5072
  664MOL0     O89529   4.895   2.812  11.386  0.4280  0.4411  0.6477
  664MOL0     C89530   4.773   2.862  11.343  0.4205  0.8779  0.0032
  664MOL0     C89531   4.762   2.886  11.201 -0.2060  0.4059 -0.5973
  664MOL0     C89532   4.646   2.916  11.141  0.6894  0.3447 -0.0163
  664MOL0     C89533   4.641   2.946  10.998 -0.4925  0.4197  1.0079
  664MOL0     C89534   4.527   2.914  11.225 -0.1269  0.2574  0.5117
  664MOL0     C89535   4.402   2.962  11.167 -0.2252 -0.0278  0.5987
  664MOL0     O89536   4.389   3.084  11.108 -0.4423  0.0160 -0.2509
  664MOL0     C89537   4.267   3.131  11.068 -0.2103 -0.5862 -0.5671
  664MOL0     C89538   4.240   3.139  10.928 -0.0989  0.1905  0.1946
  664MOL0     C89539   4.117   3.170  10.881 -0.2131  0.6185  1.0273
  664MOL0     C89540   4.007   3.184  10.969  0.7023 -0.0685  0.2092
  664MOL0     O89541   3.887   3.234  10.916  0.0750  0.2961 -0.1375
  664MOL0     C89542   3.836   3.165  10.798  0.6868  0.1088 -0.1686
  664MOL0     C89543   3.690   3.209  10.784 -0.3283  1.4062  0.0460
  664MOL0     C89544   3.596   3.117  10.877  0.4829 -1.2521  0.1435
  664MOL0     C89545   3.452   3.176  10.903 -1.1509  0.2167 -0.5943
  664MOL0     C89546   3.447   3.325  10.957  0.5077 -1.0509  0.3937
  664MOL0     C89547   3.301   3.352  11.003 -0.5445  0.2538  1.0296
  664MOL0     C89548   3.264   3.501  11.033 -0.5248 -0.2018  0.4223
  664MOL0     C89549   3.114   3.545  11.003 -0.0542  1.6086  0.3219
  664MOL0    Cl89550   3.096   3.597  10.833 -0.1027 -0.6726  0.2917
  664MOL0     C89551   4.029   3.169  11.107 -0.3628 -0.4909  0.6511
  664MOL0     C89552   4.155   3.146  11.159 -0.4384 -0.1816  0.3567
  664MOL0     O89553   4.311   2.883  11.188  0.1826  0.0518 -0.2192
  664MOL0     C89554   4.528   2.871  11.357  0.1385 -0.6958  0.6541
  664MOL0     C89555   4.658   2.855  11.412  0.4614 -0.5110  0.0560
  664MOL0     N89556   5.303   2.630  11.267  0.2187  0.1337 -0.2671
  664MOL0     N89557   5.339   2.518  11.209 -0.4768 -1.4609 -0.2100
  664MOL0     C89558   5.743   1.702  10.683  0.1270 -0.0962 -0.6693
  664MOL0     C89559   5.689   1.582  10.648 -0.2243 -0.1000  0.6581
  664MOL0     C89560   5.649   1.166  10.482 -0.8171 -0.8823  0.0607
  664MOL0     C89561   5.507   1.151  10.508  0.1563  0.0587  0.0082
  664MOL0     C89562   5.438   1.050  10.439  1.0723  0.1863  0.1101
  664MOL0     C89563   5.497   0.978  10.347 -0.1382 -0.1649 -1.2267
  664MOL0     O89564   5.402   0.907  10.269 -1.2730  0.2253  0.1367
  664MOL0     C89565   5.449   0.773  10.226  0.6386 -0.5278  0.7446
  664MOL0     C89566   5.324   0.678  10.261 -1.2791 -0.0120  0.2781
  664MOL0     C89567   5.273   0.705  10.398  0.8318  0.3727 -0.3567
  664MOL0     C89568   5.167   0.596  10.443 -0.5780  0.7578 -0.3387
  664MOL0     C89569   5.213   0.457  10.451  0.3104 -0.3831  0.1773
  664MOL0     C89570   5.252   0.341  10.460  0.1731 -0.7788  0.5996
  664MOL0     C89571   5.631   0.994  10.311  0.4881 -0.5989 -0.8792
  664MOL0     C89572   5.704   1.090  10.376  0.4380 -1.1207 -0.2706
  664MOL0     H89573   5.879   1.365  10.831  2.0145 -0.3692 -1.2463
  664MOL0     H89574   5.991   1.579  10.883 -2.2100 -0.0205  2.0929
  664MOL0     H89575   5.730   1.906  10.869  0.0298  0.1924  0.4174
  664MOL0     H89576   5.882   1.931  10.970  1.4585 -0.0120  0.0201
  664MOL0     H89577   5.980   2.071  10.816 -0.0382 -1.3642  0.5717
  664MOL0     H89578   5.876   2.037  10.690 -0.2020 -3.5950 -0.0069
  664MOL0     H89579   5.829   2.258  10.806  2.6374 -0.7711  0.9505
  664MOL0     H89580   5.684   2.143  10.812 -0.7736  0.3143  1.8508
  664MOL0     H89581   5.707   2.116  11.040  2.9989 -3.4054 -0.2243
  664MOL0     H89582   5.875   2.174  11.040  0.4502 -3.6354 -3.8968
  664MOL0     H89583   5.825   2.379  11.030 -1.0200 -0.0060 -1.7567
  664MOL0     H89584   5.662   2.368  10.963  1.9306  2.3538 -1.5597
  664MOL0     H89585   5.704   2.317  11.268 -2.7817  1.3643  1.1233
  664MOL0     H89586   5.638   2.457  11.189  0.0997  0.3420 -1.9961
  664MOL0     H89587   5.473   2.293  11.085  1.2746 -2.6098  0.6649
  664MOL0     H89588   5.555   2.171  11.190 -2.0962 -1.7145 -0.3649
  664MOL0     H89589   5.514   2.296  11.393  0.4329  0.1183 -0.5508
  664MOL0     H89590   5.370   2.242  11.309 -1.8792  1.8325  0.1336
  664MOL0     H89591   5.401   2.458  11.523  2.8022  0.8300 -1.2807
  664MOL0     H89592   5.306   2.712  11.598 -4.3402  2.6200  2.1806
  664MOL0     H89593   5.363   2.822  11.472  0.8682 -1.2986  0.5559
  664MOL0     H89594   5.134   2.852  11.391  3.3593 -0.8540 -0.9969
  664MOL0     H89595   5.149   2.892  11.552 -2.0713 -1.8681  2.8452
  664MOL0     H89596   5.047   2.708  11.653 -4.1716  0.9854  0.2205
  664MOL0     H89597   5.068   2.613  11.499 -0.7342 -0.5487  0.3414
  664MOL0     H89598   4.878   2.830  11.593 -0.1349 -0.1504 -0.0673
  664MOL0     H89599   4.825   2.683  11.540  0.8655 -0.0237  0.2314
  664MOL0     H89600   4.850   2.860  11.143 -1.7273 -4.6012 -1.1271
  664MOL0     H89601   4.679   3.047  10.980 -1.4333  0.7883  0.9904
  664MOL0     H89602   4.708   2.878  10.944  2.9454  1.9048  3.1148
  664MOL0     H89603   4.542   2.933  10.953 -1.3670 -0.0417  2.9888
  664MOL0     H89604   4.319   3.108  10.861 -0.0688  2.8185 -1.1252
  664MOL0     H89605   4.113   3.188  10.774 -1.3592 -4.0510  0.0267
  664MOL0     H89606   3.881   3.187  10.701  1.4666  2.3542  0.6268
  664MOL0     H89607   3.828   3.059  10.822  2.1573  0.4295  2.1281
  664MOL0     H89608   3.681   3.317  10.802 -0.8539  0.9694  3.0025
  664MOL0     H89609   3.651   3.205  10.682  1.6447 -1.6888 -0.7277
  664MOL0     H89610   3.638   3.119  10.979 -0.1080  0.0272  0.3866
  664MOL0     H89611   3.570   3.022  10.830  0.5812 -1.2898  0.1643
  664MOL0     H89612   3.398   3.167  10.808  1.6007 -1.5882 -2.1384
  664MOL0     H89613   3.405   3.107  10.973 -1.3995  0.3195 -0.6605
  664MOL0     H89614   3.468   3.393  10.873 -0.7914 -0.0093  0.8761
  664MOL0     H89615   3.520   3.340  11.036 -0.8789  0.2865  1.4920
  664MOL0     H89616   3.232   3.315  10.927 -0.3327  1.0273  0.4444
  664MOL0     H89617   3.280   3.285  11.087  3.0532 -0.9679  1.1151
  664MOL0     H89618   3.333   3.559  10.971 -0.7889 -2.2024 -1.8898
  664MOL0     H89619   3.289   3.521  11.138  4.1192 -2.1027 -0.0902
  664MOL0     H89620   3.088   3.624  11.075 -3.4173 -0.6306  1.8654
  664MOL0     H89621   3.043   3.466  11.030 -1.2829  2.5651 -0.0079
  664MOL0     H89622   3.946   3.188  11.175 -0.8160 -0.7363  0.1771
  664MOL0     H89623   4.180   3.144  11.265 -1.1734 -1.9303  0.5383
  664MOL0     H89624   4.437   2.867  11.415 -0.0998 -1.9916  0.2250
  664MOL0     H89625   4.659   2.848  11.521 -4.0001 -2.1082  0.1902
  664MOL0     H89626   5.707   1.801  10.658  0.9765  0.2403 -0.6136
  664MOL0     H89627   5.608   1.565  10.577 -0.7777 -2.7164  1.8013
  664MOL0     H89628   5.459   1.218  10.578 -0.5948  0.4274 -0.8381
  664MOL0     H89629   5.333   1.037  10.462  0.1452  3.3598 -1.6513
  664MOL0     H89630   5.464   0.796  10.120 -1.4825 -0.1268  0.5040
  664MOL0     H89631   5.542   0.746  10.277  1.9863  0.2009 -1.1779
  664MOL0     H89632   5.370   0.579  10.254  0.1815  0.4125  2.7902
  664MOL0     H89633   5.246   0.686  10.184 -1.4028 -0.7254  0.3251
  664MOL0     H89634   5.229   0.805  10.399  1.8816  0.8712 -1.4359
  664MOL0     H89635   5.351   0.711  10.475  0.6763  3.7819 -0.3111
  664MOL0     H89636   5.080   0.586  10.377 -0.2269  2.2899 -1.0840
  664MOL0     H89637   5.123   0.622  10.540 -0.3266  1.4321 -0.4014
  664MOL0     H89638   5.279   0.238  10.463 -1.8060 -1.5293 -2.4477
  664MOL0     H89639   5.668   0.930  10.231 -0.2213  0.5525 -2.1824
  664MOL0     H89640   5.807   1.103  10.343  0.3217  0.9907  0.0281
  665MOL0     O89641   6.243  10.173   9.092 -0.0023 -1.0907  0.5138
  665MOL0     C89642   6.357  10.194   9.105  0.6249  0.7296  0.0042
  665MOL0     O89643   6.418  10.295   9.177  0.5993 -0.0523  0.3800
  665MOL0     C89644   6.352  10.371   9.268 -0.4825  0.2036 -0.9403
  665MOL0     C89645   6.396  10.501   9.292  0.4733 -0.9064 -0.3177
  665MOL0     C89646   6.337  10.594   9.379  0.7521  0.8335 -0.2387
  665MOL0     C89647   6.236  10.549   9.459 -0.6027 -0.0268  0.0845
  665MOL0     O89648   6.185  10.647   9.540 -0.6511  0.2364  0.3140
  665MOL0     C89649   6.087  10.618   9.643 -0.7557 -0.3059  0.0079
  665MOL0     C89650   6.065  10.747   9.716 -0.3071 -0.3098  0.0798
  665MOL0     C89651   5.960  10.844   9.666  0.3412 -0.3244  1.1386
  665MOL0     C89652   5.933  10.943   9.787 -0.4247 -1.1166 -0.2531
  665MOL0     C89653   5.810  11.028   9.761 -0.1696  0.1476  0.5919
  665MOL0     C89654   5.773  11.114   9.881  0.1112  0.9241  0.3421
  665MOL0     C89655   5.699  11.030   9.992  1.1267 -0.2170 -0.4346
  665MOL0     C89656   5.623  11.125  10.095  0.1211 -0.5694 -0.9388
  665MOL0     N89657   5.696  11.252  10.121 -0.9763  0.7048 -0.1399
  665MOL0     C89658   5.817  11.264  10.187 -0.3579  0.2429 -1.0935
  665MOL0     C89659   5.842  11.392  10.199  0.1921 -0.6603  0.6003
  665MOL0     C89660   5.970  11.444  10.257 -0.6797 -0.0038  1.0178
  665MOL0     C89661   5.964  11.581  10.311 -0.7822 -0.7317 -0.1151
  665MOL0     C89662   6.096  11.632  10.366  0.0350  0.3677 -0.1466
  665MOL0     C89663   6.088  11.781  10.409  0.0216  0.4507  0.4133
  665MOL0     O89664   5.974  11.792  10.499  0.6227  0.4729 -0.6110
  665MOL0     C89665   5.946  11.919  10.539  0.4806 -1.1150  0.2893
  665MOL0     C89666   5.888  12.009  10.448 -0.1836 -0.2380 -0.9012
  665MOL0     C89667   5.849  12.138  10.478 -1.3263 -0.1981 -0.4792
  665MOL0     C89668   5.792  12.216  10.364  0.7198  0.5894 -0.1448
  665MOL0     C89669   5.856  12.185  10.615  0.2345  0.0101  0.6060
  665MOL0     C89670   5.812  12.320  10.659 -0.0194 -0.1183  0.2254
  665MOL0     O89671   5.796  12.339  10.794  0.1473  0.2670 -0.0757
  665MOL0     C89672   5.777  12.460  10.850 -0.3373  0.1311  0.0770
  665MOL0     C89673   5.842  12.487  10.976  0.4674 -0.1556  0.4607
  665MOL0     C89674   5.818  12.604  11.052  0.2286 -0.1237  0.6058
  665MOL0     C89675   5.721  12.696  11.011  0.0966 -0.2753 -1.4705
  665MOL0     O89676   5.673  12.809  11.071  0.0659  0.0352 -0.1217
  665MOL0     C89677   5.731  12.870  11.190 -0.3050  0.8657  1.0014
  665MOL0     C89678   5.628  12.898  11.297 -0.3786 -0.0103 -0.2732
  665MOL0     C89679   5.588  13.040  11.313  0.2008 -0.4669  0.3873
  665MOL0     C89680   5.558  13.115  11.182 -0.5627 -0.3094 -0.7734
  665MOL0     C89681   5.529  13.259  11.215 -1.1859  0.0244 -0.7073
  665MOL0     C89682   5.526  13.343  11.093  1.1441  0.0356  0.4270
  665MOL0     C89683   5.405  13.307  11.004  0.4795  0.0358  1.0145
  665MOL0     C89684   5.369  13.425  10.906 -1.1984  0.7763 -0.6598
  665MOL0    Cl89685   5.484  13.455  10.768 -0.0245  0.5367  0.4180
  665MOL0     C89686   5.659  12.670  10.887 -1.3747  0.1716 -0.7582
  665MOL0     C89687   5.679  12.553  10.809  0.0789  0.3611  0.4446
  665MOL0     O89688   5.809  12.412  10.575  0.5324  0.3127 -0.5960
  665MOL0     C89689   5.909  12.100  10.703  0.2802  0.4201  1.0576
  665MOL0     C89690   5.955  11.969  10.665  0.1619  0.2588  0.1099
  665MOL0     N89691   5.736  11.461  10.142 -0.2941  0.5032 -0.4482
  665MOL0     N89692   5.650  11.378  10.090  0.0626 -0.6663 -0.8286
  665MOL0     C89693   6.200  10.410   9.443 -0.2799  0.1600  1.3668
  665MOL0     C89694   6.250  10.326   9.348 -0.9551  0.6843 -1.0384
  665MOL0     C89695   6.442  10.123   9.011 -0.6398  1.4555  0.7344
  665MOL0     C89696   6.586  10.134   9.029 -0.2428 -0.5236 -0.3099
  665MOL0     C89697   6.673  10.060   8.961 -0.8265  0.3902  0.1560
  665MOL0     C89698   6.626   9.968   8.861 -0.6611 -0.0191 -0.7634
  665MOL0     O89699   6.717   9.902   8.801  0.0716 -0.3302  0.1927
  665MOL0     C89700   6.693   9.832   8.681  0.9418 -0.4048 -0.0398
  665MOL0     C89701   6.668   9.686   8.698  0.5870 -0.0703  0.4643
  665MOL0     C89702   6.786   9.611   8.768  0.5806  0.4021 -0.1335
  665MOL0     C89703   6.790   9.644   8.916 -0.8434  0.5470  0.1416
  665MOL0     C89704   6.880   9.544   8.983  0.2819  0.3799  0.5221
  665MOL0     C89705   6.948   9.450   9.033 -0.0042  0.1681  0.0521
  665MOL0     C89706   6.494   9.937   8.858  0.1569 -0.1670  0.3979
  665MOL0     C89707   6.404  10.016   8.930  0.2159 -0.1351 -0.4829
  665MOL0     H89708   6.461  10.537   9.214 -1.9537 -1.2191 -2.6258
  665MOL0     H89709   6.362  10.700   9.371  1.4273  0.7545  0.6616
  665MOL0     H89710   6.002  10.565   9.601 -1.9946 -0.7170  2.8479
  665MOL0     H89711   6.136  10.552   9.715  1.0040  2.3627  1.4574
  665MOL0     H89712   6.035  10.722   9.818 -0.4377  1.3952  0.4930
  665MOL0     H89713   6.157  10.807   9.713 -1.1573  1.0383  0.0838
  665MOL0     H89714   5.994  10.899   9.578 -2.5697  1.2938  0.8743
  665MOL0     H89715   5.866  10.795   9.637  0.7308 -0.3902 -0.0827
  665MOL0     H89716   5.931  10.885   9.879 -0.5168 -0.6900  0.0163
  665MOL0     H89717   6.018  11.006   9.815 -1.1123 -0.3775  0.2066
  665MOL0     H89718   5.828  11.096   9.677  0.3380  2.0492  2.1887
  665MOL0     H89719   5.720  10.968   9.743 -0.0159 -0.4510  1.7150
  665MOL0     H89720   5.861  11.174   9.905  0.3827  2.0485 -2.9211
  665MOL0     H89721   5.700  11.187   9.844  1.8556  1.1154 -3.2001
  665MOL0     H89722   5.625  10.961   9.951  2.0350 -1.8643  0.5933
  665MOL0     H89723   5.774  10.970  10.045  2.4033  0.7111 -1.1435
  665MOL0     H89724   5.616  11.076  10.192 -1.7413 -0.1121 -0.7988
  665MOL0     H89725   5.523  11.140  10.052 -0.1443 -3.0793 -1.3581
  665MOL0     H89726   5.863  11.177  10.233 -1.7172  0.6765  1.2526
  665MOL0     H89727   6.008  11.381  10.338  2.6743  1.4316  0.7419
  665MOL0     H89728   6.048  11.432  10.181 -1.0314 -0.9942  0.7941
  665MOL0     H89729   5.885  11.572  10.386 -1.7491  0.4551 -0.9483
  665MOL0     H89730   5.925  11.648  10.234  1.8281  1.0764  0.0345
  665MOL0     H89731   6.172  11.627  10.287  1.4278  1.3861  1.0677
  665MOL0     H89732   6.117  11.568  10.452 -0.8400 -0.0706 -0.2483
  665MOL0     H89733   6.093  11.833  10.313  2.9117 -2.1474 -1.0401
  665MOL0     H89734   6.184  11.797  10.458 -0.0515 -0.1223  0.7539
  665MOL0     H89735   5.871  11.987  10.343  0.0420  0.0299 -0.9954
  665MOL0     H89736   5.775  12.168  10.267  2.9181 -0.8824  0.1221
  665MOL0     H89737   5.695  12.248  10.402  0.4441  1.5529 -1.5637
  665MOL0     H89738   5.862  12.299  10.352  1.5866 -0.1906 -0.6810
  665MOL0     H89739   5.922  12.426  11.017  1.4868  1.0578  0.3693
  665MOL0     H89740   5.884  12.611  11.138 -1.6935  1.2989  2.0612
  665MOL0     H89741   5.807  12.803  11.231  0.0843 -1.2658 -2.7764
  665MOL0     H89742   5.780  12.961  11.155 -1.5063  0.8730 -0.7895
  665MOL0     H89743   5.540  12.837  11.275 -1.4318  1.5614 -0.6202
  665MOL0     H89744   5.658  12.860  11.395 -1.0929  1.4373  0.5378
  665MOL0     H89745   5.675  13.089  11.357  0.9970 -3.3209  2.2724
  665MOL0     H89746   5.509  13.051  11.388  0.9470 -0.4700  1.1934
  665MOL0     H89747   5.655  13.117  11.132  0.2231  3.1210  0.6238
  665MOL0     H89748   5.484  13.059  11.123 -0.1794 -2.5413  0.7344
  665MOL0     H89749   5.612  13.301  11.271 -0.0966 -2.3250 -0.4539
  665MOL0     H89750   5.431  13.266  11.264 -1.5413  1.6696 -1.5860
  665MOL0     H89751   5.516  13.446  11.130  2.8948  0.3350  0.1358
  665MOL0     H89752   5.628  13.334  11.055  1.0899  1.6115 -0.1605
  665MOL0     H89753   5.328  13.290  11.080  2.5553  1.3460  3.6080
  665MOL0     H89754   5.414  13.220  10.939  0.2600 -0.5092  1.6938
  665MOL0     H89755   5.389  13.516  10.964  1.2233 -1.6170  2.6898
  665MOL0     H89756   5.272  13.402  10.861 -0.2958  0.3718 -2.4945
  665MOL0     H89757   5.583  12.739  10.852 -0.6876  2.1720  1.4167
  665MOL0     H89758   5.619  12.525  10.723 -1.5958 -2.2853  2.3340
  665MOL0     H89759   5.902  12.125  10.809  1.5952 -1.0173  1.5230
  665MOL0     H89760   5.994  11.904  10.744 -0.5212  0.8579  0.9532
  665MOL0     H89761   6.131  10.364   9.513 -0.7433  0.6158  1.2192
  665MOL0     H89762   6.208  10.227   9.347  0.6408 -0.0500 -0.0375
  665MOL0     H89763   6.626  10.209   9.096  0.7785  0.7266 -2.2359
  665MOL0     H89764   6.777  10.065   8.990 -1.2837 -0.6442  2.1617
  665MOL0     H89765   6.611   9.873   8.622  0.5787  0.6089  1.1359
  665MOL0     H89766   6.781   9.844   8.617 -0.3017  1.9842 -1.4281
  665MOL0     H89767   6.637   9.649   8.599 -4.2967 -0.7769  1.9820
  665MOL0     H89768   6.574   9.669   8.751 -0.0654 -1.3202 -0.9904
  665MOL0     H89769   6.879   9.634   8.715  0.2741  1.5576 -0.1833
  665MOL0     H89770   6.758   9.507   8.750 -2.6706  0.8373  1.6709
  665MOL0     H89771   6.691   9.628   8.959  0.7676 -1.8652  3.3245
  665MOL0     H89772   6.833   9.740   8.946  2.0968 -0.0481 -1.6997
  665MOL0     H89773   7.005   9.373   9.081 -2.6871 -1.4040  0.9524
  665MOL0     H89774   6.469   9.840   8.815 -4.3605 -0.4195  2.9472
  665MOL0     H89775   6.300   9.985   8.921  0.9817 -2.3476 -3.4919
  666MOL0     O89776   9.511   8.571  10.279  1.0786  0.7044  0.4108
  666MOL0     C89777   9.458   8.659  10.212 -0.1142  0.2809  0.0025
  666MOL0     O89778   9.360   8.647  10.125  0.0573 -0.0721  0.1879
  666MOL0     C89779   9.312   8.523  10.093 -0.3998 -0.4560 -0.9089
  666MOL0     C89780   9.177   8.511  10.062 -0.8205 -0.1285 -0.1737
  666MOL0     C89781   9.118   8.389  10.037 -0.3434  0.8438 -0.2302
  666MOL0     C89782   9.203   8.267  10.032 -0.4929  0.3302  0.5945
  666MOL0     O89783   9.145   8.150   9.990  0.1362  0.5811 -1.0244
  666MOL0     C89784   9.104   8.138   9.853 -0.1727 -0.2687 -0.4413
  666MOL0     C89785   9.128   8.006   9.793 -0.3574  0.6145 -0.3440
  666MOL0     C89786   9.075   7.889   9.888  0.7165  0.1870  0.2473
  666MOL0     C89787   9.174   7.836   9.993 -0.6443 -0.4552 -0.1635
  666MOL0     C89788   9.256   7.727   9.933  0.1974 -0.4503 -0.6716
  666MOL0     C89789   9.346   7.646  10.029 -0.2169 -0.1287 -0.9894
  666MOL0     C89790   9.278   7.570  10.153 -0.3698  0.6246 -0.1806
  666MOL0     C89791   9.163   7.480  10.109 -0.7571 -0.5285  0.3683
  666MOL0     N89792   9.086   7.421  10.228  0.3124 -0.0476  1.0970
  666MOL0     C89793   9.023   7.482  10.336  0.5191  0.2193  0.2915
  666MOL0     C89794   8.970   7.378  10.401  0.0545 -0.8304  0.2151
  666MOL0     C89795   8.886   7.392  10.533  0.1607 -0.1223  0.2997
  666MOL0     C89796   8.729   7.351  10.512 -0.2177  0.2364  0.0787
  666MOL0     C89797   8.639   7.367  10.635  0.0117  0.5873 -0.0208
  666MOL0     C89798   8.491   7.343  10.597  0.4083 -0.3968  0.4672
  666MOL0     O89799   8.467   7.209  10.536  0.2845 -0.3438 -1.0851
  666MOL0     C89800   8.349   7.193  10.471 -0.1256 -0.0974 -1.3175
  666MOL0     C89801   8.341   7.089  10.384 -0.3156  0.0762 -0.1881
  666MOL0     C89802   8.233   7.065  10.301 -0.1097  0.4220 -0.0812
  666MOL0     C89803   8.235   6.950  10.205 -0.4470  0.2413  0.8361
  666MOL0     C89804   8.125   7.155  10.306  0.7388 -0.1748 -0.2476
  666MOL0     C89805   7.998   7.140  10.241  0.0062  0.0941  0.8597
  666MOL0     O89806   7.892   7.218  10.293 -1.1290  0.2274  1.1736
  666MOL0     C89807   7.782   7.244  10.213  0.1371 -0.9545 -0.5005
  666MOL0     C89808   7.780   7.269  10.074  0.4031 -0.0873 -0.5388
  666MOL0     C89809   7.663   7.285  10.003 -0.4307  0.1110 -1.2815
  666MOL0     C89810   7.542   7.290  10.064  0.2195  0.1924  0.6557
  666MOL0     O89811   7.423   7.295   9.999 -0.1799 -1.1842  0.8450
  666MOL0     C89812   7.377   7.181   9.934  0.5306  0.7756  0.8948
  666MOL0     C89813   7.277   7.215   9.829 -1.2085 -0.1944  0.0399
  666MOL0     C89814   7.200   7.341   9.865  0.1902  0.3336  1.8825
  666MOL0     C89815   7.135   7.337  10.003  0.0239  0.2570 -0.4763
  666MOL0     C89816   7.030   7.449  10.024  0.6945  0.0315 -0.5063
  666MOL0     C89817   6.884   7.394  10.012 -0.5021  1.3602  0.2541
  666MOL0     C89818   6.792   7.511   9.997  0.2267  0.9099 -0.7321
  666MOL0     C89819   6.753   7.577  10.141 -1.4607 -0.4710  0.1916
  666MOL0    Cl89820   6.670   7.467  10.246 -0.5120  0.0208  0.7018
  666MOL0     C89821   7.542   7.280  10.206  0.4126 -0.3399  0.6077
  666MOL0     C89822   7.656   7.256  10.283 -0.0074 -0.5815  0.1638
  666MOL0     O89823   7.987   7.070  10.142 -0.0292  0.1685 -0.2342
  666MOL0     C89824   8.130   7.255  10.403  0.7253  0.6358 -0.8447
  666MOL0     C89825   8.247   7.282  10.476  0.6279 -0.1691 -0.3490
  666MOL0     N89826   8.994   7.261  10.341 -0.5587 -0.0702  0.5707
  666MOL0     N89827   9.073   7.285  10.239  0.4856  0.1377  0.7571
  666MOL0     C89828   9.343   8.279  10.042  0.8470  0.4955 -0.5897
  666MOL0     C89829   9.396   8.406  10.084 -0.4194 -0.2730  0.7056
  666MOL0     C89830   9.504   8.799  10.230 -0.4257 -0.0356 -0.9939
  666MOL0     C89831   9.595   8.837  10.339  0.0248 -0.4619  0.4658
  666MOL0     C89832   9.649   8.968  10.345 -0.2752 -0.1189  0.1754
  666MOL0     C89833   9.597   9.072  10.263 -0.1781  0.5661 -0.2884
  666MOL0     O89834   9.634   9.200  10.278 -0.6759  0.4148  1.1105
  666MOL0     C89835   9.596   9.255  10.402 -0.5030  0.1273  0.3892
  666MOL0     C89836   9.686   9.372  10.432  0.0140  0.0881  0.9215
  666MOL0     C89837   9.652   9.480  10.325 -0.2471 -0.3452 -0.6033
  666MOL0     C89838   9.727   9.609  10.364  0.3808 -0.0546 -0.2150
  666MOL0     C89839   9.740   9.705  10.257 -0.1383 -0.3965  0.3693
  666MOL0     C89840   9.746   9.776  10.159 -0.4402 -0.2389  0.5520
  666MOL0     C89841   9.499   9.035  10.171 -1.3394 -0.4353  0.5050
  666MOL0     C89842   9.453   8.904  10.154  0.0906 -0.4758  0.3716
  666MOL0     H89843   9.122   8.604  10.064  1.3267  1.2039 -0.4661
  666MOL0     H89844   9.012   8.376  10.016  0.1599 -3.1987 -0.9290
  666MOL0     H89845   9.005   8.176   9.825  0.5446  0.9198 -1.5247
  666MOL0     H89846   9.173   8.209   9.805 -0.5367 -0.7554 -1.7447
  666MOL0     H89847   9.087   8.000   9.692  1.4856  0.3963 -1.1109
  666MOL0     H89848   9.236   7.997   9.784 -0.1439  1.2022  1.2690
  666MOL0     H89849   8.985   7.932   9.933 -1.6607 -3.7045 -0.3189
  666MOL0     H89850   9.038   7.806   9.826 -2.6322  0.3096  1.8446
  666MOL0     H89851   9.246   7.911  10.028  0.9325 -2.1125  0.2593
  666MOL0     H89852   9.122   7.807  10.084 -1.8008  2.6995  0.3207
  666MOL0     H89853   9.175   7.663   9.897  0.7965 -2.0340  0.6169
  666MOL0     H89854   9.312   7.766   9.847  1.1178  4.1548  1.7094
  666MOL0     H89855   9.402   7.576   9.965 -1.4793 -1.7490 -0.3864
  666MOL0     H89856   9.426   7.701  10.079 -0.9961 -0.9513  1.2831
  666MOL0     H89857   9.352   7.506  10.201 -0.4768 -0.3596 -1.2648
  666MOL0     H89858   9.251   7.642  10.230  1.3635 -2.3122  3.4853
  666MOL0     H89859   9.194   7.398  10.043  0.0457 -0.2967  0.4497
  666MOL0     H89860   9.091   7.548  10.064  0.1089 -0.5470 -1.0863
  666MOL0     H89861   9.025   7.590  10.347 -1.9694  0.4888 -1.2980
  666MOL0     H89862   8.927   7.331  10.614 -2.4812  1.3769  3.0027
  666MOL0     H89863   8.905   7.493  10.571  1.5548 -1.3403  3.1679
  666MOL0     H89864   8.721   7.247  10.481 -0.6899 -1.0197  3.9513
  666MOL0     H89865   8.688   7.416  10.434  1.1861 -1.7659 -2.4863
  666MOL0     H89866   8.652   7.466  10.679  0.2049  1.5926 -2.2194
  666MOL0     H89867   8.654   7.286  10.707  1.8121  0.5894 -0.3371
  666MOL0     H89868   8.464   7.417  10.521 -1.6419 -2.3375 -0.8328
  666MOL0     H89869   8.425   7.357  10.683  0.5767 -0.3619  0.5899
  666MOL0     H89870   8.419   7.017  10.361  0.6265  0.1814  2.3877
  666MOL0     H89871   8.327   6.893  10.218 -0.7330 -0.3256  0.3807
  666MOL0     H89872   8.142   6.896  10.224 -1.0226  1.4945  1.7607
  666MOL0     H89873   8.237   6.974  10.099 -2.1018  3.1947  1.3401
  666MOL0     H89874   7.866   7.271  10.008 -0.9117  2.1656 -2.3804
  666MOL0     H89875   7.666   7.293   9.895  0.1882  2.1891 -1.1515
  666MOL0     H89876   7.457   7.121   9.889 -1.8531 -0.4679 -2.0508
  666MOL0     H89877   7.338   7.120  10.015 -0.7708 -0.4845 -0.6195
  666MOL0     H89878   7.325   7.220   9.731 -0.9603  1.9593  0.2267
  666MOL0     H89879   7.206   7.133   9.813  0.2980 -0.9264 -4.1780
  666MOL0     H89880   7.118   7.368   9.797  1.1058 -0.1626  0.5309
  666MOL0     H89881   7.259   7.433   9.860 -0.3514  0.6318 -1.4302
  666MOL0     H89882   7.079   7.242  10.001 -0.3674  0.2286  3.4218
  666MOL0     H89883   7.204   7.326  10.087 -0.4201 -0.5359 -0.1998
  666MOL0     H89884   7.056   7.537   9.964 -1.5676 -0.8766 -3.0218
  666MOL0     H89885   7.043   7.477  10.129 -1.4001 -0.5924 -0.0228
  666MOL0     H89886   6.881   7.335   9.920  1.9249 -0.0129  0.9814
  666MOL0     H89887   6.859   7.342  10.105  2.1066  3.6723  2.4301
  666MOL0     H89888   6.700   7.471   9.954 -1.4248  0.6683  2.6339
  666MOL0     H89889   6.830   7.585   9.926  1.1345 -0.5423 -1.8010
  666MOL0     H89890   6.718   7.681  10.135 -1.3435 -0.3139  1.8639
  666MOL0     H89891   6.853   7.592  10.183 -1.1378 -1.1843 -0.3121
  666MOL0     H89892   7.443   7.285  10.250 -1.7707 -1.5926 -3.6212
  666MOL0     H89893   7.643   7.234  10.389 -2.1273  0.2030  0.0963
  666MOL0     H89894   8.048   7.321  10.429  0.2376  0.1881 -1.2152
  666MOL0     H89895   8.259   7.363  10.547  1.8333  1.1088 -1.9322
  666MOL0     H89896   9.404   8.200  10.001 -0.7068 -0.3094 -1.4524
  666MOL0     H89897   9.500   8.433  10.093 -0.2526  0.0677 -1.5076
  666MOL0     H89898   9.648   8.760  10.395  0.0622 -3.3726 -3.1816
  666MOL0     H89899   9.721   8.986  10.424 -2.1126 -1.5485  2.2824
  666MOL0     H89900   9.496   9.297  10.387 -1.9222 -3.1059 -0.0239
  666MOL0     H89901   9.581   9.190  10.488  0.3957 -1.4786 -0.6070
  666MOL0     H89902   9.785   9.330  10.413 -1.6475 -3.3588 -0.9319
  666MOL0     H89903   9.676   9.398  10.538 -0.8866 -0.6348  1.0201
  666MOL0     H89904   9.543   9.489  10.318 -0.1922  1.0977 -0.1096
  666MOL0     H89905   9.681   9.452  10.223  2.3873  1.9446 -0.6015
  666MOL0     H89906   9.828   9.585  10.399  0.7109  1.6272  0.0850
  666MOL0     H89907   9.669   9.661  10.441  1.6362 -0.7798  1.2756
  666MOL0     H89908   9.734   9.825  10.065 -4.0720  1.7283  1.8612
  666MOL0     H89909   9.452   9.124  10.132  1.1198  0.5650 -0.3841
  666MOL0     H89910   9.362   8.890  10.096 -0.0323  0.5316  0.3041
  667MOL0     O89911   3.993   5.665   2.908  0.2631 -0.5517 -0.8566
  667MOL0     C89912   3.935   5.757   2.844  0.1563  0.1054 -0.8033
  667MOL0     O89913   3.942   5.892   2.870  0.6212 -0.8000 -0.1943
  667MOL0     C89914   4.025   5.920   2.977  0.2690 -1.2202  0.1659
  667MOL0     C89915   4.157   5.963   2.953 -0.5348 -0.8679  0.1529
  667MOL0     C89916   4.239   5.998   3.060  0.7484 -0.4742  0.1016
  667MOL0     C89917   4.198   6.009   3.192 -0.1830 -0.2307 -1.0793
  667MOL0     O89918   4.282   6.033   3.296 -0.2535  0.0332  0.7887
  667MOL0     C89919   4.246   6.143   3.381  0.0271  0.6641  0.6192
  667MOL0     C89920   4.360   6.203   3.470  0.5291 -0.4626  0.5681
  667MOL0     C89921   4.486   6.219   3.384  0.1429 -0.9583  0.0825
  667MOL0     C89922   4.605   6.265   3.467  0.1686  0.1859  0.3064
  667MOL0     C89923   4.731   6.234   3.389 -0.6143  0.5366  0.9090
  667MOL0     C89924   4.862   6.299   3.443 -0.0009  0.5347  0.2286
  667MOL0     C89925   4.968   6.241   3.345  1.4003 -0.0336  0.0103
  667MOL0     C89926   5.102   6.312   3.356  0.6287  0.2835  0.4089
  667MOL0     N89927   5.189   6.279   3.242 -0.4430  0.4403 -0.5434
  667MOL0     C89928   5.224   6.154   3.195  0.9858  0.1512  0.5488
  667MOL0     C89929   5.317   6.179   3.097 -0.4028  0.8285  0.8685
  667MOL0     C89930   5.395   6.101   2.998  0.1557  0.2306  0.6091
  667MOL0     C89931   5.540   6.091   3.024 -0.3888  0.9783 -0.5353
  667MOL0     C89932   5.604   6.027   2.898  0.1558 -0.2170 -0.1368
  667MOL0     C89933   5.753   6.029   2.900  0.8194 -0.1955 -0.4772
  667MOL0     O89934   5.799   5.969   2.784 -0.0373 -0.6173 -0.0732
  667MOL0     C89935   5.910   6.020   2.720  0.5715 -0.4946 -1.1482
  667MOL0     C89936   6.027   5.950   2.713 -0.0086  0.1914  0.1377
  667MOL0     C89937   6.135   5.993   2.635  0.0501  0.4685 -0.7068
  667MOL0     C89938   6.255   5.902   2.634  0.9121  0.2847  0.0686
  667MOL0     C89939   6.126   6.115   2.570 -0.0582 -0.1621  0.0014
  667MOL0     C89940   6.242   6.160   2.487 -1.0641 -0.6501  0.8352
  667MOL0     O89941   6.207   6.177   2.349  0.0756  0.8909 -0.0485
  667MOL0     C89942   6.290   6.221   2.247 -0.1302 -0.2607 -0.6375
  667MOL0     C89943   6.429   6.272   2.267 -1.1691 -0.3829  0.0559
  667MOL0     C89944   6.508   6.294   2.149 -0.0238 -0.0354  0.1989
  667MOL0     C89945   6.440   6.279   2.025  0.0513 -0.5214  0.2198
  667MOL0     O89946   6.510   6.326   1.917  1.0267 -0.6339  0.1535
  667MOL0     C89947   6.464   6.300   1.784  0.8042  0.1144  0.6370
  667MOL0     C89948   6.572   6.350   1.690  0.3825  0.2323 -0.3677
  667MOL0     C89949   6.530   6.295   1.550  0.0890 -0.0674 -0.3128
  667MOL0     C89950   6.576   6.376   1.416 -0.8241 -0.2872 -0.5812
  667MOL0     C89951   6.519   6.315   1.282  0.3294  0.3539 -1.0942
  667MOL0     C89952   6.376   6.326   1.253 -1.0535  0.8333  0.8928
  667MOL0     C89953   6.352   6.255   1.118  0.4135  0.1518  0.9902
  667MOL0     C89954   6.317   6.349   0.991 -0.2865  0.4479  0.0342
  667MOL0    Cl89955   6.172   6.442   1.049  0.3567 -0.9461  0.0034
  667MOL0     C89956   6.306   6.263   2.014 -0.7175 -0.2475  0.7625
  667MOL0     C89957   6.233   6.224   2.122  0.2875 -0.8998 -1.3937
  667MOL0     O89958   6.358   6.174   2.536  0.2232  0.6504  1.0053
  667MOL0     C89959   6.015   6.195   2.581 -0.5139 -0.0742 -0.1657
  667MOL0     C89960   5.904   6.144   2.653  0.3265 -0.0898 -0.6302
  667MOL0     N89961   5.341   6.313   3.089  1.2384  0.2368 -0.4802
  667MOL0     N89962   5.265   6.371   3.178  0.1361  0.0975  0.0816
  667MOL0     C89963   4.066   5.974   3.218 -0.1242  0.7305  0.1803
  667MOL0     C89964   3.981   5.934   3.112  1.0309  0.8339 -0.4441
  667MOL0     C89965   3.829   5.721   2.755 -0.2102 -0.4158  0.2737
  667MOL0     C89966   3.759   5.825   2.685 -0.2967 -0.2565 -0.1824
  667MOL0     C89967   3.642   5.792   2.615 -0.1263  0.4398 -0.1030
  667MOL0     C89968   3.599   5.661   2.604  1.0050 -0.0780 -0.1730
  667MOL0     O89969   3.495   5.606   2.534 -0.4859  0.1314  0.0433
  667MOL0     C89970   3.391   5.698   2.497  0.9710 -0.1440 -0.0039
  667MOL0     C89971   3.321   5.639   2.380 -0.3490  0.4474 -0.4337
  667MOL0     C89972   3.178   5.677   2.374  0.2317  0.1815  0.8640
  667MOL0     C89973   3.084   5.614   2.273  0.3657  0.1107  1.3176
  667MOL0     C89974   3.125   5.655   2.134 -0.1957  0.7177  0.0354
  667MOL0     C89975   3.161   5.693   2.029  0.0820 -0.2340  0.7742
  667MOL0     C89976   3.680   5.557   2.656  0.1498 -0.0690  0.3528
  667MOL0     C89977   3.798   5.585   2.729 -0.1780 -0.6912 -0.3578
  667MOL0     H89978   4.194   5.976   2.852  1.3221  2.6461  1.1208
  667MOL0     H89979   4.338   6.041   3.062  0.8565 -0.7409  1.5037
  667MOL0     H89980   4.198   6.225   3.326 -1.1298  0.0580  0.6883
  667MOL0     H89981   4.174   6.095   3.448  1.3214 -0.2059  1.4272
  667MOL0     H89982   4.331   6.300   3.511  2.3614  1.9065 -3.1538
  667MOL0     H89983   4.365   6.131   3.552 -1.0017 -1.2916 -0.0263
  667MOL0     H89984   4.505   6.120   3.340  1.3438 -0.5592 -0.3366
  667MOL0     H89985   4.472   6.296   3.307  0.7631 -0.9755 -0.0533
  667MOL0     H89986   4.602   6.370   3.497  1.1867  0.2618  0.1893
  667MOL0     H89987   4.609   6.202   3.556  1.1866 -1.8944 -1.1317
  667MOL0     H89988   4.742   6.126   3.402  0.5270  0.3149 -1.3827
  667MOL0     H89989   4.724   6.260   3.283  0.0445 -0.2883  0.6555
  667MOL0     H89990   4.868   6.408   3.449 -4.3435  0.9535 -0.2463
  667MOL0     H89991   4.873   6.270   3.548 -1.2951  0.4961  0.3620
  667MOL0     H89992   4.981   6.134   3.366  0.5664  0.1146  1.3638
  667MOL0     H89993   4.925   6.248   3.244  0.4445  0.3287  0.4326
  667MOL0     H89994   5.149   6.269   3.445  1.7362  1.2566  0.3177
  667MOL0     H89995   5.089   6.418   3.382  1.6072  0.6915 -0.6711
  667MOL0     H89996   5.179   6.064   3.235  1.6013 -0.0601  0.7678
  667MOL0     H89997   5.357   5.999   2.991 -0.1240  0.3166  0.8681
  667MOL0     H89998   5.372   6.140   2.898 -0.4381 -3.9791 -1.1128
  667MOL0     H89999   5.544   6.016   3.104 -2.3288  0.4674 -0.8623
  667MOL0     H90000   5.575   6.193   3.045  2.8726 -0.6366  3.3689
  667MOL0     H90001   5.579   6.073   2.801  2.5761 -2.6534 -2.0751
  667MOL0     H90002   5.569   5.924   2.895  0.5483 -0.3631  0.2219
  667MOL0     H90003   5.794   5.969   2.982 -0.9486 -0.8626 -0.0398
  667MOL0     H90004   5.781   6.134   2.903 -2.0834  0.7067 -1.3627
  667MOL0     H90005   6.035   5.850   2.756  1.5474 -0.5471 -1.7055
  667MOL0     H90006   6.269   5.900   2.526 -4.0318  1.8137 -0.8576
  667MOL0     H90007   6.339   5.951   2.686  2.4003 -0.5853 -1.4313
  667MOL0     H90008   6.235   5.799   2.665  0.3525 -1.2723 -4.7334
  667MOL0     H90009   6.475   6.305   2.360 -1.4516 -1.0992  0.4591
  667MOL0     H90010   6.605   6.343   2.148  0.6999 -1.3466 -2.1316
  667MOL0     H90011   6.458   6.193   1.765  2.0187 -0.4985  3.2841
  667MOL0     H90012   6.376   6.353   1.747 -0.0505 -2.7715 -1.7941
  667MOL0     H90013   6.578   6.459   1.692 -2.0534  0.4081  0.2719
  667MOL0     H90014   6.672   6.316   1.717 -0.2946 -1.1016  0.5711
  667MOL0     H90015   6.421   6.301   1.548 -0.0478 -1.0526  2.1353
  667MOL0     H90016   6.556   6.189   1.561 -2.1623 -0.5558  0.7933
  667MOL0     H90017   6.542   6.479   1.426  2.2323  0.8348 -0.7278
  667MOL0     H90018   6.682   6.393   1.395 -1.4532  2.7740 -1.6817
  667MOL0     H90019   6.556   6.213   1.271 -0.5774 -0.4412  2.0276
  667MOL0     H90020   6.575   6.378   1.213  2.4006  2.2801  2.0709
  667MOL0     H90021   6.323   6.275   1.334  1.2057  1.2432  2.7434
  667MOL0     H90022   6.364   6.435   1.257 -0.9557  0.8088  2.3118
  667MOL0     H90023   6.268   6.187   1.133 -1.7339  2.5542  0.5307
  667MOL0     H90024   6.424   6.179   1.088 -1.7004 -0.1428 -4.5858
  667MOL0     H90025   6.299   6.306   0.892  1.2979 -2.2835  0.8261
  667MOL0     H90026   6.410   6.404   0.973  2.3730 -4.0458 -1.4084
  667MOL0     H90027   6.247   6.270   1.923  1.5699 -2.1735 -0.9958
  667MOL0     H90028   6.131   6.187   2.113  0.0096 -0.0979 -1.6343
  667MOL0     H90029   6.014   6.293   2.535  2.2784  1.5517  2.8082
  667MOL0     H90030   5.816   6.208   2.647  1.1634  0.9748 -2.1322
  667MOL0     H90031   4.035   5.971   3.322  0.3983 -1.6925  0.3168
  667MOL0     H90032   3.875   5.911   3.112  1.5954 -2.3395  1.2314
  667MOL0     H90033   3.787   5.928   2.703  1.9604  0.6237 -6.1464
  667MOL0     H90034   3.585   5.870   2.565 -0.0145 -0.7705 -2.2217
  667MOL0     H90035   3.318   5.700   2.579 -0.0651 -1.7984 -0.8264
  667MOL0     H90036   3.418   5.800   2.467  1.0966 -0.1500  0.0901
  667MOL0     H90037   3.335   5.530   2.381  0.0632  0.4700 -2.1475
  667MOL0     H90038   3.369   5.665   2.286 -3.4261 -3.3303 -3.3803
  667MOL0     H90039   3.170   5.786   2.363  1.2621  0.0564 -1.6134
  667MOL0     H90040   3.119   5.660   2.465  0.6504  3.7845  1.9658
  667MOL0     H90041   2.979   5.643   2.286 -0.3687 -1.2363 -0.9378
  667MOL0     H90042   3.089   5.505   2.286 -2.4342 -0.4960 -1.4420
  667MOL0     H90043   3.198   5.726   1.935  0.0071  0.5199  1.0076
  667MOL0     H90044   3.656   5.451   2.648 -1.7898  0.0143  3.3532
  667MOL0     H90045   3.857   5.501   2.764  3.2672  1.3534 -0.7891
  668MOL0     O90046   1.618   7.267   0.632  0.1500  0.4515  0.5074
  668MOL0     C90047   1.581   7.223   0.739 -0.3704  0.2762 -0.1022
  668MOL0     O90048   1.587   7.286   0.865 -0.1217 -0.7000  0.3769
  668MOL0     C90049   1.661   7.403   0.881 -1.1387 -0.1949 -0.6421
  668MOL0     C90050   1.700   7.498   0.788  0.3256  0.1449  0.0270
  668MOL0     C90051   1.788   7.603   0.820  0.4206  0.2698 -0.3255
  668MOL0     C90052   1.854   7.603   0.948  0.4483 -1.1929 -0.8301
  668MOL0     O90053   1.951   7.694   0.988  0.9242 -0.0884  0.5857
  668MOL0     C90054   1.947   7.809   0.905  0.2143  0.6592 -0.3515
  668MOL0     C90055   2.003   7.937   0.971 -0.9598  0.1107 -0.0771
  668MOL0     C90056   2.168   7.925   0.980  1.0434  0.6122  0.9707
  668MOL0     C90057   2.220   8.046   1.063 -0.7080  0.0278  0.5622
  668MOL0     C90058   2.372   8.034   1.085 -0.3843  0.3699 -0.6507
  668MOL0     C90059   2.437   8.151   1.174  0.0287  0.1090  0.1801
  668MOL0     C90060   2.523   8.260   1.104  0.8715  0.0028  0.0934
  668MOL0     C90061   2.606   8.340   1.206  0.0833  0.2160  0.0880
  668MOL0     N90062   2.693   8.277   1.301 -0.3639  1.0428  0.1746
  668MOL0     C90063   2.777   8.173   1.279  0.1614  0.1525 -0.4178
  668MOL0     C90064   2.827   8.138   1.403  0.1532 -1.1281  0.4026
  668MOL0     C90065   2.932   8.033   1.417 -0.5843  0.9061 -0.2449
  668MOL0     C90066   3.050   8.088   1.494 -1.0056 -0.3219 -0.0395
  668MOL0     C90067   3.130   8.196   1.404  0.7148 -0.7901 -0.2748
  668MOL0     C90068   3.188   8.318   1.490  0.2308 -0.3681  0.4726
  668MOL0     O90069   3.292   8.252   1.575  0.7691 -0.1390 -0.7853
  668MOL0     C90070   3.382   8.340   1.635 -0.2397 -1.6859 -0.1132
  668MOL0     C90071   3.383   8.481   1.615 -0.2898 -0.3884  1.0308
  668MOL0     C90072   3.470   8.559   1.690  0.8085 -0.6185 -0.4315
  668MOL0     C90073   3.476   8.704   1.661  1.1512  0.2395  1.1244
  668MOL0     C90074   3.563   8.498   1.783 -0.4975  0.3005 -0.9346
  668MOL0     C90075   3.657   8.571   1.864 -0.1319  0.5214  0.4416
  668MOL0     O90076   3.788   8.519   1.879 -0.0665 -0.5188 -0.3278
  668MOL0     C90077   3.892   8.591   1.934 -0.6601 -0.3884  0.6630
  668MOL0     C90078   4.022   8.535   1.921 -0.1745 -0.0528 -0.4786
  668MOL0     C90079   4.146   8.601   1.966  0.1109 -0.2029 -0.7150
  668MOL0     C90080   4.127   8.727   2.018  0.3143  0.0215 -0.2656
  668MOL0     O90081   4.228   8.785   2.081  0.0341 -0.1024 -0.8557
  668MOL0     C90082   4.323   8.847   1.990  0.4503 -0.0638 -0.4836
  668MOL0     C90083   4.470   8.790   2.015 -0.1811 -0.7680  0.1223
  668MOL0     C90084   4.496   8.651   1.969 -0.1158 -0.0693 -0.7348
  668MOL0     C90085   4.450   8.626   1.833  0.2718  0.1537 -0.2947
  668MOL0     C90086   4.496   8.482   1.798 -0.1403 -0.4128  0.0714
  668MOL0     C90087   4.432   8.425   1.672 -0.8364 -0.7471  0.1194
  668MOL0     C90088   4.472   8.280   1.650 -0.1462 -0.0027 -0.0169
  668MOL0     C90089   4.403   8.231   1.525  0.0060 -0.6685  0.5903
  668MOL0    Cl90090   4.219   8.246   1.537 -0.1485  0.0023  0.2463
  668MOL0     C90091   3.997   8.784   2.023  1.1753  0.1795  0.4089
  668MOL0     C90092   3.879   8.718   1.980  0.0559 -0.9039  0.6356
  668MOL0     O90093   3.600   8.655   1.931  0.7102  0.2000  0.1037
  668MOL0     C90094   3.546   8.362   1.805 -1.1065 -0.2951 -0.0673
  668MOL0     C90095   3.464   8.286   1.732  0.1992  0.4633  0.2217
  668MOL0     N90096   2.766   8.207   1.499  0.6158  0.1156 -0.4832
  668MOL0     N90097   2.692   8.296   1.433  0.1715  0.0934 -0.2196
  668MOL0     C90098   1.810   7.514   1.041  0.0967 -0.8591  0.0926
  668MOL0     C90099   1.715   7.414   1.009  0.1954 -0.3031 -1.1021
  668MOL0     C90100   1.548   7.079   0.743  0.3851 -0.6919  0.7080
  668MOL0     C90101   1.432   7.032   0.816  0.5735  0.0534  0.8099
  668MOL0     C90102   1.415   6.892   0.811  0.4093  0.0420 -0.6561
  668MOL0     C90103   1.491   6.806   0.736  0.0687  0.0433 -0.4625
  668MOL0     O90104   1.451   6.677   0.720  0.1818 -0.7285  0.4360
  668MOL0     C90105   1.321   6.664   0.650 -0.8412 -0.9334  0.0029
  668MOL0     C90106   1.253   6.541   0.699  0.1847  0.0376 -0.3767
  668MOL0     C90107   1.348   6.409   0.696  0.2543  0.0847  0.1165
  668MOL0     C90108   1.273   6.276   0.704 -0.8169 -0.2115 -1.1301
  668MOL0     C90109   1.376   6.167   0.690  0.7813 -0.2220  0.1564
  668MOL0     C90110   1.471   6.094   0.663 -0.3553  0.4231 -0.7586
  668MOL0     C90111   1.593   6.852   0.662  0.0361  0.3178  0.3682
  668MOL0     C90112   1.626   6.988   0.674 -0.3335  0.5444  0.5070
  668MOL0     H90113   1.651   7.502   0.692 -3.9915 -0.9268  1.9304
  668MOL0     H90114   1.825   7.675   0.748  0.0229  2.1650  1.2753
  668MOL0     H90115   1.993   7.784   0.809  0.6794  0.3173 -0.0443
  668MOL0     H90116   1.841   7.836   0.894 -0.9012 -2.8925  0.3635
  668MOL0     H90117   1.976   8.023   0.909  0.2851 -0.2487 -1.1677
  668MOL0     H90118   1.955   7.936   1.069  0.4824 -0.4382  0.6472
  668MOL0     H90119   2.205   7.826   1.007 -1.4555 -0.5795  0.3332
  668MOL0     H90120   2.205   7.939   0.879  1.1537  2.0165  1.1850
  668MOL0     H90121   2.208   8.137   1.004 -3.2079 -0.7318 -0.2139
  668MOL0     H90122   2.169   8.045   1.160 -1.4419 -1.5026  0.1808
  668MOL0     H90123   2.408   7.943   1.133  1.9755  0.5892 -1.8503
  668MOL0     H90124   2.410   8.037   0.983 -2.1335  2.5327 -1.3177
  668MOL0     H90125   2.349   8.199   1.218 -1.3056 -3.3196  1.6297
  668MOL0     H90126   2.485   8.089   1.250 -3.0573 -2.4311  0.3036
  668MOL0     H90127   2.592   8.202   1.042  2.2156  1.4745  0.1394
  668MOL0     H90128   2.465   8.324   1.037  3.3887  1.0151 -1.2647
  668MOL0     H90129   2.538   8.405   1.263 -1.1747 -0.1833 -0.9244
  668MOL0     H90130   2.657   8.414   1.144  0.4705 -0.0876  0.0375
  668MOL0     H90131   2.804   8.145   1.177 -1.2024 -1.5920 -0.3397
  668MOL0     H90132   2.878   7.957   1.475 -0.2182  1.7717  1.2796
  668MOL0     H90133   2.965   7.993   1.321 -0.0104 -1.2327  0.7853
  668MOL0     H90134   3.102   7.994   1.514 -0.5828 -0.4839 -1.7630
  668MOL0     H90135   3.010   8.135   1.584  1.0064 -0.0493  0.7588
  668MOL0     H90136   3.067   8.232   1.323  1.0520  0.1381 -0.1349
  668MOL0     H90137   3.215   8.151   1.351  0.9906  0.4517 -0.9339
  668MOL0     H90138   3.127   8.375   1.560  0.3811 -1.2168  1.3228
  668MOL0     H90139   3.233   8.383   1.415 -1.7705  0.7672  0.1889
  668MOL0     H90140   3.307   8.535   1.559  1.7120  2.6066  0.9806
  668MOL0     H90141   3.440   8.726   1.560  2.2921  1.0810  0.8756
  668MOL0     H90142   3.438   8.768   1.742 -2.6728 -1.7187  1.1064
  668MOL0     H90143   3.583   8.721   1.645  0.3714  3.4776 -1.7974
  668MOL0     H90144   4.025   8.435   1.879 -2.4966  0.1699 -1.3027
  668MOL0     H90145   4.245   8.561   1.985 -1.4086 -3.2567  1.6574
  668MOL0     H90146   4.293   8.847   1.885  0.8737  0.2166 -0.6076
  668MOL0     H90147   4.338   8.947   2.031 -0.0637 -1.6708  4.3130
  668MOL0     H90148   4.542   8.859   1.970  1.9754 -1.5695  2.0956
  668MOL0     H90149   4.497   8.797   2.121  1.9874  0.4912 -0.4396
  668MOL0     H90150   4.449   8.580   2.037 -2.6538  0.7718 -1.5059
  668MOL0     H90151   4.605   8.641   1.966 -0.1662 -0.6001 -0.8861
  668MOL0     H90152   4.342   8.638   1.823  0.0744 -1.3051 -0.1493
  668MOL0     H90153   4.493   8.708   1.774  1.3666 -0.7474 -0.8032
  668MOL0     H90154   4.455   8.417   1.875  0.3393 -0.5966  0.1724
  668MOL0     H90155   4.606   8.476   1.795  0.0424  0.9090  2.4002
  668MOL0     H90156   4.324   8.436   1.675 -0.9570 -1.8223  0.2579
  668MOL0     H90157   4.476   8.487   1.594  1.5318 -0.1482  1.7955
  668MOL0     H90158   4.440   8.214   1.732  4.0975 -2.6860 -0.1868
  668MOL0     H90159   4.581   8.268   1.647  0.0893 -0.4135  4.2144
  668MOL0     H90160   4.447   8.136   1.495  2.1488  0.0205  1.4061
  668MOL0     H90161   4.432   8.286   1.435  1.8926  3.2713  3.2819
  668MOL0     H90162   4.005   8.882   2.069  0.8221  1.4758 -2.1076
  668MOL0     H90163   3.783   8.769   1.988  1.7024  2.3536  0.8995
  668MOL0     H90164   3.602   8.321   1.888 -1.6760  3.0364  2.1691
  668MOL0     H90165   3.458   8.183   1.764  1.9197  1.5391  4.6745
  668MOL0     H90166   1.841   7.518   1.145  2.9815 -1.9941 -0.6009
  668MOL0     H90167   1.683   7.355   1.094 -1.0886  0.4460 -1.0419
  668MOL0     H90168   1.356   7.096   0.860 -2.5217 -2.7185 -0.0626
  668MOL0     H90169   1.337   6.847   0.872  2.4479 -0.7264  1.5753
  668MOL0     H90170   1.258   6.754   0.652  2.0949  1.7369 -5.4473
  668MOL0     H90171   1.339   6.651   0.543  3.9592 -3.3103  0.8355
  668MOL0     H90172   1.173   6.525   0.625  0.3383  0.6568 -0.6920
  668MOL0     H90173   1.193   6.562   0.788  0.9411  6.6741 -0.8886
  668MOL0     H90174   1.418   6.419   0.780  0.1795 -0.4395  0.2455
  668MOL0     H90175   1.408   6.408   0.604 -0.3433 -1.2777 -0.2782
  668MOL0     H90176   1.192   6.255   0.634 -3.4097 -0.2749  1.6608
  668MOL0     H90177   1.235   6.272   0.807 -1.2357  1.3583 -1.2006
  668MOL0     H90178   1.562   6.045   0.638 -0.7472  0.5228 -2.4989
  668MOL0     H90179   1.650   6.789   0.594 -0.5101  0.2337 -0.0214
  668MOL0     H90180   1.717   7.022   0.625 -0.9220  1.0120 -0.2796
  669MOL0     O90181   7.419  10.238   3.571  0.2099 -1.2872 -0.5083
  669MOL0     C90182   7.313  10.253   3.509 -0.8265 -0.3761  0.0546
  669MOL0     O90183   7.312  10.259   3.372  0.4742 -0.0733 -0.0557
  669MOL0     C90184   7.425  10.295   3.303 -0.1906 -0.1839 -0.6440
  669MOL0     C90185   7.413  10.407   3.223  0.2447 -1.1115 -0.6089
  669MOL0     C90186   7.507  10.435   3.130 -0.7102  0.9197 -0.2536
  669MOL0     C90187   7.619  10.340   3.100 -0.5191  0.4687  1.2474
  669MOL0     O90188   7.712  10.370   3.001  0.4535  0.2393 -0.2446
  669MOL0     C90189   7.777  10.257   2.935  0.3226  0.5770 -0.4437
  669MOL0     C90190   7.884  10.295   2.829 -0.3798 -0.5536  0.2468
  669MOL0     C90191   7.804  10.364   2.712 -0.8668 -0.6058 -0.8703
  669MOL0     C90192   7.882  10.387   2.584  0.2510 -0.6268  0.6327
  669MOL0     C90193   7.788  10.446   2.476 -0.0767  0.4988 -0.4930
  669MOL0     C90194   7.844  10.563   2.408  0.0475  0.4258 -0.1751
  669MOL0     C90195   7.927  10.522   2.288 -0.1436 -0.6191  0.5844
  669MOL0     C90196   8.071  10.470   2.326 -0.0431 -1.0479  0.5092
  669MOL0     N90197   8.148  10.583   2.392  0.4020  0.2224 -0.4466
  669MOL0     C90198   8.182  10.701   2.340  0.0126 -0.1268 -0.0654
  669MOL0     C90199   8.256  10.766   2.430  0.7324  0.4960 -0.5711
  669MOL0     C90200   8.303  10.908   2.419 -0.7318  0.5501 -0.8154
  669MOL0     C90201   8.428  10.935   2.505  0.5029  0.7245 -0.4417
  669MOL0     C90202   8.549  10.862   2.451  0.7302  0.4442  0.5970
  669MOL0     C90203   8.673  10.874   2.533 -0.4933 -0.2312  0.1532
  669MOL0     O90204   8.737  10.997   2.511  0.2949 -0.5597 -0.4075
  669MOL0     C90205   8.695  11.107   2.589  0.4900 -1.2100  0.8133
  669MOL0     C90206   8.631  11.209   2.526  0.0619 -0.1838 -0.8369
  669MOL0     C90207   8.601  11.333   2.590  0.8005 -0.0089  0.3396
  669MOL0     C90208   8.523  11.436   2.498  0.1374  0.2087 -0.0091
  669MOL0     C90209   8.634  11.356   2.727  0.2893 -0.3243 -0.0857
  669MOL0     C90210   8.620  11.493   2.794 -0.8655 -0.1403  0.5855
  669MOL0     O90211   8.699  11.521   2.903 -0.2808  0.0472 -0.1729
  669MOL0     C90212   8.722  11.651   2.942 -0.4115 -0.4842  0.6216
  669MOL0     C90213   8.768  11.691   3.071  0.8605 -0.1173 -0.6110
  669MOL0     C90214   8.801  11.827   3.112  0.6411  0.8308 -0.6219
  669MOL0     C90215   8.793  11.923   3.005 -0.3173  0.3086 -0.6071
  669MOL0     O90216   8.835  12.050   3.038 -0.2436 -0.5889 -0.5465
  669MOL0     C90217   8.894  12.140   2.946  0.6597 -0.1264 -0.4842
  669MOL0     C90218   8.897  12.269   3.024  0.7492 -0.7059 -0.5612
  669MOL0     C90219   8.763  12.338   3.033 -0.3633  1.3005 -0.8051
  669MOL0     C90220   8.770  12.456   3.121 -0.5559 -0.4666  1.0773
  669MOL0     C90221   8.635  12.530   3.132 -0.0182  0.2872 -0.0105
  669MOL0     C90222   8.540  12.476   3.251 -0.7769 -0.2573 -0.7451
  669MOL0     C90223   8.404  12.552   3.255 -0.4201 -0.1844  0.0586
  669MOL0     C90224   8.331  12.505   3.379 -0.1227  0.2674 -1.3077
  669MOL0    Cl90225   8.198  12.598   3.422 -0.2401 -0.1149 -0.6026
  669MOL0     C90226   8.746  11.892   2.871  1.4056  0.8293  0.9088
  669MOL0     C90227   8.712  11.757   2.843  0.2982 -0.8429 -0.4492
  669MOL0     O90228   8.523  11.561   2.756 -0.3760 -0.5623 -0.5432
  669MOL0     C90229   8.692  11.252   2.792  0.0570  0.9778 -0.2580
  669MOL0     C90230   8.720  11.126   2.721  0.6435  0.2476 -0.1811
  669MOL0     N90231   8.262  10.688   2.540  0.3546  0.3340 -0.6564
  669MOL0     N90232   8.187  10.582   2.524 -0.6555  0.0750  0.1268
  669MOL0     C90233   7.639  10.235   3.191  0.4660  0.2623  0.2643
  669MOL0     C90234   7.536  10.211   3.287 -1.1250  1.1746  0.8453
  669MOL0     C90235   7.185  10.259   3.590 -0.9941  1.5356  0.3092
  669MOL0     C90236   7.182  10.251   3.726  0.3415  0.7185  0.8509
  669MOL0     C90237   7.071  10.267   3.797  0.3999 -0.4845 -0.9821
  669MOL0     C90238   6.941  10.272   3.739  0.3688 -0.1476 -0.0212
  669MOL0     O90239   6.822  10.281   3.812  0.2878  0.5362  0.2919
  669MOL0     C90240   6.839  10.278   3.953 -0.1889  0.6562  0.2368
  669MOL0     C90241   6.707  10.294   4.021  0.5939 -0.3798  0.9493
  669MOL0     C90242   6.625  10.413   3.972  0.6151  0.0014 -0.1026
  669MOL0     C90243   6.485  10.420   4.030  0.6450 -0.4383 -0.7226
  669MOL0     C90244   6.428  10.555   4.005 -0.4459 -0.9788 -0.1584
  669MOL0     C90245   6.377  10.665   4.000 -0.3438 -0.6641 -0.1991
  669MOL0     C90246   6.941  10.291   3.600  0.0872 -0.1721  0.3999
  669MOL0     C90247   7.056  10.275   3.521  0.1296 -0.3296 -0.5150
  669MOL0     H90248   7.327  10.473   3.226  0.0128 -1.1202 -3.5403
  669MOL0     H90249   7.504  10.525   3.070  0.5063  1.6201  0.7090
  669MOL0     H90250   7.829  10.188   3.002 -4.3407 -2.0195  1.0000
  669MOL0     H90251   7.694  10.195   2.898 -0.2616  0.0030  1.7164
  669MOL0     H90252   7.965  10.352   2.876 -2.2634  2.1912  0.3732
  669MOL0     H90253   7.931  10.206   2.787  1.0616  1.4148 -2.6396
  669MOL0     H90254   7.725  10.292   2.689 -2.3900  0.1536  1.5548
  669MOL0     H90255   7.762  10.459   2.749  0.8254 -0.2991  0.4144
  669MOL0     H90256   7.958  10.458   2.616  1.3109 -1.4289 -0.0460
  669MOL0     H90257   7.931  10.295   2.552 -0.8900 -0.6841 -1.0554
  669MOL0     H90258   7.743  10.364   2.419 -2.5330 -0.9653  3.1887
  669MOL0     H90259   7.707  10.491   2.535 -1.0895 -1.7700 -0.0463
  669MOL0     H90260   7.762  10.627   2.372  2.0158  1.8847 -2.3452
  669MOL0     H90261   7.898  10.625   2.480 -2.2980  1.9878  0.3749
  669MOL0     H90262   7.887  10.458   2.209 -2.3114  2.3485 -0.9312
  669MOL0     H90263   7.936  10.615   2.231 -0.2708 -1.6964 -1.2695
  669MOL0     H90264   8.132  10.433   2.243 -0.3797  0.7102 -0.5968
  669MOL0     H90265   8.076  10.378   2.385  0.4262 -2.1452 -1.1766
  669MOL0     H90266   8.146  10.731   2.242 -1.9230  3.7878  1.6132
  669MOL0     H90267   8.326  10.930   2.315  3.0409  0.9627 -0.0331
  669MOL0     H90268   8.225  10.979   2.447 -0.6055 -0.3412  2.2044
  669MOL0     H90269   8.390  10.907   2.604  0.4636  0.0203 -0.6504
  669MOL0     H90270   8.453  11.041   2.512  1.9484  0.4839 -1.5508
  669MOL0     H90271   8.555  10.894   2.346  0.7991  0.3592  0.5753
  669MOL0     H90272   8.526  10.755   2.450 -1.3934  0.8615 -0.0763
  669MOL0     H90273   8.749  10.799   2.508  0.4255  1.2865 -1.9107
  669MOL0     H90274   8.656  10.864   2.641 -0.5907  1.3733  0.3230
  669MOL0     H90275   8.591  11.193   2.427 -0.3157  2.0029 -1.0922
  669MOL0     H90276   8.417  11.440   2.527  0.0146 -0.8684 -0.2803
  669MOL0     H90277   8.579  11.530   2.504 -1.1004  1.1558 -1.9185
  669MOL0     H90278   8.520  11.410   2.392 -2.8629 -1.0719  0.2883
  669MOL0     H90279   8.777  11.615   3.148 -0.1472 -0.3290 -0.6906
  669MOL0     H90280   8.837  11.850   3.212  0.3617 -1.4779  0.0756
  669MOL0     H90281   8.991  12.101   2.915  0.9326  1.0830 -1.2594
  669MOL0     H90282   8.833  12.166   2.859 -2.9518  0.9121  2.1038
  669MOL0     H90283   8.928  12.240   3.125 -2.1674  4.5472  2.2657
  669MOL0     H90284   8.970  12.328   2.967 -1.9204  1.8086 -1.6698
  669MOL0     H90285   8.695  12.265   3.077  3.4867 -2.5774 -0.5994
  669MOL0     H90286   8.729  12.350   2.930  1.1530  0.2786 -1.4762
  669MOL0     H90287   8.807  12.431   3.221  1.5398 -1.6129  0.0850
  669MOL0     H90288   8.847  12.520   3.077  0.0423 -1.7818  0.1243
  669MOL0     H90289   8.576  12.514   3.041  1.0401 -1.8175 -0.3791
  669MOL0     H90290   8.667  12.634   3.144  2.7565 -0.3943 -0.7570
  669MOL0     H90291   8.523  12.368   3.245  0.2831 -0.4249 -0.9109
  669MOL0     H90292   8.607  12.491   3.336 -1.3406 -2.2234  0.0983
  669MOL0     H90293   8.332  12.523   3.178  1.5231 -3.0602 -0.8456
  669MOL0     H90294   8.423  12.659   3.247 -1.5005 -0.0329 -0.6492
  669MOL0     H90295   8.399  12.493   3.464 -1.2587  0.4117 -0.3524
  669MOL0     H90296   8.294  12.407   3.349 -1.0591  0.3630 -0.5309
  669MOL0     H90297   8.733  11.962   2.789  1.4933 -2.9332 -2.6216
  669MOL0     H90298   8.660  11.752   2.749  0.1491  1.0936 -0.5139
  669MOL0     H90299   8.733  11.253   2.892 -0.6398 -2.3824  0.2083
  669MOL0     H90300   8.763  11.046   2.781 -1.9381  0.6793  2.4908
  669MOL0     H90301   7.723  10.167   3.184  1.6119  1.6259  0.1830
  669MOL0     H90302   7.544  10.120   3.347  1.4106  1.1209  0.5550
  669MOL0     H90303   7.276  10.241   3.779  1.2517 -2.3757 -1.0660
  669MOL0     H90304   7.087  10.259   3.904 -1.9058 -1.0547 -0.6367
  669MOL0     H90305   6.885  10.182   3.980  0.3889  1.5428  2.6287
  669MOL0     H90306   6.901  10.360   3.989 -0.2309  0.0393  1.8321
  669MOL0     H90307   6.729  10.322   4.125  1.8113 -0.0012  0.6033
  669MOL0     H90308   6.651  10.200   4.011  0.5580 -0.6363  3.0975
  669MOL0     H90309   6.615  10.427   3.864  1.6669 -4.4258 -0.9650
  669MOL0     H90310   6.685  10.499   4.004  1.0835 -0.3398 -0.0500
  669MOL0     H90311   6.477  10.397   4.137 -0.7296 -0.8519 -0.8885
  669MOL0     H90312   6.416  10.350   3.981  0.3598  1.8298 -3.8708
  669MOL0     H90313   6.331  10.761   4.011  0.3564 -0.3414  0.0012
  669MOL0     H90314   6.849  10.311   3.546 -0.4548  0.9182  1.6732
  669MOL0     H90315   7.051  10.253   3.415  1.3539 -1.5560 -0.3492
  670MOL0     O90316   3.526   8.104   6.600 -0.7528  0.4616  0.0247
  670MOL0     C90317   3.581   8.105   6.488  1.3757  0.0240 -0.5872
  670MOL0     O90318   3.553   8.197   6.386  0.1215  0.4867  1.0452
  670MOL0     C90319   3.441   8.276   6.391  0.3311  0.0738 -0.8995
  670MOL0     C90320   3.314   8.220   6.415  0.1627 -0.6990  0.7194
  670MOL0     C90321   3.208   8.306   6.441  0.3636 -0.4871 -0.5804
  670MOL0     C90322   3.215   8.449   6.421 -0.1416  0.2539 -0.6532
  670MOL0     O90323   3.122   8.542   6.433 -0.6017  0.1393  0.2975
  670MOL0     C90324   3.060   8.546   6.564  0.1507 -0.1547  0.9201
  670MOL0     C90325   2.915   8.500   6.547 -0.2080  0.9554 -0.1479
  670MOL0     C90326   2.813   8.591   6.613  0.3571 -0.6156 -0.4796
  670MOL0     C90327   2.834   8.623   6.764 -0.3997  0.4974 -0.6717
  670MOL0     C90328   2.743   8.731   6.814 -0.4973  0.2819  0.3619
  670MOL0     C90329   2.811   8.875   6.788 -0.1334  0.6507  0.1275
  670MOL0     C90330   2.719   8.996   6.825  0.8261  0.5370  0.2182
  670MOL0     C90331   2.729   9.066   6.960 -0.6996 -1.1542  0.5276
  670MOL0     N90332   2.614   9.156   6.983  1.0029  0.4301  0.3056
  670MOL0     C90333   2.623   9.289   6.987  0.9351 -0.2339 -2.6398
  670MOL0     C90334   2.497   9.330   7.025  0.9738 -0.8441  0.1765
  670MOL0     C90335   2.464   9.469   7.060 -0.7903 -0.5823  0.4039
  670MOL0     C90336   2.370   9.524   6.960 -0.2655  0.9803  0.3840
  670MOL0     C90337   2.281   9.642   7.012 -0.1332 -0.2180  0.6556
  670MOL0     C90338   2.200   9.702   6.904 -0.1527  0.1375 -1.1389
  670MOL0     O90339   2.267   9.783   6.817 -0.5226 -0.0908 -0.1995
  670MOL0     C90340   2.297   9.918   6.851 -0.1378  1.4881  0.4810
  670MOL0     C90341   2.254   9.990   6.962  0.2229  0.3336 -0.8258
  670MOL0     C90342   2.271  10.122   6.970 -0.2502 -0.0475 -0.6858
  670MOL0     C90343   2.212  10.198   7.086 -0.1152  0.1112 -1.0134
  670MOL0     C90344   2.345  10.193   6.874 -0.7104 -0.0502  0.7409
  670MOL0     C90345   2.364  10.337   6.892  0.5187  0.3251  0.7670
  670MOL0     O90346   2.259  10.416   6.879 -0.2189  0.0187 -0.0028
  670MOL0     C90347   2.264  10.551   6.893 -0.2655 -0.5494 -0.2323
  670MOL0     C90348   2.136  10.609   6.866 -0.9871  0.2418  0.7199
  670MOL0     C90349   2.116  10.749   6.863  0.0806 -0.6097 -0.2541
  670MOL0     C90350   2.216  10.836   6.895 -0.4700  1.2970 -0.6174
  670MOL0     O90351   2.186  10.965   6.912  1.7258 -0.3612  0.6733
  670MOL0     C90352   2.234  11.035   7.027 -0.3644 -0.2452  0.9875
  670MOL0     C90353   2.123  11.128   7.068  0.1139  0.3854 -0.0392
  670MOL0     C90354   2.181  11.212   7.185  0.2398  0.4641  0.5408
  670MOL0     C90355   2.069  11.260   7.283  1.4207 -0.2994  0.5011
  670MOL0     C90356   2.135  11.364   7.376 -0.2416  0.5774  0.9732
  670MOL0     C90357   2.259  11.313   7.455 -0.9498  0.4340 -0.2162
  670MOL0     C90358   2.224  11.175   7.520 -0.1821  0.4737  0.2385
  670MOL0     C90359   2.342  11.139   7.618 -0.3235 -0.4273  0.1307
  670MOL0    Cl90360   2.283  11.122   7.785 -0.1986 -0.3539  0.2999
  670MOL0     C90361   2.344  10.785   6.927 -1.0263 -0.6168 -0.2628
  670MOL0     C90362   2.367  10.649   6.933 -0.1506  0.6034  0.6777
  670MOL0     O90363   2.481  10.374   6.903  0.5050 -0.9832 -0.5512
  670MOL0     C90364   2.393  10.124   6.762 -0.7249 -0.0665  0.1386
  670MOL0     C90365   2.364   9.990   6.744 -0.0400  0.3092 -0.1831
  670MOL0     N90366   2.416   9.219   7.045 -0.1033 -0.0618 -0.1127
  670MOL0     N90367   2.486   9.120   7.002  0.1943 -1.2388  0.4203
  670MOL0     C90368   3.341   8.501   6.383  0.9467  0.7106 -0.1860
  670MOL0     C90369   3.450   8.416   6.359 -0.0775 -0.1453  0.6202
  670MOL0     C90370   3.689   8.012   6.453 -0.2344  0.5204 -0.1441
  670MOL0     C90371   3.722   7.911   6.543  0.1782  0.1528  0.3780
  670MOL0     C90372   3.805   7.801   6.501 -1.1259  1.2414 -0.3290
  670MOL0     C90373   3.867   7.802   6.372 -0.2143  0.4024 -0.2518
  670MOL0     O90374   3.943   7.696   6.331 -0.6766 -0.9786  0.1168
  670MOL0     C90375   3.952   7.677   6.184 -1.2785  0.6314 -0.3552
  670MOL0     C90376   3.967   7.531   6.150 -0.0193 -0.8935  0.1772
  670MOL0     C90377   3.935   7.518   5.998  0.3860  0.2208  0.0972
  670MOL0     C90378   3.939   7.373   5.949  0.1414  0.7532  0.5638
  670MOL0     C90379   3.826   7.294   6.001 -0.3493  0.0190 -0.2272
  670MOL0     C90380   3.743   7.226   6.057  0.3753 -0.1845  0.5020
  670MOL0     C90381   3.844   7.913   6.296  0.1983  0.3116  0.4474
  670MOL0     C90382   3.751   8.007   6.329  0.4256  0.2578  0.4834
  670MOL0     H90383   3.304   8.112   6.423 -3.1704 -0.4813  0.5837
  670MOL0     H90384   3.110   8.264   6.457  1.1810 -2.0438  0.5667
  670MOL0     H90385   3.105   8.473   6.631 -1.2479  0.5779  2.7484
  670MOL0     H90386   3.062   8.645   6.611 -2.2737 -0.1241  1.1192
  670MOL0     H90387   2.879   8.506   6.444 -0.4255  0.8928 -0.0758
  670MOL0     H90388   2.895   8.404   6.595  2.6384  0.1511 -0.3854
  670MOL0     H90389   2.812   8.690   6.565  2.4097  0.8621  2.2526
  670MOL0     H90390   2.715   8.549   6.588  0.1658  0.4597 -1.6597
  670MOL0     H90391   2.825   8.531   6.822  1.8065 -0.0014 -1.0433
  670MOL0     H90392   2.937   8.637   6.798 -0.6519 -1.6855  1.1999
  670MOL0     H90393   2.650   8.738   6.756 -0.0376 -2.5676 -0.8692
  670MOL0     H90394   2.726   8.732   6.922  0.2699  0.3162  0.4869
  670MOL0     H90395   2.894   8.880   6.860  1.5827  2.0124 -1.8388
  670MOL0     H90396   2.845   8.894   6.686 -0.3741  1.3235  0.1669
  670MOL0     H90397   2.734   9.080   6.756  2.3374  1.7580  1.9263
  670MOL0     H90398   2.617   8.962   6.802  0.5269  1.4264  0.1994
  670MOL0     H90399   2.824   9.113   6.986 -1.1693 -2.2866  5.2806
  670MOL0     H90400   2.717   8.983   7.031 -3.0283 -1.0657  0.3177
  670MOL0     H90401   2.713   9.349   6.988 -0.3609  2.2732  3.1270
  670MOL0     H90402   2.422   9.470   7.161 -1.3724  1.6744  0.2060
  670MOL0     H90403   2.555   9.529   7.052 -0.6442 -1.0386 -2.5833
  670MOL0     H90404   2.301   9.448   6.924 -0.0326  2.6171 -4.2509
  670MOL0     H90405   2.409   9.561   6.865  2.7977 -0.2106  1.0628
  670MOL0     H90406   2.339   9.730   7.040 -0.3782 -0.0510  0.6418
  670MOL0     H90407   2.197   9.623   7.080 -2.8211  0.6176 -2.2233
  670MOL0     H90408   2.118   9.753   6.954  1.1527  0.2476  0.9853
  670MOL0     H90409   2.158   9.620   6.844 -0.8696 -0.9067  0.7277
  670MOL0     H90410   2.183   9.942   7.030 -2.0972  1.0934 -2.5648
  670MOL0     H90411   2.128  10.263   7.061 -3.2823 -3.3732 -0.4293
  670MOL0     H90412   2.160  10.139   7.162  0.0359  1.6021  0.2768
  670MOL0     H90413   2.291  10.252   7.139 -2.1586 -0.9997  3.6105
  670MOL0     H90414   2.070  10.532   6.826  2.0195 -1.6577 -0.9999
  670MOL0     H90415   2.017  10.788   6.844  0.0727  0.0867  1.1158
  670MOL0     H90416   2.278  10.979   7.110  1.9366  0.2483  0.1788
  670MOL0     H90417   2.317  11.097   6.993 -1.3513  0.3656 -0.4145
  670MOL0     H90418   2.087  11.186   6.982 -3.1464  0.0416  0.9525
  670MOL0     H90419   2.042  11.068   7.110  1.3272 -0.9939  0.4222
  670MOL0     H90420   2.249  11.295   7.166 -1.2854  2.1273  1.9247
  670MOL0     H90421   2.247  11.144   7.240  1.9615  2.1706  0.6641
  670MOL0     H90422   1.984  11.302   7.227  2.5924 -0.1999 -1.2624
  670MOL0     H90423   2.034  11.172   7.337 -0.4533 -0.7074 -1.2684
  670MOL0     H90424   2.062  11.406   7.446 -0.3296  2.1650 -0.0213
  670MOL0     H90425   2.180  11.445   7.318 -2.0979  1.8331  1.1623
  670MOL0     H90426   2.355  11.293   7.405  1.0977  1.7504  2.9263
  670MOL0     H90427   2.282  11.391   7.528  2.3283 -2.5434  2.2934
  670MOL0     H90428   2.206  11.099   7.443 -2.6592  1.5033 -0.2921
  670MOL0     H90429   2.126  11.174   7.569  0.9797 -1.0282  2.6985
  670MOL0     H90430   2.415  11.219   7.627 -0.7764  0.1990 -1.4970
  670MOL0     H90431   2.387  11.046   7.581  2.6401  0.8679  0.2886
  670MOL0     H90432   2.424  10.847   6.967 -1.3493  1.0073 -1.9997
  670MOL0     H90433   2.461  10.617   6.976 -2.0192 -2.4080  3.0638
  670MOL0     H90434   2.457  10.173   6.689 -2.6464  0.8209 -1.0293
  670MOL0     H90435   2.411   9.947   6.656 -1.3810 -1.2472 -0.2025
  670MOL0     H90436   3.343   8.609   6.372  0.3970  0.8033  0.5055
  670MOL0     H90437   3.548   8.458   6.337 -0.3787  0.2790  0.0433
  670MOL0     H90438   3.671   7.910   6.638  1.3164  0.2603  1.0119
  670MOL0     H90439   3.814   7.725   6.577  1.1078  2.4649  0.7371
  670MOL0     H90440   3.854   7.706   6.142 -0.9710  0.3235 -1.3225
  670MOL0     H90441   4.015   7.750   6.132 -2.6760  0.9886 -1.6640
  670MOL0     H90442   3.888   7.476   6.202 -0.2376  0.0708  0.8747
  670MOL0     H90443   4.071   7.499   6.164 -0.2340 -0.8546  2.2612
  670MOL0     H90444   4.017   7.566   5.944  2.9380  0.3468  3.6923
  670MOL0     H90445   3.843   7.573   5.979  0.5252 -0.2196 -2.0286
  670MOL0     H90446   4.035   7.325   5.972  1.0731  2.1365 -0.2957
  670MOL0     H90447   3.926   7.377   5.841 -0.8070  1.5363  0.6897
  670MOL0     H90448   3.664   7.169   6.102  0.3794 -0.0171  0.7193
  670MOL0     H90449   3.898   7.931   6.204 -0.5913  2.5245  0.3471
  670MOL0     H90450   3.733   8.084   6.254  0.7900  0.3078  0.4465
  671MOL0     O90451   3.969   6.672   1.984  0.4590  0.0378  0.4908
  671MOL0     C90452   3.997   6.789   1.954 -0.0341 -0.6676  0.9040
  671MOL0     O90453   3.938   6.854   1.852 -0.1804  0.5520  0.0728
  671MOL0     C90454   3.838   6.800   1.774  0.8603 -0.0987  0.2865
  671MOL0     C90455   3.816   6.883   1.665  0.3090 -0.1216 -1.1017
  671MOL0     C90456   3.708   6.838   1.573 -1.3169 -0.2310  0.1785
  671MOL0     C90457   3.621   6.726   1.593 -0.3126 -1.0643  0.0785
  671MOL0     O90458   3.511   6.708   1.506  0.2788  0.1277  0.3079
  671MOL0     C90459   3.383   6.736   1.565  0.2861  0.4600 -0.8946
  671MOL0     C90460   3.277   6.632   1.529 -0.0510  0.4068  0.4580
  671MOL0     C90461   3.228   6.658   1.383  1.4428 -1.5523 -0.4828
  671MOL0     C90462   3.137   6.546   1.318  0.3710  0.5645  0.5015
  671MOL0     C90463   3.098   6.568   1.169 -0.1971 -0.1718 -0.7583
  671MOL0     C90464   3.067   6.713   1.141  0.6538  0.4906 -0.0973
  671MOL0     C90465   2.938   6.760   1.200 -1.0620 -0.6735  0.5746
  671MOL0     C90466   2.896   6.900   1.150  0.2862  0.6523  0.5829
  671MOL0     N90467   2.909   7.007   1.253 -0.1802 -0.0998 -0.0405
  671MOL0     C90468   2.887   6.989   1.381  0.5037  0.5441  0.0066
  671MOL0     C90469   2.887   7.112   1.440 -0.5764 -0.0399  1.0193
  671MOL0     C90470   2.853   7.136   1.579 -1.4602  0.9369  0.1524
  671MOL0     C90471   2.964   7.087   1.670  0.3660  0.1064  0.0915
  671MOL0     C90472   2.973   6.940   1.687 -0.5803  0.4357  0.7977
  671MOL0     C90473   2.844   6.877   1.725  0.1419 -0.3043 -0.5071
  671MOL0     O90474   2.776   6.815   1.622 -0.1908  0.7806  1.2405
  671MOL0     C90475   2.819   6.684   1.590 -0.1091  0.9610 -0.0350
  671MOL0     C90476   2.771   6.619   1.485  0.9170 -0.6102 -0.0683
  671MOL0     C90477   2.792   6.478   1.456  0.9645 -1.1669 -1.0765
  671MOL0     C90478   2.729   6.418   1.334  0.5118 -0.5765  0.3190
  671MOL0     C90479   2.877   6.396   1.537  0.4758  0.3056 -0.6682
  671MOL0     C90480   2.895   6.251   1.553 -1.2850  0.0919  0.0614
  671MOL0     O90481   2.965   6.196   1.661 -0.0927 -0.0959  0.5819
  671MOL0     C90482   2.963   6.055   1.678  0.0716 -0.7270 -0.1355
  671MOL0     C90483   3.071   5.961   1.690  0.3272  0.3790 -0.6437
  671MOL0     C90484   3.051   5.827   1.711  1.2015  0.4337  0.3611
  671MOL0     C90485   2.925   5.772   1.697 -0.6101 -0.8808 -0.6241
  671MOL0     O90486   2.910   5.638   1.687  0.2895 -0.4983 -0.3027
  671MOL0     C90487   2.879   5.614   1.553  0.1372  0.9336  0.5967
  671MOL0     C90488   2.860   5.470   1.516 -0.4758  0.1165 -0.0608
  671MOL0     C90489   2.893   5.446   1.369 -0.5818 -0.5063 -0.5924
  671MOL0     C90490   2.916   5.300   1.341  0.4832  0.3775 -0.0926
  671MOL0     C90491   2.924   5.263   1.186  1.1181 -1.1250  0.0633
  671MOL0     C90492   2.978   5.126   1.153 -0.0693  0.0705  0.3172
  671MOL0     C90493   2.914   5.026   1.260  0.1601  0.4156  0.4792
  671MOL0     C90494   2.956   4.882   1.232  0.1797  0.2068  0.8705
  671MOL0    Cl90495   2.877   4.767   1.338  0.2497 -0.2856  0.4327
  671MOL0     C90496   2.817   5.858   1.687 -0.0336 -0.0880 -0.1723
  671MOL0     C90497   2.839   5.997   1.685  0.7327  0.1151  0.2293
  671MOL0     O90498   2.868   6.190   1.449  0.1454  0.0689  0.3863
  671MOL0     C90499   2.932   6.473   1.647 -0.7780 -0.1617  0.6831
  671MOL0     C90500   2.907   6.606   1.674 -0.7763  0.1073  0.3959
  671MOL0     N90501   2.910   7.200   1.338  0.4822  0.3888  0.0790
  671MOL0     N90502   2.915   7.145   1.219 -0.6761 -0.2414 -0.3026
  671MOL0     C90503   3.665   6.648   1.698  0.4699 -0.2398 -0.3475
  671MOL0     C90504   3.771   6.679   1.786 -0.1826 -0.0274  0.5120
  671MOL0     C90505   4.085   6.867   2.046 -0.6456  0.9388  0.3933
  671MOL0     C90506   4.137   6.805   2.163 -0.5203  0.1550 -0.0751
  671MOL0     C90507   4.204   6.880   2.259  0.2233 -0.2929  1.0946
  671MOL0     C90508   4.248   7.005   2.215 -0.7011 -0.2238  0.1393
  671MOL0     O90509   4.317   7.082   2.307 -0.1630  0.2919 -0.3192
  671MOL0     C90510   4.364   7.209   2.287  0.9239  0.6483 -0.6858
  671MOL0     C90511   4.422   7.246   2.421  1.0707  0.1200  0.8088
  671MOL0     C90512   4.517   7.367   2.411 -0.2737 -0.6203 -1.5098
  671MOL0     C90513   4.443   7.496   2.376  0.2873 -0.3763 -0.1773
  671MOL0     C90514   4.428   7.508   2.227 -0.5635 -0.9844 -0.4101
  671MOL0     C90515   4.394   7.514   2.110  1.1198 -0.1277  0.5452
  671MOL0     C90516   4.210   7.056   2.092 -0.5987  0.1247 -0.3513
  671MOL0     C90517   4.115   6.994   2.015 -0.1592 -0.5631 -0.7435
  671MOL0     H90518   3.875   6.973   1.652 -1.2520  1.1924  0.4086
  671MOL0     H90519   3.681   6.911   1.496  2.4383 -0.7121 -1.8102
  671MOL0     H90520   3.403   6.724   1.672  2.7249 -0.0753 -1.3535
  671MOL0     H90521   3.341   6.832   1.535 -0.8370  0.3891  0.3638
  671MOL0     H90522   3.308   6.527   1.524  2.0030  1.0185 -0.3145
  671MOL0     H90523   3.195   6.631   1.603  1.4531  0.0023  2.1933
  671MOL0     H90524   3.174   6.753   1.378  2.9135 -0.7396 -2.3847
  671MOL0     H90525   3.314   6.677   1.318  2.1210  2.0744  1.2035
  671MOL0     H90526   3.195   6.454   1.319 -0.6541 -0.1756 -1.7464
  671MOL0     H90527   3.044   6.542   1.377 -2.2673  2.2460 -3.1353
  671MOL0     H90528   3.181   6.527   1.111  1.9614 -0.6186  2.3501
  671MOL0     H90529   3.011   6.506   1.145 -0.1060 -0.7898  0.3935
  671MOL0     H90530   3.152   6.778   1.166  0.7043  1.2272 -2.0333
  671MOL0     H90531   3.053   6.716   1.032  1.7173 -2.0182 -0.3779
  671MOL0     H90532   2.856   6.694   1.168 -2.0213  1.6077 -2.1093
  671MOL0     H90533   2.950   6.751   1.308 -0.7755  0.8071  0.6785
  671MOL0     H90534   2.792   6.897   1.118 -0.7097  1.5776  3.4181
  671MOL0     H90535   2.946   6.916   1.054 -1.5149 -0.9003 -0.6843
  671MOL0     H90536   2.867   6.897   1.436  1.5034 -0.3371 -1.0363
  671MOL0     H90537   2.856   7.244   1.594 -1.3126  1.0950 -0.9515
  671MOL0     H90538   2.759   7.096   1.618  0.3651 -1.5331  2.4009
  671MOL0     H90539   2.954   7.124   1.773  0.0790  1.2948 -0.3419
  671MOL0     H90540   3.065   7.118   1.642  2.3410 -3.5375  2.4002
  671MOL0     H90541   3.051   6.914   1.759  0.5672 -1.3170 -0.9869
  671MOL0     H90542   3.008   6.895   1.594  1.6884  0.6705  1.4735
  671MOL0     H90543   2.764   6.944   1.756 -1.4590 -1.1760 -2.4603
  671MOL0     H90544   2.856   6.818   1.816 -2.9998  0.2329  0.3776
  671MOL0     H90545   2.696   6.673   1.427 -0.8415 -0.4836  2.1825
  671MOL0     H90546   2.799   6.354   1.279  1.1212  1.2897 -1.2307
  671MOL0     H90547   2.656   6.349   1.376  0.3952 -0.9465 -0.4797
  671MOL0     H90548   2.684   6.500   1.276 -2.2902 -1.5250  1.0393
  671MOL0     H90549   3.175   5.989   1.696  0.4106  0.3670 -1.8435
  671MOL0     H90550   3.138   5.764   1.722  1.3530  0.6369  0.3253
  671MOL0     H90551   2.774   5.644   1.552 -0.0030  0.4567  0.9026
  671MOL0     H90552   2.943   5.673   1.487 -0.3251  2.1474  1.1982
  671MOL0     H90553   2.919   5.405   1.581  1.6021  1.4024 -0.5621
  671MOL0     H90554   2.755   5.442   1.526 -0.2980 -1.0543 -1.1638
  671MOL0     H90555   2.986   5.501   1.351  0.4589 -2.0906 -0.2013
  671MOL0     H90556   2.811   5.479   1.305 -0.0439 -1.6486 -1.9288
  671MOL0     H90557   3.017   5.283   1.381  0.9172  0.8425 -0.9576
  671MOL0     H90558   2.853   5.239   1.406  2.5186 -1.9959 -0.1498
  671MOL0     H90559   2.982   5.337   1.130 -0.9114  0.5775  0.0717
  671MOL0     H90560   2.825   5.268   1.139 -0.0585 -1.2850  2.3633
  671MOL0     H90561   2.950   5.105   1.049 -1.0325  4.6737 -0.5648
  671MOL0     H90562   3.087   5.135   1.161  0.3060 -3.1007  0.0388
  671MOL0     H90563   2.804   5.027   1.261  0.0461  0.1144 -2.5660
  671MOL0     H90564   2.941   5.055   1.362  0.6692  0.3691  0.3565
  671MOL0     H90565   3.063   4.867   1.246  0.1676 -0.9046 -0.1457
  671MOL0     H90566   2.933   4.861   1.128  0.5199  1.0194  0.6237
  671MOL0     H90567   2.725   5.804   1.670  1.4317 -3.2151  1.0488
  671MOL0     H90568   2.748   6.055   1.674  0.4901  0.2645  2.6396
  671MOL0     H90569   2.994   6.427   1.723  1.2532  0.4630 -0.5200
  671MOL0     H90570   2.969   6.639   1.757 -0.3654 -0.7113  0.4296
  671MOL0     H90571   3.613   6.554   1.717 -0.4620  0.7472  2.4747
  671MOL0     H90572   3.773   6.606   1.866  0.3811  1.7643  2.2230
  671MOL0     H90573   4.136   6.697   2.173  0.2832 -0.1573 -2.5305
  671MOL0     H90574   4.240   6.834   2.350  0.9881 -2.8936 -0.4406
  671MOL0     H90575   4.446   7.218   2.215  1.8492  1.9028  0.4801
  671MOL0     H90576   4.283   7.278   2.259  1.1797  1.2211 -0.0329
  671MOL0     H90577   4.490   7.167   2.454  1.1007 -0.0361  0.3828
  671MOL0     H90578   4.336   7.265   2.487 -1.3238 -3.2184 -1.0554
  671MOL0     H90579   4.596   7.352   2.337  0.5475 -0.0091 -0.7696
  671MOL0     H90580   4.577   7.391   2.499 -2.4534  3.1738 -0.8467
  671MOL0     H90581   4.501   7.583   2.409 -0.7710  0.4693 -0.4623
  671MOL0     H90582   4.343   7.486   2.420 -0.5584 -1.6632 -2.2206
  671MOL0     H90583   4.369   7.525   2.006 -1.2228  0.4749  1.1189
  671MOL0     H90584   4.237   7.158   2.066  1.6819  0.0694  1.4625
  671MOL0     H90585   4.081   7.052   1.930 -1.4027  2.1636  1.4645
  672MOL0     O90586   7.367   5.398   9.719  0.9670 -0.1512  0.6480
  672MOL0     C90587   7.303   5.408   9.613  0.7611 -0.3799  0.1988
  672MOL0     O90588   7.368   5.453   9.498 -0.9859  0.1225  0.2447
  672MOL0     C90589   7.495   5.517   9.502 -0.2481  0.0569 -0.3015
  672MOL0     C90590   7.605   5.451   9.457 -0.3962 -1.0914 -0.6713
  672MOL0     C90591   7.729   5.525   9.439  0.4346 -0.2582 -0.8955
  672MOL0     C90592   7.755   5.649   9.497  1.2804  0.2553 -0.8430
  672MOL0     O90593   7.874   5.710   9.513  0.7500  0.0022 -0.5613
  672MOL0     C90594   7.996   5.647   9.469 -0.3757 -0.4585  0.6896
  672MOL0     C90595   8.060   5.567   9.581  0.8583 -0.3850  0.0417
  672MOL0     C90596   8.104   5.652   9.708 -0.7585  0.7357  0.7559
  672MOL0     C90597   8.180   5.566   9.803 -0.3030  0.3665  0.4915
  672MOL0     C90598   8.093   5.525   9.924  0.8624 -0.0339 -0.8169
  672MOL0     C90599   8.051   5.639  10.026 -0.1728 -0.3979 -0.6004
  672MOL0     C90600   7.933   5.598  10.123 -0.0355  0.0041  1.1725
  672MOL0     C90601   7.989   5.518  10.244  0.4634 -0.4636 -0.4516
  672MOL0     N90602   8.058   5.606  10.336 -0.5849  0.4932  0.6975
  672MOL0     C90603   8.009   5.641  10.457 -0.5352 -0.3796  0.7869
  672MOL0     C90604   8.123   5.678  10.520  0.1126 -0.3054  0.3967
  672MOL0     C90605   8.112   5.743  10.652 -0.2178  0.2410  0.2473
  672MOL0     C90606   8.221   5.693  10.740 -0.1224 -0.0676  0.0123
  672MOL0     C90607   8.369   5.738  10.708 -0.1541  0.3372  0.7190
  672MOL0     C90608   8.369   5.876  10.638  0.2195 -0.6773 -0.3190
  672MOL0     O90609   8.505   5.925  10.617 -0.4354 -0.1246 -0.4281
  672MOL0     C90610   8.602   5.855  10.555 -0.1203  1.0891  0.5156
  672MOL0     C90611   8.580   5.759  10.451  0.1118 -0.1801 -0.5330
  672MOL0     C90612   8.686   5.692  10.396  0.4260  0.0002 -0.2205
  672MOL0     C90613   8.653   5.612  10.273 -0.0652 -0.4931 -0.5942
  672MOL0     C90614   8.824   5.723  10.425 -0.3861 -0.6376 -0.3425
  672MOL0     C90615   8.950   5.671  10.363  0.3014  0.4061  0.1340
  672MOL0     O90616   9.072   5.717  10.417  0.0430 -0.1302  0.8299
  672MOL0     C90617   9.202   5.671  10.387 -0.6577  1.1508  0.6191
  672MOL0     C90618   9.222   5.538  10.352 -0.3774 -0.5472 -0.3319
  672MOL0     C90619   9.359   5.492  10.327  0.4993  0.0994  0.8249
  672MOL0     C90620   9.469   5.573  10.340  0.1995 -0.3221 -0.0829
  672MOL0     O90621   9.597   5.537  10.325  0.6908  0.4968 -0.6068
  672MOL0     C90622   9.624   5.558  10.185 -0.3449 -1.2425 -1.2134
  672MOL0     C90623   9.785   5.567  10.176  0.8483 -0.6040  0.0880
  672MOL0     C90624   9.828   5.584  10.030 -0.2987  0.7879  1.1920
  672MOL0     C90625   9.984   5.566  10.031  0.1215  0.3586 -0.1140
  672MOL0     C90626  10.043   5.534   9.900  0.6944  0.3590 -0.0367
  672MOL0     C90627  10.192   5.535   9.905 -0.1682  0.0223  0.4089
  672MOL0     C90628  10.254   5.458   9.788  0.2057  0.9457  0.2771
  672MOL0     C90629  10.403   5.421   9.810 -1.6928  0.6647  0.7841
  672MOL0    Cl90630  10.427   5.309   9.953  0.3710 -0.1725  0.4258
  672MOL0     C90631   9.442   5.702  10.378 -0.3002 -0.7942  0.4596
  672MOL0     C90632   9.312   5.755  10.403  0.2195 -0.5967  1.0617
  672MOL0     O90633   8.944   5.609  10.255 -0.5640 -0.1033  0.2357
  672MOL0     C90634   8.837   5.819  10.531  0.5653 -0.1762 -0.5093
  672MOL0     C90635   8.729   5.880  10.594  0.2839  0.3795 -0.7479
  672MOL0     N90636   8.232   5.655  10.445 -0.1307  0.8431  0.4310
  672MOL0     N90637   8.191   5.612  10.331  0.5480 -0.5448  0.0299
  672MOL0     C90638   7.634   5.713   9.544 -0.0805 -0.2595 -0.2681
  672MOL0     C90639   7.509   5.650   9.540  0.9455 -0.5748  0.3421
  672MOL0     C90640   7.169   5.347   9.609  0.0851 -0.6283  0.2612
  672MOL0     C90641   7.124   5.291   9.494 -0.2337 -0.6178 -0.4819
  672MOL0     C90642   6.997   5.231   9.488 -0.2714 -0.0791 -0.0406
  672MOL0     C90643   6.925   5.204   9.605  0.2722  0.3453 -0.4707
  672MOL0     O90644   6.810   5.123   9.594  0.2443  0.1062 -0.0022
  672MOL0     C90645   6.758   5.068   9.717  1.2833  0.2117  0.3404
  672MOL0     C90646   6.702   4.926   9.684  0.5281 -0.8888 -0.4883
  672MOL0     C90647   6.795   4.826   9.608  0.7088 -0.1616  0.1732
  672MOL0     C90648   6.905   4.769   9.686 -0.5313  1.2020  0.2219
  672MOL0     C90649   6.879   4.655   9.781  0.9064  0.3497  0.7407
  672MOL0     C90650   6.850   4.554   9.842  0.0828  0.2485  0.4821
  672MOL0     C90651   6.976   5.245   9.725 -0.1585 -0.4626 -0.9506
  672MOL0     C90652   7.102   5.305   9.730  0.8856  0.7414  0.1762
  672MOL0     H90653   7.594   5.346   9.431 -0.6676 -0.6948 -2.2523
  672MOL0     H90654   7.806   5.460   9.400 -0.4252 -0.5611 -2.1596
  672MOL0     H90655   7.990   5.584   9.379  2.4101  1.1075 -0.7152
  672MOL0     H90656   8.067   5.725   9.441  1.8511 -2.2272  1.1426
  672MOL0     H90657   7.988   5.487   9.603 -0.0155  0.1237 -0.8671
  672MOL0     H90658   8.153   5.527   9.539 -0.1146  1.0520 -3.9597
  672MOL0     H90659   8.172   5.733   9.681  0.5297 -1.0178 -1.6840
  672MOL0     H90660   8.022   5.701   9.760  1.1594  0.5989  4.2438
  672MOL0     H90661   8.223   5.484   9.745 -1.2771 -0.5420  0.9953
  672MOL0     H90662   8.267   5.620   9.840  1.5554 -1.8811 -0.3486
  672MOL0     H90663   8.003   5.488   9.876  0.7531  1.4941 -1.8981
  672MOL0     H90664   8.151   5.443   9.966  1.1183  0.6830  0.2842
  672MOL0     H90665   8.135   5.678  10.084 -2.7519  2.0779  1.7596
  672MOL0     H90666   8.006   5.725   9.974 -1.8407 -0.6220  0.3993
  672MOL0     H90667   7.884   5.689  10.159 -1.4771 -0.7740  1.2494
  672MOL0     H90668   7.863   5.528  10.075  0.7864  0.4682 -0.8123
  672MOL0     H90669   8.057   5.436  10.219  3.4859  1.5660  0.5295
  672MOL0     H90670   7.907   5.477  10.304  1.5964 -2.6039 -0.2317
  672MOL0     H90671   7.905   5.638  10.486 -0.6538 -1.3058  0.2862
  672MOL0     H90672   8.095   5.851  10.644 -0.7744  0.2544  1.3149
  672MOL0     H90673   8.023   5.699  10.698 -0.8163  1.5737  0.4314
  672MOL0     H90674   8.229   5.584  10.752  3.6426  0.1309  0.4637
  672MOL0     H90675   8.199   5.739  10.837 -1.8964 -0.2702 -0.2513
  672MOL0     H90676   8.429   5.664  10.655  1.2817  1.6346  0.4495
  672MOL0     H90677   8.422   5.746  10.803 -1.9623  1.5741  1.6935
  672MOL0     H90678   8.311   5.938  10.707  2.0974  1.7394 -0.7765
  672MOL0     H90679   8.323   5.867  10.539 -1.7840  0.3540  0.4611
  672MOL0     H90680   8.478   5.743  10.416  0.7235 -1.7754 -1.7396
  672MOL0     H90681   8.684   5.659  10.179  0.4392 -0.1183 -0.2460
  672MOL0     H90682   8.684   5.508  10.283  2.7179  0.1442 -1.6962
  672MOL0     H90683   8.544   5.614  10.262 -0.3463  1.6234  1.7664
  672MOL0     H90684   9.133   5.477  10.342 -2.2414  1.8902  0.4110
  672MOL0     H90685   9.366   5.392  10.286 -0.1652 -0.0830  1.1354
  672MOL0     H90686   9.589   5.471  10.129 -0.0911 -0.0123 -3.4065
  672MOL0     H90687   9.574   5.645  10.142 -0.8763 -0.9387 -0.0278
  672MOL0     H90688   9.823   5.646  10.242 -1.4213 -2.1354  3.5595
  672MOL0     H90689   9.808   5.467  10.212  0.1703 -0.7256  0.2120
  672MOL0     H90690   9.805   5.681   9.983 -0.6339 -1.2919 -3.5382
  672MOL0     H90691   9.792   5.501   9.969  0.7898  2.2945 -1.7003
  672MOL0     H90692  10.031   5.649  10.083  1.8267  0.0930 -1.1548
  672MOL0     H90693  10.010   5.479  10.091  0.3054 -2.0786 -3.4351
  672MOL0     H90694  10.017   5.599   9.817  4.3213  3.3663  0.9152
  672MOL0     H90695  10.003   5.437   9.868 -1.1799  0.6629  1.1894
  672MOL0     H90696  10.227   5.638   9.917  2.1030 -0.4486 -1.5824
  672MOL0     H90697  10.219   5.484   9.998  0.3754  2.9381  1.9481
  672MOL0     H90698  10.253   5.524   9.701  0.9732  2.9176  1.7073
  672MOL0     H90699  10.216   5.356   9.780 -0.2903  0.9868  1.7740
  672MOL0     H90700  10.457   5.516   9.803  3.8550 -1.8404  3.5113
  672MOL0     H90701  10.429   5.370   9.717  0.5993  0.5059  1.4424
  672MOL0     H90702   9.525   5.769  10.398  1.8018 -3.1727  0.1645
  672MOL0     H90703   9.294   5.859  10.431  1.7980  0.3910 -1.2971
  672MOL0     H90704   8.936   5.860  10.552 -0.9141  4.0881 -0.8573
  672MOL0     H90705   8.741   5.966  10.658 -4.8778  3.0786 -2.7983
  672MOL0     H90706   7.643   5.816   9.577  0.9306 -0.8205  1.3326
  672MOL0     H90707   7.420   5.707   9.561 -0.6942 -1.9012 -2.4682
  672MOL0     H90708   7.184   5.286   9.404  2.3668  0.2375  1.0676
  672MOL0     H90709   6.954   5.183   9.400 -2.0237  0.6835  0.3452
  672MOL0     H90710   6.836   5.044   9.789  1.4424 -0.6950 -0.1161
  672MOL0     H90711   6.687   5.132   9.771  0.3903 -1.2610  0.9863
  672MOL0     H90712   6.615   4.940   9.620 -0.4545 -1.7577  0.6323
  672MOL0     H90713   6.676   4.877   9.778  1.9194 -0.9691 -0.1199
  672MOL0     H90714   6.826   4.875   9.515 -4.2090  0.9346 -1.1704
  672MOL0     H90715   6.743   4.745   9.555 -2.2534  1.4700  0.3417
  672MOL0     H90716   6.955   4.857   9.729 -1.0717  2.6503 -1.9617
  672MOL0     H90717   6.978   4.730   9.615 -2.2728  0.7733 -1.4107
  672MOL0     H90718   6.817   4.467   9.894 -2.8791  0.8648 -0.1903
  672MOL0     H90719   6.917   5.239   9.816 -0.8332  0.5852 -1.2982
  672MOL0     H90720   7.146   5.320   9.828  3.5307 -3.3970 -0.1185
  673MOL0     O90721   2.244   2.916  10.911 -1.1860  0.1225 -0.3358
  673MOL0     C90722   2.252   2.910  10.785  0.4109 -0.4130 -0.1099
  673MOL0     O90723   2.147   2.902  10.700  0.8292 -0.9450 -0.5425
  673MOL0     C90724   2.024   2.927  10.752 -0.2493 -0.3596  0.6541
  673MOL0     C90725   1.973   3.047  10.726  0.7673 -0.3225 -0.0178
  673MOL0     C90726   1.846   3.068  10.780 -0.9784  0.3670 -0.5848
  673MOL0     C90727   1.764   2.969  10.843  0.1643 -0.0248  0.1288
  673MOL0     O90728   1.634   2.996  10.870  0.1806 -0.0620 -1.2861
  673MOL0     C90729   1.588   2.930  10.986  0.7712  0.2489 -0.0846
  673MOL0     C90730   1.460   2.999  11.012 -0.3448  0.1648  0.1581
  673MOL0     C90731   1.483   3.149  11.057 -0.2184 -0.8180 -0.0121
  673MOL0     C90732   1.486   3.259  10.944 -0.1124  0.8427 -1.1611
  673MOL0     C90733   1.519   3.387  11.011 -0.0424  0.2140  0.6890
  673MOL0     C90734   1.664   3.418  11.059  0.5080  1.4887 -0.2517
  673MOL0     C90735   1.705   3.557  11.019  0.6991 -0.8132  0.2347
  673MOL0     C90736   1.859   3.577  11.042 -0.0126  0.3236 -0.3112
  673MOL0     N90737   1.884   3.567  11.192  0.1126 -0.8287 -0.4064
  673MOL0     C90738   1.856   3.675  11.282 -0.3952 -0.7407 -1.2212
  673MOL0     C90739   1.868   3.625  11.404  0.1750  0.8846  0.4597
  673MOL0     C90740   1.827   3.690  11.540 -0.0008 -0.3232  0.9243
  673MOL0     C90741   1.817   3.586  11.654  0.0426 -1.3360 -0.0272
  673MOL0     C90742   1.739   3.642  11.784 -0.9386  0.3621  0.9229
  673MOL0     C90743   1.830   3.730  11.867 -0.4228 -0.3430 -0.2628
  673MOL0     O90744   1.749   3.829  11.934 -0.1576 -0.3425  0.2342
  673MOL0     C90745   1.825   3.904  12.026  0.6243  0.5736  0.1298
  673MOL0     C90746   1.962   3.924  12.026 -0.7583 -0.0895  0.4831
  673MOL0     C90747   2.025   3.998  12.134  0.5466 -0.2820 -0.0229
  673MOL0     C90748   2.178   4.001  12.125  0.2541  0.9441  0.6048
  673MOL0     C90749   1.950   4.041  12.251 -1.0240  0.4886  0.1055
  673MOL0     C90750   2.003   4.112  12.364 -0.1935  0.6156 -0.0004
  673MOL0     O90751   1.921   4.159  12.460 -0.1349 -0.0948  0.5302
  673MOL0     C90752   1.974   4.211  12.576 -0.1738 -0.1538  0.2424
  673MOL0     C90753   1.927   4.178  12.702 -0.7376 -0.9275 -0.8186
  673MOL0     C90754   2.005   4.228  12.811  0.0425  0.3025  0.2129
  673MOL0     C90755   2.104   4.324  12.807  0.4699 -0.1460  0.7637
  673MOL0     O90756   2.154   4.372  12.920  0.7342 -0.4001 -0.4444
  673MOL0     C90757   2.261   4.470  12.935  0.5847  0.7084  0.2077
  673MOL0     C90758   2.303   4.504  13.069  0.6047 -0.3684 -0.6797
  673MOL0     C90759   2.200   4.482  13.182  0.1222  0.4281 -0.7413
  673MOL0     C90760   2.252   4.525  13.324 -1.6065  0.6852  0.6788
  673MOL0     C90761   2.145   4.541  13.432 -0.9793  0.0507 -1.1129
  673MOL0     C90762   2.097   4.408  13.491  0.9546  0.2774  0.5111
  673MOL0     C90763   2.203   4.340  13.578  0.1956 -0.1541 -0.8339
  673MOL0     C90764   2.138   4.257  13.686 -0.1991  1.0995 -0.5932
  673MOL0    Cl90765   2.264   4.184  13.782  0.1538  0.4970 -0.0621
  673MOL0     C90766   2.132   4.367  12.676  0.2082 -0.8865  0.8006
  673MOL0     C90767   2.064   4.316  12.569 -0.4209  0.5544 -0.0399
  673MOL0     O90768   2.119   4.144  12.366  0.6387  0.0032 -0.0529
  673MOL0     C90769   1.810   4.008  12.238  0.5564 -1.1192  0.2220
  673MOL0     C90770   1.749   3.949  12.131  0.7179  0.5477 -0.2642
  673MOL0     N90771   1.905   3.491  11.393 -0.6053  0.8015 -0.2033
  673MOL0     N90772   1.912   3.458  11.267  0.0910  0.2594  0.2049
  673MOL0     C90773   1.825   2.841  10.858  0.7001 -0.6772  0.1828
  673MOL0     C90774   1.961   2.828  10.823  2.0789  0.7620 -0.3691
  673MOL0     C90775   2.389   2.936  10.725  0.2497 -0.1825 -0.1295
  673MOL0     C90776   2.393   2.992  10.591  0.7790  0.0540 -1.1190
  673MOL0     C90777   2.521   3.022  10.538  0.1525 -0.6324  0.2511
  673MOL0     C90778   2.636   2.998  10.618 -0.1602 -0.7819 -1.4759
  673MOL0     O90779   2.759   3.035  10.585  0.0950 -0.2237 -0.4156
  673MOL0     C90780   2.792   3.065  10.453  0.3982  0.4304 -0.9418
  673MOL0     C90781   2.941   3.102  10.427 -0.3318  0.3339 -0.0443
  673MOL0     C90782   3.050   3.001  10.479 -0.0318 -0.5831 -0.4310
  673MOL0     C90783   3.192   3.050  10.449 -0.0235  0.0457  0.3294
  673MOL0     C90784   3.280   2.975  10.546 -0.2756 -0.0292 -0.2992
  673MOL0     C90785   3.325   2.902  10.631 -0.1554 -0.4905  0.0032
  673MOL0     C90786   2.628   2.929  10.743 -0.0476 -0.4682 -0.1775
  673MOL0     C90787   2.504   2.895  10.796 -0.1184  0.3153  0.1020
  673MOL0     H90788   2.021   3.127  10.670 -2.0101  0.4565 -1.4966
  673MOL0     H90789   1.814   3.171  10.769  2.8632  1.8266  0.3265
  673MOL0     H90790   1.557   2.825  10.983  0.2903  0.4047 -1.5100
  673MOL0     H90791   1.654   2.950  11.071 -0.3650 -0.5487  1.0204
  673MOL0     H90792   1.401   2.990  10.920  1.6343 -1.1927 -1.0451
  673MOL0     H90793   1.417   2.943  11.096  1.4354 -2.5605 -0.6170
  673MOL0     H90794   1.412   3.192  11.129  0.3532  2.5543 -1.2774
  673MOL0     H90795   1.582   3.155  11.103 -0.2868 -3.5530  0.6666
  673MOL0     H90796   1.558   3.228  10.867 -0.5008  0.4142 -1.3564
  673MOL0     H90797   1.387   3.262  10.897 -0.7119 -1.6037 -0.2144
  673MOL0     H90798   1.480   3.471  10.952 -1.3927  0.9781  2.5680
  673MOL0     H90799   1.459   3.401  11.101  3.0049 -0.1012  2.9228
  673MOL0     H90800   1.672   3.413  11.168  0.1128  1.0103 -0.2382
  673MOL0     H90801   1.727   3.337  11.019 -0.1111 -0.0982  1.8251
  673MOL0     H90802   1.688   3.575  10.912  1.7418  0.1121  0.1964
  673MOL0     H90803   1.649   3.641  11.061  1.3305 -0.5048  0.4760
  673MOL0     H90804   1.900   3.667  10.996 -2.6411  0.3734 -2.8883
  673MOL0     H90805   1.914   3.492  11.001 -2.0753  0.1959 -3.1483
  673MOL0     H90806   1.821   3.774  11.255  1.8542  0.2743 -0.6655
  673MOL0     H90807   1.905   3.765  11.557  0.6042 -0.2270 -1.8235
  673MOL0     H90808   1.737   3.749  11.522  1.2905  1.0998 -1.3271
  673MOL0     H90809   1.920   3.567  11.684  0.3398  1.5196  1.0898
  673MOL0     H90810   1.771   3.494  11.615 -0.4635 -0.2626 -2.0501
  673MOL0     H90811   1.705   3.554  11.840 -1.1003 -0.7102 -0.7782
  673MOL0     H90812   1.649   3.698  11.757  0.5503  1.7760 -1.4093
  673MOL0     H90813   1.906   3.782  11.806 -0.4228 -1.9319 -1.6839
  673MOL0     H90814   1.886   3.669  11.938 -4.6296 -0.9764  2.8571
  673MOL0     H90815   2.029   3.890  11.948 -1.2575  1.5442 -0.7225
  673MOL0     H90816   2.211   3.920  12.058 -2.5747 -2.3275  2.7961
  673MOL0     H90817   2.218   4.098  12.094 -0.2965  1.5155  1.6399
  673MOL0     H90818   2.216   3.971  12.223  1.5659 -1.8325 -0.6291
  673MOL0     H90819   1.836   4.120  12.716  1.3174 -4.8529 -2.1997
  673MOL0     H90820   1.971   4.196  12.909 -0.5005 -0.9705 -0.3675
  673MOL0     H90821   2.350   4.454  12.874  1.5405  0.3510  1.6265
  673MOL0     H90822   2.208   4.553  12.888  1.6371  2.6832  2.3253
  673MOL0     H90823   2.391   4.449  13.106 -0.6720 -0.7854  2.0068
  673MOL0     H90824   2.327   4.611  13.062  0.0936 -0.2538 -0.6674
  673MOL0     H90825   2.165   4.379  13.169  2.0628 -0.0769 -2.6134
  673MOL0     H90826   2.116   4.548  13.159  1.6197  2.9440  0.6074
  673MOL0     H90827   2.323   4.448  13.356 -3.0552 -0.6694  0.7267
  673MOL0     H90828   2.299   4.624  13.315 -0.9643  0.3656  0.4465
  673MOL0     H90829   2.053   4.589  13.396 -2.2637 -3.1901 -2.6358
  673MOL0     H90830   2.187   4.604  13.510 -2.6079  3.7448 -2.9729
  673MOL0     H90831   2.009   4.429  13.554  1.9373 -1.5359  2.6215
  673MOL0     H90832   2.080   4.351  13.399  0.2470 -1.1979  1.5085
  673MOL0     H90833   2.250   4.421  13.634 -1.7649 -0.0517  0.7877
  673MOL0     H90834   2.269   4.274  13.520  0.6795 -2.8144  2.4205
  673MOL0     H90835   2.075   4.181  13.638  2.2316 -0.0324 -2.2415
  673MOL0     H90836   2.083   4.322  13.754  1.6096  2.9693 -0.8009
  673MOL0     H90837   2.216   4.434  12.659  0.0521 -0.6623  0.8998
  673MOL0     H90838   2.086   4.351  12.468  0.0912 -1.3300 -0.6259
  673MOL0     H90839   1.754   4.039  12.326  1.0872  2.3057 -0.5135
  673MOL0     H90840   1.643   3.933  12.139  0.8458  0.2602  1.1118
  673MOL0     H90841   1.773   2.758  10.907  1.3590  0.3847  2.8711
  673MOL0     H90842   1.999   2.731  10.851 -3.7430 -1.5668  0.9711
  673MOL0     H90843   2.311   3.018  10.524  0.2295  1.2807 -0.0138
  673MOL0     H90844   2.534   3.075  10.444  2.5650 -1.9063 -0.2216
  673MOL0     H90845   2.781   2.971  10.398 -0.5921 -0.1880  0.2431
  673MOL0     H90846   2.722   3.133  10.405 -2.9531 -3.3642 -2.0288
  673MOL0     H90847   2.956   3.196  10.481  2.8648  0.0430 -0.2391
  673MOL0     H90848   2.968   3.095  10.321 -2.6939 -1.8769 -0.5864
  673MOL0     H90849   3.035   2.902  10.435 -3.1653 -0.6237  0.4773
  673MOL0     H90850   3.030   2.984  10.586  1.6032 -2.0536 -0.3216
  673MOL0     H90851   3.198   3.158  10.466  2.2492  0.1293 -0.6675
  673MOL0     H90852   3.223   3.030  10.346  5.7385  1.6039  1.3897
  673MOL0     H90853   3.361   2.831  10.702 -0.4961  0.1461  0.8349
  673MOL0     H90854   2.714   2.917  10.808 -1.0568 -0.7791  1.1257
  673MOL0     H90855   2.510   2.854  10.896 -2.1874 -0.3849 -0.0009
  674MOL0     O90856   2.994   6.546   2.013  0.4833 -0.2186  0.3530
  674MOL0     C90857   3.051   6.650   2.033 -0.5146 -1.1784 -0.0739
  674MOL0     O90858   3.175   6.682   1.988  0.3072  0.3909  0.1780
  674MOL0     C90859   3.279   6.596   1.974 -0.1691  0.2499  0.2346
  674MOL0     C90860   3.407   6.638   2.002 -0.2807  0.2278  0.2937
  674MOL0     C90861   3.513   6.547   1.994  1.2277  0.0814  0.2739
  674MOL0     C90862   3.501   6.420   1.937 -0.5085  0.8126 -0.4342
  674MOL0     O90863   3.596   6.331   1.916 -0.3939  1.0153  0.7313
  674MOL0     C90864   3.671   6.292   2.033  0.6779 -0.5253 -0.7275
  674MOL0     C90865   3.816   6.278   1.998  0.2043  0.3554  0.5628
  674MOL0     C90866   3.904   6.253   2.114  0.2817  0.5156 -0.5660
  674MOL0     C90867   3.930   6.108   2.151 -1.2541 -0.5491  0.4870
  674MOL0     C90868   4.041   6.087   2.257 -0.1721 -0.3578  0.7405
  674MOL0     C90869   4.026   5.938   2.313 -0.2946  0.6360 -0.2784
  674MOL0     C90870   4.098   5.922   2.448 -0.5835  0.2357 -0.0008
  674MOL0     C90871   4.240   5.848   2.420  1.2459  0.4617  0.5166
  674MOL0     N90872   4.336   5.835   2.532  0.3230 -1.0319 -0.2905
  674MOL0     C90873   4.299   5.790   2.658  0.1747 -0.7026  0.1935
  674MOL0     C90874   4.413   5.769   2.724  0.3100 -0.5824  0.1053
  674MOL0     C90875   4.422   5.728   2.874 -0.2937  0.5125 -0.1243
  674MOL0     C90876   4.439   5.583   2.897  0.0635  0.7151  0.3665
  674MOL0     C90877   4.393   5.535   3.033  0.0781 -0.1523 -0.4298
  674MOL0     C90878   4.384   5.384   3.051 -0.3038  0.1105  1.1979
  674MOL0     O90879   4.261   5.316   3.004 -0.1732  0.7741  0.4218
  674MOL0     C90880   4.275   5.188   2.955  1.1644 -0.3345 -0.4616
  674MOL0     C90881   4.197   5.139   2.843  0.3868 -0.1078  0.2164
  674MOL0     C90882   4.185   5.007   2.796  0.4568 -0.3335  0.1129
  674MOL0     C90883   4.092   4.988   2.683 -0.4686 -0.5640 -0.5950
  674MOL0     C90884   4.274   4.918   2.858 -0.7583  0.5545  0.3115
  674MOL0     C90885   4.307   4.782   2.800 -0.5385  0.6052  0.1995
  674MOL0     O90886   4.416   4.717   2.847  0.4504  0.4051  0.0220
  674MOL0     C90887   4.467   4.594   2.791  0.2669  0.2614  0.0727
  674MOL0     C90888   4.559   4.524   2.873 -0.4589  0.1504  0.1219
  674MOL0     C90889   4.601   4.397   2.840 -0.5411 -0.2686  0.1671
  674MOL0     C90890   4.564   4.336   2.715 -0.4688  0.1564 -0.7859
  674MOL0     O90891   4.608   4.214   2.688 -0.6272  0.1903  0.1927
  674MOL0     C90892   4.736   4.193   2.629 -0.1234 -0.6857  0.6215
  674MOL0     C90893   4.843   4.172   2.747 -0.3438  0.0299 -0.0697
  674MOL0     C90894   4.797   4.056   2.839 -0.5954 -0.3989  0.6329
  674MOL0     C90895   4.913   4.027   2.941 -0.0235 -0.5669  0.4218
  674MOL0     C90896   4.910   3.901   3.023 -0.9256 -0.7488 -0.3509
  674MOL0     C90897   4.909   3.773   2.949  0.5121  0.7485  0.0739
  674MOL0     C90898   5.051   3.730   2.896 -0.1239 -0.2120  0.5161
  674MOL0     C90899   5.041   3.595   2.817  0.4438  0.0957  0.4172
  674MOL0    Cl90900   5.189   3.528   2.742  0.0137 -0.7055  0.2037
  674MOL0     C90901   4.479   4.402   2.635 -0.9713 -0.3843 -0.2135
  674MOL0     C90902   4.425   4.525   2.673 -0.5903  0.4803  0.2771
  674MOL0     O90903   4.237   4.744   2.706 -0.1419 -0.1480 -0.0136
  674MOL0     C90904   4.349   4.957   2.971 -0.2368  0.2123 -0.6686
  674MOL0     C90905   4.359   5.094   3.007  0.3607  0.2986 -0.2234
  674MOL0     N90906   4.514   5.838   2.655 -0.4881  1.3476 -0.2177
  674MOL0     N90907   4.463   5.862   2.535  0.6166  1.1277 -1.6617
  674MOL0     C90908   3.373   6.401   1.874  0.4232 -0.0546  0.8873
  674MOL0     C90909   3.259   6.477   1.905 -0.3998  0.3955  0.7740
  674MOL0     C90910   2.962   6.752   2.099  0.2900 -0.0953  0.3609
  674MOL0     C90911   3.018   6.867   2.163 -0.5479 -0.3034 -0.4063
  674MOL0     C90912   2.937   6.980   2.210 -0.0834 -0.3215  0.2948
  674MOL0     C90913   2.801   6.972   2.216 -0.1648 -0.1719 -0.3420
  674MOL0     O90914   2.716   7.063   2.271 -0.1553 -0.2925  0.2043
  674MOL0     C90915   2.774   7.121   2.398  0.5763  1.3487  0.0857
  674MOL0     C90916   2.674   7.203   2.471  0.0909  0.6676 -0.1949
  674MOL0     C90917   2.754   7.262   2.589 -0.4284  0.5716 -0.4576
  674MOL0     C90918   2.669   7.359   2.666 -0.5891  0.2908  0.6697
  674MOL0     C90919   2.743   7.388   2.793  0.7996  0.6857 -1.7283
  674MOL0     C90920   2.822   7.412   2.888  0.1345  0.1993 -0.2864
  674MOL0     C90921   2.741   6.867   2.154  0.5463  0.2508 -0.6353
  674MOL0     C90922   2.814   6.751   2.109  0.4764 -0.2248 -0.4594
  674MOL0     H90923   3.429   6.740   2.032  1.9422  1.2155 -3.9873
  674MOL0     H90924   3.612   6.586   2.013  1.2673  0.9783 -1.5701
  674MOL0     H90925   3.655   6.371   2.107  0.0211 -0.3660 -1.0306
  674MOL0     H90926   3.627   6.202   2.078 -1.1276  1.5596  1.9904
  674MOL0     H90927   3.824   6.194   1.928 -0.9371  0.2052  0.5969
  674MOL0     H90928   3.839   6.375   1.953 -4.9484  3.0951  2.9763
  674MOL0     H90929   3.997   6.302   2.083  0.3133  1.0429  0.3020
  674MOL0     H90930   3.877   6.309   2.204  0.5005  1.6872 -1.2111
  674MOL0     H90931   3.834   6.074   2.191  0.0530  0.0426  4.6010
  674MOL0     H90932   3.950   6.041   2.067 -2.4471 -1.8569  1.2197
  674MOL0     H90933   4.142   6.097   2.216  0.2644 -3.4879  0.7905
  674MOL0     H90934   4.025   6.163   2.335 -0.0178  0.2076  0.2277
  674MOL0     H90935   3.920   5.928   2.338 -0.1836  2.0056  0.9062
  674MOL0     H90936   4.067   5.858   2.251  0.4922 -1.2724  2.5204
  674MOL0     H90937   4.115   6.024   2.484 -3.7585  1.6011 -1.8665
  674MOL0     H90938   4.045   5.870   2.528  1.8022  0.2369  1.6962
  674MOL0     H90939   4.292   5.903   2.341  0.7576 -0.7137 -0.6488
  674MOL0     H90940   4.215   5.754   2.370 -1.0296  1.4474 -0.3402
  674MOL0     H90941   4.203   5.753   2.691  0.3460 -1.5710 -0.2295
  674MOL0     H90942   4.520   5.764   2.906 -0.5278 -0.2825  1.5795
  674MOL0     H90943   4.350   5.780   2.938 -1.4701 -2.2350  0.9523
  674MOL0     H90944   4.545   5.557   2.891  0.0313 -0.3045  3.0026
  674MOL0     H90945   4.388   5.525   2.819  0.7551 -0.8699  1.0538
  674MOL0     H90946   4.287   5.558   3.041 -0.2154 -0.9858 -1.6368
  674MOL0     H90947   4.444   5.583   3.117  1.9007 -2.3977 -0.1531
  674MOL0     H90948   4.378   5.366   3.159  1.3163 -1.9468  1.0004
  674MOL0     H90949   4.473   5.335   3.010  0.5605  3.1772 -0.8900
  674MOL0     H90950   4.137   5.225   2.813  1.8459  0.9045  0.0730
  674MOL0     H90951   4.015   4.912   2.698 -2.4810  1.6734  0.9741
  674MOL0     H90952   4.046   5.086   2.673  3.4102  1.7584  1.8762
  674MOL0     H90953   4.151   4.971   2.592 -1.8076  0.3704 -1.6780
  674MOL0     H90954   4.621   4.568   2.950  3.3515 -1.1602 -1.9405
  674MOL0     H90955   4.667   4.332   2.896 -2.3623  0.5581  3.5747
  674MOL0     H90956   4.735   4.101   2.570 -0.6666  1.7641 -3.6085
  674MOL0     H90957   4.754   4.277   2.561 -1.7265 -2.5893 -2.3398
  674MOL0     H90958   4.944   4.152   2.710 -0.5005  2.3327 -1.9534
  674MOL0     H90959   4.854   4.262   2.807 -1.5453 -0.7131  1.3473
  674MOL0     H90960   4.786   3.977   2.764  0.5330  2.0561 -2.3543
  674MOL0     H90961   4.707   4.087   2.894  1.1761  0.2969  3.3678
  674MOL0     H90962   5.010   4.025   2.891  1.2631 -1.4384  2.7879
  674MOL0     H90963   4.917   4.107   3.015  1.5211 -0.7740  0.5943
  674MOL0     H90964   4.815   3.914   3.076 -0.5772 -1.2832  0.4261
  674MOL0     H90965   4.985   3.888   3.102 -1.3442  0.9075  0.3696
  674MOL0     H90966   4.865   3.699   3.017  2.6296 -1.7901 -1.1308
  674MOL0     H90967   4.845   3.778   2.860  0.5491  4.3287  0.0957
  674MOL0     H90968   5.128   3.719   2.973 -1.3048  3.0860  2.3742
  674MOL0     H90969   5.085   3.812   2.833 -0.6446 -0.5360 -0.2003
  674MOL0     H90970   4.972   3.601   2.732  1.7105 -0.9796 -0.7371
  674MOL0     H90971   5.000   3.530   2.895  1.1558  2.6325  3.0915
  674MOL0     H90972   4.450   4.349   2.545  1.5457 -0.2691 -1.1872
  674MOL0     H90973   4.355   4.573   2.604  0.0613  1.9060  0.5695
  674MOL0     H90974   4.404   4.887   3.033 -2.8506 -0.8566  0.6016
  674MOL0     H90975   4.435   5.112   3.082  1.4405  3.2733 -1.8444
  674MOL0     H90976   3.383   6.319   1.803  1.0865  0.8666 -0.1211
  674MOL0     H90977   3.156   6.458   1.874 -1.4717  2.0928  3.0163
  674MOL0     H90978   3.124   6.889   2.153 -0.9376  1.1886 -1.5991
  674MOL0     H90979   2.982   7.075   2.237  2.0165 -0.9301 -0.8368
  674MOL0     H90980   2.806   7.034   2.457  3.6145 -1.1774 -4.6938
  674MOL0     H90981   2.858   7.186   2.375 -1.3090  3.2215 -1.9379
  674MOL0     H90982   2.584   7.153   2.508 -0.0605 -0.3900 -1.8978
  674MOL0     H90983   2.649   7.284   2.402 -1.5173  0.8822  0.6092
  674MOL0     H90984   2.847   7.306   2.552  0.2991 -1.4011 -1.1582
  674MOL0     H90985   2.772   7.179   2.659 -3.3291 -0.8220 -1.2062
  674MOL0     H90986   2.575   7.313   2.697  0.0002 -1.7074 -0.3329
  674MOL0     H90987   2.661   7.459   2.623 -2.4129 -0.9235 -2.0732
  674MOL0     H90988   2.914   7.432   2.939  1.4258 -0.1988 -2.3355
  674MOL0     H90989   2.633   6.865   2.144  0.1948 -3.3732  1.7114
  674MOL0     H90990   2.751   6.683   2.053 -0.6163  2.2751 -2.4453
  675MOL0     O90991  10.213   7.356   4.552  0.1010  0.3155  0.4649
  675MOL0     C90992  10.262   7.426   4.642 -0.3344  0.0917 -0.2893
  675MOL0     O90993  10.294   7.556   4.639 -0.0879 -0.3690 -1.5211
  675MOL0     C90994  10.259   7.620   4.530  0.1850  0.6326 -0.2264
  675MOL0     C90995  10.348   7.642   4.429  0.6429 -0.7801 -0.6861
  675MOL0     C90996  10.302   7.721   4.322 -0.0723  0.5984  0.7232
  675MOL0     C90997  10.167   7.743   4.293 -0.5355  0.1872 -0.4283
  675MOL0     O90998  10.122   7.831   4.198 -0.0645  0.1734 -0.7163
  675MOL0     C90999  10.160   7.785   4.064  0.5767 -0.4298  0.3662
  675MOL0     C91000  10.075   7.871   3.983 -0.0011  0.6375 -0.0390
  675MOL0     C91001  10.107   7.856   3.835  0.5168 -0.4995  1.4802
  675MOL0     C91002  10.051   7.731   3.756  0.0628  0.6374 -0.9602
  675MOL0     C91003  10.127   7.734   3.624  0.7144 -0.1772 -0.6727
  675MOL0     C91004  10.086   7.627   3.534  0.1535 -0.2951 -0.3158
  675MOL0     C91005  10.152   7.608   3.402 -0.2903  0.4850  0.8302
  675MOL0     C91006  10.309   7.615   3.406  0.6616  1.0872 -0.1254
  675MOL0     N91007  10.360   7.626   3.280 -0.9963  0.0883 -0.1355
  675MOL0     C91008  10.413   7.738   3.221 -0.0794 -0.1540  0.3529
  675MOL0     C91009  10.450   7.693   3.098  0.2661 -0.1169  0.1668
  675MOL0     C91010  10.507   7.764   2.974 -0.1467 -0.1108 -1.0481
  675MOL0     C91011  10.474   7.917   2.977  0.2469 -0.1569  0.7639
  675MOL0     C91012  10.537   7.997   2.865 -0.0157 -0.3917 -0.4738
  675MOL0     C91013  10.474   8.133   2.841 -0.7030 -0.7315  0.8835
  675MOL0     O91014  10.523   8.233   2.940  0.5821 -0.0102  0.0194
  675MOL0     C91015  10.654   8.272   2.932 -0.3744  0.5231  0.0328
  675MOL0     C91016  10.714   8.319   3.053 -0.4026 -0.7477  0.3219
  675MOL0     C91017  10.857   8.361   3.056 -0.0416  0.4300 -0.1314
  675MOL0     C91018  10.912   8.424   3.176  0.4131  0.4029 -0.1200
  675MOL0     C91019  10.928   8.361   2.941 -0.1606 -0.0671  1.0778
  675MOL0     C91020  11.070   8.405   2.931 -0.2042  0.4029  0.5611
  675MOL0     O91021  11.093   8.487   2.829  0.0734 -0.2144  0.1180
  675MOL0     C91022  11.213   8.549   2.816  0.3774 -0.7020  0.6391
  675MOL0     C91023  11.238   8.588   2.678 -0.9331 -0.5320 -1.3820
  675MOL0     C91024  11.357   8.663   2.646  0.6937  0.1803 -0.1015
  675MOL0     C91025  11.434   8.713   2.758  0.3941 -0.3251  1.2071
  675MOL0     O91026  11.534   8.805   2.717  0.2035 -0.4208  0.3206
  675MOL0     C91027  11.615   8.872   2.818 -0.6349 -0.9290  0.4293
  675MOL0     C91028  11.637   9.018   2.783  0.4268 -0.1655  0.2604
  675MOL0     C91029  11.710   9.103   2.896 -0.1087  1.0509 -0.8769
  675MOL0     C91030  11.854   9.058   2.900 -0.1660 -0.2412 -0.2281
  675MOL0     C91031  11.950   9.173   2.932  0.5483 -0.3738  0.1658
  675MOL0     C91032  12.092   9.108   2.957 -0.6285 -0.3068  0.6230
  675MOL0     C91033  12.207   9.204   2.934 -0.4412  0.8702 -0.8001
  675MOL0     C91034  12.340   9.137   2.956  0.4746 -0.1367  0.7458
  675MOL0    Cl91035  12.462   9.264   2.928  0.2037  0.1281  0.0519
  675MOL0     C91036  11.405   8.675   2.891  1.1229 -0.5882  0.0312
  675MOL0     C91037  11.310   8.578   2.917 -0.0439 -0.4969  0.0515
  675MOL0     O91038  11.152   8.338   2.990 -0.2935 -0.5071 -0.4171
  675MOL0     C91039  10.862   8.336   2.817  0.4317  0.5044 -0.8254
  675MOL0     C91040  10.730   8.295   2.819 -0.2182  0.5680 -0.5530
  675MOL0     N91041  10.427   7.554   3.092  0.6506  0.4017 -0.6301
  675MOL0     N91042  10.380   7.519   3.206  0.6748  0.1250  0.1496
  675MOL0     C91043  10.086   7.731   4.403  0.4690  0.3827 -0.0330
  675MOL0     C91044  10.132   7.673   4.516  1.1739  0.1607 -1.0701
  675MOL0     C91045  10.297   7.350   4.767 -0.6018 -0.8089  0.1176
  675MOL0     C91046  10.289   7.212   4.769 -0.0841 -0.0540 -0.5390
  675MOL0     C91047  10.346   7.144   4.886 -0.3589  1.2902  0.8181
  675MOL0     C91048  10.389   7.221   4.988  0.3673  0.4879 -0.2609
  675MOL0     O91049  10.427   7.143   5.091  0.6968 -0.5218 -0.2993
  675MOL0     C91050  10.459   7.210   5.216 -0.2696  0.0694  0.1997
  675MOL0     C91051  10.483   7.103   5.320  0.4978  0.1087 -0.5693
  675MOL0     C91052  10.599   7.015   5.283 -0.8860 -0.5779 -0.6440
  675MOL0     C91053  10.570   6.894   5.188  0.5109 -0.3304 -0.2070
  675MOL0     C91054  10.676   6.789   5.164  0.1247  0.6890 -0.9660
  675MOL0     C91055  10.755   6.707   5.134  0.4736  0.0928 -0.0795
  675MOL0     C91056  10.398   7.361   4.990 -0.2214 -1.6775 -0.7754
  675MOL0     C91057  10.352   7.421   4.878 -0.6644 -0.6144 -0.5198
  675MOL0     H91058  10.449   7.604   4.441  2.3630  2.9570 -1.8244
  675MOL0     H91059  10.374   7.731   4.241  0.8932  0.9034  1.5857
  675MOL0     H91060  10.263   7.815   4.042  1.0981  0.9801  3.9850
  675MOL0     H91061  10.155   7.675   4.058  3.3255 -0.6876  1.1460
  675MOL0     H91062   9.969   7.864   4.010  0.4364 -0.2509  1.5220
  675MOL0     H91063  10.115   7.971   4.003  0.2677  0.8312 -1.4089
  675MOL0     H91064  10.066   7.940   3.778  1.0037 -2.3614 -1.8992
  675MOL0     H91065  10.215   7.854   3.822  0.3789  0.5663 -0.0747
  675MOL0     H91066  10.060   7.640   3.816 -3.2178  0.6369 -0.2667
  675MOL0     H91067   9.945   7.739   3.729 -0.1400  0.0841 -0.3647
  675MOL0     H91068  10.094   7.829   3.580 -4.1909 -1.1784  0.2334
  675MOL0     H91069  10.231   7.723   3.654  0.0929 -0.2506  1.6799
  675MOL0     H91070  10.097   7.538   3.597 -3.0911  0.6204  1.8002
  675MOL0     H91071   9.982   7.632   3.501  0.9895  0.7011 -3.0290
  675MOL0     H91072  10.116   7.512   3.364 -0.7965 -0.5603  3.6663
  675MOL0     H91073  10.116   7.689   3.337  4.2912  2.2762  0.1577
  675MOL0     H91074  10.338   7.517   3.444  3.4583  0.2437 -3.8251
  675MOL0     H91075  10.347   7.693   3.473  1.0677  1.8118 -1.1676
  675MOL0     H91076  10.425   7.840   3.257  1.2130  0.4350 -1.6089
  675MOL0     H91077  10.614   7.762   2.996 -0.3095  0.4177 -0.1555
  675MOL0     H91078  10.481   7.712   2.882  3.6573 -2.0997 -1.1843
  675MOL0     H91079  10.497   7.962   3.074  4.4122 -0.1283 -0.0367
  675MOL0     H91080  10.365   7.921   2.969 -0.1276 -4.8600  0.5640
  675MOL0     H91081  10.516   7.938   2.775 -1.4588 -1.9343  0.8336
  675MOL0     H91082  10.645   8.005   2.880 -0.3901  0.7966  2.1397
  675MOL0     H91083  10.366   8.124   2.852 -1.0040  2.0586  0.9553
  675MOL0     H91084  10.500   8.157   2.738  0.7525 -1.3301  1.0840
  675MOL0     H91085  10.655   8.327   3.144 -1.4832  2.5114 -0.5309
  675MOL0     H91086  10.900   8.353   3.258  0.7756  1.9482  1.3408
  675MOL0     H91087  11.011   8.467   3.159  0.2666  0.0029 -2.3224
  675MOL0     H91088  10.844   8.503   3.210 -0.5513  0.6355 -2.3850
  675MOL0     H91089  11.162   8.579   2.602 -0.7123 -0.6010 -1.5948
  675MOL0     H91090  11.374   8.700   2.545  1.9299 -1.7805 -0.6869
  675MOL0     H91091  11.570   8.876   2.918 -4.1725 -1.3058 -1.0126
  675MOL0     H91092  11.712   8.821   2.818  1.4797  2.7419  0.6640
  675MOL0     H91093  11.692   9.017   2.688  1.8009  3.8822  0.8360
  675MOL0     H91094  11.542   9.067   2.759  0.8995 -0.0121 -1.4817
  675MOL0     H91095  11.657   9.100   2.991 -2.2727 -1.2716 -2.0391
  675MOL0     H91096  11.708   9.202   2.851  0.5437  1.0893 -0.8415
  675MOL0     H91097  11.865   8.981   2.977 -1.4789 -1.1083 -0.8813
  675MOL0     H91098  11.887   9.009   2.807 -2.6233 -2.4897 -0.0248
  675MOL0     H91099  11.908   9.216   3.023  0.5511  3.3818 -1.4397
  675MOL0     H91100  11.958   9.250   2.855  0.9851  1.9904  2.4541
  675MOL0     H91101  12.094   9.054   3.052  0.0673 -4.3518 -1.4634
  675MOL0     H91102  12.100   9.031   2.880  2.6735 -3.1531  3.4452
  675MOL0     H91103  12.190   9.287   3.004 -2.3596  1.3640 -1.7774
  675MOL0     H91104  12.195   9.229   2.828  0.3686  2.1011 -0.6216
  675MOL0     H91105  12.353   9.059   2.880  0.0526 -0.8005  1.3310
  675MOL0     H91106  12.362   9.095   3.055 -0.3057  1.2233  1.5289
  675MOL0     H91107  11.471   8.710   2.970  2.5513  0.7321 -1.6664
  675MOL0     H91108  11.295   8.546   3.019  1.6274 -2.6830 -0.3216
  675MOL0     H91109  10.904   8.345   2.718 -0.3288  0.7000 -1.1368
  675MOL0     H91110  10.682   8.303   2.722 -2.7158  1.3234  0.6662
  675MOL0     H91111   9.984   7.765   4.396  0.6924  1.6040  1.9087
  675MOL0     H91112  10.057   7.661   4.594 -1.3352  3.2256 -2.7714
  675MOL0     H91113  10.253   7.143   4.694  3.7976 -1.3594 -1.4596
  675MOL0     H91114  10.333   7.037   4.889  3.3483  0.6801 -0.3942
  675MOL0     H91115  10.544   7.278   5.214  1.1734 -1.6367  1.1338
  675MOL0     H91116  10.379   7.271   5.260 -0.1027  0.1943  0.3282
  675MOL0     H91117  10.392   7.048   5.344 -0.2369  0.2668 -2.7849
  675MOL0     H91118  10.509   7.147   5.417 -0.5086  1.0512 -0.7098
  675MOL0     H91119  10.647   6.982   5.376 -3.1234  1.3338  1.3107
  675MOL0     H91120  10.666   7.087   5.235 -0.1585 -0.8822 -0.1046
  675MOL0     H91121  10.537   6.926   5.089  0.3544  0.4508  0.0893
  675MOL0     H91122  10.483   6.842   5.230  0.9916 -2.4678 -1.7001
  675MOL0     H91123  10.835   6.638   5.115  1.6349  1.2606  0.3920
  675MOL0     H91124  10.422   7.424   5.076 -3.8371  3.7302 -3.1388
  675MOL0     H91125  10.332   7.528   4.872 -0.2866 -0.2562  2.9348
  676MOL0     O91126   4.437   4.049   5.963 -0.5732 -0.0640 -0.5046
  676MOL0     C91127   4.509   3.985   6.043 -0.0330  0.5836  0.1635
  676MOL0     O91128   4.515   4.012   6.178  0.4247  1.1511 -0.1699
  676MOL0     C91129   4.419   4.094   6.240 -0.9726  1.4756 -0.3023
  676MOL0     C91130   4.292   4.119   6.192  0.0143  0.0789  0.3702
  676MOL0     C91131   4.207   4.212   6.261  0.0173 -0.2508  0.8835
  676MOL0     C91132   4.254   4.261   6.382 -0.4209  0.0788 -0.5196
  676MOL0     O91133   4.190   4.349   6.465 -0.2168  0.0626  0.7037
  676MOL0     C91134   4.085   4.427   6.396  0.3145  1.8962  1.0120
  676MOL0     C91135   4.098   4.560   6.475  0.0196 -0.2627  0.5395
  676MOL0     C91136   4.003   4.665   6.426 -0.4492  0.0808  0.6387
  676MOL0     C91137   4.030   4.718   6.289  0.3397  0.6826  1.0923
  676MOL0     C91138   3.973   4.858   6.257  0.2812  0.5753 -0.5763
  676MOL0     C91139   4.032   4.923   6.140 -0.0079 -0.6762 -0.1225
  676MOL0     C91140   4.017   5.077   6.146 -0.4866 -0.0253  0.2870
  676MOL0     C91141   4.025   5.149   6.011 -0.5209 -0.2437  0.4995
  676MOL0     N91142   4.127   5.100   5.918  0.1085  1.1754  0.0077
  676MOL0     C91143   4.267   5.115   5.934  0.4100 -1.1780 -0.4021
  676MOL0     C91144   4.325   5.076   5.814  0.4206  0.4713 -0.3416
  676MOL0     C91145   4.473   5.064   5.767 -0.3741  0.4209  0.6050
  676MOL0     C91146   4.499   5.161   5.657 -0.6507 -1.0118 -0.1405
  676MOL0     C91147   4.491   5.313   5.703 -0.0818 -0.3755  0.9301
  676MOL0     C91148   4.620   5.337   5.792  0.6004 -0.4853 -0.3708
  676MOL0     O91149   4.625   5.472   5.839  0.3332 -0.4406  0.6346
  676MOL0     C91150   4.717   5.507   5.933  1.4152  0.2343 -0.1857
  676MOL0     C91151   4.832   5.427   5.956  0.2963 -0.1583  0.2131
  676MOL0     C91152   4.937   5.472   6.046  0.7138  0.1786 -0.1833
  676MOL0     C91153   5.056   5.373   6.050 -0.7033 -0.4267  0.0843
  676MOL0     C91154   4.913   5.584   6.121 -0.1507  0.2619 -0.2229
  676MOL0     C91155   5.007   5.643   6.211  0.1008 -0.1253  0.6177
  676MOL0     O91156   4.966   5.756   6.288 -1.0963  0.2078 -0.2759
  676MOL0     C91157   5.046   5.825   6.375 -0.2888  0.3188  0.7124
  676MOL0     C91158   5.152   5.771   6.452 -0.2282 -0.9997 -0.5132
  676MOL0     C91159   5.240   5.845   6.530 -0.6006 -0.1391  0.2322
  676MOL0     C91160   5.218   5.985   6.543 -0.3986  1.0438  0.0671
  676MOL0     O91161   5.302   6.043   6.631 -0.1902  0.5813 -0.6492
  676MOL0     C91162   5.266   6.169   6.689  0.0654  0.3655  0.3875
  676MOL0     C91163   5.387   6.207   6.768 -0.8669  0.1622  0.0192
  676MOL0     C91164   5.365   6.346   6.817 -0.5856 -0.5699  0.1932
  676MOL0     C91165   5.462   6.402   6.928 -0.2827  0.3377 -1.5157
  676MOL0     C91166   5.408   6.525   7.011 -0.4107 -0.2578 -0.3745
  676MOL0     C91167   5.500   6.566   7.119 -0.3603  0.1338 -0.9316
  676MOL0     C91168   5.496   6.714   7.169 -0.2701 -0.1018  0.2783
  676MOL0     C91169   5.471   6.723   7.317  0.1892 -0.5324  0.1050
  676MOL0    Cl91170   5.422   6.889   7.367 -0.1011  0.1925  0.4493
  676MOL0     C91171   5.117   6.043   6.464 -0.1514  0.2171 -0.4378
  676MOL0     C91172   5.039   5.963   6.374 -0.8252  0.8092  0.3514
  676MOL0     O91173   5.117   5.594   6.214  0.3703  0.1091  0.8600
  676MOL0     C91174   4.791   5.666   6.092 -0.2376  0.2957  0.2722
  676MOL0     C91175   4.702   5.627   5.998  0.5760  0.0086 -0.0461
  676MOL0     N91176   4.218   5.038   5.729  0.4679 -0.1748  1.3777
  676MOL0     N91177   4.107   5.042   5.794  0.1754  0.1024 -0.2702
  676MOL0     C91178   4.382   4.223   6.428  0.0901 -0.8150 -1.0242
  676MOL0     C91179   4.471   4.148   6.360 -0.0308  1.4824  0.4792
  676MOL0     C91180   4.593   3.883   5.979 -0.8427  1.2584 -1.1205
  676MOL0     C91181   4.707   3.837   6.045 -0.7730 -0.3561 -0.1491
  676MOL0     C91182   4.786   3.727   5.989  0.4543 -1.5332 -0.2900
  676MOL0     C91183   4.736   3.648   5.892 -0.3019 -0.5652  1.0404
  676MOL0     O91184   4.794   3.531   5.841  0.2962 -0.7770 -0.3550
  676MOL0     C91185   4.796   3.421   5.933 -0.4701 -0.1873 -1.3789
  676MOL0     C91186   4.662   3.381   5.990 -0.5357 -0.7051  0.0562
  676MOL0     C91187   4.652   3.450   6.131  0.9590  1.1241 -0.6902
  676MOL0     C91188   4.514   3.442   6.192 -0.3796 -0.3731 -1.0010
  676MOL0     C91189   4.443   3.316   6.180 -0.3228 -1.2139 -0.4370
  676MOL0     C91190   4.391   3.206   6.170  0.1638  0.8270  0.6594
  676MOL0     C91191   4.606   3.679   5.838  0.4359 -0.3798  0.1094
  676MOL0     C91192   4.534   3.795   5.885 -0.0791 -0.1672 -0.8329
  676MOL0     H91193   4.256   4.068   6.104  1.9203 -0.6377 -0.0388
  676MOL0     H91194   4.110   4.219   6.213  1.2935 -2.1842 -2.3070
  676MOL0     H91195   4.087   4.449   6.289 -2.6853 -3.5284 -0.5722
  676MOL0     H91196   3.987   4.377   6.400  0.5765  1.4098  1.5332
  676MOL0     H91197   4.087   4.545   6.583 -3.7055  4.2080  1.0788
  676MOL0     H91198   4.194   4.609   6.456  1.2556 -2.0332  1.9064
  676MOL0     H91199   3.899   4.639   6.446 -0.2623 -0.4224  0.9643
  676MOL0     H91200   4.027   4.750   6.490  0.0547 -0.2315  0.8668
  676MOL0     H91201   4.136   4.726   6.264 -0.9261  1.9644 -6.3236
  676MOL0     H91202   3.980   4.645   6.224 -0.7898  0.6557  1.9449
  676MOL0     H91203   3.864   4.851   6.253  0.2020 -2.1697  2.4079
  676MOL0     H91204   3.998   4.923   6.341  0.5197 -2.4079  1.8304
  676MOL0     H91205   4.135   4.889   6.124  0.6927  1.6245 -0.9867
  676MOL0     H91206   3.978   4.902   6.048 -1.1217  3.0444 -0.5157
  676MOL0     H91207   3.919   5.106   6.184 -0.9940  1.6777 -2.0541
  676MOL0     H91208   4.100   5.115   6.206  0.1494 -0.9795  0.0362
  676MOL0     H91209   4.060   5.251   6.029  3.5911 -1.5294  0.9455
  676MOL0     H91210   3.925   5.152   5.968 -1.7788  0.6082  3.2414
  676MOL0     H91211   4.314   5.156   6.023  0.1681 -1.0755 -0.3216
  676MOL0     H91212   4.541   5.076   5.852 -1.8220 -1.6722  2.1923
  676MOL0     H91213   4.487   4.961   5.732  1.3948  0.9995 -0.4956
  676MOL0     H91214   4.428   5.158   5.574  0.0626 -3.5238 -0.7195
  676MOL0     H91215   4.589   5.140   5.599 -0.2095 -0.3095  0.2806
  676MOL0     H91216   4.394   5.331   5.749 -0.9658 -0.9087 -0.6780
  676MOL0     H91217   4.503   5.374   5.613  2.2419  0.5641  1.7996
  676MOL0     H91218   4.709   5.309   5.736 -0.7280 -0.1843 -2.7728
  676MOL0     H91219   4.612   5.280   5.885 -1.4144  2.9752  1.8427
  676MOL0     H91220   4.850   5.339   5.895 -1.7483  0.4825 -1.4077
  676MOL0     H91221   5.035   5.288   5.985 -3.5465 -0.2012  0.5881
  676MOL0     H91222   5.149   5.414   6.011 -1.5176  1.6561  0.2112
  676MOL0     H91223   5.078   5.338   6.151 -0.8661  0.8137  0.5629
  676MOL0     H91224   5.180   5.666   6.450  1.1419 -0.6378 -0.9817
  676MOL0     H91225   5.316   5.798   6.592  0.4565  2.7731  1.2917
  676MOL0     H91226   5.244   6.251   6.620  2.6146  1.1903  0.4593
  676MOL0     H91227   5.183   6.157   6.761 -0.6271 -1.0856 -0.6138
  676MOL0     H91228   5.413   6.130   6.842  2.4493  0.6840 -0.4326
  676MOL0     H91229   5.481   6.210   6.712  0.4840 -4.3507  1.5385
  676MOL0     H91230   5.264   6.351   6.859 -0.2097 -1.5650  1.2446
  676MOL0     H91231   5.365   6.416   6.733  1.8909  0.4457  0.9422
  676MOL0     H91232   5.461   6.315   6.994 -0.8543 -0.9728 -3.1733
  676MOL0     H91233   5.559   6.423   6.883  1.2328  1.3673  1.8897
  676MOL0     H91234   5.303   6.530   7.040 -1.1767  0.8203 -3.0249
  676MOL0     H91235   5.413   6.609   6.942 -0.5414 -0.3473 -0.4928
  676MOL0     H91236   5.485   6.495   7.201 -0.5155 -1.4765 -2.3046
  676MOL0     H91237   5.600   6.543   7.083  0.0578 -1.9600  1.2809
  676MOL0     H91238   5.409   6.758   7.119  1.3182  0.2507 -2.3504
  676MOL0     H91239   5.586   6.766   7.135  0.5459 -3.5174 -3.4634
  676MOL0     H91240   5.570   6.704   7.360  0.3938  1.1639  0.4824
  676MOL0     H91241   5.389   6.659   7.351  0.1907 -0.3845  0.3958
  676MOL0     H91242   5.111   6.151   6.463 -0.3123  0.2322  0.8249
  676MOL0     H91243   4.974   6.014   6.303 -1.9390 -1.0323 -0.0202
  676MOL0     H91244   4.767   5.752   6.154 -1.4867  0.7455 -0.8071
  676MOL0     H91245   4.613   5.687   5.982 -0.8460 -2.5651 -2.7997
  676MOL0     H91246   4.409   4.273   6.520 -2.2592 -1.5727  0.1780
  676MOL0     H91247   4.569   4.128   6.403 -0.9384 -2.8858  0.9402
  676MOL0     H91248   4.749   3.888   6.131 -1.6652 -0.7790  0.5584
  676MOL0     H91249   4.880   3.707   6.040  0.0538  1.2990  1.7907
  676MOL0     H91250   4.828   3.333   5.877  1.3239 -0.4635 -0.0061
  676MOL0     H91251   4.868   3.446   6.011  0.1458 -2.0852 -1.2910
  676MOL0     H91252   4.654   3.272   5.999 -0.1501 -0.6375  1.3073
  676MOL0     H91253   4.576   3.418   5.932 -0.0270  1.8275  0.8186
  676MOL0     H91254   4.665   3.558   6.118  3.0325  0.7859 -1.8697
  676MOL0     H91255   4.734   3.407   6.189 -0.8477  1.3677  2.2590
  676MOL0     H91256   4.456   3.523   6.147  2.2820  0.2712 -3.5828
  676MOL0     H91257   4.522   3.465   6.299  1.8869 -2.3506 -0.6518
  676MOL0     H91258   4.360   3.104   6.173  2.1981  0.1758  1.4170
  676MOL0     H91259   4.567   3.616   5.759 -3.0936  0.8779  0.6389
  676MOL0     H91260   4.432   3.808   5.852  0.0970 -0.7205 -1.6154
  677MOL0     O91261   2.166   2.631   6.174  0.3700  0.2842 -0.7021
  677MOL0     C91262   2.157   2.552   6.265  0.6436 -0.4310 -0.5922
  677MOL0     O91263   2.059   2.453   6.279  0.3694 -0.1384  0.1918
  677MOL0     C91264   1.946   2.429   6.196 -0.1687  0.1841 -0.4297
  677MOL0     C91265   1.876   2.313   6.244 -0.0479 -0.3905  0.3535
  677MOL0     C91266   1.780   2.266   6.165  0.2239 -0.2457 -0.9475
  677MOL0     C91267   1.737   2.342   6.053 -0.6370  0.1816  0.0645
  677MOL0     O91268   1.632   2.308   5.974  0.7814  0.3645 -0.3000
  677MOL0     C91269   1.503   2.345   6.028 -0.3521  0.4732 -0.3714
  677MOL0     C91270   1.413   2.326   5.903  0.4151  1.0304  0.5397
  677MOL0     C91271   1.282   2.382   5.933  0.2235  0.1588  0.8837
  677MOL0     C91272   1.181   2.339   5.822  0.2324 -0.1116 -0.8419
  677MOL0     C91273   1.078   2.236   5.870 -1.1861 -0.8754  0.3647
  677MOL0     C91274   1.012   2.165   5.753  1.0296  1.0023  0.1366
  677MOL0     C91275   0.920   2.256   5.662 -0.2942  0.3131 -0.1827
  677MOL0     C91276   0.857   2.170   5.554 -0.4875  0.3594 -0.1468
  677MOL0     N91277   0.802   2.252   5.443 -0.8843 -0.5769  0.2436
  677MOL0     C91278   0.694   2.334   5.451 -0.2356  0.1123  0.7249
  677MOL0     C91279   0.673   2.393   5.329  0.0078 -0.0750 -0.1130
  677MOL0     C91280   0.562   2.474   5.282  1.1586 -1.1215  0.5991
  677MOL0     C91281   0.416   2.407   5.284  0.3478  1.2375 -0.7174
  677MOL0     C91282   0.318   2.467   5.176 -0.5753 -0.7370 -0.3662
  677MOL0     C91283   0.377   2.457   5.042  0.3859 -0.6855  0.4970
  677MOL0     O91284   0.392   2.318   5.011  0.0124 -0.3444  0.4747
  677MOL0     C91285   0.376   2.281   4.884  0.4080 -0.2966 -0.2280
  677MOL0     C91286   0.393   2.372   4.777 -0.2423  1.4842  0.5983
  677MOL0     C91287   0.371   2.325   4.644 -0.2327 -0.1476  1.0383
  677MOL0     C91288   0.379   2.435   4.534  0.1654  0.4383  0.1698
  677MOL0     C91289   0.341   2.183   4.616 -1.1102  0.0832  0.5960
  677MOL0     C91290   0.319   2.121   4.479 -0.5416  1.1120 -0.9019
  677MOL0     O91291   0.261   2.192   4.376  0.4790 -1.0815 -0.9553
  677MOL0     C91292   0.266   2.157   4.246 -0.6395 -0.2504 -1.0887
  677MOL0     C91293   0.376   2.093   4.204  0.0723 -0.0403  0.0562
  677MOL0     C91294   0.384   2.073   4.063 -0.4355 -0.4362  0.0547
  677MOL0     C91295   0.284   2.121   3.973  0.3781  0.5700  0.0761
  677MOL0     O91296   0.289   2.093   3.831  0.1328 -0.6055  0.1039
  677MOL0     C91297   0.415   2.036   3.777  0.2564  0.1996  0.4373
  677MOL0     C91298   0.407   2.016   3.628 -0.3254 -0.4153 -0.9454
  677MOL0     C91299   0.302   1.914   3.604  0.7254 -0.1011  1.1921
  677MOL0     C91300   0.164   1.988   3.556  0.7996  0.5128  0.3448
  677MOL0     C91301   0.055   1.898   3.490 -0.6585 -0.2887 -0.6772
  677MOL0     C91302   0.025   1.916   3.343  0.4900  0.2751 -0.9548
  677MOL0     C91303  -0.031   2.060   3.317 -0.3481  0.0484  0.1651
  677MOL0     C91304  -0.078   2.051   3.171  0.7896 -0.2999 -0.6396
  677MOL0    Cl91305  -0.198   2.176   3.145 -0.7498 -0.3526 -0.6343
  677MOL0     C91306   0.177   2.183   4.028 -0.5691  0.1926 -0.4491
  677MOL0     C91307   0.173   2.214   4.166  0.0999  1.5555  0.9094
  677MOL0     O91308   0.357   1.999   4.477 -0.3312  0.0326 -0.4692
  677MOL0     C91309   0.320   2.100   4.727 -0.4607  0.3656  0.2156
  677MOL0     C91310   0.337   2.156   4.852 -0.3760 -0.1553  0.2517
  677MOL0     N91311   0.788   2.363   5.252  0.4867 -0.8695  0.4454
  677MOL0     N91312   0.855   2.281   5.323 -0.0393  0.8540 -0.4178
  677MOL0     C91313   1.803   2.455   6.013  0.2249  0.6375  0.8312
  677MOL0     C91314   1.911   2.501   6.087 -0.0871 -0.6199  0.0310
  677MOL0     C91315   2.241   2.561   6.386  0.4679  0.0274 -1.2567
  677MOL0     C91316   2.332   2.673   6.403  0.3545 -0.4906  0.2600
  677MOL0     C91317   2.414   2.669   6.515  0.1617 -0.1676 -0.7352
  677MOL0     C91318   2.407   2.577   6.620  0.0843  0.3908  0.4935
  677MOL0     O91319   2.470   2.610   6.741  0.0659 -0.0120 -0.6586
  677MOL0     C91320   2.453   2.533   6.860 -0.1404  0.2798 -1.0801
  677MOL0     C91321   2.308   2.539   6.910 -0.2340  1.2040 -0.7203
  677MOL0     C91322   2.267   2.460   7.039  0.1343 -0.1517 -0.0819
  677MOL0     C91323   2.340   2.320   7.056  0.4835  0.0597  0.0847
  677MOL0     C91324   2.289   2.241   6.946  0.1532 -0.7200  1.1779
  677MOL0     C91325   2.241   2.169   6.859 -0.3330  0.3743  0.0773
  677MOL0     C91326   2.339   2.457   6.595  0.1580 -0.6619  0.9861
  677MOL0     C91327   2.251   2.453   6.476  0.5079  0.2535  0.2259
  677MOL0     H91328   1.904   2.257   6.334  1.2385  1.6736  1.3263
  677MOL0     H91329   1.713   2.185   6.192 -1.2954  0.7529 -1.5406
  677MOL0     H91330   1.475   2.282   6.113 -0.9391 -0.2901 -1.1193
  677MOL0     H91331   1.508   2.448   6.064  1.5815  0.6609 -1.0563
  677MOL0     H91332   1.452   2.370   5.811 -1.9415  2.6086  0.1982
  677MOL0     H91333   1.400   2.218   5.891  1.1191  0.9752  0.1893
  677MOL0     H91334   1.264   2.332   6.029  1.9625  0.7657  1.5725
  677MOL0     H91335   1.292   2.491   5.940 -1.6142  0.6908 -2.4723
  677MOL0     H91336   1.137   2.426   5.772  0.8978  0.4168 -0.5225
  677MOL0     H91337   1.237   2.290   5.742 -0.9985 -3.2032  0.0714
  677MOL0     H91338   1.129   2.172   5.943  1.3115 -1.2518 -1.6187
  677MOL0     H91339   0.987   2.288   5.905 -3.4922 -1.8353 -3.5896
  677MOL0     H91340   1.096   2.121   5.699 -0.1252  0.2650 -1.1090
  677MOL0     H91341   0.956   2.076   5.784  0.8297  1.6092  1.5963
  677MOL0     H91342   0.846   2.300   5.729 -0.0905  1.2417 -0.5557
  677MOL0     H91343   0.979   2.330   5.607 -1.2151 -0.8652 -2.9221
  677MOL0     H91344   0.783   2.101   5.596  0.3165 -1.1065 -1.0490
  677MOL0     H91345   0.936   2.110   5.508 -1.4968 -1.1908  0.0451
  677MOL0     H91346   0.636   2.371   5.535  1.5521  2.3040  1.0862
  677MOL0     H91347   0.560   2.554   5.357  4.2090 -1.0208  0.6949
  677MOL0     H91348   0.585   2.511   5.182 -4.7496 -0.6759 -0.9857
  677MOL0     H91349   0.371   2.424   5.382  0.8592  4.3912 -0.9402
  677MOL0     H91350   0.420   2.298   5.270  0.7518  1.2959 -1.0615
  677MOL0     H91351   0.300   2.574   5.192  4.4079  0.3290 -0.4015
  677MOL0     H91352   0.217   2.425   5.167  0.0828 -2.4114 -0.1819
  677MOL0     H91353   0.462   2.523   5.024 -1.4068  0.7676 -4.1552
  677MOL0     H91354   0.304   2.501   4.973  3.1282  1.1830 -1.4157
  677MOL0     H91355   0.434   2.472   4.771  0.2711  1.3175  1.1794
  677MOL0     H91356   0.387   2.407   4.428 -1.8971  7.1599 -2.2549
  677MOL0     H91357   0.293   2.502   4.530 -1.5334 -1.6761 -1.2176
  677MOL0     H91358   0.469   2.496   4.548  1.5842 -0.7709 -2.7089
  677MOL0     H91359   0.463   2.055   4.257  0.7400  0.6548 -0.5132
  677MOL0     H91360   0.466   2.012   4.026 -1.6483 -2.6486  0.8225
  677MOL0     H91361   0.511   2.079   3.806  1.8661 -4.1703  2.3610
  677MOL0     H91362   0.421   1.932   3.811 -0.2797 -0.2923 -0.8796
  677MOL0     H91363   0.385   2.114   3.584 -0.8498 -1.6917 -3.7709
  677MOL0     H91364   0.501   1.991   3.577  0.4817  0.5539  0.0147
  677MOL0     H91365   0.281   1.835   3.676  0.7798 -3.8997 -2.5924
  677MOL0     H91366   0.339   1.868   3.512 -2.3334  2.0457 -1.3394
  677MOL0     H91367   0.128   2.028   3.651  3.4491 -1.4094  2.2879
  677MOL0     H91368   0.182   2.076   3.493  1.0818  0.7445  0.7464
  677MOL0     H91369  -0.041   1.905   3.543  0.0506  2.3876  0.4191
  677MOL0     H91370   0.077   1.791   3.497 -1.4427 -0.9850 -5.5450
  677MOL0     H91371   0.115   1.901   3.283 -0.0157  0.5818 -1.7988
  677MOL0     H91372  -0.049   1.840   3.318  1.2724 -0.8573  0.0507
  677MOL0     H91373   0.039   2.142   3.333 -2.2802  2.0721 -1.2153
  677MOL0     H91374  -0.117   2.062   3.384  0.0351  0.4918  0.6517
  677MOL0     H91375  -0.144   1.966   3.152  0.8241 -0.8294  1.3702
  677MOL0     H91376   0.008   2.042   3.104  2.6774 -2.8117  1.8719
  677MOL0     H91377   0.096   2.227   3.970  0.3249  1.6615 -0.6361
  677MOL0     H91378   0.084   2.264   4.202 -2.9333 -1.7755 -1.2401
  677MOL0     H91379   0.292   1.995   4.721  0.2921  0.2019 -4.5299
  677MOL0     H91380   0.310   2.088   4.933 -1.2922 -3.1232 -2.3260
  677MOL0     H91381   1.767   2.497   5.919 -0.9622 -0.4533  0.7732
  677MOL0     H91382   1.975   2.586   6.068  0.2334  0.4470  4.6175
  677MOL0     H91383   2.325   2.760   6.339  1.8061 -0.3012  0.3195
  677MOL0     H91384   2.476   2.755   6.539  0.3951 -0.7172  0.7795
  677MOL0     H91385   2.479   2.427   6.854  0.3943  0.4803 -2.5643
  677MOL0     H91386   2.509   2.588   6.936 -0.2564 -0.7170 -0.2416
  677MOL0     H91387   2.233   2.511   6.836  0.6452 -2.5444 -0.4049
  677MOL0     H91388   2.290   2.643   6.936 -3.5683  1.4492 -3.3206
  677MOL0     H91389   2.161   2.448   7.016  0.5629  0.7923 -2.9127
  677MOL0     H91390   2.288   2.523   7.126  0.1679 -0.0907 -0.1343
  677MOL0     H91391   2.300   2.273   7.146 -2.1703 -0.1565 -1.0876
  677MOL0     H91392   2.449   2.321   7.054  0.5025  1.8120  0.4691
  677MOL0     H91393   2.215   2.106   6.777  2.7104 -0.0332 -0.6961
  677MOL0     H91394   2.348   2.368   6.657  0.9340 -1.9691 -0.9061
  677MOL0     H91395   2.202   2.358   6.455  6.0346 -2.3848 -2.7732
  678MOL0     O91396   9.041   7.446   6.352 -0.3203  0.0533  0.5311
  678MOL0     C91397   9.036   7.514   6.452  0.5661  1.1667  0.7733
  678MOL0     O91398   9.099   7.481   6.573  0.1355  0.2772  0.0557
  678MOL0     C91399   9.161   7.364   6.584 -0.2508  0.8297 -0.0644
  678MOL0     C91400   9.101   7.277   6.675 -0.0494 -0.0866  0.0015
  678MOL0     C91401   9.161   7.156   6.702 -0.4533 -1.2598 -0.0105
  678MOL0     C91402   9.278   7.121   6.639  0.4238 -0.0435 -0.2375
  678MOL0     O91403   9.333   7.008   6.694  0.1341  0.3149 -0.1254
  678MOL0     C91404   9.476   6.983   6.673  0.2505  1.0383  0.7564
  678MOL0     C91405   9.516   6.831   6.703 -0.0806 -0.0553  0.6065
  678MOL0     C91406   9.663   6.800   6.684 -0.1046  0.1511 -0.2354
  678MOL0     C91407   9.722   6.721   6.809  1.2012 -0.5043 -0.0234
  678MOL0     C91408   9.861   6.679   6.776 -0.4887 -0.6254 -0.1129
  678MOL0     C91409   9.934   6.604   6.890 -0.2247 -0.2428  0.4203
  678MOL0     C91410  10.077   6.584   6.846 -0.4365  1.2404  0.5917
  678MOL0     C91411  10.166   6.530   6.967  0.1058  0.3295 -0.6370
  678MOL0     N91412  10.300   6.477   6.928  1.0103  0.0407  0.5704
  678MOL0     C91413  10.327   6.343   6.920  0.7145  0.1824  0.8427
  678MOL0     C91414  10.457   6.334   6.905 -0.9041 -0.2381 -0.2785
  678MOL0     C91415  10.541   6.215   6.865  0.2357 -0.2583 -0.2637
  678MOL0     C91416  10.448   6.111   6.803 -0.2172 -1.2732  0.3326
  678MOL0     C91417  10.540   5.985   6.780  0.0015 -0.5246  0.0482
  678MOL0     C91418  10.467   5.860   6.718  0.5064 -0.3388 -0.8383
  678MOL0     O91419  10.556   5.743   6.729  0.4196  0.5523 -0.3417
  678MOL0     C91420  10.565   5.666   6.617  0.3065  0.4381  0.3153
  678MOL0     C91421  10.676   5.589   6.619 -0.0455  0.4435 -0.1953
  678MOL0     C91422  10.712   5.508   6.517 -0.1611  0.0463  0.7333
  678MOL0     C91423  10.848   5.436   6.525  0.1056 -0.3310 -0.8826
  678MOL0     C91424  10.633   5.505   6.399  0.1507 -0.1124  0.9884
  678MOL0     C91425  10.656   5.425   6.281  0.1009  1.0371 -1.0987
  678MOL0     O91426  10.599   5.480   6.165  0.8576 -0.9870 -0.0442
  678MOL0     C91427  10.619   5.392   6.054  1.1734 -0.6864 -1.0799
  678MOL0     C91428  10.516   5.313   6.007 -0.8034 -1.3758 -0.6000
  678MOL0     C91429  10.510   5.242   5.884 -0.1737 -0.6162  0.4687
  678MOL0     C91430  10.634   5.234   5.821 -0.5495  0.5663 -0.6389
  678MOL0     O91431  10.635   5.155   5.708  0.1204 -0.1608  1.3809
  678MOL0     C91432  10.537   5.199   5.614  0.3818  0.3660  0.5643
  678MOL0     C91433  10.614   5.164   5.486  0.3227 -0.5659 -0.1828
  678MOL0     C91434  10.741   5.255   5.488  0.2148  0.2344  1.3918
  678MOL0     C91435  10.788   5.261   5.338 -0.6837  0.4924 -0.5130
  678MOL0     C91436  10.930   5.315   5.354  0.6494  0.2416 -0.5048
  678MOL0     C91437  11.001   5.311   5.220 -0.5352 -0.1423 -0.8153
  678MOL0     C91438  10.937   5.408   5.116 -0.1863 -0.5990 -0.1423
  678MOL0     C91439  10.851   5.336   5.002 -0.0041  0.0366 -0.5595
  678MOL0    Cl91440  10.954   5.320   4.858  0.0639  0.1426 -0.2372
  678MOL0     C91441  10.750   5.292   5.877 -0.5600 -0.8172 -0.0465
  678MOL0     C91442  10.738   5.375   5.990 -0.6686 -0.9417  0.4361
  678MOL0     O91443  10.712   5.319   6.292 -0.8411 -0.2409  0.3989
  678MOL0     C91444  10.512   5.578   6.400  0.9752 -0.9523  0.1599
  678MOL0     C91445  10.482   5.648   6.506  0.5977 -0.1917  0.2217
  678MOL0     N91446  10.519   6.456   6.902  0.9693  0.0530 -0.4573
  678MOL0     N91447  10.422   6.541   6.918  0.2938 -0.0350 -0.1525
  678MOL0     C91448   9.334   7.206   6.542  1.0904  0.4502  0.3155
  678MOL0     C91449   9.276   7.331   6.521  0.5251 -0.3451 -0.2905
  678MOL0     C91450   8.954   7.639   6.446 -0.3934  0.5942 -0.0618
  678MOL0     C91451   8.880   7.681   6.329 -0.5748  1.2406 -0.8080
  678MOL0     C91452   8.815   7.810   6.338  0.3235  0.6352  0.1503
  678MOL0     C91453   8.813   7.881   6.455  0.1995 -0.1159 -0.5056
  678MOL0     O91454   8.759   8.009   6.451  0.4401 -0.2728  0.2512
  678MOL0     C91455   8.853   8.106   6.473 -0.4931  0.0882  0.4674
  678MOL0     C91456   8.858   8.183   6.343 -0.1275  0.3295  0.7928
  678MOL0     C91457   8.720   8.245   6.308  0.7320 -0.0151 -0.1224
  678MOL0     C91458   8.671   8.352   6.413  0.2296  0.2398  0.3835
  678MOL0     C91459   8.770   8.447   6.448  0.1032 -0.1367  0.1040
  678MOL0     C91460   8.860   8.529   6.470  0.0766 -0.3026 -0.8262
  678MOL0     C91461   8.865   7.832   6.578  0.0734 -0.5804  0.3272
  678MOL0     C91462   8.940   7.720   6.566 -0.9110  0.7175  0.3280
  678MOL0     H91463   9.015   7.304   6.735 -0.3223  1.4048 -0.9961
  678MOL0     H91464   9.120   7.087   6.774 -1.6280 -0.2774  0.2928
  678MOL0     H91465   9.506   6.991   6.568 -1.0834  5.1984  0.5371
  678MOL0     H91466   9.538   7.050   6.733  2.4444 -0.5364  0.3710
  678MOL0     H91467   9.485   6.807   6.805 -1.0320 -0.5757  0.2089
  678MOL0     H91468   9.466   6.761   6.635  0.5811 -1.6021  1.6723
  678MOL0     H91469   9.677   6.743   6.591  1.4750  1.0744 -0.6077
  678MOL0     H91470   9.711   6.899   6.687 -2.3219  1.3122  3.7715
  678MOL0     H91471   9.721   6.789   6.894  0.5430 -1.9914  1.2111
  678MOL0     H91472   9.658   6.636   6.835 -0.1299 -1.0446 -4.2813
  678MOL0     H91473   9.847   6.609   6.693 -1.8146 -1.1147  0.5136
  678MOL0     H91474   9.912   6.771   6.745 -0.9472 -0.1442  0.5511
  678MOL0     H91475   9.940   6.660   6.985 -0.9784 -1.4253  1.1908
  678MOL0     H91476   9.894   6.510   6.930  1.2779 -0.2052  2.1831
  678MOL0     H91477  10.075   6.506   6.769 -1.8644  0.1187  1.7237
  678MOL0     H91478  10.122   6.676   6.806  0.5339  0.0005 -1.3554
  678MOL0     H91479  10.115   6.454   7.027 -0.0216 -0.8525 -2.1793
  678MOL0     H91480  10.175   6.617   7.032 -2.8458  0.4773 -0.2598
  678MOL0     H91481  10.248   6.269   6.911 -0.0826  1.1740 -0.4537
  678MOL0     H91482  10.614   6.251   6.792 -0.4542  0.1493 -0.7633
  678MOL0     H91483  10.596   6.176   6.952  1.3160  0.4713 -0.5972
  678MOL0     H91484  10.409   6.149   6.708  2.9437  0.1590 -0.5273
  678MOL0     H91485  10.362   6.092   6.867 -1.5839 -0.1363 -1.0963
  678MOL0     H91486  10.590   5.958   6.873  1.0309  3.8217  0.9884
  678MOL0     H91487  10.626   6.014   6.719  0.5383 -0.5756  0.7704
  678MOL0     H91488  10.443   5.897   6.617 -0.0425  0.2416 -0.5000
  678MOL0     H91489  10.377   5.838   6.776  0.8128  1.3502  0.3453
  678MOL0     H91490  10.748   5.605   6.698 -0.3324  1.6269 -0.1560
  678MOL0     H91491  10.855   5.337   6.481 -2.9015 -2.0476  2.0516
  678MOL0     H91492  10.927   5.504   6.491  0.2614 -0.8519 -1.5790
  678MOL0     H91493  10.863   5.418   6.632  2.6505 -3.0689 -1.5900
  678MOL0     H91494  10.425   5.299   6.064 -0.3044 -3.9673 -0.2864
  678MOL0     H91495  10.430   5.177   5.850  0.6031 -0.9778 -0.6963
  678MOL0     H91496  10.447   5.137   5.612 -0.6101  1.7327  0.7642
  678MOL0     H91497  10.514   5.306   5.613  1.4655  0.6147 -0.3482
  678MOL0     H91498  10.632   5.058   5.468  1.5679 -0.3327 -0.4378
  678MOL0     H91499  10.549   5.193   5.404 -1.2978  1.2067  1.6003
  678MOL0     H91500  10.815   5.206   5.552  0.3815  0.8963  1.7075
  678MOL0     H91501  10.723   5.356   5.525  2.3211  1.0873  0.2203
  678MOL0     H91502  10.784   5.162   5.292 -0.4319 -0.0900  0.6675
  678MOL0     H91503  10.725   5.327   5.278 -0.7108 -0.5320 -1.6290
  678MOL0     H91504  10.972   5.255   5.435 -1.9842  0.9491  1.5149
  678MOL0     H91505  10.926   5.416   5.395 -1.2438 -0.1678  0.3998
  678MOL0     H91506  11.108   5.333   5.225 -0.7042  0.6861 -0.6513
  678MOL0     H91507  10.991   5.204   5.198 -2.9486 -0.3506  0.8630
  678MOL0     H91508  11.010   5.471   5.064 -3.5708  3.2683 -0.7213
  678MOL0     H91509  10.886   5.483   5.177  0.3893 -2.0648  2.2436
  678MOL0     H91510  10.768   5.403   4.977  0.6202  0.7646 -0.7101
  678MOL0     H91511  10.813   5.242   5.043  0.4828  0.8733  1.9696
  678MOL0     H91512  10.843   5.292   5.822 -0.5175 -0.4459  0.0197
  678MOL0     H91513  10.824   5.428   6.028 -0.6445 -0.2499 -0.5337
  678MOL0     H91514  10.443   5.594   6.318 -2.3285  1.2357  3.1031
  678MOL0     H91515  10.386   5.696   6.526  1.1016  0.5907  0.7859
  678MOL0     H91516   9.424   7.174   6.491  1.8152 -1.3900  2.5495
  678MOL0     H91517   9.321   7.403   6.453 -1.5567  1.3242 -0.0156
  678MOL0     H91518   8.876   7.619   6.240 -4.0683 -0.4692  0.3699
  678MOL0     H91519   8.754   7.837   6.252 -2.8136 -3.0929  0.9250
  678MOL0     H91520   8.821   8.178   6.549  0.1068  0.0593  0.7506
  678MOL0     H91521   8.951   8.074   6.507  0.8189  0.8498 -2.3321
  678MOL0     H91522   8.883   8.099   6.277  1.1179 -1.0736  2.9432
  678MOL0     H91523   8.935   8.260   6.339  0.5872 -0.4115 -0.5824
  678MOL0     H91524   8.658   8.156   6.292  0.1151  0.3918 -0.0253
  678MOL0     H91525   8.728   8.290   6.209 -0.4492  0.4069 -0.0465
  678MOL0     H91526   8.642   8.302   6.505  0.2881  0.7402  0.6750
  678MOL0     H91527   8.588   8.401   6.361  1.1984  2.9497  1.2139
  678MOL0     H91528   8.933   8.608   6.470  2.3550 -2.3200  0.0463
  678MOL0     H91529   8.874   7.877   6.676  0.9223 -0.3860  0.1732
  678MOL0     H91530   8.983   7.680   6.657 -1.7780  2.1895  1.4359
  679MOL0     O91531   1.807   7.183   1.319 -0.5761  0.1101  0.5791
  679MOL0     C91532   1.889   7.093   1.340 -0.5900  0.5746 -0.0579
  679MOL0     O91533   2.025   7.111   1.346 -0.3585 -0.1923  0.2930
  679MOL0     C91534   2.078   7.242   1.355  1.9508 -0.5191  0.4549
  679MOL0     C91535   2.091   7.320   1.243 -1.1000 -1.0010  0.1792
  679MOL0     C91536   2.169   7.434   1.246 -0.1414  0.5931 -0.3466
  679MOL0     C91537   2.207   7.493   1.369 -0.1466 -0.5131 -0.2211
  679MOL0     O91538   2.273   7.617   1.365 -0.3686 -0.1727  0.3807
  679MOL0     C91539   2.369   7.666   1.474  0.3696  1.0017 -1.0620
  679MOL0     C91540   2.375   7.819   1.462  1.0503 -0.5919 -0.4018
  679MOL0     C91541   2.432   7.887   1.588  0.7552  1.0295  0.1707
  679MOL0     C91542   2.451   8.036   1.576 -0.6415 -0.5442 -0.5380
  679MOL0     C91543   2.427   8.093   1.717  0.9020 -0.2945  0.3618
  679MOL0     C91544   2.469   8.232   1.728 -0.7192 -1.2350  0.0466
  679MOL0     C91545   2.490   8.287   1.869 -0.4849 -0.0918  0.1477
  679MOL0     C91546   2.365   8.296   1.957 -0.2029  0.9844 -0.5256
  679MOL0     N91547   2.390   8.376   2.079 -0.6501 -0.4196  0.9878
  679MOL0     C91548   2.464   8.493   2.076  0.4772 -0.3415 -0.7991
  679MOL0     C91549   2.454   8.537   2.203  0.5197 -0.0556 -0.0625
  679MOL0     C91550   2.499   8.662   2.265 -0.7031 -0.1664 -0.2789
  679MOL0     C91551   2.411   8.785   2.245 -0.0336 -0.3074  0.0081
  679MOL0     C91552   2.463   8.916   2.328  0.2299  0.9370  0.4470
  679MOL0     C91553   2.352   9.023   2.314 -0.3225  0.2433  1.0125
  679MOL0     O91554   2.342   9.061   2.176  0.0271  0.2455 -0.0173
  679MOL0     C91555   2.439   9.149   2.107  0.1758 -0.0991 -0.5050
  679MOL0     C91556   2.420   9.177   1.976 -0.3196  1.2140 -0.3005
  679MOL0     C91557   2.496   9.272   1.903 -1.1094 -0.9079 -1.1964
  679MOL0     C91558   2.437   9.320   1.778 -0.7647 -0.8121  0.1928
  679MOL0     C91559   2.605   9.338   1.973 -0.9976 -0.3596 -0.3846
  679MOL0     C91560   2.683   9.441   1.902  0.1636  0.2568 -0.4479
  679MOL0     O91561   2.756   9.520   1.989  0.6237 -0.6269  0.0198
  679MOL0     C91562   2.778   9.651   1.953  0.1597  0.0757 -0.2256
  679MOL0     C91563   2.694   9.761   1.972  0.2933 -0.4090  1.2555
  679MOL0     C91564   2.724   9.895   1.926 -0.7028  0.4737 -0.1356
  679MOL0     C91565   2.847   9.908   1.861 -0.7444 -0.1677 -0.3704
  679MOL0     O91566   2.899  10.034   1.840  0.0516 -0.9442  0.3807
  679MOL0     C91567   2.844  10.093   1.729  0.2987 -0.2396 -0.4489
  679MOL0     C91568   2.750  10.206   1.763  0.3857  0.4293 -0.0766
  679MOL0     C91569   2.812  10.290   1.874  0.5859  0.4037  0.4429
  679MOL0     C91570   2.945  10.349   1.834 -0.1817  0.3605 -0.9280
  679MOL0     C91571   2.986  10.465   1.927  0.6057  0.1142  0.1892
  679MOL0     C91572   3.136  10.490   1.915  0.6297 -0.7724 -0.4966
  679MOL0     C91573   3.169  10.622   1.989 -0.5740  0.1065 -0.3596
  679MOL0     C91574   3.327  10.645   1.984  0.1928 -0.3482  0.7292
  679MOL0    Cl91575   3.357  10.796   2.057 -0.4300 -0.2034 -0.1245
  679MOL0     C91576   2.945   9.803   1.874  0.6380 -0.7091  0.2298
  679MOL0     C91577   2.908   9.674   1.914  0.5308  0.1111  0.7838
  679MOL0     O91578   2.683   9.451   1.784 -0.6533 -0.5721  0.2681
  679MOL0     C91579   2.642   9.292   2.102 -0.4299 -0.1946 -0.0505
  679MOL0     C91580   2.562   9.205   2.167 -0.0703  0.3121 -0.0835
  679MOL0     N91581   2.375   8.442   2.271  0.1919 -0.2506  0.5769
  679MOL0     N91582   2.342   8.341   2.199  0.1235  0.1222 -0.0803
  679MOL0     C91583   2.181   7.411   1.483 -0.0163 -0.7577  0.7033
  679MOL0     C91584   2.118   7.287   1.482  0.4362  0.2530 -0.5596
  679MOL0     C91585   1.851   6.955   1.337  0.7676 -0.3105  0.3623
  679MOL0     C91586   1.930   6.853   1.400 -0.5227 -0.5434  0.7336
  679MOL0     C91587   1.909   6.722   1.369  0.4841  0.2949 -0.2103
  679MOL0     C91588   1.805   6.680   1.286  0.1007 -0.6505  0.3555
  679MOL0     O91589   1.779   6.545   1.267 -0.6561 -0.3277  0.1238
  679MOL0     C91590   1.657   6.487   1.204 -0.6696 -0.3380 -0.2273
  679MOL0     C91591   1.647   6.480   1.052  0.5916  0.4669  1.3051
  679MOL0     C91592   1.724   6.357   1.005  0.6384  0.0415 -0.2370
  679MOL0     C91593   1.674   6.224   1.037  0.0342 -0.0111  1.3070
  679MOL0     C91594   1.533   6.208   1.022  0.8063  0.3908 -0.2304
  679MOL0     C91595   1.420   6.177   0.998  0.2575  1.4139 -0.1675
  679MOL0     C91596   1.720   6.782   1.237 -0.6117  0.4083 -0.2574
  679MOL0     C91597   1.743   6.919   1.255 -0.4430 -0.3902 -0.4158
  679MOL0     H91598   2.055   7.280   1.149 -2.9478  0.3158  0.2668
  679MOL0     H91599   2.195   7.479   1.151  2.0155  0.2955  0.0407
  679MOL0     H91600   2.324   7.643   1.571  0.3185  2.6680 -0.6633
  679MOL0     H91601   2.464   7.613   1.461 -0.4887 -0.8321 -0.2414
  679MOL0     H91602   2.431   7.843   1.371  0.1658  1.8852 -0.3819
  679MOL0     H91603   2.277   7.865   1.454  1.0250 -0.1740  1.7992
  679MOL0     H91604   2.363   7.868   1.670 -0.9414  0.7496 -1.2453
  679MOL0     H91605   2.532   7.844   1.597  1.4880  2.1467 -1.8820
  679MOL0     H91606   2.550   8.053   1.531 -1.9171  0.8497 -3.0329
  679MOL0     H91607   2.382   8.086   1.508  0.7531  1.6898 -0.4043
  679MOL0     H91608   2.328   8.068   1.754  2.1994 -2.9782  2.4068
  679MOL0     H91609   2.500   8.050   1.787  0.3257 -1.0092  0.5355
  679MOL0     H91610   2.573   8.246   1.696  1.0130  1.8354  5.6805
  679MOL0     H91611   2.411   8.295   1.660 -0.5641 -2.7591 -1.5644
  679MOL0     H91612   2.562   8.219   1.914 -0.3928 -1.5660 -2.0871
  679MOL0     H91613   2.535   8.386   1.855 -1.3933  0.3441  0.2186
  679MOL0     H91614   2.337   8.194   1.987 -3.3671  1.6236 -0.8919
  679MOL0     H91615   2.277   8.339   1.907 -1.7114 -1.6567 -0.3215
  679MOL0     H91616   2.486   8.545   1.983 -1.2749  1.5070 -0.2587
  679MOL0     H91617   2.497   8.656   2.374  0.0826 -1.2295 -0.3047
  679MOL0     H91618   2.601   8.685   2.235 -0.0618 -0.3281  1.6592
  679MOL0     H91619   2.308   8.758   2.270  0.0504 -2.3551 -1.6208
  679MOL0     H91620   2.394   8.807   2.140 -4.4601 -0.1113  0.5690
  679MOL0     H91621   2.560   8.957   2.297  0.2132 -0.9291 -2.3814
  679MOL0     H91622   2.474   8.878   2.430  0.3044  0.7061  0.3533
  679MOL0     H91623   2.370   9.108   2.381  0.2775  0.1112  1.0243
  679MOL0     H91624   2.261   8.974   2.351 -0.0819 -0.5247  0.6050
  679MOL0     H91625   2.333   9.121   1.944  1.9751 -2.8354 -0.1897
  679MOL0     H91626   2.416   9.428   1.775 -0.1714 -0.6850 -3.1256
  679MOL0     H91627   2.503   9.296   1.695  0.5898  0.5375  0.8384
  679MOL0     H91628   2.340   9.278   1.749 -0.6319  0.0876 -1.7112
  679MOL0     H91629   2.592   9.747   2.005 -1.5174  3.4445 -1.8875
  679MOL0     H91630   2.654   9.976   1.947 -0.4554  0.4442  0.8465
  679MOL0     H91631   2.925  10.130   1.666 -1.3169 -0.8955 -3.0444
  679MOL0     H91632   2.793  10.017   1.669 -1.2054  0.7196 -0.4418
  679MOL0     H91633   2.734  10.276   1.681  3.1808  0.3419 -0.8188
  679MOL0     H91634   2.653  10.167   1.795 -0.2183  1.9871  0.0544
  679MOL0     H91635   2.820  10.237   1.970 -2.0399 -1.2563 -0.1676
  679MOL0     H91636   2.749  10.373   1.905  1.4237  0.8264  1.0613
  679MOL0     H91637   3.018  10.269   1.841 -0.3614  0.1889 -0.9965
  679MOL0     H91638   2.933  10.390   1.734 -0.1813 -0.0386 -1.0923
  679MOL0     H91639   2.974  10.428   2.029  1.6072 -0.4157  0.1280
  679MOL0     H91640   2.933  10.557   1.899  3.3123  2.5826  2.4699
  679MOL0     H91641   3.182  10.404   1.965 -0.5693 -0.3614  1.4242
  679MOL0     H91642   3.170  10.503   1.812  2.5217  3.3373  0.4556
  679MOL0     H91643   3.149  10.619   2.096 -1.5146 -1.6503 -0.5435
  679MOL0     H91644   3.106  10.697   1.939 -0.0703 -0.4180 -1.8468
  679MOL0     H91645   3.366  10.655   1.882  0.6343 -1.8999  0.7248
  679MOL0     H91646   3.383  10.572   2.043 -2.5908 -0.9187  2.8759
  679MOL0     H91647   3.043   9.823   1.832 -0.9377  2.4617 -2.3718
  679MOL0     H91648   2.988   9.601   1.925  2.0669  1.6571  0.2253
  679MOL0     H91649   2.735   9.326   2.146 -1.0532 -0.5595  1.6407
  679MOL0     H91650   2.580   9.175   2.270 -1.9111 -3.8169 -0.7160
  679MOL0     H91651   2.221   7.441   1.579 -1.6469  1.3142  0.8017
  679MOL0     H91652   2.104   7.225   1.570  2.0006  0.7915  0.0952
  679MOL0     H91653   2.021   6.877   1.453  1.2516 -3.4739 -0.7605
  679MOL0     H91654   1.975   6.651   1.416 -0.1491 -1.1919 -1.4539
  679MOL0     H91655   1.639   6.388   1.246  2.6907 -0.4144  1.3846
  679MOL0     H91656   1.567   6.545   1.229 -1.4685 -1.0164 -1.4556
  679MOL0     H91657   1.689   6.572   1.009  3.2515 -2.2206 -2.4131
  679MOL0     H91658   1.542   6.484   1.022  0.4091  4.6847  1.8444
  679MOL0     H91659   1.823   6.356   1.052  1.1472  0.2408 -1.2786
  679MOL0     H91660   1.739   6.361   0.897 -0.7795  3.2213 -0.4186
  679MOL0     H91661   1.708   6.203   1.139  1.4977  0.3415  0.9091
  679MOL0     H91662   1.732   6.156   0.974 -1.0504  0.7549 -0.5680
  679MOL0     H91663   1.314   6.175   0.981  0.2853  1.3377 -0.3394
  679MOL0     H91664   1.639   6.737   1.180 -0.4490  2.8971 -2.6906
  679MOL0     H91665   1.681   6.982   1.193  0.9760  0.5335 -0.9567
  680MOL0     O91666   6.788  10.280   9.778 -0.5024 -0.3503  0.6104
  680MOL0     C91667   6.814  10.189   9.694  0.0378 -0.3521 -0.2671
  680MOL0     O91668   6.845  10.056   9.721  0.7347 -0.2254 -0.3090
  680MOL0     C91669   6.864  10.029   9.851  0.9924  0.3649  1.2739
  680MOL0     C91670   6.978   9.946   9.851  0.1480 -0.7195 -0.2215
  680MOL0     C91671   7.012   9.890   9.980 -0.0905 -0.2125 -0.3174
  680MOL0     C91672   6.924   9.902  10.094  0.0812 -0.4540 -0.4711
  680MOL0     O91673   6.963   9.858  10.220 -0.1462  0.3798  0.3717
  680MOL0     C91674   6.856   9.838  10.313 -0.4369  0.0757  0.1820
  680MOL0     C91675   6.781   9.702  10.280  0.1961  0.1277 -0.4551
  680MOL0     C91676   6.886   9.584  10.289  0.2731  0.3333 -0.3395
  680MOL0     C91677   6.859   9.455  10.211 -0.8531  0.1990  0.0546
  680MOL0     C91678   6.857   9.464  10.055 -0.5309 -0.0236 -0.5942
  680MOL0     C91679   6.990   9.514   9.996 -0.1388 -0.9723  0.0260
  680MOL0     C91680   6.973   9.571   9.851  1.0857  0.5015 -0.4998
  680MOL0     C91681   6.943   9.447   9.759 -0.7870 -0.0223 -1.4270
  680MOL0     N91682   6.932   9.504   9.620  0.3722  0.5093 -0.1455
  680MOL0     C91683   6.852   9.611   9.574 -0.0488  0.5498 -0.0402
  680MOL0     C91684   6.876   9.624   9.439 -0.4817  0.3111  0.1335
  680MOL0     C91685   6.821   9.736   9.350  0.2638 -0.8802 -0.7211
  680MOL0     C91686   6.680   9.720   9.324  1.2697  0.4129 -1.0377
  680MOL0     C91687   6.617   9.852   9.264 -0.2396 -0.6047 -0.6842
  680MOL0     C91688   6.608   9.972   9.359 -0.2427  0.7061 -0.3184
  680MOL0     O91689   6.498   9.970   9.442  0.0497  0.1661  1.0566
  680MOL0     C91690   6.508  10.026   9.566  0.3181  0.5760  0.2239
  680MOL0     C91691   6.499  10.162   9.600  0.2805 -0.7040  0.5923
  680MOL0     C91692   6.467  10.200   9.729  0.3525 -0.0556 -0.2513
  680MOL0     C91693   6.430  10.349   9.748  0.4584  0.5748  0.2637
  680MOL0     C91694   6.448  10.101   9.830 -0.5347 -0.8282  0.0052
  680MOL0     C91695   6.385  10.129   9.969 -0.7356 -0.1119 -0.5368
  680MOL0     O91696   6.360  10.020  10.045 -0.2092 -0.2785  0.2574
  680MOL0     C91697   6.281  10.061  10.154  0.0842  0.0545 -0.5503
  680MOL0     C91698   6.141  10.031  10.160 -0.4666 -0.1658 -0.0059
  680MOL0     C91699   6.073  10.069  10.273 -0.4914  0.0753  0.4271
  680MOL0     C91700   6.129  10.133  10.380  0.1960  0.0299 -0.1598
  680MOL0     O91701   6.045  10.186  10.471  0.4222  0.6927 -0.1140
  680MOL0     C91702   6.093  10.279  10.563 -0.5824  0.3132  0.7943
  680MOL0     C91703   5.964  10.362  10.604  0.2341  0.5678 -0.0172
  680MOL0     C91704   5.868  10.271  10.686 -0.3991 -0.6077 -1.1122
  680MOL0     C91705   5.740  10.354  10.728  1.1522 -0.6568  0.9927
  680MOL0     C91706   5.659  10.277  10.837  0.0452  0.5351  0.8415
  680MOL0     C91707   5.530  10.336  10.875  0.5930 -0.0140 -0.9844
  680MOL0     C91708   5.433  10.230  10.913 -0.0794  0.9611 -0.0638
  680MOL0     C91709   5.459  10.171  11.053 -0.0416  0.1563 -0.0213
  680MOL0    Cl91710   5.345  10.040  11.100  0.2060  0.0943 -0.7715
  680MOL0     C91711   6.270  10.151  10.380 -1.2389  0.6084 -0.1045
  680MOL0     C91712   6.347  10.122  10.263  0.1024  0.5953  0.5047
  680MOL0     O91713   6.365  10.247  10.003 -0.0584 -1.2492 -1.1998
  680MOL0     C91714   6.476   9.968   9.799  0.1558 -0.5402  0.9320
  680MOL0     C91715   6.507   9.930   9.665 -0.0030 -0.8719 -0.1402
  680MOL0     N91716   6.979   9.530   9.403  1.0902  0.4595  0.2659
  680MOL0     N91717   7.004   9.460   9.509  0.6436  1.1918 -0.3427
  680MOL0     C91718   6.801   9.967  10.072 -0.2181  0.4946  0.1179
  680MOL0     C91719   6.769  10.029   9.948 -1.0392  0.4569 -0.6374
  680MOL0     C91720   6.816  10.226   9.555 -0.0554  0.7196 -0.2760
  680MOL0     C91721   6.763  10.336   9.498  0.9900  0.4249 -0.6634
  680MOL0     C91722   6.754  10.360   9.365 -0.1000 -0.1703 -0.5895
  680MOL0     C91723   6.827  10.278   9.276 -1.1337 -0.8438 -1.1183
  680MOL0     O91724   6.847  10.309   9.143  0.5778 -0.5186 -0.4049
  680MOL0     C91725   6.849  10.445   9.100  0.3257  0.0970 -0.4058
  680MOL0     C91726   6.976  10.519   9.146  0.1262  0.2556  0.2986
  680MOL0     C91727   7.104  10.436   9.133  0.8122 -0.4724  0.8736
  680MOL0     C91728   7.213  10.531   9.117  0.4212 -0.4203  1.4917
  680MOL0     C91729   7.343  10.465   9.095 -0.7690 -0.3010  0.4671
  680MOL0     C91730   7.434  10.393   9.084 -0.1886 -0.0230 -1.0584
  680MOL0     C91731   6.894  10.167   9.317 -0.4267 -0.9167  0.0493
  680MOL0     C91732   6.892  10.143   9.463  0.8507  0.1022  0.0717
  680MOL0     H91733   7.037   9.923   9.763  3.3028 -1.6400  1.9562
  680MOL0     H91734   7.099   9.831  10.007  0.3926  1.2639  1.5699
  680MOL0     H91735   6.905   9.818  10.408  0.3438  0.5138 -0.1233
  680MOL0     H91736   6.781   9.917  10.324 -0.1378  0.3124  0.5184
  680MOL0     H91737   6.711   9.690  10.364  0.7821 -0.5161 -0.0466
  680MOL0     H91738   6.739   9.705  10.179 -1.2487  0.0749  0.1122
  680MOL0     H91739   6.981   9.629  10.259 -1.0235  1.6718 -2.6441
  680MOL0     H91740   6.902   9.551  10.393 -1.7608  0.2752 -0.0172
  680MOL0     H91741   6.940   9.387  10.238  0.0008  1.2830  0.3215
  680MOL0     H91742   6.766   9.404  10.239 -1.5317  0.6570 -1.3008
  680MOL0     H91743   6.837   9.364  10.016 -3.1518 -0.5967  1.8881
  680MOL0     H91744   6.781   9.534  10.017  1.9004  3.1837 -0.0102
  680MOL0     H91745   7.024   9.597  10.058 -0.6373  0.5943 -1.7089
  680MOL0     H91746   7.060   9.430   9.988 -0.1192 -1.0501  0.9187
  680MOL0     H91747   6.902   9.654   9.856  1.6049  1.2857 -3.9083
  680MOL0     H91748   7.071   9.608   9.820  1.2021 -0.4867 -1.4041
  680MOL0     H91749   6.857   9.387   9.789 -0.2238  0.2657  0.9190
  680MOL0     H91750   7.029   9.381   9.769 -0.8709 -0.1491 -1.5354
  680MOL0     H91751   6.782   9.669   9.634 -0.1681 -0.2056  0.5751
  680MOL0     H91752   6.847   9.823   9.411  0.0618 -0.4933 -1.1746
  680MOL0     H91753   6.877   9.756   9.258  0.7595 -0.8140 -0.4083
  680MOL0     H91754   6.622   9.684   9.409 -0.1782  1.7790 -1.4041
  680MOL0     H91755   6.678   9.637   9.252 -0.9431 -3.3990  2.9270
  680MOL0     H91756   6.517   9.825   9.227 -0.5008  2.0276 -2.1177
  680MOL0     H91757   6.683   9.893   9.187 -0.1442  0.2123 -0.1767
  680MOL0     H91758   6.621  10.071   9.313  1.0935  2.8605  4.0513
  680MOL0     H91759   6.699   9.969   9.419  1.7482  1.3541 -3.1207
  680MOL0     H91760   6.519  10.241   9.528 -1.0514  2.0037  2.9523
  680MOL0     H91761   6.450  10.414   9.663  1.9799 -0.7936 -0.4685
  680MOL0     H91762   6.321  10.353   9.761 -0.4366 -0.1038 -4.9688
  680MOL0     H91763   6.476  10.391   9.838  1.7961 -0.8185  0.2716
  680MOL0     H91764   6.071   9.979  10.096 -2.1989 -1.2297  2.5770
  680MOL0     H91765   5.970  10.041  10.296  0.0542 -0.1262  2.9316
  680MOL0     H91766   6.129  10.228  10.653 -0.5970 -2.1385 -0.5004
  680MOL0     H91767   6.169  10.345  10.520 -2.4367  2.9453  1.3187
  680MOL0     H91768   5.996  10.453  10.657  0.3528 -0.4177  1.7033
  680MOL0     H91769   5.913  10.378  10.509 -1.2172  1.3802  0.8529
  680MOL0     H91770   5.915  10.261  10.785  1.5662  1.3003 -1.7783
  680MOL0     H91771   5.869  10.176  10.632 -0.4592 -0.2994 -1.6589
  680MOL0     H91772   5.761  10.452  10.770 -0.4224  1.4060 -2.5592
  680MOL0     H91773   5.660  10.373  10.655 -0.3622  2.8113  3.3333
  680MOL0     H91774   5.715  10.264  10.930 -0.1994 -1.1674  0.7792
  680MOL0     H91775   5.655  10.180  10.786  3.5829  1.2588 -1.1749
  680MOL0     H91776   5.554  10.411  10.952 -0.8059 -1.2490  0.7540
  680MOL0     H91777   5.494  10.386  10.784 -0.1505 -0.1771 -0.7890
  680MOL0     H91778   5.403  10.165  10.830 -0.4285 -0.2533  0.9748
  680MOL0     H91779   5.340  10.285  10.930  0.6283  3.4644 -3.2846
  680MOL0     H91780   5.436  10.254  11.120  0.9295 -0.3315  0.9451
  680MOL0     H91781   5.563  10.142  11.069 -0.3615 -0.3014  1.3955
  680MOL0     H91782   6.328  10.198  10.459 -2.1956  4.8570 -1.6333
  680MOL0     H91783   6.453  10.132  10.280  0.4698 -1.9867  0.1516
  680MOL0     H91784   6.465   9.897   9.879 -3.4551  1.2528  2.2633
  680MOL0     H91785   6.515   9.829   9.629  0.6964 -0.0516 -2.4454
  680MOL0     H91786   6.723   9.984  10.146 -1.3422 -1.0498 -0.6820
  680MOL0     H91787   6.675  10.082   9.933  0.9600  3.7736 -2.4137
  680MOL0     H91788   6.703  10.407   9.554 -2.1732 -1.1379 -1.7818
  680MOL0     H91789   6.711  10.456   9.336 -1.1277 -1.1551 -2.5074
  680MOL0     H91790   6.843  10.452   8.991  0.2668 -2.0820 -0.5807
  680MOL0     H91791   6.761  10.493   9.142 -0.1964 -1.8186  0.7877
  680MOL0     H91792   6.949  10.544   9.249  2.5054 -0.0787  1.0764
  680MOL0     H91793   6.976  10.613   9.091  2.5947 -1.3385 -2.7407
  680MOL0     H91794   7.095  10.376   9.042  0.8145 -0.2001  0.6894
  680MOL0     H91795   7.119  10.378   9.224  0.3943 -2.7739 -0.4421
  680MOL0     H91796   7.230  10.597   9.204  1.7938  1.0603  0.1741
  680MOL0     H91797   7.197  10.592   9.028 -3.4662 -0.4269  2.0359
  680MOL0     H91798   7.526  10.339   9.072  0.5001  1.0604 -0.7702
  680MOL0     H91799   6.941  10.104   9.242 -2.1621 -2.3590  0.1274
  680MOL0     H91800   6.941  10.056   9.507 -4.0906 -3.0487  0.1372
  681MOL0     O91801   2.555   0.392   2.900  0.3571  0.6029 -0.1844
  681MOL0     C91802   2.509   0.356   2.793  0.4007  0.0581 -0.0223
  681MOL0     O91803   2.526   0.422   2.675 -0.5696  0.1368  1.4549
  681MOL0     C91804   2.631   0.515   2.668  0.6866  0.4862  0.4192
  681MOL0     C91805   2.613   0.614   2.572 -0.2011 -0.3416 -0.2550
  681MOL0     C91806   2.709   0.706   2.535 -0.5073 -0.3366  0.0289
  681MOL0     C91807   2.831   0.713   2.609 -0.5336 -0.0155  0.2218
  681MOL0     O91808   2.918   0.825   2.593  0.0108  0.5985 -0.0263
  681MOL0     C91809   3.064   0.811   2.624 -0.5509 -0.5765 -0.3096
  681MOL0     C91810   3.139   0.942   2.595 -0.4366 -0.1195  0.2801
  681MOL0     C91811   3.268   0.971   2.681  0.7204  0.3853  0.6708
  681MOL0     C91812   3.271   1.128   2.709  0.1987  0.1084  0.2640
  681MOL0     C91813   3.269   1.212   2.586  0.2101 -0.2512  0.1742
  681MOL0     C91814   3.401   1.211   2.509  0.0237  1.0077  0.3803
  681MOL0     C91815   3.384   1.293   2.374  0.0208 -0.0583 -0.1449
  681MOL0     C91816   3.512   1.299   2.291 -0.3124  0.1392  0.3570
  681MOL0     N91817   3.525   1.392   2.168  0.4287  0.8232  0.1111
  681MOL0     C91818   3.471   1.378   2.044 -0.0354  0.7371 -0.0855
  681MOL0     C91819   3.504   1.485   1.977 -0.2865  1.0036  0.2178
  681MOL0     C91820   3.459   1.500   1.842  0.0636  0.1122  0.6913
  681MOL0     C91821   3.318   1.569   1.832  0.1059  1.4324 -0.4906
  681MOL0     C91822   3.268   1.596   1.697 -0.5458 -0.7169 -0.3495
  681MOL0     C91823   3.123   1.592   1.702  1.2368 -0.1103  0.4398
  681MOL0     O91824   3.056   1.478   1.756  0.0227 -0.3631  0.1972
  681MOL0     C91825   2.921   1.465   1.770 -0.0162 -0.6236  0.5509
  681MOL0     C91826   2.849   1.574   1.838 -0.6737  0.3501  0.2523
  681MOL0     C91827   2.714   1.569   1.877  0.0810  0.2130 -0.0495
  681MOL0     C91828   2.664   1.686   1.956 -0.1930  0.1896  0.5749
  681MOL0     C91829   2.645   1.451   1.847 -0.1327 -0.3949 -0.5878
  681MOL0     C91830   2.515   1.411   1.912 -0.0631  0.2962  0.5145
  681MOL0     O91831   2.470   1.462   2.029 -0.4831 -0.0285  0.5669
  681MOL0     C91832   2.351   1.417   2.073  0.0283 -0.2343 -0.2151
  681MOL0     C91833   2.274   1.511   2.147  0.6459  0.2566  0.0860
  681MOL0     C91834   2.165   1.465   2.220  0.0004  0.3975 -0.0123
  681MOL0     C91835   2.098   1.336   2.209 -0.4802  0.3529 -0.1552
  681MOL0     O91836   1.985   1.285   2.272 -0.4801  0.2153  0.2127
  681MOL0     C91837   1.869   1.374   2.279 -0.3584 -0.3091 -0.6363
  681MOL0     C91838   1.755   1.306   2.360  0.5308 -0.2010  0.0569
  681MOL0     C91839   1.770   1.309   2.512 -0.0471  0.4161 -0.2237
  681MOL0     C91840   1.881   1.207   2.552 -0.2940 -0.3123 -0.0001
  681MOL0     C91841   1.893   1.183   2.696 -0.2520 -0.4211 -0.4614
  681MOL0     C91842   1.978   1.068   2.747 -0.2642  0.5531 -0.0653
  681MOL0     C91843   1.982   1.080   2.904 -0.0152 -0.3746  0.2908
  681MOL0     C91844   2.100   1.169   2.953 -0.6211  0.0100  0.2423
  681MOL0    Cl91845   2.082   1.195   3.127  0.1111  0.0435 -0.1845
  681MOL0     C91846   2.171   1.247   2.128  0.8294 -0.4330  0.1907
  681MOL0     C91847   2.289   1.286   2.064 -0.5157  1.1306  0.2756
  681MOL0     O91848   2.447   1.346   1.836 -0.5012  0.5752 -0.4837
  681MOL0     C91849   2.714   1.353   1.772 -0.8205  0.5740  0.0806
  681MOL0     C91850   2.851   1.364   1.736  0.0602 -0.5618  0.2278
  681MOL0     N91851   3.568   1.574   2.062  0.8429 -0.0256  0.2649
  681MOL0     N91852   3.580   1.517   2.179 -0.0835 -0.5594  0.7837
  681MOL0     C91853   2.851   0.625   2.717 -0.1880  0.4489 -0.3384
  681MOL0     C91854   2.753   0.524   2.740  0.7444  0.4427  0.1768
  681MOL0     C91855   2.449   0.218   2.782 -0.0981  0.0202 -0.6137
  681MOL0     C91856   2.420   0.162   2.661  0.9447 -0.8365 -0.7098
  681MOL0     C91857   2.380   0.033   2.659  0.6682  0.4111  0.2620
  681MOL0     C91858   2.344  -0.041   2.768  0.7152  0.5785  0.6393
  681MOL0     O91859   2.293  -0.176   2.767  0.1543 -0.2315  0.2796
  681MOL0     C91860   2.269  -0.236   2.641 -0.1305 -0.1270  0.1762
  681MOL0     C91861   2.205  -0.376   2.668  0.9384  0.6529 -0.1214
  681MOL0     C91862   2.058  -0.382   2.714 -0.2012 -0.0951  0.2690
  681MOL0     C91863   2.039  -0.517   2.781  0.8513  0.2622 -0.1490
  681MOL0     C91864   1.911  -0.536   2.842  0.5433  0.4894 -0.3408
  681MOL0     C91865   1.806  -0.524   2.893  0.2327  0.9796  0.1829
  681MOL0     C91866   2.364   0.015   2.893  0.3375  0.0852  0.0207
  681MOL0     C91867   2.428   0.144   2.905 -0.1565 -0.1419  0.1770
  681MOL0     H91868   2.516   0.612   2.524 -0.2516 -1.2491 -0.1422
  681MOL0     H91869   2.694   0.785   2.461  0.8738  0.5447  0.6292
  681MOL0     H91870   3.077   0.783   2.729 -2.4954  0.1514  0.1783
  681MOL0     H91871   3.115   0.740   2.558 -1.6445 -1.6442 -0.0400
  681MOL0     H91872   3.168   0.943   2.489  1.5091 -2.6626  0.6948
  681MOL0     H91873   3.074   1.029   2.612 -0.1073 -0.2127  2.2242
  681MOL0     H91874   3.274   0.928   2.782 -2.6748  2.6311  2.0092
  681MOL0     H91875   3.354   0.947   2.617 -0.0538 -2.1849  0.4682
  681MOL0     H91876   3.181   1.145   2.770  0.7851 -0.7483  1.4052
  681MOL0     H91877   3.356   1.156   2.772  1.0855  1.3654 -1.4011
  681MOL0     H91878   3.181   1.186   2.525 -0.2589  0.3064  0.5944
  681MOL0     H91879   3.249   1.317   2.611 -2.1208 -0.9768  1.7721
  681MOL0     H91880   3.482   1.246   2.574 -0.2883 -1.4490  2.2601
  681MOL0     H91881   3.427   1.107   2.489 -2.3852  0.4489 -0.1575
  681MOL0     H91882   3.302   1.256   2.312  1.6576 -2.7268 -0.8857
  681MOL0     H91883   3.366   1.392   2.415  4.3536 -0.0722  2.4243
  681MOL0     H91884   3.528   1.195   2.262 -0.3797  1.0338 -3.5163
  681MOL0     H91885   3.590   1.337   2.357 -0.5515 -2.2535  2.1276
  681MOL0     H91886   3.421   1.288   2.009  0.0467  1.2890 -1.6945
  681MOL0     H91887   3.539   1.559   1.796  0.0653 -0.9203 -0.7061
  681MOL0     H91888   3.444   1.409   1.784  0.6443  0.9599 -0.8644
  681MOL0     H91889   3.309   1.669   1.876 -0.7229  1.2709 -0.2758
  681MOL0     H91890   3.251   1.510   1.895  1.8146  0.2818  0.3251
  681MOL0     H91891   3.281   1.523   1.616 -1.8756 -0.8368 -0.4803
  681MOL0     H91892   3.297   1.695   1.661 -1.5134  0.2475  1.4147
  681MOL0     H91893   3.096   1.608   1.597  2.3784  1.2235  0.3203
  681MOL0     H91894   3.093   1.674   1.767 -0.6020 -1.8252  1.8548
  681MOL0     H91895   2.910   1.657   1.872  0.7512 -1.0031  1.1987
  681MOL0     H91896   2.697   1.778   1.907 -2.3124  0.4198 -0.5342
  681MOL0     H91897   2.555   1.682   1.964 -0.2346  2.0227  1.5702
  681MOL0     H91898   2.702   1.684   2.059 -0.3170 -3.7387  0.6734
  681MOL0     H91899   2.302   1.615   2.164  3.9378 -0.8227  2.3371
  681MOL0     H91900   2.110   1.530   2.287  0.3840  1.5733 -0.8225
  681MOL0     H91901   1.892   1.476   2.309  2.1977 -0.4036 -1.9452
  681MOL0     H91902   1.831   1.381   2.177 -2.0037  3.9006  0.0792
  681MOL0     H91903   1.666   1.359   2.324  1.0333  1.6111  1.3173
  681MOL0     H91904   1.756   1.204   2.323  5.5443 -0.3986  0.0470
  681MOL0     H91905   1.673   1.271   2.545 -2.4810  4.6647 -1.7604
  681MOL0     H91906   1.777   1.415   2.540 -2.2044  1.1976 -2.3257
  681MOL0     H91907   1.866   1.118   2.489  0.8004 -1.7553  1.6735
  681MOL0     H91908   1.978   1.241   2.515  0.9923 -0.3319  3.0984
  681MOL0     H91909   1.792   1.158   2.728  0.8225 -1.1306  2.7297
  681MOL0     H91910   1.919   1.276   2.747 -2.8452 -1.8635  3.9895
  681MOL0     H91911   1.918   0.980   2.721 -1.0998  0.3337  2.3494
  681MOL0     H91912   2.073   1.053   2.694 -0.5244  0.2774 -0.4615
  681MOL0     H91913   1.992   0.983   2.954  1.4593 -0.0207  0.7161
  681MOL0     H91914   1.887   1.127   2.930 -0.2976  0.6823 -2.3256
  681MOL0     H91915   2.101   1.264   2.899  1.3670  0.4227  0.9163
  681MOL0     H91916   2.200   1.126   2.940 -0.1043  1.3129 -0.2764
  681MOL0     H91917   2.124   1.151   2.108  0.4050 -0.2723  0.3901
  681MOL0     H91918   2.337   1.204   2.010  0.2754 -0.6960  3.4904
  681MOL0     H91919   2.654   1.269   1.740 -0.5607 -0.8560  2.9851
  681MOL0     H91920   2.896   1.288   1.673  1.8677  2.2306 -2.0727
  681MOL0     H91921   2.945   0.627   2.771  1.8197  0.4241 -3.5513
  681MOL0     H91922   2.775   0.450   2.816 -0.2507  1.0724  1.1139
  681MOL0     H91923   2.429   0.202   2.560 -1.9292  0.1205 -0.6763
  681MOL0     H91924   2.369   0.004   2.556  1.4281  0.2956  0.2059
  681MOL0     H91925   2.203  -0.181   2.573  1.1139  0.6445 -0.4362
  681MOL0     H91926   2.369  -0.246   2.599 -0.9612  0.5980 -2.0841
  681MOL0     H91927   2.263  -0.425   2.747  0.1808  1.0053  0.6711
  681MOL0     H91928   2.211  -0.433   2.575  0.2092 -0.2960  0.4035
  681MOL0     H91929   1.994  -0.363   2.627 -0.6375 -2.5243 -0.0096
  681MOL0     H91930   2.042  -0.309   2.794  1.7508 -0.9644  1.5227
  681MOL0     H91931   2.121  -0.528   2.853  0.6103  1.1224  0.2694
  681MOL0     H91932   2.045  -0.596   2.707 -0.1668  1.1389 -1.2091
  681MOL0     H91933   1.715  -0.498   2.944  0.9261  2.3952  0.7797
  681MOL0     H91934   2.324  -0.044   2.974  0.8226 -1.8871 -1.1247
  681MOL0     H91935   2.452   0.176   3.006  0.1978  3.0046 -0.8068
  682MOL0     O91936   0.823   7.957   4.916  0.2514 -0.3419 -0.4468
  682MOL0     C91937   0.705   7.947   4.908  0.0591  0.6597 -0.2650
  682MOL0     O91938   0.636   7.852   4.835 -0.0094 -0.6049 -0.6094
  682MOL0     C91939   0.711   7.755   4.771 -0.2665 -1.0768 -0.1505
  682MOL0     C91940   0.703   7.758   4.631  0.6110 -0.3738 -0.2062
  682MOL0     C91941   0.786   7.664   4.565  1.0114 -0.0397 -0.6659
  682MOL0     C91942   0.863   7.569   4.637 -0.2686 -0.2178 -0.9234
  682MOL0     O91943   0.915   7.462   4.569 -0.5973  0.3379  0.0241
  682MOL0     C91944   1.044   7.420   4.612  0.8091  0.3501  0.2734
  682MOL0     C91945   1.155   7.525   4.652 -0.1473  0.5088 -0.3895
  682MOL0     C91946   1.170   7.620   4.538 -0.1436 -0.3429 -0.7457
  682MOL0     C91947   1.271   7.740   4.585  0.4127 -0.8680 -0.1864
  682MOL0     C91948   1.419   7.692   4.594  1.0168 -0.0838 -0.0276
  682MOL0     C91949   1.471   7.653   4.451  0.0731  0.6719  0.0718
  682MOL0     C91950   1.629   7.643   4.465 -0.1076  1.3606  0.9737
  682MOL0     C91951   1.672   7.545   4.572  1.0604  0.4354  0.2297
  682MOL0     N91952   1.816   7.513   4.576  0.3358  0.2114  0.3905
  682MOL0     C91953   1.883   7.495   4.693  0.1962  0.3734  0.4496
  682MOL0     C91954   2.013   7.497   4.659 -0.2093 -0.6927 -0.8524
  682MOL0     C91955   2.130   7.473   4.749  0.6497 -0.2433  0.2654
  682MOL0     C91956   2.258   7.441   4.662  0.5341 -0.9995 -0.0120
  682MOL0     C91957   2.369   7.361   4.724  0.1749 -0.1268 -0.3846
  682MOL0     C91958   2.440   7.432   4.843 -0.3397 -0.9230  1.2012
  682MOL0     O91959   2.550   7.350   4.888 -0.5360  0.7755  0.2873
  682MOL0     C91960   2.640   7.397   4.984  1.1693 -0.1941  0.1296
  682MOL0     C91961   2.662   7.527   5.010 -0.1884 -0.6113  0.5828
  682MOL0     C91962   2.744   7.564   5.123 -0.1330 -0.0923 -0.7424
  682MOL0     C91963   2.786   7.705   5.149  0.1658 -1.0754 -0.1838
  682MOL0     C91964   2.811   7.461   5.202 -0.3918 -0.1589  0.5834
  682MOL0     C91965   2.929   7.483   5.291  0.7801  0.2693  0.5833
  682MOL0     O91966   3.040   7.518   5.239  0.0713  0.3909 -0.4284
  682MOL0     C91967   3.063   7.513   5.106  1.3556 -0.1683  0.0257
  682MOL0     C91968   3.065   7.389   5.038  0.2096  0.2442 -0.3185
  682MOL0     C91969   3.082   7.372   4.893  1.3335 -0.1355 -1.2025
  682MOL0     C91970   3.130   7.482   4.824  0.5065 -0.3432 -0.7649
  682MOL0     O91971   3.167   7.488   4.693 -0.1970  0.2196 -0.4262
  682MOL0     C91972   3.142   7.373   4.605 -0.2546 -0.1232  0.2189
  682MOL0     C91973   3.207   7.403   4.465  1.1371  0.6200  0.0714
  682MOL0     C91974   3.118   7.502   4.386 -0.2461  0.2341 -0.5165
  682MOL0     C91975   3.185   7.532   4.253 -0.3145 -0.2107 -0.3120
  682MOL0     C91976   3.075   7.583   4.161  0.1098 -0.7843  0.2101
  682MOL0     C91977   3.118   7.634   4.022 -0.1968 -0.4543  0.0680
  682MOL0     C91978   3.153   7.508   3.947 -1.4621  0.9717 -0.1039
  682MOL0     C91979   3.206   7.537   3.803  0.5116 -0.1764  1.0973
  682MOL0    Cl91980   3.371   7.628   3.817 -0.0506 -0.2230  0.0024
  682MOL0     C91981   3.148   7.603   4.890  0.3979 -0.2099 -0.0411
  682MOL0     C91982   3.107   7.621   5.028  0.1712 -0.3570  0.5224
  682MOL0     O91983   2.903   7.456   5.407 -1.0187 -0.1114 -0.9167
  682MOL0     C91984   2.783   7.336   5.164  0.1160 -0.2248 -0.1537
  682MOL0     C91985   2.696   7.304   5.067 -0.7136 -1.0931  0.7944
  682MOL0     N91986   2.032   7.545   4.531 -0.4593  0.5135  0.1264
  682MOL0     N91987   1.915   7.548   4.486 -0.3749 -0.3708  0.1910
  682MOL0     C91988   0.872   7.576   4.780  0.1712 -0.8669  1.5555
  682MOL0     C91989   0.784   7.664   4.843 -0.7519 -0.6088  0.3373
  682MOL0     C91990   0.629   8.052   4.978 -0.2015 -0.2995 -0.4257
  682MOL0     C91991   0.492   8.044   4.992  0.1022  0.0978 -0.1268
  682MOL0     C91992   0.429   8.153   5.046 -0.2271 -0.3474  0.0722
  682MOL0     C91993   0.499   8.269   5.105 -0.5757 -0.3551  0.7959
  682MOL0     O91994   0.419   8.357   5.171  0.2236 -0.2120  0.5813
  682MOL0     C91995   0.468   8.428   5.284  0.2942  0.8064 -1.2044
  682MOL0     C91996   0.343   8.443   5.362  1.1040  0.3755  1.2006
  682MOL0     C91997   0.222   8.528   5.302  0.1090 -0.0262  0.6376
  682MOL0     C91998   0.233   8.686   5.312 -0.0954  0.5105 -0.4702
  682MOL0     C91999   0.200   8.724   5.447 -0.4188 -0.9170 -1.6061
  682MOL0     C92000   0.176   8.768   5.563  1.1001  0.6477  0.2037
  682MOL0     C92001   0.639   8.275   5.084  0.0279  0.2104 -0.2865
  682MOL0     C92002   0.696   8.172   5.021 -0.0164 -0.5319  0.0508
  682MOL0     H92003   0.636   7.832   4.589 -2.8647  0.1258  5.2607
  682MOL0     H92004   0.779   7.648   4.458 -1.5656  0.9227 -0.6974
  682MOL0     H92005   1.039   7.360   4.703 -0.2733  3.2386  2.2315
  682MOL0     H92006   1.085   7.358   4.531  0.1196 -0.3991  0.4859
  682MOL0     H92007   1.135   7.576   4.746  1.8303  3.1583 -1.2784
  682MOL0     H92008   1.247   7.466   4.660 -1.0174 -0.8542 -0.0893
  682MOL0     H92009   1.198   7.558   4.452 -3.0607 -0.9978 -1.3423
  682MOL0     H92010   1.071   7.658   4.508 -0.5741 -1.2849 -0.5569
  682MOL0     H92011   1.277   7.816   4.506  1.6783 -4.7430 -4.2766
  682MOL0     H92012   1.241   7.791   4.677  2.9437 -2.5797  1.7111
  682MOL0     H92013   1.470   7.780   4.633 -2.4208  1.3247  1.6852
  682MOL0     H92014   1.420   7.603   4.657 -3.7480 -1.0117 -0.8954
  682MOL0     H92015   1.419   7.560   4.424  0.8182  0.6339 -1.3382
  682MOL0     H92016   1.446   7.730   4.377  3.7882  2.0260  0.0049
  682MOL0     H92017   1.664   7.619   4.364 -2.7739  1.7152 -0.1345
  682MOL0     H92018   1.663   7.744   4.489  1.9813  0.2545  3.0209
  682MOL0     H92019   1.616   7.454   4.549 -0.0518  1.0315  0.5048
  682MOL0     H92020   1.628   7.570   4.669 -1.2180  1.7353 -1.0480
  682MOL0     H92021   1.833   7.482   4.788 -1.4987  1.8895 -0.1879
  682MOL0     H92022   2.155   7.565   4.803  0.0622  0.8059 -1.1891
  682MOL0     H92023   2.110   7.392   4.820  0.8719 -0.2143  0.3629
  682MOL0     H92024   2.304   7.537   4.635  0.1872 -0.1886  2.0881
  682MOL0     H92025   2.224   7.388   4.572 -1.3006 -0.3629  0.2536
  682MOL0     H92026   2.448   7.327   4.657  3.0971  0.4764  2.4719
  682MOL0     H92027   2.313   7.276   4.763  0.8706 -0.6328 -0.4857
  682MOL0     H92028   2.373   7.441   4.929 -2.5729  1.5708 -0.6499
  682MOL0     H92029   2.476   7.533   4.820 -1.1521  0.0870  3.9943
  682MOL0     H92030   2.617   7.602   4.945 -1.0387 -2.4759 -1.0539
  682MOL0     H92031   2.894   7.722   5.146  0.2564 -0.1627  3.3383
  682MOL0     H92032   2.750   7.771   5.069  2.0018 -1.9984 -1.8615
  682MOL0     H92033   2.750   7.741   5.246  2.8637  0.7700  0.2589
  682MOL0     H92034   3.044   7.305   5.104  2.7198 -0.0568  0.2199
  682MOL0     H92035   3.074   7.279   4.839 -1.3983 -0.7209  0.0544
  682MOL0     H92036   3.194   7.289   4.651 -2.4584 -2.7676 -1.7558
  682MOL0     H92037   3.036   7.346   4.591  0.5012 -4.1347  0.9100
  682MOL0     H92038   3.307   7.445   4.481  0.3717  1.4401  3.2894
  682MOL0     H92039   3.206   7.312   4.404  0.0017  1.7281 -1.6658
  682MOL0     H92040   3.085   7.587   4.447 -2.2006 -0.1725 -0.9417
  682MOL0     H92041   3.023   7.453   4.363 -0.3818 -0.0546  0.5972
  682MOL0     H92042   3.255   7.616   4.262 -1.4090  0.5056  3.0586
  682MOL0     H92043   3.225   7.437   4.217 -0.8045 -1.2325  1.6704
  682MOL0     H92044   3.028   7.665   4.216  2.6445  0.6205  0.4240
  682MOL0     H92045   3.003   7.504   4.137  2.5641 -3.5352  1.2061
  682MOL0     H92046   3.042   7.689   3.965  0.9135  0.4327 -0.6041
  682MOL0     H92047   3.205   7.698   4.035  1.5424 -3.0250  2.0260
  682MOL0     H92048   3.072   7.443   3.913  1.1562 -1.9508 -1.2860
  682MOL0     H92049   3.228   7.443   3.993 -2.6544 -0.8002 -0.5378
  682MOL0     H92050   3.121   7.592   3.762  0.4560 -0.8058  0.3449
  682MOL0     H92051   3.215   7.454   3.733 -2.4291 -1.6885  2.3659
  682MOL0     H92052   3.167   7.698   4.839 -1.4206  0.3788  0.2874
  682MOL0     H92053   3.103   7.721   5.070  2.2643 -1.5057  3.8112
  682MOL0     H92054   2.837   7.254   5.210 -0.9508 -2.2614 -2.2834
  682MOL0     H92055   2.675   7.200   5.042 -0.5697 -0.4394 -2.5364
  682MOL0     H92056   0.939   7.506   4.830 -0.0837 -2.1248  0.2136
  682MOL0     H92057   0.793   7.680   4.950  2.9484 -1.7063  0.3587
  682MOL0     H92058   0.436   7.959   4.953  0.5516 -2.2069  3.7128
  682MOL0     H92059   0.322   8.143   5.066 -0.2296 -1.2048 -0.3557
  682MOL0     H92060   0.531   8.365   5.347 -2.7142 -0.4045  0.8160
  682MOL0     H92061   0.513   8.526   5.263 -1.5257  1.5856 -1.6625
  682MOL0     H92062   0.373   8.489   5.457 -1.8780 -0.0811  2.5097
  682MOL0     H92063   0.317   8.340   5.391  0.7786 -0.3570 -1.4713
  682MOL0     H92064   0.129   8.492   5.347  1.8521 -2.2776  2.7125
  682MOL0     H92065   0.220   8.497   5.197  0.1277 -1.2349  0.9798
  682MOL0     H92066   0.157   8.735   5.250  0.1602  1.3075 -0.1553
  682MOL0     H92067   0.328   8.725   5.273  0.5142  1.2383  1.6536
  682MOL0     H92068   0.169   8.822   5.655 -0.6246  3.4699 -1.4240
  682MOL0     H92069   0.685   8.373   5.095 -1.4917  1.6995 -4.6282
  682MOL0     H92070   0.800   8.178   4.988 -0.3486 -3.6323 -2.0148
  683MOL0     O92071   0.838   8.730  11.394  0.5709 -0.0971  0.1841
  683MOL0     C92072   0.828   8.740  11.516 -0.0292 -0.9654 -0.3953
  683MOL0     O92073   0.939   8.782  11.600 -0.5889 -0.1324 -0.1058
  683MOL0     C92074   1.044   8.834  11.531 -0.1262 -0.5704  0.3764
  683MOL0     C92075   1.170   8.773  11.539  0.3716  0.0876 -0.0714
  683MOL0     C92076   1.278   8.854  11.489 -0.2475  0.3502  0.1626
  683MOL0     C92077   1.261   8.986  11.437  0.3128 -0.6497 -1.5066
  683MOL0     O92078   1.356   9.082  11.413  0.7268  0.4611  0.5698
  683MOL0     C92079   1.491   9.045  11.462 -0.8368  0.1666  0.1680
  683MOL0     C92080   1.587   9.156  11.419 -0.2682  1.1033 -1.0766
  683MOL0     C92081   1.716   9.146  11.501  1.2859 -0.1595  0.7055
  683MOL0     C92082   1.814   9.248  11.448  0.1979  0.7649  0.1943
  683MOL0     C92083   1.943   9.263  11.521  0.0362  0.1326  0.3684
  683MOL0     C92084   1.926   9.318  11.658 -0.1456 -1.3561 -1.1712
  683MOL0     C92085   2.053   9.288  11.746  0.0909 -0.0550 -0.2833
  683MOL0     C92086   2.143   9.416  11.743 -0.3489 -0.3754  0.6066
  683MOL0     N92087   2.273   9.404  11.815 -0.4171 -0.7348  1.4211
  683MOL0     C92088   2.290   9.451  11.939 -0.9685 -0.1640  0.5773
  683MOL0     C92089   2.420   9.454  11.964 -0.3491 -0.3324  0.4358
  683MOL0     C92090   2.496   9.516  12.078 -0.1735 -0.3934  0.5067
  683MOL0     C92091   2.533   9.662  12.065  0.7061  1.1940  0.0216
  683MOL0     C92092   2.406   9.747  12.097  0.4291  0.0956  0.5993
  683MOL0     C92093   2.404   9.877  12.016  0.1043 -0.3446 -0.3033
  683MOL0     O92094   2.354   9.853  11.888 -0.6490 -0.3292 -0.5760
  683MOL0     C92095   2.218   9.872  11.861  0.0264  0.2931  0.1948
  683MOL0     C92096   2.177   9.830  11.731  0.3880  0.4410 -0.7822
  683MOL0     C92097   2.042   9.822  11.698 -0.3961 -0.1896  0.7382
  683MOL0     C92098   2.012   9.790  11.553  0.7121 -0.4629 -0.0813
  683MOL0     C92099   1.938   9.843  11.789  0.7785  0.1351  0.3730
  683MOL0     C92100   1.792   9.865  11.755 -0.2822  0.4383  0.3859
  683MOL0     O92101   1.698   9.870  11.855 -0.3253 -0.0740 -0.6822
  683MOL0     C92102   1.564   9.883  11.833 -0.0849 -0.2644 -0.5702
  683MOL0     C92103   1.479   9.914  11.942 -0.3882 -0.1762 -1.0647
  683MOL0     C92104   1.336   9.928  11.930  0.4841 -0.5240  0.7414
  683MOL0     C92105   1.270   9.911  11.804 -0.5200 -0.0390 -0.4602
  683MOL0     O92106   1.137   9.919  11.767 -0.7321  0.7021  0.2397
  683MOL0     C92107   1.039   9.918  11.871 -0.6148  0.1289  0.1978
  683MOL0     C92108   1.009  10.065  11.915 -0.6725 -0.2027 -0.2375
  683MOL0     C92109   0.886  10.071  12.003  0.3079  0.1592 -1.3113
  683MOL0     C92110   0.869  10.218  12.053 -0.6276 -0.3739 -0.2656
  683MOL0     C92111   0.731  10.258  12.101  0.1130 -0.1566  0.9797
  683MOL0     C92112   0.615  10.230  11.988 -0.0335  0.5381 -1.2531
  683MOL0     C92113   0.485  10.296  12.008  0.5426 -1.0290  0.3436
  683MOL0     C92114   0.436  10.253  12.147  0.9970 -0.6186  0.4220
  683MOL0    Cl92115   0.275  10.340  12.181  0.0354 -0.0974 -0.0957
  683MOL0     C92116   1.353   9.879  11.702 -0.3168  0.5559  0.4165
  683MOL0     C92117   1.497   9.858  11.710 -0.4590 -0.1269 -0.2070
  683MOL0     O92118   1.769   9.893  11.640 -0.4230  0.3716  0.0787
  683MOL0     C92119   1.980   9.861  11.924  0.6750 -1.2709 -0.4795
  683MOL0     C92120   2.111   9.885  11.953  0.2820  0.6511  0.2137
  683MOL0     N92121   2.486   9.419  11.847 -0.1151  0.1647  0.8405
  683MOL0     N92122   2.398   9.385  11.759  0.7966  0.2129  0.5658
  683MOL0     C92123   1.131   9.031  11.429  0.3523 -0.3141 -0.0316
  683MOL0     C92124   1.019   8.956  11.471  0.2635  0.0354  0.6223
  683MOL0     C92125   0.711   8.685  11.583  0.8773 -0.3026  0.2033
  683MOL0     C92126   0.619   8.590  11.526  0.1472  0.8101  0.5844
  683MOL0     C92127   0.521   8.544  11.607  0.3248 -0.5914 -0.2687
  683MOL0     C92128   0.510   8.577  11.741 -0.8610  0.8772 -0.0277
  683MOL0     O92129   0.399   8.520  11.805  0.6479 -0.6411  0.7067
  683MOL0     C92130   0.379   8.533  11.944  0.0775  0.6982 -0.2378
  683MOL0     C92131   0.272   8.428  11.971  0.0611  0.1002  0.0061
  683MOL0     C92132   0.127   8.456  11.925 -0.2314  0.1162  0.1039
  683MOL0     C92133   0.096   8.563  11.812 -0.0099 -0.8894  0.0409
  683MOL0     C92134  -0.040   8.548  11.757  0.4124 -1.1652  0.1485
  683MOL0     C92135  -0.152   8.527  11.712  0.1074 -0.1467  0.6615
  683MOL0     C92136   0.602   8.668  11.796  1.2349 -0.0352 -0.1717
  683MOL0     C92137   0.695   8.730  11.719  0.1086  0.2562  0.4916
  683MOL0     H92138   1.180   8.683  11.599 -0.8354  0.7355  1.1319
  683MOL0     H92139   1.378   8.817  11.506  0.7960  2.1428 -1.6109
  683MOL0     H92140   1.491   9.033  11.571  2.3112  2.8197  0.6196
  683MOL0     H92141   1.518   8.953  11.410 -3.5418 -0.3843 -0.4462
  683MOL0     H92142   1.605   9.165  11.311  1.8486 -0.4435 -0.9305
  683MOL0     H92143   1.526   9.243  11.443 -1.9918  0.3983 -2.6112
  683MOL0     H92144   1.694   9.160  11.607  2.9319  0.2599  1.0241
  683MOL0     H92145   1.748   9.042  11.494 -0.8303 -0.7350 -1.6409
  683MOL0     H92146   1.838   9.209  11.348 -0.9378  1.1636 -0.2552
  683MOL0     H92147   1.766   9.343  11.421  0.4888  2.1753  4.0357
  683MOL0     H92148   1.991   9.164  11.522 -1.8145 -0.8290 -0.4538
  683MOL0     H92149   2.020   9.324  11.473  1.2710  1.7161  4.0402
  683MOL0     H92150   1.912   9.427  11.659 -1.8938 -1.5577 -0.5686
  683MOL0     H92151   1.844   9.263  11.705 -3.4770  3.3049 -0.7699
  683MOL0     H92152   2.018   9.278  11.849 -1.9121  1.1666 -0.7925
  683MOL0     H92153   2.102   9.190  11.742  0.4572  0.0101  1.6396
  683MOL0     H92154   2.091   9.501  11.788  0.3193  0.8054 -0.7676
  683MOL0     H92155   2.165   9.438  11.638  2.4835 -5.5065 -0.2208
  683MOL0     H92156   2.207   9.465  12.008 -0.5394  2.3266  0.6658
  683MOL0     H92157   2.425   9.507  12.161  1.6385  0.5564  2.2381
  683MOL0     H92158   2.588   9.463  12.103  0.3707  0.1770 -0.2393
  683MOL0     H92159   2.572   9.684  11.965 -2.1682  1.2873 -1.1696
  683MOL0     H92160   2.607   9.675  12.145  0.4735 -1.6554  0.8224
  683MOL0     H92161   2.403   9.768  12.204 -4.1434  0.5263  0.5541
  683MOL0     H92162   2.313   9.694  12.075  0.4765  0.2703 -0.0673
  683MOL0     H92163   2.504   9.920  12.019 -0.7071  1.6349  2.2050
  683MOL0     H92164   2.342   9.950  12.070 -0.1639 -1.8651  1.5916
  683MOL0     H92165   2.251   9.797  11.658 -0.2838 -1.5400 -0.6125
  683MOL0     H92166   1.966   9.871  11.495  1.5073  2.3101  2.8832
  683MOL0     H92167   2.107   9.788  11.500  1.8260  3.0616  1.4664
  683MOL0     H92168   1.958   9.695  11.548  0.7978 -0.5343  0.3417
  683MOL0     H92169   1.520   9.919  12.043 -0.7869 -4.2107 -0.5207
  683MOL0     H92170   1.266   9.943  12.011 -0.3914  1.7042 -0.3359
  683MOL0     H92171   0.943   9.875  11.841 -1.3403  1.1527  0.9814
  683MOL0     H92172   1.081   9.849  11.944 -0.5685  0.0701  0.1165
  683MOL0     H92173   1.089  10.092  11.985  0.1174  0.9818 -1.5393
  683MOL0     H92174   1.005  10.133  11.830  0.2711 -0.7277 -0.7113
  683MOL0     H92175   0.892  10.006  12.091 -3.3627 -0.4244 -1.3343
  683MOL0     H92176   0.803  10.042  11.939  0.4199 -2.1024 -0.5058
  683MOL0     H92177   0.932  10.242  12.139 -0.1542  0.8863 -0.9362
  683MOL0     H92178   0.898  10.291  11.977  2.5225  0.4679  1.5456
  683MOL0     H92179   0.726  10.364  12.124 -2.6659 -0.3883  1.7946
  683MOL0     H92180   0.700  10.195  12.185  2.0019 -1.8930  0.4797
  683MOL0     H92181   0.660  10.246  11.890  2.2050  0.5990 -0.2569
  683MOL0     H92182   0.581  10.126  11.982  0.5146  0.2913 -0.2552
  683MOL0     H92183   0.426  10.255  11.926  0.7062 -0.2437 -0.1786
  683MOL0     H92184   0.499  10.404  11.996  0.3452 -1.2520 -2.5821
  683MOL0     H92185   0.503  10.292  12.225  0.8044 -0.1065  0.3371
  683MOL0     H92186   0.426  10.145  12.158  1.8211 -0.9067 -1.2394
  683MOL0     H92187   1.313   9.869  11.601  2.6023 -2.8921 -0.6065
  683MOL0     H92188   1.546   9.820  11.620 -3.3372  1.3572 -2.5866
  683MOL0     H92189   1.906   9.864  12.003  2.8925 -1.9749  1.7928
  683MOL0     H92190   2.138   9.902  12.057  0.1855 -3.1088  0.9783
  683MOL0     H92191   1.117   9.127  11.380  3.0281  0.9719  1.5097
  683MOL0     H92192   0.918   8.996  11.468  0.9701  1.9294  0.7952
  683MOL0     H92193   0.636   8.556  11.424 -2.0740 -1.3343  0.8324
  683MOL0     H92194   0.451   8.471  11.568  0.1690 -1.9168  2.3013
  683MOL0     H92195   0.464   8.488  11.996  1.6895  0.1565 -3.1081
  683MOL0     H92196   0.355   8.633  11.981 -0.4186  0.6241 -0.3424
  683MOL0     H92197   0.264   8.403  12.078  0.2998 -2.0182 -0.4355
  683MOL0     H92198   0.306   8.336  11.922 -1.3510 -1.4801  1.8195
  683MOL0     H92199   0.074   8.478  12.018 -0.2976 -0.7294  0.2726
  683MOL0     H92200   0.108   8.352  11.897 -1.5686  0.5549 -0.6720
  683MOL0     H92201   0.169   8.563  11.731  4.3891  2.6136  3.4452
  683MOL0     H92202   0.106   8.665  11.850 -3.3906  0.9001 -3.1951
  683MOL0     H92203  -0.255   8.515  11.687  0.8519 -1.9931 -1.9067
  683MOL0     H92204   0.593   8.694  11.901 -0.1196 -1.1624  0.0283
  683MOL0     H92205   0.753   8.807  11.769  0.7673  0.5486 -0.6918
  684MOL0     O92206   7.985   5.357   5.676  0.0862  0.4524  0.3202
  684MOL0     C92207   8.007   5.460   5.614  0.0195  0.7669 -0.4890
  684MOL0     O92208   8.044   5.581   5.675 -0.7897  0.3591 -0.8954
  684MOL0     C92209   8.045   5.680   5.585 -0.2077  0.3546  0.5628
  684MOL0     C92210   8.165   5.751   5.569 -0.2403  0.3487  0.1618
  684MOL0     C92211   8.168   5.878   5.508 -0.6916  0.6150  0.3927
  684MOL0     C92212   8.058   5.929   5.444  0.1258  0.0560 -0.1134
  684MOL0     O92213   8.058   6.057   5.380 -0.2350 -0.0107 -0.0291
  684MOL0     C92214   8.172   6.156   5.405  0.7315  0.4532  1.6959
  684MOL0     C92215   8.136   6.231   5.541 -0.5409  0.2440  0.0563
  684MOL0     C92216   8.253   6.336   5.564 -0.1451 -0.0842  0.0259
  684MOL0     C92217   8.238   6.407   5.699  0.4021 -0.7516 -0.5503
  684MOL0     C92218   8.366   6.485   5.726 -0.2253 -0.0438 -0.0274
  684MOL0     C92219   8.397   6.617   5.654  1.1952  1.1328  0.1836
  684MOL0     C92220   8.543   6.671   5.678 -0.5814 -0.4629 -0.3458
  684MOL0     C92221   8.532   6.772   5.798 -0.7448  0.3979 -0.0349
  684MOL0     N92222   8.675   6.789   5.833 -0.3762  0.2279 -0.7270
  684MOL0     C92223   8.727   6.765   5.963 -0.3006 -0.1211  0.3370
  684MOL0     C92224   8.847   6.827   5.948  0.4822  0.2715 -0.0995
  684MOL0     C92225   8.934   6.843   6.071 -0.2280  0.1665 -0.2007
  684MOL0     C92226   9.019   6.719   6.099  0.1672  0.2228 -0.0864
  684MOL0     C92227   9.071   6.654   5.960  0.1446  0.8573 -0.2638
  684MOL0     C92228   9.173   6.548   5.990  0.3137  0.4588 -0.0934
  684MOL0     O92229   9.225   6.513   5.861  0.8447  0.4427  0.2504
  684MOL0     C92230   9.323   6.414   5.861  0.2206 -0.2431 -1.0757
  684MOL0     C92231   9.336   6.341   5.745  0.6225 -0.5442 -0.1292
  684MOL0     C92232   9.449   6.267   5.713 -1.0545  0.8103  0.4923
  684MOL0     C92233   9.444   6.213   5.578 -0.5643 -0.3511 -1.1981
  684MOL0     C92234   9.548   6.244   5.810  0.0098  0.3841  0.2680
  684MOL0     C92235   9.656   6.153   5.797  0.4149  0.4934  0.4507
  684MOL0     O92236   9.709   6.136   5.670  0.0379  0.1284 -1.2580
  684MOL0     C92237   9.821   6.055   5.640 -1.6717  0.0884  0.1132
  684MOL0     C92238   9.942   6.063   5.696  0.3881  0.4416 -0.9649
  684MOL0     C92239  10.046   6.013   5.629 -1.3585  0.7738 -0.6174
  684MOL0     C92240  10.038   5.960   5.496  1.2952  0.5211 -0.1347
  684MOL0     O92241  10.142   5.923   5.416 -0.1955 -0.0624 -0.0777
  684MOL0     C92242  10.189   6.041   5.340 -0.3361  0.8098 -1.2131
  684MOL0     C92243  10.177   5.992   5.195 -0.4847 -0.5580  0.4171
  684MOL0     C92244  10.262   6.055   5.086  0.2296 -0.7255  0.2913
  684MOL0     C92245  10.372   5.968   5.014 -0.4643 -1.1318 -0.0554
  684MOL0     C92246  10.417   6.030   4.872 -0.0282  0.1449 -0.6106
  684MOL0     C92247  10.504   5.928   4.796  0.1219 -0.6183  0.5034
  684MOL0     C92248  10.646   5.936   4.838  0.1801  0.6662 -0.6915
  684MOL0     C92249  10.745   5.820   4.811 -0.0545 -0.2173  0.6419
  684MOL0    Cl92250  10.707   5.668   4.904 -0.3079 -0.2768 -0.0146
  684MOL0     C92251   9.912   5.939   5.443 -0.5947 -0.3757  0.2811
  684MOL0     C92252   9.806   5.977   5.518  0.5039 -0.0463  0.1953
  684MOL0     O92253   9.709   6.118   5.898 -0.3856 -0.1052 -0.7830
  684MOL0     C92254   9.520   6.305   5.937 -0.3024 -0.8827  0.6929
  684MOL0     C92255   9.416   6.392   5.958 -0.0873 -1.0804  0.4415
  684MOL0     N92256   8.871   6.874   5.823  0.4187  0.5784  0.0906
  684MOL0     N92257   8.765   6.850   5.753 -0.1706 -0.0224  0.4614
  684MOL0     C92258   7.937   5.857   5.455 -0.6895  0.5266 -1.1195
  684MOL0     C92259   7.933   5.737   5.532 -0.9132 -0.5337  0.4085
  684MOL0     C92260   7.996   5.432   5.471  0.2976 -0.0334  0.4900
  684MOL0     C92261   7.875   5.402   5.405  0.0473 -0.8151  0.1085
  684MOL0     C92262   7.874   5.368   5.267  0.3410  0.6334 -0.1756
  684MOL0     C92263   7.997   5.363   5.194 -0.2692 -0.7140 -0.3353
  684MOL0     O92264   7.982   5.322   5.067  0.3779 -0.1062  0.1523
  684MOL0     C92265   8.082   5.337   4.965 -0.0640  0.5619  0.4849
  684MOL0     C92266   8.145   5.203   4.927  0.7932 -0.8573  0.3742
  684MOL0     C92267   8.180   5.128   5.056 -0.2846  0.8364 -0.4718
  684MOL0     C92268   8.265   5.011   5.008 -0.4760  0.4561 -0.1183
  684MOL0     C92269   8.404   5.027   4.964 -0.1280 -0.5583  0.1418
  684MOL0     C92270   8.519   5.021   4.916  0.0029 -0.5805  0.4104
  684MOL0     C92271   8.113   5.382   5.263  0.0057  0.4187  1.5138
  684MOL0     C92272   8.118   5.420   5.394 -0.2614  0.1075  0.3993
  684MOL0     H92273   8.247   5.702   5.621  0.3121  0.3986 -0.6388
  684MOL0     H92274   8.266   5.923   5.517  0.9894 -2.7857  0.9669
  684MOL0     H92275   8.267   6.102   5.411  0.9685  0.0460 -2.7613
  684MOL0     H92276   8.166   6.225   5.321 -2.1256 -2.1047 -0.4576
  684MOL0     H92277   8.047   6.291   5.518  1.3105  1.7509 -4.1851
  684MOL0     H92278   8.112   6.173   5.631  1.1142  1.4708  1.3739
  684MOL0     H92279   8.351   6.289   5.554  1.1712  2.5168 -0.0998
  684MOL0     H92280   8.256   6.409   5.482  1.6630  0.7907  0.8171
  684MOL0     H92281   8.158   6.482   5.697  2.0121  1.2109  1.9058
  684MOL0     H92282   8.231   6.342   5.786 -0.4328 -0.5174 -0.4401
  684MOL0     H92283   8.359   6.507   5.833  1.1729 -0.3262  0.1322
  684MOL0     H92284   8.456   6.426   5.706 -1.2035 -0.8971 -2.3430
  684MOL0     H92285   8.388   6.595   5.547 -0.5887  1.8702  0.1397
  684MOL0     H92286   8.311   6.684   5.667  1.9154  2.1604 -0.2351
  684MOL0     H92287   8.612   6.591   5.704  0.4703  0.9492  1.4332
  684MOL0     H92288   8.574   6.717   5.584 -0.2429  0.4862  0.2222
  684MOL0     H92289   8.489   6.718   5.882 -0.8513 -1.2698 -1.1045
  684MOL0     H92290   8.476   6.863   5.770  2.7395  2.0165 -2.4995
  684MOL0     H92291   8.686   6.721   6.054  0.0104  0.4633  0.7696
  684MOL0     H92292   9.000   6.928   6.049  2.1688 -0.4777  3.4952
  684MOL0     H92293   8.880   6.867   6.163 -0.7206  1.6249 -0.8468
  684MOL0     H92294   8.960   6.654   6.164  1.7488 -0.8430  0.3256
  684MOL0     H92295   9.097   6.762   6.162 -1.6480  3.3678  0.2468
  684MOL0     H92296   9.108   6.740   5.903 -1.6802  2.5197  0.8950
  684MOL0     H92297   8.989   6.606   5.906 -0.4538 -1.0154  2.1326
  684MOL0     H92298   9.137   6.459   6.043 -0.2961 -1.0150 -2.7989
  684MOL0     H92299   9.256   6.595   6.043  0.3867 -0.4350  0.6134
  684MOL0     H92300   9.250   6.353   5.680  0.7235 -2.4251 -0.6728
  684MOL0     H92301   9.365   6.268   5.526 -0.6563  0.8870  0.2026
  684MOL0     H92302   9.531   6.245   5.520 -0.1228  1.0096  0.1363
  684MOL0     H92303   9.437   6.104   5.589  1.6034 -0.5118 -0.9558
  684MOL0     H92304   9.958   6.097   5.798  0.7227  1.3412 -1.3098
  684MOL0     H92305  10.144   6.023   5.674 -2.0000  2.4366  0.5111
  684MOL0     H92306  10.122   6.128   5.345 -0.9788  0.2669 -0.0367
  684MOL0     H92307  10.294   6.059   5.364 -1.3580  2.7606  2.4040
  684MOL0     H92308  10.192   5.884   5.194 -3.2140 -1.0142  1.2963
  684MOL0     H92309  10.075   6.006   5.157 -0.4155  2.6336  1.0821
  684MOL0     H92310  10.310   6.153   5.097  0.1950 -0.4475 -1.6910
  684MOL0     H92311  10.188   6.067   5.007  0.0881  0.6228  0.6084
  684MOL0     H92312  10.460   5.969   5.079  2.5237  2.4368 -3.6580
  684MOL0     H92313  10.340   5.864   5.003  3.4497 -2.2758 -2.9984
  684MOL0     H92314  10.475   6.121   4.891  0.1770 -0.8170  5.2547
  684MOL0     H92315  10.326   6.041   4.813 -1.4036 -3.6796  0.5052
  684MOL0     H92316  10.458   5.828   4.802 -2.7732  0.4530 -1.5739
  684MOL0     H92317  10.498   5.948   4.689 -0.6924 -1.3853  0.3863
  684MOL0     H92318  10.648   5.940   4.948 -0.9258 -1.6657 -0.5179
  684MOL0     H92319  10.679   6.034   4.803  0.3748  0.1903 -1.8753
  684MOL0     H92320  10.847   5.846   4.840 -0.5793  2.7314  0.0784
  684MOL0     H92321  10.748   5.789   4.706  1.1508  1.8696  0.0070
  684MOL0     H92322   9.893   5.888   5.349  0.6169  1.5678 -1.0968
  684MOL0     H92323   9.705   5.971   5.480  0.4088 -1.1131  0.6007
  684MOL0     H92324   9.583   6.291   6.024  0.0026  0.3744  0.6916
  684MOL0     H92325   9.416   6.445   6.053 -0.9901  1.6337 -0.9553
  684MOL0     H92326   7.853   5.913   5.415  0.4069  1.4076 -2.2758
  684MOL0     H92327   7.836   5.695   5.556 -2.2488  0.2219 -2.9789
  684MOL0     H92328   7.782   5.387   5.460  0.4813 -3.9902  0.1683
  684MOL0     H92329   7.784   5.336   5.217 -0.8772  2.6227  0.6017
  684MOL0     H92330   8.041   5.371   4.869  1.6565 -0.9813 -0.8697
  684MOL0     H92331   8.156   5.403   5.010 -0.8529  2.2976 -0.6489
  684MOL0     H92332   8.235   5.234   4.873 -1.9878  0.9786 -3.7586
  684MOL0     H92333   8.090   5.127   4.871 -1.3461 -0.0771  1.2783
  684MOL0     H92334   8.084   5.099   5.101 -0.5541 -0.4459 -1.7864
  684MOL0     H92335   8.237   5.184   5.130 -1.4568 -0.0254  1.1641
  684MOL0     H92336   8.231   4.958   4.919  0.3899 -0.5887  0.1507
  684MOL0     H92337   8.263   4.936   5.087  3.5720  0.4440  0.1898
  684MOL0     H92338   8.620   5.026   4.882  0.7246 -0.8336  2.3860
  684MOL0     H92339   8.207   5.369   5.210  0.0170  1.3272  1.3032
  684MOL0     H92340   8.213   5.426   5.446 -0.6641  0.0121  1.1536
  685MOL0     O92341   0.823   1.066  11.301  0.0439 -0.3359  0.1236
  685MOL0     C92342   0.923   1.131  11.343 -0.6388  0.2013 -1.1181
  685MOL0     O92343   1.032   1.082  11.412 -0.3194 -0.5516  1.2637
  685MOL0     C92344   1.069   0.953  11.395  0.1669  0.8336 -0.6435
  685MOL0     C92345   1.196   0.928  11.325  1.3183  0.3468 -0.1975
  685MOL0     C92346   1.244   0.796  11.314 -0.1589  0.8053 -0.2231
  685MOL0     C92347   1.187   0.686  11.371  0.0511 -0.0264  0.1718
  685MOL0     O92348   1.262   0.564  11.350  0.3145 -0.9856  0.4067
  685MOL0     C92349   1.180   0.456  11.377  0.2937  0.1537 -0.0414
  685MOL0     C92350   1.261   0.327  11.349 -0.4734 -0.0666  0.1262
  685MOL0     C92351   1.385   0.308  11.446  0.0324 -0.1873  0.0198
  685MOL0     C92352   1.397   0.162  11.479  0.5131 -0.6024 -0.1176
  685MOL0     C92353   1.526   0.127  11.554 -0.4467  0.0644  0.2617
  685MOL0     C92354   1.514   0.001  11.637 -0.5998 -0.8904 -0.8445
  685MOL0     C92355   1.467  -0.123  11.567  0.5252  0.5362  0.5264
  685MOL0     C92356   1.413  -0.236  11.657  0.1439 -1.4181  0.4338
  685MOL0     N92357   1.264  -0.229  11.661  0.5210 -0.7075  0.3163
  685MOL0     C92358   1.189  -0.302  11.572 -0.3903  0.2996 -0.7094
  685MOL0     C92359   1.062  -0.281  11.616  0.8144 -0.0390  0.1109
  685MOL0     C92360   0.929  -0.357  11.578 -1.3435 -0.4088  0.3915
  685MOL0     C92361   0.806  -0.321  11.666 -0.9924  0.2463 -0.2466
  685MOL0     C92362   0.830  -0.376  11.808 -0.4139  0.0288 -0.4213
  685MOL0     C92363   0.700  -0.375  11.897 -0.0196 -0.3340 -0.4295
  685MOL0     O92364   0.742  -0.416  12.031  0.3238  0.2815  0.0016
  685MOL0     C92365   0.715  -0.540  12.075 -0.4999  1.0760 -0.1110
  685MOL0     C92366   0.684  -0.654  11.993  0.1029  0.3611 -0.7129
  685MOL0     C92367   0.627  -0.776  12.048 -0.5263 -0.4897  0.1662
  685MOL0     C92368   0.591  -0.878  11.947  0.3632 -0.3371 -0.3548
  685MOL0     C92369   0.612  -0.789  12.191  0.1416 -0.2498  0.2035
  685MOL0     C92370   0.570  -0.910  12.264  0.6537  0.0612 -0.4502
  685MOL0     O92371   0.612  -0.913  12.395 -0.3342  0.1898 -0.4524
  685MOL0     C92372   0.610  -1.034  12.452  0.5451  0.3873 -0.3883
  685MOL0     C92373   0.721  -1.113  12.482  0.6496 -0.4185  0.5406
  685MOL0     C92374   0.703  -1.238  12.537 -0.7081 -0.4425  0.4352
  685MOL0     C92375   0.577  -1.288  12.577 -0.1766  0.5108  0.5974
  685MOL0     O92376   0.550  -1.394  12.650  0.3463 -0.0169 -0.6453
  685MOL0     C92377   0.609  -1.414  12.778 -0.5647 -0.5664 -1.0318
  685MOL0     C92378   0.736  -1.506  12.778 -0.2696  0.5962 -0.1719
  685MOL0     C92379   0.779  -1.520  12.918 -0.1585  0.3642 -0.3356
  685MOL0     C92380   0.849  -1.648  12.947 -1.0282 -0.2456 -0.0614
  685MOL0     C92381   0.824  -1.708  13.081  0.2036 -0.2959 -0.2352
  685MOL0     C92382   0.889  -1.625  13.204 -0.5094  0.3765  0.0194
  685MOL0     C92383   0.862  -1.681  13.341  0.5066  0.5991 -0.7894
  685MOL0     C92384   0.713  -1.706  13.367  0.3276 -0.3679  0.9642
  685MOL0    Cl92385   0.702  -1.752  13.538  0.1390  0.3363  0.2417
  685MOL0     C92386   0.468  -1.205  12.556 -0.9073  0.2473  0.0214
  685MOL0     C92387   0.488  -1.081  12.505  0.4334 -0.5782 -1.4582
  685MOL0     O92388   0.533  -1.009  12.201  0.7148 -0.7151  0.3390
  685MOL0     C92389   0.622  -0.671  12.261 -0.4957 -0.3611  0.3679
  685MOL0     C92390   0.695  -0.562  12.209  0.3264 -0.4136  0.5808
  685MOL0     N92391   1.055  -0.177  11.714 -0.8940  1.1063 -0.3976
  685MOL0     N92392   1.175  -0.149  11.741 -0.2991 -0.1683 -0.8857
  685MOL0     C92393   1.064   0.718  11.432  0.4580  0.6920 -1.0013
  685MOL0     C92394   1.001   0.840  11.447 -0.4457 -0.4653 -0.9069
  685MOL0     C92395   0.922   1.275  11.312  0.6161  0.2458  0.0368
  685MOL0     C92396   1.035   1.356  11.348 -0.3077 -0.2144  0.2749
  685MOL0     C92397   1.048   1.492  11.311  0.0759 -0.2399  0.1168
  685MOL0     C92398   0.944   1.555  11.243  0.2610  0.1024 -0.0540
  685MOL0     O92399   0.969   1.686  11.210  0.7240 -0.2996  0.4979
  685MOL0     C92400   0.872   1.771  11.142 -0.6497 -0.6466  0.7145
  685MOL0     C92401   0.948   1.896  11.085  1.0340 -0.0822 -0.1239
  685MOL0     C92402   1.035   1.868  10.965  0.5963 -0.1604  0.4640
  685MOL0     C92403   1.134   1.980  10.931 -0.8446  0.4630  0.3295
  685MOL0     C92404   1.260   1.967  11.001 -0.8674 -0.2126  1.1687
  685MOL0     C92405   1.367   1.970  11.048 -0.2296 -0.3293 -0.7114
  685MOL0     C92406   0.829   1.483  11.206 -0.0815  0.8367 -1.1296
  685MOL0     C92407   0.825   1.340  11.227  0.1635 -0.4854 -0.9443
  685MOL0     H92408   1.255   1.016  11.302 -0.3939  1.0932 -2.0139
  685MOL0     H92409   1.345   0.778  11.281  1.6142  0.3346  4.6462
  685MOL0     H92410   1.154   0.457  11.483 -4.8946  2.2167 -1.0202
  685MOL0     H92411   1.093   0.464  11.312 -0.5620  1.9352  1.2328
  685MOL0     H92412   1.185   0.248  11.351 -0.2355 -0.3267 -0.5784
  685MOL0     H92413   1.303   0.326  11.248  0.4172 -2.4387  0.4568
  685MOL0     H92414   1.469   0.358  11.396  1.0706 -2.4082 -0.5436
  685MOL0     H92415   1.357   0.356  11.540 -3.2844  2.5752 -2.1365
  685MOL0     H92416   1.313   0.133  11.542 -0.1576 -2.7706 -1.8473
  685MOL0     H92417   1.384   0.088  11.399 -1.0002 -1.1088  0.5582
  685MOL0     H92418   1.607   0.123  11.481  2.5771  1.7740  3.2235
  685MOL0     H92419   1.556   0.203  11.627 -1.0814 -0.4634  1.0951
  685MOL0     H92420   1.611  -0.013  11.688 -0.1319  1.3633 -0.9911
  685MOL0     H92421   1.447   0.029  11.719 -1.6801 -0.3626 -1.8931
  685MOL0     H92422   1.385  -0.101  11.498  0.5634  1.0695  0.6501
  685MOL0     H92423   1.539  -0.164  11.495  0.3195 -0.3653  0.8218
  685MOL0     H92424   1.451  -0.216  11.757 -0.8010 -0.4194  0.6058
  685MOL0     H92425   1.457  -0.330  11.621  2.6769 -0.8789  1.9004
  685MOL0     H92426   1.223  -0.368  11.493 -0.7013  3.0329 -3.3017
  685MOL0     H92427   0.896  -0.333  11.477 -0.2327 -0.7160 -0.0582
  685MOL0     H92428   0.953  -0.464  11.573 -1.9433 -0.6453  1.9648
  685MOL0     H92429   0.712  -0.371  11.639 -1.2051 -0.4762  1.6353
  685MOL0     H92430   0.784  -0.214  11.661  1.7858  0.9146  0.3844
  685MOL0     H92431   0.906  -0.309  11.850  1.1655 -1.9433 -0.0004
  685MOL0     H92432   0.871  -0.477  11.797 -2.4246 -0.8157 -0.5729
  685MOL0     H92433   0.622  -0.438  11.853  0.1125  0.5680 -2.0364
  685MOL0     H92434   0.656  -0.275  11.902 -2.6182 -1.4209  0.1233
  685MOL0     H92435   0.700  -0.648  11.886  0.1849  0.1518 -0.7122
  685MOL0     H92436   0.607  -0.847  11.844  2.0863 -2.6799 -0.8792
  685MOL0     H92437   0.670  -0.952  11.965  1.2210  0.6308 -0.0546
  685MOL0     H92438   0.491  -0.918  11.963 -0.6425  2.1642  0.0509
  685MOL0     H92439   0.816  -1.073  12.449  1.0465  1.4341  3.5728
  685MOL0     H92440   0.784  -1.310  12.547 -0.3149  0.3059  4.0470
  685MOL0     H92441   0.637  -1.317  12.819 -1.1998  0.3665 -2.6785
  685MOL0     H92442   0.527  -1.455  12.838 -0.1804  1.4129  0.9451
  685MOL0     H92443   0.719  -1.606  12.736  3.0795 -0.2003  0.0555
  685MOL0     H92444   0.814  -1.462  12.716  0.2084 -2.4251 -1.9239
  685MOL0     H92445   0.695  -1.515  12.988 -0.1067  0.7617 -0.2988
  685MOL0     H92446   0.838  -1.431  12.939  2.5016 -1.3586  0.0485
  685MOL0     H92447   0.832  -1.723  12.869  0.4757  1.0906 -1.8045
  685MOL0     H92448   0.956  -1.625  12.935 -1.1731 -0.0769 -1.1566
  685MOL0     H92449   0.835  -1.817  13.085 -0.9980 -0.4015  2.0250
  685MOL0     H92450   0.716  -1.707  13.092  0.0847  4.2676 -0.1132
  685MOL0     H92451   0.996  -1.601  13.205 -0.9254  2.4497 -0.3147
  685MOL0     H92452   0.857  -1.520  13.199  1.4726  0.9723 -1.7942
  685MOL0     H92453   0.885  -1.607  13.419 -1.4522 -1.0017  1.4288
  685MOL0     H92454   0.916  -1.774  13.357  2.3183  0.8374 -4.4547
  685MOL0     H92455   0.665  -1.787  13.312  2.2073  1.8219 -4.5454
  685MOL0     H92456   0.663  -1.612  13.343  2.4789  0.3402 -1.1132
  685MOL0     H92457   0.375  -1.245  12.594 -0.5400 -1.7405 -1.0595
  685MOL0     H92458   0.404  -1.013  12.511  0.9732  0.0676 -0.9574
  685MOL0     H92459   0.596  -0.673  12.366 -3.1403 -1.9445 -0.2193
  685MOL0     H92460   0.710  -0.475  12.272 -0.9604 -0.5614  1.1277
  685MOL0     H92461   1.004   0.635  11.468 -2.4845  3.0596  0.0090
  685MOL0     H92462   0.906   0.846  11.499  0.2335 -0.8618  0.4210
  685MOL0     H92463   1.110   1.301  11.404 -0.5661 -3.8057 -2.5908
  685MOL0     H92464   1.139   1.545  11.337  0.3117 -1.0574  1.0547
  685MOL0     H92465   0.812   1.713  11.070 -2.8722 -1.7369  3.2714
  685MOL0     H92466   0.802   1.805  11.219 -3.5110  0.5988 -2.1910
  685MOL0     H92467   1.019   1.931  11.160  0.1330 -0.6792  1.0359
  685MOL0     H92468   0.869   1.971  11.072  1.1308 -0.0201 -0.3712
  685MOL0     H92469   0.972   1.846  10.878  2.2455 -3.6980 -0.0241
  685MOL0     H92470   1.086   1.773  10.985 -1.6856 -1.2791  1.3029
  685MOL0     H92471   1.088   2.074  10.961  1.5590  1.1581  2.2239
  685MOL0     H92472   1.169   1.977  10.827  2.1802 -2.1392  1.2651
  685MOL0     H92473   1.457   1.973  11.105 -0.8744  0.3934  0.2916
  685MOL0     H92474   0.754   1.534  11.148 -1.4184  0.1084 -0.1127
  685MOL0     H92475   0.741   1.278  11.196 -0.9433  0.6139 -0.2097
  686MOL0     O92476   3.967  10.166   2.738 -0.0250 -0.7738 -0.0122
  686MOL0     C92477   4.081  10.139   2.773 -0.0888 -0.2288  0.3429
  686MOL0     O92478   4.196  10.171   2.715 -0.4970  0.1673  0.1759
  686MOL0     C92479   4.186  10.219   2.589 -0.1136  0.0875 -0.1089
  686MOL0     C92480   4.109  10.143   2.491  0.4816  0.2486 -0.7459
  686MOL0     C92481   4.094  10.173   2.358  0.2308 -0.2363  0.1143
  686MOL0     C92482   4.163  10.288   2.313 -0.1146  0.6691  0.0088
  686MOL0     O92483   4.158  10.331   2.183 -0.5041  0.2807 -0.1714
  686MOL0     C92484   4.080  10.448   2.168 -0.5749 -0.3271 -0.2717
  686MOL0     C92485   3.994  10.447   2.042 -0.3745  0.0021 -0.9404
  686MOL0     C92486   3.896  10.575   2.057 -0.7903  0.1255 -0.2785
  686MOL0     C92487   3.820  10.603   1.932 -0.1312  0.6941  0.7895
  686MOL0     C92488   3.705  10.713   1.931 -0.2983 -0.3421  0.3603
  686MOL0     C92489   3.762  10.852   1.962 -0.2762 -0.0087  0.2092
  686MOL0     C92490   3.650  10.957   1.966  0.8777  0.5644 -0.6796
  686MOL0     C92491   3.615  10.988   2.112  0.2823 -0.7283 -0.2284
  686MOL0     N92492   3.722  11.065   2.185 -0.3164 -0.5892  0.0583
  686MOL0     C92493   3.740  11.028   2.309 -0.2298 -0.8665  0.0720
  686MOL0     C92494   3.809  11.135   2.370  0.1467  0.2434  0.2362
  686MOL0     C92495   3.823  11.137   2.522  1.1164 -0.0117 -0.0278
  686MOL0     C92496   3.898  11.257   2.575  0.5219 -0.5389  0.5302
  686MOL0     C92497   3.904  11.270   2.726  0.4766 -0.5405  0.3933
  686MOL0     C92498   3.986  11.163   2.798 -0.0826 -0.7366 -0.2229
  686MOL0     O92499   3.974  11.196   2.937  0.0434 -0.5601  0.6430
  686MOL0     C92500   4.054  11.131   3.028  1.2346  0.1705  0.7761
  686MOL0     C92501   4.024  11.148   3.165  0.2944  0.8289 -0.0038
  686MOL0     C92502   4.078  11.089   3.273 -0.8415  1.1362 -0.4713
  686MOL0     C92503   4.035  11.125   3.418  0.3930 -1.1466  0.1304
  686MOL0     C92504   4.181  10.991   3.244  0.0637 -0.8472  0.6748
  686MOL0     C92505   4.238  10.893   3.344 -1.0025  0.4207  0.2897
  686MOL0     O92506   4.347  10.822   3.303 -0.0855  0.0548  0.1301
  686MOL0     C92507   4.392  10.717   3.378  0.6750 -0.4554  0.4337
  686MOL0     C92508   4.536  10.706   3.378  0.7930  0.8313 -0.4147
  686MOL0     C92509   4.593  10.625   3.476  0.7738 -0.1494  0.4721
  686MOL0     C92510   4.515  10.536   3.553 -1.0579 -0.1093  0.0973
  686MOL0     O92511   4.565  10.465   3.652 -0.0759 -0.0600  0.0897
  686MOL0     C92512   4.687  10.387   3.616  0.1774 -0.5196 -0.1131
  686MOL0     C92513   4.659  10.247   3.670  0.1625 -0.8909 -0.5052
  686MOL0     C92514   4.796  10.189   3.699  0.9879  0.3591 -0.2722
  686MOL0     C92515   4.794  10.040   3.665  1.0818  0.4899 -0.0758
  686MOL0     C92516   4.931   9.969   3.668 -0.2875 -1.5641  0.0658
  686MOL0     C92517   4.941   9.829   3.607  1.3139  0.1637 -0.4072
  686MOL0     C92518   4.875   9.802   3.473 -0.9989 -0.4237  1.1520
  686MOL0     C92519   4.901   9.665   3.421 -0.0391 -0.0594  0.3672
  686MOL0    Cl92520   4.867   9.662   3.240 -0.1207  0.0468  0.0860
  686MOL0     C92521   4.381  10.527   3.527  0.8176 -1.1631  0.1904
  686MOL0     C92522   4.309  10.623   3.446 -1.2085 -0.4416 -0.1014
  686MOL0     O92523   4.192  10.893   3.456 -0.2687  0.1732 -0.1538
  686MOL0     C92524   4.221  10.981   3.113  0.0881 -0.5957  0.7788
  686MOL0     C92525   4.162  11.044   3.007  1.3006 -0.1459  0.8998
  686MOL0     N92526   3.831  11.233   2.269 -0.7372  0.0228 -0.1504
  686MOL0     N92527   3.773  11.185   2.165  0.6148  0.2222 -0.2763
  686MOL0     C92528   4.242  10.356   2.397  0.8852 -0.6155 -0.4876
  686MOL0     C92529   4.253  10.326   2.533 -0.6075 -0.1308  0.5715
  686MOL0     C92530   4.096  10.074   2.901  0.3595 -0.0960  0.0534
  686MOL0     C92531   4.220  10.027   2.937  0.0633  0.0952 -0.8187
  686MOL0     C92532   4.238   9.950   3.053 -0.3139  0.0181  0.5860
  686MOL0     C92533   4.133   9.928   3.139  0.6072 -0.3609  0.8089
  686MOL0     O92534   4.164   9.841   3.240 -0.0168 -0.0755 -0.0490
  686MOL0     C92535   4.101   9.862   3.362  0.1940 -0.6819  0.1630
  686MOL0     C92536   4.010   9.749   3.399 -0.4632  0.5678 -0.0903
  686MOL0     C92537   3.971   9.758   3.555 -0.3223 -0.8644 -0.0587
  686MOL0     C92538   3.859   9.666   3.581  0.1321 -0.3559 -0.4123
  686MOL0     C92539   3.725   9.710   3.526 -0.4514  0.0196  0.5466
  686MOL0     C92540   3.618   9.767   3.501 -0.3195  0.0135 -0.5034
  686MOL0     C92541   4.004   9.991   3.115  0.7214  0.7855 -0.4656
  686MOL0     C92542   3.987  10.062   2.995  0.3317  0.3773 -0.3294
  686MOL0     H92543   4.042  10.067   2.527 -1.0451  0.3542 -3.1728
  686MOL0     H92544   4.032  10.113   2.292 -2.2476 -0.7458  2.6953
  686MOL0     H92545   4.016  10.465   2.255 -0.6772 -0.7622 -0.2583
  686MOL0     H92546   4.159  10.523   2.169  0.2669 -1.1827  1.7366
  686MOL0     H92547   4.063  10.461   1.958  1.9745 -0.7618  0.7550
  686MOL0     H92548   3.929  10.360   2.032 -0.7618  0.4273 -2.3546
  686MOL0     H92549   3.818  10.566   2.133 -0.7331  1.2062 -0.0798
  686MOL0     H92550   3.949  10.664   2.092 -3.5664  1.3080  1.1987
  686MOL0     H92551   3.892  10.644   1.861  1.3649  4.0796  3.9131
  686MOL0     H92552   3.772  10.507   1.909 -0.1269 -0.3842  4.4920
  686MOL0     H92553   3.654  10.708   1.835 -1.3546  0.3464  0.8597
  686MOL0     H92554   3.632  10.695   2.011 -1.0195  1.6054  0.2033
  686MOL0     H92555   3.816  10.837   2.056 -0.4588 -1.8524  0.0708
  686MOL0     H92556   3.836  10.867   1.883 -2.8672  4.0550 -1.7553
  686MOL0     H92557   3.689  11.049   1.921  0.4514  0.5803 -1.0305
  686MOL0     H92558   3.554  10.935   1.918  0.6363  0.4343 -0.1442
  686MOL0     H92559   3.593  10.889   2.153  2.4999 -0.1895  2.5792
  686MOL0     H92560   3.523  11.048   2.105  0.5190  0.0857  2.5254
  686MOL0     H92561   3.703  10.938   2.357 -0.3922 -0.4913  0.6673
  686MOL0     H92562   3.721  11.147   2.560  0.7690  2.6836 -1.4265
  686MOL0     H92563   3.875  11.046   2.554 -0.6960 -1.2172 -0.3594
  686MOL0     H92564   3.861  11.350   2.530  1.8788 -0.7763 -1.2028
  686MOL0     H92565   3.997  11.253   2.530  0.4229 -0.8621  0.3411
  686MOL0     H92566   3.809  11.278   2.779  2.0431  2.4630  3.0992
  686MOL0     H92567   3.957  11.359   2.761 -1.7009  1.3577 -0.8221
  686MOL0     H92568   4.090  11.151   2.766  1.1742 -2.3397  3.9195
  686MOL0     H92569   3.938  11.067   2.777 -2.6276  0.8936 -2.7427
  686MOL0     H92570   3.939  11.213   3.183 -0.1875  0.2401 -0.1210
  686MOL0     H92571   4.118  11.151   3.484 -0.9988  6.5911 -0.1723
  686MOL0     H92572   3.978  11.218   3.422 -3.0729 -3.1256  0.2709
  686MOL0     H92573   3.960  11.050   3.446 -1.8231  0.7492 -0.4351
  686MOL0     H92574   4.612  10.756   3.319  1.2869 -1.1069 -1.5195
  686MOL0     H92575   4.701  10.631   3.487  0.8335  0.6587 -0.3644
  686MOL0     H92576   4.707  10.392   3.508  4.8791  3.1171  0.6024
  686MOL0     H92577   4.775  10.431   3.664  1.9102 -2.0124 -1.7602
  686MOL0     H92578   4.610  10.247   3.768  0.1476 -2.3758 -0.4926
  686MOL0     H92579   4.596  10.196   3.596 -0.2977 -1.3064  0.1629
  686MOL0     H92580   4.822  10.196   3.805  0.1822 -1.0910  0.0337
  686MOL0     H92581   4.867  10.237   3.630  0.6613  0.0321 -0.8493
  686MOL0     H92582   4.725   9.998   3.739  1.4280 -1.5450 -0.8565
  686MOL0     H92583   4.759  10.048   3.562  0.1042  4.1395  0.3966
  686MOL0     H92584   4.972   9.962   3.769 -1.6237  1.0277  0.8903
  686MOL0     H92585   5.000  10.037   3.616  0.4159 -1.6581  0.8652
  686MOL0     H92586   5.049   9.811   3.596  1.3315  0.3113 -0.4779
  686MOL0     H92587   4.923   9.765   3.694  1.4045  2.2780  1.2484
  686MOL0     H92588   4.908   9.872   3.395 -1.2458 -0.7128  0.7867
  686MOL0     H92589   4.767   9.819   3.473 -1.0260  0.5592 -3.4731
  686MOL0     H92590   4.840   9.593   3.476 -0.3044 -0.1536 -0.0465
  686MOL0     H92591   5.003   9.635   3.447 -1.4422 -4.4684  1.6505
  686MOL0     H92592   4.326  10.453   3.586  0.1357 -3.2319 -2.7915
  686MOL0     H92593   4.200  10.623   3.447 -1.3807  2.8748  3.5900
  686MOL0     H92594   4.297  10.909   3.086 -1.0237 -2.1872  1.7004
  686MOL0     H92595   4.187  10.996   2.912  0.8347  2.2212 -0.4885
  686MOL0     H92596   4.291  10.442   2.353 -3.1116  2.6769  0.9161
  686MOL0     H92597   4.296  10.403   2.597  1.0003  0.4334 -1.0817
  686MOL0     H92598   4.308  10.033   2.875  0.2104  0.9343 -0.5459
  686MOL0     H92599   4.337   9.915   3.082  2.0306  4.6454 -0.8406
  686MOL0     H92600   4.182   9.848   3.435  1.3331 -0.9143 -1.1113
  686MOL0     H92601   4.049   9.958   3.366 -0.2608 -0.9607  1.6605
  686MOL0     H92602   4.063   9.655   3.382  0.2847  0.8563  0.6034
  686MOL0     H92603   3.920   9.749   3.336  0.9614  0.9549 -2.2492
  686MOL0     H92604   3.944   9.858   3.589 -1.8908 -1.4708  0.5463
  686MOL0     H92605   4.063   9.729   3.607  0.4912  0.7730 -0.5085
  686MOL0     H92606   3.837   9.665   3.688  2.2816  3.8312  0.2490
  686MOL0     H92607   3.888   9.569   3.537 -0.1634  1.1270 -4.2833
  686MOL0     H92608   3.520   9.809   3.497 -0.3966  0.0141  0.8089
  686MOL0     H92609   3.920   9.983   3.183 -0.6588 -2.8848 -2.3332
  686MOL0     H92610   3.904  10.128   2.973  0.5575  1.8532  2.7889
  687MOL0     O92611   7.787   4.427   5.238 -0.1934  0.1130 -0.0390
  687MOL0     C92612   7.734   4.452   5.349 -0.2270 -0.0590  1.2565
  687MOL0     O92613   7.612   4.414   5.389  0.5724 -0.0011 -0.5389
  687MOL0     C92614   7.530   4.352   5.299  0.6185  0.1741  0.2015
  687MOL0     C92615   7.426   4.418   5.236  0.8487 -0.2019  0.6102
  687MOL0     C92616   7.344   4.346   5.150 -0.0948  0.1921  0.0693
  687MOL0     C92617   7.370   4.215   5.110 -0.5375 -0.0692 -0.8334
  687MOL0     O92618   7.283   4.148   5.032 -0.4990  0.1022 -0.8724
  687MOL0     C92619   7.272   4.201   4.904  0.6585 -0.5360  0.4811
  687MOL0     C92620   7.383   4.143   4.808  0.2596 -0.1335 -0.4665
  687MOL0     C92621   7.444   4.259   4.728  0.0506 -0.5336  0.1053
  687MOL0     C92622   7.561   4.326   4.795  0.9581 -0.7251 -0.4751
  687MOL0     C92623   7.635   4.426   4.702  0.0310 -0.2083 -0.0939
  687MOL0     C92624   7.758   4.475   4.770  0.6863  0.2324  0.6649
  687MOL0     C92625   7.729   4.564   4.891 -0.3801  0.5389 -0.3179
  687MOL0     C92626   7.866   4.607   4.945  0.0122  0.5872  1.4087
  687MOL0     N92627   7.861   4.732   5.014 -0.1896  0.4823 -0.5582
  687MOL0     C92628   7.781   4.750   5.123 -0.2134  0.1850 -1.3611
  687MOL0     C92629   7.804   4.884   5.155  0.5921 -0.1130 -0.0565
  687MOL0     C92630   7.754   4.949   5.276 -0.5930  0.4241  0.1061
  687MOL0     C92631   7.841   4.911   5.402 -0.0225 -0.2701 -0.6605
  687MOL0     C92632   7.878   5.027   5.494 -0.0509 -0.0755  0.1795
  687MOL0     C92633   7.757   5.103   5.560 -1.1187  0.4254 -0.2177
  687MOL0     O92634   7.675   4.999   5.624 -0.3237 -0.5257 -0.4030
  687MOL0     C92635   7.689   4.985   5.762 -1.0959  1.3569 -0.0850
  687MOL0     C92636   7.809   5.022   5.827 -0.1236 -0.2538  0.3813
  687MOL0     C92637   7.813   4.997   5.966 -0.0765 -0.2352 -0.0922
  687MOL0     C92638   7.915   5.073   6.041 -0.6606  0.1181 -0.3915
  687MOL0     C92639   7.721   4.902   6.020  0.3335 -0.5690  0.8493
  687MOL0     C92640   7.732   4.868   6.160 -0.5349 -0.2827  0.7139
  687MOL0     O92641   7.740   4.971   6.249  0.2125 -0.1867 -0.3031
  687MOL0     C92642   7.770   4.938   6.378  0.5669  0.5018  0.2570
  687MOL0     C92643   7.897   4.959   6.425 -0.2408  0.8643  0.2294
  687MOL0     C92644   7.924   4.913   6.551 -0.1373 -0.4008  0.0504
  687MOL0     C92645   7.826   4.855   6.637  0.2703 -0.2826  1.9852
  687MOL0     O92646   7.870   4.825   6.764 -0.3389  0.3416 -0.0176
  687MOL0     C92647   7.844   4.698   6.816  0.2708  0.1663 -0.6376
  687MOL0     C92648   7.888   4.583   6.729  0.1400  1.1789  0.9377
  687MOL0     C92649   8.048   4.566   6.716 -0.0519 -0.5494  0.1254
  687MOL0     C92650   8.070   4.453   6.613  0.0247 -0.2819 -0.6257
  687MOL0     C92651   8.226   4.450   6.599 -0.6569 -0.3982 -0.3127
  687MOL0     C92652   8.276   4.327   6.535 -0.3015 -0.2960  0.4919
  687MOL0     C92653   8.256   4.339   6.393  0.3076 -0.3552 -0.6148
  687MOL0     C92654   8.332   4.226   6.321  0.2149  0.2858 -0.4780
  687MOL0    Cl92655   8.507   4.266   6.334 -0.0469 -0.0948  0.5213
  687MOL0     C92656   7.694   4.847   6.584 -0.0604 -0.8165  0.5342
  687MOL0     C92657   7.670   4.886   6.456 -1.3394 -0.5849  0.5460
  687MOL0     O92658   7.714   4.757   6.194  0.4867  0.2727 -0.6586
  687MOL0     C92659   7.612   4.846   5.944  0.3907 -1.0506  0.0466
  687MOL0     C92660   7.597   4.900   5.820  0.6778 -0.2565  0.1514
  687MOL0     N92661   7.904   4.936   5.074 -0.0849  0.5879 -0.3867
  687MOL0     N92662   7.932   4.841   4.985 -0.1680 -0.6301  1.0736
  687MOL0     C92663   7.475   4.152   5.171  0.5129  0.8365  0.6167
  687MOL0     C92664   7.550   4.213   5.261 -0.4294  0.1290 -0.2064
  687MOL0     C92665   7.807   4.526   5.452 -0.0257  0.5335  0.5459
  687MOL0     C92666   7.753   4.562   5.582 -0.6283 -0.2265  1.1130
  687MOL0     C92667   7.819   4.641   5.680  0.3833  0.1126 -0.1212
  687MOL0     C92668   7.950   4.672   5.651  0.4889 -0.0419 -0.0356
  687MOL0     O92669   8.045   4.729   5.728 -0.0302 -0.0546 -0.4691
  687MOL0     C92670   8.052   4.698   5.866 -0.7946 -0.3505 -0.2529
  687MOL0     C92671   8.162   4.772   5.945  0.1428  0.5231 -0.3665
  687MOL0     C92672   8.149   4.738   6.096  0.0756 -0.4621  0.1848
  687MOL0     C92673   8.245   4.827   6.177  0.3571  0.7008 -0.4552
  687MOL0     C92674   8.252   4.803   6.330  0.1013  0.3764  0.0844
  687MOL0     C92675   8.258   4.777   6.448 -0.9205  0.1195 -0.3163
  687MOL0     C92676   8.007   4.634   5.527 -0.4969  0.8890 -0.3822
  687MOL0     C92677   7.943   4.564   5.430  0.8783 -0.0693 -0.9683
  687MOL0     H92678   7.411   4.523   5.258  1.7585 -0.5710  3.2933
  687MOL0     H92679   7.252   4.381   5.105 -0.7774  2.2334  2.7502
  687MOL0     H92680   7.189   4.154   4.850  1.1988 -2.8222  1.5135
  687MOL0     H92681   7.260   4.309   4.895  1.9051 -0.4233  0.1185
  687MOL0     H92682   7.452   4.074   4.858  0.3400  0.2988  0.0210
  687MOL0     H92683   7.336   4.077   4.735 -3.5561  1.0314  0.7222
  687MOL0     H92684   7.474   4.214   4.634 -1.9400 -2.1007  0.1519
  687MOL0     H92685   7.362   4.330   4.713 -2.1284 -1.8087  4.3463
  687MOL0     H92686   7.527   4.375   4.886  2.3012 -1.7980  0.6411
  687MOL0     H92687   7.622   4.249   4.843 -0.7657 -1.5234  0.5546
  687MOL0     H92688   7.667   4.380   4.608  1.4397  3.8117 -1.8219
  687MOL0     H92689   7.560   4.499   4.671 -0.3983  0.2359  1.8454
  687MOL0     H92690   7.813   4.387   4.804  3.9227  1.1331 -1.7219
  687MOL0     H92691   7.826   4.518   4.696  0.8768  1.0611  1.3072
  687MOL0     H92692   7.665   4.652   4.874 -1.4902  0.1670  1.6271
  687MOL0     H92693   7.684   4.510   4.974  1.6457  0.5073  0.8226
  687MOL0     H92694   7.930   4.629   4.860  1.4814 -1.8581  1.7911
  687MOL0     H92695   7.923   4.530   4.997 -2.1032 -0.2525  2.6523
  687MOL0     H92696   7.718   4.675   5.169  1.1878 -2.0192 -2.8324
  687MOL0     H92697   7.760   5.056   5.254  0.7787  0.1061 -1.2255
  687MOL0     H92698   7.651   4.918   5.297 -0.7257 -0.7028 -2.0013
  687MOL0     H92699   7.936   4.873   5.363 -0.1737 -3.4740  1.7202
  687MOL0     H92700   7.808   4.823   5.457 -0.7371 -0.6171 -1.6088
  687MOL0     H92701   7.940   5.098   5.440 -0.2318 -0.5808 -0.7184
  687MOL0     H92702   7.924   4.981   5.582 -4.4418 -2.6305  1.4657
  687MOL0     H92703   7.703   5.169   5.491  0.6040  5.4067  2.6416
  687MOL0     H92704   7.782   5.179   5.635 -2.0544 -1.3412  1.9869
  687MOL0     H92705   7.886   5.089   5.791  0.3484  0.3052  2.2924
  687MOL0     H92706   7.967   5.137   5.969  0.1044  2.0166  1.7516
  687MOL0     H92707   7.863   5.133   6.116 -4.4871 -1.4070 -1.5779
  687MOL0     H92708   7.982   5.008   6.098  0.3422  1.6663  0.2415
  687MOL0     H92709   7.977   4.984   6.356  0.6653 -1.4296  0.3728
  687MOL0     H92710   8.030   4.927   6.569  0.2003  0.8235 -2.4885
  687MOL0     H92711   7.891   4.687   6.914  1.2620 -0.4630 -1.1681
  687MOL0     H92712   7.736   4.687   6.833 -0.0474  0.6626 -2.1761
  687MOL0     H92713   7.846   4.487   6.762  4.3994 -2.3516 -2.5280
  687MOL0     H92714   7.851   4.604   6.628  0.2955  2.4447  1.1382
  687MOL0     H92715   8.093   4.552   6.814 -0.5749  0.3828  0.5138
  687MOL0     H92716   8.095   4.651   6.666  0.4406 -1.1376 -0.4276
  687MOL0     H92717   8.027   4.356   6.641  2.2358 -1.3419 -0.7195
  687MOL0     H92718   8.038   4.474   6.511 -0.0971 -1.4285 -0.8320
  687MOL0     H92719   8.275   4.458   6.696 -1.2518 -1.0090  0.0416
  687MOL0     H92720   8.262   4.535   6.539  2.5683 -1.7544 -0.5227
  687MOL0     H92721   8.384   4.334   6.549 -0.4240  4.1126  0.4510
  687MOL0     H92722   8.232   4.235   6.575  0.0226 -1.1476 -1.0158
  687MOL0     H92723   8.286   4.435   6.351 -0.0924 -1.5627 -3.9845
  687MOL0     H92724   8.150   4.336   6.366  0.2650  1.9846 -0.9232
  687MOL0     H92725   8.319   4.221   6.213  1.6596 -2.4346 -0.6113
  687MOL0     H92726   8.318   4.127   6.366 -3.1991  0.9018  0.1444
  687MOL0     H92727   7.618   4.802   6.647 -0.7438 -2.0654 -1.0999
  687MOL0     H92728   7.568   4.879   6.418 -1.3715 -1.9947  0.8323
  687MOL0     H92729   7.544   4.781   5.998  0.6291  0.2064  1.9427
  687MOL0     H92730   7.514   4.884   5.752  1.7725 -0.5547 -1.1522
  687MOL0     H92731   7.483   4.045   5.152 -0.6642 -0.3702  5.5620
  687MOL0     H92732   7.628   4.153   5.307  0.3320  2.2220  1.3716
  687MOL0     H92733   7.652   4.540   5.617  0.1885 -0.7240  3.2726
  687MOL0     H92734   7.764   4.659   5.773 -0.4091 -2.8587  0.0978
  687MOL0     H92735   7.953   4.715   5.909 -0.7358 -2.8237  1.0514
  687MOL0     H92736   8.080   4.593   5.872  0.1875 -0.2739 -2.5068
  687MOL0     H92737   8.149   4.880   5.937  2.6957  0.8499 -0.7603
  687MOL0     H92738   8.259   4.744   5.905  0.8311  1.9479  0.2465
  687MOL0     H92739   8.178   4.634   6.114  6.1093  0.9815  1.2294
  687MOL0     H92740   8.050   4.771   6.129  0.1237  1.2509 -1.2408
  687MOL0     H92741   8.206   4.929   6.166  2.2803  1.7401  1.6007
  687MOL0     H92742   8.345   4.810   6.137  2.3205  1.3642  3.6146
  687MOL0     H92743   8.283   4.741   6.545  1.1202 -1.8268 -1.4827
  687MOL0     H92744   8.115   4.641   5.513 -0.4106  1.7525  0.5935
  687MOL0     H92745   8.009   4.544   5.346  1.0841  1.6085 -1.2454
  688MOL0     O92746   7.820   8.852   1.873  0.1599  0.8584 -0.3069
  688MOL0     C92747   7.695   8.848   1.893  0.5585 -0.4006  0.2671
  688MOL0     O92748   7.618   8.961   1.901  0.1899 -0.7112  0.6706
  688MOL0     C92749   7.671   9.089   1.901 -0.0837  0.3030 -0.7532
  688MOL0     C92750   7.591   9.183   1.845  0.4843  0.6851  0.8884
  688MOL0     C92751   7.621   9.319   1.862 -0.1827 -0.9163 -0.3622
  688MOL0     C92752   7.734   9.356   1.937 -0.0485 -0.3085 -0.3159
  688MOL0     O92753   7.749   9.499   1.959 -0.2700  0.7073 -0.1442
  688MOL0     C92754   7.785   9.526   2.098  0.6143  0.5131 -0.2752
  688MOL0     C92755   7.891   9.629   2.101 -0.1870  0.1680  0.7652
  688MOL0     C92756   8.028   9.574   2.054 -0.6036 -0.3869 -0.5712
  688MOL0     C92757   8.136   9.688   2.040 -0.2790 -0.0879 -0.6295
  688MOL0     C92758   8.266   9.608   1.999 -0.4743 -0.3362  0.1127
  688MOL0     C92759   8.400   9.682   1.994 -0.0615  0.1681 -0.8915
  688MOL0     C92760   8.526   9.593   2.017  0.0884  0.0794  0.5698
  688MOL0     C92761   8.539   9.496   1.915 -0.2485  0.0801  0.2658
  688MOL0     N92762   8.590   9.553   1.790  0.9216  1.5207  0.7619
  688MOL0     C92763   8.705   9.614   1.769 -1.6810 -0.3760  0.2328
  688MOL0     C92764   8.718   9.618   1.636  0.8825  0.2800 -0.2101
  688MOL0     C92765   8.816   9.686   1.552 -0.8363 -0.0321  0.3505
  688MOL0     C92766   8.810   9.837   1.579  0.6781 -0.0027 -0.3109
  688MOL0     C92767   8.660   9.893   1.591  0.4688  0.1748 -0.0537
  688MOL0     C92768   8.683  10.045   1.620 -0.4438 -1.3682 -0.1735
  688MOL0     O92769   8.564  10.116   1.666  0.0917 -0.0463 -0.1765
  688MOL0     C92770   8.513  10.097   1.793  1.1506  0.1207  0.7206
  688MOL0     C92771   8.414  10.179   1.826 -0.0201  0.2711  0.3797
  688MOL0     C92772   8.351  10.170   1.955  0.4886  0.0705 -0.1910
  688MOL0     C92773   8.241  10.276   1.967 -0.2521  0.1035 -0.2985
  688MOL0     C92774   8.378  10.066   2.050 -0.1352 -0.6244 -0.5121
  688MOL0     C92775   8.299  10.031   2.160 -0.0633 -0.2732  0.3183
  688MOL0     O92776   8.351   9.943   2.249  0.9996  0.1306  0.6221
  688MOL0     C92777   8.298   9.905   2.370 -0.2229 -0.3992  0.1835
  688MOL0     C92778   8.159   9.879   2.409 -0.2448 -0.7433 -0.4873
  688MOL0     C92779   8.128   9.852   2.539  0.1201 -1.0654 -0.4246
  688MOL0     C92780   8.222   9.868   2.639  0.6059 -0.1511  0.4644
  688MOL0     O92781   8.203   9.835   2.771 -0.2486 -0.5149 -0.7635
  688MOL0     C92782   8.136   9.937   2.849  0.1453  0.1078  0.3407
  688MOL0     C92783   8.151   9.903   2.989 -0.4487 -1.0458  0.6262
  688MOL0     C92784   8.054   9.984   3.072  0.2053  0.8331  0.0047
  688MOL0     C92785   8.064   9.962   3.226  0.5713 -0.2098 -0.3909
  688MOL0     C92786   7.963  10.058   3.291  0.3843  0.4402 -0.0916
  688MOL0     C92787   7.986  10.062   3.444 -0.1593 -0.3716  0.5428
  688MOL0     C92788   7.873  10.138   3.514  0.0408 -1.2602  0.0842
  688MOL0     C92789   7.757  10.046   3.544  0.1147 -0.0140  0.2197
  688MOL0    Cl92790   7.790   9.950   3.689  0.2317  0.3467 -0.0612
  688MOL0     C92791   8.361   9.881   2.605 -0.4339 -0.3888  0.4248
  688MOL0     C92792   8.405   9.902   2.474  0.2329  0.7343  0.3744
  688MOL0     O92793   8.176  10.067   2.157  0.0727 -0.3424  0.0769
  688MOL0     C92794   8.482   9.993   2.011  0.7533  0.1722  0.0074
  688MOL0     C92795   8.547   9.998   1.889 -0.8027 -0.1689  0.1706
  688MOL0     N92796   8.613   9.558   1.577 -0.2741  0.2060 -0.5648
  688MOL0     N92797   8.530   9.521   1.669 -0.1726 -0.2409 -0.3810
  688MOL0     C92798   7.826   9.258   1.983  0.3281  1.0528 -0.3975
  688MOL0     C92799   7.799   9.123   1.956 -0.9332  0.2029 -0.2634
  688MOL0     C92800   7.625   8.730   1.920  0.6446 -0.5579 -0.6531
  688MOL0     C92801   7.656   8.639   2.023 -0.9612 -0.8182  0.9262
  688MOL0     C92802   7.580   8.524   2.040 -0.0499  0.3208  0.3557
  688MOL0     C92803   7.479   8.497   1.955 -0.2556  0.8167 -0.0605
  688MOL0     O92804   7.411   8.382   1.981 -0.1611 -0.1381 -0.3965
  688MOL0     C92805   7.281   8.352   1.932  0.2240  0.6719  0.0218
  688MOL0     C92806   7.169   8.426   2.007  0.2222 -0.0429  0.4021
  688MOL0     C92807   7.161   8.369   2.150 -0.2066 -0.9242  0.1844
  688MOL0     C92808   7.032   8.406   2.223  0.9270  0.2379 -0.2392
  688MOL0     C92809   7.028   8.548   2.247  0.3466  0.1933  0.5362
  688MOL0     C92810   7.044   8.666   2.258  0.7008  0.8508 -0.6976
  688MOL0     C92811   7.453   8.582   1.847  0.3560  1.0961 -0.6320
  688MOL0     C92812   7.526   8.695   1.836  0.3762 -0.0797  0.5449
  688MOL0     H92813   7.505   9.138   1.796  4.5360 -4.1778 -3.0029
  688MOL0     H92814   7.549   9.393   1.827 -1.3360 -2.2995 -1.0199
  688MOL0     H92815   7.695   9.577   2.133  1.8872  3.6349 -1.1970
  688MOL0     H92816   7.796   9.435   2.158 -1.5512  0.3593 -0.0218
  688MOL0     H92817   7.861   9.714   2.038 -2.0635 -1.5143 -0.7371
  688MOL0     H92818   7.915   9.677   2.197 -0.7256  0.9363  0.5299
  688MOL0     H92819   8.058   9.491   2.118  1.4779  2.3336  2.2935
  688MOL0     H92820   8.014   9.532   1.954  0.8614 -1.4250 -0.3724
  688MOL0     H92821   8.109   9.754   1.957 -2.2526 -1.8910 -1.5297
  688MOL0     H92822   8.167   9.736   2.133  1.8166  0.3280 -1.4796
  688MOL0     H92823   8.280   9.528   2.073 -0.7548 -0.2103  0.3026
  688MOL0     H92824   8.267   9.563   1.899  1.3719 -1.3255  0.5173
  688MOL0     H92825   8.405   9.740   1.902  2.0636 -1.5843 -1.9480
  688MOL0     H92826   8.395   9.754   2.077 -1.7331  0.9554 -1.6069
  688MOL0     H92827   8.620   9.648   2.026 -0.3176  0.8876  0.0220
  688MOL0     H92828   8.520   9.536   2.110  1.0759 -0.7460  0.1409
  688MOL0     H92829   8.450   9.435   1.899  1.6309 -2.4366 -1.2415
  688MOL0     H92830   8.617   9.427   1.949  0.5019  0.3037 -0.9416
  688MOL0     H92831   8.783   9.660   1.829 -1.3707  2.0254 -1.8257
  688MOL0     H92832   8.916   9.649   1.575 -1.0961  0.2850  2.1100
  688MOL0     H92833   8.802   9.662   1.446 -0.0863  0.9678  0.0085
  688MOL0     H92834   8.862   9.901   1.507  0.6811  0.3503  0.0003
  688MOL0     H92835   8.853   9.856   1.678 -2.8009 -1.3108  1.6651
  688MOL0     H92836   8.602   9.838   1.665 -2.3307 -0.0235 -2.2376
  688MOL0     H92837   8.599   9.889   1.501  0.2641 -0.7438  0.1163
  688MOL0     H92838   8.725  10.084   1.527  1.9636  1.7159  1.9887
  688MOL0     H92839   8.768  10.068   1.685  0.8206 -0.1666 -2.1324
  688MOL0     H92840   8.368  10.241   1.750 -0.3034 -1.9117 -1.2983
  688MOL0     H92841   8.266  10.378   1.936  0.8674 -0.0429  0.0570
  688MOL0     H92842   8.160  10.242   1.903  2.7474 -3.7371 -2.4799
  688MOL0     H92843   8.225  10.286   2.075  2.7210  0.6985  0.1826
  688MOL0     H92844   8.085   9.888   2.331 -0.0739 -0.6595 -0.6400
  688MOL0     H92845   8.031   9.811   2.561  1.2398 -3.8206 -0.2405
  688MOL0     H92846   8.187  10.031   2.828  2.9144 -1.9556 -3.1802
  688MOL0     H92847   8.035   9.962   2.814 -1.0099 -0.8404  2.7885
  688MOL0     H92848   8.150   9.797   3.013  1.9510 -1.1362  0.6138
  688MOL0     H92849   8.251   9.936   3.018 -1.5318  2.5062  0.8069
  688MOL0     H92850   7.961   9.965   3.019  0.5838 -1.3295  0.0178
  688MOL0     H92851   8.073  10.091   3.060  2.8231  0.2715 -2.0211
  688MOL0     H92852   8.039   9.858   3.245  1.4239  0.0247  2.5194
  688MOL0     H92853   8.162   9.979   3.272  1.0581 -3.5925  0.0293
  688MOL0     H92854   7.860  10.035   3.263  0.4438  1.7230 -1.4816
  688MOL0     H92855   7.974  10.162   3.259  0.0286  1.8205  3.7394
  688MOL0     H92856   7.991   9.965   3.494 -0.4300 -0.4566  0.4089
  688MOL0     H92857   8.075  10.122   3.463  0.4948 -0.5534 -1.7112
  688MOL0     H92858   7.838  10.223   3.454  0.7546  2.3349  4.2199
  688MOL0     H92859   7.904  10.188   3.607 -0.2256  2.7629 -1.7594
  688MOL0     H92860   7.736   9.982   3.458  1.1540 -1.8323  1.2381
  688MOL0     H92861   7.671  10.111   3.564 -0.9185 -1.5287  0.9444
  688MOL0     H92862   8.426   9.880   2.692  0.6816 -2.8675 -0.3366
  688MOL0     H92863   8.503   9.932   2.440 -0.6628  2.3261 -0.9074
  688MOL0     H92864   8.514   9.917   2.080 -1.7486  0.8774  2.1360
  688MOL0     H92865   8.624   9.924   1.868 -2.3484 -1.6561 -0.5063
  688MOL0     H92866   7.909   9.286   2.046 -1.7991  0.9601  2.6575
  688MOL0     H92867   7.864   9.041   1.988 -0.8305  0.0942 -0.7469
  688MOL0     H92868   7.741   8.664   2.086  0.9527  0.2939 -1.8834
  688MOL0     H92869   7.587   8.453   2.122 -5.4116 -0.0417  0.8738
  688MOL0     H92870   7.279   8.381   1.826 -0.9446  2.3297  0.4534
  688MOL0     H92871   7.265   8.244   1.935  2.7480  0.2118 -0.4859
  688MOL0     H92872   7.070   8.420   1.961  0.8752  1.9973 -1.4039
  688MOL0     H92873   7.187   8.534   2.003  0.6777 -0.1213  0.3404
  688MOL0     H92874   7.246   8.410   2.205 -0.4563 -0.3269  0.1352
  688MOL0     H92875   7.159   8.259   2.155 -1.3774 -0.8722  2.3146
  688MOL0     H92876   7.027   8.345   2.314  1.4037 -2.9800 -2.2370
  688MOL0     H92877   6.944   8.378   2.164  1.1007 -1.0005  0.0706
  688MOL0     H92878   7.071   8.770   2.266  2.4274  0.3198  1.1736
  688MOL0     H92879   7.379   8.561   1.771  0.3012  0.5349 -0.4300
  688MOL0     H92880   7.490   8.759   1.756 -0.1697  2.5271  2.7043
  689MOL0     O92881   4.951   0.766   3.887  0.1999 -0.1787 -0.8544
  689MOL0     C92882   5.069   0.733   3.871 -1.4641  0.1259 -0.6482
  689MOL0     O92883   5.180   0.796   3.925 -0.7814 -0.5503 -0.7400
  689MOL0     C92884   5.155   0.907   3.996  0.9284  0.1288  0.4599
  689MOL0     C92885   5.170   0.898   4.133  0.1787  0.2256 -0.3226
  689MOL0     C92886   5.169   1.019   4.211 -0.0011  1.4160  0.8459
  689MOL0     C92887   5.153   1.144   4.153 -0.0045  0.5925  0.2208
  689MOL0     O92888   5.158   1.247   4.235  0.3997 -0.4888  0.4669
  689MOL0     C92889   5.200   1.382   4.201 -0.1861  0.4534 -0.3980
  689MOL0     C92890   5.136   1.487   4.302 -1.1721  0.5103 -0.1220
  689MOL0     C92891   4.982   1.484   4.313 -0.5835 -0.1993  0.0407
  689MOL0     C92892   4.917   1.597   4.389 -0.4419  0.6503  0.1752
  689MOL0     C92893   4.783   1.538   4.440 -0.5236 -0.0013  0.3995
  689MOL0     C92894   4.708   1.636   4.523  0.0584 -0.5560  0.2828
  689MOL0     C92895   4.776   1.657   4.665  0.3442 -0.0594 -0.0779
  689MOL0     C92896   4.736   1.547   4.762  0.1945 -0.3161 -0.9756
  689MOL0     N92897   4.800   1.559   4.895 -0.2952  0.2285  0.3673
  689MOL0     C92898   4.812   1.679   4.969  0.6351  0.4054 -0.0944
  689MOL0     C92899   4.822   1.633   5.094  0.3958  0.8172  0.2642
  689MOL0     C92900   4.845   1.714   5.220 -0.4755 -0.1905 -0.3147
  689MOL0     C92901   4.713   1.767   5.269  0.4008  0.3271 -0.2249
  689MOL0     C92902   4.723   1.849   5.397 -0.3280  0.4056  0.4614
  689MOL0     C92903   4.596   1.926   5.449 -0.3081  0.7077 -1.1974
  689MOL0     O92904   4.637   1.953   5.580 -0.4389 -0.6032  0.3391
  689MOL0     C92905   4.539   1.989   5.667  0.5994 -1.1733 -0.6610
  689MOL0     C92906   4.532   1.941   5.800 -0.1839  0.4280 -0.0303
  689MOL0     C92907   4.426   1.973   5.887  0.4164 -0.4799 -0.4967
  689MOL0     C92908   4.447   1.926   6.031 -0.0464 -0.6141 -0.8363
  689MOL0     C92909   4.311   2.051   5.841 -0.2944  0.1008 -1.0383
  689MOL0     C92910   4.189   2.083   5.918 -0.4966 -0.1542 -0.2529
  689MOL0     O92911   4.103   2.175   5.864 -0.4417  0.0368  0.1831
  689MOL0     C92912   3.990   2.228   5.926 -0.2292 -0.0542  1.0233
  689MOL0     C92913   3.940   2.341   5.864 -0.4811 -1.5783  0.6435
  689MOL0     C92914   3.823   2.403   5.913  0.3262 -0.9800 -0.1974
  689MOL0     C92915   3.741   2.339   6.019 -0.6756  0.5842 -0.8679
  689MOL0     O92916   3.628   2.398   6.072 -0.3349  0.6442  0.1397
  689MOL0     C92917   3.579   2.516   6.003  0.2643  0.4116 -0.6437
  689MOL0     C92918   3.453   2.559   6.066  0.5925 -0.6611  0.2589
  689MOL0     C92919   3.418   2.709   6.077 -0.1576  0.5046 -0.3480
  689MOL0     C92920   3.267   2.739   6.116  0.1508  0.2206  0.0821
  689MOL0     C92921   3.235   2.883   6.132 -0.1026 -0.7357  0.3804
  689MOL0     C92922   3.103   2.910   6.191  0.6199  0.5775  1.1327
  689MOL0     C92923   3.101   3.037   6.272  0.6738 -0.1664  0.3696
  689MOL0     C92924   3.114   3.165   6.190  0.5842 -0.5044 -0.4249
  689MOL0    Cl92925   2.973   3.209   6.090  0.2574  0.2974 -0.0251
  689MOL0     C92926   3.786   2.214   6.070 -0.0564 -0.3215  0.5868
  689MOL0     C92927   3.909   2.155   6.023 -0.5734  1.1182  1.3997
  689MOL0     O92928   4.163   2.014   6.017  0.2836 -0.0007  0.5156
  689MOL0     C92929   4.318   2.100   5.707 -0.6788  0.2158  0.1242
  689MOL0     C92930   4.432   2.077   5.627  0.0273  0.4143 -0.3999
  689MOL0     N92931   4.836   1.493   5.091 -0.1488  0.3718  0.6404
  689MOL0     N92932   4.808   1.447   4.968 -0.7147 -0.7565 -0.7489
  689MOL0     C92933   5.132   1.151   4.017  0.0409 -0.6360 -0.6341
  689MOL0     C92934   5.136   1.033   3.936 -0.2948 -0.9238  0.0496
  689MOL0     C92935   5.100   0.592   3.833  0.5715 -0.2497  0.7430
  689MOL0     C92936   5.008   0.526   3.754  0.9491 -0.3607 -0.4624
  689MOL0     C92937   5.028   0.398   3.714  1.6815 -0.3684  0.2046
  689MOL0     C92938   5.155   0.333   3.728  0.5696  0.8723  1.1422
  689MOL0     O92939   5.162   0.230   3.642 -0.7674  0.6579 -0.4893
  689MOL0     C92940   5.286   0.161   3.607  0.5128  0.0202  0.3962
  689MOL0     C92941   5.380   0.241   3.514  0.8126 -0.8488 -0.2132
  689MOL0     C92942   5.513   0.174   3.479 -0.5539  0.6279  0.6133
  689MOL0     C92943   5.633   0.252   3.530  1.0363  1.0212  0.0451
  689MOL0     C92944   5.751   0.164   3.484  0.0165  0.4394 -0.9842
  689MOL0     C92945   5.850   0.108   3.445  0.1592  0.3507  0.7828
  689MOL0     C92946   5.247   0.398   3.810 -0.4171 -1.2659  0.1324
  689MOL0     C92947   5.215   0.527   3.864  0.6488  0.0035 -0.5590
  689MOL0     H92948   5.188   0.795   4.163  1.8309 -0.0644 -2.1128
  689MOL0     H92949   5.163   1.015   4.320 -0.1643  1.0076  0.8235
  689MOL0     H92950   5.309   1.386   4.211 -0.3452  0.6014  1.7942
  689MOL0     H92951   5.172   1.415   4.101 -2.9652  1.2728  0.5636
  689MOL0     H92952   5.181   1.473   4.401  4.0648  0.5935 -2.1629
  689MOL0     H92953   5.162   1.590   4.278 -0.0970  0.1876 -0.4017
  689MOL0     H92954   4.939   1.489   4.213 -0.0244 -1.1298 -0.2560
  689MOL0     H92955   4.960   1.390   4.365  0.2883 -1.4969 -1.8554
  689MOL0     H92956   4.976   1.619   4.478 -0.7953 -0.9127  0.8341
  689MOL0     H92957   4.912   1.692   4.337  1.8192  1.2269  0.8940
  689MOL0     H92958   4.727   1.492   4.357  2.7024 -4.4050  0.2776
  689MOL0     H92959   4.807   1.445   4.494  0.4527  0.0640  0.0930
  689MOL0     H92960   4.702   1.728   4.464  1.3284  0.0664  1.0667
  689MOL0     H92961   4.609   1.595   4.542 -0.3553 -1.2438 -2.8098
  689MOL0     H92962   4.885   1.664   4.660  0.2039  1.7749 -1.6367
  689MOL0     H92963   4.726   1.746   4.704 -0.1108  0.1822 -1.1797
  689MOL0     H92964   4.770   1.449   4.727 -1.1081 -1.7440  1.4772
  689MOL0     H92965   4.628   1.535   4.777  0.3595 -0.0403  0.5574
  689MOL0     H92966   4.815   1.780   4.928  2.4106  0.7354  0.7838
  689MOL0     H92967   4.882   1.648   5.299 -0.9793 -2.0927 -1.6040
  689MOL0     H92968   4.907   1.801   5.195 -0.5959 -1.0462 -4.2126
  689MOL0     H92969   4.640   1.688   5.290 -1.0890  1.8726  0.6730
  689MOL0     H92970   4.665   1.823   5.189 -3.3600 -2.2275 -0.0052
  689MOL0     H92971   4.795   1.931   5.386  1.8566 -1.3302  0.9842
  689MOL0     H92972   4.765   1.788   5.477 -1.6113  1.2694  1.8496
  689MOL0     H92973   4.523   1.845   5.439  1.6878 -1.5113  0.7397
  689MOL0     H92974   4.574   2.019   5.396  2.0662  0.2219 -3.2004
  689MOL0     H92975   4.607   1.881   5.849 -1.2085 -1.9747 -1.2674
  689MOL0     H92976   4.554   1.917   6.055 -0.2888  0.8843  1.0899
  689MOL0     H92977   4.403   2.004   6.094 -0.9214  0.6433 -2.8868
  689MOL0     H92978   4.404   1.828   6.052  1.5388 -0.9342  1.2306
  689MOL0     H92979   3.997   2.375   5.778 -4.3454 -0.7944 -1.8827
  689MOL0     H92980   3.783   2.492   5.865 -0.2621 -2.0368 -1.7426
  689MOL0     H92981   3.649   2.600   5.993 -1.1237  1.6201 -0.6486
  689MOL0     H92982   3.560   2.494   5.898 -1.9967  0.8222 -0.3806
  689MOL0     H92983   3.372   2.519   6.003  1.7434 -0.8475 -1.1533
  689MOL0     H92984   3.462   2.515   6.166  2.1583  0.0169  0.4368
  689MOL0     H92985   3.436   2.752   5.978 -2.9369 -0.7535 -1.5168
  689MOL0     H92986   3.484   2.742   6.158  0.3738 -0.3194 -0.4387
  689MOL0     H92987   3.216   2.712   6.023  2.4295  0.7764 -1.3935
  689MOL0     H92988   3.233   2.680   6.203  1.0314 -0.8067 -0.2472
  689MOL0     H92989   3.247   2.943   6.040  2.0366  1.2358  1.8221
  689MOL0     H92990   3.296   2.931   6.209 -3.6857 -1.0167  3.6985
  689MOL0     H92991   3.035   2.907   6.105  2.4222  1.2515 -0.3941
  689MOL0     H92992   3.079   2.827   6.258 -1.5641  0.6310  0.4942
  689MOL0     H92993   3.172   3.034   6.355  0.7161 -2.3276  0.3061
  689MOL0     H92994   3.008   3.044   6.331  1.6204 -2.0320  2.2135
  689MOL0     H92995   3.199   3.159   6.121  2.3423  3.6323  1.0634
  689MOL0     H92996   3.114   3.253   6.254 -3.1512  1.5610 -2.8916
  689MOL0     H92997   3.724   2.174   6.150 -1.8242  3.2015  1.1651
  689MOL0     H92998   3.939   2.053   6.044 -1.3774 -0.9146 -5.0490
  689MOL0     H92999   4.234   2.155   5.667 -1.9774 -1.6239  0.1870
  689MOL0     H93000   4.438   2.134   5.535  0.3604  2.3117  0.7262
  689MOL0     H93001   5.113   1.250   3.978 -0.6269 -0.1792  0.7874
  689MOL0     H93002   5.119   1.031   3.829  1.2396 -3.8196 -0.2329
  689MOL0     H93003   4.916   0.579   3.727  1.9393  0.2924 -2.7920
  689MOL0     H93004   4.935   0.358   3.673 -0.9419  5.4896 -0.6997
  689MOL0     H93005   5.338   0.135   3.700 -2.1604 -0.2014  1.9052
  689MOL0     H93006   5.273   0.071   3.547  0.7240  1.1870 -1.4841
  689MOL0     H93007   5.408   0.341   3.549  0.6021  0.0505 -2.4155
  689MOL0     H93008   5.309   0.250   3.431 -0.6724 -2.0703  0.8921
  689MOL0     H93009   5.516   0.171   3.369 -0.2539 -2.8882  0.6127
  689MOL0     H93010   5.512   0.076   3.528  1.8093 -0.2541 -0.9225
  689MOL0     H93011   5.633   0.263   3.639  1.9879 -0.9747  0.2807
  689MOL0     H93012   5.632   0.349   3.480 -3.8852 -0.5994 -3.8171
  689MOL0     H93013   5.946   0.069   3.419 -0.9072 -3.0673  1.3750
  689MOL0     H93014   5.344   0.351   3.820 -0.4169 -1.2112  0.4019
  689MOL0     H93015   5.279   0.569   3.940  1.8175 -2.8920  0.1746
  690MOL0     O93016   7.030   2.975   1.109  0.5929 -0.0016 -0.2304
  690MOL0     C93017   6.981   2.973   0.993 -0.5631  0.2857  0.9366
  690MOL0     O93018   6.929   2.863   0.922  0.2654  0.0387 -0.4077
  690MOL0     C93019   6.902   2.738   0.967  0.4585  0.3800 -1.5218
  690MOL0     C93020   6.857   2.723   1.100 -0.3347  0.2471  1.4605
  690MOL0     C93021   6.832   2.594   1.148  0.0330  0.5642  0.7509
  690MOL0     C93022   6.859   2.479   1.068  0.6229 -0.0404 -0.3052
  690MOL0     O93023   6.827   2.365   1.128 -0.0021 -0.3853  0.8135
  690MOL0     C93024   6.891   2.249   1.076  0.1626 -0.1416  0.3841
  690MOL0     C93025   6.851   2.122   1.166 -0.9987 -0.4895  0.8395
  690MOL0     C93026   6.912   1.988   1.110  0.0935  0.0745 -0.6555
  690MOL0     C93027   6.906   1.877   1.208 -0.4100 -0.4650 -0.4972
  690MOL0     C93028   6.769   1.809   1.210 -0.5264 -0.2650  0.2320
  690MOL0     C93029   6.770   1.663   1.271  0.1391 -0.9758  0.3797
  690MOL0     C93030   6.636   1.637   1.336  0.4775  0.9637  1.1693
  690MOL0     C93031   6.645   1.503   1.416 -0.0043  0.0333 -0.7539
  690MOL0     N93032   6.520   1.459   1.467  0.5808  0.2859  0.0433
  690MOL0     C93033   6.442   1.544   1.538  0.5135 -0.9102  0.8220
  690MOL0     C93034   6.315   1.511   1.536 -0.2543  0.6518  0.5711
  690MOL0     C93035   6.202   1.579   1.609 -0.4127 -0.2936 -0.3563
  690MOL0     C93036   6.102   1.610   1.500 -0.4490  0.3878  0.2786
  690MOL0     C93037   5.990   1.698   1.547 -0.9535 -0.1360  0.3182
  690MOL0     C93038   5.861   1.619   1.557  0.8610 -0.6946  0.0311
  690MOL0     O93039   5.863   1.507   1.641 -0.4666  0.1663 -0.5671
  690MOL0     C93040   5.760   1.495   1.729  0.2976  0.4382  0.0999
  690MOL0     C93041   5.739   1.578   1.836  0.3731 -0.3953 -0.0524
  690MOL0     C93042   5.641   1.555   1.939 -0.0093 -0.2620  0.2597
  690MOL0     C93043   5.633   1.649   2.057 -0.4221  0.1888  0.8560
  690MOL0     C93044   5.560   1.439   1.932  0.4455  0.1099  0.1608
  690MOL0     C93045   5.442   1.415   2.017 -0.0321 -0.4716 -0.4789
  690MOL0     O93046   5.416   1.481   2.135  0.1333  0.1578 -0.0591
  690MOL0     C93047   5.305   1.452   2.211  0.3866 -0.1765  0.1607
  690MOL0     C93048   5.285   1.325   2.259  0.8193 -0.7795  0.0972
  690MOL0     C93049   5.169   1.295   2.335 -0.3399  0.0002  0.5675
  690MOL0     C93050   5.077   1.400   2.364  0.3771  1.0431 -0.1934
  690MOL0     O93051   4.959   1.383   2.426 -0.4043 -0.3463  0.7288
  690MOL0     C93052   4.980   1.334   2.560  0.1855 -0.2711 -0.0278
  690MOL0     C93053   4.873   1.232   2.603  0.4850  0.1386 -0.7766
  690MOL0     C93054   4.925   1.170   2.731 -0.7636  0.1691 -0.5125
  690MOL0     C93055   4.838   1.060   2.794 -0.2521  0.2454  0.1848
  690MOL0     C93056   4.861   1.042   2.947  0.3114  0.6009  0.5322
  690MOL0     C93057   4.763   0.954   3.018  0.4211 -0.4137  0.0958
  690MOL0     C93058   4.802   0.933   3.164  0.6249 -0.1815 -0.7759
  690MOL0     C93059   4.722   0.829   3.232  1.8903  0.8542  0.2351
  690MOL0    Cl93060   4.544   0.857   3.231  0.1650  0.3753  0.1357
  690MOL0     C93061   5.107   1.526   2.309  0.9993  0.1387 -0.6320
  690MOL0     C93062   5.218   1.553   2.239 -0.3345  0.1117 -0.1684
  690MOL0     O93063   5.364   1.325   1.972  0.8136 -0.1164  0.4452
  690MOL0     C93064   5.581   1.352   1.819 -0.2641  0.3137 -0.6633
  690MOL0     C93065   5.682   1.380   1.722  0.0915 -0.9095  0.2558
  690MOL0     N93066   6.314   1.397   1.459  0.6777 -0.0397 -0.2715
  690MOL0     N93067   6.431   1.377   1.401  0.2317  0.0966 -0.3696
  690MOL0     C93068   6.897   2.498   0.934 -0.7452  0.2372  0.4382
  690MOL0     C93069   6.913   2.627   0.890 -0.5699 -0.6427 -0.0287
  690MOL0     C93070   7.001   3.103   0.922  0.1369 -0.7031  0.6503
  690MOL0     C93071   7.072   3.208   0.976  0.4191  0.6812  0.0205
  690MOL0     C93072   7.098   3.310   0.892  0.1638  0.2287  0.6805
  690MOL0     C93073   7.026   3.331   0.772 -0.6530 -0.1870 -0.2094
  690MOL0     O93074   7.058   3.445   0.706 -0.0107 -0.2984  0.0361
  690MOL0     C93075   6.985   3.492   0.605 -0.4547 -0.3160  0.2669
  690MOL0     C93076   6.853   3.563   0.653  0.0570  1.3468 -0.3297
  690MOL0     C93077   6.820   3.682   0.554  0.3046 -0.5978 -0.4103
  690MOL0     C93078   6.677   3.741   0.576 -1.1487  0.1175 -0.9112
  690MOL0     C93079   6.662   3.756   0.715  0.0118  0.2294 -0.0654
  690MOL0     C93080   6.681   3.760   0.834  0.6185  0.1721  0.0719
  690MOL0     C93081   6.948   3.224   0.721  0.2103  0.1711  0.5545
  690MOL0     C93082   6.939   3.107   0.795  0.5958  0.4372  0.0928
  690MOL0     H93083   6.855   2.807   1.169  1.1514 -0.0486  1.8888
  690MOL0     H93084   6.795   2.575   1.248 -0.3857  0.5196  0.5876
  690MOL0     H93085   6.860   2.227   0.974  1.6707  0.0306 -0.1307
  690MOL0     H93086   6.999   2.260   1.090  0.4370  0.6362 -1.9220
  690MOL0     H93087   6.892   2.143   1.265 -3.7779  3.8033  1.3632
  690MOL0     H93088   6.743   2.109   1.177 -0.8957 -0.4009  2.0507
  690MOL0     H93089   6.858   1.961   1.019 -1.6317 -1.6483  0.7612
  690MOL0     H93090   7.017   2.004   1.086 -0.1639 -1.4107 -3.0802
  690MOL0     H93091   6.988   1.816   1.168 -1.3072 -0.7275 -1.9960
  690MOL0     H93092   6.926   1.912   1.309 -1.4222  0.7872 -0.7102
  690MOL0     H93093   6.692   1.866   1.262 -0.3804 -0.4885  0.7007
  690MOL0     H93094   6.728   1.812   1.109 -0.2488 -0.9726  0.0915
  690MOL0     H93095   6.798   1.592   1.191  0.7336  0.1900 -0.4777
  690MOL0     H93096   6.846   1.647   1.348 -0.4151 -0.4749  1.0390
  690MOL0     H93097   6.619   1.723   1.402  0.1911  1.9985 -0.2162
  690MOL0     H93098   6.555   1.632   1.263  1.9686  1.3753 -0.5851
  690MOL0     H93099   6.710   1.518   1.502 -0.1964 -1.6383 -0.2920
  690MOL0     H93100   6.691   1.419   1.363  0.7173 -0.7200  0.9763
  690MOL0     H93101   6.487   1.619   1.601  0.6604 -0.0974 -0.2242
  690MOL0     H93102   6.161   1.510   1.683  2.4633  0.6026  2.3289
  690MOL0     H93103   6.233   1.666   1.669 -0.2612 -1.6425  1.6264
  690MOL0     H93104   6.058   1.519   1.458 -0.3794  0.3935  0.1944
  690MOL0     H93105   6.155   1.663   1.421 -0.4357  0.7915  0.5567
  690MOL0     H93106   5.971   1.780   1.477 -1.4665 -1.7119 -1.4521
  690MOL0     H93107   6.019   1.742   1.644  0.6321 -2.4506  0.9768
  690MOL0     H93108   5.831   1.592   1.455 -2.1638  3.1778 -0.3167
  690MOL0     H93109   5.781   1.685   1.590  0.2054 -1.3501 -0.1973
  690MOL0     H93110   5.802   1.665   1.848  3.8113 -2.9325  2.1502
  690MOL0     H93111   5.538   1.700   2.037  0.6564  1.4671 -1.4610
  690MOL0     H93112   5.624   1.603   2.156  0.1663 -1.1916  0.2896
  690MOL0     H93113   5.709   1.725   2.074 -0.4832  0.9026 -1.6436
  690MOL0     H93114   5.356   1.244   2.250 -0.0903 -2.6795  5.6810
  690MOL0     H93115   5.155   1.197   2.381  0.8992  0.0160  1.0375
  690MOL0     H93116   5.076   1.283   2.574 -0.2060 -1.0711 -0.2070
  690MOL0     H93117   4.992   1.420   2.627  0.6541 -0.3456 -0.0116
  690MOL0     H93118   4.778   1.284   2.620  0.2179  0.0166 -1.8034
  690MOL0     H93119   4.840   1.155   2.533 -0.3054  0.0855 -0.3517
  690MOL0     H93120   4.944   1.242   2.811  3.1629 -1.4193  0.1849
  690MOL0     H93121   5.014   1.112   2.705 -2.7942 -3.3484 -0.4134
  690MOL0     H93122   4.732   1.081   2.780 -0.5939  0.6883  2.9339
  690MOL0     H93123   4.871   0.967   2.746  1.4114  0.8556  0.0707
  690MOL0     H93124   4.856   1.141   2.993 -3.0625  1.2273 -0.8936
  690MOL0     H93125   4.959   0.994   2.960  0.5223  0.6455 -0.7600
  690MOL0     H93126   4.662   0.997   3.010 -0.4147 -2.4525 -1.1467
  690MOL0     H93127   4.756   0.854   2.975 -2.1095  0.3188 -1.4806
  690MOL0     H93128   4.790   1.024   3.224  0.1973 -2.9377  3.7850
  690MOL0     H93129   4.907   0.906   3.156  1.2420  2.2934 -1.9750
  690MOL0     H93130   4.751   0.807   3.336 -0.2487 -0.6979  0.5757
  690MOL0     H93131   4.735   0.735   3.177 -2.7953  0.6949 -1.0061
  690MOL0     H93132   5.045   1.612   2.331  0.1830 -0.2747 -1.2396
  690MOL0     H93133   5.232   1.657   2.213 -4.9959  1.2012  0.7431
  690MOL0     H93134   5.518   1.266   1.798 -0.9668  0.6222  0.1148
  690MOL0     H93135   5.711   1.311   1.644 -3.9133 -0.5547 -1.8162
  690MOL0     H93136   6.910   2.408   0.874  0.8065  0.5186  0.3225
  690MOL0     H93137   6.941   2.630   0.785  0.8934  1.5586  0.3756
  690MOL0     H93138   7.111   3.200   1.077  0.1024  2.2641  0.2965
  690MOL0     H93139   7.166   3.390   0.918 -0.2819  1.1697 -0.9247
  690MOL0     H93140   7.036   3.567   0.544  1.8111 -0.3729  1.9530
  690MOL0     H93141   6.976   3.411   0.533  0.6883  1.1926 -1.6880
  690MOL0     H93142   6.866   3.608   0.751  1.9578 -2.4143  1.3641
  690MOL0     H93143   6.779   3.482   0.656  1.4829 -0.0246  3.7611
  690MOL0     H93144   6.829   3.659   0.447  0.5033  3.7572 -1.5276
  690MOL0     H93145   6.897   3.758   0.567 -0.2051  0.3114 -2.3425
  690MOL0     H93146   6.607   3.668   0.533 -0.7447 -1.2480  0.6600
  690MOL0     H93147   6.668   3.843   0.537  0.0724  0.9725  0.9287
  690MOL0     H93148   6.683   3.762   0.941 -3.8130 -3.0930  0.5114
  690MOL0     H93149   6.916   3.239   0.618  4.6273  1.4004 -0.8362
  690MOL0     H93150   6.880   3.030   0.745 -0.6758 -1.3426  3.9347
  691MOL0     O93151   1.278   2.032   6.096  0.4407  0.3899 -0.4235
  691MOL0     C93152   1.233   1.932   6.143  1.0181  0.1479 -0.2404
  691MOL0     O93153   1.221   1.908   6.278 -0.1523  0.6268  0.2665
  691MOL0     C93154   1.312   1.979   6.363  0.1250  0.0984  0.3963
  691MOL0     C93155   1.411   1.906   6.435  0.7920 -0.2893  1.0340
  691MOL0     C93156   1.489   1.973   6.528 -0.3367  0.2137  0.2323
  691MOL0     C93157   1.487   2.113   6.554 -0.1374  0.3903  0.4533
  691MOL0     O93158   1.574   2.185   6.632 -0.0096  0.9075  0.3114
  691MOL0     C93159   1.690   2.108   6.688  0.4667 -0.1756  0.3380
  691MOL0     C93160   1.796   2.202   6.743  0.3137  0.5122 -0.3707
  691MOL0     C93161   1.880   2.270   6.635  0.8157  0.4096 -0.4564
  691MOL0     C93162   1.959   2.385   6.698 -1.2311  0.7988 -0.2289
  691MOL0     C93163   1.873   2.512   6.734 -0.7408  0.9675  0.2363
  691MOL0     C93164   1.962   2.623   6.789 -0.8376 -0.0666 -0.4812
  691MOL0     C93165   1.876   2.736   6.844  0.0137 -0.0927 -0.6115
  691MOL0     C93166   1.772   2.693   6.953  0.4701  0.0576  0.2339
  691MOL0     N93167   1.830   2.614   7.063  0.7724  0.2485 -0.5390
  691MOL0     C93168   1.860   2.477   7.058  0.3149  0.2745  0.0660
  691MOL0     C93169   1.927   2.455   7.176  0.0447 -0.5953  0.0937
  691MOL0     C93170   1.956   2.328   7.248 -0.2564  0.1331  0.4975
  691MOL0     C93171   1.842   2.282   7.329  0.5206  0.4225  0.3362
  691MOL0     C93172   1.830   2.365   7.455 -0.3271  0.2753  0.0103
  691MOL0     C93173   1.733   2.315   7.555 -0.0727 -0.0680  0.0657
  691MOL0     O93174   1.770   2.176   7.566 -0.6215 -0.1563 -1.6073
  691MOL0     C93175   1.703   2.091   7.655 -0.3135  0.1514 -0.8759
  691MOL0     C93176   1.741   1.956   7.672 -0.4636  0.7292 -0.5595
  691MOL0     C93177   1.695   1.881   7.784 -0.4929 -0.1379 -0.6503
  691MOL0     C93178   1.755   1.750   7.809  0.1354 -0.1065 -0.2965
  691MOL0     C93179   1.588   1.929   7.866 -0.2949  0.5127 -0.2533
  691MOL0     C93180   1.527   1.847   7.986  0.5517 -0.6400  0.5489
  691MOL0     O93181   1.438   1.914   8.065 -0.6361  0.2848 -0.9830
  691MOL0     C93182   1.380   1.852   8.170 -1.4632  1.0768 -0.0098
  691MOL0     C93183   1.270   1.760   8.158 -0.6961  0.7057 -0.9191
  691MOL0     C93184   1.231   1.686   8.266 -0.0086 -0.9332 -0.6004
  691MOL0     C93185   1.302   1.693   8.391  0.4089 -0.3844 -0.0857
  691MOL0     O93186   1.273   1.600   8.488 -0.0020  0.3349 -0.3624
  691MOL0     C93187   1.254   1.640   8.621 -0.8169 -0.1514 -0.0133
  691MOL0     C93188   1.108   1.644   8.661  0.4793  0.3595  0.4523
  691MOL0     C93189   1.019   1.727   8.572 -0.3661 -0.2696 -0.4348
  691MOL0     C93190   1.020   1.872   8.607 -0.0034  0.4697  0.0030
  691MOL0     C93191   1.133   1.957   8.536  0.7284  1.0638  0.0354
  691MOL0     C93192   1.141   2.093   8.591  1.3105 -0.4444  0.6259
  691MOL0     C93193   1.261   2.163   8.538  0.7929  0.4815  0.2218
  691MOL0     C93194   1.284   2.293   8.620  0.4611 -0.3870 -0.0545
  691MOL0    Cl93195   1.356   2.408   8.509 -0.0502 -0.6218  0.0790
  691MOL0     C93196   1.414   1.780   8.404  0.1164 -0.1231  0.1587
  691MOL0     C93197   1.446   1.866   8.292 -0.2722  0.4575  0.4585
  691MOL0     O93198   1.566   1.732   8.005 -0.7027  0.1616 -0.3191
  691MOL0     C93199   1.534   2.059   7.847 -0.3247 -0.5842 -0.5714
  691MOL0     C93200   1.606   2.132   7.744  0.3665  0.7329 -0.6599
  691MOL0     N93201   1.955   2.570   7.239  0.4039 -0.1222  0.6884
  691MOL0     N93202   1.889   2.668   7.177  0.0869  0.7982 -0.3372
  691MOL0     C93203   1.392   2.182   6.478  0.6630  0.8169 -0.2628
  691MOL0     C93204   1.304   2.117   6.398  0.3047  0.3230 -0.7549
  691MOL0     C93205   1.170   1.816   6.070 -0.7925 -0.2369 -0.1722
  691MOL0     C93206   1.123   1.699   6.132  0.2514 -0.9131 -0.5390
  691MOL0     C93207   1.084   1.593   6.055  0.1531 -0.2356 -0.2605
  691MOL0     C93208   1.061   1.606   5.918  0.4044  0.3306 -1.0515
  691MOL0     O93209   1.017   1.488   5.853  0.6723  0.4126 -0.7457
  691MOL0     C93210   0.981   1.498   5.707  0.0660 -0.0513 -0.0539
  691MOL0     C93211   0.899   1.379   5.666  0.0058  0.1852  0.0427
  691MOL0     C93212   0.851   1.373   5.521 -0.5776 -0.6198  0.2594
  691MOL0     C93213   0.966   1.385   5.427 -1.2609 -0.0705  0.5519
  691MOL0     C93214   1.073   1.293   5.440 -0.6562 -0.2833  0.3949
  691MOL0     C93215   1.166   1.218   5.430  0.4109  0.4036  0.8930
  691MOL0     C93216   1.097   1.726   5.855  0.2707 -0.2378  0.5648
  691MOL0     C93217   1.149   1.832   5.931 -1.0514 -0.3292  0.6746
  691MOL0     H93218   1.413   1.800   6.414  4.1712  0.1467 -1.7768
  691MOL0     H93219   1.554   1.904   6.581 -2.4353 -1.6395  0.5552
  691MOL0     H93220   1.657   2.039   6.767  0.1751 -3.1126 -2.1775
  691MOL0     H93221   1.729   2.044   6.608 -1.2509 -2.0028  0.8625
  691MOL0     H93222   1.740   2.271   6.807  1.1358  1.7327 -0.9077
  691MOL0     H93223   1.872   2.162   6.810 -1.0491  0.5551  1.2683
  691MOL0     H93224   1.943   2.194   6.588 -0.0839 -1.8856  1.8081
  691MOL0     H93225   1.804   2.308   6.566  1.0037  0.2905 -0.7323
  691MOL0     H93226   2.013   2.349   6.786 -0.5005 -0.7699 -1.2706
  691MOL0     H93227   2.044   2.402   6.630 -1.4188  1.2537 -0.3488
  691MOL0     H93228   1.826   2.554   6.645 -5.0141 -0.0114  1.7616
  691MOL0     H93229   1.797   2.482   6.807  0.8472  0.6857  1.8473
  691MOL0     H93230   2.022   2.593   6.875  1.3821  2.2972 -1.0953
  691MOL0     H93231   2.036   2.666   6.721  2.7676  0.9326  3.6204
  691MOL0     H93232   1.929   2.818   6.893 -2.8620  1.8742 -0.5420
  691MOL0     H93233   1.817   2.771   6.759 -0.9559  2.7646  1.1067
  691MOL0     H93234   1.689   2.639   6.906  1.6786 -0.8484 -0.9517
  691MOL0     H93235   1.732   2.787   6.994  2.2834  0.4283  1.2458
  691MOL0     H93236   1.839   2.411   6.974 -2.7120 -0.2174  1.0778
  691MOL0     H93237   1.979   2.252   7.173 -0.0616 -0.3279  1.0088
  691MOL0     H93238   2.043   2.351   7.310  0.6935  3.0112 -1.7208
  691MOL0     H93239   1.855   2.174   7.343  1.4648  0.6361  1.2547
  691MOL0     H93240   1.754   2.296   7.267  0.3866  0.2376  0.4837
  691MOL0     H93241   1.799   2.466   7.426 -4.0158 -0.3067  1.3203
  691MOL0     H93242   1.925   2.376   7.508  0.7984  5.4136 -2.4298
  691MOL0     H93243   1.634   2.317   7.507 -0.2391 -4.7868 -0.2752
  691MOL0     H93244   1.734   2.381   7.642  0.6337  0.7027 -0.5200
  691MOL0     H93245   1.812   1.905   7.608 -1.0432 -1.7398  0.6148
  691MOL0     H93246   1.783   1.743   7.915 -0.6847 -1.9367 -0.1682
  691MOL0     H93247   1.682   1.672   7.786  0.7203 -1.8827  3.1881
  691MOL0     H93248   1.837   1.726   7.742 -2.9080 -5.1947 -2.7999
  691MOL0     H93249   1.232   1.752   8.056  4.9035 -0.0945 -3.3544
  691MOL0     H93250   1.145   1.621   8.260 -1.3616  0.0584  4.0160
  691MOL0     H93251   1.301   1.563   8.682  0.1481 -0.3153 -0.9197
  691MOL0     H93252   1.305   1.735   8.641 -0.3405 -0.1837 -1.0055
  691MOL0     H93253   1.079   1.539   8.671  0.4867  0.4016  0.9117
  691MOL0     H93254   1.102   1.688   8.761  1.8160 -0.6438  0.9980
  691MOL0     H93255   0.916   1.694   8.589  0.4245 -3.5463 -1.2047
  691MOL0     H93256   1.024   1.697   8.467 -1.7412 -0.8397 -0.3621
  691MOL0     H93257   0.917   1.899   8.584 -0.3918 -1.4696 -0.7104
  691MOL0     H93258   1.028   1.884   8.715  2.5102 -1.9630  0.1899
  691MOL0     H93259   1.101   1.967   8.432 -0.7160  2.8146  0.5834
  691MOL0     H93260   1.231   1.908   8.534 -0.4011 -1.3199  0.3349
  691MOL0     H93261   1.051   2.141   8.553 -0.8468 -4.0493  0.6344
  691MOL0     H93262   1.147   2.096   8.701  0.6568  2.3070  0.6454
  691MOL0     H93263   1.236   2.193   8.435 -0.0593 -0.8011  0.0383
  691MOL0     H93264   1.354   2.106   8.533 -0.8356 -2.3135 -0.7542
  691MOL0     H93265   1.345   2.289   8.711  1.0585  1.7933 -0.2962
  691MOL0     H93266   1.189   2.335   8.657  1.5537  1.0205  1.3216
  691MOL0     H93267   1.474   1.787   8.494 -1.8928 -1.8581  1.7241
  691MOL0     H93268   1.523   1.941   8.302  0.1771 -0.2982  3.7179
  691MOL0     H93269   1.469   2.099   7.925 -0.5469 -0.9529 -0.5624
  691MOL0     H93270   1.580   2.238   7.743  1.0332  0.9010 -0.5274
  691MOL0     H93271   1.375   2.283   6.512 -2.0112  1.0318 -1.9525
  691MOL0     H93272   1.220   2.175   6.359  1.6004  1.1000 -2.5617
  691MOL0     H93273   1.145   1.699   6.238  0.6879  0.9006 -0.6050
  691MOL0     H93274   1.074   1.495   6.098 -1.9592 -1.1810 -2.6199
  691MOL0     H93275   0.923   1.588   5.685  1.2942  0.3169 -1.9672
  691MOL0     H93276   1.070   1.510   5.645 -0.6496  2.2840 -0.7408
  691MOL0     H93277   0.810   1.365   5.728 -0.9511 -2.9305 -1.8107
  691MOL0     H93278   0.967   1.298   5.694  1.3280  0.8333 -1.1178
  691MOL0     H93279   0.780   1.455   5.504 -0.1714 -0.5967 -1.4959
  691MOL0     H93280   0.804   1.275   5.515 -2.9115  0.2768  2.2768
  691MOL0     H93281   1.026   1.471   5.459  2.7088 -2.4080  0.1110
  691MOL0     H93282   0.931   1.394   5.324  0.3634  2.4394  0.1402
  691MOL0     H93283   1.253   1.158   5.416  0.7105  1.3758 -2.2338
  691MOL0     H93284   1.071   1.757   5.754 -0.3775 -2.4295 -0.0009
  691MOL0     H93285   1.178   1.922   5.878 -0.1590  0.4619  2.4057
  692MOL0     O93286   7.097   5.435   1.800  0.0484 -0.2498  0.4890
  692MOL0     C93287   7.083   5.562   1.788  1.2604  0.2095 -0.9449
  692MOL0     O93288   7.172   5.655   1.746 -0.0847  0.5860 -0.5917
  692MOL0     C93289   7.297   5.618   1.721  0.5469  0.3312 -0.9666
  692MOL0     C93290   7.375   5.550   1.806  0.0587  0.4596 -0.2857
  692MOL0     C93291   7.500   5.495   1.756 -0.5909 -0.1546  0.4051
  692MOL0     C93292   7.543   5.523   1.624  0.2074  0.8661  0.1231
  692MOL0     O93293   7.653   5.463   1.563 -1.1629 -0.6898 -1.0477
  692MOL0     C93294   7.725   5.372   1.650  0.6354 -1.1999 -0.0685
  692MOL0     C93295   7.862   5.350   1.594  0.1425  0.4909 -0.1771
  692MOL0     C93296   7.933   5.221   1.655 -0.4413  0.5434  0.3251
  692MOL0     C93297   8.090   5.202   1.599  0.8200  0.0472 -0.7787
  692MOL0     C93298   8.146   5.067   1.630 -1.2977  0.7176  0.1572
  692MOL0     C93299   8.277   5.048   1.545 -0.2625  0.0593  0.9866
  692MOL0     C93300   8.343   4.913   1.580  1.3344  0.9287 -0.7115
  692MOL0     C93301   8.481   4.899   1.528 -0.2398 -0.9467 -0.2702
  692MOL0     N93302   8.545   4.776   1.564 -0.0483  0.5986  0.5800
  692MOL0     C93303   8.496   4.653   1.525  0.1505  0.0725 -0.0977
  692MOL0     C93304   8.576   4.560   1.574  0.0477  0.3029  0.1914
  692MOL0     C93305   8.563   4.413   1.563 -0.9889  1.0968  0.1276
  692MOL0     C93306   8.436   4.353   1.600  0.2423  0.2553 -0.4831
  692MOL0     C93307   8.417   4.210   1.554  0.7384  0.3062  0.4390
  692MOL0     C93308   8.296   4.122   1.594  1.1444 -0.4338 -0.4581
  692MOL0     O93309   8.179   4.203   1.626  0.2218  0.1490  0.3165
  692MOL0     C93310   8.087   4.226   1.524  0.3184  0.2006 -0.4260
  692MOL0     C93311   8.101   4.193   1.385 -0.9537  0.0698 -0.2258
  692MOL0     C93312   7.998   4.225   1.293  0.4903 -0.5654  0.1338
  692MOL0     C93313   8.014   4.176   1.153  0.0608 -1.1860 -0.7435
  692MOL0     C93314   7.878   4.287   1.330 -0.1887  0.4312 -0.5107
  692MOL0     C93315   7.770   4.326   1.243 -0.1118 -0.2134  0.2621
  692MOL0     O93316   7.665   4.373   1.312  0.1147  0.3704 -0.0929
  692MOL0     C93317   7.540   4.365   1.257 -0.4385  0.7288 -0.5848
  692MOL0     C93318   7.457   4.253   1.281 -0.1479 -0.6544 -1.1353
  692MOL0     C93319   7.325   4.255   1.230 -0.7653  0.1165 -0.1945
  692MOL0     C93320   7.274   4.361   1.157  0.2036 -0.0856 -0.4545
  692MOL0     O93321   7.151   4.375   1.098  0.5435 -0.2701 -0.0506
  692MOL0     C93322   7.069   4.258   1.094 -0.6854  0.0827 -0.1248
  692MOL0     C93323   7.001   4.225   1.225  0.9675 -0.5132 -0.2298
  692MOL0     C93324   6.889   4.118   1.209  0.0773 -0.7303 -0.8528
  692MOL0     C93325   6.938   3.995   1.137 -0.5550 -0.7250  1.0634
  692MOL0     C93326   6.850   3.873   1.149  0.6021  0.1745 -0.3185
  692MOL0     C93327   6.905   3.738   1.089 -0.3569 -0.4619  0.4387
  692MOL0     C93328   6.815   3.616   1.122  1.0408  0.4945 -1.2061
  692MOL0     C93329   6.899   3.483   1.125  0.4996  0.5358  0.0334
  692MOL0    Cl93330   6.818   3.345   1.193  0.5348 -0.0314 -0.4738
  692MOL0     C93331   7.361   4.466   1.133 -0.2741  0.0387  0.9889
  692MOL0     C93332   7.490   4.464   1.183 -0.5218 -0.2697 -0.0293
  692MOL0     O93333   7.770   4.322   1.122  0.2010  0.6327  1.1973
  692MOL0     C93334   7.867   4.324   1.476  1.0381 -0.0370 -0.2023
  692MOL0     C93335   7.968   4.284   1.567 -0.6340 -0.4779 -0.4993
  692MOL0     N93336   8.683   4.633   1.645 -0.2923  0.1046 -0.0399
  692MOL0     N93337   8.657   4.756   1.637  0.2180  0.3134  0.1893
  692MOL0     C93338   7.458   5.590   1.540  0.5506  1.1391 -0.6499
  692MOL0     C93339   7.338   5.639   1.589 -0.4559  0.4970  0.6504
  692MOL0     C93340   6.959   5.620   1.846  0.5692 -0.5944 -0.2712
  692MOL0     C93341   6.877   5.561   1.941  1.0485 -0.9899  0.5455
  692MOL0     C93342   6.752   5.611   1.970 -0.8497  0.0288 -0.2631
  692MOL0     C93343   6.712   5.735   1.930 -0.6344 -0.3196  0.3460
  692MOL0     O93344   6.591   5.764   1.969  0.4491  0.0297 -1.0547
  692MOL0     C93345   6.562   5.902   1.996  0.2554 -1.3555 -1.2576
  692MOL0     C93346   6.409   5.922   2.021 -0.4480 -0.1857  0.5028
  692MOL0     C93347   6.345   5.865   2.144 -1.2006 -0.3230  0.2874
  692MOL0     C93348   6.196   5.868   2.133  0.0121 -0.0708 -0.4163
  692MOL0     C93349   6.145   5.737   2.090  0.0967  0.1752 -0.1809
  692MOL0     C93350   6.092   5.631   2.072 -1.0029 -0.2228  0.1378
  692MOL0     C93351   6.811   5.808   1.860  0.4673  0.6572 -0.9103
  692MOL0     C93352   6.931   5.754   1.814 -0.0565 -0.2058 -0.3120
  692MOL0     H93353   7.353   5.526   1.909  1.3821 -0.6026 -0.2317
  692MOL0     H93354   7.560   5.444   1.830  2.8222  2.0780 -0.5646
  692MOL0     H93355   7.732   5.392   1.757  0.9960 -1.5077 -0.0341
  692MOL0     H93356   7.676   5.275   1.641  0.1680 -1.1447  1.5603
  692MOL0     H93357   7.867   5.341   1.485 -0.8743  2.8686 -0.5019
  692MOL0     H93358   7.919   5.440   1.621  0.8032  0.6541 -2.0197
  692MOL0     H93359   7.936   5.236   1.764 -1.6619 -1.2480  0.6449
  692MOL0     H93360   7.888   5.126   1.626  1.0944  0.3875 -1.7579
  692MOL0     H93361   8.082   5.215   1.491 -0.6518  0.1880 -0.6804
  692MOL0     H93362   8.156   5.281   1.634 -1.4169  2.1244 -0.9725
  692MOL0     H93363   8.166   5.058   1.737 -0.6141  1.2688  0.0883
  692MOL0     H93364   8.072   4.991   1.604 -2.9584  1.9481  1.0613
  692MOL0     H93365   8.253   5.043   1.439  3.6844  0.8723 -0.0797
  692MOL0     H93366   8.344   5.130   1.569 -0.9648  0.5169  1.4226
  692MOL0     H93367   8.352   4.891   1.687  2.0232 -5.8321 -1.7184
  692MOL0     H93368   8.279   4.839   1.532  2.4093 -0.7451  0.3465
  692MOL0     H93369   8.534   4.980   1.580 -2.0499  0.5227 -0.5869
  692MOL0     H93370   8.477   4.914   1.420  2.1287 -1.0121 -0.4139
  692MOL0     H93371   8.409   4.636   1.463  0.6742 -0.4722 -0.6934
  692MOL0     H93372   8.585   4.398   1.456  0.7650 -0.7312  0.6872
  692MOL0     H93373   8.638   4.375   1.633 -0.5429  0.2405 -0.7810
  692MOL0     H93374   8.358   4.418   1.559 -0.9662  0.9824  2.6071
  692MOL0     H93375   8.434   4.365   1.709  0.9187  0.3444 -0.4805
  692MOL0     H93376   8.504   4.157   1.595  0.9940 -2.3706 -3.0825
  692MOL0     H93377   8.427   4.204   1.445  0.2481  2.5347  0.2288
  692MOL0     H93378   8.317   4.075   1.691  1.2451  1.7011  0.6102
  692MOL0     H93379   8.276   4.047   1.517 -1.4346  1.5996 -1.9148
  692MOL0     H93380   8.187   4.142   1.345  0.7371  2.0142  0.7292
  692MOL0     H93381   8.110   4.127   1.139 -0.3304 -2.1634 -0.0864
  692MOL0     H93382   7.934   4.103   1.142 -2.4614  1.0008  1.5234
  692MOL0     H93383   7.990   4.261   1.088 -1.6810 -1.2198 -0.1828
  692MOL0     H93384   7.499   4.166   1.331  3.9047  1.7112  0.0661
  692MOL0     H93385   7.259   4.171   1.254 -1.6203  1.2082  1.4490
  692MOL0     H93386   7.010   4.273   1.003 -3.0700  0.8922  1.4882
  692MOL0     H93387   7.134   4.170   1.089  1.4864  1.6352 -1.5018
  692MOL0     H93388   7.072   4.192   1.302  0.2609  1.8265  1.5322
  692MOL0     H93389   6.948   4.311   1.267  1.0002  0.1426 -1.4922
  692MOL0     H93390   6.798   4.164   1.168 -1.7223 -2.5824  0.8195
  692MOL0     H93391   6.864   4.097   1.314 -1.7132 -0.6585 -1.2274
  692MOL0     H93392   6.932   3.997   1.028  0.0627 -2.7362  0.9506
  692MOL0     H93393   7.040   3.970   1.168  0.2208  1.2423  0.2857
  692MOL0     H93394   6.751   3.904   1.114  1.3668  3.5031  0.1426
  692MOL0     H93395   6.848   3.849   1.256 -0.9421  1.5728  0.0068
  692MOL0     H93396   6.923   3.746   0.981 -2.5626  1.3740  0.1231
  692MOL0     H93397   6.999   3.727   1.143 -0.3991  2.5922  1.3406
  692MOL0     H93398   6.731   3.600   1.054 -1.8901 -0.6362  2.3449
  692MOL0     H93399   6.775   3.624   1.224 -1.3420 -4.8540 -1.3766
  692MOL0     H93400   6.990   3.492   1.185  2.8162 -2.8022 -2.5747
  692MOL0     H93401   6.937   3.466   1.024  2.3782 -1.0495  0.9391
  692MOL0     H93402   7.336   4.550   1.069  3.7162 -0.9607 -2.2555
  692MOL0     H93403   7.565   4.540   1.162 -1.4936 -0.1333 -3.6517
  692MOL0     H93404   7.780   4.375   1.516  0.0563 -2.5108  1.0669
  692MOL0     H93405   7.979   4.331   1.665 -0.0115 -0.5680 -0.5206
  692MOL0     H93406   7.502   5.598   1.441  2.0223  2.8064  0.0802
  692MOL0     H93407   7.268   5.697   1.530 -0.4621 -2.1832 -2.2466
  692MOL0     H93408   6.918   5.468   1.979 -0.7853 -2.6352 -1.2673
  692MOL0     H93409   6.689   5.563   2.043  1.9299  1.6473  3.5223
  692MOL0     H93410   6.626   5.935   2.079  2.1822 -0.1797 -3.0971
  692MOL0     H93411   6.599   5.967   1.915 -0.9879 -1.3393 -1.8345
  692MOL0     H93412   6.364   5.859   1.944 -0.9554  1.5911 -0.7321
  692MOL0     H93413   6.376   6.025   2.005 -1.9551 -0.9365 -1.7250
  692MOL0     H93414   6.362   5.939   2.223 -0.4737 -0.3020  0.1206
  692MOL0     H93415   6.392   5.766   2.154  1.5355  0.0123 -5.1623
  692MOL0     H93416   6.154   5.943   2.066  0.4290  0.5565  0.0050
  692MOL0     H93417   6.160   5.892   2.234 -1.3901  0.2313 -0.9636
  692MOL0     H93418   6.031   5.542   2.074  1.6873 -2.4141 -3.1532
  692MOL0     H93419   6.795   5.914   1.848 -3.7924  0.4070  0.8564
  692MOL0     H93420   6.998   5.816   1.756  1.3224 -1.4266 -0.0862
  693MOL0     O93421   0.100   3.100  11.321 -0.2195  0.6282 -0.1120
  693MOL0     C93422   0.007   3.041  11.383  0.0737 -0.0012  0.9284
  693MOL0     O93423  -0.115   3.004  11.339 -0.3006 -0.5579  0.3747
  693MOL0     C93424  -0.137   2.995  11.200  0.2393  0.0225 -0.6202
  693MOL0     C93425  -0.036   2.945  11.115  0.3181  0.5282  0.5053
  693MOL0     C93426  -0.054   2.949  10.979 -0.7861 -0.4239 -0.0116
  693MOL0     C93427  -0.167   2.997  10.923  0.2266  1.2022  1.0883
  693MOL0     O93428  -0.171   3.025  10.787  0.5913 -0.5793 -0.6585
  693MOL0     C93429  -0.156   2.919  10.690 -0.3935 -0.3890  0.0233
  693MOL0     C93430  -0.200   2.966  10.552 -0.0198  0.6429  0.4879
  693MOL0     C93431  -0.155   3.109  10.504 -0.0450  0.4601 -0.1835
  693MOL0     C93432  -0.008   3.117  10.476 -0.6745  1.1531 -0.0756
  693MOL0     C93433   0.021   3.273  10.485 -0.1371 -0.2423 -0.5450
  693MOL0     C93434  -0.003   3.343  10.361  0.3071 -0.5624 -0.5691
  693MOL0     C93435   0.093   3.323  10.241 -0.6229  0.0022 -0.0090
  693MOL0     C93436   0.222   3.415  10.254  0.2321 -0.4661 -0.5958
  693MOL0     N93437   0.208   3.557  10.219  0.3546  0.1153 -0.6009
  693MOL0     C93438   0.215   3.599  10.092 -0.0308 -0.3803  0.5376
  693MOL0     C93439   0.158   3.726  10.099 -0.3578  0.7923  0.6178
  693MOL0     C93440   0.121   3.811   9.986 -0.1846 -0.2372  1.1368
  693MOL0     C93441  -0.022   3.792   9.936  1.1788 -0.5007 -0.5875
  693MOL0     C93442  -0.040   3.667   9.842  0.4151 -0.4936 -0.3289
  693MOL0     C93443  -0.156   3.680   9.743  0.0619  0.9024 -0.1887
  693MOL0     O93444  -0.146   3.560   9.668  0.1199  0.9671 -0.5978
  693MOL0     C93445  -0.259   3.498   9.622 -0.1018  0.3694  0.2083
  693MOL0     C93446  -0.254   3.357   9.605 -0.4318 -0.2699  0.1539
  693MOL0     C93447  -0.360   3.302   9.534 -0.5503  0.3657  0.2089
  693MOL0     C93448  -0.347   3.151   9.521  0.2961 -0.5221  0.1264
  693MOL0     C93449  -0.472   3.373   9.492 -0.8119 -0.6528 -0.0178
  693MOL0     C93450  -0.585   3.307   9.425 -0.0934  0.5392  0.0447
  693MOL0     O93451  -0.649   3.387   9.326 -0.5676  0.5187 -0.5702
  693MOL0     C93452  -0.708   3.303   9.235 -0.0743  0.5647  0.4791
  693MOL0     C93453  -0.847   3.280   9.233 -0.7926  0.7836  0.0924
  693MOL0     C93454  -0.901   3.204   9.126 -0.0107 -0.4730  0.3763
  693MOL0     C93455  -0.823   3.158   9.018 -0.0370 -0.2580  1.2662
  693MOL0     O93456  -0.863   3.085   8.907 -0.4881  0.5117  0.3065
  693MOL0     C93457  -0.999   3.085   8.864  0.3875  0.8579  0.0225
  693MOL0     C93458  -1.040   3.215   8.813 -0.5192  0.2688  0.4661
  693MOL0     C93459  -1.181   3.202   8.749  0.6682  0.2006 -0.0543
  693MOL0     C93460  -1.211   3.335   8.671 -0.4109  0.4702  0.1544
  693MOL0     C93461  -1.353   3.346   8.617 -0.3896  0.4137 -0.2133
  693MOL0     C93462  -1.376   3.483   8.552 -0.0450  0.0412  0.4936
  693MOL0     C93463  -1.518   3.506   8.517  0.1763  0.1691  0.4189
  693MOL0     C93464  -1.539   3.641   8.454 -0.6606  0.6341  0.2030
  693MOL0    Cl93465  -1.461   3.659   8.302 -0.9101  0.1974  0.0496
  693MOL0     C93466  -0.687   3.171   9.039 -0.1383  1.0154  0.4024
  693MOL0     C93467  -0.624   3.240   9.141 -0.4201 -1.1802  0.8743
  693MOL0     O93468  -0.619   3.192   9.448  0.3864  0.1943 -0.1527
  693MOL0     C93469  -0.479   3.510   9.526  0.5962 -0.2656 -0.2767
  693MOL0     C93470  -0.371   3.571   9.583  0.0434 -0.2382 -1.0700
  693MOL0     N93471   0.121   3.748  10.225  0.4046 -0.5563 -0.7208
  693MOL0     N93472   0.147   3.648  10.303  0.0398 -0.1817 -0.4735
  693MOL0     C93473  -0.268   3.052  11.001 -0.6496 -0.4197  0.6160
  693MOL0     C93474  -0.254   3.051  11.142 -0.3946  0.5347  0.4507
  693MOL0     C93475   0.019   3.009  11.525 -0.5249 -0.3647 -0.5114
  693MOL0     C93476   0.139   3.058  11.590  0.2594 -0.1343  0.0372
  693MOL0     C93477   0.158   3.038  11.728 -0.3643 -0.0384 -0.8225
  693MOL0     C93478   0.048   2.976  11.799 -0.2408 -0.4882 -0.2668
  693MOL0     O93479   0.042   2.959  11.934 -0.2067  0.1442 -0.1796
  693MOL0     C93480   0.067   3.074  12.009 -0.1341 -0.2518 -0.1383
  693MOL0     C93481  -0.030   3.192  11.992 -0.2133  0.6334 -0.1936
  693MOL0     C93482  -0.013   3.311  12.094  0.0423 -0.7051  0.0298
  693MOL0     C93483   0.108   3.395  12.080  0.1490 -0.1670 -0.7808
  693MOL0     C93484   0.117   3.496  12.183  0.9269  0.5971 -0.0555
  693MOL0     C93485   0.139   3.585  12.266  0.0455 -0.6391  0.8445
  693MOL0     C93486  -0.062   2.921  11.730  0.5605  0.0662 -0.2595
  693MOL0     C93487  -0.080   2.937  11.598  0.4392  0.5943  0.5561
  693MOL0     H93488   0.061   2.904  11.143 -0.5354 -0.5063  2.0668
  693MOL0     H93489   0.022   2.911  10.912 -0.2022 -0.9326  0.9123
  693MOL0     H93490  -0.055   2.880  10.681  1.0410  1.3652  5.2771
  693MOL0     H93491  -0.209   2.830  10.725 -0.9043  0.2466  0.9406
  693MOL0     H93492  -0.166   2.904  10.468 -0.1505  0.5249  0.5212
  693MOL0     H93493  -0.308   2.951  10.549 -0.1252  1.4610 -1.0448
  693MOL0     H93494  -0.209   3.140  10.415 -3.8247 -4.2094  0.0771
  693MOL0     H93495  -0.182   3.184  10.579  1.5690  1.0710 -0.1642
  693MOL0     H93496   0.050   3.069  10.555  2.5506  2.7992 -1.2554
  693MOL0     H93497   0.028   3.064  10.387  0.7345  0.2527  0.9911
  693MOL0     H93498  -0.036   3.333  10.556  1.8793  0.7272  0.3472
  693MOL0     H93499   0.124   3.300  10.513  0.7016  0.8799 -4.1846
  693MOL0     H93500  -0.104   3.318  10.327 -1.1558  2.0071  1.5249
  693MOL0     H93501  -0.021   3.450  10.378 -1.8090 -0.8757 -0.5386
  693MOL0     H93502   0.128   3.222  10.221  0.8669  0.6469 -0.8127
  693MOL0     H93503   0.040   3.355  10.151 -0.0571  0.5939 -0.1346
  693MOL0     H93504   0.303   3.377  10.191 -0.2132  0.5587 -1.8153
  693MOL0     H93505   0.250   3.401  10.359 -0.2835 -1.0863 -0.5330
  693MOL0     H93506   0.241   3.545  10.002  4.4117 -0.9755  1.9056
  693MOL0     H93507   0.151   3.913  10.009  1.3342 -0.1985 -0.7159
  693MOL0     H93508   0.184   3.783   9.900 -2.3211 -1.1643 -0.2128
  693MOL0     H93509  -0.051   3.882   9.881 -0.5231 -1.0424 -0.6407
  693MOL0     H93510  -0.092   3.793  10.021  0.5026  1.0092 -1.1313
  693MOL0     H93511  -0.059   3.587   9.913  2.8415 -1.0743 -0.2800
  693MOL0     H93512   0.047   3.646   9.780 -0.4799 -0.1687 -1.7577
  693MOL0     H93513  -0.141   3.770   9.683 -0.7993  0.7383 -0.6669
  693MOL0     H93514  -0.252   3.694   9.793 -0.2513 -0.7044 -0.2842
  693MOL0     H93515  -0.175   3.287   9.627 -0.5758 -1.1046 -1.8078
  693MOL0     H93516  -0.244   3.115   9.527  0.3233 -0.8980 -1.8188
  693MOL0     H93517  -0.388   3.095   9.606 -1.1395 -1.1500 -0.9267
  693MOL0     H93518  -0.385   3.107   9.428  4.3675 -2.1171 -0.9981
  693MOL0     H93519  -0.909   3.320   9.312  0.3919  1.6439  0.5971
  693MOL0     H93520  -1.008   3.183   9.123 -1.6013  5.8533 -2.2247
  693MOL0     H93521  -1.018   3.020   8.778 -0.5362  1.9961 -0.6444
  693MOL0     H93522  -1.064   3.033   8.935  1.3568 -1.8944 -0.9350
  693MOL0     H93523  -1.035   3.298   8.884  0.2183  1.2453 -0.6786
  693MOL0     H93524  -0.969   3.244   8.736  0.1473  2.6835  1.8787
  693MOL0     H93525  -1.258   3.178   8.823  0.0692 -1.7813 -1.2608
  693MOL0     H93526  -1.191   3.122   8.676 -0.0922  0.6856 -0.4912
  693MOL0     H93527  -1.181   3.425   8.726  2.5517  1.5027 -2.8139
  693MOL0     H93528  -1.138   3.338   8.590  0.6837  3.7368  1.1118
  693MOL0     H93529  -1.427   3.327   8.695 -0.5111 -0.5876 -0.5572
  693MOL0     H93530  -1.374   3.267   8.544 -1.2305 -0.2616  0.7284
  693MOL0     H93531  -1.347   3.560   8.624  2.4101 -0.4463  0.1224
  693MOL0     H93532  -1.310   3.496   8.465 -0.5060  0.6655  0.2232
  693MOL0     H93533  -1.559   3.502   8.618  3.2957 -0.7743  1.7752
  693MOL0     H93534  -1.559   3.420   8.463  1.1093 -1.4761  2.1865
  693MOL0     H93535  -1.503   3.722   8.519 -0.3661  0.7739 -0.1277
  693MOL0     H93536  -1.647   3.653   8.439 -0.7392  1.8668  1.5873
  693MOL0     H93537  -0.626   3.114   8.968  0.4313  1.0288  0.8748
  693MOL0     H93538  -0.516   3.240   9.147 -0.2391 -0.3955 -1.3728
  693MOL0     H93539  -0.564   3.573   9.502 -0.0866  0.1773  2.9032
  693MOL0     H93540  -0.382   3.675   9.609 -1.0700  0.1231 -2.8076
  693MOL0     H93541  -0.348   3.113  10.962 -0.9770 -1.6854 -0.7729
  693MOL0     H93542  -0.317   3.110  11.208  0.6109  0.1743  1.7444
  693MOL0     H93543   0.222   3.109  11.541  0.1107  1.3803  1.3073
  693MOL0     H93544   0.242   3.083  11.781 -0.6587  0.2416 -0.5946
  693MOL0     H93545   0.051   3.046  12.114 -1.3943  4.1347  1.0686
  693MOL0     H93546   0.172   3.106  12.003 -0.1405  0.2447  1.7160
  693MOL0     H93547  -0.124   3.138  12.009 -0.1381 -0.1165 -1.9701
  693MOL0     H93548  -0.053   3.222  11.889  0.2215 -3.3607 -1.6012
  693MOL0     H93549  -0.017   3.271  12.195  0.4578 -1.5603 -0.2846
  693MOL0     H93550  -0.093   3.384  12.077  3.0131  2.5725 -1.0232
  693MOL0     H93551   0.090   3.456  11.991  0.7824  0.3603 -0.5593
  693MOL0     H93552   0.205   3.344  12.073  1.9230  2.4027  2.2968
  693MOL0     H93553   0.183   3.665  12.321  1.4872 -2.0453  1.8128
  693MOL0     H93554  -0.123   2.860  11.795  2.0801 -3.1708 -1.6367
  693MOL0     H93555  -0.170   2.913  11.543 -0.0308 -0.0269  1.5775
  694MOL0     O93556   6.842   4.117   2.376  0.0685  0.3132  0.7986
  694MOL0     C93557   6.930   4.202   2.353 -0.3181 -0.0196 -0.7872
  694MOL0     O93558   7.043   4.186   2.279  0.2473 -0.5006 -0.0143
  694MOL0     C93559   7.052   4.068   2.208 -0.4138 -0.8639  1.3106
  694MOL0     C93560   7.032   3.947   2.270 -0.1356 -0.7938  0.6086
  694MOL0     C93561   7.053   3.826   2.202  1.4245  1.1357 -0.4043
  694MOL0     C93562   7.096   3.835   2.059  0.4532 -0.3184  0.8427
  694MOL0     O93563   7.119   3.710   2.004 -0.4420  0.1975 -0.6274
  694MOL0     C93564   7.168   3.699   1.865 -0.2485  0.7050 -0.0017
  694MOL0     C93565   7.054   3.664   1.773 -0.3700  0.8032  0.5149
  694MOL0     C93566   6.940   3.763   1.793 -0.0373 -0.6849  0.0298
  694MOL0     C93567   6.868   3.780   1.659 -0.7605  0.2732  0.1998
  694MOL0     C93568   6.764   3.888   1.671 -0.3892  0.4457 -0.2160
  694MOL0     C93569   6.695   3.917   1.534  0.8368 -0.4823 -0.2934
  694MOL0     C93570   6.604   3.816   1.478 -0.4995 -0.6733  0.5256
  694MOL0     C93571   6.515   3.741   1.579  0.8588  1.4293 -0.3525
  694MOL0     N93572   6.403   3.805   1.628 -0.6483 -0.2960 -0.1246
  694MOL0     C93573   6.281   3.751   1.608 -0.5262 -0.8889 -0.4253
  694MOL0     C93574   6.206   3.835   1.673  0.0467 -0.8640 -0.5280
  694MOL0     C93575   6.058   3.815   1.713 -0.4286 -0.8181  0.5042
  694MOL0     C93576   6.040   3.811   1.868  0.4455 -1.0218  0.4068
  694MOL0     C93577   5.932   3.706   1.908 -0.2148 -0.1844 -0.6837
  694MOL0     C93578   5.902   3.716   2.063 -0.3876 -0.1260  0.4406
  694MOL0     O93579   6.017   3.681   2.139 -0.2904  0.5265  0.3808
  694MOL0     C93580   6.022   3.702   2.273  0.3693  0.1595  0.1830
  694MOL0     C93581   6.135   3.648   2.336  1.1768  1.1692 -1.4149
  694MOL0     C93582   6.144   3.641   2.483  0.5670  0.4922  0.4570
  694MOL0     C93583   6.264   3.575   2.550  0.3369  0.1572 -0.2923
  694MOL0     C93584   6.052   3.724   2.557  0.5622 -0.0857 -0.4965
  694MOL0     C93585   6.076   3.755   2.701  0.1521  0.2620  0.1678
  694MOL0     O93586   5.957   3.774   2.768  0.5437  0.0831 -0.1344
  694MOL0     C93587   5.949   3.818   2.897 -0.7531  0.3101  0.0135
  694MOL0     C93588   5.993   3.946   2.936 -0.5791 -0.1875  0.2896
  694MOL0     C93589   5.973   3.987   3.064 -0.5151  1.1933 -0.7289
  694MOL0     C93590   5.916   3.894   3.159 -0.3477 -0.8737  0.6453
  694MOL0     O93591   5.911   3.924   3.294 -0.1154 -0.1567  0.2636
  694MOL0     C93592   5.953   4.059   3.340  0.9277 -0.4116 -0.0635
  694MOL0     C93593   5.938   4.082   3.496 -0.6943  0.1898 -0.4742
  694MOL0     C93594   5.963   4.220   3.548 -1.2733  0.0342 -0.3947
  694MOL0     C93595   6.120   4.258   3.560  0.1310 -0.2279 -0.3013
  694MOL0     C93596   6.137   4.416   3.582 -0.4800 -0.3235 -0.0163
  694MOL0     C93597   6.280   4.463   3.575  0.0265  0.1091  0.1554
  694MOL0     C93598   6.386   4.403   3.673  0.1272 -0.2435 -0.0342
  694MOL0     C93599   6.508   4.496   3.695  0.4011 -0.5296  0.6102
  694MOL0    Cl93600   6.589   4.436   3.839  0.3447 -0.2316  0.2289
  694MOL0     C93601   5.890   3.764   3.128  0.3475  0.8442  0.2352
  694MOL0     C93602   5.909   3.722   2.990  0.2436 -0.0598 -0.2492
  694MOL0     O93603   6.186   3.770   2.752  0.1287 -0.4215 -0.6100
  694MOL0     C93604   5.951   3.794   2.486  0.0225 -0.3175 -0.0495
  694MOL0     C93605   5.936   3.777   2.345  0.3680  0.0022  0.1180
  694MOL0     N93606   6.281   3.948   1.715 -0.0293 -0.5070  0.0459
  694MOL0     N93607   6.404   3.925   1.701 -0.2296  0.2515  0.0963
  694MOL0     C93608   7.135   3.958   2.007 -0.5508  1.3528 -0.3830
  694MOL0     C93609   7.111   4.068   2.087 -0.7169  0.4681 -0.0437
  694MOL0     C93610   6.894   4.339   2.399  0.9586  0.0494 -0.3913
  694MOL0     C93611   6.983   4.415   2.468  0.2162  1.1197 -0.8739
  694MOL0     C93612   6.951   4.540   2.515 -0.4923  0.0285  0.0880
  694MOL0     C93613   6.824   4.602   2.498  0.4530  0.6333  0.1318
  694MOL0     O93614   6.777   4.722   2.548  0.5556 -0.2626 -0.8869
  694MOL0     C93615   6.879   4.800   2.622  0.3668  0.1347  0.5893
  694MOL0     C93616   6.818   4.936   2.631  0.4700 -0.2894 -0.7544
  694MOL0     C93617   6.825   4.980   2.779  0.9592 -0.6646  0.9208
  694MOL0     C93618   6.726   5.100   2.815  0.5500 -0.1719  0.9003
  694MOL0     C93619   6.746   5.161   2.944 -0.3904  0.3569  0.1415
  694MOL0     C93620   6.753   5.203   3.058 -0.4725  0.3212 -0.8960
  694MOL0     C93621   6.732   4.518   2.423 -0.0301 -0.5919 -0.0936
  694MOL0     C93622   6.766   4.400   2.368 -0.5457  0.6381  0.0297
  694MOL0     H93623   6.994   3.937   2.372  2.1323 -1.5574  1.4292
  694MOL0     H93624   7.026   3.739   2.261  0.1836  0.7108 -1.5254
  694MOL0     H93625   7.219   3.786   1.823  1.8515 -1.7946 -3.1479
  694MOL0     H93626   7.237   3.615   1.850 -3.6345 -2.0388 -2.1200
  694MOL0     H93627   7.093   3.666   1.671  1.4240 -4.0558  0.8332
  694MOL0     H93628   7.013   3.564   1.790  0.7206  0.0482 -1.0835
  694MOL0     H93629   6.866   3.731   1.866 -2.4473  2.7236 -0.6290
  694MOL0     H93630   6.980   3.859   1.828  0.0671 -0.8587  0.3883
  694MOL0     H93631   6.941   3.814   1.585 -0.4399  2.6800  1.4985
  694MOL0     H93632   6.817   3.690   1.626 -3.1075  1.6428 -0.1445
  694MOL0     H93633   6.687   3.865   1.745 -1.1287 -2.2083 -1.6466
  694MOL0     H93634   6.817   3.972   1.717  1.9323 -3.2714  4.8913
  694MOL0     H93635   6.625   3.998   1.559  0.4842 -0.4167 -1.4223
  694MOL0     H93636   6.766   3.947   1.457  1.9061  1.1102  1.2239
  694MOL0     H93637   6.550   3.860   1.394  2.9737  1.3007 -0.8824
  694MOL0     H93638   6.661   3.738   1.427 -2.6502 -1.5491 -0.6578
  694MOL0     H93639   6.561   3.702   1.670  0.2352  1.1067 -0.1716
  694MOL0     H93640   6.491   3.643   1.537  0.0109  0.1876  2.7541
  694MOL0     H93641   6.242   3.657   1.571 -0.3056 -0.6205 -1.3790
  694MOL0     H93642   5.989   3.884   1.662 -0.8490 -0.9714  0.8578
  694MOL0     H93643   6.028   3.715   1.680 -0.3030 -1.0597  1.1103
  694MOL0     H93644   6.017   3.911   1.906 -0.1031 -0.9269 -0.1569
  694MOL0     H93645   6.133   3.786   1.920 -0.2553 -2.3371  1.0893
  694MOL0     H93646   5.968   3.605   1.889 -0.8169 -0.9254  1.7139
  694MOL0     H93647   5.845   3.723   1.843  2.3424  2.0485 -3.8904
  694MOL0     H93648   5.827   3.639   2.078 -0.8075  0.4553  1.3727
  694MOL0     H93649   5.868   3.819   2.079 -1.0308 -0.0057 -1.4520
  694MOL0     H93650   6.207   3.593   2.277  2.3385  0.1224  0.8641
  694MOL0     H93651   6.339   3.654   2.562  1.2006 -0.6386 -0.3490
  694MOL0     H93652   6.240   3.531   2.648  2.6512  0.5007  0.4924
  694MOL0     H93653   6.297   3.495   2.483 -3.6655 -3.4733  1.5795
  694MOL0     H93654   6.022   4.015   2.857  1.2941  0.2099  1.2657
  694MOL0     H93655   5.999   4.088   3.094  2.2775  1.8937 -4.8168
  694MOL0     H93656   6.058   4.071   3.311  0.8484  0.0639 -0.1676
  694MOL0     H93657   5.889   4.127   3.283 -2.7875 -2.9449  0.7650
  694MOL0     H93658   5.848   4.043   3.544 -0.7021  1.7530  0.8876
  694MOL0     H93659   6.015   4.027   3.551 -2.7389  0.5977  3.1184
  694MOL0     H93660   5.910   4.229   3.643 -0.3978  0.6361  0.0384
  694MOL0     H93661   5.918   4.286   3.473 -2.9803  1.3345  1.6557
  694MOL0     H93662   6.170   4.210   3.645 -1.5504  0.1021  0.9312
  694MOL0     H93663   6.170   4.245   3.464  1.4482  2.4051 -0.0575
  694MOL0     H93664   6.097   4.436   3.682  1.1100  0.1353  0.5493
  694MOL0     H93665   6.082   4.476   3.508 -0.4837 -2.2088 -1.6086
  694MOL0     H93666   6.310   4.440   3.472 -3.5577  0.0190 -1.0207
  694MOL0     H93667   6.281   4.571   3.590  2.4377  0.3457 -1.1987
  694MOL0     H93668   6.417   4.304   3.639 -2.8601 -1.3286  0.0716
  694MOL0     H93669   6.342   4.397   3.773  0.2085  0.6505  0.0649
  694MOL0     H93670   6.469   4.596   3.719 -1.5191 -1.5356  1.9207
  694MOL0     H93671   6.584   4.503   3.616 -0.6261 -2.7045 -0.6475
  694MOL0     H93672   5.844   3.699   3.202  0.3739  1.2403  0.6034
  694MOL0     H93673   5.869   3.625   2.960 -1.0076 -0.9208  3.5974
  694MOL0     H93674   5.880   3.866   2.526 -0.3745  0.2317 -1.6567
  694MOL0     H93675   5.855   3.828   2.293  0.5807  0.0052 -0.2132
  694MOL0     H93676   7.176   3.983   1.910  0.3388 -1.0584 -0.6943
  694MOL0     H93677   7.135   4.164   2.041  3.0713  0.5340  1.6764
  694MOL0     H93678   7.079   4.368   2.490 -0.1180  1.7962  2.5936
  694MOL0     H93679   7.026   4.591   2.575 -0.7876 -0.6160  1.0315
  694MOL0     H93680   6.890   4.745   2.716 -1.7377 -2.9511 -0.7959
  694MOL0     H93681   6.969   4.800   2.560 -0.5219 -2.2822 -0.8578
  694MOL0     H93682   6.718   4.940   2.589  0.5809 -0.3365 -1.0222
  694MOL0     H93683   6.875   5.001   2.564  0.2102  0.1214 -0.5837
  694MOL0     H93684   6.922   5.019   2.810  0.4957 -0.2969  1.9443
  694MOL0     H93685   6.787   4.900   2.842 -6.3448  0.7151 -0.7125
  694MOL0     H93686   6.623   5.067   2.799 -0.3236  3.5541 -3.5848
  694MOL0     H93687   6.724   5.173   2.733 -1.7354 -2.9580 -1.7747
  694MOL0     H93688   6.743   5.233   3.160  1.8847  1.1798 -0.8780
  694MOL0     H93689   6.635   4.562   2.402  0.3129  0.8995  1.2370
  694MOL0     H93690   6.696   4.342   2.309 -1.5911 -0.4659  2.2354
  695MOL0     O93691   6.665  11.280  10.777  0.0259 -0.8285  0.0767
  695MOL0     C93692   6.666  11.318  10.660  0.4337 -0.1031 -0.1039
  695MOL0     O93693   6.740  11.422  10.607 -0.3706 -0.3878 -0.3544
  695MOL0     C93694   6.858  11.456  10.668  0.8041  0.2588 -0.9322
  695MOL0     C93695   6.984  11.385  10.668 -0.5525 -0.5565 -0.3643
  695MOL0     C93696   7.096  11.439  10.738 -0.6704 -0.9341  0.5595
  695MOL0     C93697   7.093  11.557  10.813  0.0117 -0.0714  0.1569
  695MOL0     O93698   7.195  11.621  10.881 -0.5515  0.2897 -0.2624
  695MOL0     C93699   7.334  11.586  10.862  0.3176 -0.9500  0.1196
  695MOL0     C93700   7.397  11.710  10.926 -0.2043 -0.6606  0.4998
  695MOL0     C93701   7.551  11.731  10.915 -0.7464 -0.1394 -0.4769
  695MOL0     C93702   7.583  11.878  10.930  0.7390 -0.5527  0.4510
  695MOL0     C93703   7.732  11.885  10.957 -0.9299  0.7498  0.6738
  695MOL0     C93704   7.797  12.020  11.006  1.4496 -0.2422 -0.7633
  695MOL0     C93705   7.893  12.087  10.911  0.3942  0.5355 -0.0639
  695MOL0     C93706   8.023  11.999  10.896 -0.3657 -1.5465 -0.9874
  695MOL0     N93707   8.091  11.981  11.018 -0.2598 -0.5384 -0.1239
  695MOL0     C93708   8.211  12.037  11.039 -0.4347 -0.3560  0.8098
  695MOL0     C93709   8.268  11.994  11.163 -0.5572  0.0107  1.1169
  695MOL0     C93710   8.405  12.038  11.209  0.1188 -0.2735  0.0861
  695MOL0     C93711   8.516  11.985  11.120 -0.0347  0.0590 -0.4641
  695MOL0     C93712   8.489  11.836  11.083 -0.7468 -0.0538  0.5370
  695MOL0     C93713   8.494  11.752  11.212 -0.0843 -0.1853  0.7406
  695MOL0     O93714   8.618  11.767  11.285  0.6282 -0.8188 -0.5376
  695MOL0     C93715   8.728  11.714  11.219  0.1574  0.2573 -0.7832
  695MOL0     C93716   8.743  11.614  11.125 -0.2264 -0.7488  1.0774
  695MOL0     C93717   8.869  11.574  11.094  0.9715  0.1463 -0.4994
  695MOL0     C93718   8.880  11.455  10.995  0.3862 -0.1059  0.0385
  695MOL0     C93719   8.987  11.615  11.155  0.1178 -0.6491 -1.0480
  695MOL0     C93720   9.126  11.594  11.107 -0.1296 -0.2153  0.4217
  695MOL0     O93721   9.183  11.467  11.115 -0.2551  0.0245  0.1797
  695MOL0     C93722   9.309  11.445  11.079 -0.3359  0.5253  1.3031
  695MOL0     C93723   9.418  11.531  11.116 -0.0835 -0.5066  0.2982
  695MOL0     C93724   9.546  11.507  11.081  0.0055 -0.4174 -0.2325
  695MOL0     C93725   9.580  11.386  11.026 -0.0435  0.4513 -0.1794
  695MOL0     O93726   9.711  11.374  11.005 -0.2996  0.9047  0.1744
  695MOL0     C93727   9.770  11.275  10.926  0.2970  0.3956  0.4154
  695MOL0     C93728   9.916  11.306  10.903  0.5279  0.8720 -0.5340
  695MOL0     C93729   9.943  11.441  10.830  0.4802  0.0480  0.6115
  695MOL0     C93730  10.093  11.456  10.804 -0.8824 -0.7388 -0.6595
  695MOL0     C93731  10.112  11.601  10.754 -0.4496  0.5422 -0.4240
  695MOL0     C93732  10.251  11.611  10.692  0.8076  1.1046  0.4659
  695MOL0     C93733  10.376  11.575  10.775 -0.1135  0.0130 -0.7253
  695MOL0     C93734  10.493  11.534  10.682  0.5040  0.1998 -0.7989
  695MOL0    Cl93735  10.520  11.631  10.536  0.5923  0.0923 -0.3228
  695MOL0     C93736   9.481  11.289  10.988 -0.4756 -0.3225 -0.4016
  695MOL0     C93737   9.353  11.314  11.032 -0.9729  0.9143 -0.2704
  695MOL0     O93738   9.180  11.691  11.052  1.1064 -0.4590 -0.9649
  695MOL0     C93739   8.971  11.715  11.253  1.1401 -0.4568 -0.4464
  695MOL0     C93740   8.838  11.756  11.289  0.9298  0.2067  0.0328
  695MOL0     N93741   8.173  11.908  11.206 -0.1718 -0.2863 -0.4405
  695MOL0     N93742   8.076  11.890  11.116  1.1781 -0.1876  0.6044
  695MOL0     C93743   6.974  11.621  10.805  0.1638 -0.2259 -0.4540
  695MOL0     C93744   6.858  11.574  10.737  0.1342 -0.1597  0.1153
  695MOL0     C93745   6.553  11.273  10.579  0.4850 -0.6736 -0.3877
  695MOL0     C93746   6.551  11.297  10.439  0.4351 -1.2291  0.3587
  695MOL0     C93747   6.428  11.273  10.367  0.4867  0.6229 -0.1548
  695MOL0     C93748   6.331  11.192  10.426  0.3105 -0.7992  0.3363
  695MOL0     O93749   6.210  11.155  10.368  0.5566  0.3042 -0.7482
  695MOL0     C93750   6.194  11.137  10.232  0.0133  0.4755  0.1119
  695MOL0     C93751   6.079  11.038  10.190 -1.0977 -0.0684 -0.5441
  695MOL0     C93752   6.134  10.893  10.174 -0.3830 -0.7149  0.5669
  695MOL0     C93753   6.225  10.887  10.041  0.0313 -0.6393  0.2112
  695MOL0     C93754   6.256  10.749  10.010  0.4027  0.2914 -0.9481
  695MOL0     C93755   6.287  10.637   9.990  1.1512  0.9211 -0.1359
  695MOL0     C93756   6.341  11.159  10.563 -0.2765 -0.7464  0.1531
  695MOL0     C93757   6.449  11.199  10.637 -0.3566 -0.6363 -0.4129
  695MOL0     H93758   6.983  11.294  10.610 -0.1289  1.2356 -3.4306
  695MOL0     H93759   7.195  11.393  10.743 -0.8137 -1.1173  1.8877
  695MOL0     H93760   7.380  11.492  10.895  2.0971 -0.2499 -0.2598
  695MOL0     H93761   7.347  11.595  10.754 -0.4613  0.2339  0.1050
  695MOL0     H93762   7.345  11.801  10.894  0.8396 -0.6494 -1.3083
  695MOL0     H93763   7.366  11.716  11.030 -3.2730  0.8030 -0.3855
  695MOL0     H93764   7.602  11.669  10.990 -0.6494 -0.0202 -0.4446
  695MOL0     H93765   7.592  11.697  10.819 -2.7321  0.4555 -1.5863
  695MOL0     H93766   7.542  11.920  10.838 -2.1124 -1.2974  1.2767
  695MOL0     H93767   7.517  11.921  11.007 -3.1045 -2.2705 -1.6142
  695MOL0     H93768   7.761  11.808  11.029 -0.4689  2.5866  2.5474
  695MOL0     H93769   7.771  11.863  10.857 -2.4812  0.1176  0.1651
  695MOL0     H93770   7.713  12.083  11.036  3.1032  0.5571  2.7555
  695MOL0     H93771   7.846  12.007  11.103  3.0229  2.8810 -1.0180
  695MOL0     H93772   7.835  12.083  10.818  0.8046 -1.5969 -0.2779
  695MOL0     H93773   7.904  12.193  10.933 -2.9645  1.3617 -1.7137
  695MOL0     H93774   8.082  12.053  10.822 -1.0630 -0.7275 -0.9614
  695MOL0     H93775   7.998  11.897  10.866  1.1891 -2.6778  1.2726
  695MOL0     H93776   8.243  12.119  10.977  2.9951 -0.4034  2.3221
  695MOL0     H93777   8.409  12.147  11.208 -4.5563  0.0993 -1.2040
  695MOL0     H93778   8.430  11.991  11.305  1.0342 -1.4680 -0.6941
  695MOL0     H93779   8.606  12.010  11.176 -2.7747  1.0516  3.9355
  695MOL0     H93780   8.513  12.042  11.027  1.3058 -0.2440 -0.7062
  695MOL0     H93781   8.563  11.795  11.014 -2.4506 -1.9330 -0.2775
  695MOL0     H93782   8.392  11.824  11.034  0.3484 -0.8399 -1.5501
  695MOL0     H93783   8.472  11.650  11.180 -1.0506  0.5565 -1.0885
  695MOL0     H93784   8.411  11.774  11.279 -2.3182 -0.1208 -1.8813
  695MOL0     H93785   8.660  11.576  11.067 -0.3270 -0.4516  1.0237
  695MOL0     H93786   8.790  11.464  10.933 -0.9199  0.4382  1.9222
  695MOL0     H93787   8.965  11.470  10.928  0.6878  0.4837  0.5486
  695MOL0     H93788   8.897  11.357  11.041 -0.6182 -1.0820 -1.5828
  695MOL0     H93789   9.385  11.620  11.167  0.0023  0.0570 -0.6014
  695MOL0     H93790   9.621  11.583  11.102 -1.9431  0.9368  2.5056
  695MOL0     H93791   9.749  11.184  10.982  1.3775  1.5640  2.8312
  695MOL0     H93792   9.732  11.266  10.823  1.1844 -2.2331  0.2253
  695MOL0     H93793   9.960  11.329  11.001 -0.8302 -0.0149  0.3272
  695MOL0     H93794   9.965  11.218  10.861  0.3758  1.6834 -2.5044
  695MOL0     H93795   9.890  11.522  10.880 -2.1619 -0.1529 -1.6315
  695MOL0     H93796   9.890  11.428  10.735  0.7029  4.5269 -0.3098
  695MOL0     H93797  10.141  11.446  10.902  0.4398 -3.5591 -1.4772
  695MOL0     H93798  10.128  11.370  10.747  0.8053 -0.3540 -0.2669
  695MOL0     H93799  10.108  11.673  10.836  2.7868  0.2066  0.1350
  695MOL0     H93800  10.038  11.631  10.679  0.6961  2.1635 -0.9636
  695MOL0     H93801  10.260  11.557  10.598  1.0665  0.4348  0.8708
  695MOL0     H93802  10.243  11.713  10.653  1.3525  0.8475 -0.3418
  695MOL0     H93803  10.350  11.500  10.850  1.3636  1.0060  0.8727
  695MOL0     H93804  10.414  11.662  10.830  1.8099 -0.0524 -1.8509
  695MOL0     H93805  10.481  11.426  10.674  0.5564 -0.2218  2.9035
  695MOL0     H93806  10.590  11.546  10.732  0.7924  2.0274 -1.6840
  695MOL0     H93807   9.528  11.200  10.946  4.0148  1.5700  0.0182
  695MOL0     H93808   9.275  11.242  11.010  0.3626 -0.8674  0.6236
  695MOL0     H93809   9.053  11.764  11.303  0.4247 -1.3325  1.7071
  695MOL0     H93810   8.821  11.837  11.360 -1.4854  1.8889 -2.2618
  695MOL0     H93811   6.956  11.719  10.847 -1.5569 -0.7202  0.0654
  695MOL0     H93812   6.771  11.638  10.745  0.7050  1.0096 -2.1906
  695MOL0     H93813   6.630  11.347  10.384 -1.1289  1.5453  0.4481
  695MOL0     H93814   6.418  11.310  10.265 -1.4437  1.8542  0.4274
  695MOL0     H93815   6.167  11.237  10.195  1.2064  0.7741  0.0124
  695MOL0     H93816   6.291  11.106  10.192 -0.4721 -0.7863 -0.1225
  695MOL0     H93817   6.032  11.069  10.097 -0.3131 -0.1808 -0.9836
  695MOL0     H93818   6.007  11.036  10.273 -2.4362  0.9986 -1.6222
  695MOL0     H93819   6.046  10.831  10.158 -1.0002  0.6702 -1.9901
  695MOL0     H93820   6.171  10.851  10.268 -0.5088  0.4955  1.1776
  695MOL0     H93821   6.321  10.933  10.067 -0.5599  2.1970 -2.1819
  695MOL0     H93822   6.168  10.935   9.961 -1.1618 -0.4970  1.1215
  695MOL0     H93823   6.301  10.533   9.973 -0.5812  0.8253 -1.1535
  695MOL0     H93824   6.265  11.098  10.611  1.7845 -2.3721  1.5365
  695MOL0     H93825   6.462  11.177  10.743  0.8151  2.9146  0.3064
  696MOL0     O93826   5.774   3.121   5.417 -0.0926  0.5707  0.3721
  696MOL0     C93827   5.783   3.079   5.531  0.0420 -0.3808 -0.9616
  696MOL0     O93828   5.901   3.051   5.592  0.8416  0.0939  0.3969
  696MOL0     C93829   6.017   3.079   5.524 -0.5924 -0.3254 -0.2225
  696MOL0     C93830   6.097   3.190   5.552 -0.5117 -0.4587  0.0181
  696MOL0     C93831   6.230   3.194   5.504  1.0256 -1.4555 -1.1220
  696MOL0     C93832   6.285   3.098   5.421  0.2472 -0.0466 -0.1433
  696MOL0     O93833   6.417   3.114   5.380 -0.6719 -0.2588  0.0407
  696MOL0     C93834   6.479   3.004   5.304 -0.3837 -1.1361  0.1966
  696MOL0     C93835   6.634   3.013   5.308 -0.8584  0.1550 -0.3694
  696MOL0     C93836   6.679   3.004   5.460 -0.2733 -1.0180 -0.4273
  696MOL0     C93837   6.684   2.853   5.510 -0.0008 -0.0773 -0.1478
  696MOL0     C93838   6.765   2.837   5.642 -0.4135 -0.1348 -0.4586
  696MOL0     C93839   6.734   2.698   5.704  0.2381  0.5274  0.8043
  696MOL0     C93840   6.831   2.678   5.820 -0.1579  0.1625 -0.3842
  696MOL0     C93841   6.809   2.568   5.912 -0.1998  0.6229 -0.4681
  696MOL0     N93842   6.904   2.561   6.022  0.4731  0.5295 -0.8474
  696MOL0     C93843   6.933   2.660   6.110  0.3713 -0.0501 -0.2985
  696MOL0     C93844   7.027   2.601   6.188  0.5341  0.2186 -0.0093
  696MOL0     C93845   7.102   2.698   6.282  1.0692  0.0876 -0.1594
  696MOL0     C93846   7.012   2.718   6.402  0.0041  0.0328 -0.4131
  696MOL0     C93847   7.037   2.842   6.493  0.2281  0.6051  0.4845
  696MOL0     C93848   6.950   2.828   6.616 -0.3581  0.0892  0.1536
  696MOL0     O93849   6.974   2.958   6.684  1.0306  0.7402  0.3002
  696MOL0     C93850   6.902   2.976   6.802 -1.5767 -0.4045  0.1833
  696MOL0     C93851   6.801   2.896   6.849 -0.2783  0.5220  0.4369
  696MOL0     C93852   6.721   2.927   6.965 -0.7782  0.6847  0.1434
  696MOL0     C93853   6.611   2.832   6.989 -0.1514 -0.7203  0.0536
  696MOL0     C93854   6.758   3.040   7.041  0.9232  0.4667  0.1977
  696MOL0     C93855   6.687   3.077   7.168  0.0406  0.2849 -0.1283
  696MOL0     O93856   6.724   3.191   7.237 -0.1478  0.0832 -0.2136
  696MOL0     C93857   6.658   3.213   7.355  0.6706 -0.9489  0.7328
  696MOL0     C93858   6.698   3.153   7.475  1.2221 -0.1160 -0.9240
  696MOL0     C93859   6.624   3.179   7.592  0.5126  0.3960  0.8830
  696MOL0     C93860   6.520   3.268   7.598  0.3699 -0.3092 -0.0962
  696MOL0     O93861   6.462   3.303   7.719  0.0298  0.0451 -0.2064
  696MOL0     C93862   6.355   3.403   7.726  0.3119  0.6478  0.0362
  696MOL0     C93863   6.283   3.400   7.859 -0.1787 -0.1401  0.8137
  696MOL0     C93864   6.384   3.440   7.980  0.4129 -0.1053  0.5668
  696MOL0     C93865   6.332   3.412   8.109  0.3391  0.0601 -0.0879
  696MOL0     C93866   6.417   3.472   8.227 -0.7415 -0.0871 -0.4986
  696MOL0     C93867   6.360   3.444   8.368 -0.0773 -0.4985 -0.4974
  696MOL0     C93868   6.428   3.540   8.474 -0.3248  1.3350  0.3644
  696MOL0     C93869   6.530   3.460   8.560 -0.1134  0.5542  0.1630
  696MOL0    Cl93870   6.429   3.330   8.647 -0.1481  0.0596 -0.0519
  696MOL0     C93871   6.482   3.330   7.477  0.4793  0.6752 -0.3847
  696MOL0     C93872   6.552   3.305   7.354 -0.0700 -1.1409  0.9182
  696MOL0     O93873   6.605   2.998   7.212 -0.5187  0.5629  0.7459
  696MOL0     C93874   6.863   3.120   7.002 -0.5377  0.5221 -0.0391
  696MOL0     C93875   6.928   3.091   6.882 -0.2297 -0.5525  0.0281
  696MOL0     N93876   7.042   2.468   6.167 -0.2176  0.5429  0.5564
  696MOL0     N93877   6.971   2.449   6.057  0.4491  0.8471  0.4238
  696MOL0     C93878   6.186   3.007   5.365 -0.8933  0.5169  0.1217
  696MOL0     C93879   6.065   2.995   5.422 -0.1168  0.2095  0.0462
  696MOL0     C93880   5.660   3.082   5.614 -0.4384 -0.4757 -0.6894
  696MOL0     C93881   5.652   3.063   5.754 -0.5924 -1.7359  0.4388
  696MOL0     C93882   5.539   3.055   5.827  0.1433  1.0034  0.2694
  696MOL0     C93883   5.422   3.089   5.770  0.5795 -0.8380  0.8027
  696MOL0     O93884   5.304   3.125   5.844  0.0687 -0.8198 -0.2835
  696MOL0     C93885   5.323   3.236   5.934 -0.3718 -0.5097 -0.1522
  696MOL0     C93886   5.199   3.322   5.934  0.0622  1.3371 -0.6916
  696MOL0     C93887   5.200   3.411   6.062  1.0748 -0.8220 -1.4792
  696MOL0     C93888   5.151   3.557   6.034 -1.4659  0.3072  0.9789
  696MOL0     C93889   5.131   3.631   6.162  0.1007  0.1764  0.9197
  696MOL0     C93890   5.120   3.695   6.265 -0.2227  0.3999  0.3789
  696MOL0     C93891   5.421   3.120   5.632  0.2088 -0.0061 -0.0273
  696MOL0     C93892   5.534   3.100   5.553  0.6649  0.3760  0.3035
  696MOL0     H93893   6.063   3.268   5.620 -0.0780  2.1116 -2.5323
  696MOL0     H93894   6.294   3.279   5.528 -1.2610  1.0859 -3.2543
  696MOL0     H93895   6.455   2.911   5.356 -2.7791 -0.1582  0.9603
  696MOL0     H93896   6.443   3.017   5.202  0.2176  1.8223  0.2743
  696MOL0     H93897   6.675   2.924   5.259  0.8325  0.0860  1.0738
  696MOL0     H93898   6.680   3.093   5.249  5.5494 -4.1034 -2.2910
  696MOL0     H93899   6.774   3.049   5.489 -1.1397 -0.4425  1.7185
  696MOL0     H93900   6.620   3.064   5.530  1.8825 -1.1198  1.5937
  696MOL0     H93901   6.581   2.820   5.521 -0.3625  1.0526 -0.0184
  696MOL0     H93902   6.731   2.789   5.435 -2.5655 -0.7543 -1.2572
  696MOL0     H93903   6.873   2.845   5.621 -0.2384 -0.5858  0.2532
  696MOL0     H93904   6.733   2.914   5.713 -1.9629 -0.7655 -0.4456
  696MOL0     H93905   6.628   2.705   5.732  0.2116 -1.5223  1.3864
  696MOL0     H93906   6.750   2.616   5.634 -0.8076  1.0397 -0.0742
  696MOL0     H93907   6.921   2.664   5.759 -1.3020 -1.2752 -1.8487
  696MOL0     H93908   6.830   2.770   5.879 -1.4258  1.0464 -1.7489
  696MOL0     H93909   6.815   2.471   5.863 -0.1199 -0.3018  1.2954
  696MOL0     H93910   6.705   2.576   5.945 -0.0102 -1.7991  0.8831
  696MOL0     H93911   6.915   2.767   6.104  5.3055  0.9737 -0.4502
  696MOL0     H93912   7.200   2.666   6.319  1.5107  2.6738  1.0900
  696MOL0     H93913   7.115   2.787   6.220 -1.9976  0.0183 -1.0396
  696MOL0     H93914   7.035   2.635   6.468  1.3073 -2.3772 -3.6384
  696MOL0     H93915   6.912   2.704   6.359 -0.7166 -0.1904  1.2757
  696MOL0     H93916   7.022   2.937   6.441  2.2529  0.9428  0.4187
  696MOL0     H93917   7.138   2.835   6.536  0.4946 -0.4792 -0.2685
  696MOL0     H93918   6.982   2.744   6.678 -1.9628  0.0231  0.9454
  696MOL0     H93919   6.844   2.813   6.593 -0.8365  1.5635  1.2014
  696MOL0     H93920   6.771   2.806   6.796  3.0216 -1.5295  1.7416
  696MOL0     H93921   6.517   2.887   7.002 -0.0946 -0.9190  1.4322
  696MOL0     H93922   6.606   2.757   6.910  2.7532 -0.8411 -0.1243
  696MOL0     H93923   6.639   2.769   7.074  1.5657 -2.6957 -1.8716
  696MOL0     H93924   6.754   3.060   7.478 -0.7016 -1.4230 -2.5184
  696MOL0     H93925   6.645   3.119   7.680  1.5571 -2.3125 -1.0605
  696MOL0     H93926   6.401   3.503   7.722  1.5834  0.1695  1.5490
  696MOL0     H93927   6.289   3.389   7.640  0.5655 -1.0845  0.0986
  696MOL0     H93928   6.198   3.468   7.848 -0.6036 -0.9098 -1.0227
  696MOL0     H93929   6.238   3.300   7.859 -1.4225  0.3775 -1.0913
  696MOL0     H93930   6.406   3.547   7.981  0.2948 -0.0856  1.8145
  696MOL0     H93931   6.482   3.394   7.966  0.7686 -0.5434  3.8815
  696MOL0     H93932   6.229   3.450   8.112 -0.7530 -2.7289  0.6920
  696MOL0     H93933   6.320   3.308   8.140  0.1269 -0.8332 -2.8663
  696MOL0     H93934   6.448   3.576   8.217  0.5002 -0.5207 -1.5492
  696MOL0     H93935   6.517   3.429   8.216 -0.2294  1.5432 -3.5657
  696MOL0     H93936   6.256   3.480   8.369  0.1953  0.3349  1.0167
  696MOL0     H93937   6.375   3.337   8.381 -1.8551 -0.5788  1.5352
  696MOL0     H93938   6.350   3.579   8.540  0.4962 -0.3977  2.4893
  696MOL0     H93939   6.477   3.622   8.422 -3.1504  1.0917 -2.9933
  696MOL0     H93940   6.563   3.531   8.636  2.9410  0.8666 -1.3032
  696MOL0     H93941   6.616   3.417   8.508  0.9460  0.6092  1.8052
  696MOL0     H93942   6.403   3.404   7.474 -0.6263 -0.4919 -1.5225
  696MOL0     H93943   6.515   3.365   7.271  0.8255  0.4910  1.6464
  696MOL0     H93944   6.888   3.211   7.056 -1.8519  0.7788  0.1860
  696MOL0     H93945   7.003   3.158   6.840 -2.0660  1.0893 -0.7648
  696MOL0     H93946   6.206   2.930   5.292 -0.8288  2.0492 -1.5266
  696MOL0     H93947   5.997   2.915   5.396 -0.9306 -0.1718  2.9215
  696MOL0     H93948   5.743   3.047   5.810  0.1206 -2.9865 -0.9951
  696MOL0     H93949   5.543   3.040   5.934 -0.0960  4.3331  0.8317
  696MOL0     H93950   5.342   3.191   6.032  2.7496 -1.2655 -0.9826
  696MOL0     H93951   5.416   3.290   5.913 -0.9851  0.4925 -0.3823
  696MOL0     H93952   5.110   3.260   5.950  1.1224 -0.5144 -1.6839
  696MOL0     H93953   5.200   3.379   5.841 -1.8021 -0.3856 -1.8340
  696MOL0     H93954   5.299   3.414   6.109 -0.6798  2.3618  2.6833
  696MOL0     H93955   5.130   3.385   6.141  1.5227 -0.6714 -1.0234
  696MOL0     H93956   5.060   3.574   5.976 -0.0286  1.1189 -1.1370
  696MOL0     H93957   5.235   3.609   5.987 -1.2963  1.4327  2.4394
  696MOL0     H93958   5.112   3.744   6.360  2.0452  0.7711  0.4453
  696MOL0     H93959   5.334   3.142   5.571 -1.1156 -4.5484 -0.1282
  696MOL0     H93960   5.522   3.101   5.445  1.6673  0.2744  0.1864
  697MOL0     O93961   2.463  10.208   0.551 -0.7233 -1.1747 -0.0872
  697MOL0     C93962   2.529  10.240   0.454  0.3550 -0.3972  0.5097
  697MOL0     O93963   2.496  10.320   0.358 -0.5119 -0.1597 -0.5603
  697MOL0     C93964   2.365  10.323   0.324 -0.0765 -0.1737  0.4040
  697MOL0     C93965   2.299  10.208   0.272  0.2640  0.4656  0.9587
  697MOL0     C93966   2.160  10.211   0.239 -0.6867  0.0663  0.1958
  697MOL0     C93967   2.090  10.331   0.250 -0.0970 -0.2517 -0.3656
  697MOL0     O93968   1.956  10.318   0.234  0.4491  0.2079 -0.0863
  697MOL0     C93969   1.867  10.409   0.300 -0.6793 -0.4922  0.0120
  697MOL0     C93970   1.726  10.378   0.268  0.3789 -0.2154  0.2622
  697MOL0     C93971   1.701  10.367   0.115  0.2642  0.4007  0.6132
  697MOL0     C93972   1.559  10.397   0.080 -0.5287  0.0635 -0.4799
  697MOL0     C93973   1.546  10.394  -0.075  0.0894  0.9696  0.7465
  697MOL0     C93974   1.402  10.416  -0.137 -0.1950  0.1703  0.5951
  697MOL0     C93975   1.295  10.327  -0.074  0.3291  0.2366 -0.2322
  697MOL0     C93976   1.327  10.178  -0.091 -1.0463  0.5530 -0.5348
  697MOL0     N93977   1.216  10.093  -0.129  0.0546 -0.2211  0.2359
  697MOL0     C93978   1.091  10.103  -0.080  0.0350  0.1300 -0.1903
  697MOL0     C93979   1.020  10.001  -0.130  0.5342 -0.5370 -0.4006
  697MOL0     C93980   0.865   9.963  -0.120 -1.0505  0.7007 -0.2781
  697MOL0     C93981   0.814   9.919   0.016  0.0859 -0.2272 -0.4187
  697MOL0     C93982   0.665   9.880   0.027 -1.0726 -0.2647  0.0929
  697MOL0     C93983   0.637   9.845   0.178 -0.5923 -0.3439 -1.2939
  697MOL0     O93984   0.517   9.758   0.183  0.3768 -0.5550 -0.8898
  697MOL0     C93985   0.390   9.816   0.201 -0.0767 -0.4284  0.8344
  697MOL0     C93986   0.278   9.734   0.173 -0.1085 -0.0087  0.4068
  697MOL0     C93987   0.156   9.783   0.179  0.3525 -0.0347  0.5645
  697MOL0     C93988   0.036   9.694   0.136 -0.9525 -0.2430  0.1387
  697MOL0     C93989   0.136   9.916   0.219 -0.0489  1.5639  0.4571
  697MOL0     C93990  -0.002   9.976   0.237  0.1381  0.4060 -0.3528
  697MOL0     O93991  -0.026  10.096   0.185 -0.5438  0.2156  1.0059
  697MOL0     C93992  -0.153  10.143   0.205 -0.8674  0.4023 -0.5019
  697MOL0     C93993  -0.191  10.225   0.304 -0.1520 -0.2074 -0.7560
  697MOL0     C93994  -0.310  10.301   0.317 -0.8856  0.5821  0.6154
  697MOL0     C93995  -0.414  10.278   0.217 -0.5213  0.1532 -0.2619
  697MOL0     O93996  -0.540  10.329   0.237  0.1845  0.4667 -0.0982
  697MOL0     C93997  -0.644  10.312   0.135 -0.1447 -0.1466  0.3048
  697MOL0     C93998  -0.684  10.458   0.106  0.1940  0.2581 -0.0951
  697MOL0     C93999  -0.791  10.468  -0.003  0.6067 -0.3448  0.0670
  697MOL0     C94000  -0.731  10.448  -0.149  0.0870  0.1445 -0.5253
  697MOL0     C94001  -0.839  10.444  -0.266 -0.2248 -0.1932 -0.0692
  697MOL0     C94002  -0.902  10.311  -0.279  0.2898  0.5943  0.5084
  697MOL0     C94003  -1.024  10.305  -0.368  0.0793  1.4358 -0.4876
  697MOL0     C94004  -1.074  10.161  -0.381  0.4252 -1.0012 -0.1771
  697MOL0    Cl94005  -1.241  10.165  -0.456 -0.4319  0.2124 -0.5092
  697MOL0     C94006  -0.377  10.184   0.112 -0.6423  0.1214  0.3196
  697MOL0     C94007  -0.247  10.131   0.107 -0.5573 -0.7568 -0.7095
  697MOL0     O94008  -0.079   9.917   0.317 -0.0882 -0.1093  0.4224
  697MOL0     C94009   0.245   9.992   0.261 -1.7051 -0.1887  1.3963
  697MOL0     C94010   0.375   9.947   0.247 -0.3117 -0.5806  0.0711
  697MOL0     N94011   1.107   9.917  -0.194 -0.1221 -0.7430 -0.0186
  697MOL0     N94012   1.226   9.970  -0.187 -0.1698 -0.6631 -0.3271
  697MOL0     C94013   2.160  10.443   0.296 -0.1008  0.4815  0.3124
  697MOL0     C94014   2.292  10.447   0.331 -0.0290  0.5440  0.1109
  697MOL0     C94015   2.662  10.170   0.444  0.0733  1.6932 -0.4741
  697MOL0     C94016   2.748  10.196   0.335  0.4317  0.3808 -0.5773
  697MOL0     C94017   2.871  10.132   0.322 -0.0390 -0.0031 -0.1927
  697MOL0     C94018   2.923  10.049   0.433 -0.2525  0.7689  0.9109
  697MOL0     O94019   3.055  10.000   0.417  1.2730 -0.8898  0.1337
  697MOL0     C94020   3.151  10.099   0.419  0.2893  0.3155 -0.4098
  697MOL0     C94021   3.290  10.047   0.401 -0.2869 -0.0809  0.6849
  697MOL0     C94022   3.343   9.973   0.524  0.0893  0.2908 -0.5488
  697MOL0     C94023   3.421  10.080   0.607 -0.5130  0.9776  0.9732
  697MOL0     C94024   3.461  10.010   0.737 -1.0624 -0.6433 -0.5206
  697MOL0     C94025   3.486   9.955   0.834 -0.1874  0.1067 -0.1211
  697MOL0     C94026   2.832  10.013   0.534 -0.1591 -0.8323  0.4714
  697MOL0     C94027   2.707  10.074   0.544  0.2885  0.2442  0.2990
  697MOL0     H94028   2.359  10.120   0.252  0.7357  1.1245 -0.6426
  697MOL0     H94029   2.113  10.124   0.194 -0.8210  1.7535 -3.2614
  697MOL0     H94030   1.861  10.396   0.409 -1.9970  1.3554  0.2123
  697MOL0     H94031   1.877  10.514   0.270  0.3322 -0.0608  1.6830
  697MOL0     H94032   1.661  10.297   0.302 -3.4658  2.2829 -0.5211
  697MOL0     H94033   1.673  10.466   0.306 -1.0462 -0.5117 -0.9364
  697MOL0     H94034   1.771  10.434   0.063 -1.3606  1.8925  0.2584
  697MOL0     H94035   1.728  10.264   0.087 -1.6497  0.0684 -0.1739
  697MOL0     H94036   1.488  10.329   0.127  1.1111 -0.2285  1.7180
  697MOL0     H94037   1.532  10.496   0.118 -0.4915 -0.3031  0.5344
  697MOL0     H94038   1.605  10.477  -0.115 -0.4151  0.1484 -1.8592
  697MOL0     H94039   1.592  10.298  -0.100 -0.6989  0.8320 -0.2244
  697MOL0     H94040   1.377  10.522  -0.123 -0.8761 -0.1129  1.5793
  697MOL0     H94041   1.402  10.399  -0.245  1.4514 -3.1229  0.9871
  697MOL0     H94042   1.274  10.356   0.029  2.9231  1.1257  0.1031
  697MOL0     H94043   1.208  10.366  -0.127 -0.4845 -1.7186 -0.4508
  697MOL0     H94044   1.353  10.133   0.005 -4.3181  1.3877  0.8837
  697MOL0     H94045   1.408  10.169  -0.164 -0.6436  1.0001 -0.1490
  697MOL0     H94046   1.047  10.182  -0.020 -2.2216 -1.7655  0.8055
  697MOL0     H94047   0.818  10.057  -0.150  1.2336  0.8319 -3.9782
  697MOL0     H94048   0.821   9.883  -0.181 -2.8732  0.2141  1.5556
  697MOL0     H94049   0.835  10.003   0.083  2.9536 -3.0367  2.6110
  697MOL0     H94050   0.881   9.835   0.037  1.3025  0.8926  0.3540
  697MOL0     H94051   0.641   9.790  -0.031 -1.8317 -0.4654  0.7080
  697MOL0     H94052   0.593   9.950  -0.015 -2.8852 -0.9641  1.8962
  697MOL0     H94053   0.645   9.942   0.228  1.8825 -0.8826 -0.5062
  697MOL0     H94054   0.720   9.786   0.219  0.8910  0.8389 -2.5155
  697MOL0     H94055   0.295   9.639   0.123 -2.1818 -0.1701 -0.0658
  697MOL0     H94056  -0.035   9.750   0.075  1.1440  0.0273 -2.2545
  697MOL0     H94057   0.069   9.602   0.088 -3.1268 -1.0236  0.0516
  697MOL0     H94058  -0.017   9.657   0.224 -1.1508  1.1176  0.6166
  697MOL0     H94059  -0.109  10.240   0.374  0.0687  0.2230 -1.1028
  697MOL0     H94060  -0.323  10.367   0.403  1.3080  2.1192 -0.1365
  697MOL0     H94061  -0.613  10.262   0.043  1.0283 -1.7789  1.5213
  697MOL0     H94062  -0.725  10.243   0.160  1.1222 -1.5273  0.8185
  697MOL0     H94063  -0.717  10.490   0.205  0.0674  0.0679 -0.0761
  697MOL0     H94064  -0.594  10.510   0.070  0.2586  0.4405  0.3255
  697MOL0     H94065  -0.827  10.571   0.001 -0.4447 -0.5222 -2.6617
  697MOL0     H94066  -0.883  10.411   0.014  1.8797 -1.7573  3.0269
  697MOL0     H94067  -0.666  10.535  -0.160  0.2622  0.2580  1.1017
  697MOL0     H94068  -0.674  10.354  -0.148 -2.8927 -1.8182  0.2964
  697MOL0     H94069  -0.798  10.477  -0.362  1.1812  1.2653  0.9773
  697MOL0     H94070  -0.917  10.512  -0.230 -0.0882  0.8543 -1.6610
  697MOL0     H94071  -0.835  10.228  -0.304 -1.0196 -0.1570 -0.6515
  697MOL0     H94072  -0.934  10.292  -0.176  2.1967  0.9357  1.2179
  697MOL0     H94073  -1.005  10.340  -0.470  0.5639 -0.0902 -0.9520
  697MOL0     H94074  -1.117  10.352  -0.337 -1.6696 -1.7559 -0.4557
  697MOL0     H94075  -1.066  10.105  -0.287 -0.1871 -3.4408 -1.4859
  697MOL0     H94076  -1.000  10.111  -0.445 -0.0840 -0.5098 -1.1583
  697MOL0     H94077  -0.445  10.155   0.031  0.0033 -4.6131  1.1690
  697MOL0     H94078  -0.217  10.065   0.026 -0.2408 -2.2233  0.5499
  697MOL0     H94079   0.235  10.097   0.289  2.3429  1.0492 -0.9721
  697MOL0     H94080   0.464  10.002   0.278  1.7713 -1.5243 -3.6138
  697MOL0     H94081   2.099  10.531   0.313 -1.4498 -0.7827  2.5044
  697MOL0     H94082   2.347  10.535   0.363 -1.0545  1.1225  0.3418
  697MOL0     H94083   2.701  10.257   0.258  0.9568  0.9649 -0.4388
  697MOL0     H94084   2.928  10.141   0.230  0.9343 -2.6111  0.0611
  697MOL0     H94085   3.125  10.176   0.346 -1.0943 -0.8681 -1.2207
  697MOL0     H94086   3.158  10.147   0.517 -0.1260 -0.5260  0.0357
  697MOL0     H94087   3.357  10.132   0.381 -0.8297  0.4761  1.2203
  697MOL0     H94088   3.284   9.979   0.315  0.9484 -1.8426  1.9064
  697MOL0     H94089   3.411   9.892   0.498 -2.2547 -2.1563  0.4853
  697MOL0     H94090   3.258   9.936   0.583  1.9508 -1.4334  1.1822
  697MOL0     H94091   3.387  10.184   0.607 -2.4899  0.3800  0.1528
  697MOL0     H94092   3.509  10.090   0.543 -2.4664 -1.4475 -2.4336
  697MOL0     H94093   3.499   9.888   0.917  3.0874  1.7818  0.8900
  697MOL0     H94094   2.859   9.949   0.617  1.2885 -2.1538 -0.9632
  697MOL0     H94095   2.661  10.035   0.634  0.7506 -1.6312 -0.2391
  698MOL0     O94096  10.626   4.101   9.255  0.1459 -0.5792 -0.0642
  698MOL0     C94097  10.551   4.040   9.181 -0.6761 -0.3554  0.0081
  698MOL0     O94098  10.446   3.962   9.217  0.0737 -0.0278  0.9164
  698MOL0     C94099  10.412   3.951   9.344 -1.5663 -0.1312 -1.2898
  698MOL0     C94100  10.505   3.904   9.435  0.0609  0.3258 -0.0182
  698MOL0     C94101  10.474   3.903   9.575  0.5484 -0.2081  0.2039
  698MOL0     C94102  10.347   3.936   9.617 -0.0551 -1.1017  0.7228
  698MOL0     O94103  10.331   3.921   9.749  0.2156 -1.0800 -0.2379
  698MOL0     C94104  10.210   3.848   9.776  0.1457 -0.2164  0.9098
  698MOL0     C94105  10.203   3.846   9.920 -0.3093  0.3954  1.3471
  698MOL0     C94106  10.304   3.751   9.985  0.8345 -0.5238  0.1415
  698MOL0     C94107  10.255   3.609   9.965 -0.4436  0.3570  0.3202
  698MOL0     C94108  10.291   3.502  10.069 -0.2894 -0.7335 -0.6953
  698MOL0     C94109  10.457   3.488  10.077  0.3141 -0.9986  0.4843
  698MOL0     C94110  10.492   3.380  10.177 -0.2602  0.5148  0.7642
  698MOL0     C94111  10.638   3.374  10.201  0.1166 -0.1554 -0.6965
  698MOL0     N94112  10.706   3.326  10.075 -1.0883 -0.6261  0.5503
  698MOL0     C94113  10.748   3.414   9.972  0.5747  0.1262 -0.3172
  698MOL0     C94114  10.789   3.327   9.878  0.2632 -0.7703 -0.4746
  698MOL0     C94115  10.827   3.379   9.745 -0.0152  1.2105  0.3846
  698MOL0     C94116  10.718   3.387   9.639  0.3873 -0.6048  1.3578
  698MOL0     C94117  10.636   3.513   9.660  0.2349 -0.2966  0.1966
  698MOL0     C94118  10.524   3.524   9.561 -1.0712  0.2624 -0.2952
  698MOL0     O94119  10.576   3.532   9.430  0.9358  0.0203  0.9636
  698MOL0     C94120  10.485   3.563   9.340  0.4021 -0.9575  0.1655
  698MOL0     C94121  10.536   3.595   9.215 -0.4807  1.6829 -0.1724
  698MOL0     C94122  10.460   3.614   9.104 -1.3589  0.5098  0.9376
  698MOL0     C94123  10.536   3.617   8.968 -0.7147 -0.2348  0.2131
  698MOL0     C94124  10.320   3.623   9.117 -0.0844 -0.1500 -0.0639
  698MOL0     C94125  10.222   3.652   9.009  0.3085 -0.0478 -0.0333
  698MOL0     O94126  10.109   3.713   9.053  0.0207 -0.2888  0.5008
  698MOL0     C94127  10.040   3.772   8.953 -0.4520  0.6182  0.3802
  698MOL0     C94128  10.036   3.912   8.964  0.6700 -0.4800  0.4711
  698MOL0     C94129   9.957   3.977   8.870  0.4407  0.7860  0.5690
  698MOL0     C94130   9.900   3.913   8.761  0.2260 -0.1216  0.0993
  698MOL0     O94131   9.855   3.968   8.647  0.0585 -0.3539  0.3258
  698MOL0     C94132   9.904   4.100   8.627  0.3226 -0.5764  0.3018
  698MOL0     C94133   9.851   4.152   8.489 -0.8029 -0.6563 -0.1189
  698MOL0     C94134   9.871   4.050   8.377  0.2612  0.3391  0.3414
  698MOL0     C94135   9.801   4.100   8.243  0.6193  0.0901  0.2534
  698MOL0     C94136   9.841   3.998   8.142  0.1579  0.1992 -0.9863
  698MOL0     C94137   9.769   4.026   8.009  1.0032  0.2928  1.0637
  698MOL0     C94138   9.616   4.003   8.036  0.7873 -0.2220 -0.4084
  698MOL0     C94139   9.534   3.993   7.896 -0.2119 -0.3887 -0.2840
  698MOL0    Cl94140   9.564   4.129   7.781 -0.3538  0.2085 -0.4880
  698MOL0     C94141   9.916   3.777   8.749  0.0403  0.3196  0.1338
  698MOL0     C94142   9.979   3.696   8.848 -0.0279 -0.7742 -0.0654
  698MOL0     O94143  10.245   3.629   8.895 -0.2236 -0.2351 -0.6044
  698MOL0     C94144  10.268   3.601   9.247 -0.5139 -0.0089  0.0104
  698MOL0     C94145  10.348   3.573   9.353 -0.2426 -0.3510  0.1507
  698MOL0     N94146  10.784   3.196   9.924 -0.4891 -0.2058  0.3916
  698MOL0     N94147  10.735   3.196  10.045  0.0421 -0.1815 -0.5596
  698MOL0     C94148  10.253   3.974   9.519  0.1795 -0.0968  1.2744
  698MOL0     C94149  10.284   3.970   9.384 -0.5926 -0.1179 -0.3031
  698MOL0     C94150  10.579   4.049   9.035 -0.0260 -0.3900  0.6132
  698MOL0     C94151  10.488   4.027   8.942 -0.3415  0.2716  0.8212
  698MOL0     C94152  10.525   4.048   8.803  0.6855  0.4646  0.1007
  698MOL0     C94153  10.654   4.083   8.759 -0.3016 -0.2660  1.0575
  698MOL0     O94154  10.674   4.080   8.624  0.5224  0.1639  0.6653
  698MOL0     C94155  10.810   4.077   8.574 -0.4482 -0.3355 -0.0588
  698MOL0     C94156  10.843   4.207   8.508 -1.0938 -0.7868 -0.0332
  698MOL0     C94157  10.752   4.214   8.372  0.6197 -0.2614 -0.4229
  698MOL0     C94158  10.837   4.236   8.245 -0.5912  0.6343 -0.0982
  698MOL0     C94159  10.898   4.371   8.233 -1.8702 -0.2787  0.2539
  698MOL0     C94160  10.920   4.487   8.241 -0.4287 -0.5074 -0.6132
  698MOL0     C94161  10.746   4.113   8.861  0.7187 -0.7780  0.2879
  698MOL0     C94162  10.708   4.100   8.997  0.4991 -0.5152  0.2127
  698MOL0     H94163  10.602   3.871   9.399 -0.9611 -1.4884 -1.2584
  698MOL0     H94164  10.542   3.885   9.658  0.3176  1.0476  0.6880
  698MOL0     H94165  10.118   3.889   9.734 -0.7933  0.1611  3.1856
  698MOL0     H94166  10.221   3.748   9.733  1.1583 -1.5522  3.9406
  698MOL0     H94167  10.232   3.948   9.949 -0.3849 -0.4504  4.9099
  698MOL0     H94168  10.100   3.827   9.953 -0.0116 -2.2849  0.9618
  698MOL0     H94169  10.404   3.753   9.940  1.2740  0.4557  1.1330
  698MOL0     H94170  10.307   3.778  10.091 -0.9407  0.2452  0.0217
  698MOL0     H94171  10.148   3.604   9.942 -0.1801  2.5309 -1.7261
  698MOL0     H94172  10.296   3.572   9.871  1.4099  1.2787  0.7201
  698MOL0     H94173  10.255   3.535  10.167 -1.7225 -3.2662 -0.2928
  698MOL0     H94174  10.229   3.415  10.047 -4.7608  1.7383  0.7634
  698MOL0     H94175  10.486   3.465   9.974 -0.6917 -0.0323 -0.0469
  698MOL0     H94176  10.486   3.591  10.102  2.3920 -2.1516  3.3814
  698MOL0     H94177  10.435   3.406  10.267  0.0228 -4.4249  2.6939
  698MOL0     H94178  10.443   3.288  10.143 -2.2702  2.2559 -1.3955
  698MOL0     H94179  10.666   3.306  10.282  0.3803 -2.9990 -2.9865
  698MOL0     H94180  10.666   3.479  10.212  1.3137 -0.2828 -2.1479
  698MOL0     H94181  10.731   3.521   9.973 -0.3941 -0.0160  0.3336
  698MOL0     H94182  10.874   3.478   9.732 -2.2245  2.1167 -1.3464
  698MOL0     H94183  10.909   3.310   9.724  0.4527  0.5797  3.7179
  698MOL0     H94184  10.655   3.300   9.618 -0.0275  0.1447 -0.8150
  698MOL0     H94185  10.775   3.404   9.547 -1.4720  2.4958  0.6528
  698MOL0     H94186  10.687   3.609   9.651  3.9196 -2.2433 -3.1230
  698MOL0     H94187  10.589   3.501   9.758  0.0002 -4.3449 -0.2372
  698MOL0     H94188  10.459   3.605   9.594 -0.7758  0.0390  0.9101
  698MOL0     H94189  10.457   3.437   9.566 -2.7488  1.4750 -0.6580
  698MOL0     H94190  10.643   3.588   9.198 -0.4142  1.3267  0.3626
  698MOL0     H94191  10.472   3.587   8.884  0.4484 -2.4437  0.0496
  698MOL0     H94192  10.571   3.718   8.946  1.9359 -0.3686  3.1413
  698MOL0     H94193  10.625   3.554   8.973 -0.2414  0.4703  4.2331
  698MOL0     H94194  10.082   3.955   9.052  2.1342 -1.9782  0.4693
  698MOL0     H94195   9.951   4.085   8.874 -0.3886  0.8700 -1.4422
  698MOL0     H94196   9.855   4.151   8.710  1.0178 -1.8703  1.5531
  698MOL0     H94197  10.013   4.102   8.629  0.6139 -3.0692 -3.0170
  698MOL0     H94198   9.744   4.172   8.489 -0.8102 -0.5431 -1.7229
  698MOL0     H94199   9.904   4.240   8.452 -0.6631 -1.3300 -1.6031
  698MOL0     H94200   9.818   3.958   8.403 -2.0055  1.7314  0.9112
  698MOL0     H94201   9.978   4.025   8.374 -0.2683 -2.3520  1.3859
  698MOL0     H94202   9.694   4.118   8.258  0.7147  3.8480 -2.0855
  698MOL0     H94203   9.848   4.197   8.224  1.1464 -0.3577 -0.8098
  698MOL0     H94204   9.838   3.893   8.171  0.9515 -0.6811 -3.7683
  698MOL0     H94205   9.949   4.009   8.128  1.2634 -1.9148  3.7419
  698MOL0     H94206   9.771   4.128   7.969 -2.7965  0.6148  1.3946
  698MOL0     H94207   9.812   3.955   7.937  1.9179  3.4723 -1.8322
  698MOL0     H94208   9.577   4.088   8.092  0.8614  0.5498 -1.4823
  698MOL0     H94209   9.603   3.907   8.086  0.3152 -0.6808 -1.3780
  698MOL0     H94210   9.427   4.001   7.918  0.0482  1.0595  0.5536
  698MOL0     H94211   9.537   3.895   7.847  2.3821 -0.5197  0.0122
  698MOL0     H94212   9.859   3.729   8.670 -0.7686 -0.2524  1.0437
  698MOL0     H94213   9.999   3.590   8.860  2.1008 -0.2056  2.3424
  698MOL0     H94214  10.162   3.602   9.267 -0.4680  0.9424  0.2300
  698MOL0     H94215  10.301   3.568   9.451  2.8944  2.8613  2.0562
  698MOL0     H94216  10.154   3.998   9.555 -1.6010 -2.3493 -1.6529
  698MOL0     H94217  10.212   3.989   9.305  1.2410 -0.0180 -2.0395
  698MOL0     H94218  10.389   3.993   8.970  0.6975 -0.3506  4.1868
  698MOL0     H94219  10.456   4.022   8.724  1.0341 -1.5671  0.4089
  698MOL0     H94220  10.882   4.058   8.655  0.8017 -1.0312 -1.2832
  698MOL0     H94221  10.818   3.997   8.499 -1.7450  1.4687 -2.2458
  698MOL0     H94222  10.949   4.213   8.479 -0.8174  2.0313  1.1579
  698MOL0     H94223  10.835   4.297   8.570  1.3114  0.1589 -0.9367
  698MOL0     H94224  10.682   4.297   8.374  1.2917  0.3589 -1.5447
  698MOL0     H94225  10.705   4.117   8.350  2.3767 -0.1810 -6.3424
  698MOL0     H94226  10.769   4.231   8.160 -0.0192 -0.2226 -0.5154
  698MOL0     H94227  10.907   4.153   8.232  0.5819  1.8599 -2.1065
  698MOL0     H94228  10.929   4.593   8.252 -0.4387 -0.6112  0.5186
  698MOL0     H94229  10.843   4.146   8.824 -0.1446  0.9414 -0.5653
  698MOL0     H94230  10.778   4.128   9.075  0.6975  2.0296 -0.7672
  699MOL0     O94231   6.804   4.763  10.259 -0.0623  0.6431  0.8525
  699MOL0     C94232   6.738   4.655  10.260 -0.0691  0.2288 -0.7044
  699MOL0     O94233   6.746   4.565  10.360 -0.1396  0.8235 -1.1848
  699MOL0     C94234   6.852   4.591  10.449 -0.1476 -0.4693  0.6268
  699MOL0     C94235   6.986   4.616  10.418  1.2116 -0.2106 -0.3176
  699MOL0     C94236   7.084   4.624  10.516  0.2152  0.5795 -0.5297
  699MOL0     C94237   7.041   4.605  10.653 -0.4648 -1.0035  1.0304
  699MOL0     O94238   7.134   4.620  10.756 -0.4828 -0.1150  0.4652
  699MOL0     C94239   7.271   4.625  10.724  0.6132  0.0441  0.4154
  699MOL0     C94240   7.349   4.642  10.860  0.6174  0.1427  0.7710
  699MOL0     C94241   7.498   4.651  10.836  0.9496 -0.1578  0.3137
  699MOL0     C94242   7.579   4.699  10.955  0.1454 -0.0355 -0.4611
  699MOL0     C94243   7.583   4.856  10.965  0.4659 -0.1495  0.6487
  699MOL0     C94244   7.642   4.920  11.090  0.6051  0.4670 -0.1318
  699MOL0     C94245   7.787   4.971  11.094 -0.4524 -0.6074 -0.0907
  699MOL0     C94246   7.881   4.848  11.085  0.0294 -0.2882  0.8482
  699MOL0     N94247   8.015   4.907  11.102 -0.4902 -0.3981 -0.4026
  699MOL0     C94248   8.053   4.991  11.202  0.1153  0.5305 -1.2240
  699MOL0     C94249   8.172   5.042  11.168  0.8090  0.5562 -0.3123
  699MOL0     C94250   8.262   5.135  11.249 -0.2897 -0.1668  0.0159
  699MOL0     C94251   8.316   5.058  11.370 -0.7840  0.1092 -0.0074
  699MOL0     C94252   8.378   5.165  11.464 -0.1136  1.1899  0.4075
  699MOL0     C94253   8.410   5.102  11.602 -0.3628 -0.7300 -0.2429
  699MOL0     O94254   8.495   5.186  11.679 -0.7393  0.6669 -0.5300
  699MOL0     C94255   8.427   5.283  11.746  0.1960  0.2413  0.6956
  699MOL0     C94256   8.324   5.251  11.837 -0.4273 -0.0908  1.6363
  699MOL0     C94257   8.241   5.344  11.894 -1.0144 -1.0195  0.2543
  699MOL0     C94258   8.144   5.295  11.991  0.3489 -0.4236  0.2569
  699MOL0     C94259   8.274   5.486  11.865  0.5683  0.0198  0.0950
  699MOL0     C94260   8.201   5.596  11.922  0.1891  0.2592  0.2164
  699MOL0     O94261   8.272   5.720  11.931 -0.2768  1.1042  0.3398
  699MOL0     C94262   8.228   5.814  12.022  1.0608  0.1297 -0.9172
  699MOL0     C94263   8.302   5.819  12.133  0.1398 -0.0831  0.5753
  699MOL0     C94264   8.251   5.893  12.245 -0.9807  0.1683 -0.2549
  699MOL0     C94265   8.146   5.987  12.231  0.2146  0.2901 -0.0865
  699MOL0     O94266   8.116   6.090  12.321  0.2770  0.0011 -0.1884
  699MOL0     C94267   8.006   6.189  12.303 -0.4124  0.0783  1.0824
  699MOL0     C94268   8.052   6.319  12.375 -0.2382 -0.6640 -0.3076
  699MOL0     C94269   7.951   6.426  12.387  0.4351 -0.1458  0.0865
  699MOL0     C94270   7.847   6.403  12.504  0.3028 -0.6497  0.5455
  699MOL0     C94271   7.732   6.504  12.499 -0.0456  0.0817 -0.3211
  699MOL0     C94272   7.676   6.530  12.362  0.6260  0.7378  0.6237
  699MOL0     C94273   7.533   6.600  12.379  0.0136 -0.6236  0.3171
  699MOL0     C94274   7.485   6.643  12.236 -0.0193  0.1386  0.9205
  699MOL0    Cl94275   7.462   6.515  12.124 -0.0464  0.0708  0.0109
  699MOL0     C94276   8.077   5.975  12.112 -0.2443  0.5639 -0.4198
  699MOL0     C94277   8.118   5.892  12.004 -0.5462 -0.6713  0.7194
  699MOL0     O94278   8.090   5.572  11.967  0.1506  0.1963 -0.3904
  699MOL0     C94279   8.383   5.519  11.783  0.8919 -0.4385 -0.0169
  699MOL0     C94280   8.459   5.419  11.723  0.3359  0.4102 -0.1563
  699MOL0     N94281   8.211   4.987  11.050 -0.1844 -0.4922  0.4937
  699MOL0     N94282   8.121   4.899  11.012  0.1030  0.5635  0.7055
  699MOL0     C94283   6.910   4.594  10.681  0.1833  0.4833 -0.1111
  699MOL0     C94284   6.812   4.578  10.579  0.0886  0.5492 -0.3329
  699MOL0     C94285   6.625   4.642  10.163  1.3518 -0.0268  0.9831
  699MOL0     C94286   6.523   4.541  10.178 -0.4594  0.8553  0.4720
  699MOL0     C94287   6.414   4.519  10.095  0.2631 -0.5383  0.2912
  699MOL0     C94288   6.401   4.607   9.989  0.5869  0.1139  0.6368
  699MOL0     O94289   6.291   4.589   9.908 -0.4595  0.3853 -0.2859
  699MOL0     C94290   6.306   4.526   9.786  0.1732  0.1935  0.0921
  699MOL0     C94291   6.369   4.385   9.779 -0.3915 -0.1790 -0.7261
  699MOL0     C94292   6.294   4.269   9.856 -0.9333 -0.1553 -0.1433
  699MOL0     C94293   6.162   4.231   9.813 -0.0845 -0.2443 -0.2977
  699MOL0     C94294   6.166   4.209   9.673 -0.6439 -0.0284  0.0751
  699MOL0     C94295   6.173   4.179   9.552 -0.0870 -0.5143  0.6622
  699MOL0     C94296   6.501   4.716   9.960 -1.2450  0.2620  0.0461
  699MOL0     C94297   6.606   4.732  10.053  0.4808  0.7537  0.8016
  699MOL0     H94298   7.029   4.615  10.318  2.2316  0.5412  0.0932
  699MOL0     H94299   7.190   4.616  10.493  0.8948  0.3129  2.3506
  699MOL0     H94300   7.303   4.529  10.681  1.5734 -0.9577  3.1227
  699MOL0     H94301   7.298   4.715  10.667  0.2249  1.2423  2.0710
  699MOL0     H94302   7.322   4.735  10.912  0.4053 -0.7230  2.2679
  699MOL0     H94303   7.333   4.559  10.929 -1.1252 -1.4226 -1.3847
  699MOL0     H94304   7.537   4.552  10.810  1.3636  0.2153 -0.5204
  699MOL0     H94305   7.527   4.716  10.753 -0.2543  0.1107  0.0824
  699MOL0     H94306   7.541   4.659  11.049  0.8029  0.5631  0.0739
  699MOL0     H94307   7.682   4.660  10.948  0.0738 -0.1166 -1.0743
  699MOL0     H94308   7.627   4.909  10.880 -1.1335 -1.8145 -1.3392
  699MOL0     H94309   7.476   4.881  10.972  0.1601  0.5699 -3.6273
  699MOL0     H94310   7.566   4.996  11.111 -0.8481 -0.6745 -1.0922
  699MOL0     H94311   7.644   4.854  11.177  0.2559  0.4085 -0.1694
  699MOL0     H94312   7.803   5.047  11.017  0.2520 -1.8135 -1.1676
  699MOL0     H94313   7.805   5.023  11.188 -1.4810 -1.0350  0.3505
  699MOL0     H94314   7.873   4.792  10.992  1.2137  0.0804  0.4966
  699MOL0     H94315   7.855   4.780  11.166 -1.9117  1.0571  1.4151
  699MOL0     H94316   7.994   5.003  11.292 -1.6435  0.1734 -2.2741
  699MOL0     H94317   8.339   5.188  11.192 -2.4934  1.3256 -1.7968
  699MOL0     H94318   8.194   5.210  11.291  1.6212  2.5040 -1.3856
  699MOL0     H94319   8.395   4.990  11.335 -0.0574  1.2096 -0.5601
  699MOL0     H94320   8.238   5.003  11.423 -3.8152  3.4368 -0.6401
  699MOL0     H94321   8.320   5.258  11.470 -0.3175  1.0313  0.9846
  699MOL0     H94322   8.476   5.196  11.426  1.0037 -1.1761  1.1477
  699MOL0     H94323   8.467   5.008  11.601 -0.1639 -0.6519  1.1484
  699MOL0     H94324   8.314   5.083  11.650 -0.5068  0.4000 -0.0636
  699MOL0     H94325   8.324   5.147  11.869 -3.2360 -0.5212  0.5513
  699MOL0     H94326   8.046   5.324  11.953 -0.4622 -0.5321  2.1517
  699MOL0     H94327   8.151   5.193  12.031  3.0175 -1.2100 -1.8982
  699MOL0     H94328   8.150   5.362  12.078 -3.6775  0.0279  0.3535
  699MOL0     H94329   8.401   5.773  12.140  1.0094  1.4549 -0.9740
  699MOL0     H94330   8.314   5.892  12.333 -1.4905 -3.6730  0.2438
  699MOL0     H94331   8.000   6.229  12.202 -0.3450 -0.7777  0.7307
  699MOL0     H94332   7.908   6.149  12.330 -0.7389 -0.7133 -1.0966
  699MOL0     H94333   8.092   6.300  12.475  1.8605  0.2075 -0.9392
  699MOL0     H94334   8.138   6.349  12.314 -0.6112  2.3142  0.5163
  699MOL0     H94335   7.904   6.436  12.289 -0.1049  0.7329  0.4224
  699MOL0     H94336   7.999   6.524  12.392 -1.3749  0.9248 -1.8324
  699MOL0     H94337   7.818   6.298  12.488 -3.6916  0.3143  0.4056
  699MOL0     H94338   7.885   6.405  12.607 -1.4498 -0.6754  1.2145
  699MOL0     H94339   7.782   6.594  12.536  2.1560  0.8883 -4.5575
  699MOL0     H94340   7.654   6.469  12.566 -2.3989 -0.2184 -3.0426
  699MOL0     H94341   7.741   6.596  12.304 -1.4089  0.4089 -2.2337
  699MOL0     H94342   7.660   6.433  12.313 -1.6059  0.6463  1.3988
  699MOL0     H94343   7.540   6.685  12.447 -0.1881 -0.6418  0.3602
  699MOL0     H94344   7.458   6.525  12.404  0.1985 -1.0201 -0.2864
  699MOL0     H94345   7.544   6.720  12.186  1.1984 -0.7392  0.9703
  699MOL0     H94346   7.395   6.705  12.246  0.1989  0.5662  0.2664
  699MOL0     H94347   7.995   6.045  12.096 -1.4114 -1.0057 -1.6161
  699MOL0     H94348   8.069   5.891  11.907 -1.4978 -0.2071  1.1761
  699MOL0     H94349   8.409   5.623  11.765 -0.5548 -0.0745 -0.0975
  699MOL0     H94350   8.538   5.451  11.656  1.6828  0.1958  1.2831
  699MOL0     H94351   6.890   4.585  10.787  4.5044  0.8293  0.9223
  699MOL0     H94352   6.708   4.551  10.595 -0.2983 -0.4802 -3.8399
  699MOL0     H94353   6.541   4.459  10.247  0.4664 -0.5568 -1.3562
  699MOL0     H94354   6.343   4.439  10.112  0.1702 -0.3079  1.0140
  699MOL0     H94355   6.201   4.523   9.756 -1.1712 -0.9784  4.1907
  699MOL0     H94356   6.358   4.596   9.721 -2.5171  0.7831 -1.5793
  699MOL0     H94357   6.470   4.387   9.821 -0.3514  0.1534 -0.8326
  699MOL0     H94358   6.394   4.359   9.676  3.0054  2.8132 -0.8340
  699MOL0     H94359   6.290   4.307   9.959 -1.0289  1.7391 -0.8044
  699MOL0     H94360   6.366   4.187   9.845  1.8534  1.4454  3.8420
  699MOL0     H94361   6.088   4.310   9.828  2.6067  3.1971 -3.2855
  699MOL0     H94362   6.128   4.140   9.863 -2.3142  1.0505  0.6547
  699MOL0     H94363   6.178   4.153   9.448 -0.3969 -0.9852  0.7640
  699MOL0     H94364   6.481   4.785   9.878  2.7244  0.1535 -1.2065
  699MOL0     H94365   6.687   4.800  10.026  0.4914  0.4509  0.0594
  700MOL0     O94366   5.921   8.155   4.894  0.4372  0.2575 -0.9691
  700MOL0     C94367   6.036   8.167   4.921 -0.9031  0.9475 -0.8795
  700MOL0     O94368   6.110   8.274   4.888 -0.6323  0.3066 -0.2135
  700MOL0     C94369   6.056   8.376   4.816  0.0583  0.3853 -0.4575
  700MOL0     C94370   6.048   8.503   4.866 -0.6896 -0.0819 -0.1521
  700MOL0     C94371   6.002   8.610   4.781 -0.3084 -0.3990 -0.4046
  700MOL0     C94372   5.965   8.580   4.645 -0.2940 -0.4680 -0.4763
  700MOL0     O94373   5.905   8.690   4.586 -0.9403 -0.1969  0.0519
  700MOL0     C94374   5.918   8.679   4.444  0.7530  0.9202 -0.9210
  700MOL0     C94375   5.882   8.809   4.381 -0.9238 -0.6531 -0.4114
  700MOL0     C94376   5.820   8.818   4.242  0.7540  0.5452  0.8793
  700MOL0     C94377   5.672   8.797   4.262  1.0050  0.6955 -1.0702
  700MOL0     C94378   5.599   8.815   4.119  0.5800  0.4588 -0.7866
  700MOL0     C94379   5.458   8.757   4.109 -0.8790 -0.3267 -0.0098
  700MOL0     C94380   5.379   8.798   4.231 -0.6491 -0.4126  0.1588
  700MOL0     C94381   5.374   8.956   4.255  0.1534  0.4207 -0.2019
  700MOL0     N94382   5.303   9.026   4.137  0.3146  0.5918 -0.5228
  700MOL0     C94383   5.345   9.135   4.064 -0.1322 -0.7707 -0.0193
  700MOL0     C94384   5.238   9.168   3.993 -0.4439 -0.5692  0.4258
  700MOL0     C94385   5.225   9.288   3.898 -0.7959 -0.1774  0.5909
  700MOL0     C94386   5.238   9.250   3.749  0.7948  0.5641  0.7421
  700MOL0     C94387   5.220   9.367   3.652 -0.8927 -0.0169 -0.0670
  700MOL0     C94388   5.206   9.339   3.509 -0.5128 -0.6380  0.0697
  700MOL0     O94389   5.342   9.303   3.476  0.6753  0.1220  0.5106
  700MOL0     C94390   5.367   9.196   3.390  1.7547 -0.3139  0.5547
  700MOL0     C94391   5.280   9.169   3.280 -0.3675  0.0959 -0.4952
  700MOL0     C94392   5.279   9.052   3.205  0.3534 -0.1740  0.8492
  700MOL0     C94393   5.160   9.047   3.107  0.1748 -0.3683  0.3489
  700MOL0     C94394   5.381   8.955   3.236  0.2591  0.0124 -0.6571
  700MOL0     C94395   5.382   8.823   3.170 -0.3307  0.3101  0.3231
  700MOL0     O94396   5.478   8.733   3.213 -0.1975  0.2292 -0.3567
  700MOL0     C94397   5.478   8.609   3.154  0.0863 -0.2302  0.1236
  700MOL0     C94398   5.437   8.493   3.225 -0.1923  0.0614 -1.0971
  700MOL0     C94399   5.448   8.367   3.168  0.2577 -0.1564  0.1131
  700MOL0     C94400   5.496   8.361   3.036 -0.0782  0.1137  0.5680
  700MOL0     O94401   5.509   8.232   2.992 -0.3119  0.3764 -0.4893
  700MOL0     C94402   5.615   8.200   2.901 -0.0183 -0.5845  0.1664
  700MOL0     C94403   5.655   8.048   2.929  0.6958  0.2549 -0.2413
  700MOL0     C94404   5.772   7.994   2.852  0.3650  0.5008  0.3908
  700MOL0     C94405   5.801   7.847   2.858 -0.0943  0.5115  0.4467
  700MOL0     C94406   5.863   7.789   2.726 -1.0475 -0.6395  0.8091
  700MOL0     C94407   5.882   7.639   2.731 -0.0354 -0.2202  0.0060
  700MOL0     C94408   5.968   7.582   2.610  0.3463 -0.4717 -0.9148
  700MOL0     C94409   6.022   7.437   2.631  0.0231  0.7441 -0.6659
  700MOL0    Cl94410   5.886   7.331   2.592  0.4585 -0.2636 -0.4387
  700MOL0     C94411   5.539   8.473   2.967 -0.5444 -0.0197  0.6076
  700MOL0     C94412   5.528   8.601   3.021 -0.0051  0.6784  0.8917
  700MOL0     O94413   5.298   8.792   3.085  0.0560 -0.0977  0.3445
  700MOL0     C94414   5.469   8.989   3.352  0.5045  0.0937  0.9255
  700MOL0     C94415   5.456   9.106   3.435 -0.9383  0.7613  0.1228
  700MOL0     N94416   5.142   9.072   4.002 -0.7596 -0.3646  0.6994
  700MOL0     N94417   5.188   8.983   4.087  0.4973 -0.3758  0.1814
  700MOL0     C94418   5.959   8.441   4.599  0.2379 -0.8725  0.2298
  700MOL0     C94419   6.010   8.344   4.686  0.6376  0.2323  0.5511
  700MOL0     C94420   6.108   8.058   4.988  0.3142  0.5167  0.6238
  700MOL0     C94421   6.241   8.073   5.025  0.3449  0.0391 -0.3826
  700MOL0     C94422   6.294   7.965   5.096  0.2963  0.3915  0.6640
  700MOL0     C94423   6.236   7.847   5.141 -0.3942  0.0104 -0.0632
  700MOL0     O94424   6.292   7.750   5.219  0.1936  0.4286  0.3294
  700MOL0     C94425   6.437   7.777   5.252  0.4059 -0.4829 -0.6871
  700MOL0     C94426   6.495   7.680   5.356  0.5396  0.3883  0.6283
  700MOL0     C94427   6.422   7.691   5.490 -0.0415 -0.4478  0.2398
  700MOL0     C94428   6.484   7.612   5.604  1.3721 -0.3095  1.1196
  700MOL0     C94429   6.588   7.695   5.660  0.2045  0.7017 -0.3500
  700MOL0     C94430   6.686   7.755   5.705  0.3304 -0.5980 -0.3999
  700MOL0     C94431   6.103   7.846   5.116  0.2488 -0.8221  0.9099
  700MOL0     C94432   6.041   7.945   5.041  0.7808  0.1593  0.3215
  700MOL0     H94433   6.082   8.530   4.965  0.2558  0.4862 -0.6164
  700MOL0     H94434   5.993   8.711   4.819  1.8927 -0.3438  0.0826
  700MOL0     H94435   6.018   8.641   4.423  0.4934 -0.1580 -0.2622
  700MOL0     H94436   5.841   8.607   4.415  0.5055  1.0082 -0.4858
  700MOL0     H94437   5.817   8.853   4.458  1.3185  1.6909  0.2866
  700MOL0     H94438   5.974   8.869   4.381 -0.1948 -1.6804 -2.9527
  700MOL0     H94439   5.857   8.917   4.215 -0.5961  0.8986  0.2445
  700MOL0     H94440   5.847   8.754   4.157 -2.3137  3.0073 -2.2270
  700MOL0     H94441   5.653   8.695   4.295  1.9217 -0.1841 -3.0584
  700MOL0     H94442   5.632   8.871   4.332 -0.8686  0.4936 -1.8573
  700MOL0     H94443   5.588   8.922   4.103 -1.0121  0.5292  0.5576
  700MOL0     H94444   5.642   8.774   4.026 -2.1679 -4.0620 -0.4057
  700MOL0     H94445   5.420   8.805   4.019  0.2019 -0.0287 -0.3144
  700MOL0     H94446   5.464   8.648   4.098  0.0209 -0.5425  2.1202
  700MOL0     H94447   5.277   8.758   4.233 -0.7434 -0.1777  1.8229
  700MOL0     H94448   5.433   8.749   4.313  0.3744  0.0090 -0.2509
  700MOL0     H94449   5.479   8.987   4.257  1.3706 -2.9839 -2.1488
  700MOL0     H94450   5.335   8.970   4.356 -0.0739 -4.3688  0.6376
  700MOL0     H94451   5.437   9.190   4.074 -0.7576 -0.0132  2.0466
  700MOL0     H94452   5.132   9.341   3.921 -3.8817 -3.3085 -3.3303
  700MOL0     H94453   5.310   9.356   3.910  1.1302 -2.3827  0.1067
  700MOL0     H94454   5.169   9.168   3.729  1.2851 -0.0805  1.5971
  700MOL0     H94455   5.338   9.206   3.737  0.1450 -1.1860  1.4669
  700MOL0     H94456   5.307   9.427   3.681  1.9399 -3.7670  0.0470
  700MOL0     H94457   5.133   9.424   3.683 -0.6381  0.8303 -0.8707
  700MOL0     H94458   5.153   9.420   3.457  1.4133  1.3670  1.0674
  700MOL0     H94459   5.141   9.251   3.512 -0.3111 -0.7594  1.1638
  700MOL0     H94460   5.201   9.242   3.266 -0.7879 -0.5100 -1.4112
  700MOL0     H94461   5.122   9.147   3.081  0.5523  0.1389  1.6575
  700MOL0     H94462   5.196   9.010   3.011  0.0600  1.1544 -0.3131
  700MOL0     H94463   5.083   8.980   3.145 -0.6091 -0.9351 -2.1019
  700MOL0     H94464   5.398   8.498   3.326  0.0515  0.2494 -1.0115
  700MOL0     H94465   5.426   8.278   3.227 -0.6110 -0.0441 -0.0214
  700MOL0     H94466   5.588   8.206   2.796 -0.2718 -0.2799  0.2472
  700MOL0     H94467   5.697   8.273   2.912 -1.1202  0.9506 -1.3600
  700MOL0     H94468   5.686   8.044   3.034 -0.2882  0.3646  0.0646
  700MOL0     H94469   5.558   7.998   2.920  0.7259 -0.2398  1.6564
  700MOL0     H94470   5.859   8.055   2.879 -0.5039  1.6778  0.6150
  700MOL0     H94471   5.747   8.020   2.749 -2.4379 -0.4053  0.7710
  700MOL0     H94472   5.857   7.811   2.945  0.0847  2.8067  1.3565
  700MOL0     H94473   5.708   7.790   2.865  2.3170 -3.8590  0.2674
  700MOL0     H94474   5.964   7.830   2.713  0.9191 -5.3151 -0.4964
  700MOL0     H94475   5.794   7.821   2.647 -0.1186 -0.5737  0.0028
  700MOL0     H94476   5.928   7.617   2.828 -1.4069 -1.9281  0.3119
  700MOL0     H94477   5.782   7.596   2.735 -1.0029  1.7196 -1.4650
  700MOL0     H94478   6.059   7.643   2.608  1.0121 -1.1835  2.5129
  700MOL0     H94479   5.930   7.600   2.509  1.5133  2.9631 -0.8613
  700MOL0     H94480   6.054   7.429   2.735 -0.1486 -1.6731 -0.7502
  700MOL0     H94481   6.109   7.423   2.567 -1.2228  0.8416 -2.4486
  700MOL0     H94482   5.586   8.475   2.869  0.0954  0.7375  0.9133
  700MOL0     H94483   5.547   8.690   2.962 -3.7824  3.6256  3.5902
  700MOL0     H94484   5.558   8.928   3.369 -0.2668 -1.1622  0.5483
  700MOL0     H94485   5.519   9.133   3.519 -0.1564 -0.3591 -0.0834
  700MOL0     H94486   5.930   8.420   4.497  2.5397  3.7536 -1.6808
  700MOL0     H94487   6.002   8.241   4.654  0.6766  0.2712  0.4120
  700MOL0     H94488   6.299   8.165   5.022  1.2137 -0.4430  1.0261
  700MOL0     H94489   6.401   7.971   5.109  0.8878 -2.9547 -1.3893
  700MOL0     H94490   6.497   7.758   5.162  0.4957  0.4944 -0.8456
  700MOL0     H94491   6.461   7.877   5.289  0.2391 -1.5231  2.4652
  700MOL0     H94492   6.602   7.705   5.361  0.4281  2.1366 -2.7717
  700MOL0     H94493   6.487   7.584   5.304 -1.9174  1.4168 -1.0822
  700MOL0     H94494   6.321   7.654   5.470 -0.6463 -0.1476  2.4688
  700MOL0     H94495   6.412   7.792   5.531 -0.2957 -0.6368  0.6605
  700MOL0     H94496   6.518   7.520   5.557  2.4915  1.3623 -1.5422
  700MOL0     H94497   6.402   7.590   5.674  1.3992  0.7166  1.5015
  700MOL0     H94498   6.770   7.812   5.741 -0.7858  0.3072  0.8730
  700MOL0     H94499   6.049   7.761   5.156  3.4047 -3.8865 -0.8437
  700MOL0     H94500   5.935   7.933   5.021  1.3977 -2.6553 -1.9509
  701MOL0     O94501   3.046   1.362  10.583 -0.0776  0.0781 -0.2359
  701MOL0     C94502   3.148   1.298  10.547  0.4733  0.2651  0.2648
  701MOL0     O94503   3.250   1.341  10.469  0.2416 -0.4537 -0.1627
  701MOL0     C94504   3.254   1.480  10.437 -0.4960  0.7016 -0.2120
  701MOL0     C94505   3.239   1.566  10.545  0.0951  0.7474  0.6379
  701MOL0     C94506   3.255   1.710  10.530  1.2117 -0.2131  0.0742
  701MOL0     C94507   3.275   1.762  10.405 -0.3540 -0.1982  0.1492
  701MOL0     O94508   3.285   1.893  10.373 -0.1995  0.1865 -0.9059
  701MOL0     C94509   3.280   1.988  10.476 -0.4267  0.6306 -0.5249
  701MOL0     C94510   3.279   2.140  10.417 -0.3178  0.2111 -0.2733
  701MOL0     C94511   3.227   2.227  10.530  0.3588 -0.2915  0.6623
  701MOL0     C94512   3.319   2.228  10.651 -1.3601  0.0241 -0.3675
  701MOL0     C94513   3.444   2.310  10.608 -0.1152  0.0085 -0.0999
  701MOL0     C94514   3.487   2.420  10.701  0.2168  1.1119  0.0093
  701MOL0     C94515   3.610   2.493  10.639  0.3123  0.6202  0.7394
  701MOL0     C94516   3.736   2.431  10.692  1.2011  0.1535 -0.2763
  701MOL0     N94517   3.754   2.421  10.839  0.7726  0.0203  0.3523
  701MOL0     C94518   3.703   2.497  10.947  0.3809  0.8169 -0.1269
  701MOL0     C94519   3.761   2.450  11.052  0.2336 -0.7794 -0.7266
  701MOL0     C94520   3.741   2.507  11.186 -0.1397  0.2461  0.7594
  701MOL0     C94521   3.842   2.607  11.229 -0.1190  0.1067  0.0181
  701MOL0     C94522   3.845   2.751  11.149  0.5241  0.1266 -0.2590
  701MOL0     C94523   3.980   2.800  11.094 -0.2876  0.4189  0.1430
  701MOL0     O94524   3.969   2.749  10.960  0.8582 -0.5853  0.4058
  701MOL0     C94525   4.088   2.749  10.895  0.5601 -0.5623  0.1863
  701MOL0     C94526   4.099   2.833  10.793  0.3425  0.0745  0.2072
  701MOL0     C94527   4.215   2.840  10.716  1.0954 -0.0490 -0.4227
  701MOL0     C94528   4.227   2.947  10.610 -0.0492  0.2864  0.4444
  701MOL0     C94529   4.323   2.745  10.740 -0.2741  0.2068 -0.6162
  701MOL0     C94530   4.441   2.735  10.660 -0.0188 -1.0938  0.8662
  701MOL0     O94531   4.437   2.798  10.532 -0.2313 -0.7785  0.4266
  701MOL0     C94532   4.541   2.783  10.438 -0.2948  0.3190  0.4885
  701MOL0     C94533   4.577   2.891  10.359  1.5327 -0.0249 -0.3627
  701MOL0     C94534   4.675   2.881  10.266  0.1922 -0.8922  0.8694
  701MOL0     C94535   4.749   2.765  10.246  0.4124  0.7916 -0.5969
  701MOL0     O94536   4.846   2.763  10.146 -0.0074 -0.8961 -0.5193
  701MOL0     C94537   4.901   2.633  10.107 -0.0566 -0.6758 -0.4343
  701MOL0     C94538   4.810   2.586   9.998  0.7734 -0.2158 -0.3496
  701MOL0     C94539   4.822   2.666   9.863 -0.4077  0.6616 -0.4743
  701MOL0     C94540   4.893   2.592   9.756  0.0779 -0.1932  1.3516
  701MOL0     C94541   4.927   2.688   9.648 -0.0302  0.2086  0.5509
  701MOL0     C94542   5.030   2.616   9.556 -0.2483 -0.2540 -0.2068
  701MOL0     C94543   5.096   2.705   9.445 -0.4812 -0.1555 -0.0832
  701MOL0     C94544   5.249   2.661   9.411 -0.1195  0.3297  0.4608
  701MOL0    Cl94545   5.234   2.538   9.283 -0.1690  0.1352 -0.3075
  701MOL0     C94546   4.716   2.653  10.328  0.5882  0.3679  0.3470
  701MOL0     C94547   4.620   2.667  10.431  0.1905 -0.1128  0.2692
  701MOL0     O94548   4.540   2.681  10.705 -0.4023  0.1496  0.2925
  701MOL0     C94549   4.311   2.673  10.865  1.0442  0.4544  0.7958
  701MOL0     C94550   4.195   2.670  10.939 -0.5143  0.4131  0.5316
  701MOL0     N94551   3.844   2.352  11.018  0.0415  0.0874  0.8403
  701MOL0     N94552   3.842   2.333  10.885 -0.5135  0.0650  0.6108
  701MOL0     C94553   3.286   1.671  10.296 -1.3335  0.6683  0.7410
  701MOL0     C94554   3.282   1.533  10.316  0.4167 -0.4634  0.4462
  701MOL0     C94555   3.142   1.155  10.588  0.0700 -0.2708  0.0201
  701MOL0     C94556   3.053   1.100  10.684  0.7516 -1.0399  1.0697
  701MOL0     C94557   3.055   0.965  10.718  0.2565  0.2674  0.1891
  701MOL0     C94558   3.145   0.876  10.656  0.6325 -0.1078  0.6918
  701MOL0     O94559   3.130   0.745  10.690 -0.8070  0.6313 -0.5327
  701MOL0     C94560   3.188   0.655  10.597 -0.5402  0.3657 -0.7153
  701MOL0     C94561   3.155   0.513  10.617  0.5730 -0.2850 -0.8783
  701MOL0     C94562   3.193   0.458  10.751  0.7456 -0.7922  0.5942
  701MOL0     C94563   3.229   0.308  10.743  0.1403 -0.6257  0.0228
  701MOL0     C94564   3.356   0.282  10.678  0.0723  0.2534  0.3172
  701MOL0     C94565   3.455   0.253  10.614 -0.1432  1.0807 -0.2245
  701MOL0     C94566   3.240   0.932  10.568 -0.7280  0.0849  0.9521
  701MOL0     C94567   3.232   1.064  10.534  0.5199  0.7857 -0.6114
  701MOL0     H94568   3.230   1.519  10.643 -2.4154 -1.9233 -0.7317
  701MOL0     H94569   3.252   1.771  10.620 -2.3864  2.5909 -1.6973
  701MOL0     H94570   3.196   1.973  10.545  2.6231 -1.6010  3.0605
  701MOL0     H94571   3.354   1.960  10.551 -1.5080 -0.6871  0.0884
  701MOL0     H94572   3.374   2.170  10.372  0.5170  0.3647  1.5165
  701MOL0     H94573   3.205   2.131  10.337 -0.3511 -1.2400 -0.1108
  701MOL0     H94574   3.207   2.331  10.502  2.1760  0.3276  1.5061
  701MOL0     H94575   3.130   2.194  10.567  0.6445  0.4670  2.1445
  701MOL0     H94576   3.271   2.287  10.730 -3.4702  2.2197 -3.0754
  701MOL0     H94577   3.349   2.132  10.694  0.7193  1.3624  1.3792
  701MOL0     H94578   3.523   2.236  10.591  0.7588  0.5821  1.2811
  701MOL0     H94579   3.428   2.361  10.513  1.4488  1.3991  0.3390
  701MOL0     H94580   3.401   2.487  10.704  1.4628  2.8509 -1.2825
  701MOL0     H94581   3.498   2.377  10.801 -1.0444  0.2020 -0.2098
  701MOL0     H94582   3.613   2.494  10.529 -1.5156  0.4272  0.6555
  701MOL0     H94583   3.602   2.601  10.652 -5.2050  0.8456 -1.8696
  701MOL0     H94584   3.821   2.491  10.657  1.5134 -0.7242 -1.0555
  701MOL0     H94585   3.742   2.336  10.639 -0.9960  1.2249 -2.7218
  701MOL0     H94586   3.637   2.584  10.943  1.9248  1.9722 -3.2283
  701MOL0     H94587   3.640   2.538  11.214 -1.0615 -0.2953 -1.6935
  701MOL0     H94588   3.767   2.419  11.246  0.5117  1.3144  2.1117
  701MOL0     H94589   3.939   2.558  11.213 -0.7490 -0.7414 -1.4053
  701MOL0     H94590   3.849   2.621  11.337 -1.0556 -2.0928  0.4118
  701MOL0     H94591   3.814   2.828  11.221  4.6178  3.1111 -1.2894
  701MOL0     H94592   3.766   2.756  11.073 -0.3042 -3.1082  0.2402
  701MOL0     H94593   4.064   2.778  11.161 -0.5056  1.7916  0.9007
  701MOL0     H94594   3.989   2.908  11.077 -1.1322  0.2981 -1.2015
  701MOL0     H94595   4.009   2.890  10.769  0.3863  0.1972  0.3294
  701MOL0     H94596   4.197   2.899  10.516  1.8273 -2.9487  1.3575
  701MOL0     H94597   4.153   3.026  10.619  0.5496  0.6115  4.1974
  701MOL0     H94598   4.321   3.003  10.608  0.7935 -1.0686  0.8213
  701MOL0     H94599   4.532   2.985  10.391 -0.0286  0.0163 -2.4641
  701MOL0     H94600   4.701   2.969  10.209 -0.4138 -1.2396  0.0253
  701MOL0     H94601   5.007   2.636  10.080  0.4303  1.6818  1.4229
  701MOL0     H94602   4.901   2.557  10.185 -1.6441  0.3931  0.6634
  701MOL0     H94603   4.822   2.480   9.975 -2.0381 -0.4541 -1.0398
  701MOL0     H94604   4.705   2.597  10.027 -0.2792 -0.5739 -3.6844
  701MOL0     H94605   4.873   2.762   9.873  0.1614  0.4837 -1.5439
  701MOL0     H94606   4.720   2.685   9.828  0.0713  4.7362 -0.1143
  701MOL0     H94607   4.985   2.549   9.796 -0.7926 -2.2922  1.2180
  701MOL0     H94608   4.831   2.512   9.715  0.2581  1.7009 -3.2187
  701MOL0     H94609   4.961   2.786   9.684  3.3085 -0.3300 -0.7174
  701MOL0     H94610   4.838   2.709   9.588 -0.3371 -2.7209 -0.1998
  701MOL0     H94611   5.109   2.585   9.625 -0.3313  4.4118  2.3931
  701MOL0     H94612   4.990   2.532   9.499 -0.6928  0.1019 -0.4243
  701MOL0     H94613   5.094   2.808   9.482 -3.4502  0.1398 -0.8420
  701MOL0     H94614   5.041   2.705   9.351  0.2349  1.0581 -0.5319
  701MOL0     H94615   5.313   2.628   9.493 -0.3602  0.3654  0.6632
  701MOL0     H94616   5.298   2.750   9.370  2.0964 -0.5300  1.1424
  701MOL0     H94617   4.754   2.552  10.319 -1.1816 -0.7211  3.4566
  701MOL0     H94618   4.578   2.588  10.493 -0.2553  0.0684  0.2009
  701MOL0     H94619   4.381   2.598  10.900 -2.3344 -3.2390  0.4354
  701MOL0     H94620   4.192   2.592  11.015 -0.6813  0.6239  0.7407
  701MOL0     H94621   3.308   1.712  10.198 -0.7648 -2.2911 -0.4879
  701MOL0     H94622   3.286   1.475  10.225  0.0696 -1.5054  1.0714
  701MOL0     H94623   2.974   1.165  10.721  3.6443  3.0140  0.8041
  701MOL0     H94624   2.981   0.914  10.779 -1.0707 -0.8068 -2.2130
  701MOL0     H94625   3.173   0.688  10.494 -4.0087  1.4415  0.0040
  701MOL0     H94626   3.295   0.670  10.618 -0.1817 -0.1515 -2.0658
  701MOL0     H94627   3.186   0.465  10.524 -4.5012 -1.7315 -2.1437
  701MOL0     H94628   3.047   0.497  10.607  0.8084 -4.1320  0.8053
  701MOL0     H94629   3.114   0.483  10.822  1.6041  2.3014  0.6400
  701MOL0     H94630   3.284   0.498  10.797 -1.3454  0.7958  3.6913
  701MOL0     H94631   3.149   0.243  10.707 -1.2621 -0.1481  2.0453
  701MOL0     H94632   3.229   0.262  10.842 -2.6391 -0.9711 -0.0724
  701MOL0     H94633   3.542   0.205  10.574  1.1365  2.2948  1.0209
  701MOL0     H94634   3.320   0.872  10.529 -1.8857 -0.9425  0.0889
  701MOL0     H94635   3.311   1.086  10.463  1.8878  1.1798  0.9624
  702MOL0     O94636   8.750   9.511  10.604 -0.5889 -0.0751  0.8477
  702MOL0     C94637   8.709   9.452  10.700  0.4438 -0.6104  0.4210
  702MOL0     O94638   8.686   9.505  10.820 -0.1547 -0.2110  0.3151
  702MOL0     C94639   8.680   9.637  10.823 -0.1992 -0.5074  0.0623
  702MOL0     C94640   8.565   9.697  10.877  0.6492 -0.3063 -0.2692
  702MOL0     C94641   8.552   9.841  10.903 -0.0751 -0.6316  0.5149
  702MOL0     C94642   8.649   9.922  10.850  0.2623 -0.1047  1.9350
  702MOL0     O94643   8.641  10.054  10.861 -0.6701 -0.0196 -0.6232
  702MOL0     C94644   8.522  10.133  10.816  0.2978  1.9583  0.6637
  702MOL0     C94645   8.499  10.251  10.902  0.5563 -0.7395  0.8964
  702MOL0     C94646   8.598  10.359  10.858  0.1130 -0.0037  0.5516
  702MOL0     C94647   8.555  10.490  10.922  0.1477 -0.1672 -0.2310
  702MOL0     C94648   8.648  10.616  10.912 -1.1356  0.2480 -0.1226
  702MOL0     C94649   8.627  10.723  11.011  0.3570 -0.2039 -0.8301
  702MOL0     C94650   8.499  10.803  10.970 -0.6939  0.6075  0.2623
  702MOL0     C94651   8.488  10.953  11.025 -0.1133 -0.6025 -0.0179
  702MOL0     N94652   8.583  11.040  10.963 -1.1970 -0.5997 -0.2845
  702MOL0     C94653   8.587  11.061  10.834  0.3282 -0.5773  0.0607
  702MOL0     C94654   8.706  11.113  10.806 -0.0591 -0.3845 -0.4938
  702MOL0     C94655   8.766  11.141  10.676  0.0811  1.2319 -0.8591
  702MOL0     C94656   8.730  11.041  10.572  0.0529  0.3352 -0.1964
  702MOL0     C94657   8.793  10.899  10.593  0.9280  0.0492 -0.7987
  702MOL0     C94658   8.723  10.782  10.537  0.2159  1.3744 -0.1531
  702MOL0     O94659   8.794  10.659  10.571 -0.1115  0.7041 -0.9729
  702MOL0     C94660   8.759  10.533  10.517 -0.8871  0.1260 -0.5194
  702MOL0     C94661   8.829  10.418  10.558  0.5321 -0.1951  1.4009
  702MOL0     C94662   8.804  10.287  10.512  0.4693  0.5526  0.5924
  702MOL0     C94663   8.887  10.175  10.555  0.7921  0.9179  0.1456
  702MOL0     C94664   8.706  10.276  10.402  0.1650  0.1016  0.2037
  702MOL0     C94665   8.678  10.147  10.328 -0.8137  0.5604  0.4525
  702MOL0     O94666   8.558  10.097  10.345  1.3866 -0.5109  0.6295
  702MOL0     C94667   8.524   9.957  10.321 -0.6945 -0.3772 -0.2450
  702MOL0     C94668   8.429   9.927  10.229 -0.6129  1.2026  0.9216
  702MOL0     C94669   8.404   9.784  10.200 -0.5525  0.9421 -0.0700
  702MOL0     C94670   8.459   9.686  10.288 -0.8536  0.2742  0.5676
  702MOL0     O94671   8.423   9.559  10.258 -0.5233  0.0393 -0.4817
  702MOL0     C94672   8.355   9.504  10.378 -0.1235  0.7215 -0.2616
  702MOL0     C94673   8.294   9.361  10.371 -0.3022 -0.8609 -0.1663
  702MOL0     C94674   8.397   9.261  10.313 -0.7183  0.1539 -0.5228
  702MOL0     C94675   8.442   9.267  10.162  0.6448  0.3637  0.3800
  702MOL0     C94676   8.591   9.294  10.150 -0.0663  0.2057 -0.2359
  702MOL0     C94677   8.634   9.338  10.013 -0.4330  0.1232  0.2106
  702MOL0     C94678   8.772   9.386   9.991  0.1070 -0.8964  1.5636
  702MOL0     C94679   8.876   9.284  10.054 -0.1261  0.9258 -0.1809
  702MOL0    Cl94680   8.872   9.118   9.972 -0.3882  0.0169 -0.1475
  702MOL0     C94681   8.548   9.723  10.391  0.1623  0.2760 -0.0030
  702MOL0     C94682   8.586   9.858  10.403 -0.3419 -0.0576  1.0089
  702MOL0     O94683   8.767  10.089  10.265  0.7289  0.4778  0.1242
  702MOL0     C94684   8.635  10.394  10.365 -0.5472 -0.2579 -0.6475
  702MOL0     C94685   8.655  10.512  10.436 -0.1814  0.5462  0.4484
  702MOL0     N94686   8.771  11.127  10.931 -0.2894  0.6921  0.0992
  702MOL0     N94687   8.701  11.082  11.025 -1.0975 -0.0680 -0.4160
  702MOL0     C94688   8.773   9.864  10.797 -0.7516 -0.2048 -1.5180
  702MOL0     C94689   8.785   9.723  10.795 -0.5914  0.2491  0.7542
  702MOL0     C94690   8.682   9.312  10.681 -0.0909 -0.0328 -0.1718
  702MOL0     C94691   8.727   9.237  10.566 -0.8601  1.1818 -0.2417
  702MOL0     C94692   8.687   9.099  10.555 -0.3859  0.4468 -0.1626
  702MOL0     C94693   8.602   9.037  10.646 -0.1857 -0.3243  0.5719
  702MOL0     O94694   8.570   8.904  10.632  0.8456  0.1061  0.0221
  702MOL0     C94695   8.487   8.843  10.738  0.7166  0.7071  1.1923
  702MOL0     C94696   8.421   8.709  10.715  0.6148 -0.4527 -0.1832
  702MOL0     C94697   8.355   8.696  10.579  0.1406 -0.0141 -0.7302
  702MOL0     C94698   8.449   8.713  10.461 -0.6008  0.0928  0.1625
  702MOL0     C94699   8.394   8.676  10.331 -0.0047 -0.0379  0.3104
  702MOL0     C94700   8.339   8.645  10.227 -1.0959  0.8589 -0.1511
  702MOL0     C94701   8.546   9.117  10.750 -0.9731 -0.6325 -0.0218
  702MOL0     C94702   8.586   9.251  10.764 -0.6424  1.3368  0.1630
  702MOL0     H94703   8.479   9.637  10.905 -0.2277  0.7412 -0.6511
  702MOL0     H94704   8.455   9.868  10.943  0.2023  0.8435  0.2533
  702MOL0     H94705   8.537  10.155  10.710 -0.0393 -0.1913  0.1380
  702MOL0     H94706   8.435  10.068  10.825 -0.2735  2.0932 -2.6459
  702MOL0     H94707   8.397  10.290  10.894  0.8411 -0.4968 -2.8575
  702MOL0     H94708   8.503  10.224  11.008 -1.9955 -0.3308  1.1567
  702MOL0     H94709   8.697  10.345  10.902 -1.6169  0.3159  5.0893
  702MOL0     H94710   8.613  10.378  10.752 -4.2856 -0.9283 -0.4170
  702MOL0     H94711   8.452  10.513  10.892 -0.2957 -2.1896 -0.4179
  702MOL0     H94712   8.550  10.475  11.030  3.3496 -0.5799 -0.0596
  702MOL0     H94713   8.750  10.577  10.920 -1.1676  0.1737 -0.0686
  702MOL0     H94714   8.640  10.647  10.807  0.0544 -1.9275 -0.9250
  702MOL0     H94715   8.627  10.668  11.106  0.1505 -1.1909 -1.3780
  702MOL0     H94716   8.714  10.786  11.029  0.2995 -0.7695  1.7433
  702MOL0     H94717   8.492  10.807  10.861 -0.3523  3.5998  0.2746
  702MOL0     H94718   8.411  10.748  11.006  0.2109 -0.1336  1.4630
  702MOL0     H94719   8.509  10.942  11.132 -0.5018 -2.6083 -0.1030
  702MOL0     H94720   8.385  10.987  11.018 -0.0108 -0.3180 -0.1684
  702MOL0     H94721   8.503  11.042  10.768  0.5118 -4.7963  0.7881
  702MOL0     H94722   8.729  11.242  10.654 -1.1588  0.5323 -2.2253
  702MOL0     H94723   8.874  11.136  10.686 -0.0388  2.8612  2.6820
  702MOL0     H94724   8.779  11.066  10.478  0.7961 -0.1843  0.0454
  702MOL0     H94725   8.621  11.040  10.558 -0.2691  0.3412  1.9339
  702MOL0     H94726   8.798  10.870  10.698  0.3473  0.6953 -0.5885
  702MOL0     H94727   8.897  10.910  10.561  1.1045  0.2424 -0.1772
  702MOL0     H94728   8.712  10.786  10.428 -1.9381  0.3108 -0.0255
  702MOL0     H94729   8.621  10.768  10.575  0.0542  0.9597 -0.7441
  702MOL0     H94730   8.914  10.423  10.624  3.9957 -0.3587 -2.5954
  702MOL0     H94731   8.929  10.199  10.654 -2.1747 -0.3571  1.8582
  702MOL0     H94732   8.837  10.078  10.555  0.4946  1.0519  1.5272
  702MOL0     H94733   8.970  10.162  10.485  0.7599 -1.7234  0.4831
  702MOL0     H94734   8.379  10.010  10.180 -2.2132  1.2253  2.4943
  702MOL0     H94735   8.349   9.753  10.111  1.2791 -0.3162 -0.8231
  702MOL0     H94736   8.422   9.509  10.464  0.7433 -2.3257 -0.6306
  702MOL0     H94737   8.272   9.571  10.404 -1.9756 -1.2341 -0.8145
  702MOL0     H94738   8.258   9.328  10.469  0.8232 -0.3788  0.4386
  702MOL0     H94739   8.209   9.344  10.305 -1.6720 -2.0179  1.8244
  702MOL0     H94740   8.369   9.159  10.339 -0.0942 -0.1356 -0.9536
  702MOL0     H94741   8.488   9.270  10.374 -0.3959 -1.6204 -0.6728
  702MOL0     H94742   8.409   9.172  10.117 -4.1256  1.0119  2.0135
  702MOL0     H94743   8.387   9.346  10.110  0.9719 -1.2351 -2.6607
  702MOL0     H94744   8.653   9.206  10.169 -0.9431 -0.9487 -2.3594
  702MOL0     H94745   8.623   9.376  10.215  4.6366  0.2110 -2.1839
  702MOL0     H94746   8.607   9.267   9.934 -0.3288  0.8442 -0.4715
  702MOL0     H94747   8.571   9.426   9.998 -1.6095  0.1453  4.0495
  702MOL0     H94748   8.783   9.484  10.039 -0.9698  1.1074 -1.9560
  702MOL0     H94749   8.799   9.406   9.887 -0.9920  0.7856  1.5742
  702MOL0     H94750   8.878   9.274  10.163 -0.7929 -0.2058 -0.2456
  702MOL0     H94751   8.976   9.321  10.028  1.2163 -1.9006  0.5616
  702MOL0     H94752   8.605   9.650  10.448  0.5642  0.6674  0.0989
  702MOL0     H94753   8.665   9.879  10.474  0.7796  0.3873 -0.3258
  702MOL0     H94754   8.561  10.394  10.286 -1.5430  0.1924  0.2549
  702MOL0     H94755   8.607  10.605  10.408  1.3509  2.1311  2.7989
  702MOL0     H94756   8.856   9.922  10.757  1.5673 -1.6021  0.9386
  702MOL0     H94757   8.884   9.678  10.786 -0.1943  1.4064 -1.3347
  702MOL0     H94758   8.791   9.271  10.486 -1.6104 -0.4364 -1.5757
  702MOL0     H94759   8.726   9.036  10.475 -2.2115 -1.3616  0.2904
  702MOL0     H94760   8.545   8.826  10.829 -2.7416 -0.8181  3.3315
  702MOL0     H94761   8.402   8.909  10.758  2.1046  2.2488  2.3251
  702MOL0     H94762   8.353   8.673  10.793 -1.8514 -3.1133 -3.2654
  702MOL0     H94763   8.487   8.621  10.715 -1.1607 -1.8972 -2.2512
  702MOL0     H94764   8.279   8.775  10.579 -0.2600 -0.2586  2.6939
  702MOL0     H94765   8.302   8.601  10.569 -0.1390  0.1993 -1.3400
  702MOL0     H94766   8.539   8.653  10.475 -0.5292  0.3705  0.9246
  702MOL0     H94767   8.479   8.816  10.435  1.1376 -0.2174  0.7927
  702MOL0     H94768   8.316   8.622  10.125 -1.0001 -1.3999  0.2840
  702MOL0     H94769   8.490   9.079  10.835 -0.3937  1.1573  1.1951
  702MOL0     H94770   8.555   9.308  10.851 -0.4456  2.8617 -0.7253
  703MOL0     O94771   9.494   4.838   6.650 -0.0606  0.2247  0.5482
  703MOL0     C94772   9.618   4.850   6.626 -0.8955 -0.0896  0.0052
  703MOL0     O94773   9.696   4.773   6.538  0.3498  1.1628 -0.1563
  703MOL0     C94774   9.640   4.677   6.467 -0.5273  0.5582  0.1994
  703MOL0     C94775   9.636   4.544   6.508  0.6686  0.5167 -1.3487
  703MOL0     C94776   9.575   4.456   6.424  0.3411 -0.2053 -0.4112
  703MOL0     C94777   9.508   4.480   6.308 -1.0395 -0.7449 -0.1599
  703MOL0     O94778   9.443   4.372   6.253  0.0555  0.3264  0.2148
  703MOL0     C94779   9.371   4.395   6.131 -0.2957  0.2515 -0.3224
  703MOL0     C94780   9.278   4.287   6.097  0.0189  1.0541  0.6063
  703MOL0     C94781   9.175   4.335   5.999  0.1544 -0.4948  0.5340
  703MOL0     C94782   9.067   4.227   5.983  1.0796 -0.0142 -0.6227
  703MOL0     C94783   8.943   4.288   5.926  0.3436  0.2570  0.9038
  703MOL0     C94784   8.834   4.188   5.894  1.4841  0.0948 -0.2123
  703MOL0     C94785   8.784   4.105   6.020  0.1541 -0.2038 -0.9591
  703MOL0     C94786   8.674   4.007   5.996  0.0799  0.4715  0.8004
  703MOL0     N94787   8.640   3.933   6.123  0.0186 -0.0837  0.0428
  703MOL0     C94788   8.727   3.879   6.226 -0.4032 -1.3622  0.0590
  703MOL0     C94789   8.650   3.825   6.321  0.4864 -0.6379 -0.2106
  703MOL0     C94790   8.709   3.757   6.438  0.0964  0.3785  0.2311
  703MOL0     C94791   8.758   3.872   6.536 -0.7077  1.3097  0.1804
  703MOL0     C94792   8.655   3.907   6.639 -0.2767  0.6219  0.4385
  703MOL0     C94793   8.692   4.019   6.733  0.1014  0.3816  0.7535
  703MOL0     O94794   8.796   3.972   6.825  0.3258 -0.5149  0.0052
  703MOL0     C94795   8.830   4.056   6.928 -0.3696 -1.1309  0.1020
  703MOL0     C94796   8.791   4.193   6.932 -0.6105  0.0804  0.7083
  703MOL0     C94797   8.845   4.280   7.029 -0.3980  0.2021  0.1280
  703MOL0     C94798   8.804   4.425   7.016  0.1282 -0.0369 -0.1750
  703MOL0     C94799   8.942   4.233   7.120 -1.0893  0.3043 -0.9549
  703MOL0     C94800   9.023   4.327   7.217 -0.0250 -0.1273 -0.6113
  703MOL0     O94801   9.090   4.258   7.306  0.4691  0.0908 -0.0825
  703MOL0     C94802   9.159   4.318   7.411 -0.5555  0.0892 -0.4247
  703MOL0     C94803   9.133   4.295   7.546  0.2441  0.9136  1.2207
  703MOL0     C94804   9.217   4.338   7.652 -1.0836  0.6361 -0.1351
  703MOL0     C94805   9.332   4.411   7.620 -0.1424 -0.2875 -0.1561
  703MOL0     O94806   9.410   4.471   7.707 -0.7162 -0.2314 -0.3265
  703MOL0     C94807   9.382   4.453   7.846 -0.0548  0.5450  0.5207
  703MOL0     C94808   9.519   4.454   7.915 -0.4188  0.6402  1.1902
  703MOL0     C94809   9.556   4.599   7.937 -0.2555 -0.8283 -0.3518
  703MOL0     C94810   9.680   4.618   8.030 -0.2395  1.0021 -0.5768
  703MOL0     C94811   9.656   4.531   8.161  0.3767 -0.5553  1.3937
  703MOL0     C94812   9.725   4.580   8.290  0.7901  0.5388 -0.7052
  703MOL0     C94813   9.672   4.506   8.418 -1.4049  0.6600  0.5241
  703MOL0     C94814   9.750   4.567   8.539 -0.2179  0.7025  0.1413
  703MOL0    Cl94815   9.911   4.490   8.574  0.4797 -0.0080  0.1127
  703MOL0     C94816   9.358   4.437   7.481  0.3396 -0.6150 -0.7813
  703MOL0     C94817   9.274   4.390   7.382  0.3808  0.4011 -0.2042
  703MOL0     O94818   9.029   4.454   7.212  0.7789  0.4839 -0.4255
  703MOL0     C94819   8.989   4.099   7.106  0.7845  0.1935 -0.5448
  703MOL0     C94820   8.915   4.010   7.022  0.0320  1.2075  0.7348
  703MOL0     N94821   8.515   3.860   6.287  0.1418  0.6542  0.1371
  703MOL0     N94822   8.511   3.916   6.168 -1.2212  0.4854  0.2490
  703MOL0     C94823   9.525   4.613   6.266 -0.5451 -0.3337  0.3163
  703MOL0     C94824   9.598   4.709   6.343  0.4663 -0.1228 -0.6144
  703MOL0     C94825   9.696   4.960   6.701  1.8382 -0.1928  0.6089
  703MOL0     C94826   9.833   4.978   6.689 -0.3817  1.4345 -0.4643
  703MOL0     C94827   9.911   5.076   6.755 -0.1481 -0.3299 -1.0049
  703MOL0     C94828   9.851   5.152   6.854 -0.4619 -0.0682 -0.2017
  703MOL0     O94829   9.922   5.234   6.938 -0.0259 -0.5025 -0.1335
  703MOL0     C94830  10.017   5.166   7.018 -1.0998 -0.1363 -0.2055
  703MOL0     C94831  10.043   5.254   7.147  0.4263  0.7954 -0.4954
  703MOL0     C94832  10.163   5.185   7.226  0.5434  0.4920 -0.0296
  703MOL0     C94833  10.183   5.248   7.364  0.0529 -0.3422 -0.3362
  703MOL0     C94834  10.190   5.145   7.473  0.3663  0.2724  0.6619
  703MOL0     C94835  10.187   5.050   7.546  0.9399  1.4897  0.0508
  703MOL0     C94836   9.710   5.141   6.875 -0.8293 -0.5720 -0.6105
  703MOL0     C94837   9.629   5.046   6.795 -0.5641 -0.9163 -0.5819
  703MOL0     H94838   9.690   4.506   6.594 -0.2299  0.0941 -0.9552
  703MOL0     H94839   9.564   4.353   6.460  1.6566 -0.3890 -0.5048
  703MOL0     H94840   9.309   4.483   6.153  1.2014  0.8918  1.6486
  703MOL0     H94841   9.443   4.421   6.052 -0.6854  1.8983 -0.1685
  703MOL0     H94842   9.320   4.202   6.042  1.6702  2.6082 -0.6630
  703MOL0     H94843   9.235   4.228   6.178 -1.5956  0.3076 -0.7303
  703MOL0     H94844   9.133   4.429   6.036  1.6520  2.3226 -4.1160
  703MOL0     H94845   9.209   4.350   5.896 -0.4635 -2.6935 -0.0434
  703MOL0     H94846   9.096   4.147   5.915 -0.2355 -1.6829  0.6721
  703MOL0     H94847   9.041   4.196   6.085  0.3556  3.6415  0.4562
  703MOL0     H94848   8.908   4.370   5.990 -2.3164 -0.2183  0.1947
  703MOL0     H94849   8.958   4.329   5.826 -2.1637 -2.7331 -0.8864
  703MOL0     H94850   8.753   4.228   5.832 -1.0982 -2.2202  1.4210
  703MOL0     H94851   8.879   4.120   5.821 -2.3717 -2.7273 -0.2880
  703MOL0     H94852   8.872   4.042   6.037 -0.1379 -1.0710 -2.4586
  703MOL0     H94853   8.781   4.173   6.105  1.5708 -1.0705 -0.1712
  703MOL0     H94854   8.720   3.947   5.918  2.1207  0.4870  1.9366
  703MOL0     H94855   8.581   4.054   5.961 -0.9162 -0.7160  1.7447
  703MOL0     H94856   8.835   3.889   6.230 -0.6264  1.0060  1.5812
  703MOL0     H94857   8.651   3.672   6.475 -1.0722  1.6441  1.4513
  703MOL0     H94858   8.804   3.718   6.401 -0.2477 -0.8749  0.6134
  703MOL0     H94859   8.769   3.961   6.473  2.6444 -0.6311 -2.2777
  703MOL0     H94860   8.861   3.855   6.567 -0.3424  1.0540 -1.0945
  703MOL0     H94861   8.633   3.818   6.698  3.0376  0.5471  1.7715
  703MOL0     H94862   8.565   3.941   6.587  0.8386  3.3654  0.1194
  703MOL0     H94863   8.602   4.064   6.776 -1.6199 -0.2068 -1.9922
  703MOL0     H94864   8.727   4.104   6.674  2.0533  0.4973  1.9789
  703MOL0     H94865   8.719   4.236   6.863  0.4176 -1.1064 -1.1882
  703MOL0     H94866   8.882   4.480   6.961 -1.0769  1.9887  0.0344
  703MOL0     H94867   8.712   4.417   6.958  0.3403 -4.2381 -0.2352
  703MOL0     H94868   8.781   4.476   7.110 -1.0576  2.2882 -1.6346
  703MOL0     H94869   9.041   4.247   7.577 -0.1939  1.7462  1.2409
  703MOL0     H94870   9.192   4.307   7.753  3.5326 -0.4319  0.9101
  703MOL0     H94871   9.315   4.538   7.864  0.9921  1.4546  0.2434
  703MOL0     H94872   9.328   4.363   7.878 -3.3527  3.1715  3.0926
  703MOL0     H94873   9.503   4.394   8.005  0.8778 -2.5245 -0.5198
  703MOL0     H94874   9.594   4.398   7.858 -0.9060  0.2541  0.9234
  703MOL0     H94875   9.483   4.658   7.993  1.2044 -0.0854  0.8434
  703MOL0     H94876   9.565   4.650   7.841  0.7567  1.6820  0.9816
  703MOL0     H94877   9.772   4.584   7.982 -0.3176 -0.4112  0.2187
  703MOL0     H94878   9.693   4.723   8.060  0.7115  0.6636  0.2761
  703MOL0     H94879   9.706   4.436   8.141  0.5224  0.0397 -1.5589
  703MOL0     H94880   9.548   4.513   8.170 -0.4102  2.3185 -0.8758
  703MOL0     H94881   9.835   4.583   8.291  1.0062  2.0775  4.5908
  703MOL0     H94882   9.686   4.682   8.301  0.3698  0.4136 -1.0039
  703MOL0     H94883   9.690   4.399   8.407 -1.0577  0.8773 -1.2396
  703MOL0     H94884   9.570   4.531   8.448 -1.3003 -0.9686  2.5152
  703MOL0     H94885   9.694   4.573   8.633  0.3641 -0.1698  0.5579
  703MOL0     H94886   9.769   4.673   8.523 -0.5016  0.9208  1.1979
  703MOL0     H94887   9.447   4.487   7.446  0.9589 -0.5725  0.7782
  703MOL0     H94888   9.307   4.402   7.279  3.2950 -0.8107  0.4814
  703MOL0     H94889   9.072   4.065   7.167 -0.3870 -0.2611  0.8587
  703MOL0     H94890   8.947   3.908   7.004  2.0742  2.0519 -0.8374
  703MOL0     H94891   9.487   4.638   6.168  0.8912 -1.8966 -0.7153
  703MOL0     H94892   9.607   4.812   6.312  3.0242  0.1489  0.7198
  703MOL0     H94893   9.884   4.911   6.621 -2.3500  0.0284 -0.6406
  703MOL0     H94894  10.016   5.077   6.727  0.0960  1.5964 -0.1945
  703MOL0     H94895   9.983   5.067   7.050  2.7916 -1.5079  0.1919
  703MOL0     H94896  10.108   5.139   6.965 -0.5765  0.2852  0.4591
  703MOL0     H94897   9.952   5.267   7.207 -0.5025 -2.9811 -0.8261
  703MOL0     H94898  10.062   5.357   7.115 -1.2558  0.0977 -4.1971
  703MOL0     H94899  10.254   5.206   7.170  0.6459  3.8747  1.1696
  703MOL0     H94900  10.147   5.078   7.241 -2.4664  0.8559 -0.0307
  703MOL0     H94901  10.101   5.315   7.392  1.1589 -0.4677  3.8570
  703MOL0     H94902  10.274   5.304   7.384 -1.3366  0.6958  4.3238
  703MOL0     H94903  10.184   4.960   7.604 -0.4521  1.1821 -0.4699
  703MOL0     H94904   9.668   5.203   6.953 -0.3284  0.4139 -1.1113
  703MOL0     H94905   9.523   5.044   6.819 -0.7745  1.3475 -1.1776
  704MOL0     O94906   8.771   0.775   8.953 -0.4499 -0.0963  0.4334
  704MOL0     C94907   8.775   0.901   8.954 -0.3127  0.2236 -0.1274
  704MOL0     O94908   8.725   0.984   9.062  0.0884 -0.4623  0.2665
  704MOL0     C94909   8.673   0.919   9.167 -0.1443  0.3371  0.2790
  704MOL0     C94910   8.536   0.885   9.160 -0.9779  0.3325 -0.2021
  704MOL0     C94911   8.495   0.808   9.280  0.2792 -1.3125  0.0500
  704MOL0     C94912   8.581   0.770   9.381 -0.5001  0.4502 -0.2790
  704MOL0     O94913   8.524   0.738   9.499 -0.6200 -0.4135 -0.3644
  704MOL0     C94914   8.508   0.848   9.592  0.5609  0.3993  0.2035
  704MOL0     C94915   8.410   0.776   9.697 -0.2589 -0.6206  0.5434
  704MOL0     C94916   8.478   0.680   9.786 -0.2572 -0.1368 -0.7714
  704MOL0     C94917   8.372   0.616   9.884 -0.2823  0.2408  0.0453
  704MOL0     C94918   8.416   0.598  10.025 -0.0073 -0.3552  0.3684
  704MOL0     C94919   8.538   0.519  10.043  0.1263  0.7042  0.1016
  704MOL0     C94920   8.557   0.518  10.193 -0.8096 -0.2394  0.0844
  704MOL0     C94921   8.583   0.379  10.254  0.0048  0.2453  0.8586
  704MOL0     N94922   8.711   0.324  10.230 -0.1386  0.2684  0.6913
  704MOL0     C94923   8.823   0.368  10.300  0.7735 -0.3720 -0.1623
  704MOL0     C94924   8.929   0.308  10.247 -0.6616 -1.3871 -0.6656
  704MOL0     C94925   9.073   0.311  10.290  0.6864 -0.2829  0.2516
  704MOL0     C94926   9.118   0.188  10.365 -0.2297 -0.0220 -0.1145
  704MOL0     C94927   9.054   0.180  10.504 -0.4705 -0.0385  0.0034
  704MOL0     C94928   9.073   0.299  10.592  0.1095 -0.2901 -0.8658
  704MOL0     O94929   9.018   0.261  10.721 -0.3034 -0.0483  0.2243
  704MOL0     C94930   9.001   0.363  10.815 -0.2387 -0.3290  0.3653
  704MOL0     C94931   9.047   0.496  10.801  0.9561 -0.4037 -0.4445
  704MOL0     C94932   9.012   0.594  10.904  0.3417  0.6397  0.2680
  704MOL0     C94933   9.051   0.742  10.894  0.2671 -0.5523  0.4577
  704MOL0     C94934   8.941   0.552  11.016 -0.2568  0.1449 -0.7504
  704MOL0     C94935   8.899   0.648  11.124 -0.2381 -0.8941  0.2366
  704MOL0     O94936   8.779   0.630  11.180 -0.3295 -0.2346 -0.6966
  704MOL0     C94937   8.763   0.713  11.293 -0.6668  0.4561  0.8920
  704MOL0     C94938   8.734   0.644  11.407  0.2587 -0.6879 -0.8348
  704MOL0     C94939   8.678   0.705  11.512  0.7650  0.1724 -0.6805
  704MOL0     C94940   8.656   0.846  11.527  0.8840  0.0587 -0.6298
  704MOL0     O94941   8.619   0.917  11.639  0.9458 -0.2272  0.4034
  704MOL0     C94942   8.573   0.836  11.745 -0.5732  0.0982 -0.0984
  704MOL0     C94943   8.494   0.909  11.850 -0.5325 -0.4216  0.7433
  704MOL0     C94944   8.445   0.808  11.959 -0.1876  0.5436 -0.1880
  704MOL0     C94945   8.326   0.730  11.910  0.1167  0.3104 -0.0931
  704MOL0     C94946   8.262   0.644  12.013 -0.2929  0.2921 -0.3576
  704MOL0     C94947   8.242   0.694  12.164  0.0394  0.4255  0.3032
  704MOL0     C94948   8.183   0.591  12.261  1.2729 -0.9840 -0.3340
  704MOL0     C94949   8.035   0.576  12.223  0.0523 -0.7855 -0.6399
  704MOL0    Cl94950   7.986   0.420  12.301 -0.7613  0.2542  0.4899
  704MOL0     C94951   8.687   0.919  11.409 -0.2152 -0.0568 -0.4606
  704MOL0     C94952   8.732   0.847  11.291 -0.6392 -0.0499 -0.2833
  704MOL0     O94953   8.989   0.722  11.167 -0.4467 -0.5426 -0.4477
  704MOL0     C94954   8.898   0.415  11.030  0.4522  0.2519  0.4289
  704MOL0     C94955   8.926   0.330  10.923 -0.8678  0.9557  0.8661
  704MOL0     N94956   8.886   0.229  10.139  0.4064  0.1180 -0.1169
  704MOL0     N94957   8.759   0.247  10.128  0.4934  0.7834 -0.6053
  704MOL0     C94958   8.715   0.794   9.368  0.8303  0.0009  0.6263
  704MOL0     C94959   8.761   0.874   9.271 -0.2583  0.3150  0.2837
  704MOL0     C94960   8.851   0.970   8.844  0.4352  0.2309 -0.3282
  704MOL0     C94961   8.853   1.111   8.827  0.5621  0.2704 -1.1620
  704MOL0     C94962   8.894   1.181   8.717  0.3538  0.1533 -0.9248
  704MOL0     C94963   8.950   1.107   8.611 -0.0197 -0.0809 -0.5812
  704MOL0     O94964   9.006   1.162   8.496  0.6469  0.3203  1.2337
  704MOL0     C94965   8.932   1.132   8.375  0.5567 -0.8666  1.0293
  704MOL0     C94966   8.994   1.045   8.269 -0.5755 -0.5395 -0.3499
  704MOL0     C94967   9.131   1.104   8.221 -0.5603 -0.4065  1.0506
  704MOL0     C94968   9.122   1.174   8.082 -0.2613  0.8435  0.6621
  704MOL0     C94969   9.048   1.099   7.976 -1.1404  0.5224 -0.4549
  704MOL0     C94970   8.996   1.041   7.880 -0.2675 -0.1030 -0.1342
  704MOL0     C94971   8.951   0.965   8.621 -0.0400 -0.2386 -0.5032
  704MOL0     C94972   8.893   0.898   8.731 -0.3319  1.2412  0.1314
  704MOL0     H94973   8.486   0.899   9.065  1.4244 -3.4526 -2.2783
  704MOL0     H94974   8.390   0.786   9.295 -0.6057  1.4833 -1.5043
  704MOL0     H94975   8.596   0.896   9.635  1.4615 -3.5276  3.3653
  704MOL0     H94976   8.439   0.912   9.537 -0.4198 -1.5276 -0.9178
  704MOL0     H94977   8.363   0.856   9.754 -1.1561 -1.1719  0.5974
  704MOL0     H94978   8.324   0.740   9.639 -1.3445  0.8938  1.1727
  704MOL0     H94979   8.531   0.598   9.738 -0.3789 -0.5324 -0.2354
  704MOL0     H94980   8.547   0.740   9.847 -1.3895 -0.6596  1.1234
  704MOL0     H94981   8.283   0.679   9.881  0.7134  1.6436 -1.0485
  704MOL0     H94982   8.346   0.514   9.853  0.2795 -1.1887  3.7368
  704MOL0     H94983   8.422   0.703  10.054 -2.9185 -0.1847  0.6575
  704MOL0     H94984   8.337   0.550  10.083 -0.1685 -4.6881 -2.9211
  704MOL0     H94985   8.527   0.416  10.008  1.3110 -0.0458  1.8263
  704MOL0     H94986   8.616   0.570   9.986  0.5402 -0.9878 -0.9129
  704MOL0     H94987   8.637   0.592  10.200 -0.6744 -0.3358 -0.4358
  704MOL0     H94988   8.479   0.565  10.254  0.6293  1.2399  0.8596
  704MOL0     H94989   8.520   0.309  10.199 -0.2686  2.3883 -1.7925
  704MOL0     H94990   8.563   0.391  10.360  0.0919  5.3058  0.5310
  704MOL0     H94991   8.817   0.427  10.392 -2.6005  1.6331 -1.4895
  704MOL0     H94992   9.131   0.308  10.198  0.8657  0.3894  0.3352
  704MOL0     H94993   9.090   0.399  10.354  1.9268 -1.0756  1.0569
  704MOL0     H94994   9.226   0.184  10.380  0.5715  2.2185 -3.8119
  704MOL0     H94995   9.085   0.101  10.308 -2.7282  0.6607  0.1847
  704MOL0     H94996   9.099   0.095  10.556 -1.8733 -1.2089 -0.6655
  704MOL0     H94997   8.947   0.163  10.489 -0.9176  1.5203  1.0908
  704MOL0     H94998   9.013   0.380  10.549 -0.1960 -0.5152 -0.8704
  704MOL0     H94999   9.177   0.331  10.601  0.5255 -2.2056  4.0689
  704MOL0     H95000   9.090   0.539  10.711  0.9925  2.8057  0.9615
  704MOL0     H95001   8.971   0.807  10.931  1.1070  0.1867  1.0286
  704MOL0     H95002   9.137   0.750  10.962 -0.7226  1.1566  1.5792
  704MOL0     H95003   9.083   0.762  10.792  0.5853 -0.3404  0.5961
  704MOL0     H95004   8.759   0.539  11.415  1.2242 -0.4198 -0.1104
  704MOL0     H95005   8.655   0.636  11.593 -1.2438  1.0456 -0.4579
  704MOL0     H95006   8.509   0.759  11.701 -2.1645 -0.0103  2.2469
  704MOL0     H95007   8.654   0.775  11.786 -1.7831 -1.8911 -0.5312
  704MOL0     H95008   8.556   0.991  11.887 -2.7043  1.0329  1.3615
  704MOL0     H95009   8.406   0.951  11.801 -0.8453 -1.3835  0.4555
  704MOL0     H95010   8.413   0.872  12.042  4.9933  1.2503  1.6035
  704MOL0     H95011   8.518   0.737  12.001  0.7215  1.0979 -0.8184
  704MOL0     H95012   8.247   0.803  11.887  0.0620  0.3173  0.1161
  704MOL0     H95013   8.350   0.678  11.817  1.6015 -2.0299  1.5095
  704MOL0     H95014   8.322   0.553  12.022 -2.6928 -1.3398  7.4814
  704MOL0     H95015   8.162   0.618  11.977 -0.0125 -0.2005 -0.7886
  704MOL0     H95016   8.343   0.697  12.206  0.3168  2.3581 -0.3876
  704MOL0     H95017   8.187   0.788  12.152 -2.8265 -1.2344 -0.6386
  704MOL0     H95018   8.189   0.610  12.369  1.6472  3.7831 -0.9909
  704MOL0     H95019   8.252   0.507  12.246  6.6240  2.9300 -0.8309
  704MOL0     H95020   8.004   0.588  12.119 -3.0504  2.9818  0.4834
  704MOL0     H95021   7.981   0.652  12.280  0.5686  0.3595 -1.6167
  704MOL0     H95022   8.676   1.026  11.397  1.1357  0.6526  3.3385
  704MOL0     H95023   8.744   0.888  11.191  2.0446  1.7259  0.6363
  704MOL0     H95024   8.830   0.388  11.111 -1.3429  3.0877  0.0167
  704MOL0     H95025   8.884   0.230  10.918 -1.5297  1.2356  0.7212
  704MOL0     H95026   8.781   0.765   9.449  2.5077  0.8005 -0.3913
  704MOL0     H95027   8.865   0.898   9.252 -0.8731  2.2052 -0.9028
  704MOL0     H95028   8.808   1.173   8.904  0.4276 -0.3576 -0.7241
  704MOL0     H95029   8.896   1.289   8.705  2.1902  0.2383 -0.2387
  704MOL0     H95030   8.837   1.083   8.397 -0.9284  1.4518  0.1947
  704MOL0     H95031   8.895   1.228   8.338 -0.0015 -0.6445  2.1160
  704MOL0     H95032   8.936   1.020   8.180  2.5714 -1.2075 -2.3848
  704MOL0     H95033   9.016   0.955   8.326  2.4884  0.2554 -0.1189
  704MOL0     H95034   9.200   1.022   8.206 -0.0519 -0.1322  1.8373
  704MOL0     H95035   9.175   1.164   8.302  0.0743  1.4239 -0.5706
  704MOL0     H95036   9.220   1.180   8.035 -0.4534  1.8498  0.3699
  704MOL0     H95037   9.089   1.273   8.115 -0.6063  0.4511  1.5498
  704MOL0     H95038   8.953   0.987   7.798  3.1085 -1.1914 -1.3533
  704MOL0     H95039   8.987   0.897   8.545  3.7431  0.2461  0.6330
  704MOL0     H95040   8.872   0.794   8.707 -1.8953  2.0907 -2.5518
  705MOL0     O95041   0.604   9.017   3.585 -0.0511 -0.3709 -0.3379
  705MOL0     C95042   0.586   8.918   3.641 -1.3899  0.2856  0.7208
  705MOL0     O95043   0.479   8.884   3.722  0.1660  0.0989  0.5198
  705MOL0     C95044   0.373   8.974   3.721 -1.8328  0.2148 -0.3632
  705MOL0     C95045   0.343   9.045   3.832 -0.2537 -0.4913  0.2797
  705MOL0     C95046   0.250   9.145   3.829 -0.0672  0.0687 -0.0631
  705MOL0     C95047   0.174   9.157   3.717  1.1997 -0.7780 -0.5467
  705MOL0     O95048   0.101   9.280   3.716 -0.3997 -1.0534  0.0866
  705MOL0     C95049  -0.012   9.301   3.635  0.0497  0.4221  0.5300
  705MOL0     C95050  -0.048   9.441   3.656  0.7066 -0.4064  0.6075
  705MOL0     C95051  -0.193   9.469   3.614 -0.3338 -0.0089 -0.7905
  705MOL0     C95052  -0.207   9.459   3.461 -0.5759  0.1466  0.4247
  705MOL0     C95053  -0.339   9.521   3.416  0.4124 -0.1756  0.4874
  705MOL0     C95054  -0.383   9.483   3.281  0.2462 -1.0813 -0.6462
  705MOL0     C95055  -0.272   9.492   3.170  0.3441  0.1291  0.1304
  705MOL0     C95056  -0.341   9.531   3.034 -0.4621 -0.2167 -0.3983
  705MOL0     N95057  -0.410   9.421   2.966 -0.0424 -0.1537  0.5441
  705MOL0     C95058  -0.371   9.292   2.993  0.6956 -0.4714  0.7913
  705MOL0     C95059  -0.467   9.209   2.941  0.6378  0.3722 -0.4868
  705MOL0     C95060  -0.439   9.059   2.929  0.0056  0.2651  0.3714
  705MOL0     C95061  -0.344   9.042   2.817  0.0144 -0.2581 -0.1147
  705MOL0     C95062  -0.420   9.055   2.690  0.3069  0.1863  0.5147
  705MOL0     C95063  -0.336   9.003   2.570 -0.3584 -1.3379 -0.0021
  705MOL0     O95064  -0.209   9.071   2.537 -0.2217  0.4976  0.1562
  705MOL0     C95065  -0.150   9.060   2.412  0.1302  0.2567  0.8590
  705MOL0     C95066  -0.026   9.112   2.390  0.5482  0.9261  0.1950
  705MOL0     C95067   0.049   9.088   2.266 -0.2033  0.4391 -0.4956
  705MOL0     C95068   0.191   9.148   2.250 -0.6143  0.0181 -0.2380
  705MOL0     C95069  -0.005   9.014   2.157  0.1004 -0.2780 -0.5789
  705MOL0     C95070   0.071   8.962   2.039  0.9386 -0.2333  0.1198
  705MOL0     O95071  -0.003   8.874   1.964 -0.0699  0.2466 -0.2526
  705MOL0     C95072   0.036   8.825   1.834 -0.3372  0.4048 -0.4012
  705MOL0     C95073   0.166   8.798   1.795  0.1409  0.3246  1.0299
  705MOL0     C95074   0.195   8.758   1.653 -0.2902 -0.8984 -0.0421
  705MOL0     C95075   0.086   8.733   1.566 -0.5290  0.6131 -0.3831
  705MOL0     O95076   0.107   8.672   1.446  0.5772  0.7266  0.8366
  705MOL0     C95077   0.234   8.663   1.374  1.2362  0.3805  0.2258
  705MOL0     C95078   0.232   8.724   1.234  0.4921 -0.0216 -1.1582
  705MOL0     C95079   0.093   8.705   1.160  0.5940  0.5568 -0.4604
  705MOL0     C95080   0.102   8.716   1.013 -0.2883 -0.2082 -0.1532
  705MOL0     C95081  -0.040   8.706   0.931 -0.4766 -0.0918  0.5002
  705MOL0     C95082  -0.011   8.728   0.783  0.4723  0.4697  0.3206
  705MOL0     C95083   0.047   8.865   0.755  0.6639  0.5067  0.9786
  705MOL0     C95084   0.035   8.922   0.605  0.0386  1.1946 -0.3755
  705MOL0    Cl95085   0.084   8.789   0.493 -0.2142 -0.3828 -0.0276
  705MOL0     C95086  -0.037   8.756   1.606  1.3114 -0.6231 -0.4262
  705MOL0     C95087  -0.063   8.806   1.739  0.3869  0.5166  0.2555
  705MOL0     O95088   0.186   8.990   2.020 -0.6968 -0.0418  0.4130
  705MOL0     C95089  -0.139   8.981   2.185  0.0934  0.4292 -1.0188
  705MOL0     C95090  -0.204   8.993   2.304  0.2563  0.4660  0.4556
  705MOL0     N95091  -0.578   9.284   2.899 -0.0715 -0.0037  0.5457
  705MOL0     N95092  -0.541   9.409   2.921 -0.3412 -0.8249 -0.3607
  705MOL0     C95093   0.196   9.083   3.602 -0.2700  0.4433 -0.5377
  705MOL0     C95094   0.297   8.987   3.608 -0.1775  0.8002  0.6434
  705MOL0     C95095   0.702   8.830   3.652  0.3807  0.2413  0.1496
  705MOL0     C95096   0.687   8.703   3.603  0.7130  0.1325  0.5361
  705MOL0     C95097   0.794   8.604   3.598  0.6853 -0.3099  0.6460
  705MOL0     C95098   0.921   8.648   3.634 -0.2089  0.2733 -1.2279
  705MOL0     O95099   1.017   8.551   3.644 -1.0492 -0.1358 -0.5710
  705MOL0     C95100   1.155   8.583   3.673  0.2617 -0.0402 -0.2058
  705MOL0     C95101   1.202   8.613   3.816  0.6603 -0.9819 -0.2576
  705MOL0     C95102   1.125   8.539   3.928  0.6020  0.2626  0.9021
  705MOL0     C95103   1.185   8.565   4.061  0.0518 -0.6490 -0.2201
  705MOL0     C95104   1.315   8.500   4.079 -1.5019 -0.5032  0.8060
  705MOL0     C95105   1.418   8.438   4.100 -0.7905 -0.4346 -0.0340
  705MOL0     C95106   0.944   8.785   3.670 -0.4719  0.7089 -0.0905
  705MOL0     C95107   0.829   8.871   3.687 -0.8929 -0.0651 -0.4918
  705MOL0     H95108   0.406   9.035   3.920 -1.9822  1.1309  1.7818
  705MOL0     H95109   0.233   9.209   3.915  0.8382 -0.2658  0.3737
  705MOL0     H95110   0.030   9.276   3.537  2.3434 -1.3214  1.8600
  705MOL0     H95111  -0.098   9.237   3.657 -2.1736  2.0925 -2.4959
  705MOL0     H95112  -0.046   9.455   3.765  2.2560 -2.3950  0.8941
  705MOL0     H95113   0.013   9.521   3.613  2.1152 -1.2774  0.9257
  705MOL0     H95114  -0.258   9.401   3.669  0.8534  0.6095  1.5376
  705MOL0     H95115  -0.212   9.575   3.636  3.0796  0.6674 -0.6141
  705MOL0     H95116  -0.123   9.505   3.409 -0.1475 -0.5181  0.5199
  705MOL0     H95117  -0.210   9.351   3.443  0.9189  0.1856 -0.1567
  705MOL0     H95118  -0.413   9.495   3.493 -0.0973  0.1824  0.1215
  705MOL0     H95119  -0.330   9.630   3.406 -1.5674  0.0069  0.3365
  705MOL0     H95120  -0.419   9.379   3.282 -2.8903 -0.1455  1.5312
  705MOL0     H95121  -0.467   9.552   3.267  1.1548  0.3403  0.6404
  705MOL0     H95122  -0.203   9.569   3.204 -1.4141  1.7282  0.2779
  705MOL0     H95123  -0.203   9.408   3.165  3.8917  2.8652 -3.5442
  705MOL0     H95124  -0.264   9.576   2.970 -1.6648  0.7847 -1.1704
  705MOL0     H95125  -0.422   9.602   3.049 -3.5547 -3.5505  0.0375
  705MOL0     H95126  -0.273   9.275   3.035  0.0060  0.3744  2.8496
  705MOL0     H95127  -0.387   9.019   3.017  2.4038  1.3576 -0.4643
  705MOL0     H95128  -0.524   8.991   2.916  0.0601 -0.0994  1.7728
  705MOL0     H95129  -0.297   8.943   2.820 -1.2758 -0.9756 -1.8141
  705MOL0     H95130  -0.263   9.114   2.831 -0.2579 -0.0778  0.6052
  705MOL0     H95131  -0.463   9.156   2.687 -3.0115 -0.9601  2.9300
  705MOL0     H95132  -0.509   8.993   2.705  1.5558 -1.7543  0.2984
  705MOL0     H95133  -0.399   8.998   2.481  2.6278 -2.4060 -2.2234
  705MOL0     H95134  -0.311   8.898   2.589  4.3489 -0.0803  2.2742
  705MOL0     H95135   0.014   9.177   2.466 -2.8666 -0.4741  3.5420
  705MOL0     H95136   0.225   9.206   2.337 -0.4077 -1.6525  0.8361
  705MOL0     H95137   0.253   9.059   2.246  0.1396  0.4670  0.8505
  705MOL0     H95138   0.213   9.197   2.155  1.6252 -0.1215  0.1540
  705MOL0     H95139   0.246   8.826   1.863  0.2901 -0.6616  1.2749
  705MOL0     H95140   0.299   8.748   1.624 -0.1038 -3.8284  1.2801
  705MOL0     H95141   0.317   8.704   1.433 -0.0780  1.7862  1.1614
  705MOL0     H95142   0.254   8.555   1.370 -1.6801 -0.2082 -1.9177
  705MOL0     H95143   0.241   8.833   1.240 -2.5838  0.2370  3.1580
  705MOL0     H95144   0.315   8.678   1.178  2.3255  1.1690  0.4549
  705MOL0     H95145   0.031   8.786   1.201  1.4504 -0.1555  2.5198
  705MOL0     H95146   0.052   8.606   1.183  1.0492  0.6708  0.9614
  705MOL0     H95147   0.137   8.814   0.979 -2.5778  1.0843  1.0337
  705MOL0     H95148   0.164   8.632   0.980  0.0755 -0.3272  0.8183
  705MOL0     H95149  -0.112   8.778   0.970  0.2167  0.6717  0.3858
  705MOL0     H95150  -0.071   8.601   0.939  2.7689 -1.1400  0.8502
  705MOL0     H95151   0.067   8.657   0.754  0.5233  1.6609 -2.9388
  705MOL0     H95152  -0.099   8.707   0.720 -0.6544  0.2692  1.9105
  705MOL0     H95153   0.153   8.865   0.781  1.0496  0.2577 -0.4768
  705MOL0     H95154  -0.005   8.928   0.828 -1.8271 -3.8019  3.2888
  705MOL0     H95155   0.094   9.011   0.580  1.7068  0.5296  0.9900
  705MOL0     H95156  -0.070   8.947   0.591 -0.1228  1.8964  1.7387
  705MOL0     H95157  -0.128   8.738   1.549  0.1074  1.2104  0.7754
  705MOL0     H95158  -0.166   8.823   1.768  0.6869  1.6656  0.6647
  705MOL0     H95159  -0.189   8.924   2.108 -0.1699 -2.2324  0.9856
  705MOL0     H95160  -0.294   8.934   2.296  0.9363 -0.5697  0.2104
  705MOL0     H95161   0.133   9.097   3.515 -1.1132 -1.0887 -0.2201
  705MOL0     H95162   0.314   8.915   3.528  1.1320  0.5725  1.0895
  705MOL0     H95163   0.591   8.679   3.560  0.4282 -1.3766  1.9077
  705MOL0     H95164   0.769   8.507   3.555 -0.2729  0.5430 -0.8424
  705MOL0     H95165   1.212   8.495   3.642  3.0702  1.6649 -0.1909
  705MOL0     H95166   1.189   8.668   3.612 -2.8969  2.0358  0.6820
  705MOL0     H95167   1.193   8.719   3.843 -1.3707 -1.4406  1.0720
  705MOL0     H95168   1.308   8.585   3.819  1.7348  2.1362  6.0169
  705MOL0     H95169   1.127   8.432   3.908  2.1481  0.6193 -1.1899
  705MOL0     H95170   1.025   8.584   3.933  1.5108  2.8051 -1.1485
  705MOL0     H95171   1.117   8.519   4.133 -1.6112  0.1498 -1.2397
  705MOL0     H95172   1.190   8.671   4.085 -0.5023 -0.6127 -0.2618
  705MOL0     H95173   1.511   8.388   4.120  0.5972  1.5373 -1.1481
  705MOL0     H95174   1.041   8.817   3.708  0.0119 -0.4331 -0.3410
  705MOL0     H95175   0.840   8.972   3.725 -0.7122  0.0895 -0.9429
  706MOL0     O95176   6.027   3.839   8.940 -0.5450  0.2345 -0.0013
  706MOL0     C95177   6.096   3.871   9.034 -0.8631  0.7230 -0.8774
  706MOL0     O95178   6.062   3.845   9.161 -0.1244 -0.0642 -0.1178
  706MOL0     C95179   5.945   3.783   9.195 -1.0132  0.2839  0.1435
  706MOL0     C95180   5.858   3.849   9.280 -0.2002  0.5554  0.2834
  706MOL0     C95181   5.735   3.797   9.304 -0.3504  0.0153  0.2698
  706MOL0     C95182   5.696   3.676   9.251  0.6416 -0.0824  0.0723
  706MOL0     O95183   5.560   3.643   9.267 -0.1389 -0.5217  0.1826
  706MOL0     C95184   5.533   3.502   9.258 -1.2052 -0.5170  0.3407
  706MOL0     C95185   5.405   3.476   9.342 -0.4615 -0.4536  0.3611
  706MOL0     C95186   5.300   3.556   9.284 -0.3926  0.2270 -0.3421
  706MOL0     C95187   5.159   3.503   9.320 -1.5515  0.2921  0.5063
  706MOL0     C95188   5.041   3.584   9.270  0.5856  0.0732 -0.3704
  706MOL0     C95189   4.931   3.608   9.366 -0.3508  0.4326  0.4252
  706MOL0     C95190   4.814   3.676   9.295  0.5961 -0.1213  0.1463
  706MOL0     C95191   4.694   3.694   9.382 -0.4295 -0.5529 -0.8409
  706MOL0     N95192   4.589   3.790   9.325 -0.1378 -0.1114 -0.2480
  706MOL0     C95193   4.586   3.923   9.364  0.5988 -0.1110  0.4870
  706MOL0     C95194   4.486   3.977   9.299 -0.2469 -0.1544  0.2736
  706MOL0     C95195   4.437   4.118   9.311  0.3581 -1.1180  0.0724
  706MOL0     C95196   4.310   4.144   9.396  0.0396  1.1394 -0.1450
  706MOL0     C95197   4.173   4.119   9.311 -0.1203 -0.0315 -0.3035
  706MOL0     C95198   4.053   4.167   9.392  0.3638  1.2720  0.4766
  706MOL0     O95199   4.053   4.304   9.423  0.5382 -0.1312  0.0616
  706MOL0     C95200   4.005   4.391   9.332 -0.4866  0.2970 -0.1918
  706MOL0     C95201   3.874   4.405   9.293 -0.8437 -0.3383  0.8652
  706MOL0     C95202   3.856   4.472   9.167 -0.2312  0.7905 -0.0439
  706MOL0     C95203   3.720   4.459   9.115 -0.9251 -0.2747  0.7427
  706MOL0     C95204   3.963   4.536   9.095  0.1964 -0.6872 -0.7226
  706MOL0     C95205   3.959   4.596   8.957  0.1309 -0.2207 -0.3746
  706MOL0     O95206   3.856   4.562   8.879 -0.4031  0.4223  0.2290
  706MOL0     C95207   3.851   4.611   8.750  0.3513 -0.7102  0.5226
  706MOL0     C95208   3.724   4.661   8.726 -0.3763 -0.4951  0.8136
  706MOL0     C95209   3.709   4.726   8.598  0.2194  0.7552  0.1229
  706MOL0     C95210   3.817   4.716   8.497  0.0788  0.4328 -0.0180
  706MOL0     O95211   3.794   4.776   8.376 -0.5014 -0.1502  0.1342
  706MOL0     C95212   3.762   4.918   8.380 -0.0502 -0.7953  0.0869
  706MOL0     C95213   3.767   4.989   8.239  0.5575  0.5876  0.3584
  706MOL0     C95214   3.899   4.977   8.170 -0.0574 -0.4165  0.1821
  706MOL0     C95215   3.926   4.839   8.119 -0.4564 -1.2539  1.1011
  706MOL0     C95216   4.051   4.829   8.034  0.5623  0.1612 -0.0353
  706MOL0     C95217   4.007   4.787   7.894 -0.3047  0.1108 -1.1498
  706MOL0     C95218   4.116   4.773   7.785 -0.2439 -0.2059 -0.3083
  706MOL0     C95219   4.239   4.690   7.817 -0.3810  0.5999  0.1893
  706MOL0    Cl95220   4.353   4.712   7.678  0.3481  0.4686 -0.1824
  706MOL0     C95221   3.940   4.654   8.527  0.1833  0.3089 -0.6748
  706MOL0     C95222   3.953   4.598   8.656  0.4249  0.7328 -0.3092
  706MOL0     O95223   4.048   4.674   8.921 -1.1186 -1.3726 -0.7840
  706MOL0     C95224   4.093   4.529   9.153 -0.0501 -0.0028 -0.2594
  706MOL0     C95225   4.115   4.456   9.267  0.2498 -0.9111 -0.9163
  706MOL0     N95226   4.429   3.875   9.218 -0.6548  0.2162  0.3005
  706MOL0     N95227   4.497   3.763   9.231  1.6885  0.5354 -0.0729
  706MOL0     C95228   5.777   3.608   9.160  0.0524 -0.2480  0.0843
  706MOL0     C95229   5.911   3.654   9.150 -0.3929 -0.1374 -0.1501
  706MOL0     C95230   6.217   3.939   9.023  0.5311 -0.3360 -0.9193
  706MOL0     C95231   6.305   3.950   9.135 -0.6900 -0.2831 -0.6734
  706MOL0     C95232   6.413   4.036   9.140  0.0131 -0.2939  0.8175
  706MOL0     C95233   6.440   4.116   9.024  0.0748  0.5890  0.5651
  706MOL0     O95234   6.516   4.228   9.008 -0.6250 -0.1441 -0.2721
  706MOL0     C95235   6.613   4.248   9.106 -0.2381 -0.0995  0.3421
  706MOL0     C95236   6.566   4.360   9.203  0.7263 -1.2206 -0.4426
  706MOL0     C95237   6.434   4.336   9.277  0.3761 -0.7577 -0.7197
  706MOL0     C95238   6.401   4.431   9.395  0.3070  0.2223  0.6562
  706MOL0     C95239   6.397   4.571   9.356 -0.5901 -0.1981  0.1839
  706MOL0     C95240   6.419   4.685   9.318 -1.0066 -0.7474 -0.7750
  706MOL0     C95241   6.350   4.097   8.915 -1.1102 -0.4883  0.4144
  706MOL0     C95242   6.236   4.019   8.914 -0.4490  0.6612  0.0972
  706MOL0     H95243   5.884   3.941   9.332 -0.3854 -0.9134  3.1718
  706MOL0     H95244   5.668   3.838   9.379  1.2764  0.7990  1.3529
  706MOL0     H95245   5.520   3.464   9.157  1.6079  0.4368 -0.4769
  706MOL0     H95246   5.620   3.452   9.303  0.5007  4.4449  3.4333
  706MOL0     H95247   5.382   3.372   9.317  1.6497  0.0465 -4.9797
  706MOL0     H95248   5.418   3.485   9.451 -0.6746  0.0820  0.3470
  706MOL0     H95249   5.305   3.656   9.327 -1.5288  0.5052 -0.8003
  706MOL0     H95250   5.308   3.568   9.175 -2.7533  2.7405 -0.3624
  706MOL0     H95251   5.154   3.400   9.285  1.1840 -0.1190  1.0944
  706MOL0     H95252   5.150   3.493   9.428  1.5739  3.0782  1.1970
  706MOL0     H95253   5.071   3.684   9.236 -3.3951  0.7421 -2.5664
  706MOL0     H95254   5.004   3.529   9.183 -2.5971 -1.2231  1.6323
  706MOL0     H95255   4.894   3.514   9.406  2.2670  0.4000  3.1590
  706MOL0     H95256   4.967   3.664   9.452 -0.9388  0.2928  0.7668
  706MOL0     H95257   4.848   3.772   9.253  0.1768 -0.0026  0.0696
  706MOL0     H95258   4.772   3.614   9.215  1.0006  3.5969 -3.3264
  706MOL0     H95259   4.738   3.746   9.468 -1.3400  2.1582 -1.8812
  706MOL0     H95260   4.654   3.599   9.417  1.5520 -0.3890  2.2043
  706MOL0     H95261   4.662   3.982   9.414  2.2624 -0.1016 -1.9187
  706MOL0     H95262   4.518   4.183   9.343 -1.2109  1.8380 -1.5376
  706MOL0     H95263   4.400   4.149   9.212  2.3150 -3.0007 -1.3464
  706MOL0     H95264   4.312   4.244   9.442  0.2931  0.5916  1.0811
  706MOL0     H95265   4.309   4.081   9.485  1.9680  1.8394  0.4336
  706MOL0     H95266   4.184   4.011   9.296 -0.2371 -0.0507 -0.2537
  706MOL0     H95267   4.185   4.187   9.226  0.7239  0.2782  0.0522
  706MOL0     H95268   4.054   4.109   9.484  0.2902  1.7828  0.8068
  706MOL0     H95269   3.966   4.136   9.334  1.9159 -1.7637 -0.4291
  706MOL0     H95270   3.792   4.361   9.348 -1.2029  0.5222  1.0373
  706MOL0     H95271   3.667   4.554   9.102 -0.7215 -0.2355  0.1780
  706MOL0     H95272   3.720   4.402   9.021 -0.6092  1.4480 -0.3370
  706MOL0     H95273   3.661   4.405   9.190  2.2288 -0.4444  3.3024
  706MOL0     H95274   3.656   4.669   8.810 -0.0691  2.6216  0.8811
  706MOL0     H95275   3.607   4.753   8.573 -0.3811 -2.1222 -0.9168
  706MOL0     H95276   3.656   4.936   8.402  0.1268  0.4974 -0.0531
  706MOL0     H95277   3.816   4.982   8.450 -2.3987  0.1122  1.1890
  706MOL0     H95278   3.680   4.957   8.181  0.7082 -0.7894  0.8381
  706MOL0     H95279   3.751   5.096   8.227 -1.7839  0.2788  0.3518
  706MOL0     H95280   3.970   5.018   8.242 -1.5354  0.4769  1.1962
  706MOL0     H95281   3.899   5.049   8.088 -2.5851 -0.1201  0.3442
  706MOL0     H95282   3.932   4.766   8.200  0.3336  0.2042  2.4112
  706MOL0     H95283   3.836   4.823   8.058 -1.4445 -0.9164  2.4080
  706MOL0     H95284   4.116   4.754   8.080 -1.0850 -1.6621 -0.5424
  706MOL0     H95285   4.100   4.927   8.037 -0.6532  0.7555  1.8393
  706MOL0     H95286   3.949   4.695   7.900 -1.2702  0.7266 -0.8692
  706MOL0     H95287   3.942   4.874   7.888  0.3970  1.1061  2.6484
  706MOL0     H95288   4.156   4.875   7.779  0.2060 -0.1014  2.8950
  706MOL0     H95289   4.068   4.729   7.697  1.9191 -0.7300 -1.2898
  706MOL0     H95290   4.210   4.584   7.812  1.6460  0.0407 -0.7757
  706MOL0     H95291   4.279   4.722   7.913  2.9867  1.1898 -1.2524
  706MOL0     H95292   4.015   4.644   8.450 -0.6222  2.5352 -1.8193
  706MOL0     H95293   4.045   4.547   8.683 -0.0193 -0.5847 -1.1412
  706MOL0     H95294   4.171   4.580   9.099 -1.7298  2.2874 -0.6584
  706MOL0     H95295   4.210   4.436   9.316 -1.2129 -1.4254  1.9450
  706MOL0     H95296   5.735   3.521   9.110  0.1016  0.5352 -1.3516
  706MOL0     H95297   5.975   3.609   9.075 -0.6913 -1.4363  0.3425
  706MOL0     H95298   6.293   3.879   9.215 -2.6325  1.5075  0.7221
  706MOL0     H95299   6.475   4.052   9.228  3.7608  1.0157 -1.8127
  706MOL0     H95300   6.644   4.152   9.149  3.6258  1.7522  2.1144
  706MOL0     H95301   6.703   4.290   9.061 -1.1488  1.3434 -0.1910
  706MOL0     H95302   6.556   4.455   9.150  1.9180 -0.5217  0.5405
  706MOL0     H95303   6.656   4.376   9.263  0.3064  1.6096 -0.4316
  706MOL0     H95304   6.435   4.236   9.322  2.3669 -0.4406  0.0313
  706MOL0     H95305   6.339   4.336   9.222 -2.3075 -2.5870  3.4215
  706MOL0     H95306   6.472   4.428   9.478  2.5305  0.5361 -1.1546
  706MOL0     H95307   6.305   4.408   9.442  1.0913 -2.3847  1.1233
  706MOL0     H95308   6.436   4.791   9.307 -0.8027 -0.7139 -0.1841
  706MOL0     H95309   6.362   4.169   8.835  2.7584 -0.1610  1.1052
  706MOL0     H95310   6.174   4.023   8.825  2.7793 -2.2207 -2.5750
  707MOL0     O95311   6.851   8.230   8.791 -0.3295 -0.3945 -0.6400
  707MOL0     C95312   6.766   8.169   8.852  0.4330 -0.2349  0.6211
  707MOL0     O95313   6.681   8.089   8.783  0.1882 -0.7154  0.3710
  707MOL0     C95314   6.693   8.097   8.648 -1.1193  1.0515 -0.0844
  707MOL0     C95315   6.637   8.198   8.570  0.5165  0.1045  1.2506
  707MOL0     C95316   6.651   8.218   8.431  0.3683 -0.2032  1.0545
  707MOL0     C95317   6.715   8.117   8.364  0.2355  0.2009 -0.7448
  707MOL0     O95318   6.703   8.127   8.229 -0.6131 -0.1583 -0.6217
  707MOL0     C95319   6.704   8.009   8.145  0.5612 -0.1149 -0.7895
  707MOL0     C95320   6.581   7.919   8.166 -0.5753  1.0082  1.2472
  707MOL0     C95321   6.561   7.820   8.043 -0.9392  0.3811  0.3055
  707MOL0     C95322   6.677   7.734   8.009  0.8717 -0.0303 -0.3657
  707MOL0     C95323   6.703   7.646   8.126 -0.5101  0.0710  1.2447
  707MOL0     C95324   6.598   7.542   8.173 -0.4479 -0.6395  0.3145
  707MOL0     C95325   6.552   7.461   8.049  0.0272 -0.5061 -0.4723
  707MOL0     C95326   6.639   7.362   7.983 -0.2840 -0.8868  0.5615
  707MOL0     N95327   6.566   7.306   7.863 -1.4075  0.4424 -0.7258
  707MOL0     C95328   6.620   7.328   7.739  0.3403  0.1168 -0.1892
  707MOL0     C95329   6.574   7.222   7.660 -0.3692 -0.2333  0.5398
  707MOL0     C95330   6.597   7.191   7.519  1.1568 -0.9069  0.5341
  707MOL0     C95331   6.744   7.142   7.489  0.2276 -0.1463  0.2319
  707MOL0     C95332   6.775   7.006   7.540 -1.0190 -0.3528 -0.0511
  707MOL0     C95333   6.921   6.969   7.492  0.8669 -1.3806 -0.1481
  707MOL0     O95334   6.950   7.003   7.349 -0.2984 -0.1786 -1.1725
  707MOL0     C95335   6.948   6.884   7.274 -0.3545 -0.4827  0.2623
  707MOL0     C95336   6.827   6.839   7.215  0.9537 -0.7928 -0.0443
  707MOL0     C95337   6.826   6.727   7.129  0.6013 -0.2426  0.4400
  707MOL0     C95338   6.695   6.704   7.059  0.2064 -0.2521 -0.5195
  707MOL0     C95339   6.945   6.644   7.116  0.9165 -0.2365  0.0318
  707MOL0     C95340   6.937   6.534   7.030  0.2620  0.1115 -0.7439
  707MOL0     O95341   7.002   6.421   7.088  0.5858  0.1677  0.7555
  707MOL0     C95342   7.011   6.314   7.001  0.7199 -0.1416  0.3216
  707MOL0     C95343   7.052   6.317   6.869 -0.8765 -0.0905 -0.2064
  707MOL0     C95344   7.062   6.200   6.792 -0.5597  1.0629 -0.9935
  707MOL0     C95345   7.001   6.088   6.841  0.4152  0.1309  0.1843
  707MOL0     O95346   7.003   5.978   6.765 -0.1968 -0.3538 -0.0204
  707MOL0     C95347   6.902   5.882   6.781 -0.3089 -0.9508  0.2776
  707MOL0     C95348   6.866   5.830   6.638 -1.0512  0.2320  0.0499
  707MOL0     C95349   6.960   5.714   6.598 -0.6227 -0.1383  0.2030
  707MOL0     C95350   6.914   5.644   6.468  0.5153  0.5519 -0.2906
  707MOL0     C95351   7.035   5.557   6.413 -0.2498  0.2949  0.0313
  707MOL0     C95352   6.995   5.478   6.290  0.6831 -0.3888 -0.0383
  707MOL0     C95353   6.959   5.554   6.160  0.2572  0.8671  0.1541
  707MOL0     C95354   6.913   5.457   6.042  0.0619 -0.1427 -0.3612
  707MOL0    Cl95355   6.843   5.563   5.910 -0.3735 -0.4218  0.1390
  707MOL0     C95356   6.955   6.077   6.973 -0.2867  0.0737  0.4425
  707MOL0     C95357   6.969   6.191   7.052  0.6448 -0.4654 -0.9732
  707MOL0     O95358   6.888   6.543   6.917  0.3357 -0.2962  0.0788
  707MOL0     C95359   7.057   6.676   7.196 -0.1359  0.7338 -0.3352
  707MOL0     C95360   7.056   6.796   7.271 -0.3709 -0.2496 -0.6226
  707MOL0     N95361   6.489   7.142   7.746 -0.5964 -0.4222  0.9379
  707MOL0     N95362   6.496   7.190   7.865  0.1525  0.2596  0.6302
  707MOL0     C95363   6.754   8.001   8.438 -0.5087 -0.8476 -0.6298
  707MOL0     C95364   6.751   7.991   8.576 -0.3271  0.3104 -0.1997
  707MOL0     C95365   6.737   8.186   8.997  1.1067 -0.2608 -0.4951
  707MOL0     C95366   6.618   8.135   9.058  0.4076 -0.0776  0.6022
  707MOL0     C95367   6.590   8.142   9.196  0.5819  0.2098  0.1674
  707MOL0     C95368   6.670   8.209   9.286 -0.3210  0.4644 -0.5375
  707MOL0     O95369   6.636   8.231   9.422  0.4047  0.3460  0.1192
  707MOL0     C95370   6.700   8.315   9.517 -0.3152 -1.0497 -0.0807
  707MOL0     C95371   6.600   8.383   9.619  0.3240 -0.5686  0.1901
  707MOL0     C95372   6.458   8.437   9.565 -0.4611  0.0766 -0.3374
  707MOL0     C95373   6.476   8.547   9.467  1.0037  0.1005  0.4152
  707MOL0     C95374   6.537   8.657   9.528  0.6527  0.3308 -0.0888
  707MOL0     C95375   6.580   8.753   9.593 -0.1747  0.5203 -0.7372
  707MOL0     C95376   6.785   8.261   9.226  0.0195 -0.3664  0.7582
  707MOL0     C95377   6.818   8.255   9.086  0.1988  0.3056 -0.3146
  707MOL0     H95378   6.585   8.281   8.616  0.3419  0.8200 -0.2116
  707MOL0     H95379   6.622   8.315   8.392 -0.4512 -0.1999  1.6571
  707MOL0     H95380   6.685   8.042   8.043 -1.2631  0.4461 -0.3042
  707MOL0     H95381   6.797   7.957   8.170  3.0082  3.3798 -1.8822
  707MOL0     H95382   6.589   7.862   8.258 -1.3445 -1.6564 -0.2354
  707MOL0     H95383   6.493   7.984   8.176  0.8486  3.0027  1.5462
  707MOL0     H95384   6.472   7.763   8.070 -1.7039  1.0255 -0.8020
  707MOL0     H95385   6.536   7.886   7.960 -2.5207  0.4931  0.8392
  707MOL0     H95386   6.656   7.682   7.915  2.4661 -0.0460 -0.7556
  707MOL0     H95387   6.765   7.792   7.978  0.2585  1.6052  0.8331
  707MOL0     H95388   6.785   7.585   8.086 -1.2484  0.9042 -1.8002
  707MOL0     H95389   6.736   7.703   8.214  1.3281 -1.0634  1.3668
  707MOL0     H95390   6.659   7.484   8.242  2.1102  0.4738 -0.8771
  707MOL0     H95391   6.520   7.592   8.232  1.9150  1.7269  1.6589
  707MOL0     H95392   6.474   7.399   8.095 -0.3263  2.4226  3.2643
  707MOL0     H95393   6.498   7.524   7.978 -1.4868 -0.4650  0.6635
  707MOL0     H95394   6.655   7.272   8.043 -0.0976  0.9657  3.4467
  707MOL0     H95395   6.722   7.421   7.944 -3.3536  3.2024 -0.4999
  707MOL0     H95396   6.678   7.416   7.713 -2.0748  0.5061 -5.7923
  707MOL0     H95397   6.528   7.115   7.482  0.9604  0.0730 -1.2314
  707MOL0     H95398   6.568   7.277   7.458 -1.1237 -0.1384  2.5595
  707MOL0     H95399   6.817   7.218   7.518  2.2802 -1.5874 -0.8561
  707MOL0     H95400   6.760   7.146   7.380 -0.3551 -2.3229  0.0043
  707MOL0     H95401   6.693   6.945   7.501 -0.2129 -1.4163 -0.1405
  707MOL0     H95402   6.772   7.011   7.649 -1.3084 -1.8418  0.0290
  707MOL0     H95403   6.947   6.864   7.513 -1.6989 -1.8063  1.2248
  707MOL0     H95404   6.975   7.032   7.562 -2.3797  0.8078  0.5790
  707MOL0     H95405   6.743   6.905   7.234  1.5132  0.0345 -0.3886
  707MOL0     H95406   6.641   6.613   7.088 -3.2242 -0.0200 -5.0194
  707MOL0     H95407   6.627   6.785   7.090  0.9353 -0.6903  2.5799
  707MOL0     H95408   6.703   6.701   6.950  1.7580 -0.1184 -0.4204
  707MOL0     H95409   7.101   6.402   6.824 -0.3320  0.0578  0.6572
  707MOL0     H95410   7.105   6.205   6.693  0.7096  3.3301 -0.4252
  707MOL0     H95411   6.936   5.806   6.852 -0.7380 -1.0128  0.4170
  707MOL0     H95412   6.809   5.932   6.811  0.0009 -0.1478 -0.0611
  707MOL0     H95413   6.765   5.793   6.654 -0.5802 -2.8728 -3.0914
  707MOL0     H95414   6.870   5.906   6.559  0.4055 -0.7296 -0.8461
  707MOL0     H95415   6.981   5.639   6.675  0.3380  0.2272  0.3198
  707MOL0     H95416   7.049   5.777   6.586 -2.8684  3.6855  1.8713
  707MOL0     H95417   6.830   5.583   6.503  0.2742  1.9000  1.6466
  707MOL0     H95418   6.902   5.716   6.387  1.9226  0.4309 -0.6235
  707MOL0     H95419   7.064   5.498   6.500 -1.6002 -0.6489 -0.1149
  707MOL0     H95420   7.115   5.620   6.375 -1.0549  1.4576  0.2193
  707MOL0     H95421   7.079   5.414   6.261 -0.5913 -1.5178 -1.4090
  707MOL0     H95422   6.911   5.412   6.315  0.1459 -0.2510 -1.4196
  707MOL0     H95423   7.037   5.626   6.132 -0.8516  2.4526  0.9318
  707MOL0     H95424   6.881   5.623   6.193  0.1731  1.1650 -0.6341
  707MOL0     H95425   6.824   5.399   6.067  0.3308  1.1085  4.3319
  707MOL0     H95426   7.001   5.408   5.999 -0.8665 -3.6800  1.3619
  707MOL0     H95427   6.909   5.989   7.017 -0.6117  0.2314  0.4256
  707MOL0     H95428   6.937   6.174   7.155  0.1591  0.9343 -0.8677
  707MOL0     H95429   7.144   6.612   7.188 -0.2284  0.5241  0.2664
  707MOL0     H95430   7.142   6.825   7.330 -2.8452  2.6736  1.8919
  707MOL0     H95431   6.804   7.913   8.398 -0.3948 -2.0871  1.9770
  707MOL0     H95432   6.774   7.897   8.624 -1.7796 -0.1517 -0.3504
  707MOL0     H95433   6.542   8.082   9.002 -2.4743  1.2254  3.0030
  707MOL0     H95434   6.507   8.089   9.240  0.7198 -0.3010 -0.1838
  707MOL0     H95435   6.782   8.269   9.572  0.7292 -1.0533 -1.5680
  707MOL0     H95436   6.758   8.393   9.468  2.6884 -2.4047  1.0701
  707MOL0     H95437   6.650   8.467   9.667 -0.9665  0.6444 -0.5234
  707MOL0     H95438   6.571   8.310   9.695  0.6525 -2.1218 -1.1202
  707MOL0     H95439   6.401   8.472   9.652 -0.2756  2.2396 -1.0338
  707MOL0     H95440   6.406   8.356   9.513  1.3563  0.7794 -3.5200
  707MOL0     H95441   6.374   8.576   9.442  0.6688 -1.2877  0.0727
  707MOL0     H95442   6.524   8.514   9.374 -1.3212  2.3171 -1.7143
  707MOL0     H95443   6.616   8.841   9.643 -0.7988  0.0312  0.6302
  707MOL0     H95444   6.847   8.328   9.284  1.1953  0.3518 -1.2443
  707MOL0     H95445   6.909   8.304   9.051 -0.1949  3.0896  2.1457
  708MOL0     O95446   7.947   7.944   7.922  0.1586  0.5042 -0.3418
  708MOL0     C95447   7.977   7.968   8.036 -0.4335  0.8216  0.2964
  708MOL0     O95448   7.977   7.878   8.147  0.6321 -0.2949  0.2384
  708MOL0     C95449   7.916   7.758   8.136 -0.6482 -0.8524 -0.8489
  708MOL0     C95450   7.850   7.713   8.253  0.8286 -0.2819 -1.2450
  708MOL0     C95451   7.820   7.578   8.262 -0.3339  0.3519  0.4627
  708MOL0     C95452   7.844   7.488   8.150  0.4528 -0.6130  0.0803
  708MOL0     O95453   7.810   7.352   8.155 -0.1548 -0.0004 -0.7563
  708MOL0     C95454   7.745   7.303   8.039 -0.7124  0.0142  0.2382
  708MOL0     C95455   7.691   7.157   8.059  0.8619  0.0924  0.6674
  708MOL0     C95456   7.620   7.102   7.928  0.3934 -0.2512 -0.6572
  708MOL0     C95457   7.529   6.986   7.952  0.2023 -0.2033 -0.4032
  708MOL0     C95458   7.531   6.878   7.832 -0.1700 -0.2117  0.0827
  708MOL0     C95459   7.509   6.944   7.696  0.0558 -0.2636 -0.4296
  708MOL0     C95460   7.509   6.858   7.569  0.6384  0.5564 -1.6624
  708MOL0     C95461   7.495   6.917   7.432  0.0085 -0.4538 -0.3293
  708MOL0     N95462   7.410   7.037   7.419  0.0597  0.3812  0.7374
  708MOL0     C95463   7.468   7.159   7.396  1.0364  0.2128 -0.4050
  708MOL0     C95464   7.366   7.247   7.365 -0.4980  0.2087  0.2918
  708MOL0     C95465   7.362   7.396   7.337  0.3433  0.7135  0.1770
  708MOL0     C95466   7.419   7.474   7.455  0.6308  0.5415  0.1931
  708MOL0     C95467   7.417   7.634   7.432 -0.9099  0.1835 -0.4061
  708MOL0     C95468   7.273   7.690   7.422  0.5523 -0.3237  0.3449
  708MOL0     O95469   7.257   7.831   7.396  0.2885 -0.2529  0.0940
  708MOL0     C95470   7.246   7.912   7.502 -0.3663 -0.1211  0.0077
  708MOL0     C95471   7.206   8.041   7.476  0.5123 -1.1999  0.1087
  708MOL0     C95472   7.188   8.151   7.569  1.2189  0.3565 -0.2679
  708MOL0     C95473   7.117   8.281   7.517  0.9114 -0.3104  0.0431
  708MOL0     C95474   7.205   8.119   7.711 -1.2008 -0.8102 -0.3218
  708MOL0     C95475   7.201   8.214   7.822  0.3658  0.6135 -1.2177
  708MOL0     O95476   7.258   8.179   7.940 -0.2630  0.4547 -0.2991
  708MOL0     C95477   7.231   8.254   8.050  1.0272 -1.2999 -0.7487
  708MOL0     C95478   7.136   8.193   8.130 -0.1867  0.4207 -0.5173
  708MOL0     C95479   7.102   8.251   8.260  0.0402  0.1851 -0.6315
  708MOL0     C95480   7.167   8.368   8.306  0.0122 -1.3470  0.6631
  708MOL0     O95481   7.127   8.425   8.424  0.3151  0.4771  0.1205
  708MOL0     C95482   7.122   8.342   8.541 -0.4516  0.8108  0.9551
  708MOL0     C95483   7.118   8.429   8.670  0.2806 -0.6173  0.2658
  708MOL0     C95484   7.211   8.549   8.664 -0.4232 -0.2218  0.2597
  708MOL0     C95485   7.366   8.514   8.668 -1.3926  0.1505 -0.5046
  708MOL0     C95486   7.448   8.645   8.650  0.7273 -0.2761 -0.1077
  708MOL0     C95487   7.452   8.726   8.781  0.1274 -0.8131 -0.1876
  708MOL0     C95488   7.540   8.851   8.773 -0.2900 -0.4429  0.1994
  708MOL0     C95489   7.537   8.938   8.896 -0.5404  0.5727 -0.5179
  708MOL0    Cl95490   7.656   9.070   8.875  0.8205 -0.0118  0.0796
  708MOL0     C95491   7.266   8.430   8.220 -0.3915  0.0200 -1.5400
  708MOL0     C95492   7.289   8.375   8.092  0.0405 -1.1025 -0.3856
  708MOL0     O95493   7.125   8.307   7.818 -1.2482  0.5817  0.8705
  708MOL0     C95494   7.247   7.980   7.739 -0.3304 -0.9857 -0.4475
  708MOL0     C95495   7.275   7.880   7.643  0.1358 -0.3971  1.4367
  708MOL0     N95496   7.236   7.167   7.373 -0.8969 -0.3365  0.1781
  708MOL0     N95497   7.276   7.046   7.400  0.8459 -0.3135 -0.0985
  708MOL0     C95498   7.910   7.534   8.036 -0.5232  0.0590 -0.4078
  708MOL0     C95499   7.949   7.669   8.022 -0.5820  0.1758 -0.6089
  708MOL0     C95500   8.026   8.101   8.073 -0.1191  0.1750 -0.5706
  708MOL0     C95501   8.015   8.143   8.207  0.1674  0.1140 -0.0528
  708MOL0     C95502   8.097   8.239   8.261  0.1318  0.4147  0.6069
  708MOL0     C95503   8.147   8.339   8.179  0.3537 -0.5133  0.3022
  708MOL0     O95504   8.211   8.456   8.205 -0.4852  0.3031  0.1318
  708MOL0     C95505   8.174   8.532   8.316  0.6841  0.4530 -1.3678
  708MOL0     C95506   8.021   8.566   8.333 -1.1151  0.2649 -0.1879
  708MOL0     C95507   8.003   8.681   8.433 -0.0746  0.1300 -0.1572
  708MOL0     C95508   7.857   8.679   8.508 -0.8426  0.5709 -1.1575
  708MOL0     C95509   7.737   8.645   8.430  0.9505  0.1582 -0.1229
  708MOL0     C95510   7.637   8.628   8.364 -0.1299 -0.1682 -0.0958
  708MOL0     C95511   8.150   8.303   8.044  0.3780  0.3906 -0.0241
  708MOL0     C95512   8.097   8.183   8.002 -0.5387  0.8555  0.7362
  708MOL0     H95513   7.821   7.785   8.329 -0.1608  2.0010 -3.6277
  708MOL0     H95514   7.784   7.524   8.349 -0.6344 -0.0866  0.0756
  708MOL0     H95515   7.658   7.359   8.005 -0.7271  0.7043  1.3586
  708MOL0     H95516   7.821   7.298   7.960 -0.3974  2.6047  0.2688
  708MOL0     H95517   7.779   7.107   8.100 -0.4367 -0.4438  3.0112
  708MOL0     H95518   7.628   7.155   8.149  0.8630  0.7286  0.6919
  708MOL0     H95519   7.561   7.174   7.870  1.0756 -0.8108 -2.0791
  708MOL0     H95520   7.703   7.081   7.861 -0.8206 -0.2583 -2.2124
  708MOL0     H95521   7.547   6.931   8.044  0.5526 -0.3951 -0.5835
  708MOL0     H95522   7.431   7.036   7.956  1.3322  2.5442 -2.7733
  708MOL0     H95523   7.630   6.832   7.836 -0.2489 -0.3861  0.0806
  708MOL0     H95524   7.466   6.792   7.855 -0.5884  0.4184  1.3258
  708MOL0     H95525   7.409   6.985   7.708 -0.1353  0.1345 -2.9130
  708MOL0     H95526   7.572   7.032   7.682 -2.5257  1.5391 -1.4772
  708MOL0     H95527   7.599   6.796   7.573  1.8556  2.3132 -0.1071
  708MOL0     H95528   7.425   6.791   7.589  1.1775  1.0223  3.5059
  708MOL0     H95529   7.458   6.848   7.356 -0.2206  1.9140 -2.4666
  708MOL0     H95530   7.598   6.938   7.406  0.1641 -2.7225 -1.7798
  708MOL0     H95531   7.575   7.175   7.407  1.1946 -0.5164 -0.8466
  708MOL0     H95532   7.411   7.417   7.242 -0.2921 -1.4309 -0.6819
  708MOL0     H95533   7.257   7.426   7.329 -0.0366 -0.7700 -0.7469
  708MOL0     H95534   7.525   7.450   7.468  1.0484  1.8872 -0.5699
  708MOL0     H95535   7.361   7.449   7.544 -1.4807  0.4211 -1.1706
  708MOL0     H95536   7.484   7.651   7.348 -1.0677  1.3757 -0.2953
  708MOL0     H95537   7.469   7.671   7.520 -0.5807 -3.1754  0.9836
  708MOL0     H95538   7.218   7.664   7.513 -2.3453  3.5414 -0.0591
  708MOL0     H95539   7.219   7.645   7.339  1.0080 -0.5985  0.1932
  708MOL0     H95540   7.189   8.057   7.370 -0.8267  0.6693  0.5590
  708MOL0     H95541   7.178   8.363   7.555  1.7089  0.2156 -2.2226
  708MOL0     H95542   7.125   8.278   7.408  3.0750 -1.5780  0.1814
  708MOL0     H95543   7.013   8.283   7.552 -0.0583 -4.4716 -1.9578
  708MOL0     H95544   7.096   8.099   8.093 -0.0207 -1.3517  3.3363
  708MOL0     H95545   7.029   8.215   8.332  1.6839 -2.8687 -0.3196
  708MOL0     H95546   7.043   8.267   8.535 -0.1724  0.5697  0.1682
  708MOL0     H95547   7.221   8.295   8.541 -0.3973  0.8834  2.6101
  708MOL0     H95548   7.016   8.468   8.682  0.0986  0.4166 -3.4450
  708MOL0     H95549   7.147   8.371   8.758  0.8894 -1.5325 -0.5338
  708MOL0     H95550   7.186   8.606   8.754  1.3199 -1.2404  1.4432
  708MOL0     H95551   7.181   8.605   8.575 -3.0423 -0.9150  0.6265
  708MOL0     H95552   7.396   8.450   8.752  2.4761 -2.6431 -3.5749
  708MOL0     H95553   7.385   8.444   8.586 -0.4022 -1.3826  0.9327
  708MOL0     H95554   7.405   8.717   8.580 -3.9267 -0.7167  1.9274
  708MOL0     H95555   7.549   8.625   8.616  2.2229  1.2917  3.0030
  708MOL0     H95556   7.350   8.759   8.798  1.0932  1.5668  1.4386
  708MOL0     H95557   7.495   8.654   8.851 -2.2433 -1.2096  0.9223
  708MOL0     H95558   7.508   8.911   8.687  0.6858 -0.2342 -0.0385
  708MOL0     H95559   7.644   8.830   8.746 -0.2514 -0.8793  0.6843
  708MOL0     H95560   7.573   8.893   8.989  0.0409  2.7173  0.3758
  708MOL0     H95561   7.437   8.974   8.921 -0.7372  0.9950 -1.8027
  708MOL0     H95562   7.317   8.520   8.254 -0.2177 -0.8089  0.5412
  708MOL0     H95563   7.361   8.425   8.029  0.1356 -1.9691 -0.9795
  708MOL0     H95564   7.239   7.965   7.846 -0.8294 -0.7242 -0.4454
  708MOL0     H95565   7.310   7.782   7.675 -1.1413 -1.3749  0.0133
  708MOL0     H95566   7.938   7.471   7.952  0.7974 -0.4530  0.4044
  708MOL0     H95567   7.988   7.706   7.928 -3.9361  1.2855 -1.7276
  708MOL0     H95568   7.959   8.082   8.277  3.2530 -1.6343  1.0738
  708MOL0     H95569   8.109   8.262   8.366  3.2069  1.6869  0.1058
  708MOL0     H95570   8.204   8.471   8.402  2.5347  0.4872 -1.9572
  708MOL0     H95571   8.236   8.623   8.313  3.5728 -1.2952  0.5461
  708MOL0     H95572   7.967   8.476   8.364 -2.1350  1.0134  0.2518
  708MOL0     H95573   7.980   8.590   8.235 -1.0150 -2.3825 -0.9578
  708MOL0     H95574   8.019   8.774   8.377  0.3710  1.7167  2.3971
  708MOL0     H95575   8.084   8.683   8.508  2.7768  1.9690 -3.0340
  708MOL0     H95576   7.847   8.775   8.559  0.8497 -0.2575  0.8572
  708MOL0     H95577   7.852   8.613   8.595 -0.4282  4.2313  1.8438
  708MOL0     H95578   7.558   8.607   8.295 -0.7360 -0.1497  0.5828
  708MOL0     H95579   8.200   8.367   7.973 -0.0721  0.2770 -0.4459
  708MOL0     H95580   8.120   8.137   7.906 -1.9726 -0.8697  1.1711
  709MOL0     O95581   6.136   5.177   9.915 -1.0013 -0.2978 -0.1559
  709MOL0     C95582   6.016   5.214   9.905  0.3621 -0.2297  0.7347
  709MOL0     O95583   5.971   5.329   9.835  0.4143 -0.2573 -0.0863
  709MOL0     C95584   6.047   5.399   9.749 -0.1026  0.8971 -0.2698
  709MOL0     C95585   6.000   5.526   9.732  0.5071 -0.1146  0.6251
  709MOL0     C95586   6.066   5.615   9.641 -0.4049  0.5418 -0.5468
  709MOL0     C95587   6.177   5.570   9.570  0.0392 -0.3007 -0.1793
  709MOL0     O95588   6.263   5.642   9.493  0.4748 -0.4383  0.4109
  709MOL0     C95589   6.241   5.782   9.483  0.3673  0.5990  0.5365
  709MOL0     C95590   6.327   5.843   9.372 -0.7362 -0.9011 -0.6850
  709MOL0     C95591   6.472   5.782   9.358  0.0299 -0.5664 -0.1651
  709MOL0     C95592   6.563   5.871   9.267  0.5698  0.1349  0.3163
  709MOL0     C95593   6.707   5.868   9.308 -0.1644 -0.3623  0.4701
  709MOL0     C95594   6.788   5.984   9.247  0.0037  0.5110  0.5718
  709MOL0     C95595   6.806   6.001   9.096 -0.2755 -0.0250  0.7527
  709MOL0     C95596   6.944   6.000   9.036  0.7025 -0.3261  0.6401
  709MOL0     N95597   7.030   6.119   9.063  0.1938  0.1317  0.3949
  709MOL0     C95598   7.063   6.218   8.976  0.9666  0.2563  0.6697
  709MOL0     C95599   7.161   6.292   9.035 -0.1048 -0.4214 -0.9407
  709MOL0     C95600   7.259   6.390   8.961  0.8094  0.1682 -0.4749
  709MOL0     C95601   7.180   6.513   8.925  0.1996 -0.0597  0.5389
  709MOL0     C95602   7.151   6.599   9.048  0.4700  0.7141  1.0941
  709MOL0     C95603   7.033   6.689   9.015  0.2668  0.4480  0.4395
  709MOL0     O95604   6.903   6.625   8.999  0.5433  0.2697  0.1226
  709MOL0     C95605   6.831   6.609   9.118  0.8039  0.1944 -0.2327
  709MOL0     C95606   6.880   6.635   9.254 -0.3716  0.2385 -0.5593
  709MOL0     C95607   6.794   6.620   9.366  0.8816  0.4086  0.3879
  709MOL0     C95608   6.848   6.649   9.506 -0.7454  0.2511 -0.3702
  709MOL0     C95609   6.665   6.573   9.355  0.6485 -0.4949  0.5311
  709MOL0     C95610   6.562   6.574   9.461 -0.8301  0.0841 -0.2362
  709MOL0     O95611   6.482   6.460   9.474  0.1793  0.2107  0.4031
  709MOL0     C95612   6.451   6.409   9.605  0.1749 -0.5003 -0.4193
  709MOL0     C95613   6.531   6.453   9.719  0.3626  1.1823  0.4254
  709MOL0     C95614   6.502   6.409   9.847  0.3048 -0.6436 -0.3480
  709MOL0     C95615   6.398   6.318   9.870  0.9111 -0.4040  0.2264
  709MOL0     O95616   6.380   6.269   9.999 -0.1056  0.1152 -0.2909
  709MOL0     C95617   6.493   6.228  10.070 -0.0151 -0.3294 -0.1960
  709MOL0     C95618   6.455   6.120  10.170  0.3643 -0.2515 -0.4817
  709MOL0     C95619   6.354   6.157  10.273 -0.0853 -0.1296  0.2827
  709MOL0     C95620   6.437   6.215  10.392 -0.5922 -1.3048  0.1469
  709MOL0     C95621   6.351   6.242  10.517  0.0768  0.0591 -0.3390
  709MOL0     C95622   6.433   6.241  10.649 -1.2606 -0.1028 -0.2676
  709MOL0     C95623   6.366   6.235  10.781  0.2295 -0.3466 -0.1518
  709MOL0     C95624   6.263   6.129  10.781  1.0898 -0.0943 -0.1554
  709MOL0    Cl95625   6.194   6.088  10.936 -0.3584 -0.1585 -0.6531
  709MOL0     C95626   6.316   6.278   9.760 -0.1494  0.6534 -0.2379
  709MOL0     C95627   6.348   6.320   9.626 -0.0337  0.4346 -1.1194
  709MOL0     O95628   6.554   6.681   9.521  0.2649  0.4771 -0.6998
  709MOL0     C95629   6.617   6.551   9.225 -1.6743 -1.0827 -0.2765
  709MOL0     C95630   6.698   6.569   9.103 -0.1769 -0.0673  0.3148
  709MOL0     N95631   7.179   6.237   9.161  0.0217 -0.1603 -0.6389
  709MOL0     N95632   7.095   6.135   9.180 -0.9701 -0.5726  0.4288
  709MOL0     C95633   6.217   5.440   9.581  0.0821  0.0024 -0.1653
  709MOL0     C95634   6.154   5.357   9.672  0.1087 -0.8910 -0.6293
  709MOL0     C95635   5.924   5.141   9.985 -0.1947 -0.2106  0.2888
  709MOL0     C95636   5.962   5.037  10.068 -0.6293  0.8997  0.7967
  709MOL0     C95637   5.865   4.952  10.134  0.8027 -1.0130 -0.8034
  709MOL0     C95638   5.727   4.979  10.109  0.2927 -0.3787 -0.2391
  709MOL0     O95639   5.624   4.913  10.175 -0.4646  0.1618  0.3039
  709MOL0     C95640   5.524   4.849  10.094 -0.3641 -0.7438  1.3177
  709MOL0     C95641   5.422   4.791  10.183  0.4174 -0.4987 -0.0479
  709MOL0     C95642   5.320   4.894  10.244 -0.1994  0.1717 -0.8930
  709MOL0     C95643   5.177   4.828  10.280 -0.4047  0.8093  0.2968
  709MOL0     C95644   5.174   4.719  10.374  0.5606  0.5204 -0.7549
  709MOL0     C95645   5.185   4.633  10.461 -0.3428 -0.7288 -0.1441
  709MOL0     C95646   5.690   5.084  10.020  0.5330 -0.6899  0.0584
  709MOL0     C95647   5.787   5.156   9.953  0.4568 -0.3027  0.4694
  709MOL0     H95648   5.912   5.552   9.790 -0.0159 -2.5789  1.0266
  709MOL0     H95649   6.030   5.717   9.655  0.2669  0.4895  2.2112
  709MOL0     H95650   6.134   5.783   9.460  0.1372  2.7232  1.4578
  709MOL0     H95651   6.261   5.835   9.577 -0.6135 -1.2489  1.8362
  709MOL0     H95652   6.274   5.831   9.278  0.0085 -2.4860 -0.9446
  709MOL0     H95653   6.339   5.949   9.394  0.4766 -0.9143 -1.1958
  709MOL0     H95654   6.522   5.781   9.456  4.6349 -0.5820 -2.2508
  709MOL0     H95655   6.450   5.683   9.316 -2.8403  1.1534 -3.1562
  709MOL0     H95656   6.545   5.837   9.165  0.1647 -2.8531  1.2916
  709MOL0     H95657   6.530   5.973   9.287  1.6345  0.3166  1.2732
  709MOL0     H95658   6.714   5.876   9.417  4.4899  2.6705  0.2347
  709MOL0     H95659   6.765   5.779   9.280  0.9758  0.3133  0.6028
  709MOL0     H95660   6.749   6.078   9.288 -0.1914  0.9538 -0.6018
  709MOL0     H95661   6.889   5.972   9.288  0.5529 -0.8066 -1.0711
  709MOL0     H95662   6.768   5.905   9.060 -0.3409  0.0103  0.7287
  709MOL0     H95663   6.753   6.090   9.060  2.5735  3.0417  3.4618
  709MOL0     H95664   6.945   5.972   8.930  4.3113 -1.6190  0.8950
  709MOL0     H95665   7.001   5.919   9.083  0.2593 -0.7600  0.4451
  709MOL0     H95666   7.031   6.226   8.872  1.1200 -2.2466  0.3581
  709MOL0     H95667   7.343   6.419   9.024  0.8709 -0.6986 -0.1450
  709MOL0     H95668   7.299   6.339   8.872 -1.4358 -3.0538  0.1672
  709MOL0     H95669   7.084   6.485   8.880 -0.7024  4.5744 -0.9971
  709MOL0     H95670   7.225   6.584   8.855  0.7147  0.0841  1.0090
  709MOL0     H95671   7.238   6.660   9.077 -1.6396  3.8150  1.4077
  709MOL0     H95672   7.114   6.537   9.130 -1.7960  0.8515  0.2256
  709MOL0     H95673   7.058   6.744   8.923  2.5854 -0.2652  0.5842
  709MOL0     H95674   7.021   6.762   9.095  2.4531 -0.4062  1.6355
  709MOL0     H95675   6.984   6.659   9.271  0.4796 -0.5787 -3.8605
  709MOL0     H95676   6.871   6.563   9.568  2.9236  0.4908 -1.2026
  709MOL0     H95677   6.948   6.692   9.497 -0.3541  0.2233  2.9013
  709MOL0     H95678   6.794   6.733   9.552  0.2697 -0.3131  1.9806
  709MOL0     H95679   6.621   6.512   9.706  0.7216  0.5349 -0.0914
  709MOL0     H95680   6.563   6.443   9.930 -1.5079  2.2549 -0.0639
  709MOL0     H95681   6.569   6.192  10.001  0.0747  2.0820 -1.4726
  709MOL0     H95682   6.527   6.314  10.128 -1.1450  0.3234 -0.4548
  709MOL0     H95683   6.414   6.036  10.113  0.7871 -2.0467  1.7253
  709MOL0     H95684   6.553   6.093  10.209  3.2918  1.6794 -5.5004
  709MOL0     H95685   6.308   6.066  10.312 -1.2621  0.9992  1.6101
  709MOL0     H95686   6.282   6.230  10.235 -0.4524 -1.5378 -1.8753
  709MOL0     H95687   6.510   6.137  10.418  0.0888 -0.4306  0.9219
  709MOL0     H95688   6.500   6.302  10.374 -2.0040  0.2085  2.0698
  709MOL0     H95689   6.270   6.169  10.529  0.8966 -0.6675  1.0160
  709MOL0     H95690   6.307   6.342  10.505 -0.6454 -0.3898 -1.7836
  709MOL0     H95691   6.511   6.165  10.640 -0.7343  0.5880 -2.1120
  709MOL0     H95692   6.490   6.333  10.659  0.5911 -1.3954  2.1222
  709MOL0     H95693   6.329   6.335  10.807  4.4328  1.2037  0.5889
  709MOL0     H95694   6.445   6.213  10.853  1.3937  0.9716 -0.9820
  709MOL0     H95695   6.299   6.036  10.735  0.6183 -1.3346  1.8655
  709MOL0     H95696   6.181   6.159  10.716  0.6015 -1.3164 -0.1309
  709MOL0     H95697   6.234   6.213   9.785 -0.4197  1.2246  0.3946
  709MOL0     H95698   6.286   6.292   9.541 -0.9543  1.3353 -0.7589
  709MOL0     H95699   6.520   6.512   9.196 -1.4671 -0.2760 -2.1925
  709MOL0     H95700   6.662   6.543   9.004  1.1252  0.3811 -0.2822
  709MOL0     H95701   6.300   5.393   9.529  1.0031 -0.8617  1.9610
  709MOL0     H95702   6.190   5.255   9.684  1.7903 -0.1434  1.2234
  709MOL0     H95703   6.064   5.002  10.081 -1.3453 -1.0631  1.5043
  709MOL0     H95704   5.900   4.871  10.197 -0.5983 -0.9581  0.0800
  709MOL0     H95705   5.477   4.925  10.030 -0.0067  0.8680  2.8781
  709MOL0     H95706   5.570   4.763  10.044 -0.4650 -0.8667  1.4380
  709MOL0     H95707   5.466   4.755  10.277 -1.0328  2.7345  2.0354
  709MOL0     H95708   5.367   4.719  10.121 -2.7797  1.5274  0.2193
  709MOL0     H95709   5.304   4.978  10.175  1.3902 -0.8942 -2.6671
  709MOL0     H95710   5.369   4.939  10.331 -0.5180  0.0592 -0.6526
  709MOL0     H95711   5.132   4.794  10.186  1.9380 -0.9904 -0.2680
  709MOL0     H95712   5.115   4.909  10.320 -0.7053  1.2118 -0.9440
  709MOL0     H95713   5.199   4.581  10.553  0.7442  0.4794  0.4082
  709MOL0     H95714   5.584   5.101  10.003 -0.1436 -1.6040  2.8279
  709MOL0     H95715   5.740   5.231   9.891  0.4993 -0.4305  0.2811
  710MOL0     O95716   2.252   9.729   2.674 -0.3404 -0.3671  0.2047
  710MOL0     C95717   2.301   9.719   2.557 -0.3090 -0.1470 -0.5724
  710MOL0     O95718   2.342   9.609   2.494  0.0446 -0.3020  0.2642
  710MOL0     C95719   2.315   9.481   2.550  0.1445  1.1213 -0.2708
  710MOL0     C95720   2.205   9.439   2.630 -0.1756 -0.0170  0.9056
  710MOL0     C95721   2.199   9.316   2.684  0.7602  0.0808  0.2484
  710MOL0     C95722   2.297   9.220   2.650 -0.2644 -0.5233  0.1072
  710MOL0     O95723   2.294   9.093   2.694  0.3934  0.0721 -0.0451
  710MOL0     C95724   2.164   9.024   2.681  0.2349  0.5827  0.1310
  710MOL0     C95725   2.186   8.877   2.680 -0.1714 -0.8300 -0.7636
  710MOL0     C95726   2.058   8.812   2.628  1.1489  0.1197  0.5834
  710MOL0     C95727   2.072   8.736   2.497  1.1058 -0.5857  0.3503
  710MOL0     C95728   1.934   8.684   2.453  1.3790  0.0341  0.1364
  710MOL0     C95729   1.941   8.579   2.346  0.1501 -0.3650  0.3592
  710MOL0     C95730   1.807   8.504   2.343  0.1361 -0.1103  0.5641
  710MOL0     C95731   1.787   8.441   2.208  0.6251 -0.6522  0.7493
  710MOL0     N95732   1.687   8.331   2.208 -0.6785 -0.2053  0.1119
  710MOL0     C95733   1.743   8.206   2.217  0.0804 -0.0430  0.0359
  710MOL0     C95734   1.639   8.117   2.209 -0.2048  0.7494  0.2853
  710MOL0     C95735   1.651   7.962   2.174 -0.0470 -0.7488  0.4238
  710MOL0     C95736   1.676   7.933   2.024  0.6152 -0.2021  0.1766
  710MOL0     C95737   1.708   7.789   2.012 -0.2861 -0.1970 -0.2849
  710MOL0     C95738   1.590   7.688   1.993 -1.0587  0.6380 -0.0187
  710MOL0     O95739   1.528   7.681   2.111  0.1590  0.1657 -0.5864
  710MOL0     C95740   1.421   7.599   2.102 -0.8564  0.5269 -0.3926
  710MOL0     C95741   1.387   7.507   2.002  0.6857  0.8752 -0.0528
  710MOL0     C95742   1.279   7.411   2.013 -0.1103  0.2761  0.3815
  710MOL0     C95743   1.268   7.301   1.911 -0.7930  0.3097 -0.0075
  710MOL0     C95744   1.192   7.423   2.118  0.0477  0.0443 -0.1884
  710MOL0     C95745   1.080   7.334   2.142 -0.8734 -0.3218 -1.4712
  710MOL0     O95746   1.012   7.284   2.031 -0.6743 -0.0122 -1.3660
  710MOL0     C95747   0.919   7.190   2.062  0.0895 -0.2818  0.1202
  710MOL0     C95748   0.937   7.054   2.081 -0.7041 -0.2269  0.5763
  710MOL0     C95749   0.835   6.968   2.106 -0.3603  0.0334 -0.1148
  710MOL0     C95750   0.709   7.009   2.113  0.7636  1.2648 -0.5975
  710MOL0     O95751   0.611   6.914   2.132 -0.0621 -0.2751 -0.5011
  710MOL0     C95752   0.488   6.954   2.174 -0.0657 -0.4629  0.3181
  710MOL0     C95753   0.412   6.838   2.241 -0.6143  0.3533  0.8707
  710MOL0     C95754   0.281   6.884   2.300  0.6130 -1.0241  0.4638
  710MOL0     C95755   0.186   6.777   2.344  0.0810  0.1830  0.2848
  710MOL0     C95756   0.061   6.838   2.413 -1.1627  1.2508  0.3673
  710MOL0     C95757  -0.074   6.836   2.349  0.1999  0.1118  0.1142
  710MOL0     C95758  -0.180   6.908   2.444 -0.6072  0.5285  0.3603
  710MOL0     C95759  -0.303   6.923   2.363 -0.2830 -0.6503 -0.4054
  710MOL0    Cl95760  -0.429   6.985   2.462 -0.0142 -0.1863 -0.3507
  710MOL0     C95761   0.677   7.142   2.083  0.7205 -0.8984 -0.7682
  710MOL0     C95762   0.780   7.232   2.062 -0.0646  0.3648 -0.3437
  710MOL0     O95763   1.072   7.295   2.259  0.6944 -0.3497  0.7383
  710MOL0     C95764   1.234   7.516   2.224  0.7116 -0.5092 -0.3541
  710MOL0     C95765   1.351   7.594   2.219  0.4636  0.2318  0.2316
  710MOL0     N95766   1.521   8.195   2.188 -0.3152 -0.1764 -0.2339
  710MOL0     N95767   1.550   8.326   2.197 -0.5965  0.1478 -0.6702
  710MOL0     C95768   2.400   9.253   2.572  0.6495 -0.7597  0.5262
  710MOL0     C95769   2.406   9.382   2.526  0.0947  0.2164  0.8224
  710MOL0     C95770   2.306   9.838   2.476 -1.6466 -1.2354 -0.2336
  710MOL0     C95771   2.285   9.972   2.534  0.1503  0.4232  0.1466
  710MOL0     C95772   2.288  10.092   2.462 -0.1798 -0.1764 -0.7727
  710MOL0     C95773   2.329  10.081   2.334 -0.2662  0.1877  0.2193
  710MOL0     O95774   2.338  10.187   2.251 -0.4689 -0.1559  0.2624
  710MOL0     C95775   2.302  10.319   2.293 -0.0776  1.5649 -0.7930
  710MOL0     C95776   2.284  10.413   2.175  0.0482  0.3065  0.2908
  710MOL0     C95777   2.193  10.372   2.069 -0.2364  0.0084  0.2132
  710MOL0     C95778   2.133  10.478   1.972 -0.5234  0.4289  0.3567
  710MOL0     C95779   2.012  10.443   1.894 -0.0964 -0.4313 -0.4028
  710MOL0     C95780   1.912  10.411   1.832  0.1403  0.1464 -0.0988
  710MOL0     C95781   2.363   9.958   2.270  0.3036  0.8504  0.1924
  710MOL0     C95782   2.360   9.837   2.347  0.1934  0.3402  0.2961
  710MOL0     H95783   2.121   9.505   2.649 -0.7362  0.3139 -2.1994
  710MOL0     H95784   2.114   9.290   2.746  0.6832  2.7001  1.3850
  710MOL0     H95785   2.110   9.044   2.775  0.4293 -0.3795  0.4658
  710MOL0     H95786   2.119   9.061   2.589  0.5891  1.3797  0.2717
  710MOL0     H95787   2.270   8.842   2.620 -1.3822  0.2658 -3.2508
  710MOL0     H95788   2.215   8.860   2.784  3.5668  3.0186 -0.9116
  710MOL0     H95789   2.036   8.725   2.691 -0.4561 -1.3898 -1.8425
  710MOL0     H95790   1.973   8.880   2.620 -0.0517 -1.2602  1.0546
  710MOL0     H95791   2.105   8.802   2.416 -0.3872 -0.9719 -0.6168
  710MOL0     H95792   2.146   8.656   2.505  1.2914 -0.5705 -0.9893
  710MOL0     H95793   1.888   8.637   2.541  1.2851 -3.5213 -1.6036
  710MOL0     H95794   1.876   8.773   2.429 -0.8179 -0.4991  2.9091
  710MOL0     H95795   1.952   8.638   2.254  2.5388  0.3110  1.0038
  710MOL0     H95796   2.028   8.514   2.350  1.5608  1.5133  2.0219
  710MOL0     H95797   1.825   8.419   2.409  0.9877  0.6154  1.2842
  710MOL0     H95798   1.717   8.559   2.371 -2.8946 -3.7620 -1.1434
  710MOL0     H95799   1.881   8.410   2.161 -0.1295  1.4144 -2.4982
  710MOL0     H95800   1.746   8.510   2.134 -0.4471 -1.3942  0.6240
  710MOL0     H95801   1.848   8.178   2.226 -0.2889 -1.3059  0.5693
  710MOL0     H95802   1.732   7.928   2.238 -1.3957  0.5032  2.9554
  710MOL0     H95803   1.557   7.911   2.197 -0.7910 -1.3833 -3.2678
  710MOL0     H95804   1.750   8.002   1.981  0.2454 -1.3743 -2.6012
  710MOL0     H95805   1.592   7.950   1.956  1.4679 -0.9166 -1.1035
  710MOL0     H95806   1.764   7.765   2.103 -1.0408  1.1122  0.5718
  710MOL0     H95807   1.774   7.779   1.926  1.2112  1.1628  0.6449
  710MOL0     H95808   1.639   7.595   1.964 -1.2006 -0.0676  1.8697
  710MOL0     H95809   1.521   7.729   1.918 -1.2951  0.0538 -0.1229
  710MOL0     H95810   1.443   7.496   1.909  0.9902 -2.7615  0.4386
  710MOL0     H95811   1.229   7.210   1.956 -0.0607  0.2180  0.4631
  710MOL0     H95812   1.215   7.326   1.818 -0.2514 -2.4166 -1.1336
  710MOL0     H95813   1.367   7.273   1.874 -0.5983 -0.4608  1.0760
  710MOL0     H95814   1.031   7.005   2.057 -0.9372 -0.5287  0.2649
  710MOL0     H95815   0.863   6.863   2.108 -0.6862 -0.0515  0.0331
  710MOL0     H95816   0.498   7.036   2.245 -0.4743 -0.4091  0.3171
  710MOL0     H95817   0.437   6.992   2.085 -0.7073  0.9472  1.2664
  710MOL0     H95818   0.387   6.755   2.173 -0.5095  1.5216 -0.6584
  710MOL0     H95819   0.466   6.789   2.322 -4.3460 -2.9334  1.6913
  710MOL0     H95820   0.237   6.933   2.213  2.7149 -0.2997 -0.2755
  710MOL0     H95821   0.305   6.952   2.383  0.4505  0.0589 -0.3521
  710MOL0     H95822   0.145   6.714   2.264  1.5678  1.9616 -2.0070
  710MOL0     H95823   0.237   6.711   2.414 -1.7508 -2.8001 -1.0051
  710MOL0     H95824   0.071   6.938   2.457  1.3317  0.5590  1.5531
  710MOL0     H95825   0.039   6.777   2.502  0.6415  2.7178  1.9028
  710MOL0     H95826  -0.063   6.886   2.252 -1.2495  0.0728 -0.0869
  710MOL0     H95827  -0.103   6.730   2.343  0.4139 -0.0631  1.6580
  710MOL0     H95828  -0.142   7.005   2.477  2.0870  0.3902 -1.9447
  710MOL0     H95829  -0.205   6.841   2.527 -0.3694 -1.9124 -1.4452
  710MOL0     H95830  -0.332   6.828   2.316 -1.0781  0.9990 -3.5258
  710MOL0     H95831  -0.300   7.000   2.285  1.2853 -1.6526 -1.4153
  710MOL0     H95832   0.577   7.181   2.096  0.8364 -0.8581  0.0728
  710MOL0     H95833   0.748   7.335   2.058 -4.1069 -0.7635 -2.2673
  710MOL0     H95834   1.188   7.527   2.322 -0.7573  0.3231 -1.0983
  710MOL0     H95835   1.371   7.668   2.296  2.4274  0.5185 -0.4960
  710MOL0     H95836   2.475   9.181   2.545  0.7192 -1.7122  2.9628
  710MOL0     H95837   2.473   9.433   2.458  0.3485 -0.4826  0.5490
  710MOL0     H95838   2.253   9.971   2.637 -1.2235  0.1393 -0.2668
  710MOL0     H95839   2.253  10.186   2.503  1.6268  0.6179 -0.9691
  710MOL0     H95840   2.204  10.300   2.338 -0.2122  1.7407 -1.0093
  710MOL0     H95841   2.372  10.356   2.369  2.4919 -2.2123 -1.0502
  710MOL0     H95842   2.384  10.430   2.133 -0.7608  1.0857 -1.4453
  710MOL0     H95843   2.243  10.506   2.218  1.6463  1.5824 -0.8110
  710MOL0     H95844   2.102  10.341   2.122  0.3002  2.2077  2.5604
  710MOL0     H95845   2.228  10.280   2.021 -0.6143 -0.7271  1.2968
  710MOL0     H95846   2.215  10.501   1.904 -0.2235  5.0996  1.9572
  710MOL0     H95847   2.127  10.576   2.020  1.6183  2.0963 -2.4521
  710MOL0     H95848   1.840  10.357   1.775  3.5591 -2.7220 -2.1485
  710MOL0     H95849   2.396   9.961   2.167 -1.1907  1.5749 -0.2816
  710MOL0     H95850   2.393   9.750   2.292  0.7608  0.6403  0.1571
  711MOL0     O95851   9.137  11.137   8.082 -0.6009 -0.0240 -0.1143
  711MOL0     C95852   9.256  11.107   8.044 -0.6955  0.3937  0.1857
  711MOL0     O95853   9.356  11.185   7.988 -0.9096 -0.5969 -0.0260
  711MOL0     C95854   9.338  11.323   7.979  0.9942  0.0696 -0.1084
  711MOL0     C95855   9.260  11.403   8.066  0.2670 -0.1688 -0.1074
  711MOL0     C95856   9.252  11.547   8.043  0.3257  1.0531  1.1860
  711MOL0     C95857   9.320  11.604   7.941  0.5940  0.0061  0.3333
  711MOL0     O95858   9.307  11.739   7.932 -0.2119  0.6630  0.1967
  711MOL0     C95859   9.400  11.807   7.836  0.9870 -0.0383 -0.0816
  711MOL0     C95860   9.330  11.807   7.696 -0.1406 -0.0569 -0.4352
  711MOL0     C95861   9.409  11.869   7.586 -0.2219  0.2947  0.6862
  711MOL0     C95862   9.493  11.988   7.633 -0.2690 -0.0159 -0.1402
  711MOL0     C95863   9.560  12.068   7.513  0.0563 -0.7676 -0.7715
  711MOL0     C95864   9.636  11.979   7.416  0.0840 -0.2400 -0.0690
  711MOL0     C95865   9.692  12.054   7.304 -0.5010 -0.3048  0.5143
  711MOL0     C95866   9.754  11.966   7.189 -0.3032 -0.2053 -0.7717
  711MOL0     N95867   9.820  12.047   7.077  0.7829 -0.2189 -0.1935
  711MOL0     C95868   9.925  12.134   7.091  0.1854  0.7180 -0.0706
  711MOL0     C95869  10.000  12.124   6.978  0.8089  1.1406 -0.4782
  711MOL0     C95870  10.126  12.195   6.938 -0.0390  0.5067  0.6842
  711MOL0     C95871  10.089  12.333   6.888  0.2338 -0.4536  0.0850
  711MOL0     C95872  10.212  12.417   6.860  0.8796  1.1238 -0.9651
  711MOL0     C95873  10.204  12.496   6.730  0.1593  0.0491  0.0311
  711MOL0     O95874  10.081  12.567   6.723 -0.1630 -0.0565 -0.1701
  711MOL0     C95875  10.076  12.634   6.609 -0.7214  0.1234 -0.6915
  711MOL0     C95876  10.092  12.580   6.480  0.3900 -0.5295  0.5529
  711MOL0     C95877  10.092  12.665   6.361 -0.4377 -0.3454 -0.5429
  711MOL0     C95878  10.135  12.596   6.229 -0.0230  0.3525  0.1383
  711MOL0     C95879  10.080  12.805   6.383 -0.1004  0.1900  1.0005
  711MOL0     C95880  10.068  12.896   6.262  0.5062 -0.0612  0.7135
  711MOL0     O95881  10.053  13.037   6.289 -0.1935  0.1261  0.0573
  711MOL0     C95882  10.052  13.122   6.185 -0.4028 -0.1543  0.1891
  711MOL0     C95883   9.983  13.104   6.072 -0.2021 -0.6514  0.9375
  711MOL0     C95884   9.998  13.186   5.965  0.2014 -0.0595  0.9111
  711MOL0     C95885  10.083  13.302   5.967  0.5888 -0.1716  0.2829
  711MOL0     O95886  10.070  13.393   5.862 -0.4255  0.0659 -1.1017
  711MOL0     C95887  10.095  13.345   5.727 -0.4805  0.1940  0.2082
  711MOL0     C95888  10.053  13.457   5.626  0.2818  0.7837  0.4422
  711MOL0     C95889  10.147  13.573   5.604  0.4018  1.7844  0.4807
  711MOL0     C95890  10.266  13.530   5.509 -0.7111  0.7205  0.5100
  711MOL0     C95891  10.236  13.552   5.365  0.4812  0.1699  0.0368
  711MOL0     C95892  10.365  13.549   5.270  0.2879 -0.0891  0.5087
  711MOL0     C95893  10.332  13.627   5.148 -0.5704 -0.6488 -0.0972
  711MOL0     C95894  10.457  13.629   5.062 -0.2394 -0.0286 -0.1353
  711MOL0    Cl95895  10.502  13.456   5.015  0.2554  0.7241 -0.2848
  711MOL0     C95896  10.174  13.304   6.071 -0.3487 -0.2786 -1.0016
  711MOL0     C95897  10.159  13.214   6.181  0.3678 -0.3689 -0.1033
  711MOL0     O95898  10.082  12.855   6.154  0.1452  0.3031 -0.6320
  711MOL0     C95899  10.043  12.856   6.513  1.4189 -0.4210  0.5833
  711MOL0     C95900  10.033  12.770   6.623  0.9489 -0.2690  0.5857
  711MOL0     N95901   9.932  12.042   6.888 -0.1045  0.2152 -0.1902
  711MOL0     N95902   9.828  11.985   6.951 -0.0057 -0.4969  0.8018
  711MOL0     C95903   9.398  11.519   7.857 -0.3953 -0.5609 -0.1424
  711MOL0     C95904   9.406  11.382   7.875 -0.4123 -0.3893 -0.8994
  711MOL0     C95905   9.293  10.961   8.077 -0.0858  0.1985 -0.2902
  711MOL0     C95906   9.203  10.877   8.132  0.3944 -0.0292 -1.2581
  711MOL0     C95907   9.239  10.754   8.190  1.1560 -0.5671 -0.0175
  711MOL0     C95908   9.361  10.700   8.144  0.3774  0.7426  0.0127
  711MOL0     O95909   9.409  10.573   8.177  0.4954  0.6368 -0.4290
  711MOL0     C95910   9.386  10.468   8.079 -0.5393  0.5932  0.0425
  711MOL0     C95911   9.292  10.355   8.138  0.2290 -0.7068 -0.5307
  711MOL0     C95912   9.142  10.401   8.144 -0.1602 -0.2037  0.0013
  711MOL0     C95913   9.052  10.281   8.169 -0.3830 -0.6625  0.4053
  711MOL0     C95914   9.092  10.226   8.294 -1.2436  0.0875 -0.5688
  711MOL0     C95915   9.116  10.186   8.411 -0.1376  0.5685  0.6806
  711MOL0     C95916   9.443  10.774   8.056  1.2719  0.2493 -0.8151
  711MOL0     C95917   9.418  10.907   8.037 -0.7264 -0.2539 -1.1456
  711MOL0     H95918   9.209  11.364   8.154 -1.0936 -0.5622 -1.0388
  711MOL0     H95919   9.181  11.602   8.105 -1.2516 -2.0382  2.3464
  711MOL0     H95920   9.413  11.905   7.882 -0.3890 -1.5345  3.9068
  711MOL0     H95921   9.494  11.753   7.824  0.5132 -0.6050 -1.4060
  711MOL0     H95922   9.315  11.701   7.675  2.2346 -0.4454 -0.4068
  711MOL0     H95923   9.239  11.867   7.705 -0.7314 -1.1931  1.9740
  711MOL0     H95924   9.482  11.798   7.545 -0.9385  0.5065 -1.0585
  711MOL0     H95925   9.352  11.881   7.494  1.5140  2.4276 -0.2078
  711MOL0     H95926   9.436  12.057   7.696  2.8672 -0.2931  3.3993
  711MOL0     H95927   9.576  11.943   7.689 -1.0025 -1.6961 -0.3433
  711MOL0     H95928   9.481  12.120   7.459  1.6487  0.3726 -2.1258
  711MOL0     H95929   9.627  12.142   7.558 -0.6884  0.4838 -1.6765
  711MOL0     H95930   9.714  11.921   7.468  0.1255  1.2902  1.6765
  711MOL0     H95931   9.567  11.905   7.374  0.3554 -1.5536  1.6449
  711MOL0     H95932   9.624  12.129   7.263 -0.4853  1.3141  3.2094
  711MOL0     H95933   9.775  12.116   7.340  0.7600 -1.8655  0.4311
  711MOL0     H95934   9.667  11.907   7.160 -1.7715 -0.7293  3.8410
  711MOL0     H95935   9.834  11.902   7.227  0.1336  2.1378  2.7886
  711MOL0     H95936   9.952  12.191   7.180  2.0481  2.3080 -1.5705
  711MOL0     H95937  10.183  12.204   7.030  0.2207  0.3155  0.5413
  711MOL0     H95938  10.189  12.137   6.870  1.1623 -0.0379  2.2050
  711MOL0     H95939  10.028  12.380   6.966 -1.6455 -1.8899 -0.4550
  711MOL0     H95940  10.026  12.322   6.800  1.1541  0.3285 -0.7080
  711MOL0     H95941  10.308  12.364   6.867 -2.0971 -4.7941  2.5441
  711MOL0     H95942  10.226  12.485   6.944  3.4744  2.2309 -2.1799
  711MOL0     H95943  10.217  12.440   6.637 -2.7471  0.4015 -0.6990
  711MOL0     H95944  10.289  12.563   6.741  0.4486 -0.5749  2.0268
  711MOL0     H95945  10.085  12.473   6.464 -2.5824 -0.5101  1.0025
  711MOL0     H95946  10.060  12.594   6.149 -0.3213 -2.6543  0.3958
  711MOL0     H95947  10.230  12.636   6.192 -0.6083  4.5480  2.4555
  711MOL0     H95948  10.155  12.491   6.250  1.7396  0.9973  2.0523
  711MOL0     H95949   9.909  13.028   6.049 -1.3520  0.4097  1.0175
  711MOL0     H95950   9.944  13.168   5.873  0.6315  4.0690 -0.3238
  711MOL0     H95951  10.200  13.319   5.712 -0.6901 -1.0851  0.7825
  711MOL0     H95952  10.040  13.255   5.698  0.1114 -0.0723 -0.0863
  711MOL0     H95953  10.028  13.416   5.527  1.5723 -3.7597  1.7572
  711MOL0     H95954   9.959  13.499   5.663  1.0521  0.2582  3.2106
  711MOL0     H95955  10.188  13.611   5.698 -0.6475  1.6287  1.0152
  711MOL0     H95956  10.086  13.649   5.554  1.6875  1.5030 -1.6299
  711MOL0     H95957  10.350  13.590   5.543  0.1546  0.1327 -0.5174
  711MOL0     H95958  10.289  13.424   5.524 -1.1805  1.0034  3.9983
  711MOL0     H95959  10.179  13.644   5.352 -2.4150 -1.6628 -1.3124
  711MOL0     H95960  10.164  13.478   5.328  0.8031  0.7261 -1.7678
  711MOL0     H95961  10.456  13.583   5.321  2.3906 -2.3331 -1.4940
  711MOL0     H95962  10.385  13.444   5.246 -2.5996 -0.5253 -0.4434
  711MOL0     H95963  10.298  13.729   5.165  0.5807  0.3435 -3.0739
  711MOL0     H95964  10.251  13.586   5.087 -0.5857 -1.7738  0.6618
  711MOL0     H95965  10.538  13.678   5.118 -0.1503 -0.6940  0.3420
  711MOL0     H95966  10.430  13.693   4.978 -2.4275  0.8287  1.1255
  711MOL0     H95967  10.262  13.366   6.064  1.2102 -2.0672  1.2209
  711MOL0     H95968  10.231  13.223   6.261  0.9852 -1.4431 -0.5221
  711MOL0     H95969  10.005  12.956   6.534  0.8882 -0.6301  0.6467
  711MOL0     H95970  10.001  12.803   6.722 -2.6851 -0.8535 -0.2642
  711MOL0     H95971   9.449  11.557   7.769  1.7667  0.9752  1.6640
  711MOL0     H95972   9.457  11.326   7.797  1.2353 -1.4896  0.8938
  711MOL0     H95973   9.103  10.916   8.142 -0.0077 -1.1416 -0.7699
  711MOL0     H95974   9.177  10.695   8.257  0.7486 -1.1054 -0.8474
  711MOL0     H95975   9.346  10.519   7.991 -2.9234  1.7103  1.6484
  711MOL0     H95976   9.483  10.425   8.055 -0.3510  0.7443  0.5119
  711MOL0     H95977   9.326  10.348   8.242  0.8782  3.9427 -0.2151
  711MOL0     H95978   9.299  10.258   8.087 -6.4930 -1.9434 -0.0738
  711MOL0     H95979   9.111  10.443   8.048  2.7019 -4.5155 -3.1381
  711MOL0     H95980   9.103  10.475   8.215 -0.0901  0.2753 -0.4568
  711MOL0     H95981   9.054  10.207   8.088 -1.1466 -0.1755 -0.0702
  711MOL0     H95982   8.946  10.302   8.183  0.0890  2.4452  0.0626
  711MOL0     H95983   9.147  10.148   8.506  2.0624 -1.6778 -0.8007
  711MOL0     H95984   9.535  10.728   8.021  1.2568 -0.8989  0.5725
  711MOL0     H95985   9.495  10.975   8.002 -0.5891  3.6529  5.1767
  712MOL0     O95986   3.492   0.542   5.607  0.2573  0.1783  0.2988
  712MOL0     C95987   3.452   0.601   5.707  0.4616 -0.5104  0.1832
  712MOL0     O95988   3.449   0.738   5.714 -0.2609 -0.1574  0.9383
  712MOL0     C95989   3.500   0.815   5.618  0.5967 -0.2522  1.1382
  712MOL0     C95990   3.637   0.812   5.597  0.0498 -0.0482  0.4098
  712MOL0     C95991   3.689   0.896   5.494 -0.6122  0.0702  0.1934
  712MOL0     C95992   3.608   0.960   5.415 -0.3015  0.2478 -0.5907
  712MOL0     O95993   3.671   1.038   5.323  0.2866  0.2971 -0.6910
  712MOL0     C95994   3.765   0.974   5.241  0.3574 -1.1158 -0.8044
  712MOL0     C95995   3.690   0.972   5.105 -0.2315  0.2441 -0.0470
  712MOL0     C95996   3.657   1.111   5.043  1.0072 -0.1395  0.7893
  712MOL0     C95997   3.757   1.225   5.027 -0.1328 -0.6447  0.2865
  712MOL0     C95998   3.877   1.197   4.937 -0.3197 -0.3935 -0.0569
  712MOL0     C95999   3.933   1.321   4.873  0.5634 -0.5053  0.3693
  712MOL0     C96000   3.985   1.422   4.975 -0.1737  1.9142  0.6375
  712MOL0     C96001   4.117   1.369   5.035 -0.4780 -0.2670 -0.9559
  712MOL0     N96002   4.230   1.355   4.943  0.0677  0.1140 -0.5971
  712MOL0     C96003   4.265   1.236   4.887 -0.2603  0.0495  0.4308
  712MOL0     C96004   4.361   1.272   4.803 -0.6717 -1.6341  0.5445
  712MOL0     C96005   4.439   1.189   4.715 -0.4168  0.9179 -0.4481
  712MOL0     C96006   4.541   1.091   4.787  0.7343  0.3731  1.2623
  712MOL0     C96007   4.672   1.078   4.715  0.4896  0.3200  0.3401
  712MOL0     C96008   4.766   0.981   4.790 -0.3596 -0.1116  0.5857
  712MOL0     O96009   4.887   0.962   4.708  0.2250 -0.2090 -0.1343
  712MOL0     C96010   4.986   1.056   4.687 -0.6916  1.4335 -0.6244
  712MOL0     C96011   4.994   1.187   4.728 -0.1039  0.9350 -0.1853
  712MOL0     C96012   5.107   1.261   4.697 -0.1192 -0.3614 -0.2084
  712MOL0     C96013   5.094   1.411   4.729  0.2667  0.4670  0.2894
  712MOL0     C96014   5.218   1.201   4.639 -0.1664 -0.0478 -0.0207
  712MOL0     C96015   5.339   1.278   4.596 -0.3377 -0.8284  1.0972
  712MOL0     O96016   5.425   1.199   4.525 -0.2920 -1.0941 -0.0324
  712MOL0     C96017   5.543   1.246   4.471  0.1776 -1.2640 -0.5712
  712MOL0     C96018   5.664   1.184   4.496  0.7813 -0.4050  0.1799
  712MOL0     C96019   5.778   1.238   4.433 -0.2171  0.5815  1.3263
  712MOL0     C96020   5.778   1.349   4.339  0.0806 -0.6227 -0.5298
  712MOL0     O96021   5.889   1.367   4.262 -0.6527  0.4135 -0.2383
  712MOL0     C96022   5.887   1.454   4.147  0.4866 -0.2611  0.3262
  712MOL0     C96023   5.914   1.605   4.184 -0.7086 -0.3105 -0.5276
  712MOL0     C96024   5.947   1.698   4.064 -0.1013 -0.1243 -1.1706
  712MOL0     C96025   5.955   1.834   4.125 -0.7383  0.2994  1.0432
  712MOL0     C96026   6.033   1.925   4.033 -0.0052 -0.2435 -0.3482
  712MOL0     C96027   5.985   2.073   4.047  0.5224  0.5271 -0.6879
  712MOL0     C96028   6.069   2.167   3.954  0.4456 -0.7102 -1.1475
  712MOL0     C96029   6.031   2.306   3.983 -0.1277  0.0921 -0.3526
  712MOL0    Cl96030   6.126   2.418   3.879 -0.7119 -0.5015 -0.2915
  712MOL0     C96031   5.648   1.414   4.329 -0.0822  0.2937  0.2001
  712MOL0     C96032   5.538   1.360   4.385  0.1952  0.5649  0.4514
  712MOL0     O96033   5.365   1.392   4.618 -0.1959 -0.2816  0.0642
  712MOL0     C96034   5.214   1.061   4.610 -0.6122 -0.1463 -0.1687
  712MOL0     C96035   5.098   0.990   4.629 -0.1487  0.8089  0.2257
  712MOL0     N96036   4.390   1.412   4.824 -0.4225  0.0554 -1.0675
  712MOL0     N96037   4.309   1.452   4.913  1.2417 -0.7728 -0.6743
  712MOL0     C96038   3.465   0.957   5.419 -0.4972 -0.1122  0.5142
  712MOL0     C96039   3.419   0.880   5.527  0.3062  0.5311 -0.0941
  712MOL0     C96040   3.425   0.531   5.829 -0.0664 -0.1448  0.3217
  712MOL0     C96041   3.448   0.396   5.864  0.4549  0.4393  0.0932
  712MOL0     C96042   3.413   0.347   5.990  1.0161 -0.1479  0.5579
  712MOL0     C96043   3.336   0.425   6.079 -0.4680 -0.2716 -0.8275
  712MOL0     O96044   3.284   0.387   6.200  0.3423  1.1754  0.6077
  712MOL0     C96045   3.338   0.266   6.252  0.8530 -0.2968 -0.7001
  712MOL0     C96046   3.471   0.294   6.328  0.8949  0.1716  0.7086
  712MOL0     C96047   3.467   0.419   6.415 -0.6711  0.2224  0.8903
  712MOL0     C96048   3.583   0.428   6.511 -0.3207  0.3573 -0.1347
  712MOL0     C96049   3.604   0.569   6.536  0.0826  0.6179 -0.2434
  712MOL0     C96050   3.608   0.679   6.564  0.0075  0.1661  0.0955
  712MOL0     C96051   3.316   0.555   6.042 -0.7553 -0.9582  1.1667
  712MOL0     C96052   3.358   0.608   5.921 -0.4910 -0.2573 -0.0735
  712MOL0     H96053   3.690   0.750   5.669 -1.3449  0.5827  2.0465
  712MOL0     H96054   3.796   0.913   5.490 -0.5629 -0.3376 -0.2608
  712MOL0     H96055   3.855   1.036   5.237 -2.3921  3.7037  2.1243
  712MOL0     H96056   3.794   0.875   5.276  0.1052 -0.4623  1.4025
  712MOL0     H96057   3.766   0.929   5.039  3.4805  3.1768  1.9381
  712MOL0     H96058   3.599   0.912   5.108  0.5718 -0.9734  0.7413
  712MOL0     H96059   3.604   1.102   4.948  1.8311  2.9702 -0.0886
  712MOL0     H96060   3.583   1.149   5.114  0.5020 -0.9714  0.7154
  712MOL0     H96061   3.710   1.322   5.008  3.5357  1.0494 -0.8845
  712MOL0     H96062   3.788   1.235   5.132 -5.2105  3.7027  1.8470
  712MOL0     H96063   3.950   1.144   4.999  1.6515 -1.6983 -3.2394
  712MOL0     H96064   3.856   1.134   4.850 -0.8493  1.9079 -1.6689
  712MOL0     H96065   4.013   1.293   4.804  0.8987  0.2585  0.4370
  712MOL0     H96066   3.853   1.376   4.822  0.0103 -0.6353  1.0713
  712MOL0     H96067   3.991   1.525   4.940  2.3140  1.3787 -0.8145
  712MOL0     H96068   3.923   1.429   5.065  0.9714  0.9675  1.5444
  712MOL0     H96069   4.105   1.280   5.098  1.5372  1.4671  2.0681
  712MOL0     H96070   4.146   1.438   5.114 -2.7950  0.7857 -0.9447
  712MOL0     H96071   4.229   1.139   4.917  2.0546  0.2820  4.8020
  712MOL0     H96072   4.383   1.115   4.657  1.8526 -1.1145 -0.2207
  712MOL0     H96073   4.487   1.266   4.653 -0.3281  1.0612 -0.2019
  712MOL0     H96074   4.500   0.992   4.807  1.5608  0.0877  1.5656
  712MOL0     H96075   4.567   1.138   4.882 -1.3168  0.6109  1.7563
  712MOL0     H96076   4.710   1.179   4.703  0.0296  0.8854  3.0534
  712MOL0     H96077   4.645   1.035   4.617  1.6796  0.7665 -0.1930
  712MOL0     H96078   4.727   0.878   4.790 -0.2527 -0.1752 -0.8742
  712MOL0     H96079   4.779   1.005   4.896 -1.0763 -0.5155  0.7707
  712MOL0     H96080   4.901   1.227   4.767  0.0557  1.6758 -0.5560
  712MOL0     H96081   5.177   1.437   4.796  1.1820 -1.0595 -0.1814
  712MOL0     H96082   5.113   1.458   4.633  2.2632 -2.4953 -0.9240
  712MOL0     H96083   5.004   1.455   4.771  2.0025  5.1954 -0.3357
  712MOL0     H96084   5.659   1.089   4.549  2.6624  0.5032  2.1354
  712MOL0     H96085   5.862   1.173   4.454 -0.2666  0.0244 -0.0782
  712MOL0     H96086   5.963   1.429   4.072 -0.5784 -0.8804 -0.5793
  712MOL0     H96087   5.795   1.434   4.092  1.7594  0.0481 -2.0337
  712MOL0     H96088   5.825   1.651   4.226 -0.0151  2.0591 -1.5154
  712MOL0     H96089   5.995   1.591   4.257  0.4609 -2.7285 -2.1400
  712MOL0     H96090   5.869   1.685   3.989  0.3254 -2.4712 -1.2846
  712MOL0     H96091   6.043   1.669   4.021  0.6062  1.8234 -1.0041
  712MOL0     H96092   5.852   1.870   4.132 -0.7565  0.5314 -0.2240
  712MOL0     H96093   6.019   1.841   4.213  2.1258 -0.9687 -0.8024
  712MOL0     H96094   6.017   1.904   3.927 -1.2396  0.0073 -0.2219
  712MOL0     H96095   6.140   1.916   4.055 -0.3936 -1.3541  1.2905
  712MOL0     H96096   5.880   2.079   4.017  0.7123  2.7397 -1.1015
  712MOL0     H96097   5.997   2.113   4.149 -1.2124 -0.6480  0.0327
  712MOL0     H96098   6.051   2.156   3.847  1.7326  1.9206 -1.7193
  712MOL0     H96099   6.177   2.153   3.962  0.8006 -0.0740 -3.8668
  712MOL0     H96100   6.050   2.333   4.087  1.7976  2.0290 -1.1156
  712MOL0     H96101   5.924   2.318   3.963 -0.1755 -2.3084 -1.9946
  712MOL0     H96102   5.626   1.497   4.263 -0.8060  0.4701  0.6524
  712MOL0     H96103   5.435   1.385   4.363 -1.0480 -2.3051  2.3440
  712MOL0     H96104   5.306   1.009   4.588 -0.7191 -1.3558  1.9857
  712MOL0     H96105   5.087   0.883   4.624 -0.5548  0.8099  0.8720
  712MOL0     H96106   3.403   1.009   5.346 -1.0235  3.8526  3.4877
  712MOL0     H96107   3.315   0.891   5.554  0.0569 -3.6430  1.2997
  712MOL0     H96108   3.505   0.333   5.797 -1.3532  0.6025 -1.7040
  712MOL0     H96109   3.424   0.239   5.990  0.4373 -0.2115  0.1481
  712MOL0     H96110   3.263   0.224   6.320  2.4901 -2.4628 -0.1246
  712MOL0     H96111   3.356   0.202   6.165 -0.3115  1.3508 -2.2272
  712MOL0     H96112   3.564   0.300   6.271  2.5211 -1.8794  2.9051
  712MOL0     H96113   3.489   0.200   6.382  0.5800 -0.2486  0.1031
  712MOL0     H96114   3.375   0.425   6.474 -1.7850  0.3222 -0.7912
  712MOL0     H96115   3.463   0.507   6.350  2.7511 -0.5312 -0.5307
  712MOL0     H96116   3.667   0.382   6.457 -2.8974  0.8332 -5.2282
  712MOL0     H96117   3.554   0.368   6.598  0.1378  1.0684  0.5162
  712MOL0     H96118   3.607   0.786   6.571  2.2299  0.3182 -0.8730
  712MOL0     H96119   3.265   0.613   6.118  0.2803  0.7091  0.6568
  712MOL0     H96120   3.339   0.714   5.906 -1.2494 -0.2038  1.1370
  713MOL0     O96121   9.113   8.921   9.356  0.0344 -0.5408  1.1044
  713MOL0     C96122   9.157   8.944   9.243 -0.2556  0.4374 -0.3180
  713MOL0     O96123   9.200   8.847   9.161 -0.6973  0.0843  0.0578
  713MOL0     C96124   9.177   8.714   9.191 -0.2610  0.1497  0.1275
  713MOL0     C96125   9.247   8.655   9.292 -0.3036  1.0257  0.4133
  713MOL0     C96126   9.234   8.511   9.301  0.3562 -0.1970  0.4195
  713MOL0     C96127   9.146   8.428   9.230  0.2810 -0.1603  0.1243
  713MOL0     O96128   9.132   8.298   9.267 -0.5323  0.1460 -0.6052
  713MOL0     C96129   9.069   8.196   9.186 -0.2238  0.0424  0.8486
  713MOL0     C96130   9.177   8.112   9.111  0.1188 -0.4092  0.0159
  713MOL0     C96131   9.111   8.002   9.047  0.7778 -0.3564  0.0222
  713MOL0     C96132   9.203   7.949   8.934 -0.3827 -0.3522  0.3669
  713MOL0     C96133   9.145   7.826   8.869 -0.0258  0.0884 -0.3892
  713MOL0     C96134   9.153   7.716   8.972  0.2341  0.5164 -0.4195
  713MOL0     C96135   9.136   7.591   8.890  0.7351  0.1378  1.5364
  713MOL0     C96136   9.063   7.474   8.959 -0.8715 -0.1326 -0.1223
  713MOL0     N96137   9.157   7.384   9.038  0.6424 -0.4557 -0.2791
  713MOL0     C96138   9.149   7.252   9.037 -0.1810 -0.5122 -1.1040
  713MOL0     C96139   9.224   7.222   9.144  0.6086  0.5698  0.1922
  713MOL0     C96140   9.256   7.070   9.174  0.2556  0.5618  0.5753
  713MOL0     C96141   9.198   6.959   9.075 -0.5381  1.1251 -0.1738
  713MOL0     C96142   9.309   6.899   8.981  0.5473  0.1733 -0.0088
  713MOL0     C96143   9.348   7.004   8.878  0.5373  0.6906 -0.4027
  713MOL0     O96144   9.241   7.061   8.793  0.9240  0.1268  0.0728
  713MOL0     C96145   9.261   7.180   8.718 -0.2633 -0.1932 -1.7061
  713MOL0     C96146   9.373   7.269   8.740 -0.3189  0.9256 -0.1286
  713MOL0     C96147   9.388   7.375   8.649  1.5629  0.0523 -0.3623
  713MOL0     C96148   9.517   7.445   8.658  0.0130 -0.4187  0.1826
  713MOL0     C96149   9.283   7.408   8.562  0.4925  0.5472  0.0756
  713MOL0     C96150   9.287   7.535   8.486  0.0119 -0.8806 -0.7907
  713MOL0     O96151   9.258   7.531   8.346  0.2421 -0.5927 -0.8699
  713MOL0     C96152   9.281   7.632   8.252 -0.0521  0.3134 -0.3481
  713MOL0     C96153   9.403   7.695   8.249 -0.3195  0.1011 -1.1827
  713MOL0     C96154   9.436   7.779   8.133  0.1324  0.6879  0.5582
  713MOL0     C96155   9.333   7.810   8.041 -0.4558 -0.0957 -0.4336
  713MOL0     O96156   9.350   7.888   7.931  0.2581  0.0198 -0.4087
  713MOL0     C96157   9.269   8.009   7.959  0.1994  0.2139  0.2830
  713MOL0     C96158   9.293   8.111   7.851  0.0877 -0.2774 -0.5197
  713MOL0     C96159   9.195   8.240   7.845  0.3411  0.5292 -1.1215
  713MOL0     C96160   9.193   8.319   7.710 -0.2091  0.8299 -0.6108
  713MOL0     C96161   9.327   8.342   7.642 -1.5030 -0.1776  0.0920
  713MOL0     C96162   9.439   8.425   7.714  0.4056 -0.4313 -0.6679
  713MOL0     C96163   9.562   8.422   7.628  0.0870 -0.5146 -1.6432
  713MOL0     C96164   9.679   8.515   7.675  0.4116 -0.0853  0.9421
  713MOL0    Cl96165   9.841   8.483   7.610  0.4313 -0.2272  0.0713
  713MOL0     C96166   9.208   7.754   8.056  0.6001 -0.1469  0.3625
  713MOL0     C96167   9.186   7.669   8.150  0.0545  0.9458  0.4555
  713MOL0     O96168   9.312   7.641   8.541  0.4006 -0.2685  0.1835
  713MOL0     C96169   9.175   7.325   8.549 -0.1684  0.0085  0.0481
  713MOL0     C96170   9.164   7.210   8.631 -1.3188 -0.7244 -0.1305
  713MOL0     N96171   9.250   7.339   9.207 -0.9751 -0.6112 -0.9654
  713MOL0     N96172   9.211   7.440   9.142 -0.7252 -0.8797  0.6642
  713MOL0     C96173   9.066   8.498   9.126 -0.3980  0.1271 -0.4352
  713MOL0     C96174   9.089   8.641   9.109 -0.0884 -0.0754 -0.1802
  713MOL0     C96175   9.161   9.080   9.202  0.2589  0.4074 -0.2898
  713MOL0     C96176   9.091   9.183   9.277 -0.2942  1.0310 -0.7035
  713MOL0     C96177   9.091   9.318   9.225 -0.1569  0.3208  0.3029
  713MOL0     C96178   9.155   9.347   9.101  0.7126  0.0988  0.3364
  713MOL0     O96179   9.138   9.474   9.055 -0.5845  0.2796 -0.0387
  713MOL0     C96180   9.168   9.505   8.919  0.5826 -0.8779 -0.0019
  713MOL0     C96181   9.043   9.452   8.849  0.8666  0.4855  0.6384
  713MOL0     C96182   9.021   9.518   8.709  0.4515 -0.8935 -0.6824
  713MOL0     C96183   8.908   9.461   8.615 -1.4974  0.1387 -0.8492
  713MOL0     C96184   8.773   9.476   8.671 -0.0016  0.3676 -0.4694
  713MOL0     C96185   8.667   9.510   8.717  0.2406  0.7003  0.0263
  713MOL0     C96186   9.216   9.237   9.032 -0.4522 -1.2223  0.2674
  713MOL0     C96187   9.215   9.110   9.073  0.5155 -0.4549 -1.1619
  713MOL0     H96188   9.320   8.712   9.349 -1.9411  2.1885  1.4390
  713MOL0     H96189   9.299   8.448   9.361 -0.4107  0.9430  2.5122
  713MOL0     H96190   9.017   8.132   9.258 -2.3469 -1.7203 -2.0425
  713MOL0     H96191   8.989   8.229   9.120 -0.8634  0.3699  1.7688
  713MOL0     H96192   9.214   8.166   9.024  2.6814 -2.6939 -0.4463
  713MOL0     H96193   9.268   8.085   9.167  1.9151 -0.5257 -2.7701
  713MOL0     H96194   9.083   7.931   9.126 -0.5049  0.1365  0.0442
  713MOL0     H96195   9.020   8.026   8.991 -1.9370 -5.0803  1.7333
  713MOL0     H96196   9.213   8.024   8.854  4.8913 -0.5705  0.4288
  713MOL0     H96197   9.300   7.915   8.971  0.2914  0.5985 -0.4601
  713MOL0     H96198   9.036   7.838   8.860  0.0090  0.6216 -0.1525
  713MOL0     H96199   9.185   7.819   8.767  4.5922  2.4443  0.9676
  713MOL0     H96200   9.249   7.707   9.024 -1.8026 -0.2044  3.6842
  713MOL0     H96201   9.077   7.721   9.051  2.1885  0.6440  1.5693
  713MOL0     H96202   9.072   7.608   8.803  0.4785  3.2149  2.2286
  713MOL0     H96203   9.236   7.562   8.858  0.8361  0.9327  1.1127
  713MOL0     H96204   9.012   7.409   8.887  0.6153 -4.3748  2.3161
  713MOL0     H96205   8.983   7.502   9.029 -1.5174 -4.5793  1.2275
  713MOL0     H96206   9.102   7.185   8.965 -2.3285 -2.3161  1.7647
  713MOL0     H96207   9.364   7.056   9.179  0.3172  0.2953 -0.9501
  713MOL0     H96208   9.217   7.057   9.275  1.2535  1.0979  1.0473
  713MOL0     H96209   9.113   6.999   9.019 -1.9817  0.3445  1.3570
  713MOL0     H96210   9.168   6.875   9.138 -5.2596 -0.3164 -3.7295
  713MOL0     H96211   9.267   6.812   8.929 -0.8172  1.1478 -0.5713
  713MOL0     H96212   9.394   6.873   9.045 -0.4097  4.5685  3.5136
  713MOL0     H96213   9.425   6.961   8.814  2.5138  0.9865  1.6801
  713MOL0     H96214   9.405   7.070   8.944 -0.1549 -1.6855  2.8104
  713MOL0     H96215   9.445   7.255   8.820  1.3922  1.3692 -1.5497
  713MOL0     H96216   9.601   7.377   8.671  1.8926  2.1850  2.7208
  713MOL0     H96217   9.532   7.517   8.578  1.5677  0.6088  1.3477
  713MOL0     H96218   9.522   7.500   8.752  1.8925 -1.8331  0.9683
  713MOL0     H96219   9.477   7.671   8.324 -0.2082  0.0291 -1.3152
  713MOL0     H96220   9.541   7.806   8.124  0.6659 -1.1910  0.7555
  713MOL0     H96221   9.162   7.992   7.945  0.2921  1.3249 -2.1720
  713MOL0     H96222   9.279   8.048   8.061 -0.5833 -1.4516  1.0537
  713MOL0     H96223   9.397   8.145   7.849  1.3435 -3.6691  0.8854
  713MOL0     H96224   9.279   8.054   7.759  2.2718  0.2806 -1.2629
  713MOL0     H96225   9.234   8.313   7.916 -0.2548  1.5424 -1.7981
  713MOL0     H96226   9.101   8.205   7.889  0.9895  0.3315  0.1572
  713MOL0     H96227   9.140   8.250   7.644 -1.3123 -1.5571  2.5475
  713MOL0     H96228   9.144   8.417   7.719  0.3946  1.4882 -3.4772
  713MOL0     H96229   9.314   8.394   7.546  2.1451 -0.7153 -0.8168
  713MOL0     H96230   9.376   8.247   7.619  2.8998  1.6291  0.9724
  713MOL0     H96231   9.393   8.522   7.730  3.3006  0.7956  0.8738
  713MOL0     H96232   9.444   8.372   7.809 -2.0333  1.5255  0.6639
  713MOL0     H96233   9.533   8.442   7.524  2.7246 -0.1258 -2.3686
  713MOL0     H96234   9.613   8.326   7.641  0.7046 -0.0949 -0.9360
  713MOL0     H96235   9.682   8.504   7.784 -1.7660  2.0482  1.3050
  713MOL0     H96236   9.658   8.621   7.657 -2.8848 -0.7771  0.0897
  713MOL0     H96237   9.125   7.771   7.988  0.4982  0.1980  0.5702
  713MOL0     H96238   9.090   7.619   8.152 -0.0222  1.0628  2.6533
  713MOL0     H96239   9.092   7.338   8.481  0.0357 -5.5310 -1.7537
  713MOL0     H96240   9.088   7.133   8.630 -2.9982  0.8538  0.6138
  713MOL0     H96241   9.003   8.438   9.062  0.4414 -2.0892  0.7106
  713MOL0     H96242   9.048   8.709   9.035  0.1010  1.8276  1.3632
  713MOL0     H96243   9.042   9.161   9.372  2.3254  1.4366  0.8419
  713MOL0     H96244   9.036   9.401   9.269  0.8293  1.8209 -1.1747
  713MOL0     H96245   9.183   9.611   8.899 -2.3019 -0.3562  0.1579
  713MOL0     H96246   9.257   9.457   8.876 -0.0127 -1.7904 -0.2589
  713MOL0     H96247   8.955   9.459   8.914  1.5441 -0.1233  1.6449
  713MOL0     H96248   9.049   9.345   8.830  1.1980  0.2791  1.7987
  713MOL0     H96249   9.111   9.503   8.650  1.0859 -1.0019  0.2826
  713MOL0     H96250   9.014   9.626   8.728 -1.4989 -1.0454 -0.2236
  713MOL0     H96251   8.936   9.356   8.603  0.7711  0.6677 -0.5034
  713MOL0     H96252   8.910   9.524   8.525 -1.5334 -1.0778 -1.7231
  713MOL0     H96253   8.574   9.550   8.753  0.7618  3.1779 -1.1467
  713MOL0     H96254   9.267   9.255   8.938 -0.3828  2.2067  0.8339
  713MOL0     H96255   9.273   9.045   9.009  0.3392  0.7700 -2.6344
  714MOL0     O96256   0.850   0.201   4.221  0.0594 -0.4380  0.2426
  714MOL0     C96257   0.933   0.169   4.134 -0.2450  0.2794  0.5196
  714MOL0     O96258   1.029   0.067   4.153 -0.1974 -0.3220 -0.2287
  714MOL0     C96259   1.024  -0.010   4.262 -0.8831 -0.3195 -0.3280
  714MOL0     C96260   1.143  -0.024   4.348  0.0022  0.2365  0.1247
  714MOL0     C96261   1.140  -0.108   4.459 -0.5665  1.0736 -0.8992
  714MOL0     C96262   1.033  -0.186   4.488  1.2573 -0.4089 -0.8907
  714MOL0     O96263   1.002  -0.262   4.600  0.8579 -0.1874  0.5527
  714MOL0     C96264   1.100  -0.334   4.675  1.0201  0.2172  0.2572
  714MOL0     C96265   1.042  -0.347   4.811 -0.3453 -0.0827  0.2570
  714MOL0     C96266   1.125  -0.412   4.925  0.1210  0.3213  0.3981
  714MOL0     C96267   1.048  -0.410   5.059 -1.3884 -1.4086  0.1422
  714MOL0     C96268   1.124  -0.499   5.160 -1.2966 -0.6206 -0.1085
  714MOL0     C96269   1.067  -0.499   5.296  0.1038  0.1131  0.3002
  714MOL0     C96270   1.085  -0.627   5.381 -0.9190  0.3185  0.1681
  714MOL0     C96271   1.027  -0.755   5.325  0.0474  0.0323  0.0843
  714MOL0     N96272   1.076  -0.880   5.388 -0.3957  0.5249  0.2728
  714MOL0     C96273   1.100  -0.884   5.526  0.0908 -0.2244 -0.3233
  714MOL0     C96274   1.128  -1.018   5.537  0.6959  0.3971  0.0401
  714MOL0     C96275   1.131  -1.095   5.658 -0.1490 -0.2424  0.2192
  714MOL0     C96276   1.277  -1.116   5.711  0.3923 -0.3784 -1.6940
  714MOL0     C96277   1.352  -0.982   5.740  0.9283 -0.1049 -0.0574
  714MOL0     C96278   1.503  -1.013   5.769  0.0059  0.9807  1.2010
  714MOL0     O96279   1.518  -1.100   5.893  1.0887  0.0335  0.0802
  714MOL0     C96280   1.644  -1.112   5.956  0.2740 -0.4348 -0.2756
  714MOL0     C96281   1.649  -1.189   6.073 -0.4014  0.1404 -1.1973
  714MOL0     C96282   1.764  -1.205   6.152 -0.0841 -0.3839  0.0866
  714MOL0     C96283   1.773  -1.300   6.269  0.7001  0.0879  0.1037
  714MOL0     C96284   1.882  -1.136   6.104 -0.4446  0.3874 -0.5401
  714MOL0     C96285   2.009  -1.112   6.187 -0.2704 -0.8820  0.6367
  714MOL0     O96286   2.097  -1.011   6.135  0.3340 -0.4391  0.3516
  714MOL0     C96287   2.160  -0.921   6.222  0.3363  0.9553 -1.0152
  714MOL0     C96288   2.267  -0.852   6.177 -0.8446  0.6039 -0.2890
  714MOL0     C96289   2.334  -0.757   6.251 -0.3001  0.3146 -0.2811
  714MOL0     C96290   2.298  -0.719   6.380  0.1185  0.2546  0.0587
  714MOL0     O96291   2.383  -0.622   6.435  0.0770  0.4667 -0.3651
  714MOL0     C96292   2.358  -0.611   6.576 -0.1597 -1.1818  0.3977
  714MOL0     C96293   2.402  -0.474   6.621 -0.5999  0.1123 -0.0942
  714MOL0     C96294   2.321  -0.360   6.568  0.0770 -0.1537 -0.6953
  714MOL0     C96295   2.188  -0.353   6.636  0.1361  0.9527  0.0104
  714MOL0     C96296   2.099  -0.250   6.568 -0.7715  0.6220 -0.4172
  714MOL0     C96297   1.954  -0.253   6.630  0.0214  0.3220  0.4531
  714MOL0     C96298   1.861  -0.149   6.564 -0.2142 -0.5528 -0.0072
  714MOL0     C96299   1.818  -0.200   6.429  0.0932  0.1330 -0.4744
  714MOL0    Cl96300   1.693  -0.103   6.355  0.3566  0.1269 -0.3454
  714MOL0     C96301   2.194  -0.801   6.439  0.0251 -0.7955 -0.0775
  714MOL0     C96302   2.125  -0.897   6.357  1.3595  0.1316  0.9649
  714MOL0     O96303   2.020  -1.159   6.293  0.6726 -0.0286 -0.3128
  714MOL0     C96304   1.878  -1.077   5.983 -0.0038  0.1451  0.3176
  714MOL0     C96305   1.768  -1.062   5.908  0.2426  0.4701  1.1398
  714MOL0     N96306   1.138  -1.085   5.416  0.3282 -0.1171  0.0414
  714MOL0     N96307   1.100  -1.000   5.322  0.0593 -0.0419 -0.2383
  714MOL0     C96308   0.927  -0.176   4.408  0.3474 -0.0345 -0.1613
  714MOL0     C96309   0.914  -0.081   4.305 -0.7540 -0.7066 -0.0438
  714MOL0     C96310   0.952   0.244   4.001 -0.9634  0.9536  1.4791
  714MOL0     C96311   1.053   0.210   3.904  0.4267  0.5665  0.5797
  714MOL0     C96312   1.049   0.283   3.781 -0.8212 -0.2155 -0.5100
  714MOL0     C96313   0.943   0.368   3.748 -0.4629  0.5280  0.0822
  714MOL0     O96314   0.925   0.430   3.627  0.2154  0.9089 -0.1067
  714MOL0     C96315   1.028   0.439   3.526 -0.4628 -0.0599  0.5628
  714MOL0     C96316   0.972   0.566   3.463  0.2552 -0.7251 -0.4540
  714MOL0     C96317   0.975   0.697   3.558  0.8763 -0.6864 -0.0927
  714MOL0     C96318   0.938   0.831   3.500  0.0776 -0.3730  0.5806
  714MOL0     C96319   0.801   0.831   3.443  0.0743  1.1361 -0.6604
  714MOL0     C96320   0.689   0.834   3.390  0.7074 -0.0534  0.2426
  714MOL0     C96321   0.849   0.403   3.847 -0.5743  0.1242 -0.6208
  714MOL0     C96322   0.848   0.336   3.967 -0.7007 -1.1971 -0.0852
  714MOL0     H96323   1.231   0.039   4.337  1.3749 -1.1311  2.3845
  714MOL0     H96324   1.227  -0.119   4.523 -2.2079 -0.6266  1.2044
  714MOL0     H96325   1.116  -0.434   4.634  1.2411  1.0919 -1.9035
  714MOL0     H96326   1.186  -0.266   4.673 -0.4329  2.1473  0.3881
  714MOL0     H96327   1.027  -0.244   4.844 -0.8800 -0.7591  2.2541
  714MOL0     H96328   0.947  -0.399   4.796 -0.6524  0.7228 -0.7649
  714MOL0     H96329   1.147  -0.512   4.887  1.6294  0.7495  0.0620
  714MOL0     H96330   1.217  -0.354   4.940  0.6881  0.1158 -1.8692
  714MOL0     H96331   1.030  -0.311   5.103 -0.6813 -0.5444 -1.4223
  714MOL0     H96332   0.947  -0.451   5.045 -2.1267  0.1446  0.6731
  714MOL0     H96333   1.124  -0.599   5.115 -1.0199 -1.6904  2.1323
  714MOL0     H96334   1.226  -0.459   5.164 -0.5487 -2.5119  2.1319
  714MOL0     H96335   1.106  -0.403   5.332 -0.9145  0.4520  0.5458
  714MOL0     H96336   0.959  -0.482   5.292 -0.0482 -0.6201  1.0190
  714MOL0     H96337   1.191  -0.651   5.370 -0.4649  2.5216 -0.8223
  714MOL0     H96338   1.057  -0.598   5.483  3.2017 -0.6452  1.8001
  714MOL0     H96339   1.040  -0.764   5.217 -0.9890  0.9079 -0.1339
  714MOL0     H96340   0.918  -0.755   5.340 -0.0781 -1.0203 -0.7131
  714MOL0     H96341   1.082  -0.806   5.599  0.0829  0.5951 -1.1875
  714MOL0     H96342   1.054  -1.084   5.736 -0.0959 -3.4467  0.8668
  714MOL0     H96343   1.094  -1.192   5.622  0.3144 -1.1398  2.0064
  714MOL0     H96344   1.327  -1.180   5.638  3.8879 -1.1069  1.0730
  714MOL0     H96345   1.271  -1.179   5.801  0.3622  3.5487  1.3044
  714MOL0     H96346   1.313  -0.932   5.829 -0.1909 -0.4407 -0.3447
  714MOL0     H96347   1.338  -0.914   5.655  1.1248 -0.3382 -0.2789
  714MOL0     H96348   1.540  -0.910   5.783 -1.8769  2.0462 -0.9167
  714MOL0     H96349   1.539  -1.056   5.675 -1.4878 -0.5141  1.2847
  714MOL0     H96350   1.566  -1.243   6.116  0.0228 -0.6846 -1.3724
  714MOL0     H96351   1.853  -1.372   6.247 -0.9897 -1.9576  0.3483
  714MOL0     H96352   1.782  -1.250   6.365 -1.8085 -1.4024  1.2196
  714MOL0     H96353   1.691  -1.373   6.270  0.3663  0.4598  0.0857
  714MOL0     H96354   2.294  -0.881   6.076  1.0295  0.9475  0.0671
  714MOL0     H96355   2.428  -0.729   6.204 -0.1707  1.8076  0.8278
  714MOL0     H96356   2.250  -0.613   6.594 -0.5715  0.4180 -1.6522
  714MOL0     H96357   2.414  -0.689   6.630  1.9281 -3.1829 -4.1548
  714MOL0     H96358   2.402  -0.465   6.730  0.4263  3.9577 -0.2557
  714MOL0     H96359   2.505  -0.454   6.588 -0.7681  1.5961  0.2007
  714MOL0     H96360   2.334  -0.362   6.460 -0.5969  3.1255 -0.9492
  714MOL0     H96361   2.359  -0.259   6.586  1.1561 -0.2362 -2.4017
  714MOL0     H96362   2.129  -0.445   6.639 -1.8139  2.1692  0.3494
  714MOL0     H96363   2.211  -0.336   6.741  1.0623 -1.4070  0.2725
  714MOL0     H96364   2.091  -0.265   6.460 -1.6629 -1.8561 -0.0799
  714MOL0     H96365   2.139  -0.149   6.583 -0.4914  0.5137 -0.4317
  714MOL0     H96366   1.903  -0.347   6.605  3.1668 -1.1307 -1.1215
  714MOL0     H96367   1.951  -0.226   6.736  0.3859  2.3558 -0.0150
  714MOL0     H96368   1.905  -0.049   6.553 -2.6128  0.3008 -2.7973
  714MOL0     H96369   1.768  -0.131   6.618 -0.9391 -0.1884 -1.3484
  714MOL0     H96370   1.770  -0.299   6.435  3.0296 -1.8134 -4.4577
  714MOL0     H96371   1.908  -0.218   6.370  0.3225  0.3334 -0.1886
  714MOL0     H96372   2.166  -0.790   6.543 -0.0911 -4.4490  0.4144
  714MOL0     H96373   2.043  -0.950   6.404  1.7441 -0.7406  0.6698
  714MOL0     H96374   1.971  -1.036   5.944  0.2137 -0.1036  0.5705
  714MOL0     H96375   1.764  -1.029   5.805 -3.1211  0.8121  1.2874
  714MOL0     H96376   0.837  -0.225   4.444 -0.8663  3.1377  1.5948
  714MOL0     H96377   0.820  -0.079   4.251  1.5402 -0.1533 -4.4454
  714MOL0     H96378   1.128   0.132   3.907  1.4196  1.4988  0.4119
  714MOL0     H96379   1.127   0.264   3.708  1.3343 -0.8132  1.8307
  714MOL0     H96380   1.131   0.456   3.560 -1.1242  2.4989  1.5303
  714MOL0     H96381   1.007   0.348   3.469 -0.5282 -1.5657  2.8194
  714MOL0     H96382   0.874   0.545   3.418  0.6290  2.5330 -3.1869
  714MOL0     H96383   1.037   0.584   3.378  0.2640  0.6373 -0.1743
  714MOL0     H96384   1.074   0.712   3.601  0.8111 -2.0153  0.5560
  714MOL0     H96385   0.913   0.675   3.645  2.5506 -2.2036  0.7883
  714MOL0     H96386   1.011   0.869   3.428  2.5101  1.5708  3.8143
  714MOL0     H96387   0.924   0.899   3.584  0.1158  0.8572 -0.3697
  714MOL0     H96388   0.587   0.825   3.358  0.5547 -4.1451  1.3627
  714MOL0     H96389   0.771   0.477   3.835 -0.1418  0.6633 -0.1747
  714MOL0     H96390   0.764   0.357   4.033 -1.1545 -2.6799 -0.1626
  715MOL0     O96391   8.858  10.820   3.795  0.4799 -0.3371  0.3031
  715MOL0     C96392   8.779  10.728   3.808  0.2725  1.0255 -0.2616
  715MOL0     O96393   8.674  10.696   3.723 -0.1100 -0.2102 -0.2045
  715MOL0     C96394   8.639  10.779   3.618  0.3125  0.0117  0.9786
  715MOL0     C96395   8.508  10.810   3.600 -0.0596  0.2819  0.3764
  715MOL0     C96396   8.456  10.869   3.490  0.4017 -0.8658  0.0260
  715MOL0     C96397   8.539  10.931   3.398 -0.0537  0.2898 -0.8348
  715MOL0     O96398   8.483  10.994   3.290  0.6070 -0.2551 -0.0727
  715MOL0     C96399   8.569  11.087   3.207  0.0283 -0.4681 -0.1323
  715MOL0     C96400   8.496  11.176   3.107  0.1175 -0.0529  0.1069
  715MOL0     C96401   8.414  11.093   3.011 -1.1522  0.6072  0.2856
  715MOL0     C96402   8.347  11.191   2.923 -0.0862  0.6997  1.0420
  715MOL0     C96403   8.253  11.107   2.832 -0.7160 -0.0894 -0.6184
  715MOL0     C96404   8.203  11.193   2.714  0.2509  0.3335 -0.6723
  715MOL0     C96405   8.100  11.292   2.771  0.7594  0.9320  0.6973
  715MOL0     C96406   8.010  11.345   2.657  0.2360 -0.0892  0.3531
  715MOL0     N96407   8.071  11.410   2.544  0.0884 -0.6822 -0.5516
  715MOL0     C96408   8.162  11.516   2.555  0.8866 -0.2792 -0.1580
  715MOL0     C96409   8.167  11.567   2.429  0.4396  1.0941  0.3368
  715MOL0     C96410   8.241  11.694   2.400 -0.3907  0.7661  0.4019
  715MOL0     C96411   8.263  11.705   2.243  0.8136 -0.2117  0.3789
  715MOL0     C96412   8.339  11.841   2.211  1.1455  0.0970  0.7455
  715MOL0     C96413   8.351  11.872   2.066 -0.9953  0.3795  0.3187
  715MOL0     O96414   8.421  11.999   2.048  0.1748 -0.8244 -0.0657
  715MOL0     C96415   8.513  12.009   1.954  0.1208  0.2074  0.3905
  715MOL0     C96416   8.498  11.948   1.827  0.1495 -0.4008  0.1132
  715MOL0     C96417   8.591  11.971   1.721  0.9420 -0.2510  0.9494
  715MOL0     C96418   8.573  11.889   1.593  0.6135  0.8067  0.4248
  715MOL0     C96419   8.709  12.046   1.738 -0.0471  0.1451 -0.8331
  715MOL0     C96420   8.814  12.067   1.636  0.9298  0.8564  0.4046
  715MOL0     O96421   8.885  12.177   1.656 -0.0692 -0.2242  1.0310
  715MOL0     C96422   9.019  12.166   1.619 -0.3792 -0.0726  0.0160
  715MOL0     C96423   9.110  12.110   1.704 -0.1129  0.0898 -0.3012
  715MOL0     C96424   9.244  12.107   1.669 -0.2513  0.5535 -0.2572
  715MOL0     C96425   9.292  12.129   1.535  0.2975  0.2729  0.6929
  715MOL0     O96426   9.423  12.103   1.501  0.0988  0.6387 -0.2319
  715MOL0     C96427   9.513  12.213   1.489 -0.4880 -0.9776 -0.6385
  715MOL0     C96428   9.663  12.151   1.478  0.0618 -0.3505 -0.6958
  715MOL0     C96429   9.750  12.267   1.436 -0.9549  0.5757  0.3882
  715MOL0     C96430   9.898  12.235   1.402 -0.2054  0.4813  0.0128
  715MOL0     C96431   9.988  12.359   1.407 -0.0204  0.3678 -0.2064
  715MOL0     C96432  10.138  12.317   1.398  0.3396  0.1900  0.1386
  715MOL0     C96433  10.224  12.428   1.332  0.7332  0.3625  0.0536
  715MOL0     C96434  10.362  12.369   1.305 -0.4157 -0.3528  0.3343
  715MOL0    Cl96435  10.425  12.323   1.462  0.1846  0.0872  0.6387
  715MOL0     C96436   9.197  12.186   1.452 -0.4045 -0.6093 -0.0740
  715MOL0     C96437   9.062  12.201   1.491  0.0795 -1.5490  0.5559
  715MOL0     O96438   8.833  11.985   1.555 -0.6647 -0.1914  0.7476
  715MOL0     C96439   8.722  12.105   1.872 -0.8158  0.2551  0.1838
  715MOL0     C96440   8.629  12.086   1.975 -1.1146  1.1883  1.3091
  715MOL0     N96441   8.098  11.490   2.343 -0.5825 -0.4523  0.3050
  715MOL0     N96442   8.049  11.388   2.409  0.1861 -0.7110  0.2616
  715MOL0     C96443   8.671  10.914   3.416 -0.7580  0.3658  0.0456
  715MOL0     C96444   8.721  10.834   3.528  0.5376  0.4786 -0.7475
  715MOL0     C96445   8.801  10.625   3.901  0.0557  1.1210  0.6666
  715MOL0     C96446   8.900  10.646   3.993  0.1554  0.2206  0.1758
  715MOL0     C96447   8.921  10.560   4.094 -0.7231  0.3968  0.7005
  715MOL0     C96448   8.834  10.450   4.121  0.6397 -0.5125 -0.0032
  715MOL0     O96449   8.856  10.382   4.237 -0.1747  0.3577  0.5938
  715MOL0     C96450   8.773  10.271   4.262  0.6763 -0.5370  0.0461
  715MOL0     C96451   8.812  10.201   4.394 -0.0365 -0.7417  0.1541
  715MOL0     C96452   8.800  10.297   4.513  0.1766  1.0869  0.1579
  715MOL0     C96453   8.815  10.219   4.653 -0.7255 -0.1778  0.2932
  715MOL0     C96454   8.709  10.129   4.677  0.1588 -0.1404  0.3757
  715MOL0     C96455   8.641  10.030   4.704 -0.2625  0.4237  0.7539
  715MOL0     C96456   8.727  10.433   4.028 -0.8198 -0.9578 -0.9780
  715MOL0     C96457   8.714  10.519   3.919  0.2002  0.0073 -0.0152
  715MOL0     H96458   8.430  10.783   3.671  0.0111  3.1884  1.6994
  715MOL0     H96459   8.350  10.868   3.471  0.2282 -2.4310  0.8874
  715MOL0     H96460   8.628  11.143   3.281  1.7629 -5.0045  2.3171
  715MOL0     H96461   8.637  11.019   3.153  1.7067  0.9473  0.0981
  715MOL0     H96462   8.431  11.252   3.151 -2.7374 -1.1414 -1.9306
  715MOL0     H96463   8.565  11.243   3.053 -1.8306  1.4698 -0.6007
  715MOL0     H96464   8.474  11.018   2.959 -3.9805 -0.4415 -1.7022
  715MOL0     H96465   8.337  11.034   3.061 -3.5541  1.6874 -1.9073
  715MOL0     H96466   8.300  11.273   2.977  1.3332  1.5547  1.0283
  715MOL0     H96467   8.413  11.232   2.845  2.0150  0.1582  2.4568
  715MOL0     H96468   8.295  11.011   2.801 -2.0493 -0.9954  0.3222
  715MOL0     H96469   8.163  11.070   2.881 -0.6991 -3.2619 -2.6658
  715MOL0     H96470   8.285  11.255   2.678  0.4717  0.3215 -0.1975
  715MOL0     H96471   8.154  11.130   2.639  0.7481 -2.2941  1.0771
  715MOL0     H96472   8.042  11.236   2.845  1.6320 -0.4207  0.3879
  715MOL0     H96473   8.155  11.375   2.817  0.4473  0.3039  2.2797
  715MOL0     H96474   7.943  11.426   2.687 -0.7791 -1.1846  1.1367
  715MOL0     H96475   7.943  11.262   2.634 -0.7925  0.7668  0.1636
  715MOL0     H96476   8.215  11.527   2.649  1.8872 -1.0163 -0.6234
  715MOL0     H96477   8.179  11.780   2.426 -1.3548 -0.0370  0.8293
  715MOL0     H96478   8.337  11.694   2.453 -0.1320 -2.2994  0.0957
  715MOL0     H96479   8.166  11.698   2.192 -0.5677 -1.6447  2.9568
  715MOL0     H96480   8.318  11.620   2.203 -1.1204 -0.4055 -2.0981
  715MOL0     H96481   8.439  11.838   2.256  1.6245  1.1214 -0.2074
  715MOL0     H96482   8.275  11.916   2.258  1.0666 -0.0791  0.9220
  715MOL0     H96483   8.251  11.883   2.022 -1.1291  2.1962  0.9967
  715MOL0     H96484   8.399  11.788   2.014 -0.5167  1.9831 -1.9471
  715MOL0     H96485   8.416  11.880   1.806  1.4430 -1.3178 -2.3543
  715MOL0     H96486   8.655  11.819   1.609 -0.6974 -1.5189 -2.2693
  715MOL0     H96487   8.476  11.839   1.586  0.3669  1.4347 -1.2607
  715MOL0     H96488   8.591  11.955   1.507 -0.2165 -2.3951 -2.4357
  715MOL0     H96489   9.089  12.071   1.803  2.2670  2.0296  1.0715
  715MOL0     H96490   9.317  12.058   1.732  0.4090  1.1989 -0.4946
  715MOL0     H96491   9.483  12.257   1.393 -1.1725 -0.2396 -0.0904
  715MOL0     H96492   9.508  12.284   1.571  1.2638  0.6590 -1.8492
  715MOL0     H96493   9.697  12.108   1.573 -1.2859 -2.9919 -1.3102
  715MOL0     H96494   9.658  12.071   1.403 -0.8863  0.5176 -1.5982
  715MOL0     H96495   9.757  12.337   1.520 -1.1372 -0.4873  1.3255
  715MOL0     H96496   9.703  12.318   1.352 -2.1871 -1.8811 -0.5188
  715MOL0     H96497   9.940  12.156   1.465 -0.0241 -0.4617 -1.2446
  715MOL0     H96498   9.891  12.201   1.299  1.0833  1.5943 -0.4701
  715MOL0     H96499   9.966  12.408   1.503 -0.2178 -2.1071  1.0777
  715MOL0     H96500   9.970  12.429   1.324 -0.4964 -1.7076 -1.9332
  715MOL0     H96501  10.171  12.294   1.500  0.8120  0.2616  0.0034
  715MOL0     H96502  10.132  12.227   1.336 -1.0617 -0.7172  1.5200
  715MOL0     H96503  10.239  12.511   1.401 -1.9912 -1.7916  3.6199
  715MOL0     H96504  10.193  12.468   1.235 -1.9410  1.1520  1.1512
  715MOL0     H96505  10.443  12.428   1.262 -0.9483 -1.2082 -1.9833
  715MOL0     H96506  10.348  12.285   1.235 -1.4051 -0.3665  0.5298
  715MOL0     H96507   9.233  12.215   1.354 -2.5065  0.3855 -0.6099
  715MOL0     H96508   8.984  12.234   1.423  0.5429 -0.1557  0.6818
  715MOL0     H96509   8.807  12.173   1.878  0.1752 -0.7685 -1.6441
  715MOL0     H96510   8.632  12.125   2.076  2.0283  2.1599  0.9768
  715MOL0     H96511   8.745  10.954   3.349 -0.6521 -1.3392 -0.8914
  715MOL0     H96512   8.829  10.836   3.530  0.6392 -1.9184  1.5667
  715MOL0     H96513   8.958  10.736   3.976 -1.6145  2.2809  3.8713
  715MOL0     H96514   9.007  10.554   4.160 -1.4612 -4.6194  1.5314
  715MOL0     H96515   8.673  10.315   4.273  1.5416  0.9167  3.8709
  715MOL0     H96516   8.778  10.193   4.186  1.8979  2.3993 -3.1534
  715MOL0     H96517   8.911  10.157   4.408  0.9791  2.3432  5.5348
  715MOL0     H96518   8.750  10.111   4.399 -0.5634 -0.3651  0.5242
  715MOL0     H96519   8.702  10.345   4.522 -1.3034 -1.7826  0.7012
  715MOL0     H96520   8.877  10.374   4.506 -0.1335  1.2910 -1.2541
  715MOL0     H96521   8.827  10.289   4.736  3.1670  1.4427 -1.3961
  715MOL0     H96522   8.914  10.172   4.657 -0.1756  0.8214 -0.9741
  715MOL0     H96523   8.566   9.957   4.725 -0.9196  0.9709  0.3965
  715MOL0     H96524   8.643  10.365   4.040 -0.2739 -1.7959 -1.7073
  715MOL0     H96525   8.624  10.507   3.861 -0.6467 -2.7331  1.6888
  716MOL0     O96526   9.631  11.382   0.168 -0.1206 -0.2246  0.2092
  716MOL0     C96527   9.540  11.298   0.164 -0.5980  0.3664  0.1782
  716MOL0     O96528   9.413  11.335   0.165  0.3394  0.9310  0.3082
  716MOL0     C96529   9.392  11.462   0.136  0.0529 -0.3335 -0.0216
  716MOL0     C96530   9.354  11.503  -0.001  1.0581 -0.2018 -0.3287
  716MOL0     C96531   9.307  11.636  -0.020 -0.4482  0.6371  0.2112
  716MOL0     C96532   9.302  11.724   0.094  1.3968 -0.8333 -0.2844
  716MOL0     O96533   9.277  11.852   0.064 -0.6957 -0.2041 -0.9709
  716MOL0     C96534   9.390  11.942   0.056 -1.1383  0.1413  0.1840
  716MOL0     C96535   9.336  12.073  -0.004  0.4167 -0.2532  0.0652
  716MOL0     C96536   9.288  12.052  -0.149  0.7293 -0.1537 -0.3780
  716MOL0     C96537   9.396  12.054  -0.253 -0.1643  0.3182 -0.4424
  716MOL0     C96538   9.336  11.979  -0.375 -0.5676  0.6571 -0.3235
  716MOL0     C96539   9.426  12.009  -0.504  0.4988 -0.3561 -0.6249
  716MOL0     C96540   9.354  11.956  -0.623 -0.0768  0.6469  1.1654
  716MOL0     C96541   9.446  11.979  -0.734  0.2816  0.0993  1.1325
  716MOL0     N96542   9.521  12.103  -0.741  0.2592 -0.1713  0.1787
  716MOL0     C96543   9.651  12.110  -0.769 -0.0561  0.3322  0.6477
  716MOL0     C96544   9.671  12.246  -0.797 -0.0840  0.4651 -0.5575
  716MOL0     C96545   9.810  12.301  -0.839  1.0094  0.2252 -0.1824
  716MOL0     C96546   9.818  12.340  -0.992 -0.0321 -0.3357  0.3725
  716MOL0     C96547   9.781  12.487  -1.008  0.9133 -0.6274 -0.2326
  716MOL0     C96548   9.778  12.540  -1.151  0.6418  1.4733 -1.1310
  716MOL0     O96549   9.824  12.675  -1.172  0.3514  0.8531 -0.1790
  716MOL0     C96550   9.957  12.691  -1.211 -0.2243 -0.0657 -1.0074
  716MOL0     C96551   9.984  12.806  -1.283  0.1509  0.9225 -0.3458
  716MOL0     C96552  10.115  12.845  -1.315  0.6024 -0.1536  0.7834
  716MOL0     C96553  10.128  12.955  -1.404 -0.8148 -0.6286  0.7544
  716MOL0     C96554  10.226  12.761  -1.278  0.7271 -1.0934  0.5178
  716MOL0     C96555  10.360  12.783  -1.304 -0.5482 -0.8830 -0.4823
  716MOL0     O96556  10.449  12.688  -1.262 -0.0498  0.1445  0.4888
  716MOL0     C96557  10.582  12.686  -1.290 -0.3377 -1.3762 -0.7470
  716MOL0     C96558  10.666  12.800  -1.296  0.5984  0.0241  0.2677
  716MOL0     C96559  10.797  12.781  -1.329  0.4878  0.4984 -0.4444
  716MOL0     C96560  10.857  12.656  -1.340 -0.7461  0.8257 -0.2862
  716MOL0     O96561  10.983  12.649  -1.389  0.5346  0.2649  0.3735
  716MOL0     C96562  11.061  12.527  -1.371 -0.3833  0.4618 -1.5204
  716MOL0     C96563  11.202  12.533  -1.436 -0.1844 -0.2320  0.5211
  716MOL0     C96564  11.304  12.626  -1.375 -0.3487 -0.3064 -0.2950
  716MOL0     C96565  11.375  12.580  -1.241 -0.6883  0.3204  0.1234
  716MOL0     C96566  11.445  12.688  -1.149 -0.0799 -0.0918  0.2779
  716MOL0     C96567  11.549  12.617  -1.065 -0.3738  0.0534 -0.3163
  716MOL0     C96568  11.642  12.731  -1.016  0.0253  0.3087  0.5096
  716MOL0     C96569  11.746  12.701  -0.913 -0.3431 -0.5588 -0.8935
  716MOL0    Cl96570  11.830  12.557  -0.957  0.2361  0.2386  0.8455
  716MOL0     C96571  10.778  12.541  -1.309  0.0605  0.9361  0.4037
  716MOL0     C96572  10.642  12.557  -1.281 -0.5196  0.0135 -0.4940
  716MOL0     O96573  10.394  12.886  -1.371  0.3787 -0.1612 -0.5002
  716MOL0     C96574  10.198  12.645  -1.205 -0.6181  0.7879 -0.3008
  716MOL0     C96575  10.063  12.607  -1.173  0.3833  0.2557 -0.2062
  716MOL0     N96576   9.556  12.317  -0.776 -0.4797  0.2886 -0.0727
  716MOL0     N96577   9.467  12.231  -0.749 -0.7004  0.4610  0.6466
  716MOL0     C96578   9.345  11.686   0.219 -0.5672 -0.2408 -0.9306
  716MOL0     C96579   9.384  11.554   0.240 -0.1567  0.2669  0.9123
  716MOL0     C96580   9.577  11.152   0.155 -0.0148 -0.8022 -0.1794
  716MOL0     C96581   9.474  11.063   0.186  0.2016 -0.8486  0.4685
  716MOL0     C96582   9.513  10.926   0.177  0.1519 -0.4839 -0.2616
  716MOL0     C96583   9.646  10.892   0.171  0.7939 -0.5780  1.1089
  716MOL0     O96584   9.689  10.765   0.206  0.3536  0.0953 -0.0206
  716MOL0     C96585   9.807  10.763   0.293 -0.0068  0.2513  0.5888
  716MOL0     C96586   9.791  10.636   0.392  0.3431 -0.2269 -0.3119
  716MOL0     C96587   9.925  10.633   0.469  0.1530  0.9664  0.0953
  716MOL0     C96588   9.940  10.513   0.562  0.2304  0.0974  0.4644
  716MOL0     C96589   9.973  10.392   0.486 -0.7469 -0.0987 -0.9148
  716MOL0     C96590  10.017  10.291   0.439  0.2116  0.1457  0.6821
  716MOL0     C96591   9.743  10.986   0.146 -0.0840  0.1604  0.0439
  716MOL0     C96592   9.708  11.115   0.129  0.0312  0.2484  0.7623
  716MOL0     H96593   9.351  11.417  -0.067  0.1585 -3.6646  3.7401
  716MOL0     H96594   9.266  11.642  -0.120 -0.5163 -4.2311 -0.3253
  716MOL0     H96595   9.423  11.954   0.159 -0.8488  1.7187 -0.0689
  716MOL0     H96596   9.473  11.902  -0.004 -0.7378  0.6959  0.3483
  716MOL0     H96597   9.256  12.111   0.060 -0.0235  0.1811 -0.7300
  716MOL0     H96598   9.434  12.121   0.003  1.3774 -2.1662  0.5351
  716MOL0     H96599   9.248  11.951  -0.160 -0.3602  0.3370 -1.0033
  716MOL0     H96600   9.210  12.122  -0.180 -2.7717 -3.1177  1.0000
  716MOL0     H96601   9.414  12.159  -0.280 -3.8091  0.5311 -2.5924
  716MOL0     H96602   9.486  12.001  -0.220  0.6741  2.0304  0.1807
  716MOL0     H96603   9.320  11.874  -0.352  1.7626  0.2404 -0.3609
  716MOL0     H96604   9.232  12.003  -0.400 -1.1783 -2.6399 -1.3397
  716MOL0     H96605   9.435  12.118  -0.499 -0.2576 -0.3319  1.0260
  716MOL0     H96606   9.526  11.965  -0.498 -0.2181 -2.3659 -2.0875
  716MOL0     H96607   9.338  11.850  -0.599 -0.3679  0.7670  1.5019
  716MOL0     H96608   9.254  11.989  -0.652  0.2479 -0.4478 -1.4866
  716MOL0     H96609   9.399  11.957  -0.830 -0.4098 -2.5500  1.9880
  716MOL0     H96610   9.523  11.903  -0.723  0.3414 -0.2029 -0.9931
  716MOL0     H96611   9.718  12.026  -0.785  1.6079  1.6341  0.5510
  716MOL0     H96612   9.846  12.382  -0.775  3.4288 -2.7620  2.5885
  716MOL0     H96613   9.884  12.223  -0.821  2.8189  1.8462 -0.2444
  716MOL0     H96614   9.740  12.284  -1.046  0.6343 -0.2323 -0.7324
  716MOL0     H96615   9.921  12.324  -1.024 -1.1383  0.1942 -4.1060
  716MOL0     H96616   9.851  12.545  -0.947  1.6648 -0.3647 -1.3156
  716MOL0     H96617   9.679  12.510  -0.974  0.7323  4.0428 -3.0752
  716MOL0     H96618   9.673  12.518  -1.174 -0.4992  0.0636  4.1825
  716MOL0     H96619   9.840  12.473  -1.212  1.0583  1.6052 -0.8550
  716MOL0     H96620   9.899  12.851  -1.335 -0.5505 -0.3415 -0.3216
  716MOL0     H96621  10.197  12.925  -1.484 -1.4307  0.1299 -0.0851
  716MOL0     H96622  10.035  12.993  -1.447 -0.6392 -2.9376 -1.9019
  716MOL0     H96623  10.183  13.022  -1.337 -1.1341 -1.2131  1.6081
  716MOL0     H96624  10.632  12.903  -1.289 -2.2779 -0.6802 -1.6159
  716MOL0     H96625  10.855  12.869  -1.355  0.6539  1.2156  2.0811
  716MOL0     H96626  11.073  12.511  -1.264 -0.8993 -1.6983 -1.7385
  716MOL0     H96627  11.004  12.440  -1.406  1.5417 -1.0747 -1.0038
  716MOL0     H96628  11.242  12.431  -1.427  0.4188 -0.0270  0.1844
  716MOL0     H96629  11.201  12.563  -1.541 -0.6343  1.1434  0.9058
  716MOL0     H96630  11.261  12.721  -1.341 -1.6020 -0.6935 -0.7330
  716MOL0     H96631  11.365  12.662  -1.459 -1.2450  1.7766 -0.1278
  716MOL0     H96632  11.291  12.533  -1.189 -1.7997 -0.0540 -1.9207
  716MOL0     H96633  11.443  12.500  -1.271 -0.8033 -0.2892  1.4231
  716MOL0     H96634  11.375  12.749  -1.092  1.3491  0.0881  1.9081
  716MOL0     H96635  11.494  12.758  -1.218  1.5915  0.2668  1.7694
  716MOL0     H96636  11.501  12.576  -0.975 -0.5416  1.2475  0.1614
  716MOL0     H96637  11.590  12.535  -1.125  0.7877 -0.0259  0.5438
  716MOL0     H96638  11.576  12.815  -0.992  0.5379  0.1690  2.6134
  716MOL0     H96639  11.692  12.755  -1.111 -0.6496 -1.1798 -0.2525
  716MOL0     H96640  11.695  12.685  -0.818  3.0748 -1.9326  0.8383
  716MOL0     H96641  11.818  12.779  -0.886 -1.9652  0.5770  0.4119
  716MOL0     H96642  10.818  12.441  -1.312 -2.9078 -0.4958  2.4905
  716MOL0     H96643  10.592  12.462  -1.271  1.9952 -1.5446 -1.6813
  716MOL0     H96644  10.278  12.579  -1.174  0.1188  0.8816 -1.9125
  716MOL0     H96645  10.046  12.525  -1.104  0.2922  0.5710  0.1455
  716MOL0     H96646   9.357  11.764   0.293 -2.7871 -2.5221  2.0947
  716MOL0     H96647   9.416  11.534   0.342  1.6337 -2.3663 -0.0782
  716MOL0     H96648   9.374  11.103   0.197  0.4830 -0.0240  0.1633
  716MOL0     H96649   9.435  10.850   0.185  0.0322 -0.5823 -2.0408
  716MOL0     H96650   9.886  10.761   0.217 -2.2697  1.0658 -1.9451
  716MOL0     H96651   9.819  10.856   0.348  0.8465  0.2467  0.4219
  716MOL0     H96652   9.778  10.540   0.342 -0.9073 -0.7867  1.0160
  716MOL0     H96653   9.704  10.663   0.452  1.0792  1.6969 -0.0432
  716MOL0     H96654   9.927  10.727   0.525  0.5412 -0.1925  2.1240
  716MOL0     H96655  10.009  10.638   0.399 -0.2747 -0.9303 -0.6154
  716MOL0     H96656   9.842  10.497   0.608 -1.3518 -1.2994 -3.0212
  716MOL0     H96657  10.012  10.534   0.642  0.9364 -1.4335  0.2765
  716MOL0     H96658  10.045  10.200   0.389 -0.4902  1.4390 -2.3477
  716MOL0     H96659   9.848  10.963   0.133 -0.3107 -2.3998  1.8957
  716MOL0     H96660   9.778  11.195   0.109 -0.0562  0.0129 -0.5708
  717MOL0     O96661  11.341   3.100   8.486 -0.2913 -0.1281 -0.6044
  717MOL0     C96662  11.221   3.109   8.473  0.7323  0.0440 -0.2192
  717MOL0     O96663  11.151   3.169   8.376  0.1147 -0.3798 -0.4852
  717MOL0     C96664  11.221   3.243   8.281 -0.8677  0.1629 -1.0527
  717MOL0     C96665  11.195   3.375   8.270  0.7682  0.2915  0.1379
  717MOL0     C96666  11.235   3.452   8.158  0.1887 -1.4363 -0.1711
  717MOL0     C96667  11.315   3.397   8.059  0.1014 -0.0580 -0.2675
  717MOL0     O96668  11.374   3.456   7.962 -0.8913  0.4870 -0.2736
  717MOL0     C96669  11.410   3.590   7.971 -0.1517 -0.3920 -0.3621
  717MOL0     C96670  11.307   3.687   7.900  0.1578  0.1228  0.4889
  717MOL0     C96671  11.377   3.710   7.761  0.1214  0.0245 -0.2993
  717MOL0     C96672  11.398   3.579   7.675  0.8931 -0.9319 -0.0858
  717MOL0     C96673  11.425   3.608   7.520 -0.1142  0.0049 -0.0645
  717MOL0     C96674  11.576   3.639   7.497  0.2324 -0.7268  0.4211
  717MOL0     C96675  11.624   3.639   7.344 -0.5244  0.5082  0.1436
  717MOL0     C96676  11.613   3.506   7.266  0.0688  0.3006 -0.1614
  717MOL0     N96677  11.661   3.525   7.131 -0.8661 -0.0551 -0.5878
  717MOL0     C96678  11.593   3.580   7.029 -0.1372 -1.2380  0.3270
  717MOL0     C96679  11.683   3.573   6.925  0.3686  0.1268 -0.6010
  717MOL0     C96680  11.659   3.636   6.788  0.4755  0.0120 -0.5451
  717MOL0     C96681  11.766   3.591   6.690  0.6484 -0.4863  0.7536
  717MOL0     C96682  11.721   3.567   6.552 -0.1219  0.3179  0.1234
  717MOL0     C96683  11.841   3.561   6.456 -0.1046  0.7111  0.3226
  717MOL0     O96684  11.949   3.481   6.519  1.1473  0.0014  0.0797
  717MOL0     C96685  12.074   3.518   6.484  0.5170 -0.4508 -0.9374
  717MOL0     C96686  12.115   3.516   6.350  1.2434 -0.4273  0.8026
  717MOL0     C96687  12.249   3.558   6.312 -0.9395 -0.1385 -0.2919
  717MOL0     C96688  12.297   3.539   6.161  0.3624 -0.7801 -0.0610
  717MOL0     C96689  12.342   3.583   6.412  0.4407 -0.0290  0.5104
  717MOL0     C96690  12.475   3.649   6.386 -0.6602 -0.2005  0.0632
  717MOL0     O96691  12.584   3.623   6.469 -0.6156 -0.2028  0.3497
  717MOL0     C96692  12.677   3.726   6.455  0.3042  0.7151  0.4778
  717MOL0     C96693  12.654   3.851   6.511 -0.9398  0.3538 -0.6883
  717MOL0     C96694  12.741   3.957   6.490 -0.2059  0.2272 -0.2083
  717MOL0     C96695  12.862   3.944   6.421  0.1208 -1.2015 -0.8483
  717MOL0     O96696  12.962   4.042   6.405 -0.5353 -0.4665  0.4303
  717MOL0     C96697  12.948   4.184   6.467 -0.0748  0.9885 -0.0598
  717MOL0     C96698  12.944   4.190   6.623 -0.0928  0.0671  0.7177
  717MOL0     C96699  13.084   4.163   6.681 -0.0898 -0.0199  0.7032
  717MOL0     C96700  13.100   4.204   6.828 -0.0457  0.4394  0.0105
  717MOL0     C96701  13.228   4.162   6.900  0.4275  0.5008  0.0400
  717MOL0     C96702  13.251   4.002   6.899 -0.1103  0.4944 -0.1028
  717MOL0     C96703  13.383   3.955   6.958 -0.2513 -0.7666  0.0206
  717MOL0     C96704  13.416   3.813   6.929  0.7757 -0.0379 -1.3072
  717MOL0    Cl96705  13.411   3.773   6.756  0.3588 -0.2421 -0.0378
  717MOL0     C96706  12.892   3.818   6.370  0.0117 -0.0129  0.1299
  717MOL0     C96707  12.797   3.707   6.378  0.6438 -0.5450 -0.8351
  717MOL0     O96708  12.462   3.739   6.311  0.5335 -1.2451 -0.2696
  717MOL0     C96709  12.299   3.577   6.544 -0.5597  0.1609 -0.1666
  717MOL0     C96710  12.170   3.544   6.585 -1.3078  0.0023 -0.3200
  717MOL0     N96711  11.807   3.520   6.971  0.2849  0.5308 -0.0799
  717MOL0     N96712  11.786   3.493   7.099 -0.4564 -0.3023 -0.6423
  717MOL0     C96713  11.329   3.259   8.067  0.6984  0.2335  0.0526
  717MOL0     C96714  11.293   3.186   8.178  0.0656  0.0350 -0.0092
  717MOL0     C96715  11.130   3.048   8.570  0.3142  0.0823 -0.2001
  717MOL0     C96716  10.983   3.048   8.564 -0.4857  0.5930 -1.3987
  717MOL0     C96717  10.908   2.974   8.648  0.6368  0.2000 -0.0469
  717MOL0     C96718  10.967   2.902   8.752  0.4448  0.6694  0.3689
  717MOL0     O96719  10.889   2.826   8.831 -0.3156 -0.3370  0.0401
  717MOL0     C96720  10.945   2.741   8.924  0.0030 -0.3246  0.3423
  717MOL0     C96721  10.980   2.803   9.058 -0.1798 -1.3883  0.5126
  717MOL0     C96722  11.058   2.700   9.141  0.5928 -0.4835  0.3886
  717MOL0     C96723  11.101   2.758   9.282 -0.0236 -0.4362 -0.4058
  717MOL0     C96724  11.163   2.652   9.361 -0.4642 -0.0947 -0.2824
  717MOL0     C96725  11.213   2.569   9.430  0.0739 -0.6334  0.0635
  717MOL0     C96726  11.104   2.904   8.766 -0.1802  0.4787  0.9090
  717MOL0     C96727  11.185   2.976   8.679  1.3215  0.1914 -0.1944
  717MOL0     H96728  11.132   3.415   8.349 -2.2986  1.4228 -2.6468
  717MOL0     H96729  11.184   3.548   8.150 -0.3650 -1.7986 -1.0626
  717MOL0     H96730  11.415   3.626   8.074 -0.4193  1.1099 -0.8490
  717MOL0     H96731  11.510   3.609   7.931 -0.5638 -0.9373 -1.7225
  717MOL0     H96732  11.209   3.642   7.885 -1.2726  2.4483  2.1141
  717MOL0     H96733  11.283   3.783   7.948 -1.3611 -0.3906  0.8056
  717MOL0     H96734  11.310   3.778   7.707 -1.7540 -2.1524 -0.8801
  717MOL0     H96735  11.471   3.762   7.780 -1.0807  3.0248 -1.7573
  717MOL0     H96736  11.476   3.515   7.715  2.2700  1.0637  0.6079
  717MOL0     H96737  11.302   3.528   7.684 -0.0637  1.0299  1.8112
  717MOL0     H96738  11.396   3.510   7.481  1.0909 -0.9832  1.4208
  717MOL0     H96739  11.362   3.683   7.472 -0.1111 -1.8153 -3.2082
  717MOL0     H96740  11.569   3.741   7.537  2.9160  0.3439 -1.5506
  717MOL0     H96741  11.639   3.573   7.557  1.3919 -1.1085 -1.1346
  717MOL0     H96742  11.570   3.713   7.284 -3.6708 -0.9075  1.0076
  717MOL0     H96743  11.731   3.660   7.359  0.0970  0.3782 -3.3312
  717MOL0     H96744  11.507   3.481   7.276 -0.2080  1.2801 -0.5330
  717MOL0     H96745  11.684   3.437   7.313 -0.0147 -0.3940 -1.0045
  717MOL0     H96746  11.500   3.636   7.035 -0.5341 -1.8663  0.1586
  717MOL0     H96747  11.563   3.599   6.751  1.5453 -2.4146 -1.1584
  717MOL0     H96748  11.648   3.743   6.806 -0.4169 -0.0295 -0.8178
  717MOL0     H96749  11.802   3.491   6.713  0.1287 -1.1834 -1.2630
  717MOL0     H96750  11.854   3.656   6.687 -0.3943  1.0245 -3.2531
  717MOL0     H96751  11.654   3.648   6.520 -1.1871 -0.1212  1.1509
  717MOL0     H96752  11.655   3.480   6.549 -1.0548  1.0388 -1.0853
  717MOL0     H96753  11.890   3.659   6.455  0.8566  0.2979 -2.4922
  717MOL0     H96754  11.825   3.537   6.350  0.4532 -1.2108  0.6367
  717MOL0     H96755  12.047   3.490   6.270  1.0884 -0.3177  0.8968
  717MOL0     H96756  12.276   3.626   6.099  2.9472  0.7276  1.0266
  717MOL0     H96757  12.405   3.522   6.155  0.5721  0.8047 -1.3813
  717MOL0     H96758  12.254   3.447   6.120 -1.4962 -0.3719  0.8757
  717MOL0     H96759  12.568   3.882   6.570  3.4894  1.3656  6.3546
  717MOL0     H96760  12.712   4.049   6.539  1.9128  0.5966  0.4619
  717MOL0     H96761  13.036   4.243   6.439 -0.1822  0.7495 -0.9476
  717MOL0     H96762  12.855   4.224   6.424 -1.4365 -2.0304 -0.2269
  717MOL0     H96763  12.905   4.288   6.654 -0.0307  0.1552  0.5208
  717MOL0     H96764  12.890   4.105   6.665 -0.6240 -1.1933 -2.2402
  717MOL0     H96765  13.160   4.209   6.616  1.7318 -1.1623  1.9159
  717MOL0     H96766  13.101   4.055   6.678 -1.3696 -0.2082 -1.0639
  717MOL0     H96767  13.094   4.313   6.819 -2.2372  0.2083 -2.3510
  717MOL0     H96768  13.007   4.167   6.873  0.8525 -1.5327  0.3498
  717MOL0     H96769  13.231   4.200   7.002  0.2575 -0.9453  0.6063
  717MOL0     H96770  13.321   4.196   6.854 -0.0834  1.9339  0.0132
  717MOL0     H96771  13.171   3.957   6.959 -0.5650 -2.4169 -2.6568
  717MOL0     H96772  13.250   3.962   6.798 -4.2928 -0.6184  0.2171
  717MOL0     H96773  13.394   3.982   7.063  0.6547 -0.4642 -0.1400
  717MOL0     H96774  13.459   4.020   6.912  1.4852 -0.1143  3.4777
  717MOL0     H96775  13.334   3.763   6.982  1.2050  1.0652  0.5141
  717MOL0     H96776  13.506   3.786   6.985 -1.2519 -2.3601  1.1334
  717MOL0     H96777  12.988   3.809   6.320  0.1432 -0.2500  0.4221
  717MOL0     H96778  12.838   3.607   6.364  2.4043  0.4099 -3.0529
  717MOL0     H96779  12.378   3.609   6.611  0.9665 -3.5090  0.0389
  717MOL0     H96780  12.159   3.541   6.693 -1.2619 -1.2571 -0.3326
  717MOL0     H96781  11.376   3.192   7.995  0.4304 -0.9450  0.9354
  717MOL0     H96782  11.316   3.081   8.186 -1.8877 -0.4259  0.0547
  717MOL0     H96783  10.939   3.096   8.478  0.0542 -0.8857 -2.5434
  717MOL0     H96784  10.801   2.979   8.665  0.9308  2.3569  1.6075
  717MOL0     H96785  10.878   2.658   8.948 -0.9562 -0.1405 -1.5201
  717MOL0     H96786  11.032   2.689   8.884  0.8667  0.5831  0.9815
  717MOL0     H96787  10.898   2.840   9.121 -0.3838  2.5347 -1.6767
  717MOL0     H96788  11.022   2.899   9.027 -3.4221  0.1963  0.5451
  717MOL0     H96789  11.133   2.664   9.069  0.2159  0.3620 -0.4446
  717MOL0     H96790  10.984   2.621   9.157  0.2565 -0.1627  0.4397
  717MOL0     H96791  11.009   2.774   9.339 -0.1979 -3.3645  0.3141
  717MOL0     H96792  11.161   2.845   9.255  0.1044 -1.5259 -4.3017
  717MOL0     H96793  11.263   2.506   9.501  3.5820  0.0479 -1.5690
  717MOL0     H96794  11.151   2.858   8.852 -0.0661 -2.4734 -0.6005
  717MOL0     H96795  11.292   2.986   8.696  0.8915  2.3469  1.8453
  718MOL0     O96796   0.350   0.211   8.140 -0.2799  0.2983  0.6471
  718MOL0     C96797   0.229   0.187   8.116  0.2271  0.4786  0.3613
  718MOL0     O96798   0.130   0.277   8.074 -1.2885 -0.1382 -0.0279
  718MOL0     C96799   0.142   0.417   8.105 -0.1228 -0.2413  0.2571
  718MOL0     C96800   0.233   0.469   8.196 -0.3375  0.4003 -0.2182
  718MOL0     C96801   0.237   0.605   8.230  0.3696 -0.8615  0.6371
  718MOL0     C96802   0.135   0.695   8.187  0.4915  0.2822 -0.5591
  718MOL0     O96803   0.135   0.824   8.239  1.0728  0.1786 -0.1445
  718MOL0     C96804   0.032   0.919   8.195 -0.0722 -0.0222 -0.1010
  718MOL0     C96805   0.085   1.050   8.237  0.3484  0.5159 -0.4345
  718MOL0     C96806   0.023   1.166   8.151 -0.0921  0.7576 -0.9019
  718MOL0     C96807  -0.125   1.164   8.170 -0.1001 -0.3498  1.0660
  718MOL0     C96808  -0.192   1.304   8.205  1.2194 -0.4277  0.5336
  718MOL0     C96809  -0.171   1.355   8.345 -0.0647  0.5420  0.6855
  718MOL0     C96810  -0.220   1.498   8.369 -0.2252  0.5247  1.2130
  718MOL0     C96811  -0.146   1.602   8.284  0.5198 -0.6495  0.2755
  718MOL0     N96812  -0.002   1.597   8.278  1.3539  0.1438 -0.3728
  718MOL0     C96813   0.069   1.591   8.161  0.2758 -0.0006  0.6712
  718MOL0     C96814   0.196   1.597   8.200 -0.2310 -1.1562 -0.9712
  718MOL0     C96815   0.328   1.582   8.129  0.4418  0.0498  0.3529
  718MOL0     C96816   0.399   1.710   8.100 -0.6375  0.0391 -1.1075
  718MOL0     C96817   0.323   1.804   8.016 -0.1743 -1.8420  0.3065
  718MOL0     C96818   0.407   1.938   7.999  0.0736 -1.0712 -0.7649
  718MOL0     O96819   0.489   1.934   7.887 -0.2446  0.3347 -0.0579
  718MOL0     C96820   0.569   2.033   7.850 -0.2190  0.7329 -0.9541
  718MOL0     C96821   0.591   2.149   7.925 -0.4549  0.1883 -0.5731
  718MOL0     C96822   0.657   2.255   7.872 -1.4538 -1.3883  0.1770
  718MOL0     C96823   0.655   2.379   7.955 -0.2445 -0.0231 -0.0156
  718MOL0     C96824   0.710   2.253   7.734 -0.7288 -0.0371  1.5509
  718MOL0     C96825   0.782   2.365   7.657  0.2213 -0.0649  0.7099
  718MOL0     O96826   0.772   2.496   7.706 -0.0991 -0.0536 -0.0086
  718MOL0     C96827   0.836   2.600   7.652 -0.5347 -0.8237  0.3849
  718MOL0     C96828   0.954   2.643   7.717 -0.5717 -0.3265 -0.1187
  718MOL0     C96829   1.033   2.744   7.663 -0.3226 -0.6943  0.8478
  718MOL0     C96830   1.007   2.801   7.542  0.1559 -0.0023  0.1080
  718MOL0     O96831   1.084   2.887   7.476  0.4146 -1.0487 -0.0963
  718MOL0     C96832   1.214   2.903   7.532 -0.3589 -0.3471  0.6146
  718MOL0     C96833   1.284   3.026   7.449 -0.3090  0.9410  0.0439
  718MOL0     C96834   1.244   3.159   7.512  0.0638  0.2548  1.1337
  718MOL0     C96835   1.339   3.277   7.495 -0.0737 -0.0411  0.1223
  718MOL0     C96836   1.279   3.401   7.572 -0.7763  0.4653  0.5375
  718MOL0     C96837   1.377   3.517   7.567  0.0019 -0.3813 -0.5875
  718MOL0     C96838   1.338   3.622   7.668  0.1340  0.6458 -0.5274
  718MOL0     C96839   1.446   3.732   7.677 -0.9041  0.2182  0.0128
  718MOL0    Cl96840   1.441   3.790   7.847  0.3573  0.0067 -0.4049
  718MOL0     C96841   0.880   2.770   7.479 -0.6942  0.2125 -0.1985
  718MOL0     C96842   0.787   2.667   7.534 -0.1798 -0.1868 -0.2007
  718MOL0     O96843   0.838   2.337   7.554 -0.2660  0.1569  0.3026
  718MOL0     C96844   0.695   2.128   7.662 -1.1684 -0.6468  0.4274
  718MOL0     C96845   0.621   2.027   7.718 -0.2677 -0.6825  0.4494
  718MOL0     N96846   0.199   1.615   8.341  0.9076  0.1293 -0.4637
  718MOL0     N96847   0.081   1.615   8.385  0.2210  0.0475 -0.8687
  718MOL0     C96848   0.051   0.640   8.084  1.2951  1.0600 -0.2195
  718MOL0     C96849   0.050   0.502   8.049 -0.5499  0.4628  0.7604
  718MOL0     C96850   0.181   0.045   8.120 -0.6576 -0.4539 -0.8443
  718MOL0     C96851   0.052   0.005   8.107  1.3156 -0.1550 -0.6108
  718MOL0     C96852   0.027  -0.136   8.083  0.7345  0.2916 -0.6676
  718MOL0     C96853   0.130  -0.227   8.071 -0.1972  0.0530 -0.1624
  718MOL0     O96854   0.107  -0.360   8.045  0.5988  0.6916 -0.5279
  718MOL0     C96855   0.064  -0.422   8.169  0.2552  0.8147 -0.3900
  718MOL0     C96856   0.027  -0.567   8.146 -0.5070  0.1618  0.0741
  718MOL0     C96857  -0.091  -0.585   8.043  0.0121 -0.2825 -0.2590
  718MOL0     C96858  -0.141  -0.737   8.048 -0.1956 -0.7076  0.4020
  718MOL0     C96859  -0.248  -0.758   7.950  0.6611 -1.0414 -1.0542
  718MOL0     C96860  -0.328  -0.784   7.866  0.1105  1.1529 -0.4810
  718MOL0     C96861   0.261  -0.187   8.080  1.0547  0.0344  0.4166
  718MOL0     C96862   0.286  -0.058   8.105  0.4737  0.2429 -0.6484
  718MOL0     H96863   0.309   0.404   8.239 -0.4262 -1.4023 -2.5477
  718MOL0     H96864   0.321   0.650   8.282  0.8897 -2.4212  1.1895
  718MOL0     H96865   0.029   0.926   8.086  2.3358  0.6872 -0.1747
  718MOL0     H96866  -0.070   0.890   8.222  0.4352 -1.2789  0.5627
  718MOL0     H96867   0.068   1.055   8.345  0.4421  3.5126 -0.4955
  718MOL0     H96868   0.191   1.044   8.214 -0.1065 -2.1147 -2.3729
  718MOL0     H96869   0.066   1.264   8.175 -1.8741  2.1271 -2.9203
  718MOL0     H96870   0.057   1.159   8.047 -3.6273 -2.9998 -2.0481
  718MOL0     H96871  -0.177   1.119   8.085  0.9037 -2.7953  1.6315
  718MOL0     H96872  -0.149   1.093   8.250 -1.3681 -2.5283 -1.0846
  718MOL0     H96873  -0.158   1.371   8.126  3.7142 -2.3178 -0.1297
  718MOL0     H96874  -0.299   1.286   8.190  1.1295 -0.0408  0.7023
  718MOL0     H96875  -0.213   1.297   8.428  0.1748  2.2706  2.0834
  718MOL0     H96876  -0.062   1.350   8.352  0.2238 -1.6641 -2.9187
  718MOL0     H96877  -0.328   1.513   8.355  0.0123  1.1655 -0.0822
  718MOL0     H96878  -0.188   1.515   8.472 -0.2412  0.2692  1.2611
  718MOL0     H96879  -0.165   1.704   8.316  0.6456 -0.3586 -0.5431
  718MOL0     H96880  -0.194   1.596   8.185 -0.8008 -2.3607  0.9525
  718MOL0     H96881   0.034   1.571   8.060 -1.0015  0.7022  0.9553
  718MOL0     H96882   0.387   1.519   8.196  1.0780  1.1733  0.8728
  718MOL0     H96883   0.319   1.528   8.034 -1.7746  0.4524  0.2721
  718MOL0     H96884   0.489   1.682   8.045  0.4683 -2.4200  1.6644
  718MOL0     H96885   0.418   1.758   8.196  0.1918 -0.4545 -1.0190
  718MOL0     H96886   0.233   1.837   8.069  0.4917  0.1858  0.2655
  718MOL0     H96887   0.300   1.750   7.924 -2.2599  0.1384 -0.4242
  718MOL0     H96888   0.465   1.949   8.091  1.3365 -2.7160 -1.3069
  718MOL0     H96889   0.343   2.027   8.000  1.2056 -0.1619  2.1517
  718MOL0     H96890   0.554   2.159   8.026 -0.1219  2.0159 -0.6034
  718MOL0     H96891   0.605   2.458   7.898 -0.7886 -0.4989 -0.2108
  718MOL0     H96892   0.617   2.366   8.056 -1.7169 -2.1538 -0.7831
  718MOL0     H96893   0.760   2.408   7.969  0.4986 -1.8519 -1.3637
  718MOL0     H96894   0.985   2.603   7.813  1.2034 -2.6523 -1.5457
  718MOL0     H96895   1.114   2.769   7.730 -1.2189  1.7782  1.0928
  718MOL0     H96896   1.218   2.921   7.640  0.2771 -0.4141  0.6057
  718MOL0     H96897   1.273   2.812   7.516  1.3588  0.5269  1.6587
  718MOL0     H96898   1.390   3.029   7.473 -0.5214 -1.3033  1.6166
  718MOL0     H96899   1.260   3.026   7.342 -0.0854 -1.5065 -0.0667
  718MOL0     H96900   1.238   3.139   7.619  0.1298  0.1904  1.1260
  718MOL0     H96901   1.142   3.182   7.481 -0.7438 -2.3537  1.5759
  718MOL0     H96902   1.434   3.249   7.542 -0.1263  2.0479  1.6455
  718MOL0     H96903   1.344   3.297   7.388  0.5765  1.2763  0.3672
  718MOL0     H96904   1.247   3.381   7.674 -1.6337  1.0694  0.3968
  718MOL0     H96905   1.192   3.439   7.517 -0.9541 -0.7933 -0.0912
  718MOL0     H96906   1.480   3.481   7.575  1.2122  2.3841 -2.3208
  718MOL0     H96907   1.358   3.567   7.471 -2.5572  2.3382  1.1877
  718MOL0     H96908   1.330   3.583   7.770  1.1308  0.1735 -0.6245
  718MOL0     H96909   1.239   3.664   7.644 -1.6295 -2.3103  0.9478
  718MOL0     H96910   1.417   3.809   7.605  0.4504 -2.0911 -3.2344
  718MOL0     H96911   1.546   3.693   7.656  0.8574  1.5650  4.5536
  718MOL0     H96912   0.834   2.820   7.394  2.1094  0.4415 -1.7120
  718MOL0     H96913   0.706   2.626   7.474  0.5326 -2.4112  0.2473
  718MOL0     H96914   0.746   2.114   7.567 -0.2254 -0.8745  0.9673
  718MOL0     H96915   0.624   1.943   7.649  1.1989  0.9828 -1.6688
  718MOL0     H96916  -0.017   0.703   8.028  0.6656  0.1363 -0.5079
  718MOL0     H96917  -0.016   0.478   7.966 -2.1049  1.7436  1.5684
  718MOL0     H96918  -0.038   0.063   8.125  2.1608  0.9353  0.2854
  718MOL0     H96919  -0.077  -0.168   8.083 -0.2607  3.2067 -0.0252
  718MOL0     H96920   0.144  -0.408   8.243  1.1071  1.3183 -1.3701
  718MOL0     H96921  -0.021  -0.369   8.214 -1.4615 -1.3890 -0.8744
  718MOL0     H96922   0.000  -0.614   8.241 -1.1264  2.7667  1.2553
  718MOL0     H96923   0.119  -0.609   8.104 -0.1597  0.0574  0.9156
  718MOL0     H96924  -0.053  -0.563   7.943  3.6190 -1.3563  0.7284
  718MOL0     H96925  -0.166  -0.516   8.082 -0.2432  0.1480 -1.4736
  718MOL0     H96926  -0.178  -0.760   8.148 -2.7072  1.4545  0.0804
  718MOL0     H96927  -0.051  -0.797   8.032  0.2133  0.7147 -4.2187
  718MOL0     H96928  -0.387  -0.811   7.781 -0.9208  0.7270  0.3473
  718MOL0     H96929   0.344  -0.254   8.064  0.3262 -1.4700  2.5262
  718MOL0     H96930   0.393  -0.040   8.099  0.8954 -1.7447  0.0806
  719MOL0     O96931  11.314   5.415  11.532 -0.5298  0.7440  0.3635
  719MOL0     C96932  11.277   5.530  11.543  0.5843 -0.6858  0.0570
  719MOL0     O96933  11.355   5.640  11.560  0.0544  0.6957  0.1336
  719MOL0     C96934  11.492   5.629  11.541 -0.4564  0.6988  0.3092
  719MOL0     C96935  11.576   5.703  11.627  0.1661  0.9991  0.7725
  719MOL0     C96936  11.718   5.689  11.609 -0.4748  0.3762  0.3573
  719MOL0     C96937  11.778   5.614  11.507  1.1222 -0.9516 -0.2802
  719MOL0     O96938  11.908   5.629  11.490 -0.0900 -0.8175  0.0913
  719MOL0     C96939  11.988   5.513  11.483  1.0267 -0.0753  0.8099
  719MOL0     C96940  12.112   5.538  11.400 -0.5525  0.7290  0.1897
  719MOL0     C96941  12.229   5.630  11.467 -0.5082 -0.5932  0.2676
  719MOL0     C96942  12.312   5.682  11.353  0.4672  0.2800  0.2534
  719MOL0     C96943  12.459   5.698  11.385  0.1135  0.5417  0.1597
  719MOL0     C96944  12.468   5.797  11.499  0.0140  0.0458  0.4863
  719MOL0     C96945  12.618   5.805  11.550  0.0354 -0.1424  0.2031
  719MOL0     C96946  12.662   5.678  11.641  0.5194 -0.4291 -0.3415
  719MOL0     N96947  12.558   5.630  11.729 -0.2082 -0.3001 -0.5254
  719MOL0     C96948  12.473   5.686  11.819 -0.0885 -0.3669 -0.0286
  719MOL0     C96949  12.402   5.587  11.880 -0.0840 -0.7261  0.6713
  719MOL0     C96950  12.284   5.612  11.979 -1.3936 -0.6934  0.3621
  719MOL0     C96951  12.217   5.751  11.958 -1.0117  0.3603  0.3907
  719MOL0     C96952  12.133   5.775  11.830 -0.1199 -0.3705 -0.4282
  719MOL0     C96953  12.074   5.918  11.835 -0.3072 -0.5161 -0.3647
  719MOL0     O96954  11.965   5.920  11.931 -0.4062  0.0359 -0.0033
  719MOL0     C96955  11.933   6.044  11.967  0.2150  0.0924  0.3567
  719MOL0     C96956  11.917   6.149  11.875 -0.6886  0.0258  0.1860
  719MOL0     C96957  11.869   6.275  11.911 -0.1121  0.3719  0.4193
  719MOL0     C96958  11.866   6.378  11.806  0.3140 -0.4979  0.6771
  719MOL0     C96959  11.853   6.302  12.047  0.4559 -0.1622 -0.3685
  719MOL0     C96960  11.842   6.439  12.110  0.1498  0.7185 -0.3480
  719MOL0     O96961  11.821   6.438  12.241 -0.1028 -0.7860 -0.3627
  719MOL0     C96962  11.831   6.561  12.307 -0.1756 -0.8797  1.1130
  719MOL0     C96963  11.750   6.670  12.283  0.2706  0.0011 -0.3466
  719MOL0     C96964  11.776   6.800  12.344 -0.5285  0.8538 -0.3735
  719MOL0     C96965  11.896   6.820  12.425 -0.3442  0.3253  1.1114
  719MOL0     O96966  11.937   6.943  12.473  0.3820  0.5752  0.2393
  719MOL0     C96967  11.915   7.052  12.389 -0.6287 -0.7616 -0.4789
  719MOL0     C96968  11.982   7.179  12.444 -0.5701 -0.0286 -0.7636
  719MOL0     C96969  12.137   7.160  12.476  0.4372  0.5603 -0.4211
  719MOL0     C96970  12.213   7.139  12.347  0.6101 -0.0346 -0.3384
  719MOL0     C96971  12.359   7.121  12.394 -0.9398  0.2373  1.5713
  719MOL0     C96972  12.472   7.080  12.299 -1.0047 -0.6218 -0.2152
  719MOL0     C96973  12.611   7.061  12.377  1.1324 -0.1945  0.3396
  719MOL0     C96974  12.630   7.168  12.482 -0.3729 -0.6299 -0.0352
  719MOL0    Cl96975  12.623   7.342  12.423 -0.3066 -0.2541  0.0245
  719MOL0     C96976  11.971   6.699  12.449 -0.1676 -0.3816 -0.4002
  719MOL0     C96977  11.938   6.576  12.400  0.3953  0.2265 -0.7921
  719MOL0     O96978  11.859   6.538  12.043 -0.7062  0.0711 -0.6327
  719MOL0     C96979  11.867   6.191  12.139  1.0083 -0.5508  0.5280
  719MOL0     C96980  11.897   6.066  12.098 -0.6115  0.3537  0.6013
  719MOL0     N96981  12.449   5.473  11.828  0.2831  0.2265 -0.4908
  719MOL0     N96982  12.540   5.497  11.740 -0.4452 -0.2963  0.2036
  719MOL0     C96983  11.690   5.533  11.432  0.0946 -1.1415  0.1505
  719MOL0     C96984  11.555   5.553  11.433 -0.1839 -0.3058 -0.3125
  719MOL0     C96985  11.127   5.557  11.539 -0.1151  0.7419  0.0474
  719MOL0     C96986  11.042   5.438  11.551 -0.9586  0.8309 -0.2732
  719MOL0     C96987  10.902   5.449  11.558  0.3455 -0.0221 -0.3606
  719MOL0     C96988  10.839   5.575  11.558  0.0398  0.9237 -0.6896
  719MOL0     O96989  10.702   5.584  11.556 -0.6942 -0.1812  0.2831
  719MOL0     C96990  10.601   5.485  11.544  0.1560  1.0869  0.8922
  719MOL0     C96991  10.573   5.441  11.402 -0.2561 -0.2263 -0.2170
  719MOL0     C96992  10.491   5.552  11.316 -0.4440 -0.2999 -1.3424
  719MOL0     C96993  10.579   5.663  11.264 -0.0329  0.1213  0.7961
  719MOL0     C96994  10.704   5.626  11.204  0.0919 -0.1794 -0.9523
  719MOL0     C96995  10.824   5.624  11.180 -0.1090  1.0649 -0.2093
  719MOL0     C96996  10.920   5.689  11.546 -0.2071  0.7226  0.1076
  719MOL0     C96997  11.068   5.682  11.526 -0.5141 -0.4073 -1.7219
  719MOL0     H96998  11.518   5.763  11.697 -2.9642 -6.0984  5.4790
  719MOL0     H96999  11.786   5.755  11.663  0.5216 -0.5525  0.2665
  719MOL0     H97000  12.009   5.496  11.589  1.3193  1.0150  0.9390
  719MOL0     H97001  11.929   5.433  11.438 -0.0986  1.6793 -1.0211
  719MOL0     H97002  12.159   5.440  11.390  3.1324  2.2284  1.2660
  719MOL0     H97003  12.101   5.575  11.297 -1.0053 -0.7916 -0.3403
  719MOL0     H97004  12.195   5.718  11.521  4.5238  1.4423  0.6735
  719MOL0     H97005  12.281   5.560  11.532 -0.5127 -1.9259 -1.0966
  719MOL0     H97006  12.305   5.606  11.275 -0.0635 -0.8067  1.3253
  719MOL0     H97007  12.280   5.776  11.308  3.1013  1.0454 -0.1904
  719MOL0     H97008  12.503   5.601  11.411  0.9212  1.4391  2.3070
  719MOL0     H97009  12.523   5.731  11.302  4.2027 -3.0615  1.4916
  719MOL0     H97010  12.452   5.897  11.458  1.5741  0.1663  0.1252
  719MOL0     H97011  12.397   5.781  11.581 -0.6078 -1.1301 -0.2492
  719MOL0     H97012  12.696   5.812  11.473 -2.4337  1.1193 -2.3810
  719MOL0     H97013  12.621   5.893  11.614  2.1104  0.6689 -0.9220
  719MOL0     H97014  12.737   5.715  11.712  3.2151 -3.4966 -1.3284
  719MOL0     H97015  12.701   5.598  11.577 -0.6095 -2.0328  0.9046
  719MOL0     H97016  12.455   5.793  11.825 -3.6516 -0.8789  0.7930
  719MOL0     H97017  12.204   5.539  11.965 -1.2871 -0.4923 -1.5375
  719MOL0     H97018  12.328   5.619  12.079 -2.4622  1.8081  0.7229
  719MOL0     H97019  12.304   5.818  11.952  0.1612 -1.2084 -1.0341
  719MOL0     H97020  12.158   5.775  12.047 -1.0492  2.1996 -0.0905
  719MOL0     H97021  12.049   5.706  11.815 -0.1515  0.0128 -2.2685
  719MOL0     H97022  12.197   5.778  11.741 -1.1034 -1.2238 -1.1916
  719MOL0     H97023  12.051   5.958  11.736 -1.7454  0.4461  0.3295
  719MOL0     H97024  12.150   5.981  11.882 -0.2172 -1.3067  0.5815
  719MOL0     H97025  11.945   6.129  11.772  0.1270  3.7595 -0.4662
  719MOL0     H97026  11.809   6.469  11.827  0.8092  0.5446 -2.0653
  719MOL0     H97027  11.966   6.412  11.779  0.4211 -0.2170  1.4031
  719MOL0     H97028  11.837   6.329  11.712  0.4270  0.7754 -0.0378
  719MOL0     H97029  11.658   6.664  12.226 -0.8508  0.7453  1.3140
  719MOL0     H97030  11.707   6.880  12.318  0.1712  1.0830 -1.5820
  719MOL0     H97031  11.969   7.035  12.295  1.6717 -3.2453  1.1405
  719MOL0     H97032  11.808   7.069  12.373 -0.5317 -1.3155 -1.8664
  719MOL0     H97033  11.981   7.258  12.369  1.9831 -0.7537 -1.6565
  719MOL0     H97034  11.946   7.218  12.540 -0.1121 -1.5067  0.0390
  719MOL0     H97035  12.162   7.080  12.546 -0.2890 -2.2233 -3.1068
  719MOL0     H97036  12.174   7.252  12.521 -0.4639  1.6532 -1.8175
  719MOL0     H97037  12.192   7.048  12.290  0.1170 -0.7867  1.0003
  719MOL0     H97038  12.217   7.230  12.286  0.1992  0.9324  1.0229
  719MOL0     H97039  12.361   7.042  12.470  1.8490  1.7248  3.2129
  719MOL0     H97040  12.389   7.222  12.424 -2.6448  0.9593  0.9806
  719MOL0     H97041  12.458   6.979  12.259 -1.3208 -0.3867 -0.7045
  719MOL0     H97042  12.480   7.148  12.214  0.2461  0.7162  0.9166
  719MOL0     H97043  12.690   7.078  12.305 -0.5142 -0.0979 -1.5351
  719MOL0     H97044  12.615   6.962  12.424  4.1244 -0.9207 -1.2175
  719MOL0     H97045  12.726   7.156  12.532  0.5200  1.8335 -1.0131
  719MOL0     H97046  12.557   7.165  12.564  0.0027  5.7106  1.0761
  719MOL0     H97047  12.054   6.731  12.512 -0.2436 -0.6087 -0.1784
  719MOL0     H97048  12.015   6.502  12.420  1.4971  1.5638  0.0923
  719MOL0     H97049  11.847   6.216  12.243  3.3397  1.3728  0.5951
  719MOL0     H97050  11.909   5.999  12.182 -2.8292  0.8373  1.3882
  719MOL0     H97051  11.723   5.464  11.355  2.1249  0.4618 -0.5359
  719MOL0     H97052  11.491   5.495  11.367 -3.4914  1.3565  1.1815
  719MOL0     H97053  11.093   5.342  11.546  2.4020  2.4576 -0.1306
  719MOL0     H97054  10.839   5.361  11.564  1.9785 -1.3914 -2.0092
  719MOL0     H97055  10.636   5.400  11.604 -1.7257  0.7373  1.5665
  719MOL0     H97056  10.513   5.517  11.602  0.0320  1.5738  0.4458
  719MOL0     H97057  10.509   5.355  11.423 -0.2442 -0.5600 -1.4742
  719MOL0     H97058  10.671   5.413  11.362 -0.4176  0.3436 -1.0371
  719MOL0     H97059  10.413   5.599  11.377 -0.3508 -1.8110  0.0015
  719MOL0     H97060  10.423   5.501  11.246 -2.9614 -0.5092  1.0679
  719MOL0     H97061  10.602   5.728  11.349  1.0838 -2.0456  2.2363
  719MOL0     H97062  10.522   5.712  11.184  0.2456  0.5325  0.8460
  719MOL0     H97063  10.931   5.631  11.171 -0.0132  0.7778  0.6245
  719MOL0     H97064  10.874   5.787  11.533 -1.5992 -0.3123 -4.2136
  719MOL0     H97065  11.118   5.778  11.529 -1.2577 -0.0234 -0.6725
  720MOL0     O97066   7.571   3.917   1.311 -0.3553  0.6893 -0.5159
  720MOL0     C97067   7.659   3.874   1.229  0.1614 -0.3186 -0.2507
  720MOL0     O97068   7.652   3.861   1.098 -0.4444 -0.3603 -0.2400
  720MOL0     C97069   7.538   3.890   1.040  0.2673  1.0560  0.2861
  720MOL0     C97070   7.506   4.017   0.983  0.4399  0.8678 -0.9921
  720MOL0     C97071   7.378   4.037   0.925  0.0370 -0.2206 -0.3541
  720MOL0     C97072   7.275   3.929   0.919 -0.2547  0.1367 -0.3403
  720MOL0     O97073   7.145   3.950   0.872 -0.1483  0.0865 -0.0840
  720MOL0     C97074   7.133   4.052   0.768 -0.4147 -0.6046  0.1678
  720MOL0     C97075   7.007   4.062   0.690  0.4335 -0.8016  0.4643
  720MOL0     C97076   6.880   4.090   0.780 -0.2116 -0.0036  0.4771
  720MOL0     C97077   6.763   4.144   0.696  0.1690 -0.5032 -0.3290
  720MOL0     C97078   6.627   4.144   0.758 -0.7743 -0.0775 -0.0444
  720MOL0     C97079   6.529   4.221   0.676  0.8134  0.2214 -0.0494
  720MOL0     C97080   6.390   4.245   0.739 -0.2416 -0.1026  0.2549
  720MOL0     C97081   6.292   4.308   0.645 -0.0533 -0.2497  0.6897
  720MOL0     N97082   6.323   4.450   0.617  0.7698 -1.0356 -0.8195
  720MOL0     C97083   6.258   4.572   0.632  0.0569  0.4996  0.1465
  720MOL0     C97084   6.326   4.661   0.559 -0.0139 -0.2594 -0.1104
  720MOL0     C97085   6.284   4.806   0.543  0.1824 -0.7034 -0.0703
  720MOL0     C97086   6.137   4.798   0.483  0.5977  0.8436  0.3942
  720MOL0     C97087   6.109   4.714   0.352 -0.1541  0.4533  0.2128
  720MOL0     C97088   6.214   4.728   0.242 -0.0488  0.3545  0.5667
  720MOL0     O97089   6.153   4.676   0.120  0.7312 -0.1000  0.2272
  720MOL0     C97090   6.193   4.553   0.076  0.1030 -0.3979  0.0749
  720MOL0     C97091   6.161   4.502  -0.049 -0.0401 -0.7795  0.5964
  720MOL0     C97092   6.187   4.376  -0.086 -0.1893 -0.3852 -0.1613
  720MOL0     C97093   6.139   4.345  -0.226  0.4050  0.3461  0.8067
  720MOL0     C97094   6.242   4.286   0.000 -0.7926  0.3191 -0.7374
  720MOL0     C97095   6.264   4.141  -0.031 -0.3542  0.6189  0.4955
  720MOL0     O97096   6.249   4.094  -0.157 -0.1826 -0.0475  0.4461
  720MOL0     C97097   6.325   3.986  -0.188  0.1915  0.0881 -0.0573
  720MOL0     C97098   6.264   3.879  -0.238  0.0573  0.1321 -0.5440
  720MOL0     C97099   6.328   3.754  -0.265 -0.6038 -0.2398 -0.0849
  720MOL0     C97100   6.470   3.735  -0.247 -0.1531 -0.1744  0.0385
  720MOL0     O97101   6.544   3.622  -0.291 -0.0631  0.0375  0.1865
  720MOL0     C97102   6.638   3.559  -0.200  0.1855  0.5933 -0.6697
  720MOL0     C97103   6.578   3.535  -0.057 -0.1411 -0.2596 -0.2848
  720MOL0     C97104   6.684   3.524   0.058  1.2926  0.0979  0.9103
  720MOL0     C97105   6.755   3.390   0.050  0.5055 -1.1227  0.5602
  720MOL0     C97106   6.856   3.391   0.160  0.7761 -0.2116 -0.6285
  720MOL0     C97107   6.933   3.259   0.141 -0.0748 -0.5297 -0.1544
  720MOL0     C97108   7.078   3.272   0.112  1.6378  0.2153 -0.5557
  720MOL0     C97109   7.145   3.141   0.121  0.5649  0.6915  0.1925
  720MOL0    Cl97110   7.101   3.033   0.266 -0.2664 -0.0580 -0.1204
  720MOL0     C97111   6.533   3.852  -0.203 -0.2236 -0.7266  0.4578
  720MOL0     C97112   6.462   3.973  -0.175 -0.7709  0.7467  0.1199
  720MOL0     O97113   6.313   4.074   0.064 -0.5465 -0.0782  0.1082
  720MOL0     C97114   6.244   4.325   0.138  0.1392  1.3431  0.1897
  720MOL0     C97115   6.230   4.458   0.172 -0.2531  0.5247 -0.1982
  720MOL0     N97116   6.445   4.602   0.511  0.2053  0.0300 -0.2035
  720MOL0     N97117   6.430   4.476   0.535 -0.1003 -0.1238 -0.8217
  720MOL0     C97118   7.318   3.804   0.962 -0.3758  0.5423 -0.5727
  720MOL0     C97119   7.443   3.790   1.026  0.1624 -0.0909  0.2835
  720MOL0     C97120   7.799   3.879   1.291 -1.0566 -0.5357 -0.3649
  720MOL0     C97121   7.840   3.926   1.415 -0.6884  0.1489 -0.2589
  720MOL0     C97122   7.963   3.900   1.479  0.3214 -0.2857  0.1507
  720MOL0     C97123   8.066   3.846   1.398  0.0365  0.9894  0.4352
  720MOL0     O97124   8.179   3.839   1.464 -0.8923  0.7600 -0.1355
  720MOL0     C97125   8.302   3.803   1.391 -0.4852  0.1897  0.8590
  720MOL0     C97126   8.393   3.720   1.486  0.1919 -0.4512 -0.2605
  720MOL0     C97127   8.351   3.575   1.497 -1.0163 -0.2866 -0.7015
  720MOL0     C97128   8.448   3.493   1.583 -0.7359  0.1707 -0.5188
  720MOL0     C97129   8.585   3.477   1.528 -0.4543  0.5704 -0.9206
  720MOL0     C97130   8.703   3.460   1.488  0.6383  0.6944  0.1665
  720MOL0     C97131   8.037   3.807   1.273 -0.4841 -0.6086 -0.0768
  720MOL0     C97132   7.906   3.818   1.221  1.0162  0.1228  0.2684
  720MOL0     H97133   7.578   4.095   0.962  0.5022  0.7372 -1.2758
  720MOL0     H97134   7.353   4.141   0.906  0.8734  0.3987  1.6296
  720MOL0     H97135   7.145   4.148   0.818 -1.4755  0.8657 -2.2200
  720MOL0     H97136   7.222   4.053   0.705  0.6234  0.3396  1.5918
  720MOL0     H97137   7.010   4.152   0.627  2.0249 -0.6961  0.6516
  720MOL0     H97138   6.991   3.979   0.620 -0.7587 -1.5130  1.5325
  720MOL0     H97139   6.855   3.995   0.828 -2.0744 -0.2162 -0.8393
  720MOL0     H97140   6.899   4.172   0.851 -0.7025  1.0298 -0.5445
  720MOL0     H97141   6.788   4.246   0.665 -0.9837 -0.7290 -2.1450
  720MOL0     H97142   6.769   4.089   0.601 -1.8101  1.0028 -1.4108
  720MOL0     H97143   6.590   4.041   0.765  0.1762 -0.5740 -1.7445
  720MOL0     H97144   6.632   4.183   0.860 -0.3531 -0.7816  0.2071
  720MOL0     H97145   6.586   4.314   0.666 -0.0122  0.7626  0.1288
  720MOL0     H97146   6.519   4.173   0.579  2.6076 -1.7135  0.6609
  720MOL0     H97147   6.370   4.145   0.779  4.8129 -1.8678 -0.9795
  720MOL0     H97148   6.393   4.324   0.814 -4.5620  1.1627 -0.5950
  720MOL0     H97149   6.192   4.307   0.691 -0.4108 -1.0310 -0.0720
  720MOL0     H97150   6.288   4.270   0.542 -0.1619  4.4638 -1.2908
  720MOL0     H97151   6.160   4.587   0.675 -0.6946  1.1353 -1.6915
  720MOL0     H97152   6.285   4.865   0.635 -0.1658  1.3438 -1.3058
  720MOL0     H97153   6.350   4.857   0.472  0.6055  0.0512  0.8308
  720MOL0     H97154   6.100   4.900   0.464 -1.0398 -0.0720 -1.7765
  720MOL0     H97155   6.075   4.756   0.563  1.5808  2.0105  1.8269
  720MOL0     H97156   6.022   4.762   0.306  0.2119 -0.6309 -1.7251
  720MOL0     H97157   6.087   4.607   0.364  2.1858  0.0777  1.8389
  720MOL0     H97158   6.305   4.681   0.278  0.2456  1.6968  1.6587
  720MOL0     H97159   6.238   4.832   0.216 -0.5025  0.2799 -0.2084
  720MOL0     H97160   6.119   4.574  -0.119  2.7691  1.2396  0.8413
  720MOL0     H97161   6.215   4.297  -0.289 -0.9703  1.2299 -1.6561
  720MOL0     H97162   6.061   4.269  -0.214 -2.0651  3.0339  3.0237
  720MOL0     H97163   6.088   4.425  -0.280 -1.2557 -0.9984  0.2742
  720MOL0     H97164   6.159   3.892  -0.261 -0.4776 -0.0046  1.6517
  720MOL0     H97165   6.267   3.677  -0.311  1.2726  0.0451 -3.3532
  720MOL0     H97166   6.683   3.469  -0.244 -1.5314 -1.1747  1.0085
  720MOL0     H97167   6.713   3.638  -0.190 -0.2807  1.2239 -1.9238
  720MOL0     H97168   6.509   3.614  -0.026  1.8707  1.0431  1.0994
  720MOL0     H97169   6.518   3.445  -0.072 -0.3584  0.1499 -2.0867
  720MOL0     H97170   6.627   3.519   0.151 -2.3558 -4.0537 -1.1679
  720MOL0     H97171   6.756   3.606   0.064  1.7340 -0.3533  1.8948
  720MOL0     H97172   6.681   3.310   0.065 -0.0571 -0.8792 -0.7621
  720MOL0     H97173   6.799   3.381  -0.050  0.4403 -2.4357  0.6407
  720MOL0     H97174   6.798   3.405   0.252  2.5168 -1.6248  0.7406
  720MOL0     H97175   6.926   3.475   0.148  3.1114 -1.9089  0.4285
  720MOL0     H97176   6.917   3.197   0.230 -0.6583  0.4739  0.4551
  720MOL0     H97177   6.887   3.205   0.057 -2.0387  1.5338 -0.4904
  720MOL0     H97178   7.111   3.346   0.186  1.8593 -2.3679  2.1066
  720MOL0     H97179   7.096   3.320   0.015  3.3522  0.0392 -0.3532
  720MOL0     H97180   7.253   3.160   0.121  1.0520 -1.6919  1.0807
  720MOL0     H97181   7.123   3.081   0.033  2.5088 -1.7550  1.2318
  720MOL0     H97182   6.640   3.843  -0.190 -0.1256  0.2780  0.4543
  720MOL0     H97183   6.525   4.055  -0.141  1.0243  0.2222 -1.7624
  720MOL0     H97184   6.276   4.253   0.214 -0.1557  0.8156 -0.1804
  720MOL0     H97185   6.236   4.491   0.275 -1.6781  2.2202 -0.5963
  720MOL0     H97186   7.258   3.716   0.942  0.7581 -0.3859 -0.0311
  720MOL0     H97187   7.486   3.697   1.061  1.9097  0.6953  0.2998
  720MOL0     H97188   7.763   3.967   1.480 -2.5259 -3.0773 -0.2000
  720MOL0     H97189   7.957   3.936   1.581 -3.6189  1.7831 -0.6054
  720MOL0     H97190   8.290   3.749   1.297 -1.0477  0.2755  0.8756
  720MOL0     H97191   8.355   3.898   1.375  1.1800 -0.0519  4.0684
  720MOL0     H97192   8.413   3.756   1.587 -1.8646 -2.6952  1.0459
  720MOL0     H97193   8.487   3.723   1.431  0.7330  1.4451  0.6858
  720MOL0     H97194   8.327   3.525   1.403 -0.4413 -2.1520  0.0921
  720MOL0     H97195   8.258   3.581   1.552  0.0981  0.8715  1.1506
  720MOL0     H97196   8.404   3.400   1.623 -0.0310 -0.6981 -1.7064
  720MOL0     H97197   8.467   3.550   1.674 -0.4853 -0.6756 -0.0235
  720MOL0     H97198   8.793   3.425   1.443 -0.3352 -3.5741  1.0282
  720MOL0     H97199   8.117   3.772   1.209 -1.1445 -0.0900 -1.2116
  720MOL0     H97200   7.903   3.786   1.118 -2.9040 -2.1630  0.8957
  721MOL0     O97201   3.032  11.539   8.227 -0.6795  0.5275 -0.4338
  721MOL0     C97202   3.076  11.476   8.134  0.4825 -0.4172  0.5228
  721MOL0     O97203   3.186  11.394   8.147  0.7868 -0.0020  0.0637
  721MOL0     C97204   3.219  11.350   8.267  0.3058  0.2369  0.4390
  721MOL0     C97205   3.200  11.211   8.315 -0.0965 -1.2654  0.7461
  721MOL0     C97206   3.250  11.163   8.435 -0.4455 -0.1683 -0.9769
  721MOL0     C97207   3.318  11.252   8.526  0.6666  0.0391  0.4870
  721MOL0     O97208   3.378  11.211   8.643 -0.3345 -0.3957  0.1856
  721MOL0     C97209   3.371  11.072   8.679  0.9132 -0.2514 -0.0364
  721MOL0     C97210   3.431  11.044   8.829  0.1843  0.9030  0.8697
  721MOL0     C97211   3.480  10.905   8.858 -0.2881 -0.4652  0.3781
  721MOL0     C97212   3.537  10.902   9.005 -0.5753 -0.0439 -0.4115
  721MOL0     C97213   3.698  10.908   9.019  0.3713  0.3934  0.5005
  721MOL0     C97214   3.760  11.036   8.957 -0.1137 -0.2537 -0.0403
  721MOL0     C97215   3.900  11.050   8.998 -0.4271 -0.5313  1.1509
  721MOL0     C97216   3.983  11.162   8.921  0.2226  0.2031 -1.2191
  721MOL0     N97217   4.112  11.179   8.991 -0.3507 -0.1754 -0.1279
  721MOL0     C97218   4.149  11.292   9.059  0.0680  0.0349 -0.2554
  721MOL0     C97219   4.277  11.263   9.099 -0.1096  0.4222 -0.2881
  721MOL0     C97220   4.365  11.360   9.174 -0.1861 -0.2035 -0.5776
  721MOL0     C97221   4.500  11.287   9.223  1.0839 -0.2865 -0.3911
  721MOL0     C97222   4.478  11.202   9.348  0.6315  0.1672 -0.6577
  721MOL0     C97223   4.614  11.150   9.394  1.3247 -0.2175  0.6716
  721MOL0     O97224   4.679  11.258   9.462 -0.5438  0.8872  0.2648
  721MOL0     C97225   4.780  11.215   9.544 -0.2113 -0.7912  0.4997
  721MOL0     C97226   4.807  11.292   9.659  0.1296 -0.2363  0.2160
  721MOL0     C97227   4.864  11.238   9.770  0.6085  0.6170  0.5682
  721MOL0     C97228   4.849  11.315   9.904  1.0862  0.1697  0.2351
  721MOL0     C97229   4.941  11.112   9.753  1.2288  0.4321  0.3739
  721MOL0     C97230   5.019  11.041   9.869 -0.7942 -0.6118 -0.1145
  721MOL0     O97231   4.982  11.064   9.997  0.4489 -0.7040  0.3554
  721MOL0     C97232   4.915  10.962  10.062 -0.1257  0.4316 -0.1508
  721MOL0     C97233   4.909  10.970  10.202  0.0754  0.7545 -0.8555
  721MOL0     C97234   4.836  10.879  10.280  0.3912 -0.5616  0.1864
  721MOL0     C97235   4.746  10.788  10.219  0.5629  0.2680  0.0581
  721MOL0     O97236   4.646  10.723  10.295  0.6817  0.6051 -0.5557
  721MOL0     C97237   4.559  10.806  10.385 -0.5998  0.1966  0.3011
  721MOL0     C97238   4.416  10.782  10.346 -0.2095 -0.8648  0.5380
  721MOL0     C97239   4.361  10.647  10.385 -0.3276 -0.9660  0.5594
  721MOL0     C97240   4.216  10.658  10.419 -0.0822  0.8700 -0.3089
  721MOL0     C97241   4.153  10.528  10.473 -0.1267  0.0360 -0.7643
  721MOL0     C97242   4.162  10.509  10.625 -0.4228 -0.0995 -0.2139
  721MOL0     C97243   4.109  10.387  10.678 -0.4615  0.8564  0.0682
  721MOL0     C97244   4.114  10.388  10.831 -0.1381  0.7651 -0.3541
  721MOL0    Cl97245   4.284  10.394  10.876  0.4171 -0.4930  0.0580
  721MOL0     C97246   4.756  10.772  10.087 -0.5837  0.2314 -0.1363
  721MOL0     C97247   4.847  10.855  10.005  0.4432 -0.5583  0.2000
  721MOL0     O97248   5.097  10.952   9.835  0.2032  0.4770  0.9071
  721MOL0     C97249   4.933  11.050   9.624 -0.3267  0.1113  0.4409
  721MOL0     C97250   4.848  11.092   9.525  0.8952  0.0101 -0.0942
  721MOL0     N97251   4.306  11.128   9.066  0.1709 -0.1122  0.1537
  721MOL0     N97252   4.210  11.086   9.000 -0.1954  0.3701 -0.1635
  721MOL0     C97253   3.332  11.388   8.482  0.6205  0.3454 -0.4502
  721MOL0     C97254   3.284  11.436   8.357  0.7936 -0.0094 -0.8395
  721MOL0     C97255   3.014  11.488   7.999  0.8356 -0.3441 -0.3497
  721MOL0     C97256   2.984  11.612   7.946 -0.9080  0.3002 -0.2010
  721MOL0     C97257   2.933  11.626   7.817 -0.2392 -0.3615 -0.1608
  721MOL0     C97258   2.932  11.511   7.731  0.4607  0.7854 -0.6169
  721MOL0     O97259   2.899  11.515   7.602 -0.7040  0.4231 -0.1160
  721MOL0     C97260   2.886  11.630   7.520 -0.2130 -0.5378  0.8891
  721MOL0     C97261   3.020  11.679   7.476  0.3920  0.5051 -1.6442
  721MOL0     C97262   3.058  11.594   7.344 -0.1552 -0.3151 -0.0806
  721MOL0     C97263   3.091  11.449   7.357 -0.5843  0.6524 -0.1235
  721MOL0     C97264   3.226  11.439   7.416  0.0436 -0.1590 -0.4127
  721MOL0     C97265   3.337  11.416   7.474  0.4296 -1.0058  0.7618
  721MOL0     C97266   2.959  11.381   7.775 -0.2007  0.0983  0.6675
  721MOL0     C97267   2.989  11.374   7.912  0.5822 -0.3425  0.6156
  721MOL0     H97268   3.144  11.144   8.250 -2.5639 -1.0745  2.5461
  721MOL0     H97269   3.234  11.058   8.458 -3.0469 -0.1323 -2.3023
  721MOL0     H97270   3.273  11.023   8.674  0.6093  0.3228  0.2312
  721MOL0     H97271   3.437  11.024   8.607  1.1862 -1.4139  0.9502
  721MOL0     H97272   3.508  11.121   8.834  0.4346  0.7579 -0.4000
  721MOL0     H97273   3.354  11.067   8.902 -1.2957 -3.3753  0.9409
  721MOL0     H97274   3.397  10.834   8.851  0.9602 -1.9054 -0.3436
  721MOL0     H97275   3.555  10.871   8.786 -2.7223 -0.4784 -2.3217
  721MOL0     H97276   3.496  10.990   9.055 -1.4151 -0.4362 -0.3958
  721MOL0     H97277   3.503  10.814   9.060 -0.4391 -1.0526 -1.8922
  721MOL0     H97278   3.702  10.898   9.128 -2.0165 -2.3235  0.4830
  721MOL0     H97279   3.746  10.823   8.970  1.7847  1.3464  0.1978
  721MOL0     H97280   3.753  11.037   8.848  3.1668  2.1386 -0.3608
  721MOL0     H97281   3.717  11.127   8.999  2.2205  0.7971  0.2129
  721MOL0     H97282   3.912  11.075   9.104 -1.6665  0.4876  1.0877
  721MOL0     H97283   3.952  10.958   8.971 -0.7385 -0.6304  0.8840
  721MOL0     H97284   3.935  11.259   8.906 -1.0648 -0.5662 -2.3050
  721MOL0     H97285   3.987  11.134   8.815 -2.9974  0.4196 -1.5031
  721MOL0     H97286   4.105  11.391   9.059  1.2999  0.6161  1.2291
  721MOL0     H97287   4.392  11.446   9.112  1.7764  1.7884  2.7564
  721MOL0     H97288   4.317  11.394   9.267  0.3558  1.6096 -0.9283
  721MOL0     H97289   4.570  11.368   9.244  1.4467 -1.4879  3.9230
  721MOL0     H97290   4.528  11.228   9.135 -2.9515 -0.0578 -2.0272
  721MOL0     H97291   4.409  11.119   9.330 -1.8950  1.8149  0.7731
  721MOL0     H97292   4.440  11.269   9.426 -1.1020 -1.3311 -0.1407
  721MOL0     H97293   4.678  11.107   9.316 -1.1062  0.8414 -2.0592
  721MOL0     H97294   4.599  11.071   9.468  2.8758  1.3524  2.8061
  721MOL0     H97295   4.764  11.391   9.669  2.2546  0.6314  1.3195
  721MOL0     H97296   4.758  11.280   9.954  0.2350 -1.2332 -2.1406
  721MOL0     H97297   4.932  11.298   9.972 -0.4026 -0.6679  1.9370
  721MOL0     H97298   4.827  11.422   9.898 -2.7676 -0.5396 -3.1815
  721MOL0     H97299   4.983  11.037  10.244  0.1060  1.3269 -1.8172
  721MOL0     H97300   4.842  10.880  10.388  1.0830 -0.8926  0.1589
  721MOL0     H97301   4.582  10.769  10.485 -0.1334 -1.2614 -0.3133
  721MOL0     H97302   4.596  10.908  10.367  0.0446 -0.2396 -1.0148
  721MOL0     H97303   4.362  10.868  10.386  1.4193  1.1919 -1.3883
  721MOL0     H97304   4.393  10.794  10.240 -1.0663  0.5589  0.8557
  721MOL0     H97305   4.419  10.608  10.469  0.4041  0.7796  0.9112
  721MOL0     H97306   4.377  10.583  10.298  2.7536 -0.1143  0.3655
  721MOL0     H97307   4.207  10.733  10.499 -1.0606  0.9192 -0.4507
  721MOL0     H97308   4.157  10.684  10.330 -1.5460 -1.1501  0.0098
  721MOL0     H97309   4.194  10.440  10.424 -3.0005 -0.8545 -1.7767
  721MOL0     H97310   4.044  10.526  10.462 -0.0874 -1.5611 -1.0419
  721MOL0     H97311   4.267  10.513  10.657 -0.9821  0.6968  1.6367
  721MOL0     H97312   4.101  10.580  10.681 -1.0527 -2.7096  2.6666
  721MOL0     H97313   4.169  10.303  10.642 -0.2614  1.6154 -1.4290
  721MOL0     H97314   4.004  10.378  10.647 -0.5047 -3.1919  0.8177
  721MOL0     H97315   4.076  10.293  10.868 -2.6510  1.8205  0.0102
  721MOL0     H97316   4.055  10.473  10.868  0.0834  1.6748 -1.9999
  721MOL0     H97317   4.694  10.695  10.044 -0.6572  0.7352 -0.9428
  721MOL0     H97318   4.845  10.840   9.898 -0.8690 -0.6475  0.2231
  721MOL0     H97319   4.988  10.957   9.617 -0.7935 -0.0814 -1.0800
  721MOL0     H97320   4.842  11.034   9.433  3.3942 -2.5400  1.1908
  721MOL0     H97321   3.380  11.466   8.540 -3.0040  4.1581 -1.9757
  721MOL0     H97322   3.307  11.541   8.340  0.8738  0.0332 -0.4662
  721MOL0     H97323   2.998  11.698   8.011 -0.9063  1.2355 -1.3954
  721MOL0     H97324   2.899  11.722   7.779  0.2105  0.5086  1.5509
  721MOL0     H97325   2.816  11.606   7.440  2.8933 -1.7826 -1.6545
  721MOL0     H97326   2.844  11.709   7.583 -2.9856 -0.5017 -0.8434
  721MOL0     H97327   3.089  11.673   7.561 -1.0114  2.5785 -0.2415
  721MOL0     H97328   3.021  11.788   7.465  3.9667  1.5529  4.5189
  721MOL0     H97329   3.140  11.643   7.292 -0.1719  1.2698  1.3021
  721MOL0     H97330   2.975  11.602   7.273  0.7717  0.5175 -1.1087
  721MOL0     H97331   3.100  11.409   7.256  3.3441  0.2446  0.2201
  721MOL0     H97332   3.018  11.390   7.413 -2.1738  0.9090 -1.8060
  721MOL0     H97333   3.434  11.408   7.518  0.4674  0.3291  0.9801
  721MOL0     H97334   2.963  11.299   7.705 -0.6372  0.2725  0.4335
  721MOL0     H97335   3.020  11.274   7.940  1.0014 -0.4492 -0.1890
  722MOL0     O97336   2.163   3.536   0.247  0.0343  1.0019 -0.2514
  722MOL0     C97337   2.208   3.423   0.272  0.6402  0.7834  0.5574
  722MOL0     O97338   2.267   3.378   0.392  0.2429 -0.0632 -0.0242
  722MOL0     C97339   2.292   3.463   0.501  0.9581 -0.0953  0.5201
  722MOL0     C97340   2.305   3.420   0.633  0.7473 -0.0800  0.1078
  722MOL0     C97341   2.344   3.508   0.735 -0.1390  0.0270 -0.4328
  722MOL0     C97342   2.355   3.643   0.716  0.5667 -0.4996  0.8049
  722MOL0     O97343   2.374   3.733   0.817 -0.2925 -0.2030 -0.7434
  722MOL0     C97344   2.327   3.687   0.943 -0.0724  0.4336  0.5959
  722MOL0     C97345   2.296   3.799   1.036 -0.0574 -0.3989  0.2166
  722MOL0     C97346   2.164   3.783   1.119 -0.3702  1.0272  0.1400
  722MOL0     C97347   2.033   3.816   1.031 -0.2295  0.6348 -0.5389
  722MOL0     C97348   1.912   3.830   1.117  0.7102  0.4233 -0.0981
  722MOL0     C97349   1.771   3.852   1.041  0.5004 -0.7902  0.7457
  722MOL0     C97350   1.661   3.872   1.142  0.0568  0.5713  1.3221
  722MOL0     C97351   1.526   3.904   1.083 -0.2331  0.7150  0.6841
  722MOL0     N97352   1.532   4.040   1.034 -0.1301  0.5478 -0.0435
  722MOL0     C97353   1.514   4.144   1.118  0.7718 -1.1498  0.6893
  722MOL0     C97354   1.530   4.246   1.024 -0.4361  0.0581  1.0865
  722MOL0     C97355   1.544   4.389   1.079  0.3848  0.7178 -0.4439
  722MOL0     C97356   1.445   4.495   1.031  0.4096 -0.3899 -0.4306
  722MOL0     C97357   1.311   4.463   1.098 -0.3159  0.6582 -0.2001
  722MOL0     C97358   1.322   4.434   1.247  0.6474 -0.7298  0.4696
  722MOL0     O97359   1.390   4.539   1.319  0.4993 -0.3250  0.7356
  722MOL0     C97360   1.452   4.509   1.437  0.1135  0.0747  1.2803
  722MOL0     C97361   1.564   4.584   1.468 -0.6451  0.7394  0.2142
  722MOL0     C97362   1.646   4.549   1.575  0.5128  0.2831  0.0261
  722MOL0     C97363   1.779   4.630   1.587  1.2277  0.3756 -0.7391
  722MOL0     C97364   1.598   4.458   1.681 -1.2990 -0.1501  1.0740
  722MOL0     C97365   1.664   4.427   1.817  0.0582 -0.4599 -0.1944
  722MOL0     O97366   1.591   4.358   1.905  0.4236  0.2706 -0.3538
  722MOL0     C97367   1.656   4.283   1.998  0.9387 -0.0996 -0.5920
  722MOL0     C97368   1.685   4.151   1.972 -0.1254 -0.9385 -0.1204
  722MOL0     C97369   1.766   4.075   2.062 -0.0976  0.4677  0.2963
  722MOL0     C97370   1.808   4.129   2.185 -0.7179 -0.3763 -0.1656
  722MOL0     O97371   1.882   4.049   2.264 -0.4703  0.2421 -0.4164
  722MOL0     C97372   1.895   4.088   2.403  0.6610 -0.4868  0.4024
  722MOL0     C97373   1.935   3.959   2.479 -0.0285  0.2640  0.6991
  722MOL0     C97374   1.895   3.958   2.622 -0.0630 -0.0924 -0.2278
  722MOL0     C97375   1.975   4.045   2.719  0.5841 -0.2251  0.4716
  722MOL0     C97376   1.893   4.086   2.836 -0.1015  0.5486  0.6162
  722MOL0     C97377   1.863   3.971   2.939 -0.2258 -1.2317 -0.2653
  722MOL0     C97378   1.761   4.020   3.044 -0.2351 -0.2778  1.1677
  722MOL0     C97379   1.703   3.915   3.130  0.6675 -0.2052 -0.3552
  722MOL0    Cl97380   1.820   3.780   3.169 -0.0689 -0.4918  0.0159
  722MOL0     C97381   1.774   4.274   2.213  0.1159  0.8702 -0.2756
  722MOL0     C97382   1.708   4.351   2.114  0.2294  0.8108 -0.6075
  722MOL0     O97383   1.778   4.469   1.843 -0.2358 -0.4212  0.3275
  722MOL0     C97384   1.475   4.393   1.650  0.0242 -0.5014  0.4289
  722MOL0     C97385   1.408   4.414   1.523 -0.1180 -0.0544  0.0519
  722MOL0     N97386   1.541   4.196   0.897 -0.7747  0.4928  0.5502
  722MOL0     N97387   1.540   4.068   0.903  0.2002 -0.7244  0.8627
  722MOL0     C97388   2.360   3.692   0.581 -0.5901  0.4558 -0.1508
  722MOL0     C97389   2.329   3.599   0.474  0.8204 -0.2151 -0.1789
  722MOL0     C97390   2.219   3.320   0.156 -0.1419 -0.2050  0.2131
  722MOL0     C97391   2.153   3.344   0.039 -0.4611  0.6084  1.0379
  722MOL0     C97392   2.175   3.259  -0.068  1.3720  0.4257 -0.8613
  722MOL0     C97393   2.238   3.137  -0.050 -0.7035 -1.1294  0.3681
  722MOL0     O97394   2.239   3.045  -0.156  0.7251 -0.2953 -0.2952
  722MOL0     C97395   2.104   3.013  -0.220  0.4711 -0.0191 -0.8884
  722MOL0     C97396   1.995   2.965  -0.112 -0.8239 -0.0586  0.0326
  722MOL0     C97397   1.856   2.953  -0.176 -0.5100  0.4393  0.5551
  722MOL0     C97398   1.808   3.090  -0.224  0.4553 -0.3527  0.3359
  722MOL0     C97399   1.665   3.094  -0.211 -0.6651  1.4228  0.6970
  722MOL0     C97400   1.547   3.104  -0.182  0.3800  0.3332 -0.4879
  722MOL0     C97401   2.311   3.117   0.066 -0.4882  0.8195 -0.5008
  722MOL0     C97402   2.299   3.203   0.172 -0.9630 -0.6885  0.4866
  722MOL0     H97403   2.303   3.314   0.657  0.9651 -0.0274  0.3597
  722MOL0     H97404   2.378   3.478   0.834  1.3022  3.4256  0.2416
  722MOL0     H97405   2.239   3.623   0.941 -1.3366  2.0254  2.3628
  722MOL0     H97406   2.408   3.635   0.996 -0.6184 -1.0251  0.0686
  722MOL0     H97407   2.375   3.818   1.109 -0.7489  1.7625  0.4911
  722MOL0     H97408   2.279   3.897   0.990  0.9048  1.2137  3.0250
  722MOL0     H97409   2.166   3.679   1.153  3.4010  1.0817  0.4656
  722MOL0     H97410   2.164   3.851   1.204 -2.0210  0.4716  0.6292
  722MOL0     H97411   2.060   3.913   0.987  2.4148 -0.3883 -1.3715
  722MOL0     H97412   2.015   3.750   0.946  1.2456 -2.6338  1.5077
  722MOL0     H97413   1.902   3.742   1.182 -0.8059  0.9356  0.4053
  722MOL0     H97414   1.930   3.917   1.180 -0.9200 -0.2071  1.3199
  722MOL0     H97415   1.808   3.936   0.982  0.6244  0.6201  2.7020
  722MOL0     H97416   1.747   3.775   0.967  2.9408  1.1127 -2.2585
  722MOL0     H97417   1.660   3.785   1.209  2.6142 -1.0542 -0.5934
  722MOL0     H97418   1.693   3.962   1.195 -0.0731  2.0430 -0.9992
  722MOL0     H97419   1.459   3.885   1.167  0.1691  0.9739  1.0654
  722MOL0     H97420   1.499   3.844   0.996 -1.0122  1.9252  0.0595
  722MOL0     H97421   1.520   4.138   1.226 -0.1078 -1.0662  0.7493
  722MOL0     H97422   1.568   4.380   1.185 -1.8150  0.5159  0.0866
  722MOL0     H97423   1.633   4.433   1.032  0.6825  0.4812 -0.1052
  722MOL0     H97424   1.446   4.502   0.922  1.3192  0.7216 -0.3584
  722MOL0     H97425   1.481   4.583   1.085 -1.5924 -0.3895  1.0357
  722MOL0     H97426   1.272   4.367   1.063 -0.8463  0.3945  1.0514
  722MOL0     H97427   1.241   4.544   1.073  1.1515  1.7030 -1.0683
  722MOL0     H97428   1.360   4.332   1.251 -0.6250 -1.1775  1.4362
  722MOL0     H97429   1.221   4.442   1.287  0.7299 -1.2023  0.7759
  722MOL0     H97430   1.601   4.655   1.395  0.0894 -2.0754 -2.3841
  722MOL0     H97431   1.796   4.673   1.488  0.0583 -0.8866 -1.5250
  722MOL0     H97432   1.760   4.703   1.666  1.1942  1.3997 -1.6621
  722MOL0     H97433   1.873   4.583   1.618  1.9257  2.6230  0.8846
  722MOL0     H97434   1.639   4.097   1.890 -0.9293 -0.6600  0.1372
  722MOL0     H97435   1.781   3.968   2.049 -0.6632  0.6736 -2.5848
  722MOL0     H97436   1.969   4.168   2.408  1.5962 -1.3921  2.3388
  722MOL0     H97437   1.813   4.141   2.451  1.6095  2.0404 -0.6369
  722MOL0     H97438   1.886   3.870   2.440  0.9227  0.6991 -1.6706
  722MOL0     H97439   2.042   3.952   2.456 -0.3832  1.5183 -1.7145
  722MOL0     H97440   1.893   3.857   2.663  0.6908 -0.8482 -1.9716
  722MOL0     H97441   1.793   3.998   2.619 -0.4201 -0.8749  0.7883
  722MOL0     H97442   2.070   3.998   2.747  1.5455 -1.3966 -3.9061
  722MOL0     H97443   1.999   4.139   2.669 -1.9712  0.7827  1.0031
  722MOL0     H97444   1.800   4.139   2.811  0.1787 -0.6428 -3.8108
  722MOL0     H97445   1.965   4.157   2.878  0.8716 -0.4689  0.6978
  722MOL0     H97446   1.813   3.895   2.878 -0.6986 -1.4421  0.3666
  722MOL0     H97447   1.952   3.930   2.989 -1.1547 -1.7150  1.0638
  722MOL0     H97448   1.678   4.060   2.984  2.1706 -0.2737 -2.4532
  722MOL0     H97449   1.809   4.097   3.105  0.4547 -0.1888  0.5271
  722MOL0     H97450   1.605   3.878   3.098 -0.3388  2.6320 -0.8355
  722MOL0     H97451   1.694   3.959   3.230  1.4020 -0.5235 -0.1443
  722MOL0     H97452   1.783   4.322   2.310 -0.3084 -0.4911  0.4701
  722MOL0     H97453   1.688   4.452   2.149  0.1764  0.4731  0.3513
  722MOL0     H97454   1.419   4.329   1.716  0.5868 -0.8550  0.5753
  722MOL0     H97455   1.322   4.350   1.508  1.6371 -2.3914 -0.5837
  722MOL0     H97456   2.375   3.799   0.572 -1.3440  0.4077 -2.5223
  722MOL0     H97457   2.338   3.642   0.375 -0.0069  1.6508  0.5079
  722MOL0     H97458   2.088   3.428   0.017 -0.8408 -0.3367 -1.8670
  722MOL0     H97459   2.123   3.290  -0.158  0.9953  0.5924 -0.5873
  722MOL0     H97460   2.071   3.098  -0.279  2.6282  1.4960 -0.0471
  722MOL0     H97461   2.125   2.935  -0.294  0.6733 -0.0447 -0.8055
  722MOL0     H97462   1.977   3.025  -0.022  0.5933  0.3004  0.1063
  722MOL0     H97463   2.037   2.867  -0.088 -3.0862 -0.7766  1.3292
  722MOL0     H97464   1.793   2.916  -0.094  0.0608 -0.0900  0.7589
  722MOL0     H97465   1.873   2.885  -0.259 -3.3107  1.7589 -1.2557
  722MOL0     H97466   1.846   3.118  -0.323  1.5717  0.7401  1.0315
  722MOL0     H97467   1.858   3.161  -0.157  3.2587  0.6354 -2.5586
  722MOL0     H97468   1.441   3.105  -0.171  0.3190  4.9032  0.2334
  722MOL0     H97469   2.370   3.026   0.063  1.3390  1.7234  2.8506
  722MOL0     H97470   2.357   3.175   0.259  1.1854 -0.5903 -0.8489
  723MOL0     O97471   7.147   2.367   8.877 -0.2831  0.0172  0.4664
  723MOL0     C97472   7.059   2.424   8.827  0.7383  0.2691 -0.0087
  723MOL0     O97473   6.922   2.396   8.817 -0.8798  0.4627  0.5177
  723MOL0     C97474   6.878   2.263   8.854  0.4767 -1.1179  0.5706
  723MOL0     C97475   6.758   2.258   8.913  0.3595 -1.0873  0.2545
  723MOL0     C97476   6.697   2.130   8.942 -0.0777 -1.4213  0.5317
  723MOL0     C97477   6.766   2.018   8.909 -0.0881 -0.0059  1.4064
  723MOL0     O97478   6.691   1.898   8.924  0.2771  0.4684  0.5575
  723MOL0     C97479   6.619   1.855   8.808  0.6225  0.1866 -0.1995
  723MOL0     C97480   6.473   1.900   8.821 -0.8358 -0.1051 -1.1310
  723MOL0     C97481   6.417   1.810   8.932 -0.4271  0.1032  1.1333
  723MOL0     C97482   6.289   1.856   9.005 -0.4733 -0.1448 -0.3738
  723MOL0     C97483   6.215   1.753   9.080 -0.1189 -0.2131 -0.7739
  723MOL0     C97484   6.162   1.790   9.219 -0.0254 -0.6336  0.6284
  723MOL0     C97485   6.108   1.927   9.254  0.2089 -0.0612 -0.1703
  723MOL0     C97486   6.000   1.973   9.155 -0.1164 -0.2772 -0.0151
  723MOL0     N97487   5.878   1.894   9.153 -0.7512  0.6444  0.6235
  723MOL0     C97488   5.813   1.849   9.259  0.1500  0.0691 -0.4025
  723MOL0     C97489   5.732   1.754   9.206  0.5025 -0.4997  0.2738
  723MOL0     C97490   5.629   1.653   9.271 -0.9160 -1.0306  0.8753
  723MOL0     C97491   5.707   1.542   9.347  0.4259  0.3296  0.8554
  723MOL0     C97492   5.724   1.416   9.261  1.3513 -0.6065 -0.2102
  723MOL0     C97493   5.762   1.298   9.350 -0.0377  0.5148  1.1512
  723MOL0     O97494   5.881   1.333   9.429 -0.0536 -0.4163 -0.2406
  723MOL0     C97495   6.012   1.311   9.392  0.8288 -0.0270  0.0326
  723MOL0     C97496   6.095   1.403   9.447  0.1539  0.3473 -0.4686
  723MOL0     C97497   6.233   1.419   9.418  0.0012  0.5067  0.7776
  723MOL0     C97498   6.304   1.545   9.457  0.8598  1.0813  0.3432
  723MOL0     C97499   6.274   1.335   9.309 -0.5436 -0.6903  0.1200
  723MOL0     C97500   6.420   1.344   9.259  0.2361 -0.5565  0.5792
  723MOL0     O97501   6.514   1.413   9.325  0.3801 -0.1086 -0.2228
  723MOL0     C97502   6.625   1.450   9.260 -0.2783 -0.0260 -0.5118
  723MOL0     C97503   6.624   1.501   9.129  1.1321 -0.6454 -0.5212
  723MOL0     C97504   6.733   1.536   9.062  1.1004 -0.3677 -0.1495
  723MOL0     C97505   6.856   1.540   9.124  0.1534 -0.4024  0.1274
  723MOL0     O97506   6.974   1.595   9.068  0.0379 -0.1896 -0.4173
  723MOL0     C97507   6.972   1.635   8.931  0.9340  0.2845 -0.4068
  723MOL0     C97508   7.109   1.689   8.892  0.6004 -0.7814 -1.1764
  723MOL0     C97509   7.213   1.591   8.925 -0.6311  0.0658  0.5527
  723MOL0     C97510   7.352   1.611   8.878 -0.6213 -0.8131 -0.0161
  723MOL0     C97511   7.412   1.740   8.944 -0.5325 -0.4845 -0.4055
  723MOL0     C97512   7.558   1.759   8.910 -0.0579 -0.8664 -0.0336
  723MOL0     C97513   7.601   1.899   8.977 -0.1971  0.3916 -0.3490
  723MOL0     C97514   7.750   1.926   8.962  0.9696  0.9527  0.4256
  723MOL0    Cl97515   7.810   1.924   8.789  0.0460 -0.1391 -0.1054
  723MOL0     C97516   6.865   1.503   9.261  0.0407 -0.5230  0.2481
  723MOL0     C97517   6.749   1.461   9.329  0.3666 -0.2387 -0.5282
  723MOL0     O97518   6.441   1.288   9.148  0.1653 -0.6014 -1.3631
  723MOL0     C97519   6.190   1.235   9.258 -0.6103  0.0521  0.0432
  723MOL0     C97520   6.060   1.225   9.294 -0.1684 -0.7164  0.5155
  723MOL0     N97521   5.745   1.747   9.069 -0.7300  0.8154 -0.0648
  723MOL0     N97522   5.827   1.836   9.040 -0.0853  0.2647 -0.1664
  723MOL0     C97523   6.886   2.020   8.844 -0.1251  0.3586 -0.4022
  723MOL0     C97524   6.938   2.149   8.811  0.4500 -0.1915  0.7029
  723MOL0     C97525   7.094   2.541   8.740  0.0397  0.1273 -0.5586
  723MOL0     C97526   7.007   2.657   8.736  0.8758 -0.0056  0.0407
  723MOL0     C97527   7.048   2.760   8.642 -0.4079 -0.1597  1.0010
  723MOL0     C97528   7.176   2.762   8.581 -0.0394  0.2151  0.1195
  723MOL0     O97529   7.218   2.880   8.529  0.3164 -0.1994  0.3819
  723MOL0     C97530   7.346   2.896   8.464  0.0316 -0.3354 -0.0890
  723MOL0     C97531   7.460   2.942   8.561 -0.6786 -0.4323 -0.0763
  723MOL0     C97532   7.590   2.968   8.485 -0.1204 -0.2077  0.7517
  723MOL0     C97533   7.697   3.060   8.552  1.1408 -0.9941 -0.4309
  723MOL0     C97534   7.733   3.006   8.690 -0.3557  0.5183  0.2740
  723MOL0     C97535   7.747   2.965   8.805 -0.3729 -0.2857  0.4979
  723MOL0     C97536   7.248   2.641   8.584  0.4016  0.2264  0.5255
  723MOL0     C97537   7.210   2.539   8.665 -0.2642  0.5603  0.4459
  723MOL0     H97538   6.707   2.353   8.930  1.6581 -0.6316  1.8491
  723MOL0     H97539   6.593   2.133   8.975  0.7976 -2.6236  3.7675
  723MOL0     H97540   6.667   1.892   8.716 -1.4381  1.7566 -0.7217
  723MOL0     H97541   6.623   1.747   8.788 -0.9885  0.2730 -1.1483
  723MOL0     H97542   6.480   2.002   8.860  3.1396 -1.5158  2.6720
  723MOL0     H97543   6.418   1.896   8.727  0.9643  3.8351 -2.5653
  723MOL0     H97544   6.400   1.719   8.874 -1.9635  2.2983 -2.1390
  723MOL0     H97545   6.484   1.804   9.018  1.4740  3.5631  0.0850
  723MOL0     H97546   6.312   1.936   9.077 -2.8578  0.2956 -0.0140
  723MOL0     H97547   6.222   1.906   8.935 -1.8399 -0.0301  0.9708
  723MOL0     H97548   6.136   1.712   9.017  0.0858  1.1641 -1.9741
  723MOL0     H97549   6.287   1.672   9.094  0.3711  0.3392  0.0251
  723MOL0     H97550   6.096   1.711   9.256  1.3000 -2.3399 -0.4696
  723MOL0     H97551   6.246   1.780   9.288 -1.3690 -3.7071  1.9994
  723MOL0     H97552   6.077   1.920   9.358  3.1321 -5.2444  0.6606
  723MOL0     H97553   6.192   1.997   9.252  0.3664 -0.2616 -1.7742
  723MOL0     H97554   6.046   1.988   9.057  1.5169  0.2865  0.7964
  723MOL0     H97555   5.969   2.076   9.176 -1.7328 -0.2230 -2.2854
  723MOL0     H97556   5.831   1.889   9.358  1.9249  0.1590 -0.7322
  723MOL0     H97557   5.575   1.718   9.340 -0.1402  0.1628  0.4011
  723MOL0     H97558   5.560   1.616   9.195 -0.1055  1.7161 -1.3700
  723MOL0     H97559   5.646   1.520   9.435 -4.1191  1.5578 -1.6708
  723MOL0     H97560   5.805   1.587   9.366  0.7826  1.2184 -2.4163
  723MOL0     H97561   5.795   1.448   9.185  2.3112  1.8438  1.5696
  723MOL0     H97562   5.630   1.380   9.217  0.8151 -1.8706  1.8338
  723MOL0     H97563   5.782   1.207   9.293 -2.7206 -0.9457  2.3761
  723MOL0     H97564   5.685   1.284   9.426 -1.6117  0.2538 -0.4369
  723MOL0     H97565   6.052   1.472   9.520 -2.0160  0.7965 -2.0914
  723MOL0     H97566   6.383   1.519   9.528  0.5716 -2.6804 -0.5051
  723MOL0     H97567   6.353   1.606   9.380  1.2613  1.9259  1.2479
  723MOL0     H97568   6.241   1.619   9.505 -3.4111  0.9727 -4.2707
  723MOL0     H97569   6.534   1.520   9.070 -0.3264 -3.7175  0.4916
  723MOL0     H97570   6.700   1.590   8.973 -2.2306 -2.2277 -0.2048
  723MOL0     H97571   6.955   1.542   8.875  2.2694 -1.6900  2.2431
  723MOL0     H97572   6.894   1.711   8.919  1.0493  0.6972  1.2115
  723MOL0     H97573   7.110   1.722   8.788  2.2285  2.0362 -0.3883
  723MOL0     H97574   7.132   1.779   8.951 -2.0848 -0.6389 -0.2154
  723MOL0     H97575   7.183   1.495   8.881 -0.8714 -0.3693  1.6310
  723MOL0     H97576   7.209   1.567   9.032 -2.9676  0.6666  0.6492
  723MOL0     H97577   7.417   1.525   8.894  0.0748 -0.2806  0.0617
  723MOL0     H97578   7.355   1.628   8.770  2.5700 -2.1501 -0.2331
  723MOL0     H97579   7.406   1.732   9.053  3.3823  0.2688  0.0014
  723MOL0     H97580   7.350   1.824   8.909 -2.4382 -0.1786  3.2779
  723MOL0     H97581   7.607   1.671   8.953 -3.0267 -2.4746  0.3421
  723MOL0     H97582   7.580   1.761   8.803 -0.2138 -0.9289 -0.0669
  723MOL0     H97583   7.589   1.887   9.085  0.0216  1.2555 -0.2287
  723MOL0     H97584   7.534   1.978   8.942  2.6090  2.0341 -2.4106
  723MOL0     H97585   7.793   1.837   9.009  2.1543  0.6701 -1.1243
  723MOL0     H97586   7.777   2.020   9.011  2.7827  0.2193  0.8808
  723MOL0     H97587   6.965   1.495   9.303  0.7462 -2.4110 -1.6059
  723MOL0     H97588   6.755   1.427   9.432  1.4799  1.0935 -0.1164
  723MOL0     H97589   6.231   1.162   9.189  1.4095  1.2520 -0.0985
  723MOL0     H97590   5.991   1.166   9.233 -2.5309 -0.9153  3.1585
  723MOL0     H97591   6.926   1.922   8.817  0.9046  0.0353  2.0129
  723MOL0     H97592   7.023   2.151   8.744  0.7521 -3.0044  0.8762
  723MOL0     H97593   6.909   2.654   8.782  0.7197  1.4516 -0.1325
  723MOL0     H97594   6.990   2.852   8.628  1.7959  1.2679  0.8109
  723MOL0     H97595   7.382   2.807   8.413  1.0030  1.5407 -2.8789
  723MOL0     H97596   7.315   2.968   8.388  1.4418  3.0625  2.2828
  723MOL0     H97597   7.472   2.858   8.630 -1.3420 -0.5397 -0.0895
  723MOL0     H97598   7.430   3.032   8.616  0.2030 -1.2473  1.8334
  723MOL0     H97599   7.565   3.010   8.387  2.1770  0.5816  0.4333
  723MOL0     H97600   7.636   2.870   8.476  2.1713  0.6119  2.4684
  723MOL0     H97601   7.656   3.161   8.558  0.2292 -1.2210 -2.1752
  723MOL0     H97602   7.788   3.066   8.491  2.1589 -2.1236  0.9046
  723MOL0     H97603   7.738   2.919   8.901 -1.2654  0.0501  0.5905
  723MOL0     H97604   7.343   2.629   8.532 -0.5259  3.2209 -2.1932
  723MOL0     H97605   7.275   2.452   8.656  1.9777  2.3482 -3.2017
  724MOL0     O97606   1.457  10.939   3.002  0.1398 -0.3838  0.1010
  724MOL0     C97607   1.417  11.026   3.082  0.0322 -0.3330 -0.3362
  724MOL0     O97608   1.366  11.153   3.048  0.2976  0.4134 -0.4702
  724MOL0     C97609   1.339  11.160   2.908 -0.3245 -0.2362 -0.5666
  724MOL0     C97610   1.211  11.113   2.867 -0.7466 -0.7057  0.0838
  724MOL0     C97611   1.177  11.131   2.732  0.2644 -0.6263  1.0056
  724MOL0     C97612   1.263  11.189   2.642  0.7426  0.0389  0.0572
  724MOL0     O97613   1.244  11.202   2.504 -0.5382 -0.5044 -0.9118
  724MOL0     C97614   1.118  11.200   2.443  0.6913 -0.2159 -1.2736
  724MOL0     C97615   1.128  11.242   2.307 -0.2309 -0.5131  0.4880
  724MOL0     C97616   0.990  11.301   2.254  0.4639  0.3170 -0.3123
  724MOL0     C97617   0.983  11.323   2.104 -0.0212 -0.5491 -0.4428
  724MOL0     C97618   1.065  11.447   2.049 -0.4217 -0.2780 -0.0952
  724MOL0     C97619   1.077  11.459   1.896  0.3201 -1.4421  0.3420
  724MOL0     C97620   0.946  11.478   1.830  0.2040 -0.1433  0.1405
  724MOL0     C97621   0.855  11.596   1.877  0.0465 -0.1328 -0.4834
  724MOL0     N97622   0.908  11.731   1.839 -0.4965 -0.0653 -0.0152
  724MOL0     C97623   0.904  11.780   1.711  0.1135 -0.0618 -0.2691
  724MOL0     C97624   0.953  11.907   1.716  0.0353 -0.5823  1.0534
  724MOL0     C97625   0.986  11.990   1.593 -0.5365  0.2614 -0.4528
  724MOL0     C97626   1.137  12.025   1.607  0.0252 -0.2439 -0.3198
  724MOL0     C97627   1.182  12.099   1.483  0.7657 -1.0846  0.3654
  724MOL0     C97628   1.324  12.144   1.509 -0.4309 -0.3508  0.5242
  724MOL0     O97629   1.402  12.184   1.393 -0.1386  0.4498  0.0742
  724MOL0     C97630   1.498  12.099   1.330 -0.4042  0.0443  0.0284
  724MOL0     C97631   1.558  11.972   1.370 -0.2634  0.1270  0.9410
  724MOL0     C97632   1.637  11.887   1.290  0.6703 -0.5165 -1.0835
  724MOL0     C97633   1.700  11.756   1.348  0.0722 -1.0602 -0.4222
  724MOL0     C97634   1.644  11.912   1.149 -0.1953 -0.5232 -0.0403
  724MOL0     C97635   1.721  11.835   1.052 -0.3387  0.0087  1.3190
  724MOL0     O97636   1.802  11.728   1.100 -0.1248  0.1470 -0.4123
  724MOL0     C97637   1.906  11.697   1.021  0.9174 -0.1292  1.0065
  724MOL0     C97638   1.883  11.593   0.930  0.4809  0.6284 -0.6268
  724MOL0     C97639   1.993  11.555   0.866 -0.8884  0.4887  0.9418
  724MOL0     C97640   2.128  11.598   0.888 -0.7879  0.1706  1.0868
  724MOL0     O97641   2.242  11.563   0.813 -0.8118 -0.4430 -0.0971
  724MOL0     C97642   2.227  11.491   0.691  0.6618 -0.2067 -0.1618
  724MOL0     C97643   2.358  11.488   0.608  0.8530  0.0787 -0.1529
  724MOL0     C97644   2.355  11.365   0.510 -0.4329  0.4045 -0.9028
  724MOL0     C97645   2.270  11.376   0.387 -0.5650 -0.5605 -1.0213
  724MOL0     C97646   2.357  11.428   0.272 -0.3446  0.1584 -0.3500
  724MOL0     C97647   2.258  11.445   0.151  0.2279  0.1493 -1.0086
  724MOL0     C97648   2.325  11.513   0.038  0.1880 -0.7982  1.1420
  724MOL0     C97649   2.282  11.662   0.041 -1.8669 -0.1500 -0.2377
  724MOL0    Cl97650   2.372  11.743  -0.102  0.1691 -0.0883 -0.6979
  724MOL0     C97651   2.143  11.689   0.993  1.0680  0.0091  0.0090
  724MOL0     C97652   2.031  11.746   1.055 -1.5692  0.8040  0.7675
  724MOL0     O97653   1.695  11.854   0.925  0.3959  0.5261 -0.0617
  724MOL0     C97654   1.586  12.037   1.115 -0.6774  0.5554 -0.4629
  724MOL0     C97655   1.513  12.128   1.199 -0.8642  0.4964  0.6701
  724MOL0     N97656   0.965  11.942   1.847  0.4346 -0.7416 -0.7812
  724MOL0     N97657   0.939  11.835   1.924 -0.2826 -0.7963  1.1512
  724MOL0     C97658   1.391  11.223   2.680 -0.7095  0.7852  0.2608
  724MOL0     C97659   1.424  11.220   2.817 -0.4571 -0.8497 -0.0473
  724MOL0     C97660   1.380  10.998   3.222  1.2856  0.1721 -0.0161
  724MOL0     C97661   1.311  11.076   3.315  0.1577 -0.3865  0.8075
  724MOL0     C97662   1.299  11.042   3.447  0.5263  0.7810 -0.6439
  724MOL0     C97663   1.370  10.929   3.494  0.5469 -0.4202 -0.2319
  724MOL0     O97664   1.373  10.886   3.629 -0.3068  0.5106 -0.1261
  724MOL0     C97665   1.316  10.969   3.728  0.5201 -0.5229 -0.7557
  724MOL0     C97666   1.365  10.940   3.860  0.0618  0.0226 -0.2137
  724MOL0     C97667   1.494  11.003   3.911 -1.0786 -0.0536 -0.1105
  724MOL0     C97668   1.616  10.983   3.817  0.1606  0.4158  0.3290
  724MOL0     C97669   1.736  11.045   3.874  0.2235  1.0755 -0.8871
  724MOL0     C97670   1.838  11.099   3.920  0.4078 -0.0706  0.4902
  724MOL0     C97671   1.438  10.851   3.409  0.1505  0.2652 -0.3962
  724MOL0     C97672   1.444  10.884   3.275  0.5360 -0.3377  0.8483
  724MOL0     H97673   1.138  11.079   2.939 -2.7204  3.9775  0.6851
  724MOL0     H97674   1.087  11.087   2.690 -0.3758  1.9266 -0.5344
  724MOL0     H97675   1.076  11.099   2.443  0.6224 -0.2562  1.2602
  724MOL0     H97676   1.051  11.263   2.503 -0.6463 -1.2418 -1.6290
  724MOL0     H97677   1.214  11.310   2.300  0.4893 -1.5809 -3.0485
  724MOL0     H97678   1.158  11.153   2.251 -0.3273 -0.3479  0.1703
  724MOL0     H97679   0.905  11.232   2.264 -1.7270  2.7312 -1.2436
  724MOL0     H97680   0.971  11.390   2.314  1.3049 -0.9547  1.9358
  724MOL0     H97681   1.029  11.238   2.052  2.2635  1.0173 -1.1094
  724MOL0     H97682   0.881  11.334   2.064  0.5948  0.8022 -1.7304
  724MOL0     H97683   1.009  11.534   2.086 -4.4767 -2.5228 -0.3291
  724MOL0     H97684   1.159  11.436   2.104 -0.7781 -0.4505  0.4960
  724MOL0     H97685   1.142  11.544   1.875 -1.3434  0.4509  2.4248
  724MOL0     H97686   1.128  11.368   1.860 -0.0338 -2.1873  1.6461
  724MOL0     H97687   0.965  11.496   1.724 -2.7763 -2.6779 -0.9752
  724MOL0     H97688   0.893  11.383   1.837  0.7803 -0.3320  3.8214
  724MOL0     H97689   0.836  11.602   1.984  2.4714  1.1832 -0.0472
  724MOL0     H97690   0.757  11.586   1.831 -0.3571 -0.4315  0.4167
  724MOL0     H97691   0.886  11.737   1.613 -2.5177  0.7554 -0.2116
  724MOL0     H97692   0.962  11.929   1.506 -1.3438  2.1047 -1.5931
  724MOL0     H97693   0.930  12.085   1.593  1.5073  1.5361  0.4445
  724MOL0     H97694   1.198  11.935   1.616  3.8853  1.7577 -3.2340
  724MOL0     H97695   1.154  12.083   1.699  3.5650  0.9009 -1.5104
  724MOL0     H97696   1.123  12.189   1.463  0.7808 -0.2480  3.5326
  724MOL0     H97697   1.187  12.040   1.391  2.4118  1.4821 -1.3134
  724MOL0     H97698   1.373  12.067   1.568  1.5015 -0.2875 -0.8853
  724MOL0     H97699   1.312  12.240   1.561  0.9580  0.6051 -0.8482
  724MOL0     H97700   1.543  11.939   1.473 -0.5963  0.0800  0.8797
  724MOL0     H97701   1.808  11.753   1.333  0.2519  2.6726 -0.8280
  724MOL0     H97702   1.691  11.745   1.457  0.3797 -1.6981 -0.4513
  724MOL0     H97703   1.645  11.670   1.308 -0.5673 -2.5084  3.1925
  724MOL0     H97704   1.789  11.554   0.893  1.1782 -0.2621 -1.5108
  724MOL0     H97705   1.959  11.484   0.791  1.1092 -1.0961  1.4469
  724MOL0     H97706   2.197  11.387   0.702  1.5981 -0.6086 -1.2644
  724MOL0     H97707   2.149  11.539   0.631  0.9039  1.4072  0.7391
  724MOL0     H97708   2.382  11.583   0.559  1.4713 -0.5465 -1.0956
  724MOL0     H97709   2.439  11.465   0.677 -0.1407  1.2067  1.4538
  724MOL0     H97710   2.313  11.280   0.564  0.7817  1.4658  1.8935
  724MOL0     H97711   2.456  11.333   0.483 -0.7124  0.0476 -1.5786
  724MOL0     H97712   2.256  11.271   0.362  0.9353 -1.4706  1.5392
  724MOL0     H97713   2.171  11.413   0.412 -0.3199 -1.6895  2.0387
  724MOL0     H97714   2.441  11.362   0.248  0.5748  0.3835  1.9246
  724MOL0     H97715   2.408  11.520   0.302  0.8855  0.1899 -2.4045
  724MOL0     H97716   2.199  11.358   0.119  0.1790 -0.8492  1.5578
  724MOL0     H97717   2.184  11.512   0.194 -1.2491  1.0734 -4.6917
  724MOL0     H97718   2.301  11.466  -0.058  4.2591 -2.9097  0.9455
  724MOL0     H97719   2.434  11.506   0.044  0.5018 -1.3380 -2.6989
  724MOL0     H97720   2.315  11.703   0.137  0.4987 -1.0290 -0.6046
  724MOL0     H97721   2.176  11.686   0.027 -2.2482 -0.5567  1.7006
  724MOL0     H97722   2.235  11.736   1.025 -0.8834  3.6677  0.8171
  724MOL0     H97723   2.055  11.805   1.142 -0.3526  2.5848 -0.6947
  724MOL0     H97724   1.596  12.077   1.014 -2.7111  1.4520 -0.3633
  724MOL0     H97725   1.444  12.210   1.180 -3.6648 -2.4040 -3.2265
  724MOL0     H97726   1.454  11.259   2.599 -2.5896  2.4588 -0.5240
  724MOL0     H97727   1.521  11.247   2.856 -0.1091 -0.3213 -1.2296
  724MOL0     H97728   1.258  11.161   3.272 -0.6851 -1.6536 -0.7460
  724MOL0     H97729   1.226  11.084   3.516 -1.6458 -1.0577 -1.7046
  724MOL0     H97730   1.336  11.076   3.712 -1.5462 -0.3746 -2.6513
  724MOL0     H97731   1.209  10.967   3.707  0.5482  0.1164 -0.9854
  724MOL0     H97732   1.375  10.832   3.868  0.6783  0.1819  1.8537
  724MOL0     H97733   1.289  10.972   3.931  1.9233 -0.1132  1.9688
  724MOL0     H97734   1.502  10.966   4.014  4.5707 -0.4046 -0.3709
  724MOL0     H97735   1.481  11.112   3.914  2.5809  0.6310 -2.4835
  724MOL0     H97736   1.602  11.041   3.725 -0.6379 -0.1034  0.1118
  724MOL0     H97737   1.639  10.879   3.789 -0.5740  0.0162  1.1746
  724MOL0     H97738   1.923  11.151   3.957  0.0210  2.3095 -1.7332
  724MOL0     H97739   1.486  10.756   3.430  0.1001  0.6020  1.3421
  724MOL0     H97740   1.503  10.824   3.206 -2.4706  2.0513 -4.3827
  725MOL0     O97741   9.692   6.417   9.964 -0.9130  0.0562 -0.1438
  725MOL0     C97742   9.709   6.500   9.880 -0.3806 -0.2615 -0.1221
  725MOL0     O97743   9.646   6.502   9.758 -0.5951 -0.7919  0.7386
  725MOL0     C97744   9.555   6.408   9.725  1.7141 -0.6862  0.4740
  725MOL0     C97745   9.432   6.389   9.798 -0.5213  1.3451 -0.4152
  725MOL0     C97746   9.332   6.296   9.755 -0.3242 -0.6096  0.8689
  725MOL0     C97747   9.357   6.212   9.657 -0.4847  0.2460  1.0558
  725MOL0     O97748   9.251   6.123   9.622  0.5273  0.6316  0.5525
  725MOL0     C97749   9.222   6.142   9.485 -0.0688 -0.2550 -0.5112
  725MOL0     C97750   9.100   6.053   9.453  1.0247 -0.9547  0.0929
  725MOL0     C97751   8.959   6.127   9.477 -0.2162  0.1673 -0.3032
  725MOL0     C97752   8.933   6.162   9.631  0.5595  0.6798  1.1025
  725MOL0     C97753   8.899   6.038   9.715 -0.5692 -0.9379  0.4178
  725MOL0     C97754   8.849   6.089   9.843 -0.4020 -0.2873 -0.2901
  725MOL0     C97755   8.796   5.982   9.951 -0.3851 -0.2396  0.4420
  725MOL0     C97756   8.642   5.953   9.954  0.4157 -0.5938 -0.2316
  725MOL0     N97757   8.613   5.863   9.845 -0.1707  0.0227  0.7659
  725MOL0     C97758   8.570   5.887   9.715 -0.3371  0.1985 -0.3167
  725MOL0     C97759   8.536   5.758   9.666  1.3538  0.1874 -0.4121
  725MOL0     C97760   8.447   5.718   9.547 -0.1907 -0.3805 -0.3486
  725MOL0     C97761   8.510   5.632   9.434  0.9310 -0.4414 -0.1763
  725MOL0     C97762   8.533   5.488   9.461  0.4992  0.0320  0.2054
  725MOL0     C97763   8.671   5.453   9.515  1.0964 -0.7777  0.2261
  725MOL0     O97764   8.686   5.309   9.520  0.2096  0.2136  1.1300
  725MOL0     C97765   8.799   5.245   9.564  0.0009  0.9885  0.4297
  725MOL0     C97766   8.920   5.310   9.593  0.1223 -0.1346  0.0024
  725MOL0     C97767   9.044   5.242   9.615 -0.2703  0.5317 -0.7010
  725MOL0     C97768   9.168   5.329   9.597 -1.2843 -0.5204  0.9745
  725MOL0     C97769   9.041   5.100   9.650 -0.2925 -0.1099 -0.6202
  725MOL0     C97770   9.157   5.024   9.695 -0.0314  0.3210  0.2048
  725MOL0     O97771   9.139   4.889   9.695  0.1061  0.3485 -0.5909
  725MOL0     C97772   9.243   4.806   9.744 -0.1623 -0.8553 -0.8380
  725MOL0     C97773   9.284   4.707   9.656 -0.6565 -0.5054 -0.5355
  725MOL0     C97774   9.367   4.603   9.702  0.2005 -0.0657 -0.0551
  725MOL0     C97775   9.417   4.605   9.839  0.0304  0.0179  0.3487
  725MOL0     O97776   9.504   4.511   9.885  1.0267 -0.3650 -0.0118
  725MOL0     C97777   9.480   4.373   9.853 -0.1692 -0.4326 -0.2819
  725MOL0     C97778   9.609   4.312   9.780  0.3943  0.0379  0.7189
  725MOL0     C97779   9.632   4.377   9.646 -0.4406 -0.2050  0.4787
  725MOL0     C97780   9.746   4.318   9.568 -0.5840  0.2324  0.4622
  725MOL0     C97781   9.716   4.170   9.527  0.9045 -0.3303 -0.7695
  725MOL0     C97782   9.824   4.126   9.433  1.1214  0.0976  0.8407
  725MOL0     C97783   9.826   3.974   9.433 -0.3819  0.3106 -0.1771
  725MOL0     C97784   9.913   3.935   9.307 -0.4415  0.6960 -0.4912
  725MOL0    Cl97785   9.971   3.764   9.348  0.1962 -0.3987  0.2358
  725MOL0     C97786   9.378   4.719   9.921 -0.1947  0.4841 -0.4622
  725MOL0     C97787   9.287   4.808   9.878 -0.2730 -0.2942 -0.4167
  725MOL0     O97788   9.264   5.081   9.727  0.2522  0.0533  0.1282
  725MOL0     C97789   8.915   5.042   9.624  0.1922  0.2846 -0.0154
  725MOL0     C97790   8.808   5.111   9.581  0.5885 -0.0777  0.2410
  725MOL0     N97791   8.566   5.667   9.763 -0.4455 -0.7764 -1.0241
  725MOL0     N97792   8.615   5.726   9.866 -0.0556 -0.2804 -0.0955
  725MOL0     C97793   9.478   6.222   9.573 -0.3064  0.6954  0.2411
  725MOL0     C97794   9.567   6.329   9.617 -1.1752 -0.3249  0.6488
  725MOL0     C97795   9.796   6.616   9.916  0.2269  0.6195 -0.7141
  725MOL0     C97796   9.852   6.621  10.050  1.2015 -1.2279 -0.2446
  725MOL0     C97797   9.928   6.732  10.088  0.1525  0.2414  1.2867
  725MOL0     C97798   9.960   6.836   9.997  1.1075 -1.4583 -0.2420
  725MOL0     O97799  10.038   6.940  10.031  0.2499  0.3475 -0.2292
  725MOL0     C97800   9.985   7.067  10.005 -0.2212 -1.7685  0.7919
  725MOL0     C97801   9.979   7.156  10.126  0.4524 -0.1309 -0.3389
  725MOL0     C97802   9.876   7.096  10.222 -0.3595  0.6687 -0.1956
  725MOL0     C97803   9.851   7.176  10.361  0.0456 -1.0346 -0.2821
  725MOL0     C97804   9.748   7.287  10.350 -0.4835  0.4001 -0.2240
  725MOL0     C97805   9.672   7.375  10.341 -0.5589 -0.4108 -0.5667
  725MOL0     C97806   9.916   6.814   9.864 -0.0647 -0.3263  0.6052
  725MOL0     C97807   9.830   6.705   9.825  0.2579 -0.2199 -0.1958
  725MOL0     H97808   9.416   6.453   9.884  0.7712 -1.9841  2.5361
  725MOL0     H97809   9.240   6.292   9.812 -0.3593 -0.0312  0.8628
  725MOL0     H97810   9.201   6.240   9.442  1.0591 -0.7519 -2.3038
  725MOL0     H97811   9.307   6.097   9.432  1.6356 -0.3739  2.1368
  725MOL0     H97812   9.087   6.032   9.347 -3.5291  0.7329  0.1178
  725MOL0     H97813   9.110   5.956   9.503  5.5240 -0.4820  0.5238
  725MOL0     H97814   8.957   6.226   9.432 -0.9731  0.0639 -0.5020
  725MOL0     H97815   8.878   6.062   9.442 -3.1732  2.6982  1.3500
  725MOL0     H97816   9.022   6.212   9.670  1.8651 -2.1421  1.9919
  725MOL0     H97817   8.846   6.228   9.633  1.0089  1.4410 -1.2207
  725MOL0     H97818   8.820   5.976   9.670 -1.8875  0.9070  0.0652
  725MOL0     H97819   8.981   5.966   9.713 -0.5196 -0.9015 -2.0066
  725MOL0     H97820   8.941   6.121   9.894 -0.2723 -1.5593  0.2970
  725MOL0     H97821   8.783   6.174   9.821 -2.8401 -2.5109 -2.2392
  725MOL0     H97822   8.850   5.887   9.950 -1.0788 -0.6504  1.1615
  725MOL0     H97823   8.808   6.025  10.051 -1.9146  4.5152 -1.1460
  725MOL0     H97824   8.588   6.048   9.961  2.6285  0.6971  0.1785
  725MOL0     H97825   8.635   5.904  10.051 -0.4264  4.3214  2.5573
  725MOL0     H97826   8.560   5.985   9.670 -0.8750 -0.1499 -0.9638
  725MOL0     H97827   8.355   5.671   9.582 -0.5323 -0.2960 -1.1277
  725MOL0     H97828   8.412   5.811   9.502  4.7642  2.0399  0.0434
  725MOL0     H97829   8.605   5.670   9.395  2.6593 -4.8699 -0.9309
  725MOL0     H97830   8.427   5.633   9.363 -0.6245  0.3691  1.5535
  725MOL0     H97831   8.522   5.445   9.362 -1.8311 -1.4890  1.0295
  725MOL0     H97832   8.462   5.439   9.529  1.9091 -1.5473  0.6048
  725MOL0     H97833   8.688   5.497   9.614 -1.2932  0.2588  0.2482
  725MOL0     H97834   8.743   5.496   9.444 -0.7889  2.4173  0.0402
  725MOL0     H97835   8.931   5.418   9.594  4.0777 -0.2863 -2.6133
  725MOL0     H97836   9.205   5.357   9.696  2.7112 -2.9709  0.3496
  725MOL0     H97837   9.241   5.270   9.541 -2.4732  0.0873 -1.3590
  725MOL0     H97838   9.142   5.424   9.549 -1.7372 -0.5776  1.0927
  725MOL0     H97839   9.238   4.718   9.559 -1.0729  1.4625 -0.1579
  725MOL0     H97840   9.409   4.529   9.633  3.6151  1.2698  0.3846
  725MOL0     H97841   9.468   4.318   9.947  0.6626 -1.5794 -0.8113
  725MOL0     H97842   9.387   4.364   9.797 -2.0102 -0.1896  2.5480
  725MOL0     H97843   9.696   4.327   9.844 -0.1573 -0.8445  1.7079
  725MOL0     H97844   9.597   4.203   9.779 -0.4876  0.1266 -0.1839
  725MOL0     H97845   9.661   4.482   9.661  0.9720 -0.3138 -1.1976
  725MOL0     H97846   9.538   4.369   9.589 -0.2594  0.2609  0.1060
  725MOL0     H97847   9.744   4.378   9.477  0.2029 -1.7964 -0.9750
  725MOL0     H97848   9.846   4.336   9.608 -0.3317  0.5497 -0.2886
  725MOL0     H97849   9.622   4.157   9.472  0.6609 -2.1262  0.0132
  725MOL0     H97850   9.710   4.110   9.618 -0.2188 -0.7095 -1.0717
  725MOL0     H97851   9.790   4.158   9.334  0.4340  0.0856  1.0664
  725MOL0     H97852   9.921   4.169   9.460 -1.0689  5.0890  1.8898
  725MOL0     H97853   9.725   3.932   9.425 -1.1123  2.0100 -0.3353
  725MOL0     H97854   9.861   3.934   9.528 -4.0396 -1.2502  0.6904
  725MOL0     H97855   9.992   4.008   9.285  0.1998 -1.2231 -6.2999
  725MOL0     H97856   9.854   3.941   9.215  0.3097  1.9519 -0.9149
  725MOL0     H97857   9.431   4.715  10.015 -0.4889 -2.6803 -0.3122
  725MOL0     H97858   9.270   4.895   9.939 -0.5946 -1.7331  1.6350
  725MOL0     H97859   8.901   4.937   9.647  2.7772 -0.4944 -1.6259
  725MOL0     H97860   8.712   5.060   9.587 -0.1659  1.3673  1.1859
  725MOL0     H97861   9.508   6.170   9.483  0.2200  3.8588 -1.5906
  725MOL0     H97862   9.657   6.353   9.561 -0.0694  2.3292  3.3134
  725MOL0     H97863   9.832   6.544  10.124  0.7580 -0.0424  0.9193
  725MOL0     H97864   9.976   6.719  10.184  2.1288  0.3281  0.3477
  725MOL0     H97865  10.044   7.120   9.929 -0.9190 -4.4892 -1.8161
  725MOL0     H97866   9.886   7.068   9.960  0.9463  0.7426 -2.0758
  725MOL0     H97867   9.948   7.255  10.091  0.4989  0.5318  1.3861
  725MOL0     H97868  10.070   7.186  10.179 -1.6882  2.1022  2.3741
  725MOL0     H97869   9.915   6.998  10.249 -0.5251  0.9383  1.0895
  725MOL0     H97870   9.776   7.098  10.177  0.1665  0.7066 -1.4079
  725MOL0     H97871   9.942   7.225  10.397 -0.4595 -0.3226  0.0500
  725MOL0     H97872   9.802   7.117  10.439 -0.8158 -1.2607 -0.9834
  725MOL0     H97873   9.617   7.467  10.330 -1.8107 -0.8103  1.6640
  725MOL0     H97874   9.935   6.878   9.779 -1.6691  0.1372  0.5549
  725MOL0     H97875   9.812   6.687   9.719  1.2661  0.2416 -0.4581
  726MOL0     O97876   9.414   4.768   4.138 -0.4143  0.4077  0.2524
  726MOL0     C97877   9.524   4.820   4.120 -0.4187 -0.4825 -0.0012
  726MOL0     O97878   9.639   4.763   4.059 -1.0125  1.2266  0.0777
  726MOL0     C97879   9.651   4.629   4.078 -0.2358 -0.4735  0.0736
  726MOL0     C97880   9.639   4.566   4.212 -0.4742 -0.5079 -0.6889
  726MOL0     C97881   9.653   4.431   4.236 -0.6355 -0.2721  0.2634
  726MOL0     C97882   9.701   4.350   4.130  0.4256 -0.6231 -0.0919
  726MOL0     O97883   9.719   4.217   4.146 -0.1161  0.0272 -0.0081
  726MOL0     C97884   9.799   4.171   4.242 -0.9243  0.1087 -0.2234
  726MOL0     C97885   9.828   4.023   4.210  1.2214 -0.6770 -0.5407
  726MOL0     C97886   9.894   4.001   4.083 -0.5975  0.3462  0.3535
  726MOL0     C97887   9.961   3.860   4.067 -0.2506  0.1265 -0.3913
  726MOL0     C97888  10.056   3.847   3.945  0.4436  0.5562 -0.1221
  726MOL0     C97889  10.098   3.706   3.921 -0.4321 -0.5184 -0.8726
  726MOL0     C97890  10.217   3.694   3.819  1.1022 -0.0748  0.0907
  726MOL0     C97891  10.252   3.552   3.794  0.2136  0.0876  0.8183
  726MOL0     N97892  10.391   3.504   3.828  0.5252 -0.7696  0.4944
  726MOL0     C97893  10.504   3.551   3.766  0.3357 -0.1306  0.3954
  726MOL0     C97894  10.602   3.476   3.808 -0.7444 -0.3297 -0.2181
  726MOL0     C97895  10.748   3.472   3.760  0.4921  0.3554  0.3055
  726MOL0     C97896  10.836   3.547   3.863  0.6640 -0.0323  0.0907
  726MOL0     C97897  10.961   3.620   3.806  0.5571  0.8704 -0.5438
  726MOL0     C97898  11.048   3.535   3.715  0.5040 -0.4055 -0.6768
  726MOL0     O97899  11.141   3.618   3.644 -0.2446 -0.2830 -0.6731
  726MOL0     C97900  11.225   3.565   3.545 -0.1383  0.5030  0.6919
  726MOL0     C97901  11.259   3.427   3.534 -0.0932 -0.1044 -0.3886
  726MOL0     C97902  11.346   3.386   3.433  0.0883  0.8438 -1.0269
  726MOL0     C97903  11.382   3.238   3.426  0.3852  0.4312 -0.9648
  726MOL0     C97904  11.405   3.472   3.338  1.1404 -0.5849 -0.1949
  726MOL0     C97905  11.501   3.440   3.231 -0.2066  0.3521  0.0867
  726MOL0     O97906  11.572   3.545   3.179 -0.4721 -0.2306  0.6322
  726MOL0     C97907  11.666   3.527   3.081 -1.1053 -0.5330  0.4680
  726MOL0     C97908  11.745   3.419   3.055 -0.2989 -0.0653 -0.4967
  726MOL0     C97909  11.843   3.426   2.955  0.4368 -0.0604  0.3197
  726MOL0     C97910  11.860   3.538   2.879 -0.6583 -0.6024  0.5314
  726MOL0     O97911  11.961   3.528   2.781  0.2805  0.1797  0.1393
  726MOL0     C97912  11.981   3.639   2.696  0.4430  0.4933 -0.1595
  726MOL0     C97913  12.073   3.594   2.580 -0.1708 -0.1646  0.9438
  726MOL0     C97914  12.111   3.710   2.476 -0.2902 -0.9412 -0.0970
  726MOL0     C97915  12.218   3.811   2.529 -0.2594  0.6726 -0.4208
  726MOL0     C97916  12.240   3.932   2.428 -0.8869  0.1711  0.0495
  726MOL0     C97917  12.136   4.044   2.450  0.1816 -0.1591  0.1158
  726MOL0     C97918  12.145   4.147   2.343 -0.0374 -0.1964  0.4749
  726MOL0     C97919  12.030   4.250   2.344  0.2028  0.6536  0.2605
  726MOL0    Cl97920  12.090   4.380   2.243 -0.3936 -0.0119 -0.4734
  726MOL0     C97921  11.774   3.642   2.891  0.8595  0.5463 -0.1158
  726MOL0     C97922  11.678   3.636   2.993 -0.2222 -0.1423 -1.2181
  726MOL0     O97923  11.515   3.327   3.189  0.3216 -0.2712 -0.3231
  726MOL0     C97924  11.376   3.612   3.361  0.3008 -0.0161 -0.7284
  726MOL0     C97925  11.285   3.662   3.462  0.2942 -0.0294 -0.3589
  726MOL0     N97926  10.554   3.404   3.914  0.3994  0.2999 -0.2947
  726MOL0     N97927  10.423   3.421   3.934 -1.2538  0.9372  0.9683
  726MOL0     C97928   9.707   4.405   4.000 -1.1054 -0.3557 -0.3349
  726MOL0     C97929   9.691   4.542   3.977  0.4283 -0.4359 -0.6147
  726MOL0     C97930   9.530   4.961   4.146  0.2756 -1.0966  0.2558
  726MOL0     C97931   9.569   5.063   4.061  0.3351  0.1785 -0.3176
  726MOL0     C97932   9.538   5.197   4.076  0.3671  0.0525  0.3491
  726MOL0     C97933   9.466   5.242   4.193 -0.4099  0.3906 -0.3897
  726MOL0     O97934   9.428   5.369   4.217  0.3620 -0.2528  1.3109
  726MOL0     C97935   9.530   5.460   4.261 -0.2355  0.9897  0.4624
  726MOL0     C97936   9.513   5.574   4.171  0.2731 -0.1369 -0.1699
  726MOL0     C97937   9.581   5.708   4.213 -0.3908  0.0037  0.7310
  726MOL0     C97938   9.739   5.725   4.219 -0.3911 -0.5869 -0.0461
  726MOL0     C97939   9.786   5.861   4.245  0.4935  0.6548 -0.6653
  726MOL0     C97940   9.811   5.977   4.259  0.2960 -0.1269  0.2857
  726MOL0     C97941   9.434   5.143   4.286  0.6752 -0.3061 -0.0369
  726MOL0     C97942   9.467   5.006   4.268  0.7841 -0.7056  0.5473
  726MOL0     H97943   9.608   4.628   4.295 -1.5206 -1.5536 -0.2731
  726MOL0     H97944   9.640   4.376   4.329  0.9266  0.5500  1.0212
  726MOL0     H97945   9.892   4.226   4.252  1.4156 -3.1395 -2.2258
  726MOL0     H97946   9.742   4.171   4.335 -0.9284  0.2394 -0.2248
  726MOL0     H97947   9.889   3.979   4.290  2.4665 -0.1099 -1.1423
  726MOL0     H97948   9.732   3.971   4.216 -0.5030  1.9688 -2.6654
  726MOL0     H97949   9.824   4.021   4.002  0.1158  2.4345  0.1846
  726MOL0     H97950   9.972   4.075   4.059  0.4525 -1.2062 -1.3518
  726MOL0     H97951  10.032   3.841   4.148  0.4919 -1.4546 -1.3688
  726MOL0     H97952   9.880   3.787   4.078 -0.3990  0.1183 -1.4344
  726MOL0     H97953  10.017   3.880   3.849  2.9427  0.4052 -1.2848
  726MOL0     H97954  10.152   3.896   3.964  1.4304 -0.9443 -0.9685
  726MOL0     H97955  10.135   3.666   4.016  0.7475  1.8887 -0.2413
  726MOL0     H97956  10.016   3.643   3.884 -0.0765 -3.5122  2.8036
  726MOL0     H97957  10.160   3.722   3.730  1.6207  2.0497  0.3733
  726MOL0     H97958  10.301   3.759   3.845  3.4079 -2.3534 -1.1659
  726MOL0     H97959  10.241   3.539   3.686  0.5924 -0.3432  0.8282
  726MOL0     H97960  10.182   3.483   3.843 -0.8850 -0.2840 -1.1810
  726MOL0     H97961  10.519   3.618   3.682 -0.6403 -2.1199 -1.4872
  726MOL0     H97962  10.786   3.370   3.755  0.0256 -0.0186  2.8488
  726MOL0     H97963  10.765   3.512   3.660 -0.7501 -2.3618 -1.1112
  726MOL0     H97964  10.876   3.468   3.928  3.2579 -0.0307 -1.3753
  726MOL0     H97965  10.778   3.618   3.923 -1.2979 -2.8808  1.7897
  726MOL0     H97966  11.014   3.641   3.899 -2.2551 -2.5846  2.1081
  726MOL0     H97967  10.924   3.703   3.745 -1.0555 -1.8704 -3.6154
  726MOL0     H97968  10.985   3.480   3.644 -1.4466 -0.7933  1.2311
  726MOL0     H97969  11.096   3.452   3.767 -1.6964 -4.0963 -3.9403
  726MOL0     H97970  11.204   3.363   3.603 -1.1489 -0.2016 -1.2776
  726MOL0     H97971  11.360   3.191   3.522 -3.2763 -0.2899 -1.9867
  726MOL0     H97972  11.318   3.189   3.350 -1.3371  2.6077 -1.0200
  726MOL0     H97973  11.487   3.223   3.403  0.9288  2.5827 -0.1127
  726MOL0     H97974  11.734   3.323   3.103  0.9444  0.4638  0.9494
  726MOL0     H97975  11.911   3.341   2.958  1.6094  0.8424  0.2478
  726MOL0     H97976  11.890   3.681   2.654  0.1600  0.6853  0.6282
  726MOL0     H97977  12.032   3.718   2.752  1.3775 -0.7783  0.8604
  726MOL0     H97978  12.160   3.549   2.628  0.9900 -0.2582 -1.0985
  726MOL0     H97979  12.026   3.516   2.518 -1.1108 -0.0772  1.5229
  726MOL0     H97980  12.021   3.761   2.443  0.4411 -1.5596 -3.3521
  726MOL0     H97981  12.157   3.657   2.392 -0.4814 -1.8517  0.3574
  726MOL0     H97982  12.198   3.839   2.633 -0.3589 -0.4099 -0.1443
  726MOL0     H97983  12.307   3.749   2.542  0.2366  0.9853 -2.0165
  726MOL0     H97984  12.239   3.909   2.322  1.8806  3.9046 -1.0036
  726MOL0     H97985  12.337   3.980   2.440 -1.1597  0.6560  0.3528
  726MOL0     H97986  12.034   4.004   2.446  0.0560 -0.3067  2.8063
  726MOL0     H97987  12.160   4.077   2.552  2.9140 -1.1114 -0.1473
  726MOL0     H97988  12.143   4.101   2.244 -0.2929 -1.3548  1.0068
  726MOL0     H97989  12.243   4.196   2.349  0.0948 -0.6279  2.4370
  726MOL0     H97990  12.019   4.302   2.440 -1.5899  0.6967  0.0629
  726MOL0     H97991  11.939   4.204   2.306  2.1142 -3.0147 -0.3208
  726MOL0     H97992  11.778   3.728   2.825 -0.2006 -0.1786 -1.1706
  726MOL0     H97993  11.609   3.718   3.009  1.9209  1.7674 -1.3621
  726MOL0     H97994  11.403   3.694   3.295 -1.7105  1.5141  0.2258
  726MOL0     H97995  11.244   3.762   3.465 -1.2966 -0.6480  3.2242
  726MOL0     H97996   9.726   4.346   3.910  1.0496 -1.5134  0.8053
  726MOL0     H97997   9.704   4.569   3.872  0.2466 -2.8914 -1.3356
  726MOL0     H97998   9.605   5.018   3.969 -0.4349 -4.1158  1.2649
  726MOL0     H97999   9.564   5.279   4.009 -0.0108 -0.0952  0.0102
  726MOL0     H98000   9.514   5.474   4.369  1.0491 -0.8246  0.9365
  726MOL0     H98001   9.632   5.421   4.255 -0.0915  0.0208  5.0433
  726MOL0     H98002   9.406   5.593   4.156  0.6453  1.0058 -1.5556
  726MOL0     H98003   9.560   5.553   4.075  2.1577 -1.0360  0.9006
  726MOL0     H98004   9.537   5.742   4.308 -1.5099  2.4269 -0.5587
  726MOL0     H98005   9.545   5.791   4.151  1.5051  2.6841  2.9796
  726MOL0     H98006   9.785   5.680   4.130  0.6724  3.2685 -1.6365
  726MOL0     H98007   9.764   5.665   4.307 -1.3953 -1.9044 -0.6175
  726MOL0     H98008   9.861   6.070   4.276 -1.4614  0.7699  0.8254
  726MOL0     H98009   9.362   5.173   4.362 -0.3533  0.5867 -1.3087
  726MOL0     H98010   9.434   4.936   4.344  2.7698 -1.9919  0.3199
  727MOL0     O98011   1.759   0.364   4.299 -0.8224  0.1332  0.1076
  727MOL0     C98012   1.864   0.375   4.366 -0.0278  0.6332  0.7468
  727MOL0     O98013   1.887   0.294   4.481 -0.0924 -0.3210 -0.2968
  727MOL0     C98014   1.778   0.256   4.550  0.2195  0.6055  0.4171
  727MOL0     C98015   1.678   0.174   4.490  0.3704  0.6279 -0.3163
  727MOL0     C98016   1.569   0.124   4.567 -0.3889 -0.7356 -0.3861
  727MOL0     C98017   1.568   0.160   4.703 -1.1431  0.5766 -0.4032
  727MOL0     O98018   1.467   0.114   4.781  0.2102  1.0654 -0.1833
  727MOL0     C98019   1.447  -0.030   4.787 -0.0378  0.4846  1.3184
  727MOL0     C98020   1.332  -0.031   4.882  0.6312  0.4563 -0.0655
  727MOL0     C98021   1.392  -0.005   5.020  0.2521  0.0683 -0.3108
  727MOL0     C98022   1.287   0.008   5.118 -0.7888  0.7187 -0.8874
  727MOL0     C98023   1.365   0.025   5.250  0.2316 -0.3782  0.5688
  727MOL0     C98024   1.270   0.022   5.372 -0.1294  0.1963 -0.9975
  727MOL0     C98025   1.362   0.043   5.500  0.3046 -0.0477 -0.5630
  727MOL0     C98026   1.276   0.043   5.625 -0.2977 -0.1608  0.3783
  727MOL0     N98027   1.169   0.143   5.619 -0.5280 -0.0428 -0.2551
  727MOL0     C98028   1.035   0.107   5.632 -0.5765 -0.1412 -1.1841
  727MOL0     C98029   0.982   0.210   5.685 -0.2142 -0.8931 -0.7687
  727MOL0     C98030   0.839   0.222   5.733  0.5264  0.8496 -0.2557
  727MOL0     C98031   0.813   0.141   5.865 -0.7539  0.2619  0.5425
  727MOL0     C98032   0.711   0.020   5.854  0.2818 -1.0292 -0.7823
  727MOL0     C98033   0.568   0.058   5.807  0.7626  0.9222 -0.3162
  727MOL0     O98034   0.512   0.172   5.870  0.2693  0.3103  0.0388
  727MOL0     C98035   0.450   0.154   5.995  1.5963  0.0858 -0.2210
  727MOL0     C98036   0.517   0.130   6.118  0.0838 -0.4277  0.7152
  727MOL0     C98037   0.441   0.121   6.241  0.0499 -0.2536 -0.2410
  727MOL0     C98038   0.529   0.072   6.357 -0.1766 -0.0590 -0.4552
  727MOL0     C98039   0.297   0.127   6.232 -0.5254  0.2195 -1.0722
  727MOL0     C98040   0.218   0.072   6.341 -0.0348 -1.2071  0.4913
  727MOL0     O98041   0.088   0.082   6.326 -0.1550  0.2803 -0.1342
  727MOL0     C98042  -0.009   0.057   6.424  0.1307  0.2500  0.2448
  727MOL0     C98043  -0.010  -0.049   6.510 -0.6550 -0.6113  0.3603
  727MOL0     C98044  -0.121  -0.068   6.601  0.8218  0.1271 -0.1494
  727MOL0     C98045  -0.234   0.015   6.599 -0.0201 -0.2572  0.9318
  727MOL0     O98046  -0.349   0.005   6.674 -0.1933  0.9927  0.2545
  727MOL0     C98047  -0.414  -0.121   6.675 -0.1925 -0.1837  0.0514
  727MOL0     C98048  -0.501  -0.140   6.545  0.0804 -0.2859  0.1366
  727MOL0     C98049  -0.588  -0.263   6.555 -0.4693 -0.2722 -0.3177
  727MOL0     C98050  -0.686  -0.277   6.450 -0.0193 -0.3952  0.7652
  727MOL0     C98051  -0.735  -0.423   6.452 -0.1956  0.6658 -0.8035
  727MOL0     C98052  -0.794  -0.477   6.590 -0.0474  0.4104  0.2614
  727MOL0     C98053  -0.695  -0.547   6.686 -0.1343 -0.6651  0.1080
  727MOL0     C98054  -0.602  -0.656   6.622  0.0500  0.2178  0.2421
  727MOL0    Cl98055  -0.523  -0.735   6.764 -0.0486 -0.7253 -0.1044
  727MOL0     C98056  -0.230   0.125   6.511  0.0991  0.1292 -0.6625
  727MOL0     C98057  -0.122   0.142   6.419  0.6028  0.5288  0.4709
  727MOL0     O98058   0.274   0.029   6.434 -0.2451  0.5561 -0.0325
  727MOL0     C98059   0.240   0.172   6.112 -0.1965 -0.4157 -0.1303
  727MOL0     C98060   0.316   0.176   5.999 -0.0381  0.4595  0.3589
  727MOL0     N98061   1.078   0.307   5.715 -1.0291  1.0377 -0.6830
  727MOL0     N98062   1.192   0.265   5.676 -0.9483 -0.4669  0.4973
  727MOL0     C98063   1.666   0.237   4.759  0.0888  0.3664 -0.4295
  727MOL0     C98064   1.754   0.303   4.682 -0.2323  0.2059  1.2001
  727MOL0     C98065   1.972   0.472   4.312 -1.2412 -1.1931  0.6669
  727MOL0     C98066   2.113   0.467   4.333 -0.1755 -0.0109 -0.7094
  727MOL0     C98067   2.195   0.564   4.286 -0.4725  0.8794  0.7626
  727MOL0     C98068   2.150   0.675   4.204 -0.3258 -0.1659  0.3100
  727MOL0     O98069   2.240   0.776   4.160 -0.3343  0.9441 -0.3959
  727MOL0     C98070   2.203   0.880   4.065 -0.1611  0.9183  0.7467
  727MOL0     C98071   2.220   0.846   3.919  0.0047 -0.0172  0.7577
  727MOL0     C98072   2.117   0.741   3.858 -0.3066  0.4278 -0.7954
  727MOL0     C98073   2.081   0.769   3.714  0.2107 -0.1219  0.4599
  727MOL0     C98074   2.007   0.648   3.654  0.0858  0.2582  0.4771
  727MOL0     C98075   1.950   0.555   3.604 -0.2233 -0.0815 -0.4106
  727MOL0     C98076   2.014   0.685   4.184  0.1528  0.6129 -0.1342
  727MOL0     C98077   1.925   0.586   4.243 -0.7236 -0.0439 -0.0876
  727MOL0     H98078   1.680   0.146   4.385  1.3191 -0.7579  0.0509
  727MOL0     H98079   1.490   0.067   4.520 -3.5885  2.3521  0.8228
  727MOL0     H98080   1.425  -0.071   4.688  1.5904 -0.1091  1.1778
  727MOL0     H98081   1.535  -0.076   4.832  0.9038  2.4175  1.5665
  727MOL0     H98082   1.246   0.036   4.873  1.0416  1.0496  0.3582
  727MOL0     H98083   1.283  -0.129   4.880 -0.5574  0.9565  2.1235
  727MOL0     H98084   1.459  -0.088   5.045 -0.1314  0.2068  1.2920
  727MOL0     H98085   1.444   0.092   5.025 -0.3917  0.3594  1.9995
  727MOL0     H98086   1.232   0.099   5.090 -2.5365  0.3271  1.0141
  727MOL0     H98087   1.230  -0.086   5.118  4.4774 -2.8781 -0.2107
  727MOL0     H98088   1.437  -0.056   5.258  0.9320  0.2291  0.5313
  727MOL0     H98089   1.432   0.111   5.244  0.2204 -0.3671  0.5998
  727MOL0     H98090   1.201   0.105   5.356 -3.1827 -1.7447  1.2371
  727MOL0     H98091   1.206  -0.066   5.386 -1.8696  1.6547  0.7392
  727MOL0     H98092   1.430  -0.039   5.526  0.7142  0.9076  1.6349
  727MOL0     H98093   1.399   0.144   5.487 -3.3540  1.2459 -2.3130
  727MOL0     H98094   1.340   0.062   5.712  0.0318  0.7500 -0.0556
  727MOL0     H98095   1.235  -0.058   5.639  3.9632 -2.1799 -0.1437
  727MOL0     H98096   0.983   0.016   5.601 -2.4472  0.8198 -1.0302
  727MOL0     H98097   0.819   0.328   5.754  2.0652  0.7815  1.9644
  727MOL0     H98098   0.774   0.200   5.649 -0.7352  1.0817  0.6288
  727MOL0     H98099   0.756   0.214   5.924 -2.2942  1.2875 -2.0454
  727MOL0     H98100   0.902   0.110   5.920 -0.2272  3.3429  1.6567
  727MOL0     H98101   0.697  -0.023   5.954  1.4051 -3.0164 -1.4288
  727MOL0     H98102   0.749  -0.063   5.793 -1.1808 -0.8231 -2.0261
  727MOL0     H98103   0.515  -0.037   5.795  2.4190 -0.0775  0.0369
  727MOL0     H98104   0.572   0.077   5.700 -0.6891  1.3363 -0.3272
  727MOL0     H98105   0.624   0.115   6.105  0.0765  1.2722 -2.3085
  727MOL0     H98106   0.511  -0.036   6.364  2.0422 -0.4493 -0.1308
  727MOL0     H98107   0.637   0.088   6.351  0.0518 -0.5734  1.5232
  727MOL0     H98108   0.503   0.122   6.451  0.7489  0.1807 -0.3164
  727MOL0     H98109   0.076  -0.114   6.501  1.6919  2.4350 -0.9356
  727MOL0     H98110  -0.131  -0.152   6.670  1.4544  0.2334  0.0789
  727MOL0     H98111  -0.344  -0.205   6.686 -1.0967 -0.9867 -0.2206
  727MOL0     H98112  -0.475  -0.118   6.765  2.5142  2.5054  1.9723
  727MOL0     H98113  -0.555  -0.046   6.535 -1.5250 -1.1315  0.6222
  727MOL0     H98114  -0.443  -0.159   6.454 -0.5381 -1.5189 -0.0200
  727MOL0     H98115  -0.650  -0.247   6.644  0.4626  1.5999  0.0349
  727MOL0     H98116  -0.521  -0.348   6.563 -0.7389 -0.5684 -1.1203
  727MOL0     H98117  -0.762  -0.201   6.470  0.0331 -0.2141  0.2948
  727MOL0     H98118  -0.643  -0.255   6.351 -0.3258  1.0131  0.9163
  727MOL0     H98119  -0.662  -0.497   6.419 -0.4416 -0.7530  1.5862
  727MOL0     H98120  -0.817  -0.430   6.380 -2.3564  2.0697  1.3598
  727MOL0     H98121  -0.846  -0.397   6.644 -0.3526 -1.1979  2.4525
  727MOL0     H98122  -0.862  -0.556   6.558  2.0301 -1.4261  0.1345
  727MOL0     H98123  -0.741  -0.568   6.784  0.9735  2.5950  1.4753
  727MOL0     H98124  -0.631  -0.471   6.733 -3.1501  1.7730  0.6670
  727MOL0     H98125  -0.525  -0.604   6.564  1.5616 -0.6346  1.4249
  727MOL0     H98126  -0.657  -0.730   6.563 -2.0687  2.1066 -0.3207
  727MOL0     H98127  -0.313   0.193   6.495  1.5119  1.6610 -1.9476
  727MOL0     H98128  -0.106   0.232   6.361  0.8562  0.2361  0.0783
  727MOL0     H98129   0.133   0.187   6.101  0.1157  4.6197  1.1558
  727MOL0     H98130   0.278   0.211   5.904 -3.0414 -0.3061  1.1777
  727MOL0     H98131   1.672   0.260   4.865  0.9066 -0.6299 -0.2430
  727MOL0     H98132   1.833   0.364   4.725 -0.4072 -1.1277  3.5638
  727MOL0     H98133   2.159   0.381   4.382 -1.0820 -0.9229 -1.3967
  727MOL0     H98134   2.303   0.550   4.286 -0.0458  0.7632 -6.0266
  727MOL0     H98135   2.099   0.905   4.087 -0.0074  2.4675 -0.1277
  727MOL0     H98136   2.257   0.972   4.090  0.6793  0.4665  0.6597
  727MOL0     H98137   2.321   0.812   3.895 -0.2350 -0.6659  0.6394
  727MOL0     H98138   2.204   0.939   3.863 -0.5978 -0.6426 -0.1469
  727MOL0     H98139   2.027   0.749   3.919 -0.6020 -0.7683 -1.0361
  727MOL0     H98140   2.141   0.639   3.891 -1.5859  1.2043  3.0253
  727MOL0     H98141   2.162   0.792   3.645  0.1980  1.3942  0.9330
  727MOL0     H98142   2.011   0.853   3.711  1.1614  0.6538 -0.0978
  727MOL0     H98143   1.915   0.456   3.581 -0.8995 -0.6093  2.4958
  727MOL0     H98144   1.957   0.758   4.129 -0.7732  1.8129  2.2871
  727MOL0     H98145   1.825   0.590   4.201 -0.4409 -0.6216 -0.8444
  728MOL0     O98146   4.720   1.574   3.593  0.5469  0.3070  0.3857
  728MOL0     C98147   4.603   1.540   3.592  0.4462 -0.8202 -0.1234
  728MOL0     O98148   4.528   1.524   3.484 -0.1115  1.2784  0.1865
  728MOL0     C98149   4.585   1.549   3.361 -0.2448 -0.2079  0.1130
  728MOL0     C98150   4.681   1.473   3.294 -0.2727 -0.2995  0.5126
  728MOL0     C98151   4.740   1.509   3.174 -0.2030 -0.5936  1.0870
  728MOL0     C98152   4.708   1.637   3.110  0.8482  0.3600 -1.1373
  728MOL0     O98153   4.763   1.688   2.999 -0.5817  0.0513  0.3520
  728MOL0     C98154   4.893   1.647   2.958  0.0200 -0.7752  0.1591
  728MOL0     C98155   4.942   1.719   2.823  0.3813 -0.5743 -0.6894
  728MOL0     C98156   4.917   1.867   2.775 -0.7691 -0.5220 -0.0319
  728MOL0     C98157   4.763   1.881   2.772 -0.5602 -0.0917  0.1482
  728MOL0     C98158   4.727   2.000   2.671 -1.1704  0.4095 -0.0322
  728MOL0     C98159   4.708   2.127   2.745 -1.1299  0.4900 -0.1358
  728MOL0     C98160   4.584   2.143   2.825  0.4127  0.4415 -0.3422
  728MOL0     C98161   4.455   2.114   2.756  0.0735  0.3802  0.1318
  728MOL0     N98162   4.403   1.970   2.775  0.6153 -0.4640 -0.8978
  728MOL0     C98163   4.371   1.920   2.899 -0.3073 -0.9398  0.4558
  728MOL0     C98164   4.363   1.785   2.872 -0.7204  0.1380  0.3910
  728MOL0     C98165   4.337   1.683   2.985  0.4480 -0.7306  0.8905
  728MOL0     C98166   4.195   1.635   2.986  0.9785  0.6227  0.5351
  728MOL0     C98167   4.092   1.754   3.016  0.7864  0.3156 -0.2941
  728MOL0     C98168   3.954   1.712   3.080 -0.7471  0.0270  0.3086
  728MOL0     O98169   3.960   1.667   3.217 -0.7130 -0.0762 -0.1710
  728MOL0     C98170   3.906   1.744   3.317  0.5687  0.2275 -0.4385
  728MOL0     C98171   3.889   1.885   3.312 -0.2678  0.1214  0.4086
  728MOL0     C98172   3.835   1.959   3.416 -0.5061 -0.1623 -0.3110
  728MOL0     C98173   3.850   2.106   3.396 -0.1705  0.6036 -0.5671
  728MOL0     C98174   3.782   1.886   3.527  0.4487  0.2463 -0.3315
  728MOL0     C98175   3.715   1.951   3.645 -0.5072  1.0909  0.5873
  728MOL0     O98176   3.644   1.870   3.722  0.2031  0.5437 -1.1644
  728MOL0     C98177   3.551   1.924   3.807  0.1647  0.2455 -0.4916
  728MOL0     C98178   3.461   2.030   3.776  0.2925  0.0959  0.1893
  728MOL0     C98179   3.371   2.077   3.878  0.8447 -0.1887  0.2087
  728MOL0     C98180   3.376   2.039   4.012 -0.3054  0.0999 -0.5449
  728MOL0     O98181   3.288   2.099   4.111  0.8575 -0.6777 -0.1441
  728MOL0     C98182   3.306   2.070   4.247  0.1975 -0.9349 -0.7645
  728MOL0     C98183   3.168   2.107   4.317  0.0355 -0.6353 -0.7601
  728MOL0     C98184   3.157   2.042   4.453  0.3582 -0.9338 -0.0649
  728MOL0     C98185   3.025   2.072   4.520  0.6156  0.0358 -0.4363
  728MOL0     C98186   2.999   1.995   4.647  0.1604  1.0141  0.5800
  728MOL0     C98187   2.860   2.023   4.709 -0.0059  1.0279 -0.4301
  728MOL0     C98188   2.828   1.935   4.829  0.2548  0.1824  0.1628
  728MOL0     C98189   2.731   1.992   4.926  0.5745 -1.0133  0.2224
  728MOL0    Cl98190   2.698   1.882   5.055  0.0683  0.1060  0.1686
  728MOL0     C98191   3.477   1.950   4.042  0.8320  0.5415 -0.1197
  728MOL0     C98192   3.563   1.895   3.944 -0.1789  0.5640  0.1672
  728MOL0     O98193   3.718   2.077   3.653  0.7426 -0.2337 -0.5408
  728MOL0     C98194   3.787   1.745   3.527 -0.5306 -0.2352 -0.5676
  728MOL0     C98195   3.848   1.678   3.423 -0.2064  0.8910 -0.0773
  728MOL0     N98196   4.377   1.769   2.736  0.1927  0.5875  0.5479
  728MOL0     N98197   4.389   1.882   2.678 -0.0629  0.4737  0.5737
  728MOL0     C98198   4.616   1.724   3.184  0.4479  0.1502  0.1263
  728MOL0     C98199   4.559   1.679   3.302 -0.7961  0.2190  0.3689
  728MOL0     C98200   4.537   1.536   3.733 -0.4882 -0.2967 -0.7330
  728MOL0     C98201   4.592   1.600   3.846 -0.6425 -0.1453  0.8482
  728MOL0     C98202   4.529   1.594   3.968  0.5432  0.2416 -0.4990
  728MOL0     C98203   4.395   1.549   3.980  1.1153  0.6514  0.0873
  728MOL0     O98204   4.313   1.538   4.089  0.2644  0.5876 -0.1541
  728MOL0     C98205   4.375   1.562   4.217 -0.1779  1.0582 -0.2688
  728MOL0     C98206   4.273   1.555   4.331  1.0562  0.1569 -0.0866
  728MOL0     C98207   4.219   1.409   4.354 -0.0263 -0.5061  0.8312
  728MOL0     C98208   4.158   1.372   4.498  0.1020 -0.4527  0.5672
  728MOL0     C98209   4.049   1.460   4.549  0.5026 -0.9108  0.4443
  728MOL0     C98210   3.955   1.537   4.577  0.4634 -0.1190 -0.3238
  728MOL0     C98211   4.338   1.488   3.866  0.8213 -0.1210  0.0668
  728MOL0     C98212   4.410   1.490   3.747  0.3322  0.7257 -0.1051
  728MOL0     H98213   4.710   1.382   3.347  1.0741 -0.6419 -0.7167
  728MOL0     H98214   4.807   1.433   3.135 -1.2798 -0.7205 -0.5937
  728MOL0     H98215   4.969   1.667   3.035  0.0497 -3.4521  0.9020
  728MOL0     H98216   4.897   1.541   2.934  2.7371 -0.3852 -1.5786
  728MOL0     H98217   5.046   1.691   2.802  0.1427 -1.0606 -1.2594
  728MOL0     H98218   4.892   1.667   2.741  1.5112  1.2153 -2.6179
  728MOL0     H98219   4.971   1.944   2.830 -0.7067 -0.2198 -0.5141
  728MOL0     H98220   4.947   1.862   2.670 -3.6160  0.9028 -1.0049
  728MOL0     H98221   4.701   1.803   2.726  3.7336 -1.3879 -4.2115
  728MOL0     H98222   4.736   1.903   2.876  2.0520  2.5256  0.3863
  728MOL0     H98223   4.820   2.008   2.614  0.1590 -0.5636  1.8867
  728MOL0     H98224   4.652   1.963   2.600  0.8693 -1.2884 -1.3982
  728MOL0     H98225   4.796   2.164   2.798 -1.0159  1.3509 -0.9092
  728MOL0     H98226   4.702   2.205   2.669  0.9832  0.6962 -0.1577
  728MOL0     H98227   4.602   2.082   2.914  1.5549 -2.7526 -2.5655
  728MOL0     H98228   4.583   2.250   2.848  3.5318  0.5776 -0.4877
  728MOL0     H98229   4.477   2.148   2.655 -0.2073  0.2611  0.0324
  728MOL0     H98230   4.371   2.173   2.793  2.4704  4.5287 -0.4220
  728MOL0     H98231   4.375   1.976   2.992  2.1670 -0.5470  0.1723
  728MOL0     H98232   4.404   1.597   2.978 -0.6824 -1.7859  2.3307
  728MOL0     H98233   4.359   1.724   3.084 -1.9407  0.1420  1.1201
  728MOL0     H98234   4.179   1.558   3.063  0.2576 -0.5068 -0.7087
  728MOL0     H98235   4.161   1.582   2.897  0.4769  0.3665  0.8711
  728MOL0     H98236   4.069   1.793   2.916  1.2269 -0.3596 -0.6632
  728MOL0     H98237   4.129   1.832   3.083 -1.2422  0.3539  0.8515
  728MOL0     H98238   3.918   1.651   2.997 -1.6346  2.0662 -0.8989
  728MOL0     H98239   3.881   1.793   3.071 -0.0290  0.8873  1.7825
  728MOL0     H98240   3.925   1.936   3.224  0.1017 -1.1591 -0.2131
  728MOL0     H98241   3.931   2.125   3.325 -3.5613  3.7180 -4.0889
  728MOL0     H98242   3.765   2.126   3.331  0.0322 -1.4865 -1.5529
  728MOL0     H98243   3.850   2.166   3.487 -1.0984  0.0525 -0.1942
  728MOL0     H98244   3.446   2.071   3.677 -0.2415 -3.1088 -1.1983
  728MOL0     H98245   3.313   2.161   3.841  1.8154  0.3394 -0.1652
  728MOL0     H98246   3.326   1.964   4.269  0.4444 -0.9648 -1.1325
  728MOL0     H98247   3.377   2.146   4.280 -0.8971 -0.2481  0.0812
  728MOL0     H98248   3.157   2.215   4.335 -4.5590 -1.0394  0.1030
  728MOL0     H98249   3.073   2.084   4.268 -1.6738  2.1821  0.9409
  728MOL0     H98250   3.241   2.070   4.518  0.3982 -0.0743 -0.4743
  728MOL0     H98251   3.159   1.932   4.446 -1.6255 -0.9601 -0.7761
  728MOL0     H98252   3.018   2.180   4.534  3.4881  0.5504 -2.1651
  728MOL0     H98253   2.947   2.047   4.447  0.3236 -1.9928  0.4843
  728MOL0     H98254   3.089   2.034   4.695  1.8360 -4.6527  2.8852
  728MOL0     H98255   3.009   1.888   4.625 -3.0038  0.8383 -0.4633
  728MOL0     H98256   2.871   2.127   4.740 -1.4580  0.9784  0.3579
  728MOL0     H98257   2.772   2.001   4.648  0.4410  1.4805 -1.2416
  728MOL0     H98258   2.923   1.914   4.879 -0.0171  4.2954  2.8405
  728MOL0     H98259   2.785   1.847   4.780  1.0012  1.4858 -3.0759
  728MOL0     H98260   2.630   2.018   4.893  0.3338 -2.3430 -0.1634
  728MOL0     H98261   2.786   2.077   4.966  0.9889 -1.6046  0.9430
  728MOL0     H98262   3.510   1.909   4.137  1.6865 -0.7617 -0.9419
  728MOL0     H98263   3.648   1.832   3.970 -0.2413 -0.0115 -0.9699
  728MOL0     H98264   3.745   1.681   3.605  2.1481 -1.8062 -0.3029
  728MOL0     H98265   3.837   1.570   3.419  2.9796  0.4064  1.5859
  728MOL0     H98266   4.587   1.816   3.135 -1.1404 -1.0711 -1.3601
  728MOL0     H98267   4.473   1.727   3.346 -1.7813  1.5694 -2.7342
  728MOL0     H98268   4.690   1.645   3.852  0.2090 -2.1220  3.8716
  728MOL0     H98269   4.577   1.640   4.055  0.6170  2.1623 -1.4868
  728MOL0     H98270   4.451   1.488   4.243  0.0654  1.5046  0.3149
  728MOL0     H98271   4.414   1.663   4.224 -1.2790  1.6070 -1.6196
  728MOL0     H98272   4.193   1.627   4.312  0.2177  0.2331  3.0726
  728MOL0     H98273   4.321   1.586   4.425  0.1614  0.1005  0.4043
  728MOL0     H98274   4.302   1.341   4.336  1.8482  1.9010 -0.0726
  728MOL0     H98275   4.144   1.385   4.278 -1.6125 -0.5075  2.3252
  728MOL0     H98276   4.240   1.385   4.569  3.2869  0.9258 -3.0461
  728MOL0     H98277   4.110   1.274   4.502  0.8478 -0.8837 -0.8096
  728MOL0     H98278   3.861   1.587   4.592 -0.0080 -1.0652 -0.0089
  728MOL0     H98279   4.241   1.440   3.871  0.2176  1.1692  2.2631
  728MOL0     H98280   4.364   1.440   3.662  0.0491  1.3545 -0.3257
  729MOL0     O98281   7.018  11.338   0.549  0.4481  0.0833  0.5048
  729MOL0     C98282   7.011  11.253   0.637 -0.1331  1.0736 -0.2958
  729MOL0     O98283   6.907  11.169   0.667  0.7413  0.0800 -0.1334
  729MOL0     C98284   6.779  11.187   0.627 -1.3270  0.7827  0.1208
  729MOL0     C98285   6.692  11.074   0.635 -0.7361 -0.0164  0.1835
  729MOL0     C98286   6.559  11.088   0.605 -0.0231  0.4056  0.2121
  729MOL0     C98287   6.508  11.206   0.551 -0.3531  0.2278  0.4699
  729MOL0     O98288   6.382  11.233   0.513 -0.1736 -0.4069  0.8449
  729MOL0     C98289   6.295  11.130   0.508 -0.8361  0.6590 -0.1695
  729MOL0     C98290   6.165  11.193   0.470  0.9439  0.2232 -0.8023
  729MOL0     C98291   6.066  11.226   0.593  0.7372 -0.3290 -0.3415
  729MOL0     C98292   5.980  11.110   0.629  0.0302  0.2140 -0.1257
  729MOL0     C98293   5.862  11.092   0.526 -0.6973 -0.6286 -0.6487
  729MOL0     C98294   5.747  11.014   0.612  0.5773 -0.1566  1.4913
  729MOL0     C98295   5.602  11.019   0.549 -0.2586 -0.1422 -0.1752
  729MOL0     C98296   5.564  11.169   0.533 -0.5041  0.8603 -0.8435
  729MOL0     N98297   5.588  11.246   0.653  0.2141  0.3150  0.4863
  729MOL0     C98298   5.678  11.351   0.655  0.3273  0.4420  0.2957
  729MOL0     C98299   5.636  11.438   0.753 -0.8765  1.1292  0.9662
  729MOL0     C98300   5.687  11.566   0.797 -0.0516  0.2115  0.2792
  729MOL0     C98301   5.841  11.593   0.797 -0.5070  0.1879  0.1141
  729MOL0     C98302   5.918  11.499   0.888  0.5466 -0.1466  0.3221
  729MOL0     C98303   6.069  11.508   0.894  0.1277  0.2455  0.1498
  729MOL0     O98304   6.100  11.384   0.958  0.4954  0.2806 -0.4516
  729MOL0     C98305   6.226  11.336   0.953  0.0260  0.7660  0.3048
  729MOL0     C98306   6.268  11.266   1.061 -0.5973  0.5526 -0.4093
  729MOL0     C98307   6.394  11.193   1.070 -0.1834 -0.7556 -0.1608
  729MOL0     C98308   6.419  11.102   1.202  0.1942 -0.1983 -0.2262
  729MOL0     C98309   6.498  11.217   0.975 -1.1460 -0.1832 -0.3075
  729MOL0     C98310   6.634  11.159   0.970 -0.5798  0.6244 -0.3692
  729MOL0     O98311   6.648  11.026   1.005 -0.6254  0.1362  0.1097
  729MOL0     C98312   6.777  10.979   1.027  0.3036  0.0435 -0.0204
  729MOL0     C98313   6.818  10.850   0.959  0.5922 -0.3510  0.5811
  729MOL0     C98314   6.936  10.801   1.000  0.2858  0.6408  0.0836
  729MOL0     C98315   7.022  10.861   1.085  0.3205 -0.1858  0.1129
  729MOL0     O98316   7.150  10.822   1.129 -0.4964  0.2715 -0.6203
  729MOL0     C98317   7.192  10.679   1.111 -0.5238  0.8902 -0.3929
  729MOL0     C98318   7.160  10.591   1.238 -0.1437  0.0599  0.6263
  729MOL0     C98319   7.210  10.446   1.205 -0.3466 -0.3049 -0.2993
  729MOL0     C98320   7.156  10.334   1.301 -0.1609  0.2968  0.8873
  729MOL0     C98321   7.258  10.229   1.328 -0.7890  0.7152 -0.0006
  729MOL0     C98322   7.214  10.154   1.448 -0.1721  0.1118 -0.4757
  729MOL0     C98323   7.305  10.038   1.469  0.5710 -0.3368 -0.0525
  729MOL0     C98324   7.275   9.974   1.602 -0.8016 -0.4022 -0.3157
  729MOL0    Cl98325   7.396   9.842   1.651 -0.2367 -0.2452 -0.3430
  729MOL0     C98326   6.990  10.984   1.131  0.0877  0.6653 -0.3049
  729MOL0     C98327   6.863  11.042   1.116 -0.2539 -0.0438  1.2387
  729MOL0     O98328   6.727  11.235   0.949  1.2874  0.2358  0.0275
  729MOL0     C98329   6.459  11.313   0.881  0.2017  0.1128  0.3167
  729MOL0     C98330   6.327  11.363   0.865 -0.1236  0.4443 -0.2601
  729MOL0     N98331   5.548  11.361   0.829 -0.5456 -0.0573 -0.1158
  729MOL0     N98332   5.511  11.248   0.769  0.0276 -0.0874  0.0234
  729MOL0     C98333   6.585  11.317   0.558  0.3401  0.7104 -0.6257
  729MOL0     C98334   6.722  11.305   0.597 -0.1386 -0.5859 -0.3168
  729MOL0     C98335   7.132  11.243   0.734 -0.1478 -0.5804  0.1300
  729MOL0     C98336   7.122  11.185   0.860 -1.6482  0.1659  0.3869
  729MOL0     C98337   7.233  11.163   0.941 -0.9658  0.4813 -0.0330
  729MOL0     C98338   7.354  11.214   0.914 -0.0301 -0.0451 -0.6215
  729MOL0     O98339   7.470  11.194   0.994  0.6759  0.3230 -0.3744
  729MOL0     C98340   7.469  11.109   1.107  0.6602 -0.2596  1.0028
  729MOL0     C98341   7.392  11.186   1.225 -0.4878 -0.5092 -0.4545
  729MOL0     C98342   7.417  11.103   1.360 -0.1821 -0.1719  0.9162
  729MOL0     C98343   7.340  11.149   1.481  0.0713 -0.7170 -0.6781
  729MOL0     C98344   7.383  11.068   1.597  0.6442 -0.1618  0.8396
  729MOL0     C98345   7.412  10.987   1.682 -0.4543 -0.0780  0.2918
  729MOL0     C98346   7.361  11.296   0.796  0.1278 -0.0460 -1.0657
  729MOL0     C98347   7.253  11.299   0.708 -0.0712 -0.1126  0.2692
  729MOL0     H98348   6.734  10.980   0.669  1.9169  0.3562 -1.7431
  729MOL0     H98349   6.492  11.005   0.623 -2.0150  2.2587  1.8588
  729MOL0     H98350   6.317  11.075   0.416 -0.1995  1.5665 -0.5775
  729MOL0     H98351   6.288  11.075   0.602 -0.8205  1.3855  0.2620
  729MOL0     H98352   6.165  11.283   0.407 -0.9822  0.0443 -1.1324
  729MOL0     H98353   6.114  11.123   0.404  1.4188  1.3555 -2.4335
  729MOL0     H98354   6.132  11.255   0.675  1.4233 -1.8161 -0.3330
  729MOL0     H98355   6.005  11.311   0.563 -2.4110 -1.8817  1.1621
  729MOL0     H98356   6.047  11.024   0.624  2.7173  2.0996  1.2962
  729MOL0     H98357   5.952  11.111   0.735  2.2203 -0.7540  0.5063
  729MOL0     H98358   5.825  11.183   0.477 -0.9405 -0.5501 -0.3272
  729MOL0     H98359   5.902  11.035   0.442  1.5267  2.2086 -1.7065
  729MOL0     H98360   5.791  10.913   0.610 -1.7144 -1.3806 -4.2848
  729MOL0     H98361   5.748  11.047   0.717 -2.9941  0.4046  1.4695
  729MOL0     H98362   5.601  10.968   0.452 -0.0006  0.0887 -0.3007
  729MOL0     H98363   5.528  10.970   0.613 -1.1387 -1.1682 -1.9062
  729MOL0     H98364   5.456  11.180   0.515 -0.6756 -1.1489 -1.2461
  729MOL0     H98365   5.615  11.198   0.440  1.2479 -0.7094 -0.4139
  729MOL0     H98366   5.750  11.366   0.575 -0.2764  1.2025 -0.1162
  729MOL0     H98367   5.636  11.624   0.720 -0.0224 -4.4220 -3.7279
  729MOL0     H98368   5.643  11.586   0.895 -1.0330 -3.8464  0.8740
  729MOL0     H98369   5.856  11.698   0.824 -2.3510  0.5537 -0.1225
  729MOL0     H98370   5.890  11.587   0.699 -0.7414  1.4832 -0.1076
  729MOL0     H98371   5.888  11.398   0.858 -0.9931 -0.9251  3.9611
  729MOL0     H98372   5.880  11.518   0.989  1.2660  0.8755  0.4119
  729MOL0     H98373   6.111  11.592   0.950 -0.1567 -1.1256  2.5260
  729MOL0     H98374   6.094  11.505   0.787 -1.3570  0.4083 -0.2196
  729MOL0     H98375   6.213  11.266   1.155  2.4208  0.1341  1.4706
  729MOL0     H98376   6.328  11.084   1.260  0.3495 -1.1450 -0.2494
  729MOL0     H98377   6.435  10.998   1.171 -1.2372  0.1323 -2.2003
  729MOL0     H98378   6.499  11.133   1.271  2.2385 -1.5401 -1.8510
  729MOL0     H98379   6.751  10.796   0.892  2.2868 -0.6345 -0.9621
  729MOL0     H98380   6.960  10.704   0.959 -1.2386  0.0355  0.5391
  729MOL0     H98381   7.159  10.632   1.018  0.8183  0.7082 -0.7970
  729MOL0     H98382   7.297  10.684   1.080  0.2548  1.1387  2.1095
  729MOL0     H98383   7.215  10.632   1.323  0.6025 -0.0562  0.2133
  729MOL0     H98384   7.056  10.591   1.272  0.6384 -1.3004  3.2079
  729MOL0     H98385   7.319  10.449   1.209  0.1077 -3.2052 -4.3399
  729MOL0     H98386   7.194  10.431   1.098  4.0414  0.2100 -1.1986
  729MOL0     H98387   7.132  10.376   1.399 -3.4102 -0.7079  0.6381
  729MOL0     H98388   7.062  10.296   1.262  0.7773  0.4153 -1.6556
  729MOL0     H98389   7.355  10.277   1.345  0.3293 -0.6367 -2.0741
  729MOL0     H98390   7.279  10.165   1.242  1.6055  0.3613  0.7642
  729MOL0     H98391   7.221  10.228   1.529 -4.0155  2.0421 -1.6675
  729MOL0     H98392   7.112  10.114   1.445 -0.3411  0.5828 -1.8884
  729MOL0     H98393   7.409  10.070   1.460  0.3170  0.6475  0.4378
  729MOL0     H98394   7.289   9.968   1.386  2.5029  0.9826 -1.6389
  729MOL0     H98395   7.177   9.927   1.612 -0.1487 -1.2834  4.1069
  729MOL0     H98396   7.267  10.055   1.675 -1.5083  0.1077 -0.9408
  729MOL0     H98397   7.059  11.037   1.196  0.9531 -1.1231  0.3135
  729MOL0     H98398   6.844  11.134   1.170  0.5273  0.0550  1.3631
  729MOL0     H98399   6.530  11.356   0.811 -1.3924  1.5332 -0.4968
  729MOL0     H98400   6.311  11.443   0.793  1.1763 -0.1607 -1.2737
  729MOL0     H98401   6.535  11.413   0.547 -0.1888  0.4740 -0.2940
  729MOL0     H98402   6.787  11.392   0.594  1.6057 -1.7855  0.7072
  729MOL0     H98403   7.021  11.146   0.876 -1.3821 -1.3961 -1.4087
  729MOL0     H98404   7.200  11.105   1.027 -2.0091 -2.1073 -2.0594
  729MOL0     H98405   7.421  11.012   1.089 -3.0401  1.6699 -0.7876
  729MOL0     H98406   7.573  11.095   1.137  0.9872 -0.7648 -0.2952
  729MOL0     H98407   7.283  11.189   1.212 -0.4070  0.3500 -1.0384
  729MOL0     H98408   7.424  11.290   1.231  1.9644 -1.2927  1.1482
  729MOL0     H98409   7.523  11.110   1.387 -0.3150 -0.1122  1.4348
  729MOL0     H98410   7.393  10.998   1.340  3.3651 -0.4245 -3.8234
  729MOL0     H98411   7.233  11.145   1.458  0.1284 -1.9791 -0.7603
  729MOL0     H98412   7.358  11.255   1.503  1.5995 -0.7313 -1.6769
  729MOL0     H98413   7.451  10.903   1.735 -0.8192 -1.5973 -1.7048
  729MOL0     H98414   7.454  11.345   0.769 -0.0062  1.3840  0.8520
  729MOL0     H98415   7.282  11.347   0.615 -0.1804  0.5277  0.5595
  730MOL0     O98416   1.165   2.395  10.759 -0.1914  0.2816 -0.0291
  730MOL0     C98417   1.108   2.405  10.862  0.0331 -0.3610 -0.2874
  730MOL0     O98418   0.996   2.479  10.883  0.4614 -0.1484  0.5261
  730MOL0     C98419   0.895   2.492  10.778  0.0757 -0.0438 -0.9796
  730MOL0     C98420   0.813   2.600  10.801 -0.5079  0.0873  1.0350
  730MOL0     C98421   0.703   2.616  10.708 -0.2574 -0.8072 -0.3834
  730MOL0     C98422   0.670   2.524  10.603 -0.4920  0.0143  0.5578
  730MOL0     O98423   0.560   2.548  10.528 -0.2150 -0.5764 -0.3826
  730MOL0     C98424   0.568   2.500  10.395  0.0561 -0.7644 -0.2371
  730MOL0     C98425   0.479   2.564  10.294  0.0228  1.1659 -0.0751
  730MOL0     C98426   0.478   2.715  10.324  0.4553  0.5725  0.0827
  730MOL0     C98427   0.399   2.815  10.226  0.7353  0.2500  0.0359
  730MOL0     C98428   0.456   2.802  10.082  0.4302 -0.9400  0.0544
  730MOL0     C98429   0.367   2.876   9.966  0.0935 -0.0865 -0.2860
  730MOL0     C98430   0.434   2.995   9.899  0.1583 -0.6028  0.2883
  730MOL0     C98431   0.473   3.102   9.998 -0.1655  0.0924 -0.3415
  730MOL0     N98432   0.493   3.235   9.947  0.3014 -0.4517 -0.1792
  730MOL0     C98433   0.599   3.316   9.973  0.0758  0.5891 -1.3480
  730MOL0     C98434   0.593   3.421   9.890  0.3526 -0.3070  0.4089
  730MOL0     C98435   0.692   3.536   9.874 -0.2573 -0.2912 -0.1385
  730MOL0     C98436   0.662   3.626  10.001  0.0127  0.3103 -0.7718
  730MOL0     C98437   0.545   3.731   9.976  0.0868  0.5333 -1.0652
  730MOL0     C98438   0.502   3.754   9.831  0.2486 -0.2450  0.4892
  730MOL0     O98439   0.414   3.865   9.819 -0.2382 -0.1683 -0.8907
  730MOL0     C98440   0.374   3.893   9.689 -0.1595  0.1267 -0.0937
  730MOL0     C98441   0.284   3.999   9.670  0.4630 -1.0874  0.4637
  730MOL0     C98442   0.235   4.035   9.545  0.2026  0.9023  1.0601
  730MOL0     C98443   0.125   4.141   9.541  0.1101  0.2628  0.4500
  730MOL0     C98444   0.297   3.977   9.421 -0.8472 -0.2110 -0.1599
  730MOL0     C98445   0.272   4.018   9.287 -0.1696 -0.9978  0.4349
  730MOL0     O98446   0.137   4.033   9.258 -0.0097 -0.2420 -0.3060
  730MOL0     C98447   0.097   4.031   9.128 -0.3760 -0.0432 -0.7165
  730MOL0     C98448   0.036   4.144   9.070  0.0808  0.2200  0.6468
  730MOL0     C98449  -0.011   4.132   8.934 -0.7890  0.3992  0.8433
  730MOL0     C98450   0.012   4.024   8.857 -0.7284  0.9367  0.8989
  730MOL0     O98451  -0.030   4.017   8.720 -0.4268 -0.1880  0.1011
  730MOL0     C98452   0.031   3.916   8.633 -1.2472  0.5250 -0.1290
  730MOL0     C98453   0.005   3.937   8.486 -0.3580 -0.1324 -0.0023
  730MOL0     C98454   0.095   3.852   8.389  0.9158  0.4635 -0.6437
  730MOL0     C98455   0.124   3.926   8.264  0.2134  0.3699  0.1123
  730MOL0     C98456   0.242   3.841   8.199  0.3034  0.1798  0.2697
  730MOL0     C98457   0.199   3.703   8.145  0.5376 -0.6328 -0.1670
  730MOL0     C98458   0.300   3.623   8.075  1.1679  0.0619 -0.6840
  730MOL0     C98459   0.373   3.530   8.172 -0.0118  0.0774  0.4638
  730MOL0    Cl98460   0.492   3.443   8.069 -0.4401 -0.0429  0.1891
  730MOL0     C98461   0.075   3.911   8.919  0.0014 -0.5416  1.2922
  730MOL0     C98462   0.115   3.914   9.049 -0.0949 -0.6947  0.8285
  730MOL0     O98463   0.361   4.009   9.205  0.5676 -0.3179  0.0032
  730MOL0     C98464   0.395   3.879   9.436  0.1706 -0.4315 -0.1338
  730MOL0     C98465   0.432   3.832   9.569  0.2390 -0.8838 -0.1339
  730MOL0     N98466   0.475   3.402   9.820  0.4700  0.0140 -1.0015
  730MOL0     N98467   0.407   3.301   9.855 -0.5632  0.7575 -0.3237
  730MOL0     C98468   0.764   2.414  10.595  1.0418 -0.0044  0.1535
  730MOL0     C98469   0.869   2.397  10.682 -0.7289  0.3410  0.0248
  730MOL0     C98470   1.174   2.367  10.989 -0.3655  0.0405 -0.5101
  730MOL0     C98471   1.309   2.315  11.000 -0.0678 -0.0145 -0.8931
  730MOL0     C98472   1.370   2.293  11.124 -0.0058 -0.2175 -0.6827
  730MOL0     C98473   1.304   2.323  11.243  0.2571 -0.5055  0.0176
  730MOL0     O98474   1.345   2.316  11.380  0.0140  0.5574 -0.5689
  730MOL0     C98475   1.479   2.292  11.419 -0.3609 -0.1355 -0.2595
  730MOL0     C98476   1.502   2.138  11.430 -0.4571 -0.3177  0.2614
  730MOL0     C98477   1.649   2.102  11.445 -0.9911  0.0494 -1.0794
  730MOL0     C98478   1.713   2.186  11.558 -0.2363  0.2576 -0.2938
  730MOL0     C98479   1.652   2.164  11.691 -0.6735  0.4086  0.3718
  730MOL0     C98480   1.614   2.144  11.803  1.3831 -0.1119  0.4144
  730MOL0     C98481   1.172   2.371  11.233 -0.1480  1.0255 -0.8435
  730MOL0     C98482   1.105   2.386  11.107 -0.5366 -0.4025 -0.6852
  730MOL0     H98483   0.834   2.670  10.880  0.4484  0.0015  0.8623
  730MOL0     H98484   0.647   2.707  10.726  0.9846 -0.5413  2.8191
  730MOL0     H98485   0.665   2.525  10.351  0.7361  3.2289  2.8810
  730MOL0     H98486   0.551   2.393  10.407  2.3189 -1.0584  0.9197
  730MOL0     H98487   0.484   2.532  10.190  0.0649  1.2616 -0.1025
  730MOL0     H98488   0.379   2.529  10.323 -0.7436  1.6537 -1.9999
  730MOL0     H98489   0.437   2.739  10.422  2.1592 -1.1978  1.3000
  730MOL0     H98490   0.581   2.753  10.322  1.1871 -1.2422  1.3601
  730MOL0     H98491   0.292   2.790  10.230  0.2376  1.8815 -1.5629
  730MOL0     H98492   0.420   2.918  10.254  0.4521  0.9913 -2.2577
  730MOL0     H98493   0.555   2.847  10.072  0.1356 -0.1835  0.4911
  730MOL0     H98494   0.463   2.699  10.047 -1.7954 -2.3940  3.4168
  730MOL0     H98495   0.334   2.802   9.892 -1.8891  1.2433 -0.7970
  730MOL0     H98496   0.285   2.915  10.027  2.1290  0.9820  1.9762
  730MOL0     H98497   0.518   2.978   9.831 -0.0789  1.0303 -0.4435
  730MOL0     H98498   0.357   3.047   9.842 -1.0190 -0.2632  2.0809
  730MOL0     H98499   0.555   3.065  10.059 -1.9616 -1.0188  1.5129
  730MOL0     H98500   0.399   3.119  10.076  0.1508  0.3763 -0.1017
  730MOL0     H98501   0.678   3.279  10.036 -1.3966 -1.2823 -0.5020
  730MOL0     H98502   0.796   3.503   9.869 -0.4124 -0.6643 -1.3143
  730MOL0     H98503   0.674   3.571   9.772  0.7983 -0.1332 -0.2790
  730MOL0     H98504   0.750   3.689  10.019 -0.4930  0.4643  1.5189
  730MOL0     H98505   0.651   3.570  10.094 -1.1987 -0.4320 -1.3307
  730MOL0     H98506   0.557   3.826  10.029  0.3833  0.4979 -1.0647
  730MOL0     H98507   0.458   3.697  10.034  1.2675  1.5012  1.4404
  730MOL0     H98508   0.451   3.666   9.793  1.5071  0.4956 -3.3506
  730MOL0     H98509   0.589   3.772   9.768 -0.3762 -0.2452 -0.3910
  730MOL0     H98510   0.243   4.054   9.754 -1.6347  1.1707 -1.8620
  730MOL0     H98511   0.027   4.103   9.512  1.9883 -2.2798 -3.4342
  730MOL0     H98512   0.112   4.183   9.641 -1.9124  4.1315 -1.1978
  730MOL0     H98513   0.155   4.223   9.475  0.4007  0.0819  0.3553
  730MOL0     H98514   0.025   4.238   9.123  0.8041  0.8310 -0.2394
  730MOL0     H98515  -0.060   4.217   8.888  0.9363  1.6341  1.1647
  730MOL0     H98516   0.138   3.908   8.653 -1.6969 -3.3491  1.5039
  730MOL0     H98517  -0.004   3.815   8.655  0.1408  0.3265  1.3934
  730MOL0     H98518  -0.102   3.915   8.477 -1.6295  4.5645  1.2787
  730MOL0     H98519   0.022   4.039   8.453 -1.0760  1.6845  4.4749
  730MOL0     H98520   0.025   3.776   8.355  0.2845  0.8354 -0.2052
  730MOL0     H98521   0.176   3.805   8.445  0.9396 -1.0889 -1.9263
  730MOL0     H98522   0.043   3.932   8.192  0.6160 -0.6381 -0.4351
  730MOL0     H98523   0.172   4.023   8.284  0.9611 -0.0760  0.5448
  730MOL0     H98524   0.316   3.817   8.275 -0.6318 -1.8734  0.5942
  730MOL0     H98525   0.280   3.913   8.125  0.2159  0.1704  0.2146
  730MOL0     H98526   0.150   3.648   8.226 -0.4425 -0.2425 -0.4717
  730MOL0     H98527   0.118   3.730   8.076 -2.1165  1.6357  3.5071
  730MOL0     H98528   0.370   3.698   8.037  0.5339  0.1814 -1.6252
  730MOL0     H98529   0.258   3.568   7.991  0.3276  2.7976 -2.1724
  730MOL0     H98530   0.304   3.458   8.217  2.8831 -3.1779  0.1497
  730MOL0     H98531   0.427   3.592   8.244  1.1535  3.3392 -2.9114
  730MOL0     H98532   0.079   3.815   8.868 -1.4226  0.0250  0.0494
  730MOL0     H98533   0.167   3.824   9.081 -0.9599 -1.4934  0.0559
  730MOL0     H98534   0.445   3.835   9.350  1.2059  1.1226 -0.3890
  730MOL0     H98535   0.506   3.753   9.580  2.2837  1.0984  1.1501
  730MOL0     H98536   0.745   2.334  10.525 -2.2616  0.4389  0.3618
  730MOL0     H98537   0.930   2.309  10.666  2.6280  2.6399 -1.0160
  730MOL0     H98538   1.376   2.289  10.919  1.9298  0.6497  0.4486
  730MOL0     H98539   1.469   2.250  11.128  0.1900  0.1719 -1.1976
  730MOL0     H98540   1.555   2.336  11.354 -1.4627 -0.3950 -1.7648
  730MOL0     H98541   1.485   2.343  11.516 -0.4828 -0.7537  0.0829
  730MOL0     H98542   1.472   2.094  11.334  0.7868  0.6340 -0.5960
  730MOL0     H98543   1.429   2.085  11.492 -3.2747 -0.6785 -3.0470
  730MOL0     H98544   1.689   2.121  11.345  1.9746 -1.3886 -0.2614
  730MOL0     H98545   1.670   1.997  11.465 -1.3172  0.6985  3.8056
  730MOL0     H98546   1.709   2.294  11.539 -0.9650  0.0178 -1.6937
  730MOL0     H98547   1.819   2.160  11.562  0.5424  2.8806 -1.5268
  730MOL0     H98548   1.580   2.112  11.900  1.6036 -0.6974  0.2992
  730MOL0     H98549   1.131   2.382  11.332  4.5662 -2.5025  1.9265
  730MOL0     H98550   0.999   2.410  11.113 -0.3333  0.3084  0.2855
  731MOL0     O98551   3.460   6.354   9.471  0.9845  0.9855  0.6052
  731MOL0     C98552   3.535   6.349   9.370  0.5895 -0.0856 -0.1699
  731MOL0     O98553   3.602   6.459   9.315  0.5975  0.1762 -0.3584
  731MOL0     C98554   3.600   6.576   9.377  0.8634 -0.6880  0.0257
  731MOL0     C98555   3.719   6.650   9.384  0.9945 -0.1982 -0.5324
  731MOL0     C98556   3.726   6.780   9.439  0.0019 -0.1034 -0.2425
  731MOL0     C98557   3.611   6.837   9.496 -0.2492 -0.2980 -0.0253
  731MOL0     O98558   3.609   6.959   9.553  0.0712  0.6634 -0.5164
  731MOL0     C98559   3.706   7.061   9.506 -0.0395 -1.0375 -0.4113
  731MOL0     C98560   3.666   7.197   9.573  0.7270 -0.3693  1.2498
  731MOL0     C98561   3.528   7.247   9.505  0.0832  0.0851 -1.2167
  731MOL0     C98562   3.466   7.351   9.592  0.0472  0.1120 -0.3925
  731MOL0     C98563   3.556   7.473   9.621  0.6330 -0.4357  0.1053
  731MOL0     C98564   3.549   7.578   9.503 -0.4258 -0.3720  0.1892
  731MOL0     C98565   3.636   7.707   9.500 -0.5313  0.6433 -0.4257
  731MOL0     C98566   3.783   7.678   9.478  0.2517  0.1427 -0.2676
  731MOL0     N98567   3.821   7.658   9.341 -0.8745 -0.7438  0.4369
  731MOL0     C98568   3.859   7.540   9.288  0.2745  1.0792  0.1991
  731MOL0     C98569   3.883   7.581   9.156  0.6630  0.1081  0.2307
  731MOL0     C98570   3.955   7.509   9.041  0.3095 -1.1203  0.6868
  731MOL0     C98571   4.000   7.369   9.076 -0.1536  0.4018 -0.2840
  731MOL0     C98572   4.124   7.327   8.997  0.5162 -0.5248  0.3538
  731MOL0     C98573   4.150   7.184   9.037 -0.4796  0.1707 -0.1954
  731MOL0     O98574   4.205   7.160   9.170  0.0654  0.2431  0.5449
  731MOL0     C98575   4.185   7.038   9.227 -0.6673 -0.2714 -0.2499
  731MOL0     C98576   4.182   7.040   9.369 -0.9209  0.2103  0.3079
  731MOL0     C98577   4.190   6.924   9.454 -0.4445 -0.6451  0.4328
  731MOL0     C98578   4.197   6.947   9.599  0.4148  0.5878 -0.0503
  731MOL0     C98579   4.178   6.793   9.382  0.0771 -0.2870  0.1155
  731MOL0     C98580   4.209   6.653   9.445 -0.1267 -0.3748 -1.3474
  731MOL0     O98581   4.222   6.650   9.584  0.5829  0.0551  0.5462
  731MOL0     C98582   4.282   6.538   9.624 -0.7348 -0.0335  0.2454
  731MOL0     C98583   4.206   6.462   9.721 -0.6777 -0.2555  0.5656
  731MOL0     C98584   4.244   6.337   9.758 -0.6251  0.2647 -0.4097
  731MOL0     C98585   4.369   6.280   9.709 -0.2917 -0.2077  0.0780
  731MOL0     O98586   4.399   6.147   9.739  0.3433 -0.1717 -1.0302
  731MOL0     C98587   4.333   6.087   9.856  0.2175  0.1564 -0.5223
  731MOL0     C98588   4.398   5.949   9.888 -0.0421  0.5635  1.3777
  731MOL0     C98589   4.554   5.984   9.912  0.9989 -0.7281  0.8233
  731MOL0     C98590   4.633   5.855   9.923 -0.4644  0.4070 -0.6961
  731MOL0     C98591   4.784   5.872   9.969 -1.2954  0.3283  0.1511
  731MOL0     C98592   4.860   5.952   9.869 -1.0074  0.8263 -0.7767
  731MOL0     C98593   4.997   5.965   9.927 -0.1926  0.9517  0.9537
  731MOL0     C98594   5.086   5.852   9.896 -0.1205 -0.2020  0.0189
  731MOL0    Cl98595   5.253   5.899   9.971 -0.1780  0.1218  0.4097
  731MOL0     C98596   4.451   6.360   9.629 -0.0624 -0.8230 -0.7474
  731MOL0     C98597   4.410   6.494   9.595  0.3981  1.0364  0.3551
  731MOL0     O98598   4.218   6.557   9.369  0.2828  0.3802  0.5470
  731MOL0     C98599   4.156   6.799   9.253  0.3708 -0.0220  0.2979
  731MOL0     C98600   4.157   6.910   9.172 -1.0658  0.1106 -0.2393
  731MOL0     N98601   3.863   7.722   9.143 -0.0177  1.2606  0.1427
  731MOL0     N98602   3.832   7.767   9.254 -0.6880  0.9079 -0.0420
  731MOL0     C98603   3.493   6.772   9.483  0.6304 -0.0701 -0.3904
  731MOL0     C98604   3.489   6.643   9.433 -0.1050  0.4907 -0.9312
  731MOL0     C98605   3.535   6.231   9.295 -0.2889 -0.1639  0.0833
  731MOL0     C98606   3.634   6.210   9.198  0.3340  0.0318 -0.2877
  731MOL0     C98607   3.628   6.097   9.111  0.3221 -0.2530  0.2556
  731MOL0     C98608   3.526   6.002   9.124 -0.0541 -0.2681 -0.0812
  731MOL0     O98609   3.509   5.901   9.028 -0.9177  0.6844  0.5735
  731MOL0     C98610   3.400   5.810   9.043  0.2516 -0.6958  1.4709
  731MOL0     C98611   3.409   5.718   8.928 -0.8756 -1.2422  0.3105
  731MOL0     C98612   3.266   5.677   8.890 -0.0445 -0.3923 -0.6027
  731MOL0     C98613   3.273   5.580   8.771 -0.5837  1.1128  0.2691
  731MOL0     C98614   3.141   5.563   8.706 -0.3468 -0.2901  1.0072
  731MOL0     C98615   3.042   5.541   8.650  0.7795  0.1364 -0.7001
  731MOL0     C98616   3.434   6.015   9.224 -0.1660 -0.3210 -1.1292
  731MOL0     C98617   3.444   6.127   9.318  0.8238  0.0253  0.3971
  731MOL0     H98618   3.800   6.608   9.325 -0.4463 -0.7706 -2.1768
  731MOL0     H98619   3.820   6.835   9.432  0.1129 -0.4014 -1.3159
  731MOL0     H98620   3.808   7.032   9.535 -0.3856 -0.7400  1.2022
  731MOL0     H98621   3.702   7.072   9.397 -3.5398 -1.9457 -0.4790
  731MOL0     H98622   3.655   7.183   9.681  1.3719  2.0919  1.7030
  731MOL0     H98623   3.743   7.272   9.552  1.7462 -1.9364 -0.9946
  731MOL0     H98624   3.545   7.275   9.401  1.6726  0.6565 -0.8439
  731MOL0     H98625   3.468   7.156   9.502  0.9920 -1.1177  4.7104
  731MOL0     H98626   3.370   7.395   9.564 -2.0319 -1.7414  3.0796
  731MOL0     H98627   3.442   7.306   9.689  0.5245 -0.0646 -0.3542
  731MOL0     H98628   3.527   7.530   9.710  4.3996  0.3099  1.0288
  731MOL0     H98629   3.663   7.452   9.625  0.5691 -2.4624 -3.8717
  731MOL0     H98630   3.564   7.528   9.407 -1.8196 -0.2599 -0.1035
  731MOL0     H98631   3.446   7.615   9.508 -0.6499 -1.0274  0.4894
  731MOL0     H98632   3.608   7.775   9.419 -0.9833  3.1207  1.7030
  731MOL0     H98633   3.625   7.758   9.596  0.2249 -1.0255  0.5908
  731MOL0     H98634   3.834   7.598   9.532  1.8098  0.8572 -0.6214
  731MOL0     H98635   3.837   7.766   9.514  4.1104 -3.0450  2.5606
  731MOL0     H98636   3.876   7.437   9.316 -0.1794 -0.0484 -3.1631
  731MOL0     H98637   3.877   7.487   8.968  1.2205  0.1309 -0.7002
  731MOL0     H98638   4.036   7.569   8.999 -0.8748  1.5437  1.9825
  731MOL0     H98639   3.912   7.307   9.055  0.0956 -0.6890  1.6895
  731MOL0     H98640   4.034   7.356   9.179  5.0092  1.6477 -1.5246
  731MOL0     H98641   4.212   7.388   9.019 -0.7163  0.8126  1.7525
  731MOL0     H98642   4.097   7.339   8.891 -0.4729 -4.7051 -0.0568
  731MOL0     H98643   4.218   7.147   8.960  1.0174  5.1676 -1.6822
  731MOL0     H98644   4.053   7.136   9.020 -0.8404 -0.2149  2.5133
  731MOL0     H98645   4.190   7.135   9.421 -1.8904 -0.2987  1.4286
  731MOL0     H98646   4.281   6.887   9.634 -0.9596 -1.1390  0.4475
  731MOL0     H98647   4.219   7.051   9.626  2.1580  0.6425 -1.5138
  731MOL0     H98648   4.105   6.917   9.650  1.2188  0.8407  1.6336
  731MOL0     H98649   4.109   6.504   9.745 -1.7627 -1.2325 -1.7818
  731MOL0     H98650   4.165   6.285   9.811 -2.3730  1.9221 -1.2790
  731MOL0     H98651   4.332   6.140   9.952 -0.3576  0.2917 -0.5972
  731MOL0     H98652   4.228   6.079   9.828  0.1843  2.7174 -1.3981
  731MOL0     H98653   4.358   5.918   9.986 -1.8252 -1.9452 -0.0228
  731MOL0     H98654   4.382   5.870   9.814  0.8358 -0.5967  2.3845
  731MOL0     H98655   4.556   6.043  10.004 -1.8159 -0.5121  0.8495
  731MOL0     H98656   4.589   6.042   9.827 -0.6581  0.1892  0.7090
  731MOL0     H98657   4.590   5.798  10.007  0.3042  4.0790  2.4576
  731MOL0     H98658   4.620   5.806   9.826  1.4210  1.8059 -1.7106
  731MOL0     H98659   4.838   5.778   9.983  1.4801  1.7246 -0.4656
  731MOL0     H98660   4.797   5.908  10.072  3.0768 -0.0819 -0.0916
  731MOL0     H98661   4.854   5.899   9.774 -0.1523 -0.9173  0.0848
  731MOL0     H98662   4.814   6.050   9.857 -1.2130  0.5933 -1.9986
  731MOL0     H98663   5.010   5.980  10.035  3.5515 -2.8118  1.2974
  731MOL0     H98664   5.056   6.045   9.882  0.7572  1.2829  2.6835
  731MOL0     H98665   5.092   5.827   9.790 -1.7813  0.8260 -0.3583
  731MOL0     H98666   5.057   5.759   9.947 -1.4213 -1.0123 -2.0631
  731MOL0     H98667   4.551   6.321   9.611  1.6531  3.0276 -0.5882
  731MOL0     H98668   4.477   6.557   9.538 -0.7177  0.1797 -2.0671
  731MOL0     H98669   4.156   6.703   9.202  1.6239 -0.0374  0.2793
  731MOL0     H98670   4.163   6.904   9.064  1.7574 -1.4956 -0.0948
  731MOL0     H98671   3.396   6.807   9.519 -0.7917 -5.7056  2.5571
  731MOL0     H98672   3.394   6.592   9.445 -0.4547  1.2680 -0.3464
  731MOL0     H98673   3.710   6.286   9.185  0.0914  0.1174 -1.3271
  731MOL0     H98674   3.695   6.091   9.026  0.4142  2.9796 -0.0134
  731MOL0     H98675   3.401   5.758   9.139  0.9160 -1.2840  1.1499
  731MOL0     H98676   3.307   5.866   9.031  1.8649  1.7129 -1.4843
  731MOL0     H98677   3.478   5.633   8.930 -1.3375 -1.6043  1.7734
  731MOL0     H98678   3.440   5.780   8.844  1.1893 -2.3710  0.1772
  731MOL0     H98679   3.209   5.768   8.869  1.2694  0.9657  1.3407
  731MOL0     H98680   3.223   5.625   8.976 -2.9942 -1.4575 -2.5527
  731MOL0     H98681   3.329   5.491   8.800  1.9982  3.0601  1.7658
  731MOL0     H98682   3.331   5.628   8.691  0.6409  2.0470  1.6655
  731MOL0     H98683   2.960   5.528   8.583 -0.4159  2.4606  0.2019
  731MOL0     H98684   3.363   5.935   9.242 -1.8843  1.2479 -0.5637
  731MOL0     H98685   3.363   6.126   9.390  0.2034 -1.0236 -0.2857
  732MOL0     O98686  11.339   0.094   9.102  1.0090  0.0125  0.2404
  732MOL0     C98687  11.228   0.131   9.066 -0.0349 -0.9515 -1.3459
  732MOL0     O98688  11.203   0.186   8.954  0.8339 -0.2496 -0.4221
  732MOL0     C98689  11.291   0.212   8.853  0.1761 -0.4036  0.4021
  732MOL0     C98690  11.301   0.343   8.787  0.9523  0.2901  1.0585
  732MOL0     C98691  11.374   0.363   8.674  0.2105 -0.3424  0.2583
  732MOL0     C98692  11.455   0.254   8.626  0.6218  0.0249 -0.4257
  732MOL0     O98693  11.535   0.263   8.515 -0.1365 -0.2038 -0.5273
  732MOL0     C98694  11.483   0.337   8.404 -0.1574 -0.3406 -0.2324
  732MOL0     C98695  11.351   0.281   8.340  0.4885  0.7026 -1.0651
  732MOL0     C98696  11.292   0.353   8.217 -0.5227  0.0679  0.2022
  732MOL0     C98697  11.141   0.349   8.195  0.2638  0.2217 -0.2819
  732MOL0     C98698  11.106   0.214   8.138 -0.1228  0.2275 -0.0428
  732MOL0     C98699  10.953   0.204   8.122  0.5636 -0.2362  0.4844
  732MOL0     C98700  10.924   0.139   7.984  0.0492 -0.3872 -0.1891
  732MOL0     C98701  10.783   0.066   7.978  0.1973 -1.1591  0.3712
  732MOL0     N98702  10.772   0.016   7.843  0.5498  0.2660 -0.2969
  732MOL0     C98703  10.844  -0.095   7.795  0.3233 -1.1054 -0.3239
  732MOL0     C98704  10.804  -0.103   7.663 -0.4424  0.8117 -0.7707
  732MOL0     C98705  10.849  -0.204   7.567  0.2441  0.8373  1.0476
  732MOL0     C98706  10.800  -0.345   7.600  0.9385 -0.2337  1.1894
  732MOL0     C98707  10.654  -0.377   7.574 -0.3913 -0.1149 -1.0713
  732MOL0     C98708  10.609  -0.389   7.427  0.4367 -0.1368 -0.3362
  732MOL0     O98709  10.589  -0.252   7.375 -0.0123 -0.0183 -0.1784
  732MOL0     C98710  10.619  -0.228   7.252  0.5251 -0.4817 -0.3187
  732MOL0     C98711  10.657  -0.313   7.153 -0.0100  0.3010 -0.4897
  732MOL0     C98712  10.671  -0.263   7.021 -0.1804 -0.0114  0.3007
  732MOL0     C98713  10.721  -0.360   6.923  0.5183  0.8845 -0.4199
  732MOL0     C98714  10.655  -0.127   6.986 -1.1255  0.6410  0.1342
  732MOL0     C98715  10.670  -0.062   6.857 -0.0968  0.4828  0.5409
  732MOL0     O98716  10.705   0.063   6.835  0.4315 -1.4427  0.8954
  732MOL0     C98717  10.737   0.109   6.705 -0.2887  0.5358  0.7623
  732MOL0     C98718  10.837   0.209   6.697  1.1916 -1.0515 -0.9996
  732MOL0     C98719  10.881   0.266   6.574 -0.0162  0.0038 -0.1127
  732MOL0     C98720  10.821   0.229   6.454  0.2347  0.5741 -0.1726
  732MOL0     O98721  10.860   0.295   6.342 -0.0192  0.2794 -0.4193
  732MOL0     C98722  10.821   0.241   6.212  0.4349  0.8773  1.2325
  732MOL0     C98723  10.912   0.311   6.101  0.1349 -0.6482 -0.5195
  732MOL0     C98724  10.883   0.468   6.096  0.0811  0.0256  0.1245
  732MOL0     C98725  10.954   0.547   5.982  0.7692 -0.0885 -0.2821
  732MOL0     C98726  10.874   0.670   5.945 -1.2535 -0.0246  0.2744
  732MOL0     C98727  10.740   0.648   5.880  1.3340  0.1241  0.6016
  732MOL0     C98728  10.749   0.562   5.751  0.0361  0.4140 -0.6316
  732MOL0     C98729  10.604   0.542   5.704  0.3417  1.7670  0.5146
  732MOL0    Cl98730  10.604   0.440   5.555 -0.1090 -0.0809 -0.1557
  732MOL0     C98731  10.724   0.131   6.458  0.2912 -0.2769 -0.4639
  732MOL0     C98732  10.679   0.071   6.579 -0.4534  0.6288  0.9432
  732MOL0     O98733  10.638  -0.138   6.768  0.0613 -0.5124 -0.2468
  732MOL0     C98734  10.617  -0.041   7.100  0.0901 -0.7470  0.2954
  732MOL0     C98735  10.608  -0.093   7.224  0.2871 -0.7436 -0.4208
  732MOL0     N98736  10.713  -0.010   7.630  0.5702 -0.0289 -0.4576
  732MOL0     N98737  10.693   0.060   7.742 -0.0582 -0.2517 -0.7571
  732MOL0     C98738  11.443   0.128   8.688 -0.3329 -0.1672  0.4062
  732MOL0     C98739  11.366   0.105   8.801 -0.4307  0.1294 -0.3194
  732MOL0     C98740  11.116   0.125   9.167  0.2801  0.4830 -0.2966
  732MOL0     C98741  11.117   0.031   9.278 -0.4964 -0.7350 -0.1800
  732MOL0     C98742  11.003   0.018   9.354  0.1709 -0.3387 -0.8271
  732MOL0     C98743  10.890   0.089   9.323 -0.0513 -0.3079 -0.1707
  732MOL0     O98744  10.771   0.058   9.385 -0.0830  0.2653 -0.3292
  732MOL0     C98745  10.777   0.102   9.523 -0.3474  0.7981 -0.1620
  732MOL0     C98746  10.783   0.258   9.540 -0.3725  0.0605  0.6309
  732MOL0     C98747  10.749   0.312   9.678  1.3655  0.2204 -0.9946
  732MOL0     C98748  10.869   0.356   9.770 -0.3278 -0.4953 -0.2040
  732MOL0     C98749  10.856   0.310   9.913 -0.2463  0.0855 -0.0135
  732MOL0     C98750  10.843   0.282  10.027  0.0646  0.5517 -0.2742
  732MOL0     C98751  10.890   0.196   9.231  0.7384  1.2925 -0.4283
  732MOL0     C98752  11.010   0.223   9.161 -1.0576  0.6201  0.9266
  732MOL0     H98753  11.251   0.426   8.836  1.1785 -0.4101  2.5380
  732MOL0     H98754  11.383   0.465   8.638 -2.5597 -0.3110 -0.5400
  732MOL0     H98755  11.476   0.442   8.434  2.8786 -1.2304  4.7744
  732MOL0     H98756  11.554   0.325   8.321  0.1241  0.8545 -0.1829
  732MOL0     H98757  11.367   0.174   8.323  1.7003  0.1152  2.7325
  732MOL0     H98758  11.279   0.291   8.422  0.0678 -1.9739 -1.0231
  732MOL0     H98759  11.322   0.457   8.237 -0.7445 -0.1585  1.9349
  732MOL0     H98760  11.352   0.315   8.134  0.4669 -0.0740  0.9584
  732MOL0     H98761  11.094   0.371   8.292 -0.2471 -0.4779 -0.3697
  732MOL0     H98762  11.113   0.433   8.131  1.4039  0.8293 -0.0289
  732MOL0     H98763  11.146   0.217   8.037 -1.8285 -1.2806 -0.8225
  732MOL0     H98764  11.159   0.126   8.174 -1.4265 -0.4571  0.2675
  732MOL0     H98765  10.908   0.145   8.203 -3.2864  1.2256 -0.3506
  732MOL0     H98766  10.902   0.301   8.116  1.8593  0.3622 -3.3197
  732MOL0     H98767  10.939   0.215   7.907  5.0226 -0.7770  0.0737
  732MOL0     H98768  11.004   0.072   7.951 -0.0763  1.7154 -5.6092
  732MOL0     H98769  10.706   0.139   8.003  0.0914 -0.7270 -1.1215
  732MOL0     H98770  10.779  -0.011   8.056 -0.1460  0.9516  2.5219
  732MOL0     H98771  10.916  -0.148   7.855 -0.8035  0.2876  2.4265
  732MOL0     H98772  10.808  -0.187   7.468  0.2214 -0.7024  0.7684
  732MOL0     H98773  10.956  -0.218   7.553  0.0351 -0.6983  0.7179
  732MOL0     H98774  10.826  -0.368   7.704  0.7207  3.2613  2.1549
  732MOL0     H98775  10.851  -0.417   7.536 -0.8520  0.1712 -0.8167
  732MOL0     H98776  10.594  -0.302   7.625  2.8700  2.2184 -0.3100
  732MOL0     H98777  10.629  -0.476   7.613  1.0909  0.9219  3.0665
  732MOL0     H98778  10.515  -0.445   7.436  0.2206  0.5095  4.8506
  732MOL0     H98779  10.687  -0.441   7.371  3.4382  2.1620  1.3938
  732MOL0     H98780  10.663  -0.419   7.173  2.4850  0.5699  0.5455
  732MOL0     H98781  10.773  -0.439   6.977 -1.2904  0.6118  1.0406
  732MOL0     H98782  10.625  -0.397   6.885  0.2420  0.4160  0.6929
  732MOL0     H98783  10.787  -0.311   6.851  1.0771 -1.1032 -1.2985
  732MOL0     H98784  10.875   0.256   6.788  0.2590 -1.5062 -0.3656
  732MOL0     H98785  10.937   0.359   6.578 -2.2498  1.4725 -1.1209
  732MOL0     H98786  10.841   0.133   6.212 -2.2325  0.3141  2.2183
  732MOL0     H98787  10.718   0.261   6.184  0.1165 -1.3035  0.6271
  732MOL0     H98788  11.016   0.287   6.126  0.1901 -1.9086 -1.8708
  732MOL0     H98789  10.891   0.273   6.001 -1.0449  0.6073 -0.7641
  732MOL0     H98790  10.919   0.503   6.193  2.1235 -0.3228 -0.4571
  732MOL0     H98791  10.775   0.476   6.102 -0.1323 -2.3476  0.5876
  732MOL0     H98792  11.055   0.582   6.004  0.1245  3.5635 -2.2715
  732MOL0     H98793  10.953   0.474   5.900 -1.0188 -0.4397  0.0120
  732MOL0     H98794  10.935   0.735   5.881  0.1830 -0.3398  1.2796
  732MOL0     H98795  10.860   0.729   6.036  1.1786 -1.1553  1.4648
  732MOL0     H98796  10.666   0.603   5.946 -1.6109 -0.7781 -3.0082
  732MOL0     H98797  10.688   0.742   5.861 -2.3962 -0.9661  3.9922
  732MOL0     H98798  10.788   0.465   5.785 -3.3714 -0.6224  0.7244
  732MOL0     H98799  10.809   0.600   5.668  1.7068  0.7787  0.6945
  732MOL0     H98800  10.572   0.641   5.669  0.1056  1.9776  1.3104
  732MOL0     H98801  10.531   0.506   5.777  0.7197  0.8779  0.4618
  732MOL0     H98802  10.666   0.114   6.367 -5.3907  2.3596  2.1998
  732MOL0     H98803  10.597  -0.000   6.569  2.0223 -2.1770 -1.2276
  732MOL0     H98804  10.606   0.066   7.090  2.2343 -0.5600 -0.6382
  732MOL0     H98805  10.592  -0.026   7.308 -1.3297  0.4071 -1.5640
  732MOL0     H98806  11.496   0.046   8.642 -0.5744 -0.5479  0.7979
  732MOL0     H98807  11.355   0.005   8.842 -0.2061  0.9167  1.8209
  732MOL0     H98808  11.203  -0.033   9.297  1.1237  1.4818  0.3968
  732MOL0     H98809  10.983  -0.062   9.424 -1.4872  0.9831  0.3080
  732MOL0     H98810  10.687   0.064   9.572 -0.2379 -1.6464 -1.7138
  732MOL0     H98811  10.858   0.049   9.574 -0.2562 -1.3916 -2.4039
  732MOL0     H98812  10.707   0.297   9.471  0.9095  1.2393 -0.1627
  732MOL0     H98813  10.880   0.284   9.497 -0.4310 -3.1895 -1.8755
  732MOL0     H98814  10.682   0.243   9.731  2.2964 -0.7575 -1.0518
  732MOL0     H98815  10.693   0.404   9.659  3.5801  2.9293  3.6499
  732MOL0     H98816  10.894   0.463   9.770 -3.2471  0.3058  1.0630
  732MOL0     H98817  10.956   0.305   9.727  1.5750 -1.4464  4.2297
  732MOL0     H98818  10.822   0.274  10.132  0.2164 -3.0109 -0.4108
  732MOL0     H98819  10.803   0.259   9.217 -0.1956  0.2621  0.6190
  732MOL0     H98820  11.025   0.296   9.082 -1.0165 -1.0015 -0.6236
  733MOL0     O98821   5.113   1.895   7.294 -0.3470  0.1570 -0.2810
  733MOL0     C98822   5.167   1.873   7.405  0.6858 -0.5363 -0.5046
  733MOL0     O98823   5.195   1.747   7.452  0.1462  0.0674  0.2349
  733MOL0     C98824   5.159   1.640   7.377 -0.8626 -0.3187  0.3704
  733MOL0     C98825   5.047   1.562   7.413  0.2774  0.0527 -0.5033
  733MOL0     C98826   5.021   1.445   7.338  0.1897  0.3496 -0.4706
  733MOL0     C98827   5.108   1.399   7.241 -0.2759  0.4404 -0.6830
  733MOL0     O98828   5.092   1.283   7.163  0.7538 -0.4755  1.0491
  733MOL0     C98829   4.987   1.198   7.203  0.0269  0.8531 -0.8782
  733MOL0     C98830   4.977   1.087   7.090  0.1392  0.0099  0.1765
  733MOL0     C98831   5.105   1.009   7.063 -0.2096 -0.3250  0.7558
  733MOL0     C98832   5.085   0.872   6.983  0.5441 -0.6617  0.2568
  733MOL0     C98833   5.170   0.758   7.055  0.0769  0.1024 -0.1341
  733MOL0     C98834   5.157   0.618   6.989  0.0749 -0.9375 -0.4233
  733MOL0     C98835   5.220   0.510   7.092  0.3518  0.4550  0.2343
  733MOL0     C98836   5.283   0.391   7.025 -1.1528  0.5330  0.4228
  733MOL0     N98837   5.294   0.264   7.106 -0.0069  0.0180 -0.3480
  733MOL0     C98838   5.180   0.209   7.165  1.4274 -1.1363  0.8157
  733MOL0     C98839   5.235   0.111   7.234 -0.1147  0.6084  0.3817
  733MOL0     C98840   5.155   0.005   7.303 -0.4964 -0.0565 -0.6855
  733MOL0     C98841   5.149   0.037   7.459  0.7461 -0.0213 -0.0619
  733MOL0     C98842   5.049  -0.060   7.531 -0.3567 -0.9134 -0.4727
  733MOL0     C98843   5.043  -0.015   7.684  0.5780 -1.0965  0.4270
  733MOL0     O98844   5.146  -0.079   7.759 -0.4260  0.5115 -0.2261
  733MOL0     C98845   5.182  -0.037   7.884 -0.1283  0.3619  0.3027
  733MOL0     C98846   5.231  -0.137   7.958 -0.1532  0.2951 -0.0720
  733MOL0     C98847   5.288  -0.113   8.083 -0.2662  1.1632  0.2722
  733MOL0     C98848   5.346  -0.232   8.143 -1.1344  0.0922 -0.1249
  733MOL0     C98849   5.282   0.012   8.140 -0.3246 -0.7468  0.9755
  733MOL0     C98850   5.317   0.054   8.277  0.5733 -0.0957 -0.2615
  733MOL0     O98851   5.284  -0.045   8.373  0.3168  0.1573  0.7926
  733MOL0     C98852   5.315  -0.017   8.501  1.0915  0.4303  0.2730
  733MOL0     C98853   5.211   0.019   8.582  0.0473  0.1386  0.9726
  733MOL0     C98854   5.229   0.039   8.717 -0.0928  0.0757  0.5572
  733MOL0     C98855   5.355   0.033   8.775  0.3953 -0.0032  0.6151
  733MOL0     O98856   5.354   0.065   8.908 -0.4259 -0.4034  0.0328
  733MOL0     C98857   5.470   0.034   8.986  0.1430  0.1369 -0.6719
  733MOL0     C98858   5.493  -0.117   9.000  0.5136 -0.3016  0.4767
  733MOL0     C98859   5.354  -0.205   8.993  0.0864 -0.5689  0.1630
  733MOL0     C98860   5.382  -0.348   9.032 -0.7231  0.2733  0.4308
  733MOL0     C98861   5.267  -0.445   9.004 -0.2591  0.5805  0.5334
  733MOL0     C98862   5.123  -0.391   9.028  0.5486  0.1971 -0.2527
  733MOL0     C98863   5.009  -0.504   9.007  0.3698 -0.6220 -0.2090
  733MOL0     C98864   4.894  -0.492   9.090 -0.6629 -0.2724  0.2995
  733MOL0    Cl98865   4.775  -0.625   9.086  0.1664 -0.4166 -0.0256
  733MOL0     C98866   5.458   0.015   8.690  0.7047 -0.5334 -0.5377
  733MOL0     C98867   5.441  -0.024   8.557  0.9099  0.2385  0.2495
  733MOL0     O98868   5.375   0.162   8.301  0.5595 -0.6109  0.7085
  733MOL0     C98869   5.230   0.122   8.056 -0.9035  0.5950  0.5532
  733MOL0     C98870   5.189   0.093   7.923  0.7172  0.5475 -0.5432
  733MOL0     N98871   5.375   0.100   7.199  0.2261  0.2869  0.7375
  733MOL0     N98872   5.411   0.197   7.123  0.5087 -0.5249  0.1100
  733MOL0     C98873   5.232   1.470   7.218 -0.4363  0.2570 -1.3342
  733MOL0     C98874   5.256   1.587   7.287  0.2089  0.3795  0.2792
  733MOL0     C98875   5.216   1.993   7.474 -0.2670  0.4480 -0.2343
  733MOL0     C98876   5.254   2.111   7.407  0.9356  0.2893 -0.2524
  733MOL0     C98877   5.318   2.223   7.473 -0.5649  0.4745  0.3284
  733MOL0     C98878   5.349   2.219   7.609  0.5365  1.0030  0.3535
  733MOL0     O98879   5.391   2.333   7.663  1.0239 -0.2125  0.3765
  733MOL0     C98880   5.444   2.338   7.795  0.2665  0.1362  0.3823
  733MOL0     C98881   5.591   2.295   7.800 -0.8122  0.2951 -0.5226
  733MOL0     C98882   5.678   2.333   7.924  0.3101  1.0761  0.1199
  733MOL0     C98883   5.596   2.336   8.059  0.1794  0.8874 -0.0102
  733MOL0     C98884   5.676   2.375   8.173 -0.0103  0.1090 -0.1137
  733MOL0     C98885   5.742   2.393   8.274  0.7442 -0.2761 -0.6885
  733MOL0     C98886   5.303   2.099   7.682 -0.2443 -0.2068 -0.9303
  733MOL0     C98887   5.239   1.998   7.613 -0.7059  0.3790  0.6279
  733MOL0     H98888   4.981   1.590   7.495  1.2988  0.1420  0.3143
  733MOL0     H98889   4.931   1.389   7.362 -0.0290  1.2629  0.9467
  733MOL0     H98890   5.003   1.140   7.294  0.9686  0.4878 -1.2600
  733MOL0     H98891   4.892   1.252   7.209 -1.7008 -2.1216  1.1509
  733MOL0     H98892   4.899   1.018   7.122 -2.0859  1.7336 -1.1983
  733MOL0     H98893   4.948   1.127   6.993 -0.3704  0.9350  0.6964
  733MOL0     H98894   5.170   1.071   7.000 -0.8082  0.8545  1.2616
  733MOL0     H98895   5.159   0.981   7.154  1.3861  0.9016  0.2218
  733MOL0     H98896   4.980   0.842   6.978 -0.4830  2.7697 -1.3817
  733MOL0     H98897   5.122   0.868   6.880  1.0846  0.9013  0.3671
  733MOL0     H98898   5.277   0.775   7.044  0.6028 -3.6601 -2.7227
  733MOL0     H98899   5.145   0.755   7.161  3.2860  0.6712  0.7494
  733MOL0     H98900   5.049   0.596   6.990 -0.4197  1.0398 -2.4194
  733MOL0     H98901   5.183   0.615   6.882  0.0257  0.6853 -0.5038
  733MOL0     H98902   5.294   0.563   7.153 -0.7218 -0.3436  2.3487
  733MOL0     H98903   5.144   0.476   7.163  0.9037 -0.2831  0.4974
  733MOL0     H98904   5.385   0.418   6.996 -1.0467 -0.8655 -0.6114
  733MOL0     H98905   5.230   0.372   6.932 -1.2056  2.8093 -0.0669
  733MOL0     H98906   5.073   0.225   7.164  1.6753  0.7605  1.2012
  733MOL0     H98907   5.053  -0.005   7.264 -0.5245 -0.3933 -0.5269
  733MOL0     H98908   5.210  -0.089   7.294 -1.0341 -0.5547  0.8773
  733MOL0     H98909   5.118   0.142   7.462 -0.9066 -0.4458 -1.1981
  733MOL0     H98910   5.252   0.042   7.496  0.8643  1.5036 -0.5179
  733MOL0     H98911   5.086  -0.162   7.522  1.9109 -0.1076 -0.8296
  733MOL0     H98912   4.950  -0.046   7.486 -0.9495 -0.2759  0.9647
  733MOL0     H98913   4.950  -0.052   7.727 -1.4237  2.0637 -0.8414
  733MOL0     H98914   5.037   0.092   7.702 -1.6289 -1.5207  2.6409
  733MOL0     H98915   5.249  -0.237   7.920  3.7043  0.1094  1.7442
  733MOL0     H98916   5.267  -0.302   8.173  1.6890 -3.3338 -0.0035
  733MOL0     H98917   5.405  -0.274   8.061 -2.2627 -0.6924 -0.5685
  733MOL0     H98918   5.410  -0.227   8.231  0.9780 -3.2641 -1.2784
  733MOL0     H98919   5.114   0.040   8.538  0.4843  0.0659 -0.0420
  733MOL0     H98920   5.150   0.070   8.784 -0.9983 -0.7452 -0.1041
  733MOL0     H98921   5.566   0.085   8.971  1.2455 -0.5631  2.9436
  733MOL0     H98922   5.435   0.077   9.081  2.7525  1.7489 -0.3111
  733MOL0     H98923   5.560  -0.156   8.923  1.2867 -0.8806  1.4375
  733MOL0     H98924   5.547  -0.137   9.093  0.6922 -2.1068  0.0238
  733MOL0     H98925   5.320  -0.190   8.890 -1.2640 -0.0648  0.6602
  733MOL0     H98926   5.277  -0.168   9.061 -0.5453 -1.4483 -0.0636
  733MOL0     H98927   5.458  -0.389   8.965  0.5664  3.2070 -0.0875
  733MOL0     H98928   5.402  -0.353   9.139 -0.9826 -0.6050  0.4404
  733MOL0     H98929   5.272  -0.536   9.064 -0.2997 -1.0405 -1.7782
  733MOL0     H98930   5.275  -0.487   8.904  1.1406  2.3670 -0.1752
  733MOL0     H98931   5.115  -0.364   9.134  2.6120  0.0016  0.0047
  733MOL0     H98932   5.095  -0.304   8.968  0.4720  0.4431  0.1322
  733MOL0     H98933   5.039  -0.604   9.036  0.8991  0.4717  3.4526
  733MOL0     H98934   4.983  -0.511   8.901  0.0850 -2.5935 -0.0507
  733MOL0     H98935   4.833  -0.409   9.053 -1.5637 -1.2087 -0.3895
  733MOL0     H98936   4.941  -0.475   9.188 -1.9209 -0.7246  1.0101
  733MOL0     H98937   5.559   0.016   8.731  0.8321  2.0167 -0.7627
  733MOL0     H98938   5.526  -0.052   8.496 -0.2414  0.7837 -1.7118
  733MOL0     H98939   5.241   0.227   8.084  0.2132 -0.3350  4.2031
  733MOL0     H98940   5.159   0.176   7.860 -0.5794  2.0178  1.8707
  733MOL0     H98941   5.313   1.433   7.155 -1.2309 -0.0165 -2.2157
  733MOL0     H98942   5.352   1.632   7.261  1.7293 -2.6429  0.2956
  733MOL0     H98943   5.232   2.132   7.302  3.2070  2.8460 -0.3348
  733MOL0     H98944   5.349   2.306   7.410  0.0461 -0.2251 -0.3165
  733MOL0     H98945   5.438   2.444   7.819 -1.9627 -0.8564  5.5418
  733MOL0     H98946   5.379   2.282   7.863  0.6822  0.2374  0.8620
  733MOL0     H98947   5.655   2.331   7.719  1.3566 -0.3038  0.8403
  733MOL0     H98948   5.582   2.186   7.790  2.0464 -0.2994  1.8615
  733MOL0     H98949   5.724   2.432   7.913  2.2153  0.5415  2.4275
  733MOL0     H98950   5.757   2.258   7.933 -0.0633  0.8947  2.3164
  733MOL0     H98951   5.566   2.232   8.074  1.9258  0.4664  0.8284
  733MOL0     H98952   5.506   2.397   8.050  0.0530  0.6164 -0.6084
  733MOL0     H98953   5.807   2.400   8.359 -1.7135  0.0703  1.2860
  733MOL0     H98954   5.298   2.073   7.787 -1.2864 -2.0118 -1.3844
  733MOL0     H98955   5.210   1.906   7.662 -4.0199  0.0514 -1.6214
  734MOL0     O98956   1.881   9.501   9.122 -0.1895  0.1416 -0.9740
  734MOL0     C98957   1.827   9.573   9.204  0.4123 -0.2548 -0.0742
  734MOL0     O98958   1.844   9.705   9.195 -0.0948 -0.0472 -0.3050
  734MOL0     C98959   1.914   9.746   9.079  0.5861 -0.7017  0.4746
  734MOL0     C98960   1.845   9.809   8.979 -0.3714 -0.1596  0.0322
  734MOL0     C98961   1.912   9.844   8.859  0.1411  0.4792 -0.7060
  734MOL0     C98962   2.049   9.820   8.850 -0.9803  0.1659 -0.7750
  734MOL0     O98963   2.114   9.854   8.737 -0.4638 -0.5147  0.3783
  734MOL0     C98964   2.216   9.765   8.688 -0.0898 -0.0522 -0.6765
  734MOL0     C98965   2.244   9.789   8.538  0.1721 -0.0137 -0.5911
  734MOL0     C98966   2.365   9.714   8.472 -0.3267 -0.0277 -0.7342
  734MOL0     C98967   2.350   9.569   8.425 -0.3028 -0.5663 -0.3177
  734MOL0     C98968   2.492   9.502   8.414 -0.6416  0.3955 -0.2470
  734MOL0     C98969   2.535   9.457   8.557  0.1639  0.2161  0.0807
  734MOL0     C98970   2.663   9.384   8.561  0.1837  0.3824 -0.3518
  734MOL0     C98971   2.701   9.316   8.700  0.3965 -0.1280  0.4685
  734MOL0     N98972   2.815   9.232   8.679 -0.8578 -0.3988 -0.1241
  734MOL0     C98973   2.949   9.267   8.699  0.1788 -0.1109 -0.5676
  734MOL0     C98974   3.005   9.143   8.688 -0.8140 -0.6311  0.5980
  734MOL0     C98975   3.150   9.103   8.699 -0.1058  0.6665 -0.5203
  734MOL0     C98976   3.181   9.059   8.844  0.1619 -0.3018  0.2176
  734MOL0     C98977   3.333   9.030   8.867 -0.5909  0.5012 -0.4081
  734MOL0     C98978   3.354   9.026   9.024 -0.0995 -0.0453  0.3870
  734MOL0     O98979   3.490   8.998   9.046 -0.1460 -0.1092 -0.7091
  734MOL0     C98980   3.557   9.112   9.054 -0.8547  1.1459  0.2632
  734MOL0     C98981   3.558   9.193   9.166  0.1381 -0.2400 -1.0369
  734MOL0     C98982   3.633   9.307   9.188  0.3397 -0.8154  0.7227
  734MOL0     C98983   3.610   9.384   9.317 -0.1244 -0.6516 -0.7328
  734MOL0     C98984   3.722   9.344   9.085 -0.0405 -0.9241  0.5891
  734MOL0     C98985   3.818   9.456   9.090 -0.0077 -0.5717 -0.5846
  734MOL0     O98986   3.799   9.545   8.990 -0.3921 -0.3954 -0.0812
  734MOL0     C98987   3.873   9.666   8.983 -0.9228 -0.1128 -0.5271
  734MOL0     C98988   3.960   9.719   9.089  0.2532 -0.4043 -0.8573
  734MOL0     C98989   4.052   9.825   9.061 -0.0864  0.1872 -0.0814
  734MOL0     C98990   4.046   9.891   8.939 -0.3770  0.7691  0.0994
  734MOL0     O98991   4.127   9.998   8.934 -0.7351 -0.1220 -0.1802
  734MOL0     C98992   4.152  10.078   8.815  1.2900  0.1085  0.6227
  734MOL0     C98993   4.276  10.161   8.823 -0.4783 -0.7275  0.4530
  734MOL0     C98994   4.275  10.247   8.945 -0.3871 -0.0318 -1.2795
  734MOL0     C98995   4.358  10.189   9.069  0.0869 -1.2180  0.1591
  734MOL0     C98996   4.368  10.286   9.179  0.4695 -0.3179 -0.6310
  734MOL0     C98997   4.501  10.366   9.171  0.5050 -0.5681 -0.3286
  734MOL0     C98998   4.523  10.463   9.285  0.1685 -0.1895 -0.0267
  734MOL0     C98999   4.644  10.553   9.272  0.1882 -0.3683  0.1741
  734MOL0    Cl99000   4.794  10.470   9.238  0.5841 -0.0686  0.3425
  734MOL0     C99001   3.971   9.842   8.833 -0.0850  0.8393 -0.9857
  734MOL0     C99002   3.880   9.733   8.857 -0.5053  0.1292  0.3035
  734MOL0     O99003   3.905   9.454   9.176 -1.4211  1.4638 -0.0509
  734MOL0     C99004   3.732   9.256   8.972 -0.4379 -0.1023 -1.1883
  734MOL0     C99005   3.655   9.136   8.960  0.0024  0.3044  0.0022
  734MOL0     N99006   2.918   9.046   8.649  0.4355 -0.4299 -0.4896
  734MOL0     N99007   2.805   9.111   8.645  0.2708  0.6879  0.3359
  734MOL0     C99008   2.124   9.781   8.963  0.2040 -0.3786 -0.4812
  734MOL0     C99009   2.054   9.742   9.081 -0.8965  0.9153 -0.4559
  734MOL0     C99010   1.749   9.508   9.319 -0.1840 -0.3794  0.2122
  734MOL0     C99011   1.681   9.381   9.306 -0.1528  0.8394 -0.8263
  734MOL0     C99012   1.616   9.320   9.415 -0.9899  0.1450  0.5688
  734MOL0     C99013   1.610   9.388   9.537  0.3388 -0.4593 -0.5927
  734MOL0     O99014   1.545   9.353   9.651  0.1658  0.2298 -0.2647
  734MOL0     C99015   1.496   9.218   9.657 -0.4926 -0.2164  1.1218
  734MOL0     C99016   1.609   9.120   9.677  0.9916  0.3367  0.1829
  734MOL0     C99017   1.547   8.985   9.679 -0.3169 -0.5394 -0.3721
  734MOL0     C99018   1.651   8.875   9.687 -0.2862  0.2880  0.7076
  734MOL0     C99019   1.683   8.811   9.557 -0.0256  0.7509  0.4672
  734MOL0     C99020   1.728   8.747   9.468  0.1883 -0.2105 -1.0960
  734MOL0     C99021   1.667   9.515   9.559  0.1340  0.4450 -0.5134
  734MOL0     C99022   1.740   9.575   9.449  1.0135  0.2269 -0.3457
  734MOL0     H99023   1.737   9.817   8.983 -0.5592 -2.1548  0.3065
  734MOL0     H99024   1.868   9.891   8.771 -0.0889 -1.8166 -1.9028
  734MOL0     H99025   2.309   9.807   8.728 -0.3869 -0.2041  0.2013
  734MOL0     H99026   2.207   9.662   8.724 -3.8349 -0.1668 -1.5406
  734MOL0     H99027   2.153   9.759   8.484  0.7013 -2.3562 -0.2958
  734MOL0     H99028   2.247   9.894   8.507  0.4879  0.5940  1.3910
  734MOL0     H99029   2.401   9.767   8.384  1.7218 -2.0577 -1.2104
  734MOL0     H99030   2.438   9.718   8.553 -2.5685 -0.7443  1.4644
  734MOL0     H99031   2.279   9.518   8.490  2.2553 -1.6285  1.8467
  734MOL0     H99032   2.315   9.561   8.322  2.3470 -1.8796 -1.2031
  734MOL0     H99033   2.477   9.416   8.349 -1.6306  0.5276 -0.2090
  734MOL0     H99034   2.565   9.570   8.369 -0.2312 -0.0218 -0.2125
  734MOL0     H99035   2.543   9.536   8.633 -0.4055  0.0137  0.3550
  734MOL0     H99036   2.452   9.394   8.591  0.4555 -0.6861 -0.8441
  734MOL0     H99037   2.663   9.309   8.482  4.9077 -0.2322 -0.0439
  734MOL0     H99038   2.742   9.449   8.524 -1.0809  0.4146 -3.2025
  734MOL0     H99039   2.617   9.260   8.741  1.6258 -2.5972 -0.2133
  734MOL0     H99040   2.733   9.406   8.753 -0.9168 -0.1939  1.4157
  734MOL0     H99041   2.991   9.366   8.709 -1.4411  0.7101 -1.5460
  734MOL0     H99042   3.156   9.008   8.644  0.6501  0.8629 -0.7975
  734MOL0     H99043   3.224   9.174   8.660  0.3084 -0.1370 -1.2428
  734MOL0     H99044   3.134   8.963   8.869  0.7303 -1.3430 -2.4036
  734MOL0     H99045   3.154   9.147   8.903  1.5071  0.6824 -0.5687
  734MOL0     H99046   3.404   9.091   8.811  1.2527 -0.0204  1.2511
  734MOL0     H99047   3.355   8.928   8.834 -3.3116 -0.6126  0.8957
  734MOL0     H99048   3.289   8.960   9.081  1.2154 -0.4289  1.5006
  734MOL0     H99049   3.321   9.127   9.052 -0.7308 -0.3115  0.6280
  734MOL0     H99050   3.495   9.146   9.241 -1.1423 -2.4177 -3.3089
  734MOL0     H99051   3.707   9.427   9.346 -0.2332 -1.7110  1.3697
  734MOL0     H99052   3.537   9.464   9.320 -1.8940 -2.2078 -0.1802
  734MOL0     H99053   3.589   9.311   9.396 -0.5497  0.0039 -0.2400
  734MOL0     H99054   3.970   9.684   9.191  2.8991  0.6624 -0.6681
  734MOL0     H99055   4.117   9.865   9.138  1.0886 -0.6675 -0.5972
  734MOL0     H99056   4.159  10.006   8.733  1.1189  1.8114 -0.9511
  734MOL0     H99057   4.065  10.140   8.793  2.0284  0.4263 -1.6185
  734MOL0     H99058   4.362  10.093   8.818 -1.5490 -2.1835  1.1554
  734MOL0     H99059   4.279  10.228   8.737 -1.3280 -1.9401 -0.5614
  734MOL0     H99060   4.173  10.274   8.972  0.6875  1.6095  1.6976
  734MOL0     H99061   4.321  10.342   8.915 -1.4019  0.5648 -0.9827
  734MOL0     H99062   4.294  10.106   9.098 -2.4376 -0.3936 -2.5694
  734MOL0     H99063   4.454  10.156   9.027 -2.7524 -3.9150 -5.2754
  734MOL0     H99064   4.357  10.226   9.269 -0.5606 -2.6998 -2.2235
  734MOL0     H99065   4.277  10.348   9.180  0.6974  0.0669  1.6306
  734MOL0     H99066   4.582  10.294   9.187  1.4598  0.6647  0.5162
  734MOL0     H99067   4.495  10.414   9.073 -3.4484 -2.0707 -1.0440
  734MOL0     H99068   4.540  10.405   9.376  1.2155  1.2143  0.7123
  734MOL0     H99069   4.433  10.522   9.302  1.2955  1.7939 -0.5798
  734MOL0     H99070   4.650  10.605   9.368 -0.7393 -1.8645  1.0904
  734MOL0     H99071   4.625  10.629   9.196  0.1048 -1.6657 -1.1282
  734MOL0     H99072   3.962   9.884   8.733  0.1416 -1.1048 -1.8708
  734MOL0     H99073   3.829   9.714   8.763  2.5655 -4.8821 -0.7232
  734MOL0     H99074   3.807   9.276   8.897  4.7903 -1.8590  2.9098
  734MOL0     H99075   3.669   9.077   8.869  0.7040  0.7364 -0.1831
  734MOL0     H99076   2.232   9.774   8.953  0.6456  1.3685  2.1573
  734MOL0     H99077   2.107   9.684   9.156 -1.1327 -3.2807 -3.1845
  734MOL0     H99078   1.679   9.330   9.210 -5.0284 -1.3864  0.1676
  734MOL0     H99079   1.567   9.229   9.385  0.9919 -0.7769 -0.0661
  734MOL0     H99080   1.421   9.211   9.736 -1.9721  0.8702 -0.1139
  734MOL0     H99081   1.447   9.187   9.564  1.1202  0.8271 -0.1151
  734MOL0     H99082   1.660   9.150   9.768  0.1029  0.8333  0.5253
  734MOL0     H99083   1.687   9.114   9.600  1.9368 -3.1954  1.2055
  734MOL0     H99084   1.474   8.977   9.598 -0.8318 -0.5310  0.0806
  734MOL0     H99085   1.488   8.994   9.771 -0.0762 -1.6383 -0.1032
  734MOL0     H99086   1.618   8.801   9.760  1.0926  1.4039  2.5532
  734MOL0     H99087   1.746   8.915   9.723  0.8233 -1.2074 -0.4003
  734MOL0     H99088   1.789   8.701   9.393  0.6611 -0.3931 -0.6076
  734MOL0     H99089   1.661   9.541   9.664 -1.6033 -1.6655 -0.0173
  734MOL0     H99090   1.792   9.670   9.449  0.0531  0.7649  0.4902
  735MOL0     O99091  10.001   5.268   7.911 -0.7061 -0.4783 -0.1223
  735MOL0     C99092   9.986   5.176   7.994  0.2928 -0.6601 -0.2564
  735MOL0     O99093   9.868   5.129   8.033 -0.5166  0.3708 -0.2717
  735MOL0     C99094   9.755   5.179   7.972 -0.3813  0.4020  0.2585
  735MOL0     C99095   9.712   5.147   7.841  0.3918  0.0952  0.2933
  735MOL0     C99096   9.587   5.198   7.787 -0.1515  0.6233 -0.0857
  735MOL0     C99097   9.513   5.291   7.854  0.3115 -0.3989 -1.0568
  735MOL0     O99098   9.392   5.349   7.810 -0.6052  0.2725 -0.2196
  735MOL0     C99099   9.348   5.302   7.681 -0.0985 -0.0573  0.9843
  735MOL0     C99100   9.214   5.379   7.642 -0.5920  0.5848  0.0848
  735MOL0     C99101   9.104   5.397   7.745  0.6809 -0.2273  0.0315
  735MOL0     C99102   9.021   5.264   7.761 -0.4294 -0.7706 -0.1351
  735MOL0     C99103   8.918   5.279   7.867  0.0746 -0.3046 -0.3331
  735MOL0     C99104   8.866   5.138   7.891  0.6286 -0.2980  0.3961
  735MOL0     C99105   8.752   5.119   7.998  0.0912  0.0107  0.6823
  735MOL0     C99106   8.612   5.160   7.948 -0.8962 -0.7470  0.1110
  735MOL0     N99107   8.508   5.118   8.050  0.1413 -0.8721  0.0001
  735MOL0     C99108   8.393   5.043   8.032 -0.2639 -0.2568  0.2392
  735MOL0     C99109   8.316   5.067   8.137  0.1987 -0.4308  0.7238
  735MOL0     C99110   8.168   5.021   8.143  0.3536  0.7246 -0.1454
  735MOL0     C99111   8.173   4.883   8.223  0.1373 -0.4156 -0.4327
  735MOL0     C99112   8.047   4.795   8.233  0.3281 -0.0340  0.4711
  735MOL0     C99113   8.032   4.689   8.118  0.0018 -0.4459 -0.6879
  735MOL0     O99114   7.938   4.589   8.150  0.3485 -0.5846  0.5262
  735MOL0     C99115   7.885   4.529   8.051  0.7449  1.3511  0.1630
  735MOL0     C99116   7.863   4.396   8.058  0.4817  0.3336 -0.1383
  735MOL0     C99117   7.784   4.325   7.976 -0.5182 -0.1588 -0.0980
  735MOL0     C99118   7.777   4.177   7.985 -0.3310  0.5792 -0.5140
  735MOL0     C99119   7.708   4.391   7.888  0.6803 -0.3255  0.2617
  735MOL0     C99120   7.606   4.322   7.788  0.6449 -0.8729 -0.4191
  735MOL0     O99121   7.608   4.373   7.665 -0.0539  0.3713 -0.2873
  735MOL0     C99122   7.505   4.343   7.582 -0.3780 -0.0455  0.0519
  735MOL0     C99123   7.514   4.235   7.500 -0.2508  0.2374 -0.1097
  735MOL0     C99124   7.404   4.198   7.414  0.5237 -0.4959  0.2556
  735MOL0     C99125   7.284   4.283   7.411  0.0968  0.5010 -0.2437
  735MOL0     O99126   7.178   4.282   7.315  0.2881  0.7972  0.8416
  735MOL0     C99127   7.159   4.156   7.243 -0.2505 -0.6957 -0.6091
  735MOL0     C99128   7.004   4.158   7.202  0.4374  0.1937 -0.2549
  735MOL0     C99129   6.928   4.106   7.319  0.8767  0.7824  1.5121
  735MOL0     C99130   6.887   4.199   7.432  0.0179  0.3996 -0.2371
  735MOL0     C99131   6.780   4.149   7.536 -0.0542  0.7038  0.5196
  735MOL0     C99132   6.834   4.045   7.626  0.1859 -0.5394  0.2204
  735MOL0     C99133   6.716   3.976   7.696 -0.5391 -0.4431 -0.5918
  735MOL0     C99134   6.780   3.898   7.813  0.0822 -0.4986  0.1819
  735MOL0    Cl99135   6.635   3.811   7.896  0.2784 -0.3391  0.1873
  735MOL0     C99136   7.283   4.391   7.493  0.1879  0.0060 -0.6151
  735MOL0     C99137   7.388   4.420   7.585 -0.7337  0.4483  0.5651
  735MOL0     O99138   7.537   4.235   7.823  0.9095 -0.5424  0.0026
  735MOL0     C99139   7.738   4.529   7.859  0.9138 -1.0360 -0.1177
  735MOL0     C99140   7.823   4.601   7.948  0.3501  0.5358 -0.3909
  735MOL0     N99141   8.382   5.147   8.230 -1.0242  0.1272 -0.4624
  735MOL0     N99142   8.501   5.168   8.178 -0.1850  0.3978 -0.0058
  735MOL0     C99143   9.559   5.329   7.982 -0.0094  0.2641 -0.6736
  735MOL0     C99144   9.673   5.273   8.040  0.6495  0.1188 -0.5470
  735MOL0     C99145  10.098   5.099   8.041 -0.2623 -0.1206 -0.0656
  735MOL0     C99146  10.096   4.987   8.125 -0.7727  0.4568 -0.5843
  735MOL0     C99147  10.206   4.918   8.170 -0.1695 -0.1207 -0.0803
  735MOL0     C99148  10.332   4.944   8.119  0.1569 -0.2393  0.0130
  735MOL0     O99149  10.429   4.866   8.164  0.7137 -0.1282  0.1347
  735MOL0     C99150  10.542   4.819   8.080  0.2551 -0.2186  0.1880
  735MOL0     C99151  10.618   4.718   8.173 -1.7137 -0.1872  0.3321
  735MOL0     C99152  10.562   4.583   8.121  0.3977  0.5949  0.5608
  735MOL0     C99153  10.617   4.544   7.983 -0.0807  0.0516  0.6284
  735MOL0     C99154  10.516   4.547   7.879  0.8786 -1.2781 -0.5588
  735MOL0     C99155  10.407   4.549   7.815 -0.7269 -0.7039 -0.5127
  735MOL0     C99156  10.346   5.055   8.035 -0.2511  0.4585  0.8874
  735MOL0     C99157  10.235   5.131   7.998  0.8968  0.3758 -0.5736
  735MOL0     H99158   9.774   5.065   7.806  1.5511  1.8633 -2.1472
  735MOL0     H99159   9.549   5.151   7.697  2.5328 -2.5745  0.2667
  735MOL0     H99160   9.420   5.327   7.601  0.7151 -1.8687  1.1102
  735MOL0     H99161   9.326   5.196   7.668  0.8702  0.0725 -5.8639
  735MOL0     H99162   9.236   5.479   7.602  0.2900  0.0837 -0.7363
  735MOL0     H99163   9.176   5.322   7.557  1.8492 -0.3824 -0.4488
  735MOL0     H99164   9.160   5.428   7.834  2.5942  3.0968 -2.1251
  735MOL0     H99165   9.041   5.480   7.714  0.6259 -0.9686 -1.9742
  735MOL0     H99166   8.980   5.215   7.672 -2.1395  0.2691  0.0346
  735MOL0     H99167   9.091   5.189   7.799 -0.3919 -0.5032  0.3254
  735MOL0     H99168   8.964   5.327   7.954 -0.1953  2.8567 -1.7879
  735MOL0     H99169   8.840   5.352   7.843  1.4994  0.7012 -2.1358
  735MOL0     H99170   8.828   5.100   7.796  4.0257 -3.9380  0.2315
  735MOL0     H99171   8.949   5.070   7.914 -0.1845 -2.5347 -2.6651
  735MOL0     H99172   8.753   5.011   8.016  1.0381 -0.0738  0.1953
  735MOL0     H99173   8.783   5.170   8.089 -0.3295  0.3169  0.6586
  735MOL0     H99174   8.584   5.110   7.855  0.0247  0.5909 -0.9042
  735MOL0     H99175   8.614   5.268   7.931 -4.3935 -0.5088  0.5760
  735MOL0     H99176   8.350   5.001   7.941  2.1780 -1.1020 -0.5934
  735MOL0     H99177   8.124   5.098   8.207  1.7216  0.9047  0.6102
  735MOL0     H99178   8.131   5.013   8.040  0.5128 -1.1798 -0.1002
  735MOL0     H99179   8.212   4.911   8.321  2.0654  2.9361 -1.9571
  735MOL0     H99180   8.252   4.826   8.173  0.9886 -0.0584  0.4680
  735MOL0     H99181   7.955   4.851   8.256 -1.3466 -1.8116 -1.4050
  735MOL0     H99182   8.047   4.737   8.325 -1.1193  0.8129  1.0562
  735MOL0     H99183   8.134   4.650   8.108  0.6540  1.5722 -2.7336
  735MOL0     H99184   8.023   4.747   8.027  2.2074  0.2921 -0.4839
  735MOL0     H99185   7.917   4.336   8.131  0.6010 -0.3710 -0.7931
  735MOL0     H99186   7.797   4.119   7.895 -1.4619 -2.0146  0.7808
  735MOL0     H99187   7.853   4.140   8.055  0.1169  0.1427 -1.2191
  735MOL0     H99188   7.682   4.145   8.029  1.0911 -1.1206  1.5157
  735MOL0     H99189   7.603   4.174   7.498 -0.4758 -0.1186  0.2826
  735MOL0     H99190   7.429   4.117   7.346  2.8695  1.1420 -0.9806
  735MOL0     H99191   7.228   4.150   7.158  0.4572 -0.2976 -0.0689
  735MOL0     H99192   7.168   4.064   7.303  1.2901  0.5880  1.2422
  735MOL0     H99193   6.963   4.256   7.178  1.3805  0.9205  0.9733
  735MOL0     H99194   6.990   4.092   7.116  0.3799 -0.2149  0.0593
  735MOL0     H99195   6.978   4.015   7.352  6.0744  3.3360  1.5939
  735MOL0     H99196   6.834   4.071   7.275  2.0862  0.0808 -0.6001
  735MOL0     H99197   6.970   4.220   7.500 -0.9501 -0.6536  1.3388
  735MOL0     H99198   6.853   4.294   7.389  0.2856 -0.5976 -2.7941
  735MOL0     H99199   6.691   4.110   7.485  1.5460 -0.9712 -1.1691
  735MOL0     H99200   6.741   4.230   7.598  1.0955  2.3759 -0.8532
  735MOL0     H99201   6.880   3.978   7.552 -2.5549  2.5872 -4.8826
  735MOL0     H99202   6.907   4.085   7.698  0.9334  1.7487 -1.6950
  735MOL0     H99203   6.665   3.911   7.625 -0.9707 -0.4273 -0.3039
  735MOL0     H99204   6.654   4.056   7.739  1.1141  0.1367  0.8101
  735MOL0     H99205   6.843   3.950   7.886  2.1526 -1.3675 -0.9083
  735MOL0     H99206   6.842   3.818   7.772 -1.6372 -1.3758 -0.8687
  735MOL0     H99207   7.203   4.462   7.476 -0.4926 -0.6609 -0.2697
  735MOL0     H99208   7.375   4.508   7.646  2.0486  2.8803 -2.0227
  735MOL0     H99209   7.680   4.583   7.785  0.7162 -1.4401 -0.2576
  735MOL0     H99210   7.828   4.709   7.940 -0.6220  0.6411  0.2273
  735MOL0     H99211   9.500   5.405   8.033 -1.6724 -0.5192 -1.3748
  735MOL0     H99212   9.700   5.314   8.136 -0.6295  1.7388 -0.8325
  735MOL0     H99213  10.009   4.947   8.177  1.2633 -1.2384  1.7789
  735MOL0     H99214  10.199   4.826   8.227 -2.2067 -0.8371 -1.3913
  735MOL0     H99215  10.507   4.774   7.986 -0.4386  1.4300 -0.3789
  735MOL0     H99216  10.611   4.900   8.054 -0.6698  0.6716  0.4548
  735MOL0     H99217  10.588   4.735   8.277 -2.5334  3.9419 -0.4011
  735MOL0     H99218  10.726   4.719   8.159 -1.6293 -6.2453 -2.6939
  735MOL0     H99219  10.453   4.589   8.123  0.0364 -2.9798 -0.2467
  735MOL0     H99220  10.593   4.504   8.191  4.4695 -0.3309 -1.9009
  735MOL0     H99221  10.640   4.438   7.992 -1.2264 -0.2029  0.8208
  735MOL0     H99222  10.695   4.604   7.937 -0.0443 -1.8951 -2.0768
  735MOL0     H99223  10.302   4.567   7.801 -0.7748 -0.1889  0.4818
  735MOL0     H99224  10.444   5.073   7.993 -1.0127  3.0008 -0.0023
  735MOL0     H99225  10.259   5.218   7.937  1.3445  0.4769 -0.2577
  736MOL0     O99226   3.228  11.495   7.009 -0.3123 -1.0224  0.5189
  736MOL0     C99227   3.122  11.446   6.959  0.5397 -0.6669  0.6040
  736MOL0     O99228   3.106  11.328   6.908  0.0848  0.3916 -0.5510
  736MOL0     C99229   3.214  11.253   6.902  0.0151 -0.1696  0.4209
  736MOL0     C99230   3.248  11.223   6.772  0.2051 -0.4360 -0.2991
  736MOL0     C99231   3.372  11.164   6.741 -0.8636  0.7282  0.5367
  736MOL0     C99232   3.457  11.116   6.834  1.1429  0.6917  0.7118
  736MOL0     O99233   3.567  11.057   6.787  0.8262 -0.0266  0.6066
  736MOL0     C99234   3.687  11.035   6.865  0.6245 -0.3002 -1.2520
  736MOL0     C99235   3.756  10.904   6.855  0.1624 -0.0719  0.4898
  736MOL0     C99236   3.697  10.785   6.940 -0.2703 -0.4877 -0.2840
  736MOL0     C99237   3.673  10.658   6.851  0.9001  0.1675  0.0949
  736MOL0     C99238   3.652  10.536   6.944  0.1870  0.4600 -0.3781
  736MOL0     C99239   3.557  10.426   6.889 -1.4464 -0.0569 -0.1559
  736MOL0     C99240   3.414  10.463   6.907  0.0630 -0.3197  0.3657
  736MOL0     C99241   3.328  10.334   6.918  0.0557 -0.4511 -0.7813
  736MOL0     N99242   3.184  10.356   6.904 -0.5243 -0.1198 -0.4241
  736MOL0     C99243   3.125  10.369   6.781 -1.0874  0.8542 -0.0281
  736MOL0     C99244   3.000  10.398   6.819  0.0925 -0.4794 -0.2144
  736MOL0     C99245   2.889  10.425   6.732  0.1038  0.0111  0.5392
  736MOL0     C99246   2.878  10.337   6.605 -0.7530 -0.1298  0.2119
  736MOL0     C99247   2.890  10.410   6.473  0.4505  0.0701 -0.2894
  736MOL0     C99248   2.819  10.332   6.355 -0.3427  0.3253  0.1944
  736MOL0     O99249   2.852  10.401   6.235  0.9671 -0.5850  0.4013
  736MOL0     C99250   2.755  10.396   6.137  0.2120 -0.2307  1.1751
  736MOL0     C99251   2.656  10.303   6.120  1.1408  0.4684 -0.2338
  736MOL0     C99252   2.557  10.307   6.016  0.1356 -0.1743  0.4175
  736MOL0     C99253   2.463  10.190   6.021  0.6523 -0.2237  0.8158
  736MOL0     C99254   2.558  10.412   5.923  0.4376 -0.8776 -1.3826
  736MOL0     C99255   2.455  10.430   5.820  0.0511 -0.1158 -0.1198
  736MOL0     O99256   2.406  10.562   5.801  0.5182  1.2244 -0.8429
  736MOL0     C99257   2.285  10.592   5.747 -0.6660  0.1267  0.2564
  736MOL0     C99258   2.191  10.505   5.697 -0.0407  0.5781  0.1130
  736MOL0     C99259   2.071  10.547   5.645 -0.3523  0.1486 -0.3484
  736MOL0     C99260   2.044  10.685   5.636  0.0129 -0.4945  0.2741
  736MOL0     O99261   1.939  10.726   5.553  0.5328 -0.0805  0.2824
  736MOL0     C99262   1.940  10.858   5.505  0.1441 -0.7413 -1.0708
  736MOL0     C99263   1.861  10.859   5.385  0.2184 -0.6379  0.2328
  736MOL0     C99264   1.865  10.997   5.315 -0.7303  0.7833  1.2955
  736MOL0     C99265   1.768  10.990   5.186 -0.1053 -0.1834  0.0246
  736MOL0     C99266   1.722  11.129   5.138 -0.6660 -0.3643 -0.0537
  736MOL0     C99267   1.627  11.125   5.010 -0.4126 -0.5112  0.0137
  736MOL0     C99268   1.686  11.039   4.897  0.2277 -0.3169  0.6242
  736MOL0     C99269   1.624  11.092   4.765  0.3175 -0.3394  0.2904
  736MOL0    Cl99270   1.444  11.087   4.784 -0.0152 -0.1934  0.3732
  736MOL0     C99271   2.134  10.776   5.703  0.2162 -0.0021  0.2854
  736MOL0     C99272   2.252  10.730   5.755 -0.4039 -0.5460 -0.2864
  736MOL0     O99273   2.443  10.341   5.736 -0.0720  0.5380 -0.5749
  736MOL0     C99274   2.662  10.510   5.942  0.3977 -0.9497  1.9837
  736MOL0     C99275   2.751  10.497   6.042 -0.4236  0.8135 -0.3167
  736MOL0     N99276   2.990  10.412   6.953  0.3967  1.3729 -0.1527
  736MOL0     N99277   3.103  10.392   7.009 -0.0788  0.1887 -0.3973
  736MOL0     C99278   3.417  11.132   6.970  0.5400 -0.1428 -0.1608
  736MOL0     C99279   3.300  11.211   7.006  0.5875  0.9532  0.4845
  736MOL0     C99280   3.005  11.540   6.960  0.1960 -0.0516  0.5098
  736MOL0     C99281   3.016  11.678   6.976 -1.1557  0.6468  1.0270
  736MOL0     C99282   2.910  11.760   6.964 -0.5029 -1.0064 -0.0095
  736MOL0     C99283   2.774  11.718   6.946  0.4767  0.8907 -0.4075
  736MOL0     O99284   2.652  11.783   6.921  0.1314 -1.2214 -0.5057
  736MOL0     C99285   2.664  11.926   6.902 -0.1995 -0.1313  0.0630
  736MOL0     C99286   2.546  12.002   6.847 -0.6949  0.2038  0.6578
  736MOL0     C99287   2.424  11.996   6.943 -0.6687 -0.8539  0.0398
  736MOL0     C99288   2.308  12.066   6.884  0.1351 -1.4300  0.1671
  736MOL0     C99289   2.331  12.210   6.877  0.1169 -0.9822  0.2094
  736MOL0     C99290   2.375  12.328   6.871 -0.3769  0.6505  1.3875
  736MOL0     C99291   2.760  11.580   6.941 -1.1102 -0.1552  0.6567
  736MOL0     C99292   2.872  11.495   6.947  0.5218  0.1071 -0.2956
  736MOL0     H99293   3.187  11.244   6.685  0.9093  0.5869 -0.5601
  736MOL0     H99294   3.408  11.143   6.641  2.5325 -0.1940  1.8411
  736MOL0     H99295   3.767  11.101   6.832  0.9351  0.2431  0.5123
  736MOL0     H99296   3.669  11.051   6.972  1.0459  0.4358 -1.2899
  736MOL0     H99297   3.774  10.878   6.750 -3.1045 -1.3484  0.1377
  736MOL0     H99298   3.857  10.917   6.897  0.0380  3.9820 -0.0952
  736MOL0     H99299   3.761  10.758   7.025  1.3003  2.3455 -0.4465
  736MOL0     H99300   3.617  10.835   6.995 -0.0256 -0.8505  0.4198
  736MOL0     H99301   3.586  10.680   6.789 -0.6397 -0.5839  1.8752
  736MOL0     H99302   3.762  10.640   6.790  0.2799 -3.7565  0.0716
  736MOL0     H99303   3.747  10.483   6.956 -0.8327 -1.2368  0.6827
  736MOL0     H99304   3.618  10.570   7.042  1.1881  1.7274 -0.4465
  736MOL0     H99305   3.578  10.418   6.782  0.1333 -0.6712  0.1728
  736MOL0     H99306   3.578  10.328   6.932  1.0987 -0.1091 -1.3576
  736MOL0     H99307   3.393  10.515   7.001 -3.0707  1.3242 -1.1058
  736MOL0     H99308   3.377  10.526   6.826 -0.4854 -1.7947 -0.5762
  736MOL0     H99309   3.354  10.286   7.013 -0.3796  1.5475  0.4112
  736MOL0     H99310   3.354  10.259   6.843  0.3098 -1.8719  0.6659
  736MOL0     H99311   3.174  10.367   6.684 -0.8649 -1.5670  0.0671
  736MOL0     H99312   2.793  10.416   6.783 -1.0141  2.9978 -0.8578
  736MOL0     H99313   2.892  10.531   6.708 -0.8609  0.4572  2.2236
  736MOL0     H99314   2.777  10.294   6.601 -1.5893  1.7137  0.6691
  736MOL0     H99315   2.954  10.258   6.603  0.2917  0.7610  1.9953
  736MOL0     H99316   2.998  10.415   6.459  0.2837 -1.0470 -2.3748
  736MOL0     H99317   2.848  10.511   6.485  0.4356 -0.0723  0.9749
  736MOL0     H99318   2.713  10.317   6.375 -0.5806 -2.4928 -2.4000
  736MOL0     H99319   2.864  10.232   6.352 -1.8157 -0.3470 -0.1280
  736MOL0     H99320   2.649  10.219   6.188 -4.0576  0.4403 -0.4391
  736MOL0     H99321   2.389  10.196   6.102 -0.6650 -1.3621 -0.2605
  736MOL0     H99322   2.414  10.184   5.923  1.4068  0.7080  0.3750
  736MOL0     H99323   2.523  10.100   6.038  1.7129  0.4387  0.6668
  736MOL0     H99324   2.237  10.407   5.703  2.8453  1.9174  2.8206
  736MOL0     H99325   1.994  10.485   5.601  0.9700 -1.1659 -0.8980
  736MOL0     H99326   1.886  10.916   5.582  0.2104 -3.2926  1.0341
  736MOL0     H99327   2.042  10.896   5.493  0.8807 -2.4298 -0.4244
  736MOL0     H99328   1.907  10.783   5.322  0.6280 -0.0648 -0.1761
  736MOL0     H99329   1.757  10.833   5.406 -0.1275 -0.3166 -1.0022
  736MOL0     H99330   1.966  11.021   5.281 -0.3004  3.8844  4.1598
  736MOL0     H99331   1.814  11.071   5.378 -2.9866  2.2295 -1.9410
  736MOL0     H99332   1.819  10.933   5.108  0.3049  0.4071 -0.1449
  736MOL0     H99333   1.676  10.933   5.198  0.1153 -1.1959 -2.5004
  736MOL0     H99334   1.810  11.190   5.117 -1.4678  2.2859  3.3506
  736MOL0     H99335   1.662  11.174   5.217 -1.8108 -0.1120 -1.0337
  736MOL0     H99336   1.533  11.087   5.051 -0.5504 -1.3677 -1.0487
  736MOL0     H99337   1.615  11.229   4.980  3.3131  0.5467  1.5173
  736MOL0     H99338   1.666  10.933   4.916 -1.4391 -0.0346  0.5987
  736MOL0     H99339   1.793  11.054   4.880  0.6819 -2.1147  1.6743
  736MOL0     H99340   1.649  11.020   4.686  1.1382  1.2755 -0.9988
  736MOL0     H99341   1.661  11.190   4.734  0.6994 -1.1535 -2.0419
  736MOL0     H99342   2.112  10.882   5.703 -0.2576 -0.0979  0.6763
  736MOL0     H99343   2.313  10.801   5.810 -2.3588  0.9445  0.0752
  736MOL0     H99344   2.679  10.586   5.867  1.2454 -3.0522 -0.0832
  736MOL0     H99345   2.822  10.577   6.058  2.0293 -1.3292  0.1586
  736MOL0     H99346   3.469  11.096   7.058  1.1447  0.0556 -0.4298
  736MOL0     H99347   3.259  11.230   7.105 -1.2499 -0.5077  0.0579
  736MOL0     H99348   3.103  11.722   7.024 -1.1645  0.5013  1.1775
  736MOL0     H99349   2.918  11.867   6.983  0.0524 -0.8988 -0.8000
  736MOL0     H99350   2.687  11.977   6.995  4.0493 -1.6557  0.0536
  736MOL0     H99351   2.752  11.951   6.842  0.4388  2.4407  1.9466
  736MOL0     H99352   2.525  11.945   6.755  0.1010 -1.0859  1.2589
  736MOL0     H99353   2.566  12.101   6.805 -0.2356 -1.0802 -2.4956
  736MOL0     H99354   2.441  12.040   7.042 -1.3432  1.2980 -0.7336
  736MOL0     H99355   2.388  11.894   6.959 -1.9835 -0.6128 -1.1308
  736MOL0     H99356   2.213  12.045   6.934  0.2852 -2.0535  0.1956
  736MOL0     H99357   2.293  12.039   6.779 -1.1794 -0.9155  0.2106
  736MOL0     H99358   2.417  12.425   6.853 -0.2938 -0.1419 -5.7241
  736MOL0     H99359   2.666  11.532   6.916 -1.2210  1.3703 -2.2954
  736MOL0     H99360   2.849  11.389   6.934  0.9580  0.0037 -0.2305
  737MOL0     O99361   0.703   2.364   6.320 -0.0615 -0.7286 -0.5457
  737MOL0     C99362   0.804   2.371   6.250 -0.4056  0.7628  0.1151
  737MOL0     O99363   0.858   2.263   6.195  0.5238 -0.7251  0.1501
  737MOL0     C99364   0.799   2.137   6.201  0.1026 -0.3517 -0.4248
  737MOL0     C99365   0.667   2.104   6.183 -0.7211 -0.6465 -0.3728
  737MOL0     C99366   0.621   1.975   6.203  0.4774 -0.4052  0.3988
  737MOL0     C99367   0.715   1.870   6.238  0.8428 -0.6639 -0.3844
  737MOL0     O99368   0.667   1.738   6.242  0.1336 -0.4455  0.5722
  737MOL0     C99369   0.764   1.633   6.243 -0.5299 -0.0730  1.0298
  737MOL0     C99370   0.680   1.503   6.228 -0.4850 -0.8601 -0.4382
  737MOL0     C99371   0.773   1.390   6.181  0.6105 -0.4909  0.0163
  737MOL0     C99372   0.712   1.255   6.151  0.3167 -0.2710 -0.0313
  737MOL0     C99373   0.808   1.153   6.074  1.1131  0.2034  0.4289
  737MOL0     C99374   0.931   1.110   6.145  0.1273 -0.7707  0.8865
  737MOL0     C99375   1.021   1.029   6.051 -0.0632  0.8998 -0.1025
  737MOL0     C99376   1.127   0.961   6.143 -0.2714  0.5702 -0.0079
  737MOL0     N99377   1.187   0.840   6.089  1.0699 -0.1387 -0.2611
  737MOL0     C99378   1.310   0.836   6.027  0.5292 -0.1747 -0.2485
  737MOL0     C99379   1.312   0.723   5.960  0.3663  0.3450 -0.5055
  737MOL0     C99380   1.419   0.682   5.864 -0.2235 -0.1231  0.4395
  737MOL0     C99381   1.470   0.800   5.770 -0.6009  0.3104  0.1899
  737MOL0     C99382   1.569   0.761   5.649  0.6377  0.3429  0.6052
  737MOL0     C99383   1.575   0.892   5.562 -0.2334  0.3845  0.3318
  737MOL0     O99384   1.668   0.864   5.466 -0.4652 -0.4131  0.9487
  737MOL0     C99385   1.657   0.921   5.337 -0.0654 -0.1853  0.2413
  737MOL0     C99386   1.583   0.845   5.238  0.9065 -0.6779 -0.0977
  737MOL0     C99387   1.560   0.883   5.106  0.2962 -0.1076  0.0708
  737MOL0     C99388   1.500   0.775   5.021  0.2432 -0.3533 -0.3528
  737MOL0     C99389   1.606   1.009   5.065  0.8420  0.2575 -0.6437
  737MOL0     C99390   1.575   1.074   4.932  0.0342 -0.0184 -0.1317
  737MOL0     O99391   1.579   0.994   4.816  0.0434 -0.0828 -0.3738
  737MOL0     C99392   1.536   1.066   4.710 -0.3271  0.2580 -0.5026
  737MOL0     C99393   1.629   1.134   4.632  0.2627 -0.2923  0.3401
  737MOL0     C99394   1.583   1.198   4.514  0.1757 -0.1644 -0.7614
  737MOL0     C99395   1.453   1.187   4.482  0.2051  1.7760  1.0439
  737MOL0     O99396   1.424   1.252   4.360  0.6004 -0.2686  0.1523
  737MOL0     C99397   1.345   1.374   4.375 -0.1373  0.1237 -0.2594
  737MOL0     C99398   1.441   1.500   4.345 -0.8495 -0.6671  0.3842
  737MOL0     C99399   1.559   1.468   4.256 -0.2228  0.2757 -0.5522
  737MOL0     C99400   1.634   1.590   4.199  0.2445  0.1576  0.0732
  737MOL0     C99401   1.736   1.554   4.099 -0.0737  0.7892  0.8451
  737MOL0     C99402   1.682   1.461   3.987  0.2972 -0.0004  0.0129
  737MOL0     C99403   1.795   1.437   3.884 -0.2149  0.3798 -0.1603
  737MOL0     C99404   1.748   1.342   3.775 -0.4590  0.2485 -0.6303
  737MOL0    Cl99405   1.635   1.422   3.678  0.1599 -0.6986  0.0563
  737MOL0     C99406   1.360   1.116   4.555  0.5014  0.9233 -0.7952
  737MOL0     C99407   1.402   1.059   4.675 -0.2271  0.1036 -0.4267
  737MOL0     O99408   1.541   1.190   4.929  0.4135  0.1783  0.0219
  737MOL0     C99409   1.665   1.084   5.166  0.2232 -0.0870  0.3919
  737MOL0     C99410   1.691   1.054   5.299  0.7686  0.2905 -0.2341
  737MOL0     N99411   1.191   0.658   5.979  0.4422 -0.1717 -0.0550
  737MOL0     N99412   1.114   0.730   6.054 -0.4806 -0.5049  0.2260
  737MOL0     C99413   0.845   1.902   6.263 -0.2500  0.4214 -0.6338
  737MOL0     C99414   0.884   2.033   6.242  0.0591 -0.1137  0.9220
  737MOL0     C99415   0.856   2.495   6.220 -0.1086  0.7822  0.5273
  737MOL0     C99416   0.787   2.609   6.260  0.0571  0.4800  0.6015
  737MOL0     C99417   0.813   2.734   6.193  0.4223 -0.9072  1.0060
  737MOL0     C99418   0.914   2.750   6.093  0.0334  0.1466  0.8393
  737MOL0     O99419   0.921   2.869   6.019 -0.7430 -0.1532  0.0758
  737MOL0     C99420   0.974   2.858   5.889 -0.0206 -0.6367  0.8411
  737MOL0     C99421   0.873   2.804   5.795 -0.7953  0.2322 -0.3101
  737MOL0     C99422   0.736   2.870   5.801  0.7980  0.2751 -0.3546
  737MOL0     C99423   0.633   2.824   5.693 -0.3106  0.5216  0.7110
  737MOL0     C99424   0.680   2.842   5.555 -0.1420 -0.0374  0.1591
  737MOL0     C99425   0.702   2.869   5.436  0.4456  0.4822  0.2230
  737MOL0     C99426   0.997   2.635   6.071  0.2828 -0.3260  0.3885
  737MOL0     C99427   0.968   2.510   6.129 -0.3079  0.1468  0.3783
  737MOL0     H99428   0.600   2.180   6.145 -3.6863 -3.1517 -0.5630
  737MOL0     H99429   0.518   1.945   6.190  0.5697 -2.2675  3.0880
  737MOL0     H99430   0.829   1.640   6.156 -1.3723 -2.2853  0.1316
  737MOL0     H99431   0.822   1.640   6.335 -1.6717  0.8600  1.6972
  737MOL0     H99432   0.643   1.487   6.329  1.0016  0.3598  0.3274
  737MOL0     H99433   0.594   1.499   6.160 -1.3420 -4.2564  0.6119
  737MOL0     H99434   0.835   1.421   6.096  3.8392  0.1069  2.4091
  737MOL0     H99435   0.851   1.387   6.257 -1.7952 -0.0310  2.6616
  737MOL0     H99436   0.664   1.213   6.240  0.4022 -1.4050 -0.5024
  737MOL0     H99437   0.627   1.278   6.087  0.2871  1.5722  0.6030
  737MOL0     H99438   0.732   1.074   6.085  1.0180  0.4308  1.5710
  737MOL0     H99439   0.819   1.189   5.972 -0.2925  1.9565  0.8518
  737MOL0     H99440   0.998   1.190   6.179  2.4565 -2.3086  0.1587
  737MOL0     H99441   0.897   1.052   6.232 -2.0331 -1.1493 -0.1569
  737MOL0     H99442   0.963   0.960   5.988 -1.8262  1.3352  0.9799
  737MOL0     H99443   1.066   1.105   5.986  3.9165 -1.7907 -0.8485
  737MOL0     H99444   1.086   0.918   6.235 -0.8444 -0.0472 -0.5456
  737MOL0     H99445   1.200   1.032   6.185 -2.0333  0.2922  3.9489
  737MOL0     H99446   1.392   0.905   6.040  0.8148  0.0262 -2.6101
  737MOL0     H99447   1.509   0.649   5.917 -1.5793 -2.3586  1.4761
  737MOL0     H99448   1.390   0.594   5.805  1.6637 -1.0784  0.8657
  737MOL0     H99449   1.531   0.870   5.829  0.1931 -0.2970  0.1043
  737MOL0     H99450   1.392   0.868   5.734 -1.2918 -0.8107 -0.4661
  737MOL0     H99451   1.518   0.685   5.588  1.6826 -0.0426  0.1951
  737MOL0     H99452   1.667   0.723   5.680  0.3319 -1.9744 -0.9990
  737MOL0     H99453   1.615   0.972   5.625  0.1368 -0.6928  1.5104
  737MOL0     H99454   1.476   0.911   5.519  0.6959 -0.0635 -2.1441
  737MOL0     H99455   1.563   0.741   5.261  0.2257 -1.1760 -2.6368
  737MOL0     H99456   1.539   0.679   5.057  1.8382 -0.3508 -1.9150
  737MOL0     H99457   1.394   0.761   5.047  0.7884 -2.0237  1.1558
  737MOL0     H99458   1.526   0.787   4.915  1.5964 -1.5440 -0.1733
  737MOL0     H99459   1.737   1.141   4.646  0.5498 -0.8289 -1.3548
  737MOL0     H99460   1.650   1.265   4.460 -0.2954  0.2294 -0.8748
  737MOL0     H99461   1.264   1.368   4.302 -0.6237 -1.4916  0.3662
  737MOL0     H99462   1.294   1.387   4.471  0.7277 -1.6431  0.4745
  737MOL0     H99463   1.394   1.595   4.316 -0.0507 -0.4089 -0.0820
  737MOL0     H99464   1.486   1.528   4.441  0.1235 -3.3568  0.7943
  737MOL0     H99465   1.514   1.408   4.176  0.9979  1.5988 -2.3066
  737MOL0     H99466   1.630   1.408   4.313  0.8397  1.0512 -1.0336
  737MOL0     H99467   1.553   1.642   4.147 -1.1041 -2.8695 -1.0642
  737MOL0     H99468   1.683   1.655   4.272 -0.1162 -1.1394  1.5221
  737MOL0     H99469   1.820   1.505   4.149  1.0060  0.3883 -1.2483
  737MOL0     H99470   1.785   1.643   4.057  3.4246 -0.9523  0.8878
  737MOL0     H99471   1.661   1.363   4.033  2.1290 -2.1676 -3.3321
  737MOL0     H99472   1.596   1.498   3.931  1.9787 -0.0009 -2.7830
  737MOL0     H99473   1.881   1.387   3.932 -0.2915 -0.8751 -1.2746
  737MOL0     H99474   1.834   1.530   3.841  2.0165 -1.6730 -2.9500
  737MOL0     H99475   1.705   1.244   3.795  3.6757 -1.8840 -1.0980
  737MOL0     H99476   1.831   1.328   3.705 -0.1509  0.1580 -0.2475
  737MOL0     H99477   1.257   1.123   4.524  0.9842  1.2968 -2.4183
  737MOL0     H99478   1.328   1.018   4.743 -2.3317  1.8923 -1.5001
  737MOL0     H99479   1.700   1.180   5.131  0.6928  0.0473  1.2059
  737MOL0     H99480   1.759   1.117   5.355  1.0204  1.4683 -1.8100
  737MOL0     H99481   0.915   1.836   6.313 -3.7254 -1.8892  1.5395
  737MOL0     H99482   0.977   2.061   6.291 -0.1279 -2.0710  2.5293
  737MOL0     H99483   0.696   2.601   6.320  0.9154 -1.6659  1.7292
  737MOL0     H99484   0.752   2.817   6.225  2.3529  1.2648 -0.6237
  737MOL0     H99485   1.002   2.960   5.860 -3.9214  0.2500 -0.3369
  737MOL0     H99486   1.062   2.794   5.877  1.6436  1.8996 -1.7964
  737MOL0     H99487   0.858   2.697   5.813  0.3507  0.3697  1.7481
  737MOL0     H99488   0.916   2.820   5.696  0.3100  3.2822  0.5425
  737MOL0     H99489   0.734   2.979   5.812  2.2508  0.5185 -1.9587
  737MOL0     H99490   0.683   2.847   5.893 -2.2194  2.2697 -1.4434
  737MOL0     H99491   0.541   2.882   5.702 -3.3823 -3.8031  0.4824
  737MOL0     H99492   0.604   2.719   5.707  2.2228 -0.2501  0.7065
  737MOL0     H99493   0.714   2.880   5.330 -1.4499  1.1813  0.0296
  737MOL0     H99494   1.076   2.637   5.997 -0.0042  0.4339  0.0958
  737MOL0     H99495   1.021   2.426   6.085 -1.2360  0.1315 -0.7723
  738MOL0     O99496   2.209   1.692   7.965 -0.2909 -0.7581 -0.1734
  738MOL0     C99497   2.193   1.710   8.086  0.8633  0.3334  0.1420
  738MOL0     O99498   2.091   1.794   8.136  0.9859  0.2195 -0.3271
  738MOL0     C99499   2.045   1.896   8.059  0.1649 -0.1996  0.5888
  738MOL0     C99500   1.911   1.920   8.067 -0.2753 -0.0727  0.3264
  738MOL0     C99501   1.860   2.046   8.027 -0.3142 -0.0008  0.0275
  738MOL0     C99502   1.946   2.134   7.952  0.3110  0.5887  0.1543
  738MOL0     O99503   1.914   2.248   7.881 -0.4030 -0.2732 -0.8305
  738MOL0     C99504   1.830   2.340   7.944  0.3897 -1.0543 -1.1199
  738MOL0     C99505   1.889   2.479   7.919  0.4436  0.1725 -0.8983
  738MOL0     C99506   1.810   2.601   7.967  0.1328 -0.1422  0.6109
  738MOL0     C99507   1.791   2.621   8.121  0.2279 -0.1565  0.1600
  738MOL0     C99508   1.735   2.760   8.154  0.2733  0.3253 -0.3827
  738MOL0     C99509   1.734   2.778   8.302 -0.0033  0.0705 -0.2254
  738MOL0     C99510   1.659   2.905   8.348  0.7869  0.8410  0.4165
  738MOL0     C99511   1.706   3.030   8.277  0.2608 -1.2234 -0.2544
  738MOL0     N99512   1.651   3.159   8.322 -0.1371  0.3163 -0.0301
  738MOL0     C99513   1.547   3.222   8.256  0.6476 -0.2880 -0.1638
  738MOL0     C99514   1.533   3.337   8.318 -1.0505 -0.3036 -0.5901
  738MOL0     C99515   1.421   3.431   8.295  0.3472 -0.6066 -0.0311
  738MOL0     C99516   1.307   3.408   8.400  0.3000  1.6588  0.0472
  738MOL0     C99517   1.208   3.527   8.430 -0.6615  0.1510  0.8230
  738MOL0     C99518   1.290   3.648   8.488  0.1212 -0.0243 -0.2169
  738MOL0     O99519   1.203   3.727   8.571 -0.2718 -0.1868 -0.5962
  738MOL0     C99520   1.127   3.827   8.503  0.1891  0.5039 -0.1567
  738MOL0     C99521   1.043   3.902   8.586 -0.2783 -0.1752 -0.8521
  738MOL0     C99522   0.945   3.992   8.535 -0.4836  0.3441  0.1057
  738MOL0     C99523   0.863   4.074   8.632 -0.3015  0.1151  0.1229
  738MOL0     C99524   0.932   3.996   8.383 -0.5399  0.3841 -0.8003
  738MOL0     C99525   0.836   4.084   8.312  0.3956  0.2296 -1.2393
  738MOL0     O99526   0.839   4.074   8.172  1.3343  0.4834  0.0125
  738MOL0     C99527   0.727   4.134   8.122 -0.8192 -0.7737  0.5181
  738MOL0     C99528   0.608   4.072   8.148 -0.2716 -0.4207 -0.3654
  738MOL0     C99529   0.492   4.127   8.090 -0.1357 -0.4770 -0.9648
  738MOL0     C99530   0.491   4.229   8.005  0.0818 -0.8178 -0.0586
  738MOL0     O99531   0.386   4.286   7.947 -0.3535  0.1452  0.0174
  738MOL0     C99532   0.254   4.251   7.978  0.2525 -0.2677 -0.1519
  738MOL0     C99533   0.143   4.305   7.884  0.6780  0.5591 -0.5677
  738MOL0     C99534   0.104   4.447   7.893  0.1849  0.4486 -0.0524
  738MOL0     C99535  -0.000   4.471   7.773 -0.1002 -0.4501  0.2451
  738MOL0     C99536  -0.060   4.615   7.787  0.7173  0.2636 -1.1387
  738MOL0     C99537  -0.118   4.660   7.651 -0.5906  0.4260  0.0129
  738MOL0     C99538  -0.017   4.708   7.550 -0.5335 -0.2976 -1.0656
  738MOL0     C99539  -0.078   4.769   7.432  0.4496 -1.1380 -0.5917
  738MOL0    Cl99540   0.023   4.809   7.294 -0.1965  0.2030 -0.0319
  738MOL0     C99541   0.606   4.294   7.982  0.8348  0.3053  1.8060
  738MOL0     C99542   0.726   4.243   8.035 -0.1401 -0.0734 -0.5390
  738MOL0     O99543   0.764   4.163   8.377  0.4736 -0.2545 -1.0691
  738MOL0     C99544   1.011   3.914   8.306 -0.2442 -0.7632  1.0836
  738MOL0     C99545   1.115   3.840   8.365  0.1777  0.1333 -0.0774
  738MOL0     N99546   1.643   3.360   8.405  0.3099 -0.6425  0.3437
  738MOL0     N99547   1.716   3.252   8.389  0.1606  0.2798  0.6724
  738MOL0     C99548   2.081   2.105   7.928 -0.2669  0.5961  0.4284
  738MOL0     C99549   2.127   1.992   7.995 -0.3682 -0.2838 -0.3745
  738MOL0     C99550   2.270   1.623   8.182  0.1266  0.3259 -0.1340
  738MOL0     C99551   2.241   1.619   8.322  1.0479  0.0368 -0.2800
  738MOL0     C99552   2.311   1.538   8.414  0.0339  0.7245  1.3365
  738MOL0     C99553   2.417   1.461   8.361  0.1069 -0.7415 -0.0709
  738MOL0     O99554   2.508   1.396   8.433  0.2226  0.1618  0.3499
  738MOL0     C99555   2.464   1.352   8.564 -0.3786  0.7098 -0.4430
  738MOL0     C99556   2.587   1.273   8.629  0.5310  0.8447  0.4902
  738MOL0     C99557   2.715   1.350   8.637  0.0667  0.2051  0.6853
  738MOL0     C99558   2.836   1.276   8.690 -0.0406 -0.3036 -0.1619
  738MOL0     C99559   2.813   1.194   8.813  0.3616  0.1841  0.0274
  738MOL0     C99560   2.793   1.128   8.910  0.9244 -0.4706  0.6432
  738MOL0     C99561   2.452   1.461   8.225  0.1681 -0.2484  0.0142
  738MOL0     C99562   2.380   1.539   8.141 -0.0916 -0.9779 -0.0156
  738MOL0     H99563   1.842   1.853   8.118 -0.1840 -0.3346  0.1065
  738MOL0     H99564   1.759   2.079   8.052 -0.9651  0.0780 -2.3937
  738MOL0     H99565   1.731   2.338   7.898  0.4403  0.1491 -1.2922
  738MOL0     H99566   1.820   2.316   8.051 -0.4058 -0.0971 -0.9738
  738MOL0     H99567   1.989   2.485   7.964 -0.4195  2.0871  0.9346
  738MOL0     H99568   1.905   2.494   7.812  1.9026  0.5908 -0.6453
  738MOL0     H99569   1.857   2.694   7.934  1.1492 -0.8749 -0.0987
  738MOL0     H99570   1.707   2.596   7.932  0.2789 -1.8021  0.2994
  738MOL0     H99571   1.725   2.538   8.149  1.7592 -2.4362 -2.4898
  738MOL0     H99572   1.888   2.612   8.172  0.9684  0.6960 -1.0511
  738MOL0     H99573   1.790   2.838   8.100  1.2819  1.5917  2.2581
  738MOL0     H99574   1.630   2.769   8.125  0.5969 -0.3452 -1.8610
  738MOL0     H99575   1.706   2.690   8.360  2.7528  0.2742  1.6189
  738MOL0     H99576   1.833   2.798   8.345  0.4527  2.4620 -2.1730
  738MOL0     H99577   1.552   2.891   8.329  0.5040 -0.7145  2.7561
  738MOL0     H99578   1.666   2.907   8.457 -2.1734 -2.8384  0.8889
  738MOL0     H99579   1.673   3.015   8.174 -0.5470  0.9519 -0.3654
  738MOL0     H99580   1.815   3.036   8.280  0.5065 -1.9152 -3.5708
  738MOL0     H99581   1.478   3.178   8.185 -2.0574  0.2631  1.9666
  738MOL0     H99582   1.466   3.529   8.312 -1.7603  0.8013 -2.0221
  738MOL0     H99583   1.376   3.442   8.196 -1.7250  0.8314  0.9891
  738MOL0     H99584   1.355   3.368   8.490  0.0944 -0.3700 -0.6744
  738MOL0     H99585   1.234   3.330   8.375  2.0659 -0.3899  0.9383
  738MOL0     H99586   1.127   3.486   8.492  0.6376 -0.5153  2.1489
  738MOL0     H99587   1.163   3.544   8.332 -1.2605 -0.1995  1.0326
  738MOL0     H99588   1.347   3.709   8.417 -0.3705  4.0094  2.5092
  738MOL0     H99589   1.368   3.591   8.539 -1.9672 -3.7084 -0.8294
  738MOL0     H99590   1.052   3.875   8.691  1.4371  1.8855 -0.4015
  738MOL0     H99591   0.850   4.013   8.722 -0.3587 -0.9575 -0.5842
  738MOL0     H99592   0.919   4.163   8.659  5.0752 -2.8813  0.1774
  738MOL0     H99593   0.763   4.086   8.588  1.7148  1.7910 -4.6305
  738MOL0     H99594   0.596   3.990   8.218  4.4315 -1.3267 -0.3011
  738MOL0     H99595   0.401   4.079   8.124 -0.8001  1.0209 -0.5516
  738MOL0     H99596   0.235   4.143   7.982 -1.8138  0.0039 -1.1360
  738MOL0     H99597   0.230   4.285   8.080 -0.0073 -0.2935 -0.2030
  738MOL0     H99598   0.159   4.266   7.783  1.1996 -3.1741  0.8126
  738MOL0     H99599   0.061   4.250   7.930 -0.7781  3.9444  1.2398
  738MOL0     H99600   0.187   4.513   7.868  2.8949 -2.2596  1.1130
  738MOL0     H99601   0.066   4.474   7.993 -0.1702 -0.7113  0.1446
  738MOL0     H99602   0.048   4.465   7.676 -2.2148 -2.0671 -0.7907
  738MOL0     H99603  -0.066   4.384   7.781  1.4473 -1.7271 -0.5146
  738MOL0     H99604   0.017   4.689   7.808  0.8934 -0.6796  2.0242
  738MOL0     H99605  -0.128   4.611   7.872  2.3673 -0.9277  0.1945
  738MOL0     H99606  -0.177   4.582   7.601 -2.5956  1.9597 -0.1592
  738MOL0     H99607  -0.180   4.751   7.652  0.4886  1.1746 -0.2328
  738MOL0     H99608   0.051   4.627   7.521 -0.1665 -0.4720  0.2159
  738MOL0     H99609   0.047   4.788   7.589 -4.9306  3.7545 -1.2865
  738MOL0     H99610  -0.151   4.848   7.456  0.1349 -1.6769  0.2539
  738MOL0     H99611  -0.132   4.687   7.384  1.9901 -1.8555 -1.1569
  738MOL0     H99612   0.595   4.377   7.913 -0.4587  0.4788  2.2053
  738MOL0     H99613   0.823   4.289   8.016  0.3968  0.0123  1.9635
  738MOL0     H99614   0.995   3.908   8.199 -3.1136 -1.8409  1.4872
  738MOL0     H99615   1.174   3.779   8.298 -1.6832 -2.2123  0.3190
  738MOL0     H99616   2.145   2.158   7.858 -1.7801  5.1440  2.1514
  738MOL0     H99617   2.233   1.969   7.985  0.0822  0.9478  1.2788
  738MOL0     H99618   2.158   1.676   8.363  0.1093 -1.5692  0.1506
  738MOL0     H99619   2.300   1.546   8.522  3.4006 -0.0251  1.8402
  738MOL0     H99620   2.435   1.433   8.632  0.2631 -0.9670  1.9651
  738MOL0     H99621   2.386   1.275   8.563  2.3291 -2.2453 -1.0460
  738MOL0     H99622   2.608   1.181   8.574  1.9244 -0.4096  2.9652
  738MOL0     H99623   2.547   1.246   8.727  1.2044  1.2487  0.8817
  738MOL0     H99624   2.694   1.444   8.688  0.8955  1.4336 -1.1377
  738MOL0     H99625   2.739   1.388   8.537  0.6707  2.9799  1.8058
  738MOL0     H99626   2.920   1.343   8.710 -1.5829  1.5214  0.5278
  738MOL0     H99627   2.862   1.203   8.612  3.0797 -2.2130  2.4053
  738MOL0     H99628   2.777   1.041   8.971 -2.2941 -2.3304 -2.4755
  738MOL0     H99629   2.532   1.396   8.191  0.1449  1.5412 -4.0877
  738MOL0     H99630   2.403   1.523   8.036 -2.0336 -2.8489 -0.2096
  739MOL0     O99631   6.494   4.135   5.687  0.0049 -0.3157  0.1079
  739MOL0     C99632   6.582   4.139   5.598  0.2057  0.8777 -0.1922
  739MOL0     O99633   6.709   4.189   5.599  0.9808  0.7553  0.6329
  739MOL0     C99634   6.770   4.197   5.719  0.2308 -0.4261 -0.3376
  739MOL0     C99635   6.904   4.161   5.709 -0.4086 -1.0610  0.0806
  739MOL0     C99636   6.987   4.165   5.822 -0.6408  0.3702 -0.1430
  739MOL0     C99637   6.933   4.217   5.946 -0.2846 -0.6328 -0.0813
  739MOL0     O99638   7.017   4.240   6.058 -0.5853 -0.1231  0.8586
  739MOL0     C99639   7.039   4.374   6.104 -0.0772 -0.6251  0.7277
  739MOL0     C99640   7.072   4.366   6.258  0.4857 -0.6074  0.3059
  739MOL0     C99641   7.086   4.500   6.331  0.2314 -0.7854  0.1782
  739MOL0     C99642   7.223   4.561   6.309  0.4731 -1.1807 -0.3602
  739MOL0     C99643   7.227   4.717   6.355 -0.5376  0.6237  0.7759
  739MOL0     C99644   7.214   4.730   6.508  0.6895 -0.1335  0.0849
  739MOL0     C99645   7.112   4.843   6.539 -0.3235 -0.7914 -0.1141
  739MOL0     C99646   7.102   4.889   6.688  0.9753  0.4844  0.0921
  739MOL0     N99647   7.220   4.948   6.744  0.2085 -1.4302  0.8133
  739MOL0     C99648   7.244   4.967   6.877 -0.0437  0.5182  0.1374
  739MOL0     C99649   7.351   5.048   6.878 -0.0649 -0.8525  0.3376
  739MOL0     C99650   7.423   5.097   7.002  1.9040  0.6187  0.3202
  739MOL0     C99651   7.574   5.092   6.990 -0.5238 -0.0300 -0.3325
  739MOL0     C99652   7.637   5.059   7.129  0.1011 -0.2990 -0.2909
  739MOL0     C99653   7.776   5.019   7.087 -0.1754  0.4866  0.6674
  739MOL0     O99654   7.857   4.970   7.200 -0.0362 -1.1280  0.1984
  739MOL0     C99655   7.986   4.940   7.186  0.2187  0.9721  0.4460
  739MOL0     C99656   8.044   4.864   7.277 -0.1686  0.0889 -0.8134
  739MOL0     C99657   8.175   4.813   7.261 -0.2293 -0.5711  0.2783
  739MOL0     C99658   8.225   4.683   7.330 -0.3472 -0.1111 -0.8246
  739MOL0     C99659   8.246   4.853   7.142 -0.3230  0.2846 -0.2384
  739MOL0     C99660   8.386   4.830   7.102  0.5569  0.3418  0.4621
  739MOL0     O99661   8.476   4.888   7.188  0.6269  1.0111  0.2367
  739MOL0     C99662   8.602   4.878   7.154 -0.0202  1.0477  0.0041
  739MOL0     C99663   8.677   4.764   7.203  0.2402  0.5902  1.2227
  739MOL0     C99664   8.818   4.766   7.179  0.0303 -0.3102 -0.4574
  739MOL0     C99665   8.877   4.864   7.097 -0.0903 -0.0360 -0.1147
  739MOL0     O99666   9.003   4.839   7.069  0.4198 -0.0512 -0.3543
  739MOL0     C99667   9.046   4.862   6.932 -0.3642  0.0420 -0.2888
  739MOL0     C99668   9.041   4.733   6.853 -0.8608  0.1413 -0.3610
  739MOL0     C99669   9.077   4.751   6.699  0.3174 -0.3031 -0.4256
  739MOL0     C99670   9.073   4.618   6.629  0.6017 -0.0859 -0.1018
  739MOL0     C99671   9.087   4.653   6.476 -1.2215  1.3699 -0.7514
  739MOL0     C99672   9.118   4.539   6.389 -0.6570 -0.2679  0.7723
  739MOL0     C99673   9.003   4.440   6.382  0.3257  0.8814  0.6318
  739MOL0     C99674   9.013   4.329   6.495 -0.1449 -0.2607 -1.0689
  739MOL0    Cl99675   8.894   4.214   6.439  0.3747  0.6329 -0.1312
  739MOL0     C99676   8.798   4.972   7.046  0.6927  0.7666  0.1303
  739MOL0     C99677   8.660   4.972   7.083  0.4043  0.0036 -0.0509
  739MOL0     O99678   8.414   4.757   7.003 -0.0095  0.3623  0.4298
  739MOL0     C99679   8.192   4.940   7.060  0.4354  0.2747 -0.6931
  739MOL0     C99680   8.061   4.979   7.072  1.0306  0.9344 -0.5653
  739MOL0     N99681   7.380   5.091   6.754  0.4115  0.4524 -0.0388
  739MOL0     N99682   7.306   5.025   6.669 -0.0944  1.2776  0.4491
  739MOL0     C99683   6.800   4.255   5.954  0.6802 -0.1618 -0.0987
  739MOL0     C99684   6.720   4.248   5.841  0.5688 -0.7416 -0.1943
  739MOL0     C99685   6.546   4.085   5.463  0.3868 -0.4851 -0.6130
  739MOL0     C99686   6.610   4.115   5.349 -1.1259  0.4175  0.4210
  739MOL0     C99687   6.554   4.094   5.223  0.6313 -0.8331  0.5442
  739MOL0     C99688   6.432   4.028   5.207  1.1758 -0.3688 -0.1502
  739MOL0     O99689   6.364   4.004   5.085 -0.4905  0.3614 -0.2600
  739MOL0     C99690   6.385   4.103   4.978 -0.9083 -0.6815 -1.3751
  739MOL0     C99691   6.502   4.063   4.890 -0.6364  0.3499 -0.0582
  739MOL0     C99692   6.457   3.938   4.817  0.2627  0.3808 -0.0563
  739MOL0     C99693   6.566   3.892   4.729 -0.1058 -0.2562 -0.3156
  739MOL0     C99694   6.546   3.748   4.696 -0.8507 -0.4765  0.0931
  739MOL0     C99695   6.538   3.625   4.677  0.8712 -0.6817  1.1843
  739MOL0     C99696   6.374   3.968   5.318 -0.6242 -0.0011  0.1314
  739MOL0     C99697   6.435   4.000   5.444  0.2618 -0.1027 -0.0873
  739MOL0     H99698   6.930   4.125   5.610 -2.1569 -1.9511 -0.0863
  739MOL0     H99699   7.088   4.126   5.829 -0.6881 -0.1343 -1.9227
  739MOL0     H99700   7.122   4.405   6.041 -1.2051 -0.8878 -0.9558
  739MOL0     H99701   6.949   4.430   6.076 -3.3766 -4.9000  1.5660
  739MOL0     H99702   6.977   4.329   6.299  0.3045  1.9009  2.4228
  739MOL0     H99703   7.142   4.290   6.293  0.4072 -0.4515  0.8060
  739MOL0     H99704   7.019   4.576   6.290  2.5747  1.8502  0.9420
  739MOL0     H99705   7.057   4.472   6.432 -0.5151 -0.2285  0.1351
  739MOL0     H99706   7.298   4.502   6.363  2.4451  0.5405 -1.0576
  739MOL0     H99707   7.253   4.573   6.204  1.1980  0.7024  0.0159
  739MOL0     H99708   7.319   4.766   6.323 -1.6446  1.0319 -2.1283
  739MOL0     H99709   7.145   4.771   6.306 -0.6670  2.8120  3.1791
  739MOL0     H99710   7.169   4.637   6.543 -1.4598  1.2161  1.0852
  739MOL0     H99711   7.311   4.762   6.550 -1.2392 -0.0603  5.2321
  739MOL0     H99712   7.138   4.931   6.480 -0.3541 -2.7098 -3.2173
  739MOL0     H99713   7.007   4.824   6.515 -1.4429  1.3633  2.4485
  739MOL0     H99714   7.050   4.807   6.740  1.8476 -2.4717 -3.2877
  739MOL0     H99715   7.032   4.973   6.689 -1.3607 -1.2834 -1.4793
  739MOL0     H99716   7.183   4.934   6.961  0.7007 -1.3703 -0.0133
  739MOL0     H99717   7.392   5.200   7.024 -0.6226  0.0881 -0.3741
  739MOL0     H99718   7.383   5.040   7.086 -2.6124  2.2532 -0.4264
  739MOL0     H99719   7.606   5.195   6.970  2.5687 -0.8288  0.0134
  739MOL0     H99720   7.603   5.035   6.902  1.7145  0.4904  0.0167
  739MOL0     H99721   7.580   4.976   7.174 -3.4244  2.0976  0.0507
  739MOL0     H99722   7.645   5.149   7.190 -3.0770  0.9810 -1.5504
  739MOL0     H99723   7.825   5.111   7.053  2.6921 -0.7368  1.1815
  739MOL0     H99724   7.781   4.937   7.015 -1.5383  0.7327  0.2664
  739MOL0     H99725   7.992   4.852   7.372  2.4455  0.2544  0.7373
  739MOL0     H99726   8.220   4.600   7.259  0.3301 -2.9885  2.1795
  739MOL0     H99727   8.324   4.690   7.377 -0.8397 -1.5866  0.5226
  739MOL0     H99728   8.156   4.650   7.409 -0.9385  1.6652 -0.5517
  739MOL0     H99729   8.628   4.686   7.259  1.3680 -3.0519 -2.3553
  739MOL0     H99730   8.885   4.689   7.214  0.7508  0.6859  0.4241
  739MOL0     H99731   8.969   4.922   6.883 -2.3719 -0.3040  2.2430
  739MOL0     H99732   9.138   4.920   6.916 -2.3429  3.0108 -1.9249
  739MOL0     H99733   9.108   4.662   6.902 -0.4863  0.5547 -0.2699
  739MOL0     H99734   8.941   4.689   6.860 -2.3819  2.9658 -2.2781
  739MOL0     H99735   9.177   4.793   6.688 -0.7475  2.2033 -1.1460
  739MOL0     H99736   9.004   4.823   6.663  0.2436  0.1703  0.6154
  739MOL0     H99737   9.164   4.565   6.658  0.9763  1.1743  1.1777
  739MOL0     H99738   8.979   4.562   6.639 -0.5983  1.0638 -3.4594
  739MOL0     H99739   9.162   4.731   6.463  0.5385 -0.3575 -1.4108
  739MOL0     H99740   8.998   4.707   6.442 -1.5700  0.7382 -0.8701
  739MOL0     H99741   9.152   4.570   6.289 -3.1919 -0.4577 -0.2362
  739MOL0     H99742   9.207   4.496   6.435  3.0323  3.1210 -2.4272
  739MOL0     H99743   9.007   4.401   6.280 -2.0890  1.4429  0.2398
  739MOL0     H99744   8.907   4.494   6.386 -0.1943  0.0173  0.2141
  739MOL0     H99745   8.988   4.361   6.596 -1.4703  0.9676 -1.7547
  739MOL0     H99746   9.114   4.287   6.497 -0.1943 -0.3947 -1.2797
  739MOL0     H99747   8.846   5.052   6.991  0.6544  0.6303 -0.1008
  739MOL0     H99748   8.596   5.055   7.055  0.4452  1.1576  2.8739
  739MOL0     H99749   8.235   4.974   6.966  0.2780 -1.3287 -1.3828
  739MOL0     H99750   8.028   5.052   7.000 -1.2007  0.4423 -0.1324
  739MOL0     H99751   6.759   4.298   6.044  3.2667  1.7115  0.2901
  739MOL0     H99752   6.622   4.292   5.860  2.3325  2.7027  2.1971
  739MOL0     H99753   6.706   4.165   5.359  0.4023 -2.4705  1.4245
  739MOL0     H99754   6.599   4.150   5.141 -1.2197 -1.2437 -0.8136
  739MOL0     H99755   6.304   4.124   4.908  1.3711  3.6294 -3.1188
  739MOL0     H99756   6.407   4.198   5.028 -0.7344 -1.2377 -0.3842
  739MOL0     H99757   6.589   4.036   4.952 -1.2337  0.3086  0.7700
  739MOL0     H99758   6.530   4.140   4.817 -1.8358 -1.9419 -3.1332
  739MOL0     H99759   6.373   3.966   4.753 -0.8387 -3.2646 -0.4534
  739MOL0     H99760   6.417   3.853   4.874  1.4958 -1.0175 -1.1934
  739MOL0     H99761   6.666   3.907   4.770  0.9999  0.2242 -2.9594
  739MOL0     H99762   6.564   3.947   4.634  0.9079 -4.4680 -3.0289
  739MOL0     H99763   6.538   3.518   4.666 -1.0980 -0.5714 -0.5633
  739MOL0     H99764   6.292   3.899   5.305 -0.6437 -0.1152  0.8283
  739MOL0     H99765   6.372   3.970   5.527 -0.7102 -1.1228 -1.1615
  740MOL0     O99766   9.977  11.417   5.799 -0.2446  0.9230  0.1473
  740MOL0     C99767  10.034  11.473   5.706  0.2354  0.0737 -1.0210
  740MOL0     O99768   9.990  11.474   5.575 -0.9176  0.6054 -0.8760
  740MOL0     C99769   9.860  11.461   5.555  0.9122 -0.2643 -0.3253
  740MOL0     C99770   9.805  11.332   5.549 -0.3620 -1.1875  0.9121
  740MOL0     C99771   9.670  11.317   5.528 -0.8491  0.1751  0.3064
  740MOL0     C99772   9.588  11.430   5.512 -0.0343  1.0666  0.2773
  740MOL0     O99773   9.451  11.413   5.507 -0.2199  0.0353 -0.4582
  740MOL0     C99774   9.378  11.326   5.588  0.0555 -1.1015 -0.0817
  740MOL0     C99775   9.221  11.347   5.580  0.3015 -0.6596 -1.1958
  740MOL0     C99776   9.175  11.460   5.683 -0.0118  0.0903  0.4947
  740MOL0     C99777   9.214  11.600   5.648  0.4652  0.0134  0.0691
  740MOL0     C99778   9.173  11.712   5.754  0.3340  0.3035  0.8911
  740MOL0     C99779   9.212  11.690   5.899  0.8914  0.4586  0.3553
  740MOL0     C99780   9.168  11.806   5.989  0.5858 -0.3402  0.2873
  740MOL0     C99781   9.025  11.775   6.046 -0.4733 -0.4814 -0.7063
  740MOL0     N99782   8.985  11.890   6.138 -0.2926 -0.0444 -1.1748
  740MOL0     C99783   8.991  12.023   6.113 -0.4678  0.1026  0.2389
  740MOL0     C99784   8.957  12.085   6.234 -0.3411  0.3267 -1.3347
  740MOL0     C99785   8.939  12.229   6.242  0.6671 -0.2784 -0.7273
  740MOL0     C99786   8.794  12.278   6.249 -0.1295  0.8052 -0.4619
  740MOL0     C99787   8.741  12.276   6.104 -0.2750  0.4690 -0.2590
  740MOL0     C99788   8.599  12.345   6.093 -0.0090 -0.2967  0.7846
  740MOL0     O99789   8.574  12.377   5.955  0.4261 -0.3634  0.1842
  740MOL0     C99790   8.442  12.357   5.898 -1.1002 -0.5672 -0.6802
  740MOL0     C99791   8.409  12.438   5.792  0.0226  0.7021 -0.3723
  740MOL0     C99792   8.285  12.413   5.718 -0.9856  1.1786  0.7056
  740MOL0     C99793   8.250  12.494   5.596 -0.0263 -0.0912  0.0183
  740MOL0     C99794   8.197  12.308   5.751 -0.5150  0.2307 -0.9506
  740MOL0     C99795   8.073  12.267   5.682  0.2035 -0.5225  0.9383
  740MOL0     O99796   7.982  12.361   5.658  0.0726  0.2486  0.0903
  740MOL0     C99797   7.852  12.312   5.654 -0.2950 -0.0355  0.4961
  740MOL0     C99798   7.810  12.243   5.535  0.9074  0.5338  0.3572
  740MOL0     C99799   7.689  12.179   5.522 -0.0122 -1.0410 -0.5791
  740MOL0     C99800   7.590  12.194   5.628  0.0131 -0.7018  0.8427
  740MOL0     O99801   7.463  12.142   5.637 -0.1397  0.7950  0.4127
  740MOL0     C99802   7.406  12.073   5.518 -0.8097  0.8553  0.2161
  740MOL0     C99803   7.372  12.173   5.405  0.2066 -0.4856 -0.4017
  740MOL0     C99804   7.276  12.279   5.445  0.5554  0.1298 -0.9684
  740MOL0     C99805   7.334  12.420   5.484  0.3390 -0.5098  0.3769
  740MOL0     C99806   7.228  12.492   5.576  0.8147  0.5370  0.8362
  740MOL0     C99807   7.103  12.526   5.493 -0.4567 -0.5417 -0.1651
  740MOL0     C99808   7.018  12.620   5.587  0.5503  0.4219 -0.3689
  740MOL0     C99809   6.911  12.694   5.501 -0.6355  0.2604  0.1818
  740MOL0    Cl99810   6.800  12.580   5.411 -0.0147  0.3402  0.0488
  740MOL0     C99811   7.633  12.265   5.737 -0.4367  0.1331 -0.0225
  740MOL0     C99812   7.760  12.321   5.761 -0.3349  0.9656  0.8852
  740MOL0     O99813   8.055  12.153   5.669 -0.5658  0.1580 -0.4966
  740MOL0     C99814   8.242  12.233   5.855  0.2275 -0.0298 -1.4095
  740MOL0     C99815   8.359  12.254   5.932 -0.3938 -0.2905  1.1829
  740MOL0     N99816   8.943  11.985   6.324  0.4028 -0.4201  0.2685
  740MOL0     N99817   8.961  11.871   6.262 -0.6056  1.4944  0.5302
  740MOL0     C99818   9.642  11.550   5.497 -0.0403 -0.4023 -0.2828
  740MOL0     C99819   9.778  11.570   5.522  0.0417 -0.4622 -0.8807
  740MOL0     C99820  10.164  11.542   5.743 -1.2030 -0.0637 -0.5836
  740MOL0     C99821  10.248  11.594   5.647  0.6251  0.3286  0.4992
  740MOL0     C99822  10.370  11.646   5.689 -0.2825 -0.0396  0.2566
  740MOL0     C99823  10.419  11.648   5.812  0.6266 -1.0770 -0.8373
  740MOL0     O99824  10.529  11.709   5.857 -0.0422 -0.6517 -0.4346
  740MOL0     C99825  10.640  11.724   5.774  0.0993  0.0533  0.5632
  740MOL0     C99826  10.726  11.594   5.776  0.5188 -0.6007 -1.0818
  740MOL0     C99827  10.770  11.554   5.915 -0.8775  0.1316  0.0143
  740MOL0     C99828  10.893  11.460   5.924  0.4598  0.0898  1.0013
  740MOL0     C99829  10.851  11.332   5.880  1.1080  0.2987  0.1158
  740MOL0     C99830  10.813  11.214   5.852  0.5539  0.9425  0.8324
  740MOL0     C99831  10.325  11.610   5.911  0.5393 -0.6386 -0.2462
  740MOL0     C99832  10.199  11.572   5.874 -0.3690  1.1647 -0.8287
  740MOL0     H99833   9.876  11.250   5.560  2.3816  1.1073  1.5921
  740MOL0     H99834   9.643  11.212   5.526 -1.3267  0.3060 -0.6867
  740MOL0     H99835   9.407  11.228   5.548  2.9060 -0.9933  1.4925
  740MOL0     H99836   9.417  11.334   5.689 -0.5746 -1.3785  0.1911
  740MOL0     H99837   9.191  11.381   5.481 -1.2300 -1.2834 -0.9832
  740MOL0     H99838   9.158  11.258   5.593 -1.2610  0.4962 -0.5061
  740MOL0     H99839   9.066  11.449   5.688 -0.5046  2.8557 -1.6824
  740MOL0     H99840   9.222  11.442   5.780  3.9099  0.0400 -1.2438
  740MOL0     H99841   9.322  11.596   5.635  0.7824  1.6220  1.7362
  740MOL0     H99842   9.192  11.635   5.547  3.3627  0.0284 -0.6413
  740MOL0     H99843   9.226  11.797   5.711  0.3164 -0.5036 -0.8017
  740MOL0     H99844   9.068  11.743   5.752  0.8240  2.0524  0.5141
  740MOL0     H99845   9.171  11.592   5.928  2.5542 -0.6331 -0.7769
  740MOL0     H99846   9.320  11.674   5.896  0.5797 -2.0378 -1.5071
  740MOL0     H99847   9.241  11.826   6.068  1.0740  0.8908 -0.4494
  740MOL0     H99848   9.176  11.898   5.930  2.0078 -1.2501 -1.0268
  740MOL0     H99849   9.020  11.685   6.108 -0.7305 -0.0012 -0.0100
  740MOL0     H99850   8.954  11.759   5.964  1.1051 -4.2772 -1.5270
  740MOL0     H99851   8.997  12.072   6.016 -4.5543 -0.3369 -0.4423
  740MOL0     H99852   8.984  12.257   6.337 -0.4690  1.8699 -0.7589
  740MOL0     H99853   9.010  12.264   6.167  1.2160 -3.4315 -1.8411
  740MOL0     H99854   8.780  12.382   6.282 -0.0223  0.5071  0.5581
  740MOL0     H99855   8.733  12.208   6.307 -0.7542 -0.3006 -2.3707
  740MOL0     H99856   8.730  12.171   6.075 -1.1398  0.1472  1.1722
  740MOL0     H99857   8.809  12.320   6.030 -2.3583 -0.2216 -2.7569
  740MOL0     H99858   8.597  12.435   6.155 -1.2049 -0.7904  1.5006
  740MOL0     H99859   8.531  12.272   6.139  0.1121 -0.1070  1.2813
  740MOL0     H99860   8.485  12.512   5.769  3.1652 -1.3155  2.6070
  740MOL0     H99861   8.200  12.584   5.634  2.3192  0.1569  2.9436
  740MOL0     H99862   8.342  12.528   5.549  0.2237  1.3889  1.4673
  740MOL0     H99863   8.193  12.442   5.519  1.2544  0.2896 -1.2147
  740MOL0     H99864   7.885  12.249   5.456  0.1132  2.0545 -0.3060
  740MOL0     H99865   7.663  12.137   5.425 -0.9696 -1.9689  0.0523
  740MOL0     H99866   7.475  11.994   5.488 -0.3222 -0.4837  4.2031
  740MOL0     H99867   7.312  12.022   5.542 -1.2347  0.8399 -1.4119
  740MOL0     H99868   7.465  12.215   5.366  0.4288 -0.3589  0.2615
  740MOL0     H99869   7.323  12.113   5.327 -3.8897  0.2591  1.2908
  740MOL0     H99870   7.224  12.249   5.536  2.3580 -0.1941  0.0056
  740MOL0     H99871   7.207  12.294   5.361 -0.4277  3.7505  0.3182
  740MOL0     H99872   7.427  12.412   5.542 -0.2996  3.4397  2.3496
  740MOL0     H99873   7.354  12.476   5.392 -0.8891 -0.2714  0.2472
  740MOL0     H99874   7.275  12.586   5.608  2.4800 -0.7263  2.3104
  740MOL0     H99875   7.193  12.437   5.664  0.3484  1.8902  1.5417
  740MOL0     H99876   7.136  12.567   5.397 -2.4011 -1.7895 -1.4439
  740MOL0     H99877   7.053  12.429   5.486  0.4558 -1.0080 -0.3624
  740MOL0     H99878   7.074  12.690   5.649 -1.0636 -0.5496  2.3409
  740MOL0     H99879   6.975  12.548   5.657  2.3048  0.4508  0.8041
  740MOL0     H99880   6.964  12.760   5.432  0.8291 -0.3313  0.7060
  740MOL0     H99881   6.848  12.754   5.568 -1.2904 -0.2205  0.0028
  740MOL0     H99882   7.568  12.264   5.824 -2.2198 -0.2699 -1.3080
  740MOL0     H99883   7.782  12.374   5.853  0.0294  0.9785  0.7921
  740MOL0     H99884   8.182  12.148   5.883 -0.5722  1.0247  0.2493
  740MOL0     H99885   8.384  12.198   6.022 -1.5077 -0.0897  1.6445
  740MOL0     H99886   9.577  11.636   5.484  0.7967  0.4198  0.7195
  740MOL0     H99887   9.827  11.667   5.530 -0.7210 -0.2430  2.6224
  740MOL0     H99888  10.230  11.582   5.541 -0.0968 -2.3776  0.8555
  740MOL0     H99889  10.437  11.679   5.610  0.8961 -4.8448 -1.0819
  740MOL0     H99890  10.615  11.752   5.671  0.6299 -1.0046  0.1341
  740MOL0     H99891  10.701  11.805   5.816 -0.5162  0.6646  0.2927
  740MOL0     H99892  10.820  11.611   5.721  1.5810  0.9370  1.0760
  740MOL0     H99893  10.683  11.507   5.725  2.4742 -2.4893  0.3001
  740MOL0     H99894  10.682  11.511   5.965 -2.2093  1.9224 -0.6588
  740MOL0     H99895  10.799  11.646   5.965 -1.2677  0.2351  0.0509
  740MOL0     H99896  10.944  11.458   6.021 -1.6531  2.0718  2.2502
  740MOL0     H99897  10.965  11.492   5.848  0.4440  1.3892  1.5072
  740MOL0     H99898  10.784  11.113   5.830  4.4847 -0.5535  1.5563
  740MOL0     H99899  10.356  11.612   6.015 -3.2292 -0.7993  1.0303
  740MOL0     H99900  10.128  11.557   5.954  2.0581  3.4300  2.0068
  741MOL0     O99901   3.597  11.293   3.478  0.0089  0.5927 -0.3787
  741MOL0     C99902   3.627  11.169   3.467 -0.5328 -0.8547  0.6548
  741MOL0     O99903   3.671  11.090   3.568  0.3330 -0.2650 -0.6872
  741MOL0     C99904   3.707  11.152   3.682 -1.1726 -0.4741  0.3249
  741MOL0     C99905   3.624  11.120   3.790 -1.1157  0.1663 -0.8453
  741MOL0     C99906   3.654  11.185   3.915 -0.0753  0.8911  0.6308
  741MOL0     C99907   3.768  11.264   3.937  0.7407 -0.9677 -0.3927
  741MOL0     O99908   3.799  11.349   4.044 -0.0323  0.0986 -0.2450
  741MOL0     C99909   3.688  11.406   4.116  0.1829  0.7141  0.5643
  741MOL0     C99910   3.674  11.333   4.251 -0.3030  0.0684  0.6352
  741MOL0     C99911   3.811  11.342   4.327 -0.4702  0.1781  0.7163
  741MOL0     C99912   3.805  11.406   4.471  0.3881  1.0362  0.0763
  741MOL0     C99913   3.918  11.366   4.561  0.8054  0.1723 -0.3273
  741MOL0     C99914   4.058  11.408   4.519 -1.1985 -0.1116 -0.2300
  741MOL0     C99915   4.155  11.406   4.638 -0.5911 -0.3072 -0.2202
  741MOL0     C99916   4.306  11.406   4.606  0.4126  0.1469 -0.1516
  741MOL0     N99917   4.363  11.314   4.502  0.2992 -0.1438 -0.0135
  741MOL0     C99918   4.455  11.212   4.517  0.2536  0.1525  0.2319
  741MOL0     C99919   4.483  11.165   4.389 -0.6277  0.7677 -0.3965
  741MOL0     C99920   4.586  11.059   4.356  0.5659 -0.5395  0.6482
  741MOL0     C99921   4.641  11.080   4.216  0.2966  0.5525  0.8604
  741MOL0     C99922   4.688  11.222   4.196  0.0550 -0.8879  0.0964
  741MOL0     C99923   4.787  11.273   4.310  0.1581 -0.3892 -0.5088
  741MOL0     O99924   4.903  11.185   4.329  0.5013 -0.2352  0.9284
  741MOL0     C99925   4.991  11.180   4.228 -0.6602 -0.3541  0.3873
  741MOL0     C99926   5.007  11.278   4.120 -0.2256 -0.7182 -0.6183
  741MOL0     C99927   5.087  11.235   4.012  0.7635 -0.0883  0.1204
  741MOL0     C99928   5.102  11.338   3.890 -0.9291  0.0334 -0.9674
  741MOL0     C99929   5.160  11.113   4.024  0.0806 -0.7898  0.1384
  741MOL0     C99930   5.258  11.070   3.911  0.9152 -0.5913 -0.1921
  741MOL0     O99931   5.356  11.003   3.957 -1.0696 -0.7421  0.2901
  741MOL0     C99932   5.428  10.929   3.861  0.5460 -0.2628  0.4599
  741MOL0     C99933   5.377  10.814   3.801  1.0263  0.3530 -0.1117
  741MOL0     C99934   5.455  10.742   3.713  0.7461 -0.0026 -0.2737
  741MOL0     C99935   5.575  10.782   3.679 -1.1307 -0.8951  0.4087
  741MOL0     O99936   5.655  10.713   3.586 -0.3520  0.2091  0.5055
  741MOL0     C99937   5.614  10.599   3.516 -0.2230  0.2555  0.8588
  741MOL0     C99938   5.717  10.565   3.413 -0.3584  0.3131  0.8901
  741MOL0     C99939   5.718  10.419   3.360  1.4924  0.6403 -0.2583
  741MOL0     C99940   5.766  10.326   3.468  0.2998  0.0919 -0.3569
  741MOL0     C99941   5.914  10.338   3.515  0.0261  0.8723  0.3672
  741MOL0     C99942   5.926  10.239   3.637 -0.4511  1.1212 -0.5349
  741MOL0     C99943   6.060  10.255   3.715  0.0908  0.4303  0.1372
  741MOL0     C99944   6.191  10.279   3.626  0.3413  0.0238  0.7796
  741MOL0    Cl99945   6.224  10.163   3.485 -0.1386 -0.3438  0.0729
  741MOL0     C99946   5.627  10.903   3.732 -0.3516  0.1893 -0.0613
  741MOL0     C99947   5.554  10.973   3.823  0.8949 -0.5431 -0.1877
  741MOL0     O99948   5.224  11.092   3.792  0.2914 -0.5582 -0.4472
  741MOL0     C99949   5.155  11.035   4.137 -0.8785  0.7211 -0.1578
  741MOL0     C99950   5.069  11.071   4.238  0.0723  0.2469 -0.0027
  741MOL0     N99951   4.403  11.244   4.311  0.4538  0.2397  0.1222
  741MOL0     N99952   4.333  11.328   4.369  0.5932  0.0753 -0.6554
  741MOL0     C99953   3.839  11.298   3.827  0.1818 -0.3324  0.8387
  741MOL0     C99954   3.819  11.237   3.697 -0.5950 -0.0538  0.0253
  741MOL0     C99955   3.642  11.105   3.324  0.0235  0.5305 -0.2343
  741MOL0     C99956   3.601  11.175   3.212 -0.3683  0.3616 -1.3971
  741MOL0     C99957   3.618  11.111   3.084  0.0937  0.1304 -0.4773
  741MOL0     C99958   3.669  10.980   3.077 -0.1877  0.0837 -0.2420
  741MOL0     O99959   3.681  10.911   2.957  0.5877 -0.2611  0.0822
  741MOL0     C99960   3.592  10.955   2.848  0.4609  0.2168  0.0398
  741MOL0     C99961   3.592  10.870   2.726  0.2521 -0.0872  0.4768
  741MOL0     C99962   3.564  10.722   2.748 -1.4922  0.0610 -0.1638
  741MOL0     C99963   3.426  10.694   2.784  0.7332  0.0319 -0.1277
  741MOL0     C99964   3.386  10.551   2.785  0.9176 -0.3296 -0.6576
  741MOL0     C99965   3.354  10.436   2.804  1.3566 -1.0664 -0.1345
  741MOL0     C99966   3.721  10.923   3.192  0.2868 -0.1989  1.2429
  741MOL0     C99967   3.708  10.985   3.317  0.4874 -0.6203 -0.2063
  741MOL0     H99968   3.535  11.058   3.786  0.0813 -1.5856 -2.4148
  741MOL0     H99969   3.585  11.170   3.998 -1.3978  0.4028 -0.5235
  741MOL0     H99970   3.704  11.511   4.144  0.3407  0.6748  0.6170
  741MOL0     H99971   3.592  11.390   4.065 -0.6143 -1.4893  2.5961
  741MOL0     H99972   3.586  11.380   4.297 -0.8949 -1.3589  1.0160
  741MOL0     H99973   3.646  11.228   4.242 -1.6082  0.3302  1.2501
  741MOL0     H99974   3.844  11.239   4.347  0.4306  0.2178 -0.5135
  741MOL0     H99975   3.895  11.381   4.270  1.1767 -1.0002  2.1960
  741MOL0     H99976   3.811  11.515   4.462  2.3969  0.8177 -2.3564
  741MOL0     H99977   3.713  11.381   4.524  0.6808  1.4167  0.7740
  741MOL0     H99978   3.903  11.391   4.666  2.0976 -1.9964  0.4460
  741MOL0     H99979   3.917  11.256   4.564  1.2838  0.1896  2.6632
  741MOL0     H99980   4.102  11.345   4.441  0.5764 -0.7674  1.2013
  741MOL0     H99981   4.052  11.506   4.471 -0.3137  0.5432  0.9395
  741MOL0     H99982   4.143  11.496   4.699 -1.1399 -0.0066 -0.7619
  741MOL0     H99983   4.143  11.320   4.705  0.7740 -1.4734 -1.4081
  741MOL0     H99984   4.366  11.385   4.695  2.2665  0.1876 -1.3329
  741MOL0     H99985   4.330  11.510   4.580  0.4254  0.2635  0.3023
  741MOL0     H99986   4.506  11.172   4.605  0.2664 -0.0973  0.1120
  741MOL0     H99987   4.663  11.064   4.433 -0.7204  1.8669  1.9366
  741MOL0     H99988   4.533  10.963   4.358 -0.5680  0.0647  0.9727
  741MOL0     H99989   4.562  11.059   4.144  2.2163 -0.4326 -1.0907
  741MOL0     H99990   4.725  11.018   4.183  3.2171  2.1532  4.4951
  741MOL0     H99991   4.608  11.296   4.192  0.3567 -0.6090 -0.9219
  741MOL0     H99992   4.737  11.232   4.099 -0.0112  1.9752  0.2696
  741MOL0     H99993   4.730  11.269   4.404  2.3784 -1.3559  0.8640
  741MOL0     H99994   4.815  11.379   4.307  2.9042 -0.9155  2.2145
  741MOL0     H99995   4.937  11.361   4.121 -2.4861 -2.4884 -1.4424
  741MOL0     H99996   5.055  11.433   3.918 -1.1006 -0.0381 -1.0152
  741MOL0     H99997   5.205  11.368   3.870 -1.2612  3.7213  1.6919
  741MOL0     H99998   5.042  11.310   3.803  0.5506  0.6577 -2.2271
  741MOL0     H99999   5.277  10.786   3.832 -0.1693  2.0571 -2.1416
  741MOL0     H    0   5.417  10.654   3.663 -0.5902  0.8727 -0.8690
  741MOL0     H    1   5.598  10.520   3.590  0.7706  0.2683  1.1007
  741MOL0     H    2   5.524  10.623   3.458  0.5181 -0.5609 -0.6981
  741MOL0     H    3   5.700  10.615   3.317 -1.0883 -2.4394 -0.5270
  741MOL0     H    4   5.819  10.595   3.441 -0.6202  1.1231  0.9946
  741MOL0     H    5   5.776  10.398   3.269 -0.9855  0.1189 -1.8233
  741MOL0     H    6   5.617  10.399   3.322  2.1470  1.4236 -2.6553
  741MOL0     H    7   5.693  10.333   3.549  0.5517  3.8034 -0.2536
  741MOL0     H    8   5.746  10.227   3.426 -2.5618  0.8339 -0.9280
  741MOL0     H    9   5.931  10.438   3.556 -0.4295  0.8281  0.6709
  741MOL0     H   10   5.980  10.304   3.434 -0.0766  1.7961 -0.1109
  741MOL0     H   11   5.844  10.245   3.709 -1.4804 -3.0790 -1.1226
  741MOL0     H   12   5.920  10.138   3.596 -0.1075  0.9658 -0.2190
  741MOL0     H   13   6.068  10.160   3.767  2.2450  1.7140  2.3614
  741MOL0     H   14   6.048  10.336   3.788  0.4537 -0.5963  1.3766
  741MOL0     H   15   6.271  10.273   3.700  0.4103 -1.8532  0.5985
  741MOL0     H   16   6.184  10.383   3.591 -1.3381 -0.7597 -1.3933
  741MOL0     H   17   5.719  10.940   3.687 -1.3986 -0.4051 -2.9114
  741MOL0     H   18   5.598  11.063   3.866  0.5933 -0.7873  0.6677
  741MOL0     H   19   5.211  10.942   4.141 -0.9656  0.6039 -1.3984
  741MOL0     H   20   5.048  11.009   4.324  2.0544  0.6454  0.8260
  741MOL0     H   21   3.916  11.374   3.832 -1.4337  1.4934 -0.5626
  741MOL0     H   22   3.877  11.238   3.605  1.7161  0.8368  1.4000
  741MOL0     H   23   3.559  11.275   3.217 -0.4449  0.4472 -3.1953
  741MOL0     H   24   3.574  11.153   2.995 -1.3080 -4.2519 -2.1013
  741MOL0     H   25   3.490  10.944   2.885  0.3151 -2.3295 -0.9588
  741MOL0     H   26   3.619  11.058   2.823  3.2584 -0.5033 -0.2115
  741MOL0     H   27   3.689  10.885   2.679 -0.0875  1.7482  0.2801
  741MOL0     H   28   3.517  10.902   2.653 -0.6750 -2.1981  0.4064
  741MOL0     H   29   3.626  10.690   2.832 -1.3978 -1.0293 -0.6395
  741MOL0     H   30   3.604  10.670   2.661 -0.8359 -3.5769  2.1216
  741MOL0     H   31   3.368  10.732   2.700  1.4587 -1.4608 -1.3506
  741MOL0     H   32   3.384  10.749   2.869  2.0830  0.7768  0.0897
  741MOL0     H   33   3.317  10.336   2.812 -0.1725 -0.7150 -1.9782
  741MOL0     H   34   3.781  10.833   3.185 -0.0297 -0.4817  2.0499
  741MOL0     H   35   3.748  10.939   3.406  3.7646  1.4352 -0.4746
  742MOL0     O   36  10.302   8.503   9.772 -0.1093 -0.0306  0.3229
  742MOL0     C   37  10.354   8.506   9.661 -0.0931 -0.5231  0.8849
  742MOL0     O   38  10.490   8.517   9.634  0.2293  0.2314  0.1562
  742MOL0     C   39  10.569   8.544   9.744 -0.7401 -0.6621 -0.4426
  742MOL0     C   40  10.549   8.657   9.825  0.3244  0.1948 -0.6332
  742MOL0     C   41  10.644   8.686   9.932  1.4175  0.2911 -0.0083
  742MOL0     C   42  10.744   8.590   9.957  1.1622 -0.2863 -0.0123
  742MOL0     O   43  10.829   8.630  10.051  0.3748  0.5190  0.0684
  742MOL0     C   44  10.951   8.564  10.096 -0.2529  0.0105 -1.0444
  742MOL0     C   45  10.905   8.454  10.184 -1.2578  0.5638  0.3388
  742MOL0     C   46  11.015   8.376  10.254 -0.6558  0.7130 -0.3488
  742MOL0     C   47  11.094   8.278  10.162  0.1665 -0.2325 -0.6099
  742MOL0     C   48  11.216   8.218  10.233 -0.3093  0.5331 -0.4793
  742MOL0     C   49  11.317   8.174  10.129  0.0816 -0.3446  0.2140
  742MOL0     C   50  11.437   8.114  10.189  0.3021 -0.3816 -0.3081
  742MOL0     C   51  11.515   8.198  10.296 -0.7977  0.1890  0.0602
  742MOL0     N   52  11.570   8.322  10.238  0.3546 -0.6908 -0.1563
  742MOL0     C   53  11.514   8.451  10.258  0.1418  0.7181  0.1226
  742MOL0     C   54  11.615   8.535  10.218  0.0890 -0.5832 -0.0685
  742MOL0     C   55  11.633   8.678  10.247 -0.3486 -0.9479 -1.0452
  742MOL0     C   56  11.555   8.732  10.371 -0.9041 -0.1865 -0.2748
  742MOL0     C   57  11.402   8.752  10.364 -0.4752 -0.0725 -0.1509
  742MOL0     C   58  11.350   8.808  10.226 -0.8716  0.5051 -0.9341
  742MOL0     O   59  11.215   8.832  10.263  0.3024 -0.4620  0.8836
  742MOL0     C   60  11.133   8.869  10.155 -0.8299 -0.4039 -0.7772
  742MOL0     C   61  11.008   8.916  10.191  0.8687 -0.2533 -0.3797
  742MOL0     C   62  10.922   8.977  10.090 -0.3072  0.6773  0.9314
  742MOL0     C   63  10.797   9.045  10.136 -0.2895 -0.4603 -0.5629
  742MOL0     C   64  10.960   8.979   9.954  0.1767  0.5529  0.0680
  742MOL0     C   65  10.884   9.048   9.840  0.0344  0.1175 -0.0210
  742MOL0     O   66  10.756   9.085   9.872  0.5740  0.1264 -0.1376
  742MOL0     C   67  10.667   9.156   9.793 -0.5178  0.4322 -0.3613
  742MOL0     C   68  10.641   9.293   9.826  0.7542  0.3533 -0.7664
  742MOL0     C   69  10.538   9.363   9.760  0.1092  0.6471  0.2989
  742MOL0     C   70  10.465   9.300   9.660  1.1538 -1.1874 -0.0041
  742MOL0     O   71  10.356   9.363   9.596 -0.1753 -0.4590 -0.0831
  742MOL0     C   72  10.256   9.285   9.537  0.4591 -1.0676 -0.4042
  742MOL0     C   73  10.137   9.377   9.498  0.2117  0.0646 -0.4846
  742MOL0     C   74  10.152   9.479   9.381 -0.4144 -0.1935  0.0215
  742MOL0     C   75  10.259   9.583   9.406  0.3115 -0.3440 -0.0105
  742MOL0     C   76  10.281   9.669   9.280 -0.0908 -0.7689  0.6466
  742MOL0     C   77  10.417   9.740   9.276 -0.5318 -0.0766  0.4115
  742MOL0     C   78  10.433   9.835   9.154 -1.1058  0.4456  0.1111
  742MOL0     C   79  10.543   9.789   9.050  0.4887  0.3781  0.5853
  742MOL0    Cl   80  10.539   9.855   8.881 -0.0889 -0.1841 -0.7657
  742MOL0     C   81  10.499   9.173   9.627  0.2110  0.5214  0.8071
  742MOL0     C   82  10.598   9.099   9.687 -0.8597 -0.1908  0.1596
  742MOL0     O   83  10.940   9.083   9.737  0.6777  0.0269  0.3619
  742MOL0     C   84  11.084   8.917   9.918  0.5358  0.1783  0.0741
  742MOL0     C   85  11.166   8.862  10.020 -0.7176 -0.3805  0.1447
  742MOL0     N   86  11.712   8.460  10.158  0.2924  0.4892  0.3742
  742MOL0     N   87  11.688   8.333  10.169  0.0317  0.0922 -0.1940
  742MOL0     C   88  10.752   8.480   9.883 -0.3658 -0.1396 -0.2042
  742MOL0     C   89  10.676   8.462   9.770 -0.5340 -0.1697  0.5799
  742MOL0     C   90  10.263   8.506   9.551 -0.8370 -0.4484  0.0987
  742MOL0     C   91  10.311   8.444   9.430  0.7885  0.6909  0.7163
  742MOL0     C   92  10.236   8.426   9.312  0.5355 -0.4647 -0.2514
  742MOL0     C   93  10.103   8.486   9.315 -0.9085  0.2900 -0.1368
  742MOL0     O   94  10.020   8.463   9.209 -0.3952  0.0313  0.2804
  742MOL0     C   95   9.991   8.576   9.118 -0.0695  0.1575 -0.2743
  742MOL0     C   96  10.107   8.591   9.025 -0.4229  0.4197  0.4496
  742MOL0     C   97  10.075   8.698   8.920 -0.5412 -0.5336 -0.6597
  742MOL0     C   98  10.077   8.846   8.991 -0.5188 -0.2811  1.0796
  742MOL0     C   99  10.064   8.946   8.874 -0.0880  0.2508  1.1270
  742MOL0     C  100  10.049   9.015   8.781  0.1299 -0.5295  0.0082
  742MOL0     C  101  10.058   8.545   9.426 -0.6646 -0.2329 -1.0146
  742MOL0     C  102  10.133   8.558   9.543 -0.4437 -1.0885 -0.0123
  742MOL0     H  103  10.479   8.734   9.794 -0.9518 -1.1377 -1.1648
  742MOL0     H  104  10.650   8.774   9.996 -0.0095 -1.0570  2.1313
  742MOL0     H  105  11.010   8.525  10.012 -0.5571  1.6175 -2.0499
  742MOL0     H  106  11.008   8.636  10.155 -2.3603 -0.7741  2.2106
  742MOL0     H  107  10.852   8.510  10.262  2.4799  0.0964  3.5464
  742MOL0     H  108  10.840   8.379  10.139 -0.5954 -0.6745  1.3603
  742MOL0     H  109  11.080   8.449  10.304 -0.6421 -0.7462  1.8600
  742MOL0     H  110  10.971   8.319  10.336 -0.7852  3.3505  1.5428
  742MOL0     H  111  11.022   8.201  10.133 -0.2305 -0.1237  0.0902
  742MOL0     H  112  11.128   8.323  10.068 -0.7319  0.9983 -0.3647
  742MOL0     H  113  11.258   8.300  10.292 -2.5108  0.9236  0.6689
  742MOL0     H  114  11.187   8.127  10.287  1.2972 -1.9477 -3.5204
  742MOL0     H  115  11.262   8.103  10.067 -0.9459 -0.6698  1.4600
  742MOL0     H  116  11.346   8.256  10.063 -1.5925  1.1985  1.2937
  742MOL0     H  117  11.419   8.017  10.236  2.8838 -0.5914  0.3941
  742MOL0     H  118  11.503   8.088  10.106 -0.8726 -3.1188 -0.4652
  742MOL0     H  119  11.596   8.132  10.328 -5.1691 -6.1706 -0.2171
  742MOL0     H  120  11.448   8.216  10.381 -1.1063 -0.8250  0.0458
  742MOL0     H  121  11.427   8.467  10.321 -0.1575 -0.9235  0.1785
  742MOL0     H  122  11.738   8.705  10.264 -1.0186  1.2106  0.0293
  742MOL0     H  123  11.606   8.736  10.158 -2.6772 -2.0039 -1.0942
  742MOL0     H  124  11.583   8.837  10.378  0.5624 -0.6769  2.3880
  742MOL0     H  125  11.588   8.662  10.448 -1.1186 -0.3489 -0.3275
  742MOL0     H  126  11.376   8.824  10.443 -0.1392 -2.2626  2.0441
  742MOL0     H  127  11.351   8.657  10.383  0.1327 -0.0723  1.6460
  742MOL0     H  128  11.362   8.737  10.144 -0.3915  1.5474 -1.7900
  742MOL0     H  129  11.380   8.909  10.196 -0.9307  0.9941  0.5792
  742MOL0     H  130  10.977   8.922  10.295  1.5386 -1.3551 -0.0939
  742MOL0     H  131  10.790   9.147  10.097 -0.6627  0.7669  2.4513
  742MOL0     H  132  10.704   8.994  10.114 -3.9271  3.9662  2.6013
  742MOL0     H  133  10.789   9.049  10.245  0.4921  0.2836 -0.5187
  742MOL0     H  134  10.710   9.345   9.892  1.0254 -0.9993  0.0426
  742MOL0     H  135  10.519   9.468   9.782 -2.9424 -0.3556  3.1975
  742MOL0     H  136  10.290   9.224   9.453 -2.5246 -1.6141 -1.3336
  742MOL0     H  137  10.219   9.220   9.616  0.0728  0.8747  1.0809
  742MOL0     H  138  10.059   9.302   9.481  0.2536  0.0954 -0.8087
  742MOL0     H  139  10.104   9.437   9.584 -0.7697 -1.8216  0.5248
  742MOL0     H  140  10.064   9.543   9.373  0.9698  1.5876 -2.7755
  742MOL0     H  141  10.178   9.421   9.292  3.4302  1.6344 -0.2566
  742MOL0     H  142  10.225   9.641   9.492  1.5762  0.0601  0.2268
  742MOL0     H  143  10.355   9.539   9.433  1.9440  2.8276 -0.2138
  742MOL0     H  144  10.196   9.726   9.243 -0.1234 -1.3225 -0.1767
  742MOL0     H  145  10.288   9.600   9.195  0.4758  2.1049 -1.8125
  742MOL0     H  146  10.426   9.797   9.369  1.8601  1.1128 -0.4585
  742MOL0     H  147  10.494   9.663   9.286  0.5375  0.9126  0.1115
  742MOL0     H  148  10.441   9.940   9.183  0.8260  0.3879 -0.0677
  742MOL0     H  149  10.340   9.838   9.096 -1.7020  0.7525  1.0575
  742MOL0     H  150  10.535   9.682   9.032  0.5786  0.5264 -0.3957
  742MOL0     H  151  10.643   9.789   9.094  0.0740  1.1058  1.5730
  742MOL0     H  152  10.453   9.122   9.543 -0.5762  2.0299  0.2770
  742MOL0     H  153  10.606   8.997   9.651 -0.6559  0.4746 -1.8005
  742MOL0     H  154  11.110   8.895   9.815  0.7031 -3.0248  0.6785
  742MOL0     H  155  11.256   8.812   9.985 -2.5455 -1.9592 -2.6360
  742MOL0     H  156  10.840   8.420   9.904 -3.5928 -5.5583 -0.2945
  742MOL0     H  157  10.704   8.375   9.711  0.3163  0.8246 -0.5252
  742MOL0     H  158  10.408   8.396   9.441  2.1885  3.0640 -0.4823
  742MOL0     H  159  10.260   8.362   9.228 -3.0132  0.4424 -2.1493
  742MOL0     H  160   9.895   8.541   9.078 -0.7582  2.6860 -0.9709
  742MOL0     H  161   9.982   8.670   9.173 -2.4241 -0.3505  0.3292
  742MOL0     H  162  10.143   8.499   8.978 -0.1966  0.9904 -0.5252
  742MOL0     H  163  10.194   8.627   9.080  0.7922  1.2866 -1.9244
  742MOL0     H  164   9.976   8.666   8.886  0.0302 -1.9500 -1.0469
  742MOL0     H  165  10.143   8.701   8.835 -2.1291  2.5221 -2.0225
  742MOL0     H  166  10.170   8.857   9.049 -1.1570  1.2307  1.8712
  742MOL0     H  167   9.992   8.855   9.059 -1.4900 -2.5082  0.2452
  742MOL0     H  168  10.035   9.055   8.683  0.3795 -1.1345 -0.2826
  742MOL0     H  169   9.956   8.580   9.416 -0.8224 -0.6323 -0.8525
  742MOL0     H  170  10.096   8.614   9.629  0.7712  0.4169 -0.4284
  743MOL0     O  171   2.369   3.957   4.300 -0.1117 -1.0307 -0.1285
  743MOL0     C  172   2.438   3.932   4.402  0.5695  0.6824 -0.1075
  743MOL0     O  173   2.426   3.811   4.469 -0.9272 -0.0849  0.1874
  743MOL0     C  174   2.320   3.729   4.420 -0.7352 -1.1060  0.3246
  743MOL0     C  175   2.184   3.753   4.456 -0.5827  0.1000 -0.0485
  743MOL0     C  176   2.077   3.692   4.396  1.1579  0.9682  0.3429
  743MOL0     C  177   2.102   3.597   4.295  0.8626  0.3349  0.1961
  743MOL0     O  178   2.002   3.516   4.230 -0.5607  0.0888  0.1487
  743MOL0     C  179   1.885   3.572   4.168  0.0921 -0.5554 -0.1250
  743MOL0     C  180   1.911   3.607   4.017 -0.9304  0.1470  0.2326
  743MOL0     C  181   1.784   3.659   3.964 -0.5319  0.5625 -0.7705
  743MOL0     C  182   1.810   3.714   3.821  0.1511  0.5543 -0.0420
  743MOL0     C  183   1.794   3.598   3.721  0.0227 -0.1715  0.4043
  743MOL0     C  184   1.812   3.635   3.574  0.3385  0.2737  0.1972
  743MOL0     C  185   1.716   3.752   3.530 -0.2944  0.4932  0.5469
  743MOL0     C  186   1.571   3.708   3.540 -1.0963 -0.3413  0.1436
  743MOL0     N  187   1.497   3.793   3.457 -0.4698  0.5380 -0.0185
  743MOL0     C  188   1.466   3.923   3.472  0.9601  0.4359 -0.3889
  743MOL0     C  189   1.406   3.949   3.355 -0.0643 -0.0156 -0.3255
  743MOL0     C  190   1.366   4.091   3.345  0.2547  0.2172  1.0763
  743MOL0     C  191   1.333   4.131   3.193  0.2115 -0.4466  0.4425
  743MOL0     C  192   1.300   4.280   3.167 -0.3026 -0.0783  0.0436
  743MOL0     C  193   1.300   4.311   3.017 -0.9730  0.4115 -0.8346
  743MOL0     O  194   1.307   4.457   3.008  0.3352 -0.6005  0.0752
  743MOL0     C  195   1.333   4.519   2.884 -0.2715 -0.1938  0.2867
  743MOL0     C  196   1.377   4.647   2.878 -0.1274 -0.1800  0.3915
  743MOL0     C  197   1.390   4.720   2.762  1.3872  0.4877 -0.0191
  743MOL0     C  198   1.459   4.848   2.780 -0.3276 -0.6078  0.4861
  743MOL0     C  199   1.357   4.663   2.639  0.1630  1.1438 -0.1335
  743MOL0     C  200   1.377   4.722   2.513 -0.0405  0.8456 -0.4079
  743MOL0     O  201   1.282   4.803   2.473 -0.2125  0.5377  0.1011
  743MOL0     C  202   1.327   4.895   2.374  0.4259 -0.1355 -0.6396
  743MOL0     C  203   1.309   4.875   2.237  0.0956  0.4958 -0.2973
  743MOL0     C  204   1.362   4.960   2.144 -0.4309  0.5707  0.6441
  743MOL0     C  205   1.445   5.075   2.187  0.1824  1.1131  0.2845
  743MOL0     O  206   1.511   5.159   2.097 -0.5214 -0.1997  0.4292
  743MOL0     C  207   1.442   5.182   1.972 -0.7820  0.0030  0.9477
  743MOL0     C  208   1.305   5.254   1.999  1.0758  0.4458 -0.1726
  743MOL0     C  209   1.232   5.309   1.875 -0.0967  0.4204 -0.2729
  743MOL0     C  210   1.185   5.215   1.773 -0.4303 -0.0925  0.8979
  743MOL0     C  211   1.109   5.274   1.664  1.2321 -0.8597 -0.2691
  743MOL0     C  212   1.197   5.308   1.541  0.4484 -0.1353 -0.1197
  743MOL0     C  213   1.121   5.276   1.412  0.6470  0.7281 -0.7328
  743MOL0     C  214   1.224   5.252   1.292  0.2447  0.0785 -0.0414
  743MOL0    Cl  215   1.213   5.408   1.197  0.2605 -0.0691  0.1133
  743MOL0     C  216   1.458   5.094   2.330  0.1788 -0.0068 -0.1726
  743MOL0     C  217   1.395   5.006   2.420 -0.9299  1.2970  0.9539
  743MOL0     O  218   1.466   4.671   2.450 -0.1575  0.2010  0.4967
  743MOL0     C  219   1.289   4.536   2.638 -0.2125  0.1105  0.4002
  743MOL0     C  220   1.289   4.462   2.759 -0.2918  0.5624  0.5667
  743MOL0     N  221   1.377   3.832   3.285  0.3906  0.3333 -0.3248
  743MOL0     N  222   1.441   3.738   3.345  0.3386 -0.5603  0.0666
  743MOL0     C  223   2.236   3.576   4.254  0.5870 -0.4040 -0.2953
  743MOL0     C  224   2.345   3.644   4.312 -0.2903  0.9541  0.6396
  743MOL0     C  225   2.516   4.043   4.467 -0.1766  0.1544  1.0387
  743MOL0     C  226   2.504   4.064   4.609  0.6717 -0.1010 -0.9777
  743MOL0     C  227   2.576   4.166   4.673  0.2936 -0.8342  0.5718
  743MOL0     C  228   2.642   4.266   4.597  0.2332  0.4456  0.4020
  743MOL0     O  229   2.711   4.364   4.665 -0.1106 -0.7213  0.7162
  743MOL0     C  230   2.800   4.450   4.595  0.1435 -0.1392  0.3124
  743MOL0     C  231   2.902   4.520   4.686  0.1978  0.0525 -0.5932
  743MOL0     C  232   2.965   4.414   4.774 -0.1222  0.5032  0.8890
  743MOL0     C  233   3.109   4.380   4.726 -0.3225  0.8049 -1.1738
  743MOL0     C  234   3.197   4.494   4.758  0.3720  0.4887  0.2128
  743MOL0     C  235   3.243   4.602   4.794 -0.5878 -0.2208  0.3591
  743MOL0     C  236   2.644   4.252   4.459  1.0009 -1.3260  1.6438
  743MOL0     C  237   2.583   4.144   4.393 -0.5306 -0.0395 -0.3044
  743MOL0     H  238   2.174   3.821   4.540  2.3202 -1.1180  1.4731
  743MOL0     H  239   1.976   3.710   4.433  2.3397  0.2239  4.3745
  743MOL0     H  240   1.808   3.499   4.194  1.4069 -2.2250 -0.6934
  743MOL0     H  241   1.876   3.671   4.213  2.0144 -0.2925 -0.2409
  743MOL0     H  242   1.980   3.692   4.021  0.4686 -0.9922  1.1080
  743MOL0     H  243   1.941   3.523   3.954  1.4878 -0.9324  2.6519
  743MOL0     H  244   1.702   3.587   3.974 -0.7357  0.9150  0.2298
  743MOL0     H  245   1.754   3.741   4.030 -0.7200  1.4258 -1.8906
  743MOL0     H  246   1.751   3.803   3.796 -0.3208 -0.0113 -0.9953
  743MOL0     H  247   1.913   3.751   3.823  0.3846  0.0580  3.2554
  743MOL0     H  248   1.864   3.517   3.745  2.9985  2.3810  0.9631
  743MOL0     H  249   1.692   3.562   3.737 -0.5436  0.7680 -0.9419
  743MOL0     H  250   1.918   3.656   3.556 -0.2720  2.8720 -0.8332
  743MOL0     H  251   1.794   3.544   3.516  4.1755 -0.2573 -0.4353
  743MOL0     H  252   1.737   3.844   3.586 -1.7418  1.1437  0.0841
  743MOL0     H  253   1.745   3.774   3.427  0.6189 -2.3772  0.1046
  743MOL0     H  254   1.539   3.710   3.645  0.8632  0.0966  0.7767
  743MOL0     H  255   1.560   3.604   3.507 -3.7812  0.3136 -1.3197
  743MOL0     H  256   1.486   3.977   3.564 -2.5123  0.6839  0.3802
  743MOL0     H  257   1.279   4.108   3.408 -1.0641 -0.9374 -0.3393
  743MOL0     H  258   1.449   4.151   3.383 -0.7324  0.8627  2.2692
  743MOL0     H  259   1.252   4.066   3.157  0.1405  0.7338 -1.6287
  743MOL0     H  260   1.432   4.115   3.150  1.5723  0.7788  2.8885
  743MOL0     H  261   1.390   4.336   3.194 -1.3771  1.6016  0.2733
  743MOL0     H  262   1.208   4.315   3.214 -0.1891 -1.8956  1.7865
  743MOL0     H  263   1.216   4.252   2.978 -1.2937  1.0669 -1.1462
  743MOL0     H  264   1.390   4.269   2.973 -1.5160 -0.4780 -1.1275
  743MOL0     H  265   1.409   4.691   2.972  1.5676  0.9269 -0.6554
  743MOL0     H  266   1.530   4.841   2.864 -1.3075  2.4306  1.6930
  743MOL0     H  267   1.511   4.879   2.689 -3.4012  4.1204  0.0048
  743MOL0     H  268   1.387   4.929   2.790 -1.8932 -2.0214  1.2174
  743MOL0     H  269   1.250   4.792   2.200 -0.4045  0.8095 -0.2126
  743MOL0     H  270   1.346   4.949   2.037  0.8441  2.5909  0.2035
  743MOL0     H  271   1.504   5.253   1.916  0.0093 -2.1531 -1.0790
  743MOL0     H  272   1.438   5.088   1.916  1.9734  0.4641 -0.1794
  743MOL0     H  273   1.232   5.198   2.058  0.7451  1.5270  0.4802
  743MOL0     H  274   1.330   5.348   2.051  3.5100  1.7698 -3.4131
  743MOL0     H  275   1.291   5.394   1.840 -0.9544  2.2027  2.2875
  743MOL0     H  276   1.136   5.354   1.902 -0.4521 -1.3450  1.7224
  743MOL0     H  277   1.260   5.146   1.735 -1.3932 -0.9402  0.4772
  743MOL0     H  278   1.124   5.135   1.818 -1.5352  1.1210  1.6667
  743MOL0     H  279   1.058   5.368   1.686  2.4551  0.6320 -3.1772
  743MOL0     H  280   1.030   5.203   1.640  0.6691 -0.6444  0.9355
  743MOL0     H  281   1.226   5.413   1.539  0.8928 -0.2318  0.6400
  743MOL0     H  282   1.285   5.242   1.538  0.6414  0.0883  0.5031
  743MOL0     H  283   1.054   5.361   1.398  2.3573  1.9204 -2.2328
  743MOL0     H  284   1.066   5.183   1.429 -0.3029  1.3939 -0.1009
  743MOL0     H  285   1.177   5.174   1.233 -1.8442  0.9951  0.3349
  743MOL0     H  286   1.327   5.216   1.300 -0.8231 -3.1696  0.3858
  743MOL0     H  287   1.527   5.168   2.370 -0.0375 -0.9939  2.2143
  743MOL0     H  288   1.421   5.013   2.525  2.8797  1.6312  0.1653
  743MOL0     H  289   1.259   4.483   2.549  1.3812 -0.2498  0.0457
  743MOL0     H  290   1.255   4.358   2.757 -0.7206  0.7080 -0.2639
  743MOL0     H  291   2.250   3.497   4.181 -1.8490 -1.6258  0.4384
  743MOL0     H  292   2.448   3.620   4.288  0.0742 -2.0047  4.2380
  743MOL0     H  293   2.453   3.993   4.674  3.2218 -1.3187 -0.1883
  743MOL0     H  294   2.597   4.160   4.779  1.0965 -1.8682  0.3665
  743MOL0     H  295   2.842   4.381   4.522 -1.0113  0.7415 -1.2513
  743MOL0     H  296   2.760   4.536   4.540  0.3136 -0.2813 -0.0372
  743MOL0     H  297   2.840   4.585   4.748 -1.7809  2.2406 -4.5048
  743MOL0     H  298   2.976   4.578   4.631  1.7311 -0.0212  1.2769
  743MOL0     H  299   2.913   4.318   4.780  0.1428  0.3249  0.4028
  743MOL0     H  300   2.963   4.455   4.875 -3.3156  1.2441  0.6158
  743MOL0     H  301   3.124   4.359   4.620  2.1356 -1.0470 -0.5569
  743MOL0     H  302   3.154   4.293   4.776  0.9711  1.0383 -1.9023
  743MOL0     H  303   3.292   4.697   4.800 -2.2777  0.7254 -0.2366
  743MOL0     H  304   2.688   4.329   4.396 -0.5465 -1.3698  0.4658
  743MOL0     H  305   2.585   4.126   4.287 -0.0741  0.0218 -0.3059
  744MOL0     O  306   2.343   2.648   7.641  0.6833  0.0037  0.4548
  744MOL0     C  307   2.433   2.663   7.561  0.5458  0.2018  0.5084
  744MOL0     O  308   2.452   2.581   7.447  0.5192 -0.6936  0.4650
  744MOL0     C  309   2.402   2.453   7.452  0.1891 -0.2091 -0.1037
  744MOL0     C  310   2.479   2.359   7.386  0.1888  0.4982  0.5542
  744MOL0     C  311   2.430   2.226   7.375 -0.8612 -0.1374  0.1689
  744MOL0     C  312   2.318   2.178   7.449  0.5611  0.2479  0.3826
  744MOL0     O  313   2.283   2.047   7.436  0.4499 -0.1245  0.3620
  744MOL0     C  314   2.224   1.984   7.553  0.3272 -1.1665  0.7115
  744MOL0     C  315   2.207   1.834   7.531 -1.1157  0.2135  0.0617
  744MOL0     C  316   2.345   1.761   7.504 -0.6901 -0.3089 -0.1121
  744MOL0     C  317   2.385   1.696   7.638 -0.3011 -0.6297 -0.1101
  744MOL0     C  318   2.481   1.589   7.627  0.6307  1.0591  1.1060
  744MOL0     C  319   2.422   1.451   7.589 -0.0159 -1.3404 -0.8951
  744MOL0     C  320   2.524   1.335   7.567 -0.7987  0.7819  0.8164
  744MOL0     C  321   2.547   1.321   7.408 -0.6307  0.4178  0.7683
  744MOL0     N  322   2.612   1.433   7.336 -0.2956  0.7058  0.0461
  744MOL0     C  323   2.742   1.477   7.346  0.5403  0.4865 -0.3976
  744MOL0     C  324   2.754   1.577   7.268  0.1070 -0.4519  0.4188
  744MOL0     C  325   2.872   1.661   7.244 -0.3752  0.2968 -0.2428
  744MOL0     C  326   2.901   1.648   7.101  0.1919 -1.1377  0.9625
  744MOL0     C  327   3.038   1.711   7.069  0.1837  0.3894  0.9130
  744MOL0     C  328   3.028   1.867   7.073 -0.8435  0.6461 -0.3892
  744MOL0     O  329   3.158   1.910   7.022 -0.2517  0.2818 -1.1339
  744MOL0     C  330   3.188   2.027   7.079 -0.3088  0.1950  0.0575
  744MOL0     C  331   3.156   2.152   7.019 -0.0433  0.0477 -0.5556
  744MOL0     C  332   3.212   2.263   7.073 -0.7342  0.9926  1.0323
  744MOL0     C  333   3.174   2.395   7.006 -0.0997  0.1247 -0.2007
  744MOL0     C  334   3.291   2.260   7.193  0.1235  0.2700  0.4649
  744MOL0     C  335   3.336   2.371   7.277  0.6035 -0.5543 -0.2427
  744MOL0     O  336   3.378   2.348   7.415 -0.1744 -0.6718  0.1057
  744MOL0     C  337   3.448   2.449   7.481 -1.2309  0.6447 -0.3342
  744MOL0     C  338   3.576   2.494   7.426 -0.9421  0.3950 -0.0053
  744MOL0     C  339   3.648   2.587   7.506  0.7041 -0.1443  0.0408
  744MOL0     C  340   3.607   2.617   7.633  0.5409  0.1808 -0.3070
  744MOL0     O  341   3.674   2.707   7.706 -1.0195 -0.2624  0.5354
  744MOL0     C  342   3.628   2.849   7.703 -0.8272  0.0447 -0.5013
  744MOL0     C  343   3.723   2.924   7.799 -0.3096 -0.7530  1.1460
  744MOL0     C  344   3.876   2.898   7.773 -0.2753 -0.2827 -0.3431
  744MOL0     C  345   3.927   2.954   7.648  0.0104  0.5803 -0.9566
  744MOL0     C  346   3.944   3.105   7.673 -0.2443  0.2045 -1.1579
  744MOL0     C  347   4.072   3.172   7.646 -0.2176  0.5490 -0.3230
  744MOL0     C  348   4.193   3.100   7.716 -0.0027 -0.8660 -0.2858
  744MOL0     C  349   4.295   3.211   7.746 -0.2861 -1.0132 -0.8348
  744MOL0    Cl  350   4.218   3.349   7.852 -0.0986 -0.0094 -0.2080
  744MOL0     C  351   3.497   2.560   7.687 -0.8848  0.4807  0.0999
  744MOL0     C  352   3.417   2.477   7.612  0.3204  0.5518  0.0365
  744MOL0     O  353   3.357   2.476   7.209  0.9074 -0.0453 -0.2791
  744MOL0     C  354   3.330   2.136   7.236  0.5988 -0.2209 -0.1798
  744MOL0     C  355   3.280   2.019   7.183 -1.0335 -0.5651  0.6201
  744MOL0     N  356   2.628   1.614   7.219 -0.2721 -0.4865  0.9978
  744MOL0     N  357   2.543   1.528   7.268  0.3044  0.5030 -0.8586
  744MOL0     C  358   2.253   2.272   7.534 -0.4898  0.6916  0.4660
  744MOL0     C  359   2.283   2.410   7.527  0.1107  0.4536 -0.3545
  744MOL0     C  360   2.527   2.779   7.579 -0.2304 -1.1127  0.1830
  744MOL0     C  361   2.525   2.851   7.698 -1.5362  0.5825  0.3525
  744MOL0     C  362   2.635   2.940   7.724  0.5059 -0.3302 -0.8871
  744MOL0     C  363   2.740   2.969   7.640 -0.9222  0.6161  0.2503
  744MOL0     O  364   2.819   3.066   7.689 -0.6444  0.2278  0.3014
  744MOL0     C  365   2.912   3.115   7.598 -0.4342 -0.3225  0.4642
  744MOL0     C  366   2.978   3.237   7.637 -0.5133 -0.6256 -0.6125
  744MOL0     C  367   2.905   3.367   7.661  0.3206 -0.4555  0.2617
  744MOL0     C  368   2.971   3.453   7.770  1.0102  0.7486  0.2752
  744MOL0     C  369   3.119   3.474   7.748  0.8277 -0.0063 -0.4369
  744MOL0     C  370   3.238   3.478   7.729  0.3994  0.2937  0.8272
  744MOL0     C  371   2.742   2.892   7.520  0.0341 -0.0058 -0.5846
  744MOL0     C  372   2.639   2.794   7.500  0.3094  0.9422  0.1188
  744MOL0     H  373   2.564   2.382   7.322  0.8176  0.1542  1.2434
  744MOL0     H  374   2.482   2.163   7.304 -1.9966 -2.7398  1.5109
  744MOL0     H  375   2.292   1.988   7.638 -0.7390 -1.6632  1.6105
  744MOL0     H  376   2.136   2.047   7.571  0.2832 -0.3682 -1.8348
  744MOL0     H  377   2.153   1.800   7.620  0.8768  0.5941  1.4751
  744MOL0     H  378   2.156   1.818   7.436  0.9502  0.5641 -1.1694
  744MOL0     H  379   2.323   1.702   7.415 -3.0681  2.9057 -1.8883
  744MOL0     H  380   2.416   1.840   7.478  1.6327 -1.4904  2.2113
  744MOL0     H  381   2.423   1.781   7.694  0.1158 -1.0151  0.2020
  744MOL0     H  382   2.300   1.659   7.697 -0.0499 -1.0342  0.0081
  744MOL0     H  383   2.550   1.622   7.548 -1.1892  2.3480 -0.0024
  744MOL0     H  384   2.537   1.581   7.721 -2.3173  2.4030  3.1002
  744MOL0     H  385   2.366   1.414   7.676 -5.4708  1.3391 -2.7930
  744MOL0     H  386   2.340   1.451   7.517 -1.1753 -0.3166  0.3651
  744MOL0     H  387   2.623   1.363   7.603 -0.2925 -1.2539  1.1296
  744MOL0     H  388   2.496   1.247   7.625  0.6625  1.0967  2.0512
  744MOL0     H  389   2.453   1.308   7.352  2.0788  2.2398 -5.0239
  744MOL0     H  390   2.604   1.229   7.392 -0.6193  0.1273  2.3561
  744MOL0     H  391   2.821   1.423   7.398  1.2887  3.8026  2.2733
  744MOL0     H  392   2.860   1.765   7.276  0.4105  0.2501  0.2154
  744MOL0     H  393   2.959   1.618   7.295  2.3871  3.4387 -1.9215
  744MOL0     H  394   2.828   1.689   7.031  0.3019 -0.3343  1.3136
  744MOL0     H  395   2.907   1.541   7.077 -1.2866 -2.0403  4.1040
  744MOL0     H  396   3.051   1.688   6.963 -3.4662  1.7806 -0.0092
  744MOL0     H  397   3.119   1.671   7.131  2.0888 -3.5418 -3.5391
  744MOL0     H  398   3.015   1.896   7.177 -0.5416 -1.7808  0.3956
  744MOL0     H  399   2.948   1.894   7.003  1.4122 -1.4282 -4.0916
  744MOL0     H  400   3.084   2.151   6.938 -4.4042  2.7592  2.8376
  744MOL0     H  401   3.087   2.389   6.939 -3.3889 -1.2138  3.7483
  744MOL0     H  402   3.146   2.463   7.087  1.3351  0.8332 -0.2815
  744MOL0     H  403   3.267   2.430   6.962 -0.2310 -0.9335 -1.3695
  744MOL0     H  404   3.613   2.475   7.326  3.6552 -0.8360  1.6688
  744MOL0     H  405   3.740   2.626   7.463  1.2536  0.1300  1.4400
  744MOL0     H  406   3.633   2.885   7.600 -1.4186  1.6988  0.0127
  744MOL0     H  407   3.522   2.851   7.730 -0.5884 -2.8084  1.0039
  744MOL0     H  408   3.711   3.032   7.782  1.4529 -0.7912 -0.6358
  744MOL0     H  409   3.701   2.893   7.902 -2.4946  1.6908  1.5363
  744MOL0     H  410   3.893   2.789   7.773 -2.2653 -0.8232  4.2442
  744MOL0     H  411   3.941   2.927   7.856  0.2885 -2.5046  0.0593
  744MOL0     H  412   4.019   2.906   7.615 -1.6872 -1.0308 -3.8362
  744MOL0     H  413   3.851   2.943   7.570 -0.4138  0.5527 -0.5464
  744MOL0     H  414   3.924   3.125   7.779 -0.8015 -1.6322 -0.8773
  744MOL0     H  415   3.865   3.152   7.614 -2.3304 -0.6798  0.7838
  744MOL0     H  416   4.084   3.149   7.540  1.1586  1.3200 -0.3449
  744MOL0     H  417   4.068   3.280   7.658  1.2465  0.5368  0.5628
  744MOL0     H  418   4.245   3.019   7.664  0.1903 -0.0502 -1.3995
  744MOL0     H  419   4.174   3.073   7.820  2.4703  4.5630  1.9862
  744MOL0     H  420   4.325   3.254   7.650  0.5049  1.6899  0.5325
  744MOL0     H  421   4.389   3.172   7.786  1.1509  3.3504  0.5644
  744MOL0     H  422   3.468   2.599   7.784  0.9813  2.9906 -0.2540
  744MOL0     H  423   3.329   2.436   7.660 -0.4379  2.5667  0.4583
  744MOL0     H  424   3.408   2.123   7.311 -0.0642  1.2641  0.8032
  744MOL0     H  425   3.328   1.923   7.193 -2.5567 -1.1443  2.8762
  744MOL0     H  426   2.170   2.247   7.600 -0.3896 -1.1415 -0.0611
  744MOL0     H  427   2.207   2.480   7.561 -1.4609 -0.1036 -2.4979
  744MOL0     H  428   2.439   2.828   7.760 -1.9393  0.1845 -0.3494
  744MOL0     H  429   2.621   3.003   7.811  1.0263 -0.4695 -0.7032
  744MOL0     H  430   2.990   3.042   7.573  0.0617  0.3585 -0.0377
  744MOL0     H  431   2.860   3.149   7.508  1.2501  2.3258  0.3761
  744MOL0     H  432   3.052   3.272   7.564  0.5791  2.3249  1.6880
  744MOL0     H  433   3.031   3.205   7.727 -2.2800 -2.5891 -0.1826
  744MOL0     H  434   2.808   3.337   7.701  0.2206  1.0506  1.2420
  744MOL0     H  435   2.880   3.426   7.572 -0.5191 -2.6308 -1.0103
  744MOL0     H  436   2.948   3.397   7.861 -3.0469 -3.6648 -2.9543
  744MOL0     H  437   2.916   3.546   7.786 -0.3425  0.0880 -0.4345
  744MOL0     H  438   3.345   3.486   7.728  0.8140 -3.0366  2.6924
  744MOL0     H  439   2.827   2.911   7.455  0.1691 -0.1522 -0.4521
  744MOL0     H  440   2.651   2.740   7.407 -0.0510 -1.1967  1.2570
  745MOL0     O  441   6.705   0.791   6.089 -0.7178 -0.0646 -0.1535
  745MOL0     C  442   6.742   0.824   5.979  0.6989 -0.9507 -0.6009
  745MOL0     O  443   6.843   0.921   5.947  0.2480  0.5143  0.6766
  745MOL0     C  444   6.905   0.989   6.045 -0.5350 -0.0473 -0.3254
  745MOL0     C  445   7.022   1.046   6.006 -0.0127  0.1547 -0.6388
  745MOL0     C  446   7.098   1.105   6.098  0.0165  0.6633  0.3739
  745MOL0     C  447   7.072   1.117   6.231  0.0787  0.4450 -0.0769
  745MOL0     O  448   7.139   1.202   6.314 -0.6169 -0.0883 -0.0278
  745MOL0     C  449   7.147   1.178   6.454  0.1292  0.3481 -0.3039
  745MOL0     C  450   7.243   1.059   6.479 -0.1924  0.7458 -0.5758
  745MOL0     C  451   7.185   0.929   6.442  0.4726  0.3058  0.8259
  745MOL0     C  452   7.262   0.860   6.322 -0.5919  0.0779 -0.0416
  745MOL0     C  453   7.184   0.733   6.285  0.0637 -0.4577  0.7015
  745MOL0     C  454   7.184   0.701   6.131 -0.3160 -0.2355 -0.8450
  745MOL0     C  455   7.301   0.749   6.041 -0.5787  0.4155 -0.0346
  745MOL0     C  456   7.436   0.702   6.092 -0.4196  0.2398 -0.2881
  745MOL0     N  457   7.437   0.559   6.071 -0.1750 -0.0165  0.1405
  745MOL0     C  458   7.419   0.502   5.948 -0.2031 -0.3280 -0.4256
  745MOL0     C  459   7.392   0.371   5.964 -0.1033  0.1678 -0.0620
  745MOL0     C  460   7.358   0.267   5.863  0.4401 -0.9585  0.0499
  745MOL0     C  461   7.218   0.218   5.905  1.2550 -1.1179  1.4307
  745MOL0     C  462   7.164   0.148   5.782 -0.0643  0.3772  0.7656
  745MOL0     C  463   7.015   0.108   5.826  0.6476  0.0880 -0.0631
  745MOL0     O  464   6.960   0.041   5.712 -0.1791  0.9188 -0.6262
  745MOL0     C  465   6.829   0.002   5.738 -0.6557  0.9517  0.7337
  745MOL0     C  466   6.756  -0.002   5.619 -0.4352 -0.1790 -0.1256
  745MOL0     C  467   6.618  -0.039   5.621 -0.5012  0.5525 -0.2292
  745MOL0     C  468   6.551  -0.057   5.490  0.8395 -0.2832  0.0415
  745MOL0     C  469   6.557  -0.066   5.743 -0.0284  0.0811  0.1326
  745MOL0     C  470   6.411  -0.109   5.751  0.7117  0.3379 -0.0104
  745MOL0     O  471   6.396  -0.202   5.850 -0.2708  0.4993  0.2772
  745MOL0     C  472   6.272  -0.224   5.908  0.3764 -0.3375  0.2374
  745MOL0     C  473   6.255  -0.189   6.046  0.1152 -0.3774  0.1873
  745MOL0     C  474   6.129  -0.201   6.098  0.0011  0.3237 -0.4840
  745MOL0     C  475   6.019  -0.236   6.021 -0.1170 -0.0957  0.2326
  745MOL0     O  476   5.886  -0.242   6.063  0.1020 -0.3356  0.1681
  745MOL0     C  477   5.852  -0.225   6.205  1.3615 -0.4649  0.5187
  745MOL0     C  478   5.700  -0.196   6.203 -0.5620  0.1668  0.5152
  745MOL0     C  479   5.661  -0.068   6.124  0.0433  0.5625  0.4603
  745MOL0     C  480   5.691   0.054   6.203 -0.0255 -0.2619 -0.1909
  745MOL0     C  481   5.625   0.051   6.342  0.3489  0.0153 -0.7222
  745MOL0     C  482   5.588   0.188   6.389  0.1153  0.5151  0.5109
  745MOL0     C  483   5.543   0.206   6.543  0.0218 -0.4740  0.3897
  745MOL0     C  484   5.476   0.345   6.574  0.2430  0.5755 -0.4000
  745MOL0    Cl  485   5.421   0.315   6.745  0.0917  0.0418  0.4884
  745MOL0     C  486   6.042  -0.267   5.889  0.9766  0.4297 -0.6810
  745MOL0     C  487   6.164  -0.264   5.834 -0.2568  0.1657 -0.3149
  745MOL0     O  488   6.323  -0.042   5.692  0.4985 -0.0434  0.7596
  745MOL0     C  489   6.634  -0.062   5.860  0.5152 -0.0118 -0.5500
  745MOL0     C  490   6.764  -0.028   5.861  0.7462 -0.5727  0.2234
  745MOL0     N  491   7.389   0.360   6.103  0.0051  0.2237  0.2183
  745MOL0     N  492   7.423   0.461   6.163  0.1855 -0.6425 -0.1213
  745MOL0     C  493   6.940   1.075   6.271 -0.4573  0.1253 -0.2268
  745MOL0     C  494   6.855   1.013   6.180  0.0895 -0.7125 -0.0328
  745MOL0     C  495   6.667   0.768   5.865  1.0552  0.3074  0.8926
  745MOL0     C  496   6.728   0.787   5.736 -0.3736  1.2419  0.2531
  745MOL0     C  497   6.671   0.742   5.620  0.5743  0.0576  0.6643
  745MOL0     C  498   6.533   0.697   5.624  0.2363  0.5117  0.6923
  745MOL0     O  499   6.451   0.655   5.524 -0.3425  0.1527  0.1852
  745MOL0     C  500   6.509   0.643   5.388  0.8011  0.5125 -0.8032
  745MOL0     C  501   6.513   0.784   5.328  0.2803  0.0923 -0.3374
  745MOL0     C  502   6.556   0.783   5.184 -0.6649  1.2191  1.4416
  745MOL0     C  503   6.712   0.808   5.159  0.0718 -0.3550  0.0265
  745MOL0     C  504   6.768   0.717   5.066 -1.5685  0.4111  0.7277
  745MOL0     C  505   6.807   0.630   4.980  0.2348  0.1344 -0.6325
  745MOL0     C  506   6.473   0.673   5.750  0.1828  0.1839  0.4177
  745MOL0     C  507   6.528   0.717   5.876 -0.3833  0.7857  0.4721
  745MOL0     H  508   7.059   1.049   5.904 -4.0752  1.9019 -2.2965
  745MOL0     H  509   7.200   1.134   6.077  0.1637 -1.1729 -1.8559
  745MOL0     H  510   7.192   1.265   6.504  1.2796  1.4866 -3.1054
  745MOL0     H  511   7.053   1.162   6.507  0.1941 -0.1176 -0.3300
  745MOL0     H  512   7.339   1.084   6.434  0.1448  0.4610 -0.0285
  745MOL0     H  513   7.254   1.065   6.588 -0.1159 -0.2868 -0.5221
  745MOL0     H  514   7.185   0.857   6.524 -3.1039 -0.7332  0.0692
  745MOL0     H  515   7.078   0.934   6.419  0.0967 -1.8563  1.9559
  745MOL0     H  516   7.275   0.927   6.236  1.0316 -0.3132 -0.1403
  745MOL0     H  517   7.363   0.837   6.356 -2.4705 -3.4898  4.0905
  745MOL0     H  518   7.229   0.645   6.331  0.0666 -0.3555  0.8943
  745MOL0     H  519   7.081   0.740   6.320  0.3001  1.2178  1.1496
  745MOL0     H  520   7.171   0.593   6.122  2.4933 -0.7709  0.3513
  745MOL0     H  521   7.089   0.734   6.088  0.0755 -2.0443 -3.2672
  745MOL0     H  522   7.286   0.714   5.939 -0.0808 -0.2592  0.1105
  745MOL0     H  523   7.303   0.858   6.031  1.4975  0.1982 -3.7134
  745MOL0     H  524   7.461   0.724   6.197 -1.6632  1.2835 -0.1925
  745MOL0     H  525   7.518   0.739   6.029  1.6037 -1.0026  1.4393
  745MOL0     H  526   7.408   0.552   5.852  0.7106  0.6595 -0.0384
  745MOL0     H  527   7.356   0.298   5.758 -1.2192 -0.0880  0.3010
  745MOL0     H  528   7.425   0.182   5.882  1.8051  0.1405  0.3188
  745MOL0     H  529   7.153   0.303   5.927  2.0173 -0.4711  1.2234
  745MOL0     H  530   7.223   0.142   5.984  0.1438 -3.0699 -0.2533
  745MOL0     H  531   7.220   0.058   5.756  0.8128  0.8195  1.0753
  745MOL0     H  532   7.174   0.225   5.706 -2.4762 -0.9836 -1.0636
  745MOL0     H  533   6.952   0.196   5.840  0.5431  0.2204 -1.3226
  745MOL0     H  534   7.016   0.050   5.919  0.3871  2.0132  1.1906
  745MOL0     H  535   6.807   0.027   5.528  0.9480  2.7447  1.4375
  745MOL0     H  536   6.480   0.016   5.450  0.3889 -1.1952 -0.8882
  745MOL0     H  537   6.626  -0.081   5.414  3.6250  0.1096  2.4742
  745MOL0     H  538   6.500  -0.153   5.507  0.3160 -0.5958 -2.8771
  745MOL0     H  539   6.345  -0.174   6.106  0.1123 -1.6151  0.5211
  745MOL0     H  540   6.122  -0.181   6.205 -2.9046  0.4691 -0.6234
  745MOL0     H  541   5.874  -0.315   6.263 -1.3274 -2.3096 -1.0653
  745MOL0     H  542   5.888  -0.131   6.246  1.3295 -0.4130  0.4265
  745MOL0     H  543   5.651  -0.276   6.148 -1.5102  0.6280  0.6724
  745MOL0     H  544   5.667  -0.198   6.307 -2.4376 -0.0303 -0.0503
  745MOL0     H  545   5.552  -0.068   6.111  0.1291  0.4285 -0.2771
  745MOL0     H  546   5.706  -0.076   6.025  0.1174  2.7391  0.2561
  745MOL0     H  547   5.797   0.065   6.225  0.1034 -3.3425  1.2385
  745MOL0     H  548   5.647   0.140   6.152 -1.6797 -0.0460  1.4585
  745MOL0     H  549   5.700   0.005   6.407  2.5183  5.2172  1.0469
  745MOL0     H  550   5.532  -0.006   6.340 -0.3431  1.1087 -0.7726
  745MOL0     H  551   5.681   0.246   6.381 -0.8657  1.9755 -0.6567
  745MOL0     H  552   5.522   0.223   6.310 -0.6658 -2.6701 -0.3743
  745MOL0     H  553   5.620   0.190   6.619 -0.6534 -0.2966  1.1229
  745MOL0     H  554   5.460   0.139   6.564  0.2167 -0.7404  0.3218
  745MOL0     H  555   5.389   0.355   6.509 -0.9843 -1.2035  0.8563
  745MOL0     H  556   5.542   0.431   6.559 -1.1728  2.3655  2.6865
  745MOL0     H  557   5.948  -0.296   5.843  0.8021 -0.9134  0.4582
  745MOL0     H  558   6.184  -0.285   5.730 -2.0679 -3.7945 -0.0466
  745MOL0     H  559   6.591  -0.089   5.956  3.5235  3.6809  2.0961
  745MOL0     H  560   6.819  -0.018   5.954  0.9270 -3.6654  0.5475
  745MOL0     H  561   6.895   1.102   6.367 -0.4058 -1.6632  0.3437
  745MOL0     H  562   6.764   0.968   6.217 -0.0174  2.1371  3.8390
  745MOL0     H  563   6.822   0.841   5.739  0.3952 -0.0600  0.5099
  745MOL0     H  564   6.720   0.761   5.525  1.5427  2.1977  1.5253
  745MOL0     H  565   6.604   0.592   5.372 -0.0190 -1.6017  0.5315
  745MOL0     H  566   6.445   0.586   5.321  1.5447 -1.7053  0.2822
  745MOL0     H  567   6.581   0.838   5.394  1.6761 -0.5704 -1.1752
  745MOL0     H  568   6.416   0.834   5.338 -0.9122 -1.9618 -0.9079
  745MOL0     H  569   6.494   0.856   5.131 -2.8803  0.1628  2.4841
  745MOL0     H  570   6.536   0.685   5.141  1.3985 -0.8796  4.7898
  745MOL0     H  571   6.768   0.808   5.253  0.4997 -1.2408 -0.2144
  745MOL0     H  572   6.723   0.912   5.127 -1.5903  0.9925  3.3045
  745MOL0     H  573   6.855   0.561   4.914 -0.2818 -2.6512  1.6841
  745MOL0     H  574   6.369   0.641   5.750  0.5888 -1.2223  0.7897
  745MOL0     H  575   6.482   0.710   5.974 -2.0459  2.8087 -0.0923
  746MOL0     O  576  10.826   0.005  11.063  0.5063  0.0181 -1.0072
  746MOL0     C  577  10.883   0.094  11.000 -0.4823  0.0753  1.0986
  746MOL0     O  578  10.934   0.212  11.055 -0.4069  0.4291  0.0676
  746MOL0     C  579  10.936   0.249  11.187 -0.1809 -0.7416  0.5555
  746MOL0     C  580  11.008   0.373  11.208 -0.6547 -0.3061  0.5659
  746MOL0     C  581  10.999   0.430  11.332  0.6136 -0.8998  0.1436
  746MOL0     C  582  10.909   0.383  11.423 -0.4338  0.0779  0.7710
  746MOL0     O  583  10.866   0.466  11.521  0.7655 -0.3370  0.9976
  746MOL0     C  584  10.804   0.591  11.478 -0.4658  0.6512  0.0126
  746MOL0     C  585  10.665   0.562  11.419  0.2357  0.0822  0.8822
  746MOL0     C  586  10.572   0.533  11.534 -0.7494 -0.0007 -0.5986
  746MOL0     C  587  10.439   0.536  11.479  1.1897 -0.2974 -0.4367
  746MOL0     C  588  10.344   0.463  11.579  0.0088 -0.6855  0.4298
  746MOL0     C  589  10.333   0.530  11.718  0.4412 -0.4484 -0.6762
  746MOL0     C  590  10.255   0.435  11.831  0.0223 -0.1779  0.5927
  746MOL0     C  591  10.264   0.482  11.976 -0.2202  0.5843 -0.4877
  746MOL0     N  592  10.169   0.585  12.011 -0.2203 -1.0260  0.3429
  746MOL0     C  593  10.175   0.716  11.962  0.3281  0.0617  0.5610
  746MOL0     C  594  10.078   0.783  12.023 -0.1077 -0.0200  0.5081
  746MOL0     C  595  10.035   0.920  12.001  0.5958 -0.1981 -0.0900
  746MOL0     C  596  10.152   1.022  11.998  0.4679  0.5166  0.0583
  746MOL0     C  597  10.231   1.019  12.132 -0.1024 -0.0440 -0.0085
  746MOL0     C  598  10.351   1.123  12.129  0.0488 -0.7210 -0.7565
  746MOL0     O  599  10.447   1.084  12.034  0.6548 -0.0429 -0.2273
  746MOL0     C  600  10.451   1.145  11.909 -0.1298 -0.4022 -0.7170
  746MOL0     C  601  10.565   1.107  11.832  1.0224 -0.7252 -0.2674
  746MOL0     C  602  10.588   1.170  11.712 -1.1628 -0.0204  0.3583
  746MOL0     C  603  10.715   1.131  11.646 -0.2846 -0.5318 -0.0619
  746MOL0     C  604  10.504   1.281  11.673 -0.4473  0.4793 -0.0547
  746MOL0     C  605  10.514   1.348  11.547  0.0966  0.2267  0.3329
  746MOL0     O  606  10.550   1.262  11.451 -0.8636  0.1543  0.5156
  746MOL0     C  607  10.558   1.316  11.323 -0.8482  0.1206  0.6351
  746MOL0     C  608  10.685   1.351  11.278 -0.7711  0.2227 -0.1767
  746MOL0     C  609  10.700   1.410  11.145 -0.3954  0.9068 -1.0088
  746MOL0     C  610  10.590   1.419  11.058 -0.6628  0.0749 -0.7921
  746MOL0     O  611  10.604   1.465  10.924  0.0695 -0.7012 -0.1939
  746MOL0     C  612  10.718   1.546  10.874 -0.4475  0.6046 -0.1609
  746MOL0     C  613  10.765   1.495  10.735  0.9457  0.1604  1.3857
  746MOL0     C  614  10.730   1.579  10.614 -0.1059 -0.5799  0.7141
  746MOL0     C  615  10.593   1.584  10.564  0.3456  0.1256  0.2327
  746MOL0     C  616  10.587   1.674  10.444 -0.1834 -0.0347 -0.2300
  746MOL0     C  617  10.448   1.686  10.389 -0.2691  0.0074  0.9627
  746MOL0     C  618  10.445   1.770  10.259 -0.2742  0.0247  0.0487
  746MOL0     C  619  10.328   1.725  10.176 -0.5224 -0.1917 -0.5812
  746MOL0    Cl  620  10.169   1.736  10.257 -0.0880 -0.5353  0.0628
  746MOL0     C  621  10.465   1.372  11.101  0.3276 -0.0150 -0.3608
  746MOL0     C  622  10.452   1.325  11.234 -0.0432 -0.0667 -0.2544
  746MOL0     O  623  10.497   1.468  11.545  0.3836 -0.1366 -0.4494
  746MOL0     C  624  10.390   1.320  11.751  0.3612 -0.9219  0.2634
  746MOL0     C  625  10.359   1.245  11.866  0.2185  0.3044  0.1479
  746MOL0     N  626  10.019   0.701  12.117 -0.5865  0.2486 -0.4561
  746MOL0     N  627  10.073   0.582  12.108 -0.3082 -0.1483 -0.6586
  746MOL0     C  628  10.862   0.259  11.413 -0.8027  0.8220 -0.0663
  746MOL0     C  629  10.875   0.193  11.295  1.3751  0.0392 -0.7786
  746MOL0     C  630  10.924   0.070  10.858  0.7937  0.1218 -0.1028
  746MOL0     C  631  11.000   0.154  10.781 -0.5604  0.0376  0.8847
  746MOL0     C  632  11.035   0.126  10.645  0.3008  0.1365 -0.0846
  746MOL0     C  633  10.980   0.024  10.582  0.3368  1.3177 -0.8276
  746MOL0     O  634  11.037  -0.022  10.465  0.3149 -0.6717 -0.2811
  746MOL0     C  635  10.970  -0.117  10.383  0.5062 -0.5397 -0.2809
  746MOL0     C  636  11.054  -0.153  10.268 -1.2008  1.2009  0.8623
  746MOL0     C  637  11.180  -0.237  10.315 -0.3134 -0.2965  0.3687
  746MOL0     C  638  11.268  -0.305  10.209  0.0570 -0.2321  0.4066
  746MOL0     C  639  11.294  -0.210  10.102 -0.3536  0.3887  1.0629
  746MOL0     C  640  11.325  -0.126  10.014  0.7601 -0.0259  0.1179
  746MOL0     C  641  10.875  -0.048  10.644 -0.2442  0.4676 -1.0945
  746MOL0     C  642  10.846  -0.021  10.779 -0.5665  0.0315 -0.8827
  746MOL0     H  643  11.057   0.418  11.122  0.6551 -3.7685 -0.6495
  746MOL0     H  644  11.035   0.531  11.354 -2.3413 -0.3920  3.7471
  746MOL0     H  645  10.801   0.657  11.566  1.6543  3.5811 -1.9443
  746MOL0     H  646  10.857   0.656  11.408  3.3395  0.2636  2.2510
  746MOL0     H  647  10.619   0.652  11.377  1.8858  1.0370  1.0149
  746MOL0     H  648  10.677   0.493  11.336 -2.1133 -0.1863  0.6841
  746MOL0     H  649  10.598   0.439  11.583  0.6665  0.8016  0.2662
  746MOL0     H  650  10.573   0.610  11.612  0.5100 -3.1821  2.7977
  746MOL0     H  651  10.395   0.632  11.452 -1.1890 -1.8717 -2.6373
  746MOL0     H  652  10.433   0.476  11.388 -2.0683  0.6006 -0.9452
  746MOL0     H  653  10.245   0.464  11.534  0.3209 -1.4280 -0.3100
  746MOL0     H  654  10.375   0.363  11.611  0.2531 -0.7014  0.1534
  746MOL0     H  655  10.429   0.538  11.770 -0.7538  0.2705  1.5744
  746MOL0     H  656  10.290   0.630  11.706  2.2046  0.2953 -0.9898
  746MOL0     H  657  10.149   0.425  11.806  0.0488 -0.3427  0.5406
  746MOL0     H  658  10.302   0.336  11.825 -4.0173 -2.4758  2.6565
  746MOL0     H  659  10.362   0.522  12.003  0.1160 -1.1964  1.1588
  746MOL0     H  660  10.246   0.390  12.032 -4.0984  0.7430 -1.2082
  746MOL0     H  661  10.226   0.751  11.873  1.3825 -2.2640  0.2047
  746MOL0     H  662   9.991   0.924  11.901  2.5385 -0.9462 -1.0204
  746MOL0     H  663   9.952   0.939  12.070  0.0727  0.2946 -0.8483
  746MOL0     H  664  10.113   1.121  11.971  0.4771 -0.0734 -2.3068
  746MOL0     H  665  10.213   0.981  11.918 -1.5093 -1.5258 -0.5116
  746MOL0     H  666  10.272   0.919  12.150  1.0111  0.5393  0.7777
  746MOL0     H  667  10.170   1.047  12.218 -0.7574 -0.3372 -0.3641
  746MOL0     H  668  10.402   1.118  12.225  2.3055  2.6048 -1.6376
  746MOL0     H  669  10.328   1.229  12.115  4.1837  0.6348  1.1251
  746MOL0     H  670  10.630   1.030  11.874 -0.7462 -0.6047  3.0013
  746MOL0     H  671  10.796   1.141  11.719 -0.3089  3.2348 -0.3232
  746MOL0     H  672  10.728   1.032  11.602  1.0217 -1.6898  2.7169
  746MOL0     H  673  10.741   1.215  11.580 -0.6972  0.1195  0.5857
  746MOL0     H  674  10.774   1.333  11.338 -0.1173 -0.7937 -1.3926
  746MOL0     H  675  10.793   1.460  11.120 -0.0882  0.1506 -1.4146
  746MOL0     H  676  10.687   1.651  10.869  1.6002  1.1978 -2.0315
  746MOL0     H  677  10.810   1.553  10.933  0.6391  0.0028 -1.7302
  746MOL0     H  678  10.874   1.484  10.736  0.9688 -0.4460 -0.9829
  746MOL0     H  679  10.710   1.403  10.712 -0.6662  1.6049 -0.9542
  746MOL0     H  680  10.797   1.534  10.541 -1.0008 -1.6174  0.5019
  746MOL0     H  681  10.765   1.682  10.621 -1.7257 -0.0972  2.5374
  746MOL0     H  682  10.564   1.492  10.514  0.4013  1.7086 -2.9243
  746MOL0     H  683  10.519   1.610  10.641 -0.6152 -2.7919  0.4302
  746MOL0     H  684  10.644   1.638  10.359 -0.3700  0.1866 -0.4513
  746MOL0     H  685  10.624   1.773  10.474  0.7409 -0.7389  1.0473
  746MOL0     H  686  10.397   1.590  10.374  0.8519 -0.5470  0.5124
  746MOL0     H  687  10.392   1.739  10.466 -1.2115  3.0845 -1.6688
  746MOL0     H  688  10.539   1.750  10.206  0.8690  1.2149  1.5095
  746MOL0     H  689  10.437   1.877  10.284  2.6352 -0.3813  3.6578
  746MOL0     H  690  10.332   1.626  10.130  0.8241  0.2193 -1.4097
  746MOL0     H  691  10.322   1.797  10.094 -3.9671  2.2663  1.5442
  746MOL0     H  692  10.372   1.368  11.044 -0.3104  1.3852  0.5039
  746MOL0     H  693  10.360   1.285  11.276  1.9967  0.0842  5.1322
  746MOL0     H  694  10.324   1.401  11.719 -1.2822 -2.5112 -0.5719
  746MOL0     H  695  10.273   1.269  11.928  0.5487 -0.7250  1.0447
  746MOL0     H  696  10.794   0.215  11.486  1.5679 -1.7173  0.8036
  746MOL0     H  697  10.827   0.096  11.290  0.1726  0.5442  0.3449
  746MOL0     H  698  11.038   0.237  10.841 -1.5907 -0.6416  2.5427
  746MOL0     H  699  11.116   0.188  10.610 -0.3708 -0.3102 -2.5905
  746MOL0     H  700  10.947  -0.210  10.437 -1.4930  1.3203  2.2883
  746MOL0     H  701  10.884  -0.070  10.335 -1.7231  0.6437  4.2669
  746MOL0     H  702  11.092  -0.066  10.215  3.4116 -1.1810 -0.2474
  746MOL0     H  703  10.995  -0.221  10.205  1.0762 -0.2330  0.1414
  746MOL0     H  704  11.139  -0.315  10.380 -1.9074 -1.3793 -1.7749
  746MOL0     H  705  11.246  -0.168  10.367 -1.9693  2.7412 -1.2324
  746MOL0     H  706  11.206  -0.392  10.185 -0.9154 -0.0140  1.9784
  746MOL0     H  707  11.371  -0.324  10.239  1.0667  0.2050 -2.5139
  746MOL0     H  708  11.352  -0.055   9.939  1.0685  0.4795  0.6929
  746MOL0     H  709  10.817  -0.122  10.590 -0.4074  1.2044 -1.9566
  746MOL0     H  710  10.773  -0.087  10.826 -1.2789  1.2401 -0.2668
  747MOL0     O  711  11.255   3.870   8.262  0.3004 -0.2046 -0.3852
  747MOL0     C  712  11.183   3.963   8.211 -0.8262  0.6602 -0.2102
  747MOL0     O  713  11.054   3.948   8.171 -0.2159 -0.0921  0.0749
  747MOL0     C  714  10.997   3.825   8.186  0.2035 -0.2656  0.2015
  747MOL0     C  715  10.957   3.755   8.064 -0.1344  0.1256 -0.2915
  747MOL0     C  716  10.895   3.631   8.067  1.0388 -0.2876  0.3284
  747MOL0     C  717  10.861   3.579   8.197  1.0116 -0.1562  0.3948
  747MOL0     O  718  10.799   3.460   8.210  0.4150  1.1639  0.1763
  747MOL0     C  719  10.843   3.355   8.128  0.4901 -0.7118 -0.7175
  747MOL0     C  720  10.834   3.231   8.214 -0.0694  0.0842  0.2471
  747MOL0     C  721  10.688   3.190   8.236  0.1995  0.2594  0.4616
  747MOL0     C  722  10.677   3.063   8.314  1.0703 -0.0071 -0.6374
  747MOL0     C  723  10.522   3.028   8.337 -0.9392  0.8656 -0.7496
  747MOL0     C  724  10.451   2.957   8.217 -0.0059 -0.6210  0.2166
  747MOL0     C  725  10.324   2.888   8.280 -0.9204  0.7342  0.9210
  747MOL0     C  726  10.275   2.759   8.204  0.2993  0.7047 -0.1860
  747MOL0     N  727  10.146   2.717   8.243 -0.3926  0.4447 -0.7568
  747MOL0     C  728  10.036   2.784   8.197  0.5818 -0.1323  0.0576
  747MOL0     C  729   9.927   2.719   8.244 -0.3091  0.1946 -0.7519
  747MOL0     C  730   9.783   2.736   8.203 -0.1954 -0.5831 -0.0864
  747MOL0     C  731   9.678   2.721   8.332 -0.6294 -0.1200 -0.3514
  747MOL0     C  732   9.541   2.654   8.288  1.5267 -0.1633  0.2498
  747MOL0     C  733   9.423   2.666   8.390 -0.1789 -0.5564  0.0736
  747MOL0     O  734   9.408   2.809   8.417  0.1674  0.7306  0.5866
  747MOL0     C  735   9.422   2.860   8.534 -0.1413 -1.4198  0.5802
  747MOL0     C  736   9.497   2.799   8.627 -0.6286 -0.0004 -1.0137
  747MOL0     C  737   9.506   2.860   8.759 -0.3767  0.1047 -0.7639
  747MOL0     C  738   9.606   2.801   8.865 -1.1075  0.2044  0.0532
  747MOL0     C  739   9.434   2.976   8.794  0.3260  0.5984  0.5646
  747MOL0     C  740   9.440   3.046   8.929  0.6095  0.6340 -0.2326
  747MOL0     O  741   9.366   3.157   8.944  0.4985  0.0907  0.0305
  747MOL0     C  742   9.338   3.223   9.056 -0.9088 -0.5504  0.3164
  747MOL0     C  743   9.315   3.364   9.046  1.1713  0.2253 -0.2617
  747MOL0     C  744   9.284   3.441   9.163 -0.0681 -0.1806  0.4624
  747MOL0     C  745   9.299   3.386   9.288 -0.5800 -0.0873 -0.4961
  747MOL0     O  746   9.320   3.450   9.410 -0.1071 -0.6442 -0.3837
  747MOL0     C  747   9.272   3.586   9.424  0.3924 -0.0488  0.4923
  747MOL0     C  748   9.282   3.623   9.573  0.4018  1.6390  0.4930
  747MOL0     C  749   9.245   3.763   9.598 -0.2771  0.8994 -0.2037
  747MOL0     C  750   9.330   3.859   9.540  0.1574 -0.5193  0.2010
  747MOL0     C  751   9.302   4.003   9.584 -0.1840  1.0141  0.3969
  747MOL0     C  752   9.164   4.050   9.555 -0.2455 -0.4537  0.8715
  747MOL0     C  753   9.128   4.189   9.612  0.2225  0.5357  0.5036
  747MOL0     C  754   9.121   4.291   9.495 -0.2892 -0.0638 -1.0748
  747MOL0    Cl  755   9.280   4.308   9.415 -0.4149  0.1911 -0.1178
  747MOL0     C  756   9.332   3.250   9.297 -0.1441  0.3240 -0.2502
  747MOL0     C  757   9.362   3.173   9.190  0.1784 -0.4179 -0.5183
  747MOL0     O  758   9.516   3.003   9.013 -0.8411 -0.3741 -0.2305
  747MOL0     C  759   9.356   3.031   8.694 -0.0328 -0.3130 -0.8103
  747MOL0     C  760   9.337   2.973   8.569 -0.8141  0.3001  0.3497
  747MOL0     N  761   9.970   2.622   8.324 -0.2214  0.8711 -0.6000
  747MOL0     N  762  10.100   2.616   8.321  0.8947 -0.9557 -0.8046
  747MOL0     C  763  10.880   3.658   8.316 -0.8798  0.7811  0.3464
  747MOL0     C  764  10.956   3.781   8.309  1.1640  0.4404 -0.8770
  747MOL0     C  765  11.244   4.089   8.173 -0.1067 -0.8681  0.2016
  747MOL0     C  766  11.167   4.198   8.115  0.1890 -0.8769 -0.1502
  747MOL0     C  767  11.228   4.320   8.087  0.2255  0.6732  0.1415
  747MOL0     C  768  11.355   4.349   8.130  0.0378 -0.8567  0.0380
  747MOL0     O  769  11.418   4.470   8.112 -0.6583  0.3926  0.7485
  747MOL0     C  770  11.361   4.592   8.175  0.4440  0.1335  0.7443
  747MOL0     C  771  11.378   4.595   8.340  0.3907  1.3500  0.3374
  747MOL0     C  772  11.509   4.660   8.381 -0.2603  0.4195 -0.7297
  747MOL0     C  773  11.532   4.624   8.530  0.2009 -0.1279  1.2605
  747MOL0     C  774  11.529   4.475   8.557 -0.1953  0.4632 -0.2617
  747MOL0     C  775  11.543   4.355   8.576  0.0204  0.3204 -0.4911
  747MOL0     C  776  11.427   4.250   8.191  0.5215  0.1563  0.2249
  747MOL0     C  777  11.369   4.125   8.211  0.9686  0.8277  0.3858
  747MOL0     H  778  11.001   3.814   7.985  1.3238  2.1963  1.8958
  747MOL0     H  779  10.872   3.566   7.982 -2.5037 -0.6329  1.3600
  747MOL0     H  780  10.785   3.353   8.035  2.4939  1.6203 -2.1377
  747MOL0     H  781  10.947   3.376   8.101  0.9604  0.8160  1.9793
  747MOL0     H  782  10.886   3.144   8.172  0.5207  0.7902 -0.5044
  747MOL0     H  783  10.883   3.238   8.312 -1.6582 -1.5283  1.2191
  747MOL0     H  784  10.641   3.270   8.292 -2.0995  0.4045 -1.4819
  747MOL0     H  785  10.638   3.183   8.139 -1.2576  0.8828  1.1397
  747MOL0     H  786  10.739   2.990   8.262  3.8156 -1.0348  3.5437
  747MOL0     H  787  10.734   3.097   8.401 -0.8418  1.9160 -0.0485
  747MOL0     H  788  10.540   2.953   8.415  3.7699  0.4341 -1.9770
  747MOL0     H  789  10.465   3.114   8.375 -0.5835  2.0328 -2.7183
  747MOL0     H  790  10.432   3.017   8.127  2.2290 -0.8661 -0.4989
  747MOL0     H  791  10.528   2.890   8.178 -1.2796 -0.7257 -2.3000
  747MOL0     H  792  10.349   2.843   8.377  1.7492 -1.0319 -0.4628
  747MOL0     H  793  10.241   2.955   8.306 -0.0530  2.1289  0.1986
  747MOL0     H  794  10.338   2.669   8.209 -0.3784  0.2555  0.3333
  747MOL0     H  795  10.284   2.777   8.096  1.1777 -0.1447 -0.2760
  747MOL0     H  796  10.035   2.851   8.112 -2.3963 -1.3157 -0.9817
  747MOL0     H  797   9.764   2.835   8.160 -2.3843 -2.0358 -2.9016
  747MOL0     H  798   9.750   2.653   8.139 -1.5158 -1.9113  2.1996
  747MOL0     H  799   9.663   2.828   8.351  2.8047  0.1437  1.6348
  747MOL0     H  800   9.728   2.677   8.419  1.4380  0.9510 -0.9376
  747MOL0     H  801   9.550   2.550   8.253 -0.6450 -0.1410 -0.4831
  747MOL0     H  802   9.508   2.697   8.193 -2.0922  0.1031  1.4921
  747MOL0     H  803   9.452   2.602   8.474 -0.5343  1.9244  2.2154
  747MOL0     H  804   9.338   2.617   8.342 -1.2305  0.9257  0.3626
  747MOL0     H  805   9.558   2.714   8.598 -3.4405 -1.7238 -2.3071
  747MOL0     H  806   9.675   2.730   8.819 -3.7106 -3.9569  1.9401
  747MOL0     H  807   9.671   2.876   8.911 -0.0863 -0.7990  0.3018
  747MOL0     H  808   9.553   2.755   8.949 -0.3849 -1.6999 -0.4718
  747MOL0     H  809   9.317   3.404   8.945 -0.2123 -3.7724 -2.1087
  747MOL0     H  810   9.275   3.549   9.172  0.5724 -0.1516  0.7835
  747MOL0     H  811   9.317   3.656   9.353  2.7742  0.5124  2.4181
  747MOL0     H  812   9.167   3.567   9.399 -0.0971 -2.0426  3.5403
  747MOL0     H  813   9.222   3.551   9.629  0.6894 -0.0084 -1.2190
  747MOL0     H  814   9.382   3.611   9.615  1.2140  0.1628 -1.6690
  747MOL0     H  815   9.240   3.780   9.706 -1.2301 -0.4208 -0.0110
  747MOL0     H  816   9.143   3.774   9.561 -0.7274  1.6622  1.1810
  747MOL0     H  817   9.433   3.837   9.569  1.1697  0.3332 -2.4563
  747MOL0     H  818   9.321   3.857   9.431 -1.5938 -0.3418  0.3122
  747MOL0     H  819   9.370   4.065   9.525  1.3906 -1.4418 -0.5166
  747MOL0     H  820   9.319   4.018   9.691 -2.4724  0.7936  0.8383
  747MOL0     H  821   9.136   4.041   9.450  1.3614 -2.7190  0.5615
  747MOL0     H  822   9.106   3.981   9.616  4.4778 -2.8811  3.2208
  747MOL0     H  823   9.208   4.216   9.681  0.9804  2.3571 -1.0016
  747MOL0     H  824   9.029   4.178   9.657  0.3807 -2.8313  0.2092
  747MOL0     H  825   9.093   4.390   9.532  1.6581 -0.3019  1.3105
  747MOL0     H  826   9.042   4.266   9.423  1.3884  0.9969 -3.4069
  747MOL0     H  827   9.351   3.225   9.401 -5.7767  0.2728  1.0927
  747MOL0     H  828   9.406   3.075   9.207  1.4913 -0.3941 -3.2920
  747MOL0     H  829   9.288   3.113   8.715  1.0130  0.5658 -0.7670
  747MOL0     H  830   9.277   3.014   8.488  1.1284  0.1230 -1.2433
  747MOL0     H  831  10.849   3.614   8.410  1.2867 -4.9571 -1.1833
  747MOL0     H  832  10.977   3.829   8.404  5.4589 -2.5894 -0.0063
  747MOL0     H  833  11.065   4.194   8.077 -0.2912  0.1888  0.9368
  747MOL0     H  834  11.165   4.399   8.048 -0.2299 -0.6796 -2.0770
  747MOL0     H  835  11.427   4.667   8.130  0.2690 -0.0383  0.1905
  747MOL0     H  836  11.259   4.620   8.145  0.9493  2.6150  1.0860
  747MOL0     H  837  11.364   4.497   8.386  1.7725  1.6587  1.4723
  747MOL0     H  838  11.292   4.652   8.375 -1.1078 -1.1669  1.0199
  747MOL0     H  839  11.513   4.769   8.387  2.1700  0.3394  4.1642
  747MOL0     H  840  11.587   4.610   8.323  1.2227 -0.4319  1.8692
  747MOL0     H  841  11.461   4.675   8.597 -1.6201 -1.2459  0.2659
  747MOL0     H  842  11.631   4.660   8.560  0.3129  0.9149 -0.2472
  747MOL0     H  843  11.558   4.250   8.588  0.8063  0.5133  0.3775
  747MOL0     H  844  11.530   4.275   8.211  1.6405 -2.3946 -1.8782
  747MOL0     H  845  11.433   4.043   8.241 -0.8738 -0.8787 -0.1378
  748MOL0     O  846   3.918   4.466   5.721 -0.0645 -0.3731  2.1557
  748MOL0     C  847   3.902   4.588   5.715 -0.4563  0.3721 -0.0357
  748MOL0     O  848   3.969   4.682   5.797 -0.9302  0.3058  0.1316
  748MOL0     C  849   4.074   4.645   5.873  0.5909 -1.3462  0.7815
  748MOL0     C  850   4.091   4.543   5.960  0.8165  0.1319 -0.5691
  748MOL0     C  851   4.214   4.509   6.022 -0.1584 -0.0903  0.3947
  748MOL0     C  852   4.326   4.593   6.002 -0.3076  1.4348 -0.1957
  748MOL0     O  853   4.448   4.571   6.068 -0.4597  0.2177 -0.0310
  748MOL0     C  854   4.445   4.498   6.191 -0.2822  0.9555  0.4979
  748MOL0     C  855   4.589   4.485   6.250 -0.4106 -0.6704  0.1415
  748MOL0     C  856   4.595   4.507   6.399  0.3688 -0.1915  0.4405
  748MOL0     C  857   4.615   4.653   6.429  0.5716  0.4298 -0.1784
  748MOL0     C  858   4.624   4.700   6.566  0.5987 -0.3986 -0.4189
  748MOL0     C  859   4.642   4.855   6.576 -1.4293  0.0613 -1.2286
  748MOL0     C  860   4.697   4.887   6.711 -0.2958 -0.4893 -0.2004
  748MOL0     C  861   4.693   5.040   6.744 -0.1058  0.7900 -0.0767
  748MOL0     N  862   4.701   5.065   6.885 -0.1760  0.1328  0.2408
  748MOL0     C  863   4.787   5.000   6.973 -0.8890  1.0672 -0.5427
  748MOL0     C  864   4.762   5.058   7.093  1.1836 -0.7130  0.3007
  748MOL0     C  865   4.820   5.024   7.231  0.0860  0.4148  0.3655
  748MOL0     C  866   4.884   5.145   7.303  0.7742 -0.8417 -0.4656
  748MOL0     C  867   4.975   5.222   7.210  0.0655 -1.0701  0.1183
  748MOL0     C  868   5.055   5.323   7.288  0.0071 -0.7747 -0.5885
  748MOL0     O  869   5.144   5.368   7.185  0.1321  0.5055  0.0976
  748MOL0     C  870   5.230   5.469   7.210  0.3331 -0.8148  0.5916
  748MOL0     C  871   5.316   5.492   7.106  0.2944  0.8047  0.3231
  748MOL0     C  872   5.391   5.615   7.106 -0.8711  0.2666  0.7583
  748MOL0     C  873   5.487   5.627   6.984  0.1694 -0.0437 -0.1024
  748MOL0     C  874   5.379   5.713   7.207  1.2142 -0.2922 -0.5065
  748MOL0     C  875   5.456   5.838   7.209  0.6436 -0.2647 -0.8152
  748MOL0     O  876   5.463   5.913   7.104  0.3854 -0.4553 -0.3428
  748MOL0     C  877   5.552   6.020   7.101  0.4445  0.1905  0.2561
  748MOL0     C  878   5.661   6.027   7.020  0.4825 -0.7729  0.0715
  748MOL0     C  879   5.751   6.128   7.022  0.3286 -1.0096 -0.5053
  748MOL0     C  880   5.743   6.238   7.107 -0.3603  1.2910  0.3615
  748MOL0     O  881   5.854   6.321   7.119  0.4001 -0.1652  0.2390
  748MOL0     C  882   5.889   6.370   6.983  0.6152  0.0663 -0.5042
  748MOL0     C  883   5.981   6.496   6.999 -0.1305  0.3558  0.0916
  748MOL0     C  884   5.902   6.609   7.069 -0.6106  0.3211  0.5104
  748MOL0     C  885   5.974   6.749   7.064 -0.5739  0.5242  0.6158
  748MOL0     C  886   5.880   6.859   7.092  0.0658 -1.2819  0.0366
  748MOL0     C  887   5.952   6.989   7.097  0.3608 -0.5021  0.6021
  748MOL0     C  888   5.999   7.029   6.951  0.0348 -0.2180  0.3657
  748MOL0     C  889   6.085   7.161   6.948  0.9255  0.7014  0.5586
  748MOL0    Cl  890   6.089   7.201   6.771  0.0190  0.2683  0.2675
  748MOL0     C  891   5.636   6.236   7.198  0.0837  0.8137 -0.4777
  748MOL0     C  892   5.547   6.126   7.201 -0.6772 -0.3837  0.8516
  748MOL0     O  893   5.512   5.862   7.318  1.1316  0.2264 -0.5961
  748MOL0     C  894   5.303   5.668   7.322 -0.4583 -0.2052  1.0656
  748MOL0     C  895   5.232   5.551   7.327  0.8210  0.7876 -0.1541
  748MOL0     N  896   4.664   5.157   7.074  0.0351 -0.6689  0.3404
  748MOL0     N  897   4.641   5.166   6.946  0.7557 -0.0260  0.1907
  748MOL0     C  898   4.312   4.693   5.909 -0.8426 -0.3872 -0.5556
  748MOL0     C  899   4.188   4.725   5.849 -0.8372  0.0465  0.7441
  748MOL0     C  900   3.793   4.650   5.635 -0.1198  0.1969 -0.3488
  748MOL0     C  901   3.696   4.568   5.579  0.9609 -0.1812 -0.1486
  748MOL0     C  902   3.594   4.629   5.499 -0.4894 -0.2543 -0.5025
  748MOL0     C  903   3.596   4.763   5.475 -0.7278  0.0897 -0.0983
  748MOL0     O  904   3.515   4.829   5.385 -0.1167 -0.0177  1.1451
  748MOL0     C  905   3.381   4.780   5.361  0.1479 -0.4836  0.2363
  748MOL0     C  906   3.291   4.907   5.322 -0.3263  0.9150 -1.0582
  748MOL0     C  907   3.355   5.001   5.217 -0.0668 -0.0901 -0.1714
  748MOL0     C  908   3.331   5.151   5.243  0.7071 -0.5081  0.2449
  748MOL0     C  909   3.187   5.192   5.242  0.0034 -0.1834 -0.1157
  748MOL0     C  910   3.064   5.227   5.229 -0.1649 -0.4560  0.4134
  748MOL0     C  911   3.697   4.841   5.527 -0.1050 -0.4787  0.9244
  748MOL0     C  912   3.792   4.788   5.606  0.5372 -1.0875  0.2559
  748MOL0     H  913   4.001   4.489   5.987  0.1612  1.8716  0.9367
  748MOL0     H  914   4.203   4.440   6.105 -3.8698  3.9347  3.7223
  748MOL0     H  915   4.372   4.548   6.255  0.3801  1.8445  0.5640
  748MOL0     H  916   4.417   4.394   6.171  1.7853  0.6015 -0.8794
  748MOL0     H  917   4.612   4.379   6.235 -1.1439 -0.7211 -0.6717
  748MOL0     H  918   4.664   4.545   6.198 -0.7675 -0.3639 -0.0255
  748MOL0     H  919   4.506   4.469   6.450  1.2494 -1.4397  1.1278
  748MOL0     H  920   4.689   4.460   6.432  0.8498  0.7106  0.3877
  748MOL0     H  921   4.709   4.677   6.378  2.4658 -1.5101  2.1563
  748MOL0     H  922   4.528   4.693   6.377 -0.3793 -3.2345 -1.6836
  748MOL0     H  923   4.536   4.672   6.626  0.4759  1.3582  0.2768
  748MOL0     H  924   4.701   4.642   6.618  2.0316 -0.9354 -2.9647
  748MOL0     H  925   4.702   4.896   6.494 -2.0616 -1.2425 -2.3861
  748MOL0     H  926   4.542   4.898   6.563 -0.4729  2.6234 -0.7749
  748MOL0     H  927   4.656   4.826   6.791 -0.8345  0.4085  0.2288
  748MOL0     H  928   4.803   4.861   6.710 -0.1220  0.0324 -2.6964
  748MOL0     H  929   4.598   5.070   6.698 -1.4585 -0.2990  1.8494
  748MOL0     H  930   4.781   5.085   6.698  2.2063  1.6585  4.6152
  748MOL0     H  931   4.847   4.911   6.961 -2.4486 -0.0588 -0.3532
  748MOL0     H  932   4.723   4.993   7.272  0.4409 -1.3720 -0.0672
  748MOL0     H  933   4.888   4.940   7.216  0.8832  1.1751 -0.3718
  748MOL0     H  934   4.940   5.117   7.393  2.3842  2.1708 -0.4138
  748MOL0     H  935   4.805   5.212   7.338  0.6121 -0.3145 -1.7864
  748MOL0     H  936   4.921   5.269   7.128  1.1976  0.0091 -0.0348
  748MOL0     H  937   5.041   5.160   7.150  0.7487 -1.7931  1.5676
  748MOL0     H  938   5.108   5.271   7.368  1.0317 -1.0858 -1.4541
  748MOL0     H  939   4.992   5.405   7.325  1.1925 -0.2446  0.3081
  748MOL0     H  940   5.325   5.416   7.030 -2.4266 -0.2738  0.9549
  748MOL0     H  941   5.455   5.689   6.899 -0.4848 -0.0642  0.1244
  748MOL0     H  942   5.571   5.689   7.017  3.0430 -4.0066  0.8571
  748MOL0     H  943   5.523   5.529   6.953 -1.2384 -0.1444 -1.5474
  748MOL0     H  944   5.686   5.942   6.959 -1.0296 -0.3661 -1.1699
  748MOL0     H  945   5.839   6.120   6.958 -0.2530  1.5455 -1.7516
  748MOL0     H  946   5.943   6.291   6.930 -2.4956 -2.7112  0.0975
  748MOL0     H  947   5.807   6.386   6.912  1.2062  0.5551 -1.0911
  748MOL0     H  948   6.064   6.461   7.060  0.0882  1.0648  0.2096
  748MOL0     H  949   6.017   6.520   6.898 -0.9217  1.8453  0.1281
  748MOL0     H  950   5.886   6.587   7.175  1.9253 -0.7927  0.7146
  748MOL0     H  951   5.808   6.622   7.013  1.1425  1.7456 -2.3224
  748MOL0     H  952   6.063   6.749   7.128  0.2785  1.5404 -0.5178
  748MOL0     H  953   6.006   6.759   6.960  0.5878  0.7670  0.9689
  748MOL0     H  954   5.820   6.847   7.183 -0.2366 -0.1401  0.0098
  748MOL0     H  955   5.816   6.851   7.004  4.3734 -3.7051 -3.2895
  748MOL0     H  956   5.883   7.068   7.128 -1.1768  0.3792 -4.2527
  748MOL0     H  957   6.033   6.988   7.171 -0.5159 -3.6653  1.6777
  748MOL0     H  958   5.910   7.046   6.890 -1.6522  3.7277  3.5234
  748MOL0     H  959   6.050   6.947   6.898  0.4242 -0.2515  0.7910
  748MOL0     H  960   6.186   7.143   6.985  0.8421  0.6404  0.7565
  748MOL0     H  961   6.054   7.247   7.008 -1.7263 -0.2829  0.7073
  748MOL0     H  962   5.641   6.308   7.279  3.6023  0.1951  0.0109
  748MOL0     H  963   5.491   6.120   7.294 -0.1749 -1.7552  1.0901
  748MOL0     H  964   5.307   5.734   7.408 -1.2082  1.6551 -0.2458
  748MOL0     H  965   5.163   5.526   7.407 -2.5515 -2.9150 -3.7655
  748MOL0     H  966   4.403   4.750   5.892  1.2724 -2.6497  2.0936
  748MOL0     H  967   4.192   4.802   5.772 -0.0227 -0.6309  0.0885
  748MOL0     H  968   3.693   4.460   5.589 -1.4984 -0.3437 -1.8513
  748MOL0     H  969   3.514   4.568   5.457 -0.4292 -0.9346  0.3397
  748MOL0     H  970   3.396   4.711   5.277  3.0618  0.6721 -0.3280
  748MOL0     H  971   3.335   4.736   5.449 -1.7668  1.5487  0.3256
  748MOL0     H  972   3.260   4.959   5.413  0.3303 -0.3140 -0.0925
  748MOL0     H  973   3.190   4.880   5.290 -1.0318  1.2913  0.7179
  748MOL0     H  974   3.311   4.997   5.116  0.9987  1.1126 -0.7107
  748MOL0     H  975   3.462   4.988   5.201  1.1874  5.9516  0.9097
  748MOL0     H  976   3.383   5.206   5.164  2.4513  0.9499  2.3008
  748MOL0     H  977   3.378   5.177   5.338  2.5873 -1.6696 -0.3167
  748MOL0     H  978   2.965   5.265   5.220 -0.6678 -1.3362  1.7956
  748MOL0     H  979   3.696   4.949   5.522 -3.0803 -0.1023  4.8567
  748MOL0     H  980   3.851   4.869   5.648 -2.4724  1.1290  0.5664
  749MOL0     O  981   4.655   0.355  10.679  0.4426  0.7623 -0.3798
  749MOL0     C  982   4.555   0.424  10.691  0.4971  0.3946 -0.4645
  749MOL0     O  983   4.514   0.519  10.605  0.2668 -0.3979 -0.2626
  749MOL0     C  984   4.564   0.526  10.475 -0.3185 -1.0696 -0.7601
  749MOL0     C  985   4.477   0.529  10.364 -0.0147 -0.0719  0.2487
  749MOL0     C  986   4.528   0.568  10.231  1.3555 -0.8486  0.1575
  749MOL0     C  987   4.669   0.587  10.211  0.0702  0.0837  0.0465
  749MOL0     O  988   4.710   0.615  10.082 -0.0028 -0.0655  0.1389
  749MOL0     C  989   4.847   0.580  10.035 -0.4849 -0.6601  0.4835
  749MOL0     C  990   4.893   0.440  10.061 -0.5515  0.0689  0.2512
  749MOL0     C  991   5.002   0.411   9.966 -0.1370 -0.0476  0.4246
  749MOL0     C  992   5.048   0.269   9.953  0.5580  0.5618 -0.5650
  749MOL0     C  993   5.075   0.211   9.815  0.9739  0.0104  0.0966
  749MOL0     C  994   4.943   0.194   9.742 -0.9310 -0.2661  1.1370
  749MOL0     C  995   4.964   0.100   9.619 -0.6736 -0.1331  0.0327
  749MOL0     C  996   5.051   0.136   9.495  0.2854  0.1668  0.5517
  749MOL0     N  997   5.026   0.043   9.390 -0.8608 -0.1449 -0.5494
  749MOL0     C  998   4.914   0.043   9.317  0.3673 -0.0521  0.4412
  749MOL0     C  999   4.935  -0.062   9.232  0.3088 -0.2226 -0.8714
  749MOL0     C 1000   4.820  -0.113   9.144 -0.4676 -0.4364  0.1597
  749MOL0     C 1001   4.840  -0.077   8.997  0.4520 -0.2228  0.0058
  749MOL0     C 1002   4.710  -0.105   8.916  0.0218  0.4658 -1.5009
  749MOL0     C 1003   4.691  -0.032   8.782  0.1376 -1.2380 -0.4878
  749MOL0     O 1004   4.784  -0.097   8.699  0.5900 -0.2179  0.4178
  749MOL0     C 1005   4.796  -0.059   8.567 -0.0011  0.4428  0.2028
  749MOL0     C 1006   4.701   0.022   8.500  0.2327 -0.7329  0.8758
  749MOL0     C 1007   4.708   0.046   8.359  0.3202 -0.2339  0.3966
  749MOL0     C 1008   4.590   0.114   8.297  1.1622 -0.4189  0.7417
  749MOL0     C 1009   4.806  -0.012   8.275  0.3386  0.9474  0.1271
  749MOL0     C 1010   4.808   0.007   8.131  0.1920  0.5925 -0.6993
  749MOL0     O 1011   4.785  -0.090   8.040  0.4946 -0.1601 -0.2314
  749MOL0     C 1012   4.739  -0.215   8.080 -0.5926  0.6724 -0.2322
  749MOL0     C 1013   4.833  -0.319   8.058 -0.0480  0.3529 -0.5845
  749MOL0     C 1014   4.795  -0.444   8.094  0.5026  0.1028 -0.6082
  749MOL0     C 1015   4.663  -0.472   8.142 -0.5783 -0.1804  0.0641
  749MOL0     O 1016   4.614  -0.596   8.166  0.7054  0.0429  0.0251
  749MOL0     C 1017   4.675  -0.711   8.112  1.0595  0.1835 -0.0876
  749MOL0     C 1018   4.607  -0.843   8.162  0.3955 -0.4197  0.7352
  749MOL0     C 1019   4.601  -0.953   8.048 -1.0421  0.7154 -0.5939
  749MOL0     C 1020   4.557  -1.089   8.102  0.3545 -0.2811 -0.6472
  749MOL0     C 1021   4.485  -1.169   7.988 -0.3133  0.6556 -0.0167
  749MOL0     C 1022   4.349  -1.103   7.944  0.4995 -0.0696 -1.0121
  749MOL0     C 1023   4.255  -1.035   8.049  1.0018  0.4236 -0.6534
  749MOL0     C 1024   4.131  -0.961   8.000 -0.2123  0.6972  0.4804
  749MOL0    Cl 1025   3.981  -0.991   8.109 -0.3625 -0.5197  0.2033
  749MOL0     C 1026   4.573  -0.370   8.171 -0.0169 -0.6130 -0.0783
  749MOL0     C 1027   4.616  -0.239   8.137  0.1236 -0.5129  0.6178
  749MOL0     O 1028   4.854   0.110   8.099  0.7884 -1.0342  0.6736
  749MOL0     C 1029   4.879  -0.105   8.335 -0.7396 -1.5648 -0.9003
  749MOL0     C 1030   4.881  -0.124   8.478  0.5703  0.0778  0.2512
  749MOL0     N 1031   5.052  -0.127   9.261 -0.8902 -0.4722 -0.0383
  749MOL0     N 1032   5.106  -0.066   9.366  0.2049  0.9155 -0.5789
  749MOL0     C 1033   4.755   0.572  10.328  0.1150 -0.2414 -0.6577
  749MOL0     C 1034   4.703   0.547  10.450  0.3659 -0.1393  0.5979
  749MOL0     C 1035   4.465   0.404  10.807 -0.0063 -0.6935 -0.6021
  749MOL0     C 1036   4.334   0.432  10.796  1.2093 -0.2551 -0.8809
  749MOL0     C 1037   4.244   0.417  10.897  0.0978  0.2385 -1.2557
  749MOL0     C 1038   4.285   0.371  11.022 -0.2850 -0.1515 -0.5932
  749MOL0     O 1039   4.186   0.344  11.114  0.4017 -0.2189 -0.3462
  749MOL0     C 1040   4.218   0.260  11.229  0.0259 -0.1686 -0.1846
  749MOL0     C 1041   4.102   0.261  11.323 -0.8459  0.3058 -0.0153
  749MOL0     C 1042   4.099   0.384  11.420  0.1522 -0.2503 -0.7753
  749MOL0     C 1043   4.154   0.349  11.564  0.1127 -0.4983 -0.3227
  749MOL0     C 1044   4.297   0.296  11.563 -0.2079  0.5148  0.4932
  749MOL0     C 1045   4.408   0.245  11.567 -0.1115 -1.4061 -0.1143
  749MOL0     C 1046   4.423   0.338  11.040  1.1320 -1.2878  0.2941
  749MOL0     C 1047   4.508   0.352  10.932 -0.2626  0.1234 -0.3528
  749MOL0     H 1048   4.375   0.505  10.390  0.4173  0.9411  3.3894
  749MOL0     H 1049   4.473   0.560  10.138  1.1786 -0.3389  0.2149
  749MOL0     H 1050   4.844   0.602   9.928 -3.0068  3.4268  1.2026
  749MOL0     H 1051   4.922   0.637  10.091  1.8489 -1.3157 -1.7384
  749MOL0     H 1052   4.926   0.440  10.165 -1.0723 -0.0712  0.4203
  749MOL0     H 1053   4.814   0.372  10.027  0.1484  0.0171 -1.3576
  749MOL0     H 1054   4.969   0.442   9.866  2.7357  4.6083  0.6048
  749MOL0     H 1055   5.090   0.472   9.990 -0.8592  0.2574  2.4887
  749MOL0     H 1056   5.131   0.239  10.017 -1.1504  0.0631  1.5588
  749MOL0     H 1057   4.976   0.200   9.999  1.3341 -1.5569 -2.3163
  749MOL0     H 1058   5.135   0.274   9.749  1.6896  0.6291  1.2898
  749MOL0     H 1059   5.106   0.106   9.824 -3.6173 -1.5575  0.1001
  749MOL0     H 1060   4.866   0.149   9.804 -0.6256 -1.0314  0.9744
  749MOL0     H 1061   4.901   0.294   9.723 -4.1834 -1.7809 -0.3975
  749MOL0     H 1062   5.007   0.005   9.653 -2.1005 -1.3545 -1.3794
  749MOL0     H 1063   4.858   0.077   9.600 -1.5217  1.6811  2.1272
  749MOL0     H 1064   5.156   0.145   9.521  0.2917  1.3165  0.1933
  749MOL0     H 1065   5.015   0.234   9.462 -0.1658  0.0402  0.6572
  749MOL0     H 1066   4.835   0.114   9.341  3.2698  3.3372  0.8497
  749MOL0     H 1067   4.810  -0.222   9.152 -2.1725 -0.1557  2.5805
  749MOL0     H 1068   4.726  -0.066   9.173  0.2606  1.2720 -0.1172
  749MOL0     H 1069   4.926  -0.131   8.957  1.2360 -1.4537  3.0997
  749MOL0     H 1070   4.867   0.029   8.998 -1.1751  0.2252 -0.2605
  749MOL0     H 1071   4.622  -0.081   8.977 -0.9763  0.9195 -3.0783
  749MOL0     H 1072   4.701  -0.213   8.897 -2.1630 -0.1638  2.0702
  749MOL0     H 1073   4.718   0.074   8.790  1.4307 -1.3396 -2.8747
  749MOL0     H 1074   4.591  -0.046   8.739  1.0793 -0.6466 -3.0394
  749MOL0     H 1075   4.626   0.085   8.545 -0.7480  0.0903 -1.7558
  749MOL0     H 1076   4.520   0.073   8.223  1.5232  2.8739 -1.6932
  749MOL0     H 1077   4.529   0.164   8.373 -1.5143 -1.3048 -0.6866
  749MOL0     H 1078   4.621   0.192   8.226 -0.2440  0.0341  0.5867
  749MOL0     H 1079   4.925  -0.295   8.007 -0.6875  1.5203 -1.2287
  749MOL0     H 1080   4.867  -0.524   8.077  0.1595  0.0894 -2.2173
  749MOL0     H 1081   4.664  -0.706   8.003  0.4149  1.1198  0.0091
  749MOL0     H 1082   4.781  -0.714   8.139  0.7975 -0.5397  0.9140
  749MOL0     H 1083   4.669  -0.879   8.245  1.3783 -2.7633 -0.9081
  749MOL0     H 1084   4.507  -0.806   8.186 -1.2369 -2.9789 -1.4844
  749MOL0     H 1085   4.699  -0.969   8.003 -0.3252 -2.0186  1.6725
  749MOL0     H 1086   4.536  -0.904   7.974 -1.2134  4.1431  1.6062
  749MOL0     H 1087   4.645  -1.134   8.149  1.7031  2.1591 -0.6723
  749MOL0     H 1088   4.485  -1.084   8.184  0.6271 -1.4113 -0.3265
  749MOL0     H 1089   4.485  -1.275   8.016 -2.2841  0.2357 -1.3834
  749MOL0     H 1090   4.553  -1.163   7.903  2.3978 -0.9571  1.8834
  749MOL0     H 1091   4.366  -1.024   7.870 -2.4349  1.3520 -0.2922
  749MOL0     H 1092   4.291  -1.187   7.905 -1.2518 -0.2385  1.6868
  749MOL0     H 1093   4.317  -0.954   8.087 -1.6878  1.8300  1.1166
  749MOL0     H 1094   4.217  -1.104   8.125  0.4959 -0.7664 -1.9344
  749MOL0     H 1095   4.103  -0.999   7.901 -0.6651  3.8335 -0.6961
  749MOL0     H 1096   4.160  -0.856   7.989  1.9173  0.7544  4.6468
  749MOL0     H 1097   4.473  -0.392   8.207 -0.2716 -0.5012 -0.7022
  749MOL0     H 1098   4.549  -0.153   8.137  2.6399  1.7931 -3.7551
  749MOL0     H 1099   4.948  -0.154   8.268  2.2402  2.7365 -1.4568
  749MOL0     H 1100   4.937  -0.198   8.535 -2.0928 -1.2747  1.2744
  749MOL0     H 1101   4.859   0.597  10.311  0.2618 -1.3205 -1.4501
  749MOL0     H 1102   4.767   0.552  10.538 -3.2831 -0.5085  3.5198
  749MOL0     H 1103   4.291   0.490  10.715  0.8268  1.8189  0.7119
  749MOL0     H 1104   4.140   0.444  10.884 -0.0155  2.0881  2.2298
  749MOL0     H 1105   4.245   0.159  11.197 -3.2386 -0.9314 -0.8654
  749MOL0     H 1106   4.305   0.296  11.284  0.9844  0.4060 -1.9890
  749MOL0     H 1107   4.114   0.169  11.380  1.3182 -1.6272 -3.2908
  749MOL0     H 1108   4.011   0.247  11.264  1.8886 -1.3701 -4.3099
  749MOL0     H 1109   3.994   0.412  11.433  0.5087  1.0004 -0.5018
  749MOL0     H 1110   4.146   0.473  11.378 -0.3895  1.3244  1.7783
  749MOL0     H 1111   4.099   0.265  11.606 -1.2829  0.2127 -0.6637
  749MOL0     H 1112   4.142   0.437  11.629 -1.4284  0.6792 -2.1007
  749MOL0     H 1113   4.508   0.210  11.579  1.0321  0.7164 -2.5769
  749MOL0     H 1114   4.460   0.290  11.129 -1.4420  1.2734  2.9690
  749MOL0     H 1115   4.610   0.316  10.939  0.3395  1.6377 -0.8184
  750MOL0     O 1116   1.925   0.576   8.677  0.1574 -1.0849 -0.2700
  750MOL0     C 1117   1.987   0.474   8.654  0.3473 -0.2024  0.1225
  750MOL0     O 1118   2.041   0.442   8.533  0.5977  0.5961 -1.2223
  750MOL0     C 1119   2.035   0.524   8.424  0.9198  0.5287  0.4199
  750MOL0     C 1120   2.062   0.660   8.428  0.5407  0.3815  0.2792
  750MOL0     C 1121   2.054   0.740   8.314 -0.9687  0.4881 -0.6627
  750MOL0     C 1122   2.035   0.681   8.186 -0.4805  0.2523  0.0036
  750MOL0     O 1123   2.022   0.757   8.074  0.2217  0.2534  0.1059
  750MOL0     C 1124   2.018   0.699   7.940  0.0771 -0.4161  0.2857
  750MOL0     C 1125   2.032   0.822   7.848 -0.6649  0.0060  1.1007
  750MOL0     C 1126   1.920   0.933   7.856 -0.5100  1.1309  0.1134
  750MOL0     C 1127   1.782   0.876   7.854  0.2151 -0.0564 -0.2231
  750MOL0     C 1128   1.672   0.981   7.825 -0.1510  0.6558  0.1691
  750MOL0     C 1129   1.612   0.955   7.688 -0.2279 -0.2227  0.1546
  750MOL0     C 1130   1.532   1.065   7.627 -1.1995 -0.9503 -0.5375
  750MOL0     C 1131   1.440   1.138   7.728  0.1762 -0.2742  0.2309
  750MOL0     N 1132   1.427   1.280   7.685 -0.6581 -0.1552  0.1492
  750MOL0     C 1133   1.407   1.385   7.768 -1.0058 -0.2434 -0.3423
  750MOL0     C 1134   1.323   1.466   7.696  0.0332  0.9301 -0.0954
  750MOL0     C 1135   1.261   1.592   7.757  0.3297  1.2723 -0.1924
  750MOL0     C 1136   1.258   1.712   7.660 -0.3869  0.4736 -0.3433
  750MOL0     C 1137   1.170   1.837   7.704  0.0619 -0.1695  0.6670
  750MOL0     C 1138   1.143   1.959   7.609  0.8833  1.0988  0.4389
  750MOL0     O 1139   1.264   1.999   7.538  0.1680 -0.4261 -0.3151
  750MOL0     C 1140   1.245   2.106   7.442 -0.1094  0.7102  0.2115
  750MOL0     C 1141   1.125   2.164   7.401 -0.6189 -1.0112 -0.4555
  750MOL0     C 1142   1.120   2.255   7.290  0.1449  0.0622 -0.4363
  750MOL0     C 1143   0.982   2.275   7.232 -0.3652  1.2874 -0.0211
  750MOL0     C 1144   1.245   2.291   7.224 -0.4751 -0.2557 -0.3051
  750MOL0     C 1145   1.254   2.362   7.103  0.0187  0.4175  0.3982
  750MOL0     O 1146   1.350   2.346   7.011 -0.5763  0.7181  0.0811
  750MOL0     C 1147   1.343   2.413   6.889 -0.3961  0.4807 -0.3848
  750MOL0     C 1148   1.226   2.441   6.822  0.5269 -0.6272  0.2020
  750MOL0     C 1149   1.237   2.499   6.695 -0.4279  0.4068 -0.1551
  750MOL0     C 1150   1.357   2.528   6.620  0.1579  0.2315 -0.2595
  750MOL0     O 1151   1.370   2.575   6.496 -0.3895  0.1793 -0.1777
  750MOL0     C 1152   1.249   2.604   6.415 -0.4483 -0.4030 -1.3827
  750MOL0     C 1153   1.293   2.654   6.277  0.2630 -0.4791  0.5398
  750MOL0     C 1154   1.417   2.747   6.285  0.4565  0.0504  0.9106
  750MOL0     C 1155   1.479   2.785   6.140  0.9550  0.1069 -0.4668
  750MOL0     C 1156   1.603   2.881   6.144  0.7659  0.9248 -0.4003
  750MOL0     C 1157   1.727   2.813   6.200  0.0416 -0.1716 -0.2352
  750MOL0     C 1158   1.831   2.928   6.195 -0.3714 -0.7244  0.0917
  750MOL0     C 1159   1.966   2.902   6.275  0.5337 -0.1252  0.4861
  750MOL0    Cl 1160   1.959   2.886   6.456  0.1095  0.0921  0.3740
  750MOL0     C 1161   1.473   2.492   6.687  0.3446  0.1220  0.5755
  750MOL0     C 1162   1.464   2.439   6.817  0.4045 -0.0085 -0.6107
  750MOL0     O 1163   1.165   2.443   7.095 -0.0547  0.6122  0.4093
  750MOL0     C 1164   1.371   2.252   7.285  0.5511  0.1522 -0.0533
  750MOL0     C 1165   1.364   2.153   7.383 -0.7093  0.0190 -0.5895
  750MOL0     N 1166   1.292   1.409   7.574  0.1762 -0.5394  0.4465
  750MOL0     N 1167   1.356   1.305   7.570  0.4263  0.4212 -0.1592
  750MOL0     C 1168   2.001   0.543   8.177 -0.1526 -0.9297 -0.0016
  750MOL0     C 1169   1.999   0.472   8.298 -0.1345  0.0169 -0.0182
  750MOL0     C 1170   1.993   0.372   8.766  0.0681 -0.1722 -0.5300
  750MOL0     C 1171   2.067   0.254   8.765  0.3039  0.0983 -0.8459
  750MOL0     C 1172   2.082   0.176   8.881  0.2001 -1.9260  1.0685
  750MOL0     C 1173   1.998   0.199   8.993  0.3646 -0.1201  0.3301
  750MOL0     O 1174   1.974   0.104   9.096  0.6268  0.4302 -0.0903
  750MOL0     C 1175   2.087   0.009   9.127  0.1696 -0.4943  0.3052
  750MOL0     C 1176   2.031  -0.135   9.142  0.3306 -0.4348 -0.6202
  750MOL0     C 1177   1.983  -0.205   9.014  0.3421  0.2392 -0.2892
  750MOL0     C 1178   2.108  -0.245   8.916 -0.1780  0.4185  0.0134
  750MOL0     C 1179   2.085  -0.367   8.839  0.4197 -1.3717 -0.0945
  750MOL0     C 1180   2.055  -0.463   8.777 -0.1781  0.2018 -0.4713
  750MOL0     C 1181   1.908   0.307   8.982  0.2612  1.3948 -0.1979
  750MOL0     C 1182   1.923   0.399   8.880  1.0905  0.2379 -0.5113
  750MOL0     H 1183   2.090   0.693   8.527  2.0628  3.4423 -1.0152
  750MOL0     H 1184   2.090   0.842   8.319  2.4660 -0.6534  2.5718
  750MOL0     H 1185   2.096   0.625   7.923 -0.6587 -1.0200 -0.5953
  750MOL0     H 1186   1.922   0.651   7.921  0.6455 -1.0181 -1.2304
  750MOL0     H 1187   2.129   0.869   7.870  0.3901 -2.4253  2.0126
  750MOL0     H 1188   2.039   0.794   7.742  2.6335 -2.3561  1.7740
  750MOL0     H 1189   1.940   0.990   7.947 -0.9034 -2.2616  2.5451
  750MOL0     H 1190   1.934   1.000   7.771 -2.0810  0.2299 -0.9007
  750MOL0     H 1191   1.773   0.795   7.781 -2.4851 -1.8561  1.8816
  750MOL0     H 1192   1.767   0.827   7.951  1.6449  1.4817  0.8304
  750MOL0     H 1193   1.597   0.985   7.904  1.6005  2.2305  1.8626
  750MOL0     H 1194   1.715   1.081   7.836 -0.9336  1.2613 -1.7917
  750MOL0     H 1195   1.693   0.926   7.620 -1.5237 -0.9090 -1.1734
  750MOL0     H 1196   1.543   0.870   7.691  0.6914 -0.9682  0.7613
  750MOL0     H 1197   1.605   1.138   7.590 -1.7995  0.4206  0.8772
  750MOL0     H 1198   1.479   1.030   7.538  3.3350 -2.1336 -3.1146
  750MOL0     H 1199   1.495   1.147   7.823 -2.8730  0.7840  2.0484
  750MOL0     H 1200   1.346   1.088   7.754 -0.5314  1.2883  0.8409
  750MOL0     H 1201   1.429   1.407   7.871  1.4477  3.6773 -1.4942
  750MOL0     H 1202   1.167   1.575   7.810  0.7418 -0.8559 -0.0781
  750MOL0     H 1203   1.337   1.623   7.830  1.4822  0.0399 -0.8161
  750MOL0     H 1204   1.213   1.684   7.564 -0.6945  0.8876 -0.3230
  750MOL0     H 1205   1.361   1.739   7.640 -1.1099  4.1579  0.2854
  750MOL0     H 1206   1.212   1.892   7.788  0.4862 -0.6104  0.7488
  750MOL0     H 1207   1.074   1.793   7.734  0.0307 -1.8025 -1.5562
  750MOL0     H 1208   1.087   2.040   7.656 -1.7430  2.2841 -4.1873
  750MOL0     H 1209   1.071   1.924   7.534  2.0155 -1.9163  0.6094
  750MOL0     H 1210   1.036   2.125   7.450 -1.1674  0.4358 -0.2589
  750MOL0     H 1211   0.984   2.242   7.127 -0.1477  1.3513 -0.0366
  750MOL0     H 1212   0.901   2.229   7.289 -0.3157  0.7993 -0.3357
  750MOL0     H 1213   0.969   2.383   7.247  1.2169  1.5238 -0.1902
  750MOL0     H 1214   1.126   2.420   6.858 -0.0318 -4.6945 -3.0038
  750MOL0     H 1215   1.147   2.536   6.645 -0.4194  0.2280 -0.3012
  750MOL0     H 1216   1.194   2.514   6.385 -2.5228 -0.2530  1.4849
  750MOL0     H 1217   1.173   2.662   6.468  0.3273 -2.9108  2.9278
  750MOL0     H 1218   1.305   2.577   6.200  0.6451 -2.0882  2.1253
  750MOL0     H 1219   1.203   2.711   6.252  1.7787  1.0526 -1.8096
  750MOL0     H 1220   1.490   2.693   6.346  0.3687 -0.6241  0.4212
  750MOL0     H 1221   1.381   2.840   6.332  1.7965  2.5108 -2.5341
  750MOL0     H 1222   1.516   2.693   6.093  1.0013 -0.2806  0.3044
  750MOL0     H 1223   1.396   2.822   6.079  0.8520 -0.0221 -0.4058
  750MOL0     H 1224   1.575   2.961   6.213  3.3545 -0.4065  2.4507
  750MOL0     H 1225   1.625   2.923   6.045  0.9869  1.3127 -0.1873
  750MOL0     H 1226   1.712   2.780   6.303  0.7521 -0.3105 -0.1764
  750MOL0     H 1227   1.750   2.718   6.151 -0.5188 -0.5429  0.2194
  750MOL0     H 1228   1.786   3.017   6.239  0.8216  0.0978 -0.2917
  750MOL0     H 1229   1.853   2.945   6.089 -0.4378  1.8690  0.4231
  750MOL0     H 1230   2.039   2.981   6.255 -0.8261  0.4710 -2.7928
  750MOL0     H 1231   2.010   2.811   6.233 -0.1918 -0.3398  0.1751
  750MOL0     H 1232   1.565   2.501   6.630 -0.0327 -1.0457 -0.2589
  750MOL0     H 1233   1.557   2.429   6.872  0.0685  1.5293  0.2992
  750MOL0     H 1234   1.462   2.284   7.236  0.2462  0.5198 -0.3874
  750MOL0     H 1235   1.460   2.119   7.422  1.0070  2.9832 -1.8292
  750MOL0     H 1236   1.976   0.488   8.087  2.0671  0.2858 -1.4364
  750MOL0     H 1237   1.999   0.364   8.303  0.7248 -0.0729 -1.5369
  750MOL0     H 1238   2.122   0.225   8.677  1.3722  0.1858 -0.2272
  750MOL0     H 1239   2.151   0.093   8.866  0.2784 -1.8219  0.8481
  750MOL0     H 1240   2.167   0.018   9.053 -1.5671  0.7763 -1.5518
  750MOL0     H 1241   2.126   0.029   9.227  1.6373  3.0156 -0.7943
  750MOL0     H 1242   1.961  -0.132   9.226  2.4346  1.5161  1.1979
  750MOL0     H 1243   2.117  -0.192   9.178  0.6174  0.0972 -0.4592
  750MOL0     H 1244   1.909  -0.151   8.954  2.6486  0.2966 -3.3321
  750MOL0     H 1245   1.938  -0.297   9.052  0.9748 -0.6570 -1.6297
  750MOL0     H 1246   2.206  -0.247   8.965  0.5031 -3.2989 -1.1317
  750MOL0     H 1247   2.120  -0.170   8.838 -3.7770  2.4384  1.1487
  750MOL0     H 1248   2.033  -0.553   8.723  0.6889 -0.0446 -0.4239
  750MOL0     H 1249   1.839   0.326   9.063  1.4349  1.1836  0.8857
  750MOL0     H 1250   1.861   0.488   8.884 -1.2558 -1.3129 -0.5864
  751MOL0     O 1251   7.099   2.605   6.847 -0.4786  0.2634  0.1499
  751MOL0     C 1252   7.146   2.686   6.923 -0.2281 -0.2617  0.3317
  751MOL0     O 1253   7.256   2.774   6.897 -0.3589  1.1031 -0.7488
  751MOL0     C 1254   7.318   2.771   6.774  0.8708  0.6312  0.3800
  751MOL0     C 1255   7.335   2.662   6.687  0.4684 -0.0233  0.6414
  751MOL0     C 1256   7.383   2.689   6.558  0.3637  0.6022  0.5213
  751MOL0     C 1257   7.429   2.814   6.519  0.4301  0.1577  0.8688
  751MOL0     O 1258   7.488   2.810   6.392 -0.8377 -0.1988 -0.0261
  751MOL0     C 1259   7.606   2.888   6.384  0.1963 -0.1549 -0.2575
  751MOL0     C 1260   7.641   2.911   6.242 -0.3143 -1.2384  0.5398
  751MOL0     C 1261   7.768   3.011   6.246 -0.6004  0.4128  0.4368
  751MOL0     C 1262   7.836   3.041   6.104  0.2989 -0.8757  0.0062
  751MOL0     C 1263   7.968   3.123   6.130  0.0375 -0.7519  0.8445
  751MOL0     C 1264   8.043   3.165   5.997  0.4798 -0.0344 -0.2491
  751MOL0     C 1265   8.163   3.256   6.019  0.5565 -0.2048 -0.3312
  751MOL0     C 1266   8.291   3.184   5.985  1.0399  0.3580  0.0598
  751MOL0     N 1267   8.417   3.256   6.014  0.1329  0.4584 -0.0757
  751MOL0     C 1268   8.482   3.356   5.942 -0.7282  0.3362 -0.2684
  751MOL0     C 1269   8.557   3.424   6.032  0.5122 -0.7232 -0.8130
  751MOL0     C 1270   8.618   3.563   6.004  0.3347  0.2712  0.2186
  751MOL0     C 1271   8.766   3.535   5.965  0.2489  0.1263 -0.2545
  751MOL0     C 1272   8.785   3.438   5.851 -0.6390  0.1132  0.5016
  751MOL0     C 1273   8.726   3.491   5.713  0.7923 -0.0360 -0.0713
  751MOL0     O 1274   8.757   3.632   5.699  0.0284  0.0003  0.3101
  751MOL0     C 1275   8.880   3.669   5.651 -0.4458 -0.5620 -0.3507
  751MOL0     C 1276   8.984   3.610   5.571  1.0690  0.7812  0.2459
  751MOL0     C 1277   9.106   3.672   5.546  0.7764 -0.2134  0.6581
  751MOL0     C 1278   9.214   3.599   5.455 -0.1712 -0.9398 -0.0189
  751MOL0     C 1279   9.130   3.795   5.609  0.2468  0.4837  0.2961
  751MOL0     C 1280   9.269   3.855   5.616  0.6787 -0.0022  0.4401
  751MOL0     O 1281   9.281   3.980   5.675  0.3484  0.0236 -0.0623
  751MOL0     C 1282   9.399   4.030   5.721 -1.0923 -0.5236 -0.7680
  751MOL0     C 1283   9.494   3.953   5.785 -0.3320 -0.6604 -0.0495
  751MOL0     C 1284   9.613   4.012   5.842  0.0036  0.6919  0.4919
  751MOL0     C 1285   9.632   4.145   5.842 -0.0758 -1.1263 -0.1680
  751MOL0     O 1286   9.753   4.190   5.878 -0.1527 -0.0467 -0.8093
  751MOL0     C 1287   9.765   4.316   5.930 -0.2737  1.0660  0.5449
  751MOL0     C 1288   9.871   4.323   6.040 -0.1657  1.1057  0.4928
  751MOL0     C 1289   9.878   4.204   6.127  0.6340 -0.3437 -0.5284
  751MOL0     C 1290   9.753   4.194   6.223 -0.2240 -0.8878 -0.1827
  751MOL0     C 1291   9.732   4.048   6.250  0.0246  0.2112  0.6666
  751MOL0     C 1292   9.639   4.013   6.372  0.7299 -1.4849  1.1206
  751MOL0     C 1293   9.703   4.032   6.513 -0.3727  0.7062 -0.4323
  751MOL0     C 1294   9.587   4.017   6.610 -0.4372  0.5319 -0.8027
  751MOL0    Cl 1295   9.637   4.070   6.770 -0.2586 -0.3162 -0.1187
  751MOL0     C 1296   9.530   4.223   5.779  0.8145  0.3520  0.0428
  751MOL0     C 1297   9.420   4.166   5.718 -0.0695  1.0723 -0.0438
  751MOL0     O 1298   9.370   3.809   5.561  0.0180 -0.2706  0.5454
  751MOL0     C 1299   9.032   3.861   5.690 -0.3408 -0.1712  0.1523
  751MOL0     C 1300   8.910   3.800   5.707 -1.1298 -0.6968 -0.0323
  751MOL0     N 1301   8.560   3.349   6.156  0.0791  0.5891  0.5837
  751MOL0     N 1302   8.478   3.249   6.135  0.9333  0.2809 -0.2063
  751MOL0     C 1303   7.406   2.922   6.600 -0.6207  0.1397  0.4250
  751MOL0     C 1304   7.356   2.899   6.734  0.2169 -0.2749  0.0992
  751MOL0     C 1305   7.080   2.711   7.055  0.1393  0.3869  0.1097
  751MOL0     C 1306   7.071   2.836   7.112 -0.0863 -0.3313  0.0894
  751MOL0     C 1307   6.990   2.866   7.225  0.2623 -0.5338 -0.7565
  751MOL0     C 1308   6.909   2.767   7.281  0.3680  0.1642 -0.8276
  751MOL0     O 1309   6.824   2.814   7.379  0.4123  0.4645  0.0725
  751MOL0     C 1310   6.723   2.733   7.440 -0.3215  0.0449  0.2034
  751MOL0     C 1311   6.724   2.776   7.586 -0.2548  0.0522 -0.2268
  751MOL0     C 1312   6.633   2.688   7.672  0.2576  0.8081 -0.2835
  751MOL0     C 1313   6.633   2.721   7.818  0.0775 -0.1837  0.0000
  751MOL0     C 1314   6.571   2.602   7.879  0.0547 -0.0273  0.5442
  751MOL0     C 1315   6.520   2.501   7.929 -0.5134  0.4647 -1.1264
  751MOL0     C 1316   6.910   2.636   7.218  0.0134  0.0865  0.2371
  751MOL0     C 1317   6.992   2.609   7.111  0.4653  0.4279 -0.2099
  751MOL0     H 1318   7.310   2.558   6.707  0.3629 -0.6659 -2.3103
  751MOL0     H 1319   7.408   2.606   6.493 -3.2114 -1.4626  1.5482
  751MOL0     H 1320   7.597   2.985   6.434 -0.8709 -0.1955 -0.3426
  751MOL0     H 1321   7.689   2.828   6.421  2.5638  2.2307 -1.4157
  751MOL0     H 1322   7.658   2.836   6.165  0.0448 -0.7794  0.1652
  751MOL0     H 1323   7.561   2.958   6.185  1.6576 -2.0203 -3.2220
  751MOL0     H 1324   7.757   3.102   6.306 -0.9557  0.9088 -0.3579
  751MOL0     H 1325   7.855   2.961   6.290 -0.3467 -1.2584 -1.7581
  751MOL0     H 1326   7.867   2.949   6.054  0.3312  0.0421 -1.7750
  751MOL0     H 1327   7.762   3.091   6.041  1.9171  1.7436  0.0198
  751MOL0     H 1328   7.947   3.206   6.198  1.1419 -0.0611  0.3689
  751MOL0     H 1329   8.037   3.059   6.185 -1.1002 -0.6746  2.4251
  751MOL0     H 1330   8.073   3.084   5.929  0.7008  1.6468 -2.2287
  751MOL0     H 1331   7.969   3.214   5.933  1.1339 -0.9050 -1.7290
  751MOL0     H 1332   8.155   3.347   5.959 -2.5592  0.1740  0.4436
  751MOL0     H 1333   8.175   3.282   6.125  2.9591  2.2902 -1.1342
  751MOL0     H 1334   8.296   3.168   5.877  0.4711  0.5265  0.0040
  751MOL0     H 1335   8.281   3.092   6.043 -3.1352  1.6741  1.8175
  751MOL0     H 1336   8.446   3.399   5.849 -5.3258 -1.6581  0.3351
  751MOL0     H 1337   8.573   3.616   5.920  2.1573  1.1584 -0.2660
  751MOL0     H 1338   8.618   3.627   6.092  0.8180 -2.4367  2.3017
  751MOL0     H 1339   8.816   3.492   6.052  1.6207 -0.3584 -1.2525
  751MOL0     H 1340   8.822   3.622   5.930  0.2647 -0.6688 -2.3468
  751MOL0     H 1341   8.749   3.336   5.870  5.0136 -1.9712  2.2624
  751MOL0     H 1342   8.893   3.430   5.833 -0.2130  0.5596  2.5499
  751MOL0     H 1343   8.620   3.468   5.699  0.5410  0.5208  0.8454
  751MOL0     H 1344   8.776   3.435   5.633  2.2713 -1.7285  1.9388
  751MOL0     H 1345   8.982   3.507   5.539  0.6776 -0.2462  3.2797
  751MOL0     H 1346   9.272   3.537   5.524 -1.8922 -2.7912 -0.1608
  751MOL0     H 1347   9.169   3.533   5.381 -0.4248 -0.7459 -0.0384
  751MOL0     H 1348   9.266   3.679   5.402 -0.2277 -0.6011  0.4328
  751MOL0     H 1349   9.490   3.845   5.786 -1.6859 -0.6343 -0.6857
  751MOL0     H 1350   9.681   3.942   5.890  0.8088  0.1822 -1.3051
  751MOL0     H 1351   9.807   4.386   5.858  1.2472  0.3157  0.6513
  751MOL0     H 1352   9.665   4.340   5.968 -1.4946 -4.5693  1.9686
  751MOL0     H 1353   9.962   4.347   5.986  0.0074 -1.2306 -0.3490
  751MOL0     H 1354   9.836   4.402   6.107 -0.4946  3.3775 -2.1868
  751MOL0     H 1355   9.968   4.221   6.187  1.8037 -3.0483 -1.3370
  751MOL0     H 1356   9.895   4.114   6.068  1.0564 -0.2601 -0.5379
  751MOL0     H 1357   9.781   4.250   6.312 -1.5674  0.3945 -0.5292
  751MOL0     H 1358   9.656   4.227   6.184 -0.9542 -1.3317  1.2142
  751MOL0     H 1359   9.820   3.983   6.259  0.6864  0.6994 -1.6347
  751MOL0     H 1360   9.683   4.012   6.159  0.6043 -1.0929  0.8435
  751MOL0     H 1361   9.542   4.063   6.366 -1.2756 -5.0606  0.9624
  751MOL0     H 1362   9.610   3.908   6.356 -3.5742 -0.4956  1.0157
  751MOL0     H 1363   9.750   4.131   6.522  2.2586 -0.5720  0.8778
  751MOL0     H 1364   9.783   3.962   6.538  1.7395  2.3710 -2.1383
  751MOL0     H 1365   9.566   3.910   6.617 -0.8178  0.6927  1.2326
  751MOL0     H 1366   9.502   4.065   6.562 -0.3907  0.3751 -1.0429
  751MOL0     H 1367   9.545   4.330   5.776 -2.4989  1.3741  5.8332
  751MOL0     H 1368   9.350   4.223   5.658 -1.5931 -5.1879 -5.4584
  751MOL0     H 1369   9.047   3.960   5.731 -1.3288 -0.5631  1.5196
  751MOL0     H 1370   8.830   3.862   5.746 -1.6696 -2.9914  2.9320
  751MOL0     H 1371   7.441   3.020   6.569 -3.9731  0.8330 -1.6608
  751MOL0     H 1372   7.335   2.985   6.798 -1.1190  0.3142 -1.0650
  751MOL0     H 1373   7.111   2.927   7.068 -1.1493 -0.3279 -0.9343
  751MOL0     H 1374   6.972   2.962   7.272  3.0553 -0.8791  1.2975
  751MOL0     H 1375   6.622   2.751   7.402 -1.4538  0.0343  2.9658
  751MOL0     H 1376   6.752   2.627   7.440 -2.9850 -0.7797  0.0853
  751MOL0     H 1377   6.687   2.878   7.591  2.8076  1.3207 -0.8943
  751MOL0     H 1378   6.824   2.770   7.630 -0.0608 -2.3751 -0.8356
  751MOL0     H 1379   6.664   2.583   7.663  3.9858  1.4764  2.4473
  751MOL0     H 1380   6.529   2.693   7.639 -0.2183 -0.8474  0.8221
  751MOL0     H 1381   6.581   2.814   7.842  1.0907  0.3862  0.0569
  751MOL0     H 1382   6.733   2.739   7.859 -0.9622  1.5477  1.9779
  751MOL0     H 1383   6.506   2.416   7.994  1.4002  0.0236 -1.2499
  751MOL0     H 1384   6.841   2.556   7.246 -1.3836  1.0883 -0.2259
  751MOL0     H 1385   6.987   2.524   7.044  0.0488  0.8172 -0.6750
  752MOL0     O 1386   8.437   8.078  10.188 -0.1899  0.5470 -0.2218
  752MOL0     C 1387   8.398   7.968  10.169 -0.1598 -0.4033  0.5173
  752MOL0     O 1388   8.271   7.927  10.150 -0.2998 -0.4177  0.1845
  752MOL0     C 1389   8.175   8.001  10.197 -0.0750  0.9676 -0.1307
  752MOL0     C 1390   8.162   8.145  10.199 -0.0606  1.1928 -0.5451
  752MOL0     C 1391   8.050   8.207  10.255 -0.1966 -0.0964  0.2143
  752MOL0     C 1392   7.942   8.132  10.309 -0.6776  1.0666 -0.2050
  752MOL0     O 1393   7.835   8.187  10.381  0.1309 -0.6711 -0.5432
  752MOL0     C 1394   7.851   8.325  10.431  0.0376  0.0074 -0.4563
  752MOL0     C 1395   7.948   8.337  10.543 -1.1076  0.3596 -0.3327
  752MOL0     C 1396   7.896   8.281  10.682  0.9070 -0.3443  0.3701
  752MOL0     C 1397   7.888   8.133  10.678  0.4518  0.2283 -0.3009
  752MOL0     C 1398   7.845   8.062  10.808 -0.2860 -0.9641 -0.1328
  752MOL0     C 1399   7.719   8.115  10.878 -0.0973  0.6155  1.0458
  752MOL0     C 1400   7.721   8.043  11.022  0.0434  0.0540 -0.5376
  752MOL0     C 1401   7.732   8.141  11.146  0.4383 -1.0002  0.2316
  752MOL0     N 1402   7.611   8.225  11.158 -1.7982  0.1653 -1.4802
  752MOL0     C 1403   7.616   8.353  11.182  0.0204 -1.0865  1.3506
  752MOL0     C 1404   7.488   8.401  11.203  0.7879  0.6734 -0.3118
  752MOL0     C 1405   7.444   8.538  11.250  0.1762  0.7916  1.4544
  752MOL0     C 1406   7.344   8.601  11.145 -0.9527  1.0247 -0.4209
  752MOL0     C 1407   7.298   8.745  11.173  0.6763  0.1796  0.2278
  752MOL0     C 1408   7.405   8.852  11.211 -0.2209 -1.1245 -0.3243
  752MOL0     O 1409   7.500   8.862  11.105 -0.0477  0.4729 -0.0398
  752MOL0     C 1410   7.479   8.926  10.985  0.1896  0.2206  0.6677
  752MOL0     C 1411   7.522   9.057  10.971  1.3594 -0.2094 -0.2258
  752MOL0     C 1412   7.503   9.135  10.857 -0.4315 -0.0829 -1.1109
  752MOL0     C 1413   7.553   9.270  10.875  0.4078  0.1221  0.1286
  752MOL0     C 1414   7.453   9.074  10.746  0.7994  0.3791  0.4481
  752MOL0     C 1415   7.429   9.138  10.618 -0.3838 -0.0225  0.1108
  752MOL0     O 1416   7.328   9.094  10.535 -0.8758  0.8237  0.7007
  752MOL0     C 1417   7.341   9.127  10.406  0.3756 -0.0771  0.9560
  752MOL0     C 1418   7.457   9.125  10.328  0.6519 -1.0540 -0.3083
  752MOL0     C 1419   7.458   9.184  10.207  0.8547  0.8944  0.1411
  752MOL0     C 1420   7.346   9.236  10.149 -0.4447  0.9275  1.0419
  752MOL0     O 1421   7.327   9.280  10.019 -0.3222  0.3059 -0.2820
  752MOL0     C 1422   7.449   9.290   9.935  0.0957 -0.3335 -0.7060
  752MOL0     C 1423   7.402   9.370   9.811  0.9184  0.7418 -0.0460
  752MOL0     C 1424   7.379   9.518   9.826  0.8865 -0.3025 -0.0680
  752MOL0     C 1425   7.378   9.589   9.682  1.0450 -0.4252 -0.8988
  752MOL0     C 1426   7.319   9.729   9.686 -0.1516 -1.0889 -0.5337
  752MOL0     C 1427   7.334   9.792   9.550 -0.3099  0.0327 -0.0129
  752MOL0     C 1428   7.207   9.749   9.475  0.7107  0.2389 -0.4750
  752MOL0     C 1429   7.207   9.820   9.341 -0.0201  0.4242 -0.8393
  752MOL0    Cl 1430   7.209   9.996   9.343  0.2566  0.0015 -0.2127
  752MOL0     C 1431   7.227   9.235  10.226 -0.1538  0.1966  0.1280
  752MOL0     C 1432   7.225   9.175  10.357  0.1586 -0.6131  0.5630
  752MOL0     O 1433   7.512   9.228  10.592 -0.1829 -0.1749  0.3939
  752MOL0     C 1434   7.405   8.950  10.749  0.6476 -0.5576 -0.2668
  752MOL0     C 1435   7.411   8.875  10.874  0.8459  0.3532 -0.2552
  752MOL0     N 1436   7.412   8.285  11.192  0.3357  0.4432 -0.6364
  752MOL0     N 1437   7.487   8.183  11.160  0.0519  0.1892  0.4570
  752MOL0     C 1438   7.959   7.988  10.309  0.1705  0.3007  1.4709
  752MOL0     C 1439   8.070   7.929  10.247 -1.0713  0.3488 -0.3328
  752MOL0     C 1440   8.502   7.883  10.121 -0.2503  0.1663 -0.6769
  752MOL0     C 1441   8.482   7.767  10.041 -0.4489 -0.5255  0.0350
  752MOL0     C 1442   8.588   7.685   9.995 -0.2847  0.0018 -0.1279
  752MOL0     C 1443   8.719   7.699  10.042 -0.4776  0.7922  0.5258
  752MOL0     O 1444   8.821   7.605  10.012 -0.3820 -0.2035 -0.4310
  752MOL0     C 1445   8.813   7.471   9.978  0.0678  0.5520  0.1384
  752MOL0     C 1446   8.724   7.394  10.082 -0.1868 -0.7620  0.5427
  752MOL0     C 1447   8.726   7.237  10.072 -0.9167  0.5419 -0.6025
  752MOL0     C 1448   8.702   7.179   9.942 -0.3059  0.4442  0.4486
  752MOL0     C 1449   8.568   7.124   9.934  0.2648  0.2984 -0.1183
  752MOL0     C 1450   8.467   7.049   9.923  0.4722  0.2698 -0.4571
  752MOL0     C 1451   8.741   7.795  10.135  0.9408 -0.8536 -0.1534
  752MOL0     C 1452   8.638   7.892  10.172  0.2488 -0.5819  0.0428
  752MOL0     H 1453   8.233   8.215  10.154 -1.3619  1.6478 -1.9925
  752MOL0     H 1454   8.046   8.315  10.245  2.8229  0.1181  0.3453
  752MOL0     H 1455   7.870   8.389  10.344  2.0254 -1.8780 -1.5177
  752MOL0     H 1456   7.755   8.360  10.470 -0.7356  1.9207 -3.6823
  752MOL0     H 1457   8.043   8.287  10.520 -2.5884 -1.6993 -2.4401
  752MOL0     H 1458   7.981   8.440  10.559  0.9967 -0.3287  0.0876
  752MOL0     H 1459   7.950   8.321  10.769 -1.3305  0.9188  1.2698
  752MOL0     H 1460   7.792   8.315  10.688  0.1269 -2.5040 -0.0818
  752MOL0     H 1461   7.809   8.091  10.616  0.0184 -1.6390  1.4091
  752MOL0     H 1462   7.986   8.086  10.662  1.3506  0.6251  3.1040
  752MOL0     H 1463   7.840   7.954  10.790  2.4953 -1.5934  2.1293
  752MOL0     H 1464   7.919   8.082  10.886 -1.5254 -2.6176  1.5555
  752MOL0     H 1465   7.708   8.224  10.883 -0.9116  0.7392 -1.8884
  752MOL0     H 1466   7.635   8.071  10.823 -2.1740  1.8247  3.0586
  752MOL0     H 1467   7.632   7.981  11.037 -0.2867  0.8623  1.1387
  752MOL0     H 1468   7.816   7.989  11.036  1.4279  2.0348 -1.8371
  752MOL0     H 1469   7.820   8.206  11.139 -0.5720  0.3017 -4.8668
  752MOL0     H 1470   7.739   8.081  11.237  2.3680  1.0495  1.5222
  752MOL0     H 1471   7.701   8.420  11.170 -0.6403 -0.4269  0.2265
  752MOL0     H 1472   7.400   8.545  11.349 -1.7117 -4.0064  1.1886
  752MOL0     H 1473   7.520   8.617  11.253 -2.3604  3.3630  2.1273
  752MOL0     H 1474   7.252   8.544  11.130  0.5642 -1.6966 -0.1023
  752MOL0     H 1475   7.384   8.588  11.044  0.8410 -2.6687  0.6097
  752MOL0     H 1476   7.233   8.750  11.261 -0.8483  1.4442 -0.9065
  752MOL0     H 1477   7.239   8.779  11.087  1.4226 -1.9034 -1.1864
  752MOL0     H 1478   7.455   8.847  11.308  0.2101  0.4164 -0.4405
  752MOL0     H 1479   7.356   8.950  11.206  2.1529  0.0994 -1.7200
  752MOL0     H 1480   7.578   9.095  11.056 -0.9766  1.0397  0.8524
  752MOL0     H 1481   7.466   9.324  10.836  0.2045  1.8399  2.6954
  752MOL0     H 1482   7.560   9.301  10.980  0.5888 -2.1829  0.8666
  752MOL0     H 1483   7.640   9.281  10.809  0.2853 -2.0946 -0.4897
  752MOL0     H 1484   7.547   9.072  10.357  0.6564 -0.5849  0.5518
  752MOL0     H 1485   7.548   9.172  10.148 -1.4567  0.0612 -3.5829
  752MOL0     H 1486   7.524   9.346   9.991 -1.8227  0.1388  1.6045
  752MOL0     H 1487   7.482   9.186   9.923  3.1438  0.5103 -0.4408
  752MOL0     H 1488   7.478   9.371   9.732  0.4450  3.7913 -0.5776
  752MOL0     H 1489   7.316   9.314   9.773  0.1479  0.6669  1.7339
  752MOL0     H 1490   7.453   9.559   9.895  0.1216 -1.0799  1.2561
  752MOL0     H 1491   7.282   9.537   9.873  2.8298  1.6986  3.5231
  752MOL0     H 1492   7.466   9.572   9.620  0.4089 -1.9247 -1.4296
  752MOL0     H 1493   7.302   9.535   9.625  1.4968 -0.8253 -1.1215
  752MOL0     H 1494   7.386   9.783   9.753  0.7396 -1.8627 -0.7773
  752MOL0     H 1495   7.222   9.735   9.736  0.1286  1.8375 -0.1259
  752MOL0     H 1496   7.340   9.902   9.552  1.8457 -0.0386  1.1985
  752MOL0     H 1497   7.421   9.763   9.491 -1.3809 -1.1733 -1.0670
  752MOL0     H 1498   7.114   9.778   9.524  0.1415  0.0805 -1.4515
  752MOL0     H 1499   7.201   9.641   9.463  0.2077  0.0107  1.4365
  752MOL0     H 1500   7.119   9.783   9.287  1.3297 -2.2404 -1.3814
  752MOL0     H 1501   7.292   9.776   9.289  1.0560  0.6734  0.6526
  752MOL0     H 1502   7.141   9.291  10.191 -0.5040 -0.2867  0.2033
  752MOL0     H 1503   7.141   9.187  10.424  0.7135  1.1404  1.0099
  752MOL0     H 1504   7.354   8.900  10.667 -0.8805 -3.5523  2.2972
  752MOL0     H 1505   7.367   8.776  10.876  1.4878 -0.1427 -3.6570
  752MOL0     H 1506   7.875   7.922  10.325 -0.2436  0.4648  0.1511
  752MOL0     H 1507   8.065   7.822  10.234 -1.6159 -0.0588  2.5712
  752MOL0     H 1508   8.386   7.755   9.992  1.0309  2.3738 -4.2346
  752MOL0     H 1509   8.574   7.606   9.922 -5.0152 -0.8148  1.3375
  752MOL0     H 1510   8.774   7.458   9.877  2.1301 -1.7392 -0.4536
  752MOL0     H 1511   8.914   7.432   9.991  1.3187  2.9731 -1.5608
  752MOL0     H 1512   8.627   7.443  10.096  0.3495 -0.2981  3.0957
  752MOL0     H 1513   8.776   7.420  10.175 -1.3222  1.4395  0.6363
  752MOL0     H 1514   8.662   7.219  10.159  0.3569  1.1097  0.5035
  752MOL0     H 1515   8.825   7.207  10.107 -0.8932  0.1220 -1.0289
  752MOL0     H 1516   8.766   7.090   9.933  2.3620  2.4409 -2.8176
  752MOL0     H 1517   8.719   7.256   9.867 -2.7496  1.3690  0.7511
  752MOL0     H 1518   8.402   6.966   9.946 -0.0711  0.8036 -0.0427
  752MOL0     H 1519   8.841   7.801  10.176  0.5706  0.0761  0.6312
  752MOL0     H 1520   8.678   7.954  10.251  2.7019 -4.1312  1.8466
  753MOL0     O 1521   9.308   3.894   6.686 -0.2159 -0.4712 -0.8074
  753MOL0     C 1522   9.250   3.962   6.604 -0.2513 -0.1397  0.1913
  753MOL0     O 1523   9.232   4.099   6.605 -0.2820 -0.2736  0.0478
  753MOL0     C 1524   9.273   4.167   6.712  0.3225 -0.3881  0.3652
  753MOL0     C 1525   9.237   4.137   6.844 -0.7341  0.3226 -0.4980
  753MOL0     C 1526   9.267   4.233   6.949  0.7571 -0.0522  0.7911
  753MOL0     C 1527   9.332   4.352   6.923 -0.7713  0.5902 -0.1990
  753MOL0     O 1528   9.373   4.418   7.033  0.1489 -0.0251  0.3781
  753MOL0     C 1529   9.472   4.505   7.015 -0.1083  0.9189 -0.2040
  753MOL0     C 1530   9.481   4.587   7.151 -1.3796  0.3337  0.5403
  753MOL0     C 1531   9.356   4.671   7.174 -0.3348  0.3818 -0.1503
  753MOL0     C 1532   9.392   4.773   7.277  0.2568 -0.7252 -0.6574
  753MOL0     C 1533   9.265   4.835   7.331  0.6383  0.3837  0.0416
  753MOL0     C 1534   9.283   4.924   7.458  0.1319 -1.7734 -0.0946
  753MOL0     C 1535   9.134   4.975   7.494 -1.5920  0.4941 -1.2039
  753MOL0     C 1536   9.055   5.052   7.389 -0.8189 -0.5129  0.3735
  753MOL0     N 1537   8.924   5.091   7.439  0.4024  0.4231  0.1247
  753MOL0     C 1538   8.833   4.993   7.478  0.1116  0.9130 -0.8998
  753MOL0     C 1539   8.716   5.057   7.503 -0.4274  0.2819 -0.5822
  753MOL0     C 1540   8.584   4.999   7.554 -0.6528 -0.2604  0.5369
  753MOL0     C 1541   8.478   5.112   7.559 -0.4644  0.7686 -0.1396
  753MOL0     C 1542   8.404   5.143   7.431  0.0650  0.0984  0.7687
  753MOL0     C 1543   8.496   5.189   7.314  0.0820 -0.4798  0.5625
  753MOL0     O 1544   8.407   5.250   7.220  0.3033  0.6470 -0.1225
  753MOL0     C 1545   8.467   5.318   7.108  0.5226 -0.2898  0.0242
  753MOL0     C 1546   8.604   5.324   7.062 -0.3531  0.9259  0.5689
  753MOL0     C 1547   8.634   5.371   6.935 -0.0153 -0.0070 -0.5825
  753MOL0     C 1548   8.774   5.360   6.892 -0.0639  0.2686 -0.8837
  753MOL0     C 1549   8.529   5.428   6.855  0.3294  0.6862  1.1371
  753MOL0     C 1550   8.553   5.491   6.714 -0.3530  0.1557 -0.6510
  753MOL0     O 1551   8.443   5.494   6.635  0.1821  0.4611  0.4251
  753MOL0     C 1552   8.457   5.465   6.506  0.1412 -0.1715  0.8914
  753MOL0     C 1553   8.434   5.338   6.446  0.9233  0.9006 -0.3737
  753MOL0     C 1554   8.406   5.323   6.304 -0.1276 -0.0562  0.7992
  753MOL0     C 1555   8.422   5.436   6.223 -0.4942 -0.1532  0.1339
  753MOL0     O 1556   8.396   5.412   6.089 -0.5654  0.8176 -0.7224
  753MOL0     C 1557   8.290   5.494   6.030  0.0359  1.2523 -0.1281
  753MOL0     C 1558   8.200   5.399   5.962 -0.0298 -0.0207 -0.8622
  753MOL0     C 1559   8.255   5.269   5.911 -0.4525 -0.0011  0.3551
  753MOL0     C 1560   8.325   5.290   5.776 -0.4229 -0.3411 -0.4970
  753MOL0     C 1561   8.437   5.182   5.769 -1.3160  0.4064  1.2804
  753MOL0     C 1562   8.514   5.181   5.633  0.1461 -0.6907 -0.0889
  753MOL0     C 1563   8.430   5.135   5.511 -0.5017 -0.3419 -0.1915
  753MOL0     C 1564   8.399   4.984   5.509 -0.5653 -0.4524  1.0033
  753MOL0    Cl 1565   8.305   4.929   5.365 -0.0817  0.5846  0.2155
  753MOL0     C 1566   8.452   5.556   6.281 -0.1513 -0.1436  0.0465
  753MOL0     C 1567   8.468   5.576   6.418 -0.8585 -0.0264  0.0744
  753MOL0     O 1568   8.663   5.524   6.678  0.4749 -0.3032 -0.1542
  753MOL0     C 1569   8.400   5.432   6.908  0.0503  0.1614  0.3566
  753MOL0     C 1570   8.368   5.383   7.033 -0.2048  0.6183 -0.3155
  753MOL0     N 1571   8.744   5.192   7.484  0.5784 -1.5824 -0.1832
  753MOL0     N 1572   8.871   5.212   7.450  0.7637 -0.4082 -0.6486
  753MOL0     C 1573   9.364   4.374   6.787 -0.5760  0.0690 -0.9634
  753MOL0     C 1574   9.345   4.285   6.688  0.5492 -0.1355 -0.3398
  753MOL0     C 1575   9.176   3.897   6.492 -0.5844 -0.2479  0.7690
  753MOL0     C 1576   9.122   3.971   6.388 -0.6600  0.6303  0.3680
  753MOL0     C 1577   9.069   3.907   6.275  0.3743  0.4309 -0.6709
  753MOL0     C 1578   9.065   3.769   6.269  0.1041 -0.1348  0.4716
  753MOL0     O 1579   9.007   3.715   6.167  0.0660  0.2710 -0.4198
  753MOL0     C 1580   9.095   3.681   6.061 -0.7121  0.1263  0.7689
  753MOL0     C 1581   9.142   3.530   6.081  0.3901 -0.2133  0.0344
  753MOL0     C 1582   9.200   3.470   5.946  0.2359  0.1853  0.9766
  753MOL0     C 1583   9.301   3.564   5.871 -0.4700 -0.1610 -0.1971
  753MOL0     C 1584   9.404   3.615   5.959 -0.2319  0.0840 -0.5097
  753MOL0     C 1585   9.474   3.657   6.044  0.0233 -0.4147  0.3726
  753MOL0     C 1586   9.097   3.701   6.388  0.3640 -0.3680  0.7231
  753MOL0     C 1587   9.166   3.755   6.493  0.0995  0.2511 -0.1398
  753MOL0     H 1588   9.170   4.059   6.880 -1.6495  2.2586  2.2266
  753MOL0     H 1589   9.224   4.231   7.049 -1.0651 -1.3675  0.0265
  753MOL0     H 1590   9.561   4.442   7.000 -1.3545 -0.4190 -2.5265
  753MOL0     H 1591   9.463   4.576   6.933 -1.2988  0.2403 -0.6929
  753MOL0     H 1592   9.501   4.513   7.229 -2.1852  0.1370  0.5629
  753MOL0     H 1593   9.569   4.652   7.149 -1.3457  0.2773 -0.4859
  753MOL0     H 1594   9.329   4.710   7.075 -2.5769  0.6906  0.5342
  753MOL0     H 1595   9.266   4.616   7.201 -0.4723  1.4664  1.7256
  753MOL0     H 1596   9.450   4.730   7.359 -1.2167  2.7383  2.5273
  753MOL0     H 1597   9.456   4.853   7.237 -0.8149 -0.0041 -0.9930
  753MOL0     H 1598   9.230   4.891   7.244 -1.3841 -0.2123  0.4176
  753MOL0     H 1599   9.192   4.756   7.351  1.4987 -1.2997 -2.8052
  753MOL0     H 1600   9.335   4.877   7.542 -0.2007  2.7345  2.9907
  753MOL0     H 1601   9.343   5.010   7.427 -0.1718 -1.3826  0.3968
  753MOL0     H 1602   9.092   4.877   7.513  2.1533 -1.4400 -1.9100
  753MOL0     H 1603   9.139   5.017   7.595 -0.0543  0.1773 -1.1229
  753MOL0     H 1604   9.026   4.991   7.303 -0.9698  2.3186 -1.7257
  753MOL0     H 1605   9.104   5.140   7.346 -1.6686  0.5897  1.5950
  753MOL0     H 1606   8.854   4.887   7.485 -1.7125  0.5318 -0.7811
  753MOL0     H 1607   8.551   4.915   7.493 -2.2070  0.9034 -0.2937
  753MOL0     H 1608   8.604   4.961   7.654 -0.7220 -2.7284 -0.3017
  753MOL0     H 1609   8.538   5.202   7.580  2.6727 -0.5720 -2.5687
  753MOL0     H 1610   8.408   5.111   7.643 -0.7298 -2.1697 -0.3085
  753MOL0     H 1611   8.334   5.224   7.451  1.2110  1.1812  0.4826
  753MOL0     H 1612   8.339   5.056   7.413 -0.7299  0.3001  2.4405
  753MOL0     H 1613   8.551   5.099   7.285 -0.0048 -0.7173  1.1078
  753MOL0     H 1614   8.561   5.270   7.348  1.1476 -2.1582  2.7797
  753MOL0     H 1615   8.677   5.276   7.126 -3.0420  1.9066  4.7936
  753MOL0     H 1616   8.787   5.304   6.799  1.2851  0.8442 -1.0673
  753MOL0     H 1617   8.817   5.461   6.888  0.6889  0.3876  3.9919
  753MOL0     H 1618   8.840   5.309   6.963  0.7466  1.5877 -0.6595
  753MOL0     H 1619   8.427   5.251   6.511  0.1327  1.0703 -0.2207
  753MOL0     H 1620   8.386   5.219   6.280 -0.3657  0.0739  0.4212
  753MOL0     H 1621   8.237   5.557   6.102 -0.4012 -0.7251  1.3959
  753MOL0     H 1622   8.338   5.569   5.966  0.7122  1.2430  0.3519
  753MOL0     H 1623   8.130   5.353   6.032 -2.5290 -0.4159 -3.4383
  753MOL0     H 1624   8.137   5.441   5.883 -1.8222 -0.4055  0.3027
  753MOL0     H 1625   8.168   5.207   5.887  0.1741 -0.6154 -0.4106
  753MOL0     H 1626   8.324   5.224   5.983 -0.7575 -0.0954  0.5880
  753MOL0     H 1627   8.244   5.273   5.705 -0.0212  0.1432 -1.0781
  753MOL0     H 1628   8.360   5.392   5.760  0.4120 -0.6847 -0.9094
  753MOL0     H 1629   8.399   5.080   5.774 -0.7945  0.1378  0.0745
  753MOL0     H 1630   8.511   5.201   5.848 -1.4780  0.3772  1.4406
  753MOL0     H 1631   8.555   5.280   5.612 -1.4232  0.6068  2.4927
  753MOL0     H 1632   8.608   5.127   5.648  0.3009  0.2178  2.8646
  753MOL0     H 1633   8.482   5.155   5.416  1.2874  1.6001  1.1150
  753MOL0     H 1634   8.340   5.197   5.518 -0.4610 -0.2982 -0.0548
  753MOL0     H 1635   8.341   4.966   5.600 -2.6728  0.9817  0.0218
  753MOL0     H 1636   8.495   4.932   5.514  1.0859  2.3413  0.7956
  753MOL0     H 1637   8.444   5.649   6.225  0.0022  0.4930  1.0619
  753MOL0     H 1638   8.483   5.678   6.452  0.0564  0.3366 -1.3345
  753MOL0     H 1639   8.321   5.471   6.844  0.9160 -1.5711 -1.9031
  753MOL0     H 1640   8.265   5.403   7.060  0.3909  4.3262 -0.3216
  753MOL0     H 1641   9.395   4.475   6.760  2.4633 -0.1731  1.1402
  753MOL0     H 1642   9.372   4.299   6.583 -0.0782  0.9082 -0.3769
  753MOL0     H 1643   9.132   4.079   6.380  3.8608  0.3226 -1.1086
  753MOL0     H 1644   9.043   3.971   6.191  0.8755  2.9176  0.9504
  753MOL0     H 1645   9.058   3.679   5.958  2.6343 -2.8624 -0.5712
  753MOL0     H 1646   9.185   3.742   6.059 -1.2121  0.8631 -0.0180
  753MOL0     H 1647   9.056   3.468   6.107 -2.8472  3.4285 -0.9874
  753MOL0     H 1648   9.210   3.508   6.163 -0.3614 -1.4072  0.3462
  753MOL0     H 1649   9.113   3.446   5.885 -1.3181  1.0087  2.7642
  753MOL0     H 1650   9.248   3.372   5.955 -1.1935 -0.6105  0.2485
  753MOL0     H 1651   9.243   3.639   5.818  0.4286  0.9534  0.3567
  753MOL0     H 1652   9.350   3.514   5.786  3.0942  0.1431  1.4860
  753MOL0     H 1653   9.519   3.695   6.133 -1.2033  1.8248  0.0946
  753MOL0     H 1654   9.069   3.596   6.397 -2.7563  0.3636  0.7635
  753MOL0     H 1655   9.213   3.703   6.576  1.9238  2.8553  0.5595
  754MOL0     O 1656  10.327   9.023  11.284  0.4817  0.3654  0.3464
  754MOL0     C 1657  10.331   9.134  11.225  0.3596 -0.4825 -0.6588
  754MOL0     O 1658  10.264   9.247  11.269  0.1823  0.1766 -0.2265
  754MOL0     C 1659  10.206   9.277  11.385  0.1152  0.5154 -0.3237
  754MOL0     C 1660  10.179   9.411  11.408 -0.2491  0.3338 -0.5407
  754MOL0     C 1661  10.119   9.453  11.525 -0.0880  0.7282 -0.1876
  754MOL0     C 1662  10.081   9.364  11.625 -1.2912 -0.4163 -0.3184
  754MOL0     O 1663  10.021   9.394  11.744  0.8674 -0.0864 -1.1021
  754MOL0     C 1664   9.951   9.517  11.748  0.0806  0.1784 -0.9336
  754MOL0     C 1665   9.844   9.508  11.862  0.4879  0.4788 -0.2707
  754MOL0     C 1666   9.756   9.384  11.826 -0.2131 -0.4452  0.4833
  754MOL0     C 1667   9.650   9.358  11.923  0.4673 -0.1844  0.1365
  754MOL0     C 1668   9.576   9.223  11.895 -0.0599  0.1840  0.2236
  754MOL0     C 1669   9.472   9.240  11.771 -0.5699  0.1710  0.2461
  754MOL0     C 1670   9.392   9.108  11.732  0.1694 -1.0346 -0.7810
  754MOL0     C 1671   9.241   9.116  11.733  0.3704 -0.9845 -0.9761
  754MOL0     N 1672   9.177   9.188  11.850 -0.2490  0.2644 -0.0575
  754MOL0     C 1673   9.155   9.328  11.849  0.7869 -0.5457 -0.1667
  754MOL0     C 1674   9.156   9.368  11.985  1.0691 -0.4444 -0.1393
  754MOL0     C 1675   9.124   9.510  12.046 -0.2788 -0.0199  0.8328
  754MOL0     C 1676   9.194   9.530  12.177 -0.4568 -0.2822 -0.0823
  754MOL0     C 1677   9.125   9.469  12.299 -0.8420 -0.1032 -0.1423
  754MOL0     C 1678   9.113   9.562  12.413 -1.4558 -0.2664  0.4046
  754MOL0     O 1679   9.241   9.613  12.456 -0.0857  0.4179  0.2572
  754MOL0     C 1680   9.244   9.745  12.503 -0.4045  0.2060  0.1302
  754MOL0     C 1681   9.239   9.778  12.635  0.4764 -0.8885 -0.8108
  754MOL0     C 1682   9.254   9.914  12.673  0.5167 -0.5996  0.0947
  754MOL0     C 1683   9.253   9.946  12.821  0.6640  0.0332  0.2104
  754MOL0     C 1684   9.287  10.020  12.573  0.6775 -0.0304 -0.1018
  754MOL0     C 1685   9.318  10.168  12.593 -1.0597  0.5903  0.1531
  754MOL0     O 1686   9.399  10.220  12.500 -0.0837 -0.3334  0.1967
  754MOL0     C 1687   9.425  10.355  12.489 -0.2716 -0.2975  1.0165
  754MOL0     C 1688   9.537  10.381  12.409 -0.4781  0.2621  0.8987
  754MOL0     C 1689   9.566  10.515  12.379  0.1629  0.0769  0.5841
  754MOL0     C 1690   9.480  10.619  12.428  0.6531  0.5846  0.2483
  754MOL0     O 1691   9.479  10.748  12.395 -0.1709 -0.1281 -0.3338
  754MOL0     C 1692   9.580  10.819  12.470 -0.0367 -1.6077  0.9648
  754MOL0     C 1693   9.516  10.924  12.564 -0.1699  1.0105  0.0898
  754MOL0     C 1694   9.605  10.956  12.678  0.4082  0.1623 -0.3656
  754MOL0     C 1695   9.710  11.049  12.621 -0.0105 -0.6487  0.1153
  754MOL0     C 1696   9.839  10.981  12.607 -1.2357 -0.4167 -0.1450
  754MOL0     C 1697   9.970  11.066  12.588 -0.0302 -0.7161  0.1920
  754MOL0     C 1698  10.097  10.980  12.551 -0.0620 -0.4958 -0.4582
  754MOL0     C 1699  10.221  11.043  12.612  0.8989  0.3282  0.2747
  754MOL0    Cl 1700  10.254  11.197  12.527 -0.3447 -0.2123  0.0453
  754MOL0     C 1701   9.380  10.587  12.509  0.0941  0.1441 -0.8523
  754MOL0     C 1702   9.351  10.456  12.544  0.4100  0.3218  0.1267
  754MOL0     O 1703   9.271  10.218  12.693 -0.2007 -0.6006  0.6692
  754MOL0     C 1704   9.298   9.978  12.444  0.0298  0.4462  0.6120
  754MOL0     C 1705   9.270   9.847  12.402  0.2286 -0.4234  0.7081
  754MOL0     N 1706   9.169   9.253  12.056  0.0096  0.7315 -0.8246
  754MOL0     N 1707   9.172   9.154  11.981 -1.4501 -1.2450 -0.0798
  754MOL0     C 1708  10.111   9.231  11.599  0.1597 -0.3519 -0.5493
  754MOL0     C 1709  10.175   9.192  11.486 -0.0344  0.2692  0.2058
  754MOL0     C 1710  10.424   9.146  11.109 -0.2527  0.0002 -0.2805
  754MOL0     C 1711  10.511   9.047  11.056 -0.5688 -0.6964  0.2380
  754MOL0     C 1712  10.613   9.083  10.968  0.4651 -0.0854  0.6315
  754MOL0     C 1713  10.632   9.205  10.916 -0.1196 -0.1952  0.5176
  754MOL0     O 1714  10.712   9.244  10.808  0.6227  0.6218 -0.6378
  754MOL0     C 1715  10.831   9.164  10.776  0.0721 -0.4029 -0.0355
  754MOL0     C 1716  10.909   9.252  10.668  0.2073 -0.2157  0.5324
  754MOL0     C 1717  10.846   9.257  10.533  0.1804  0.0291 -0.0093
  754MOL0     C 1718  10.951   9.277  10.418  0.1594 -0.1723 -0.2366
  754MOL0     C 1719  11.026   9.398  10.432  0.2511 -0.9042  0.3941
  754MOL0     C 1720  11.091   9.497  10.463  0.8504 -1.1523  0.8597
  754MOL0     C 1721  10.535   9.303  10.943  0.6693  0.1317 -1.1381
  754MOL0     C 1722  10.436   9.269  11.038  0.0528  0.4536 -1.2032
  754MOL0     H 1723  10.203   9.489  11.336 -2.0555  2.2263  0.7796
  754MOL0     H 1724  10.103   9.560  11.537  1.6867  1.3453 -2.5654
  754MOL0     H 1725  10.019   9.601  11.767  1.7012 -1.1218 -0.8373
  754MOL0     H 1726   9.891   9.528  11.657 -0.8832  0.6552 -0.2708
  754MOL0     H 1727   9.892   9.506  11.960 -0.3988  1.1474  0.1923
  754MOL0     H 1728   9.788   9.602  11.870  2.2064  1.3558  2.9593
  754MOL0     H 1729   9.707   9.379  11.728  0.2484 -1.9180  0.3142
  754MOL0     H 1730   9.823   9.298  11.831 -2.0777 -2.3873 -3.1666
  754MOL0     H 1731   9.694   9.349  12.023  0.1434  0.2262  0.3218
  754MOL0     H 1732   9.574   9.434  11.942  0.9297 -0.2825  2.9360
  754MOL0     H 1733   9.649   9.145  11.870 -0.1123  0.3631 -0.5236
  754MOL0     H 1734   9.519   9.194  11.983 -0.6608 -1.3933 -0.6277
  754MOL0     H 1735   9.413   9.324  11.809  1.1018  0.9678  1.1792
  754MOL0     H 1736   9.528   9.256  11.679 -0.7121 -0.0209  0.1258
  754MOL0     H 1737   9.435   9.061  11.643 -0.8408 -1.9150 -0.8144
  754MOL0     H 1738   9.424   9.041  11.813  1.6993 -1.6434 -1.8322
  754MOL0     H 1739   9.203   9.013  11.728 -0.8161 -0.5285 -2.2775
  754MOL0     H 1740   9.203   9.157  11.638 -1.0417 -1.2119 -0.5391
  754MOL0     H 1741   9.146   9.393  11.763  0.4767 -0.9554 -0.4449
  754MOL0     H 1742   9.146   9.589  11.974 -2.8018  1.3209  1.4175
  754MOL0     H 1743   9.018   9.517  12.070 -0.7032 -1.5048 -0.4459
  754MOL0     H 1744   9.195   9.639  12.189  0.3716 -0.5785  4.2258
  754MOL0     H 1745   9.301   9.510  12.175 -0.3597  0.0995  0.6968
  754MOL0     H 1746   9.181   9.378  12.319 -3.0606 -1.6693 -0.6388
  754MOL0     H 1747   9.028   9.425  12.271 -1.3024 -0.1750  1.4964
  754MOL0     H 1748   9.049   9.514  12.488 -0.6596 -2.0605 -0.0018
  754MOL0     H 1749   9.059   9.655  12.392  0.2166  1.2965  2.5894
  754MOL0     H 1750   9.204   9.704  12.706  0.5910 -1.0355 -0.9065
  754MOL0     H 1751   9.235   9.846  12.864 -1.0134  0.3989  0.4230
  754MOL0     H 1752   9.350   9.982  12.856  1.0811 -1.8081  1.0906
  754MOL0     H 1753   9.173  10.018  12.842  0.5177 -0.5370  1.7656
  754MOL0     H 1754   9.601  10.301  12.375  0.3961  0.0066  3.0072
  754MOL0     H 1755   9.657  10.528  12.323  0.3305  0.9224  1.0272
  754MOL0     H 1756   9.636  10.745  12.528  0.6903 -1.0895  0.9291
  754MOL0     H 1757   9.636  10.877  12.397 -0.0297 -2.6268  0.1464
  754MOL0     H 1758   9.491  11.019  12.515  0.2252  1.5826  0.9831
  754MOL0     H 1759   9.426  10.876  12.601 -0.6147  0.9965 -0.9560
  754MOL0     H 1760   9.657  10.872  12.725  0.0049  0.8249  1.3710
  754MOL0     H 1761   9.545  10.999  12.759 -1.7050  1.9559 -2.7217
  754MOL0     H 1762   9.683  11.078  12.519  1.4396 -2.2805 -0.7954
  754MOL0     H 1763   9.722  11.133  12.689 -2.6025  0.9578 -1.2314
  754MOL0     H 1764   9.835  10.924  12.513  0.4092 -0.7410 -0.0635
  754MOL0     H 1765   9.869  10.909  12.684 -1.7221  0.7619  1.1905
  754MOL0     H 1766   9.947  11.121  12.496  1.5010 -1.6588 -0.8184
  754MOL0     H 1767  10.000  11.131  12.671 -1.5824 -1.9568  1.8076
  754MOL0     H 1768  10.087  10.985  12.442 -3.4026  0.7942 -0.1957
  754MOL0     H 1769  10.109  10.878  12.588  3.5192 -0.1801 -0.4124
  754MOL0     H 1770  10.317  10.992  12.595  3.6234  4.1659  2.7282
  754MOL0     H 1771  10.209  11.072  12.716 -1.3242  2.6947 -0.5525
  754MOL0     H 1772   9.307  10.659  12.545 -2.0141 -2.2932  0.0053
  754MOL0     H 1773   9.269  10.443  12.614 -0.1435  1.5292 -0.2487
  754MOL0     H 1774   9.324  10.042  12.360 -0.8812 -1.5969 -1.3389
  754MOL0     H 1775   9.281   9.808  12.302  2.5376 -0.1477  0.7966
  754MOL0     H 1776  10.093   9.153  11.672  0.6602 -0.9310 -1.0320
  754MOL0     H 1777  10.204   9.087  11.486  3.7938  1.1861 -0.1351
  754MOL0     H 1778  10.511   8.944  11.090 -1.2345 -0.6743  0.3097
  754MOL0     H 1779  10.676   9.004  10.928 -3.6780 -2.5916 -1.6645
  754MOL0     H 1780  10.894   9.160  10.865 -0.0444  6.2825  0.9074
  754MOL0     H 1781  10.808   9.064  10.738 -0.1838 -0.9689  1.5608
  754MOL0     H 1782  11.009   9.208  10.655  0.4415 -0.9473  3.8935
  754MOL0     H 1783  10.923   9.355  10.700 -1.0506  1.7599 -4.4075
  754MOL0     H 1784  10.778   9.342  10.532  1.5871  1.1764 -0.5573
  754MOL0     H 1785  10.781   9.171  10.515 -2.3553  2.1782 -1.7738
  754MOL0     H 1786  10.899   9.270  10.322 -0.7547  1.7467  0.0543
  754MOL0     H 1787  11.015   9.190  10.408 -2.6525 -2.1843 -2.3133
  754MOL0     H 1788  11.160   9.579  10.467 -1.5826  0.9631  2.8616
  754MOL0     H 1789  10.522   9.401  10.898 -4.4761  1.1954  1.8344
  754MOL0     H 1790  10.355   9.340  11.042  0.8737  1.3507  0.2489
  755MOL0     O 1791   0.421   9.152   4.823 -0.2585 -0.3947  0.3066
  755MOL0     C 1792   0.523   9.192   4.777  0.0341 -0.6967 -0.5183
  755MOL0     O 1793   0.564   9.323   4.755  0.2678  0.0915 -0.5577
  755MOL0     C 1794   0.467   9.418   4.758 -1.0609  1.0860 -0.0811
  755MOL0     C 1795   0.356   9.407   4.680  0.2856  1.0994 -0.5547
  755MOL0     C 1796   0.263   9.510   4.679 -0.7115 -0.1699  0.1477
  755MOL0     C 1797   0.278   9.625   4.759  0.1483  0.2444 -1.5235
  755MOL0     O 1798   0.180   9.720   4.773 -0.5299  0.0223 -0.0200
  755MOL0     C 1799   0.047   9.697   4.733  0.1942 -1.7271 -0.2817
  755MOL0     C 1800  -0.037   9.826   4.750  0.9484 -0.1840  0.7978
  755MOL0     C 1801  -0.017   9.942   4.647 -0.4221  0.4538 -0.5168
  755MOL0     C 1802   0.133   9.998   4.637 -0.7471 -0.4537 -0.1476
  755MOL0     C 1803   0.210   9.949   4.514  1.0913  0.3041  0.2993
  755MOL0     C 1804   0.356   9.990   4.515  1.1196  0.9103  0.1560
  755MOL0     C 1805   0.441   9.897   4.607 -0.3187  0.6774  0.0821
  755MOL0     C 1806   0.555   9.970   4.682  1.0474  0.2305 -0.4381
  755MOL0     N 1807   0.632   9.880   4.762 -0.6901  0.3643  0.2400
  755MOL0     C 1808   0.716   9.790   4.705 -0.4022 -0.5934  0.3042
  755MOL0     C 1809   0.799   9.745   4.803 -0.6277 -0.5054 -0.1766
  755MOL0     C 1810   0.902   9.627   4.785  0.2290 -0.2194  0.1493
  755MOL0     C 1811   1.044   9.684   4.759  0.1317 -0.2921 -0.1501
  755MOL0     C 1812   1.141   9.576   4.715 -0.8372  0.8405  0.6005
  755MOL0     C 1813   1.288   9.602   4.705  0.0531 -0.3090 -0.4534
  755MOL0     O 1814   1.300   9.740   4.661  0.1112 -0.9851  0.6211
  755MOL0     C 1815   1.427   9.795   4.673  0.2320  0.1978 -0.6283
  755MOL0     C 1816   1.438   9.926   4.631  0.6796  0.7167 -0.4828
  755MOL0     C 1817   1.565   9.988   4.630  0.5340  0.3180  0.3852
  755MOL0     C 1818   1.568  10.137   4.574 -0.0119  0.9087 -0.3620
  755MOL0     C 1819   1.675   9.920   4.682 -0.4308 -0.4561 -0.5228
  755MOL0     C 1820   1.801   9.980   4.676 -0.7506 -0.9719 -0.0119
  755MOL0     O 1821   1.911   9.901   4.630  0.1176  0.0159 -0.1213
  755MOL0     C 1822   2.029   9.970   4.612 -0.0003 -0.5667  0.9674
  755MOL0     C 1823   2.096   9.957   4.487  0.0367  0.5277  0.7066
  755MOL0     C 1824   2.219  10.005   4.463  0.9123  0.1284  1.0374
  755MOL0     C 1825   2.294  10.059   4.574 -0.0343  0.3074 -0.0362
  755MOL0     O 1826   2.419  10.115   4.562 -0.9629  0.4448 -0.0302
  755MOL0     C 1827   2.463  10.131   4.427  0.8461  0.0380  0.4267
  755MOL0     C 1828   2.597  10.206   4.408 -0.4955 -1.6028 -0.4977
  755MOL0     C 1829   2.626  10.229   4.268 -1.1017 -0.3890 -0.0773
  755MOL0     C 1830   2.754  10.307   4.241  0.7563 -0.3468 -0.4939
  755MOL0     C 1831   2.749  10.341   4.090 -0.3140 -0.0944  0.1998
  755MOL0     C 1832   2.887  10.373   4.029  0.1910 -0.3588  0.2974
  755MOL0     C 1833   2.883  10.382   3.879 -0.5127 -0.3240  0.6244
  755MOL0     C 1834   2.863  10.241   3.809  0.0961  0.3075  0.3059
  755MOL0    Cl 1835   2.899  10.230   3.618  0.0044  0.1374 -0.1579
  755MOL0     C 1836   2.237  10.071   4.698  0.3540 -0.8042 -0.3454
  755MOL0     C 1837   2.105  10.036   4.706 -0.0648 -1.2329 -1.3139
  755MOL0     O 1838   1.810  10.095   4.730 -0.5304  0.4391  0.3707
  755MOL0     C 1839   1.656   9.794   4.727 -0.4986  0.3618  0.2403
  755MOL0     C 1840   1.537   9.731   4.725  0.0157 -0.4897 -0.7018
  755MOL0     N 1841   0.754   9.804   4.920 -0.0329  0.5846 -0.9903
  755MOL0     N 1842   0.656   9.887   4.896 -0.2457  1.0258 -0.1216
  755MOL0     C 1843   0.388   9.639   4.846 -0.3729 -0.1111  1.7699
  755MOL0     C 1844   0.483   9.530   4.840  0.7587  1.1120 -0.1948
  755MOL0     C 1845   0.619   9.096   4.733 -0.1235  1.4695 -0.7744
  755MOL0     C 1846   0.748   9.136   4.701 -1.0711  0.8263  1.5798
  755MOL0     C 1847   0.840   9.040   4.654  0.3852 -0.4012 -0.5168
  755MOL0     C 1848   0.803   8.910   4.638  0.0594  0.1560 -0.1205
  755MOL0     O 1849   0.896   8.826   4.591  0.2219  0.7189 -0.0304
  755MOL0     C 1850   1.002   8.788   4.682 -0.8468  0.5201  0.6327
  755MOL0     C 1851   1.132   8.856   4.641 -0.8276  0.0333  0.5082
  755MOL0     C 1852   1.215   8.792   4.525  1.0295  0.6616  0.5642
  755MOL0     C 1853   1.148   8.727   4.405 -0.3675 -0.5620 -0.6371
  755MOL0     C 1854   1.149   8.584   4.410 -0.3770 -0.5623 -0.9526
  755MOL0     C 1855   1.149   8.465   4.420 -0.1203 -0.5072  0.1822
  755MOL0     C 1856   0.680   8.866   4.680  0.6535  0.1653 -0.1574
  755MOL0     C 1857   0.583   8.957   4.729 -0.2612  0.0356 -0.5160
  755MOL0     H 1858   0.337   9.317   4.622 -0.6836  0.6932  0.3615
  755MOL0     H 1859   0.184   9.512   4.605 -0.2728  0.6257 -0.3219
  755MOL0     H 1860   0.020   9.666   4.631 -0.2462  0.2523 -0.8162
  755MOL0     H 1861  -0.013   9.631   4.795 -1.5211 -2.6514 -2.7484
  755MOL0     H 1862  -0.139   9.796   4.726  0.3761  1.7602  0.5864
  755MOL0     H 1863  -0.047   9.859   4.854  0.7425  0.7988  0.4751
  755MOL0     H 1864  -0.042   9.909   4.545 -1.9309  4.2527 -1.5405
  755MOL0     H 1865  -0.092  10.021   4.658 -0.9614  0.0645 -1.2711
  755MOL0     H 1866   0.131  10.108   4.633  1.9350 -0.3538 -2.4877
  755MOL0     H 1867   0.185   9.976   4.730  1.3806 -2.7904 -1.7459
  755MOL0     H 1868   0.197   9.842   4.495 -0.8970  0.7017 -0.8652
  755MOL0     H 1869   0.151   9.991   4.433 -0.7062  4.8185  3.5075
  755MOL0     H 1870   0.393   9.990   4.412  0.2447  4.3245 -0.2892
  755MOL0     H 1871   0.364  10.095   4.545  1.1706  0.5935  1.2964
  755MOL0     H 1872   0.374   9.858   4.685  1.3276  1.6769  2.1126
  755MOL0     H 1873   0.478   9.814   4.547  1.2191 -0.0187  1.8939
  755MOL0     H 1874   0.508  10.041   4.751 -2.9348 -4.3731  2.1169
  755MOL0     H 1875   0.619  10.025   4.611 -3.0155  1.2099 -3.7558
  755MOL0     H 1876   0.738   9.766   4.601 -0.7251 -1.0414  0.3373
  755MOL0     H 1877   0.906   9.575   4.882 -0.7925  3.2296  2.2102
  755MOL0     H 1878   0.869   9.553   4.711 -2.3853 -0.2685  1.2417
  755MOL0     H 1879   1.078   9.718   4.857  2.0184  0.0487 -0.8742
  755MOL0     H 1880   1.045   9.767   4.687  1.9576  0.8136  1.0494
  755MOL0     H 1881   1.105   9.543   4.617 -0.0990  0.2659  0.5197
  755MOL0     H 1882   1.130   9.498   4.791 -0.8149  1.1232  0.8959
  755MOL0     H 1883   1.339   9.537   4.633  3.6556  1.7885 -0.0670
  755MOL0     H 1884   1.330   9.595   4.806 -0.1394  2.0400 -0.1652
  755MOL0     H 1885   1.350   9.969   4.584  0.0323 -1.5137 -1.4145
  755MOL0     H 1886   1.642  10.159   4.497  2.7406  2.1527  2.4317
  755MOL0     H 1887   1.471  10.180   4.545 -0.9818 -1.7148 -1.2918
  755MOL0     H 1888   1.617  10.194   4.654  2.0211 -1.4524  0.1928
  755MOL0     H 1889   2.055   9.890   4.412  0.1993  0.3186  0.8064
  755MOL0     H 1890   2.271   9.991   4.369  0.1809 -2.8263  0.9600
  755MOL0     H 1891   2.478  10.031   4.387 -1.2500 -0.0964 -0.1330
  755MOL0     H 1892   2.378  10.178   4.376  1.0836  1.0916  0.9713
  755MOL0     H 1893   2.585  10.303   4.459  0.6197  0.3006 -3.6059
  755MOL0     H 1894   2.675  10.145   4.454  0.7215  1.2193  1.5477
  755MOL0     H 1895   2.541  10.271   4.214  0.5321  0.9793 -1.7070
  755MOL0     H 1896   2.633  10.129   4.222 -2.9383 -0.9885  0.8438
  755MOL0     H 1897   2.778  10.398   4.297  0.1484  0.3338 -1.3146
  755MOL0     H 1898   2.839  10.239   4.253  1.6807  1.0930  2.0191
  755MOL0     H 1899   2.681  10.426   4.080  0.9996  1.0729  0.9269
  755MOL0     H 1900   2.701  10.259   4.035 -1.8192  0.7905  0.1471
  755MOL0     H 1901   2.942  10.456   4.074 -0.2608  1.3962 -2.1319
  755MOL0     H 1902   2.950  10.286   4.048  1.1393  0.3674  0.5650
  755MOL0     H 1903   2.979  10.423   3.846 -0.0943  1.2973  3.5073
  755MOL0     H 1904   2.795  10.441   3.849 -0.2994 -0.5962 -0.5763
  755MOL0     H 1905   2.759  10.207   3.817  0.4996 -1.0449  0.0441
  755MOL0     H 1906   2.925  10.163   3.854 -3.3646 -3.1816 -0.3928
  755MOL0     H 1907   2.295  10.113   4.781  0.3532  2.1152 -1.6826
  755MOL0     H 1908   2.059  10.048   4.804  3.0994  2.9710 -0.0483
  755MOL0     H 1909   1.740   9.741   4.770 -0.4513 -0.4185 -0.7682
  755MOL0     H 1910   1.526   9.629   4.760  0.0958  0.1151  1.1793
  755MOL0     H 1911   0.406   9.727   4.908  2.8025  0.9752 -0.3931
  755MOL0     H 1912   0.563   9.547   4.911  0.4119 -1.5481  0.9612
  755MOL0     H 1913   0.786   9.238   4.706  2.3444 -0.3795  3.3732
  755MOL0     H 1914   0.927   9.067   4.596 -1.2392  2.2094 -1.9688
  755MOL0     H 1915   0.979   8.824   4.783 -2.2116  0.9094  0.2100
  755MOL0     H 1916   1.016   8.680   4.673 -3.4795  0.2595 -1.6599
  755MOL0     H 1917   1.193   8.866   4.731  0.6599 -1.6655 -0.2563
  755MOL0     H 1918   1.103   8.958   4.612  0.5878  0.6027  1.0241
  755MOL0     H 1919   1.298   8.734   4.567  0.6730 -0.8059 -0.6840
  755MOL0     H 1920   1.261   8.876   4.472  2.4491  0.0160  0.7256
  755MOL0     H 1921   1.198   8.772   4.318 -2.6438  0.0655 -1.6934
  755MOL0     H 1922   1.044   8.758   4.394 -0.6625 -0.1419  2.4963
  755MOL0     H 1923   1.145   8.358   4.429 -1.1661 -0.2897  3.0959
  755MOL0     H 1924   0.668   8.759   4.665 -0.4578  0.0045  1.5815
  755MOL0     H 1925   0.488   8.915   4.762  0.1076 -1.1187 -0.8689
  756MOL0     O 1926   5.165   4.184  10.836 -0.1273  0.1048 -0.3343
  756MOL0     C 1927   5.096   4.123  10.922 -1.0031 -0.0894  0.4625
  756MOL0     O 1928   5.147   4.062  11.032 -0.3089  0.9704 -0.4381
  756MOL0     C 1929   5.282   4.054  11.047  0.2929  0.9064 -0.8042
  756MOL0     C 1930   5.334   3.943  11.114  0.6369  1.0690 -1.7014
  756MOL0     C 1931   5.469   3.927  11.150 -0.8460  0.1222 -0.0233
  756MOL0     C 1932   5.564   4.021  11.116  0.0758 -0.0767 -0.4044
  756MOL0     O 1933   5.692   4.015  11.154 -1.0903 -0.2942  0.5826
  756MOL0     C 1934   5.797   4.070  11.071  0.1282  0.2974  0.9905
  756MOL0     C 1935   5.936   4.028  11.104  0.4788  0.7939 -0.3923
  756MOL0     C 1936   6.034   4.072  10.998  0.8624  0.2222 -0.0728
  756MOL0     C 1937   6.171   4.036  11.044  0.0869 -1.3186  0.1672
  756MOL0     C 1938   6.263   4.030  10.908 -0.0709 -0.8292  0.1112
  756MOL0     C 1939   6.273   4.165  10.835  0.3882  0.2982  0.3680
  756MOL0     C 1940   6.301   4.288  10.912  0.5968 -0.3783 -0.0166
  756MOL0     C 1941   6.320   4.411  10.821 -0.8548  0.3477 -0.1955
  756MOL0     N 1942   6.410   4.505  10.888 -0.2956 -0.7110  0.7074
  756MOL0     C 1943   6.552   4.518  10.893 -0.6815  0.6709  0.2969
  756MOL0     C 1944   6.569   4.627  10.981  0.4518  0.0243 -0.1861
  756MOL0     C 1945   6.704   4.673  11.039 -0.6751 -0.0713  0.0375
  756MOL0     C 1946   6.756   4.810  11.000 -0.2420  0.5238 -0.2792
  756MOL0     C 1947   6.723   4.914  11.108 -0.2928 -0.1415 -0.6186
  756MOL0     C 1948   6.804   5.045  11.087  0.0883  0.2224 -0.6762
  756MOL0     O 1949   6.773   5.142  11.189  0.0770 -0.3613 -0.2417
  756MOL0     C 1950   6.881   5.218  11.226 -0.3202 -0.6997 -0.6424
  756MOL0     C 1951   6.996   5.239  11.156 -0.1850 -0.0423  0.2464
  756MOL0     C 1952   7.098   5.329  11.194  0.4155  0.1162 -0.2927
  756MOL0     C 1953   7.207   5.357  11.090 -0.2111 -0.5473  0.2822
  756MOL0     C 1954   7.090   5.382  11.321 -0.9234 -0.0013  0.3248
  756MOL0     C 1955   7.179   5.486  11.367 -0.3681  0.3496 -0.3814
  756MOL0     O 1956   7.214   5.594  11.282 -1.0849 -0.5109 -0.6272
  756MOL0     C 1957   7.302   5.698  11.310 -0.2708  0.1259 -0.8078
  756MOL0     C 1958   7.294   5.808  11.225  0.8619 -0.6502  0.0596
  756MOL0     C 1959   7.367   5.921  11.257  1.1247 -1.0527  0.5336
  756MOL0     C 1960   7.445   5.941  11.367  0.5425 -0.2224  0.5708
  756MOL0     O 1961   7.513   6.059  11.373 -0.5210  0.7304 -0.3150
  756MOL0     C 1962   7.581   6.090  11.494 -0.7018  0.2523 -0.2923
  756MOL0     C 1963   7.635   6.229  11.501  0.2390 -0.3638  0.4508
  756MOL0     C 1964   7.713   6.245  11.626  0.2137  0.0434 -0.3895
  756MOL0     C 1965   7.634   6.214  11.749 -0.9964  0.2962 -0.9908
  756MOL0     C 1966   7.722   6.231  11.872  0.5337  0.2987  0.0827
  756MOL0     C 1967   7.643   6.195  11.997  1.1188 -0.1724  0.2951
  756MOL0     C 1968   7.620   6.046  11.990  1.2309 -0.0861 -0.9158
  756MOL0     C 1969   7.609   5.983  12.131 -0.1901  0.5638 -0.0228
  756MOL0    Cl 1970   7.756   5.924  12.189 -0.0825 -0.7402 -0.4278
  756MOL0     C 1971   7.460   5.836  11.457  0.1942 -0.3642 -0.2477
  756MOL0     C 1972   7.389   5.723  11.423  0.1155  0.5571  0.1136
  756MOL0     O 1973   7.227   5.469  11.482 -0.3141 -0.9494 -0.1706
  756MOL0     C 1974   6.978   5.357  11.399  0.2663 -0.0806  0.5933
  756MOL0     C 1975   6.872   5.280  11.354  0.2835 -0.3833 -0.1979
  756MOL0     N 1976   6.443   4.684  11.000 -0.0517  0.1352  0.2811
  756MOL0     N 1977   6.354   4.610  10.948  0.3534  0.0193  1.0154
  756MOL0     C 1978   5.514   4.135  11.044  0.4807  0.0735  0.3422
  756MOL0     C 1979   5.382   4.150  11.015 -0.2086  1.3313 -0.4134
  756MOL0     C 1980   4.941   4.113  10.898 -0.0964 -0.1399 -0.0251
  756MOL0     C 1981   4.858   4.179  10.802 -0.3041 -0.5486  0.1848
  756MOL0     C 1982   4.721   4.148  10.795 -0.7682  0.3862  0.5011
  756MOL0     C 1983   4.662   4.067  10.884  0.2213  0.2757 -0.2000
  756MOL0     O 1984   4.528   4.056  10.870  0.0858 -1.1482 -0.3532
  756MOL0     C 1985   4.456   3.999  10.979  0.8118  0.1951 -0.3758
  756MOL0     C 1986   4.314   4.046  10.974 -0.1661  0.3366  0.2177
  756MOL0     C 1987   4.233   3.990  10.856  0.3157 -0.3493  0.1314
  756MOL0     C 1988   4.129   3.881  10.880  0.6372  0.7948 -0.1949
  756MOL0     C 1989   4.180   3.760  10.954  0.4579 -0.6379 -0.7246
  756MOL0     C 1990   4.225   3.671  11.018 -0.4687 -0.3224  0.6215
  756MOL0     C 1991   4.742   3.993  10.969  0.3166 -0.4937  0.1348
  756MOL0     C 1992   4.874   4.012  10.972 -0.0670  0.3846 -0.0369
  756MOL0     H 1993   5.265   3.865  11.146  2.8779  0.0680  1.0827
  756MOL0     H 1994   5.505   3.834  11.192  0.3502 -0.1621 -1.5620
  756MOL0     H 1995   5.773   4.043  10.967  4.8992  2.3366 -0.9439
  756MOL0     H 1996   5.779   4.177  11.060 -2.6529 -0.3029 -2.2713
  756MOL0     H 1997   5.968   4.067  11.202 -1.6201 -1.5224  1.3580
  756MOL0     H 1998   5.925   3.919  11.103 -0.3660  0.8546  0.2684
  756MOL0     H 1999   6.019   4.021  10.902 -0.2399 -2.9780  1.6776
  756MOL0     H 2000   6.021   4.181  10.988 -2.9992 -0.1509 -0.9515
  756MOL0     H 2001   6.216   4.093  11.126 -0.3627 -0.9846  0.1827
  756MOL0     H 2002   6.164   3.935  11.086 -0.8925 -0.1881  2.9603
  756MOL0     H 2003   6.364   3.994  10.926  0.2222 -0.0209  0.1082
  756MOL0     H 2004   6.218   3.955  10.842  1.2336  0.5252 -2.4821
  756MOL0     H 2005   6.346   4.158  10.753  2.3227 -0.5244  2.0554
  756MOL0     H 2006   6.192   4.182  10.764  2.5095  2.1190 -1.8246
  756MOL0     H 2007   6.221   4.301  10.986 -0.8200 -1.0472 -1.3768
  756MOL0     H 2008   6.401   4.275  10.954  2.0313  1.9823 -2.3664
  756MOL0     H 2009   6.221   4.450  10.794 -2.0107 -2.7338 -0.7146
  756MOL0     H 2010   6.368   4.382  10.727  0.8658  0.5517  0.5837
  756MOL0     H 2011   6.634   4.458  10.854  1.4844  2.0003  2.5005
  756MOL0     H 2012   6.701   4.664  11.148  1.2369 -1.6285  0.0035
  756MOL0     H 2013   6.779   4.596  11.023  1.0545  1.0407  2.2400
  756MOL0     H 2014   6.697   4.841  10.913 -1.9311 -0.1329  0.5950
  756MOL0     H 2015   6.865   4.805  10.986 -0.1774 -0.6799  0.5341
  756MOL0     H 2016   6.750   4.877  11.207  2.1678 -3.4799 -2.3648
  756MOL0     H 2017   6.615   4.923  11.094 -0.2165 -0.5454 -1.4982
  756MOL0     H 2018   6.787   5.099  10.993 -1.1197  0.3189 -0.4210
  756MOL0     H 2019   6.907   5.019  11.108  0.1447  0.8955 -0.0685
  756MOL0     H 2020   7.004   5.196  11.056  1.2632  1.3866 -0.3099
  756MOL0     H 2021   7.161   5.367  10.991  0.0215 -0.3881  0.1907
  756MOL0     H 2022   7.259   5.452  11.102 -2.7197  1.0031 -0.3799
  756MOL0     H 2023   7.282   5.277  11.088 -0.3201 -0.7134 -2.8994
  756MOL0     H 2024   7.237   5.799  11.133  0.9596  0.7067 -0.1505
  756MOL0     H 2025   7.358   6.004  11.188 -2.5411 -1.7480 -0.0403
  756MOL0     H 2026   7.501   6.071  11.566  0.5249 -1.4842  0.7216
  756MOL0     H 2027   7.661   6.020  11.522  0.4208  0.7829 -2.0344
  756MOL0     H 2028   7.708   6.251  11.422 -0.5692 -0.9497 -0.4854
  756MOL0     H 2029   7.546   6.292  11.512 -0.6654 -1.3549 -0.7710
  756MOL0     H 2030   7.746   6.349  11.632 -1.1047  0.5908 -1.9874
  756MOL0     H 2031   7.807   6.190  11.622  0.9642  1.3494 -1.3463
  756MOL0     H 2032   7.543   6.275  11.759 -2.6639 -2.1942  0.0569
  756MOL0     H 2033   7.602   6.109  11.745 -0.0373 -0.3233  3.0302
  756MOL0     H 2034   7.753   6.336  11.879  0.9414  0.1912 -0.0902
  756MOL0     H 2035   7.819   6.182  11.868  0.7878  0.7437  0.6196
  756MOL0     H 2036   7.704   6.224  12.084 -0.0569  1.1955  0.6987
  756MOL0     H 2037   7.555   6.252  12.029  3.4291  3.0260  1.5629
  756MOL0     H 2038   7.709   6.003  11.943  1.7989 -0.0854  0.1387
  756MOL0     H 2039   7.533   6.029  11.926  0.3929  0.1622  0.1171
  756MOL0     H 2040   7.536   5.903  12.117 -0.7376  0.9249  0.6705
  756MOL0     H 2041   7.560   6.060  12.192 -3.1138 -1.5820  0.5914
  756MOL0     H 2042   7.518   5.841  11.549  0.9134  3.2784 -0.7476
  756MOL0     H 2043   7.395   5.636  11.487 -0.6135 -0.4773 -1.1899
  756MOL0     H 2044   6.974   5.402  11.498 -0.1125 -2.8065  1.9052
  756MOL0     H 2045   6.786   5.283  11.420  0.5864 -0.8852  0.2367
  756MOL0     H 2046   5.578   4.222  11.030  1.5979 -0.5613  1.2653
  756MOL0     H 2047   5.349   4.248  10.981  3.4731  2.5022 -0.9699
  756MOL0     H 2048   4.893   4.242  10.721  0.8578 -1.7679 -0.3049
  756MOL0     H 2049   4.667   4.181  10.707 -1.5331  3.4182  1.9556
  756MOL0     H 2050   4.463   3.890  10.966 -0.5383 -0.4736  3.2723
  756MOL0     H 2051   4.500   4.032  11.073 -0.2945 -0.6312  0.4577
  756MOL0     H 2052   4.311   4.155  10.980 -1.4219  0.5656 -2.7943
  756MOL0     H 2053   4.261   4.017  11.066 -1.3793  1.0379 -0.2370
  756MOL0     H 2054   4.312   3.952  10.789  1.5092 -1.3405  2.0176
  756MOL0     H 2055   4.176   4.071  10.810 -2.0705 -2.2200 -0.4068
  756MOL0     H 2056   4.097   3.846  10.781 -2.4116  0.2427  0.9019
  756MOL0     H 2057   4.043   3.931  10.924 -0.0154 -2.4620  2.6578
  756MOL0     H 2058   4.262   3.583  11.067 -5.3311 -5.0319 -2.9670
  756MOL0     H 2059   4.706   3.908  11.027 -0.5228  0.1978  0.6591
  756MOL0     H 2060   4.927   3.956  11.049 -0.6007  2.0160  1.6034
  757MOL0     O 2061   6.028   0.346   8.664  0.2284  0.7755 -0.3428
  757MOL0     C 2062   6.013   0.396   8.557  1.1068  1.1277  0.5906
  757MOL0     O 2063   5.957   0.338   8.447  0.7652 -0.2813  0.6666
  757MOL0     C 2064   5.917   0.206   8.444 -0.3208  0.4972 -0.1279
  757MOL0     C 2065   5.972   0.096   8.515 -0.1816  0.4534  0.3056
  757MOL0     C 2066   5.919  -0.025   8.496  0.0665  0.1042  0.4168
  757MOL0     C 2067   5.816  -0.049   8.412 -0.8323 -0.5486 -0.4260
  757MOL0     O 2068   5.762  -0.175   8.400 -0.5012  0.3151 -0.3345
  757MOL0     C 2069   5.845  -0.276   8.354 -0.5175  0.3823 -0.8819
  757MOL0     C 2070   5.886  -0.275   8.201  0.9875 -0.4918 -0.5911
  757MOL0     C 2071   5.761  -0.292   8.115 -0.1165  0.4112  0.0612
  757MOL0     C 2072   5.782  -0.397   8.005  0.6834  0.6704 -0.3851
  757MOL0     C 2073   5.887  -0.364   7.896  0.2293 -0.3180 -0.2828
  757MOL0     C 2074   5.873  -0.447   7.767 -0.5384 -0.1877  0.0921
  757MOL0     C 2075   5.977  -0.399   7.657  0.6915 -0.4674  0.1146
  757MOL0     C 2076   5.975  -0.497   7.538 -0.1021 -0.6057  0.4796
  757MOL0     N 2077   6.114  -0.509   7.473  0.2182 -0.6568  0.2118
  757MOL0     C 2078   6.187  -0.391   7.447  0.2071 -0.1436 -0.6718
  757MOL0     C 2079   6.283  -0.439   7.360 -1.1619  0.1162 -0.0706
  757MOL0     C 2080   6.388  -0.348   7.309  0.2909 -1.2902 -0.4318
  757MOL0     C 2081   6.513  -0.327   7.397  0.3858 -0.6407 -0.0323
  757MOL0     C 2082   6.622  -0.275   7.309 -0.9557  0.8198  0.3580
  757MOL0     C 2083   6.753  -0.240   7.397  0.0362  0.3734 -0.7805
  757MOL0     O 2084   6.719  -0.145   7.496 -0.2849  0.2747  0.2222
  757MOL0     C 2085   6.773  -0.030   7.471 -0.4526 -0.5806 -0.0143
  757MOL0     C 2086   6.713   0.058   7.381 -0.0445  0.1517 -1.0509
  757MOL0     C 2087   6.764   0.184   7.358 -0.0159 -0.2783 -0.7460
  757MOL0     C 2088   6.700   0.272   7.256 -0.8083  0.4750 -0.2292
  757MOL0     C 2089   6.881   0.214   7.426  0.1595 -0.6699 -0.0763
  757MOL0     C 2090   6.933   0.344   7.401 -0.0075 -0.1966  0.3083
  757MOL0     O 2091   7.056   0.343   7.351 -1.0040 -0.3467 -0.7595
  757MOL0     C 2092   7.140   0.457   7.368  0.9075 -0.7293  0.2667
  757MOL0     C 2093   7.158   0.546   7.254 -0.0356  0.7734  0.1397
  757MOL0     C 2094   7.231   0.663   7.266  0.5593  0.6810 -0.1386
  757MOL0     C 2095   7.314   0.670   7.377  0.8667  0.3075  0.0069
  757MOL0     O 2096   7.412   0.762   7.391  0.4240 -0.7775  0.6997
  757MOL0     C 2097   7.448   0.830   7.264  0.2521  0.2335  0.0797
  757MOL0     C 2098   7.580   0.914   7.263  0.9157 -0.3797 -0.2215
  757MOL0     C 2099   7.641   0.938   7.126 -0.1411  0.0213 -0.1006
  757MOL0     C 2100   7.765   1.031   7.141 -0.0051 -0.0964 -0.0792
  757MOL0     C 2101   7.851   1.044   7.015 -0.2059  0.4698 -0.1235
  757MOL0     C 2102   7.977   1.133   7.036  0.7966  0.1798  0.0667
  757MOL0     C 2103   8.087   1.116   6.929  0.2550  0.3109 -0.2987
  757MOL0     C 2104   8.026   1.112   6.791  0.2138 -0.5443 -0.2522
  757MOL0    Cl 2105   7.941   1.266   6.766 -0.0979  0.1005  0.0539
  757MOL0     C 2106   7.302   0.584   7.489 -0.0303  0.1792  1.5177
  757MOL0     C 2107   7.216   0.478   7.483  0.6662 -0.3934  0.3230
  757MOL0     O 2108   6.874   0.438   7.450  0.1402  0.2235 -0.9807
  757MOL0     C 2109   6.955   0.134   7.508 -0.9306 -0.3321  0.1125
  757MOL0     C 2110   6.892   0.015   7.541  0.5022  0.6351 -0.4740
  757MOL0     N 2111   6.274  -0.577   7.344  0.4151 -0.2682 -0.6932
  757MOL0     N 2112   6.176  -0.617   7.413  0.0216  0.8285  0.3066
  757MOL0     C 2113   5.756   0.051   8.341  0.2596 -0.1762 -0.1242
  757MOL0     C 2114   5.811   0.179   8.359 -0.1581  0.1563 -0.5093
  757MOL0     C 2115   6.000   0.548   8.548  0.0545 -0.9821  0.0382
  757MOL0     C 2116   5.983   0.619   8.425  0.4325 -0.2959 -0.6185
  757MOL0     C 2117   5.998   0.756   8.419  0.5597 -0.0280  1.1463
  757MOL0     C 2118   6.035   0.819   8.534  0.3036  0.3917  0.3975
  757MOL0     O 2119   6.049   0.958   8.546  0.6306  0.5847  1.0276
  757MOL0     C 2120   6.068   1.041   8.422  0.4451  0.8611 -0.3523
  757MOL0     C 2121   5.934   1.112   8.397  0.2199  0.2262  0.6083
  757MOL0     C 2122   5.904   1.217   8.506  1.1003  0.4884  0.1410
  757MOL0     C 2123   5.833   1.161   8.634  0.3747 -0.2112  0.0931
  757MOL0     C 2124   5.714   1.095   8.585  0.2780  0.3108 -0.2350
  757MOL0     C 2125   5.619   1.029   8.555 -0.4574 -0.8069 -0.7508
  757MOL0     C 2126   6.029   0.751   8.657  0.2411  0.1171  0.4926
  757MOL0     C 2127   6.007   0.619   8.662 -1.0737  0.3424 -0.8756
  757MOL0     H 2128   6.061   0.112   8.576  1.3356 -0.6100 -1.5241
  757MOL0     H 2129   5.971  -0.108   8.544  2.8340  0.0518 -2.3527
  757MOL0     H 2130   5.935  -0.287   8.416 -0.1524 -0.7351 -1.5927
  757MOL0     H 2131   5.784  -0.366   8.364  3.0935 -2.0539  2.2699
  757MOL0     H 2132   5.925  -0.181   8.162  3.4762 -0.3299  2.0142
  757MOL0     H 2133   5.958  -0.355   8.181  1.9969  0.8309 -2.7480
  757MOL0     H 2134   5.671  -0.315   8.172 -0.2749  1.1381  0.1092
  757MOL0     H 2135   5.742  -0.195   8.069  1.9986  0.9905  0.2875
  757MOL0     H 2136   5.801  -0.499   8.040  3.3357  0.9484 -0.7881
  757MOL0     H 2137   5.687  -0.386   7.953  0.4850 -2.3125 -0.8276
  757MOL0     H 2138   5.860  -0.261   7.875  0.1005  0.4870  3.1688
  757MOL0     H 2139   5.989  -0.366   7.938  0.9135  0.5070 -1.8341
  757MOL0     H 2140   5.883  -0.551   7.797 -3.0800 -1.6688 -3.3840
  757MOL0     H 2141   5.767  -0.431   7.742 -0.6513 -0.2229  0.5479
  757MOL0     H 2142   5.960  -0.298   7.618  4.0271  0.4106  0.5863
  757MOL0     H 2143   6.079  -0.400   7.695  1.1699 -1.5074 -1.1243
  757MOL0     H 2144   5.903  -0.464   7.463 -2.5148 -0.4815  2.6966
  757MOL0     H 2145   5.948  -0.596   7.577 -1.2689 -0.9378 -1.0687
  757MOL0     H 2146   6.157  -0.290   7.475  0.0822  0.3068 -2.3317
  757MOL0     H 2147   6.411  -0.393   7.212  1.4655  1.8858 -1.7844
  757MOL0     H 2148   6.344  -0.251   7.287  0.5232 -1.3437 -1.1569
  757MOL0     H 2149   6.547  -0.422   7.439 -2.2329 -2.1107 -1.0077
  757MOL0     H 2150   6.494  -0.253   7.476  1.7899  1.1076 -1.2326
  757MOL0     H 2151   6.590  -0.189   7.249  3.2908  2.0423 -0.4734
  757MOL0     H 2152   6.659  -0.355   7.244 -1.4966 -0.3072  1.4006
  757MOL0     H 2153   6.834  -0.203   7.333 -0.5997 -1.2851 -2.6541
  757MOL0     H 2154   6.791  -0.329   7.448 -1.3712 -1.7556 -3.1776
  757MOL0     H 2155   6.617   0.023   7.345 -0.3727  1.4874 -1.5036
  757MOL0     H 2156   6.776   0.306   7.186 -0.3048 -2.9371 -1.5346
  757MOL0     H 2157   6.608   0.222   7.226 -0.7607  0.3100 -0.1060
  757MOL0     H 2158   6.651   0.359   7.302 -3.6098 -1.6621  1.1585
  757MOL0     H 2159   7.104   0.526   7.162  1.4432 -0.4328 -0.5123
  757MOL0     H 2160   7.224   0.737   7.187  2.3239  0.1089 -0.8847
  757MOL0     H 2161   7.455   0.766   7.175  0.0901 -0.5438  0.6131
  757MOL0     H 2162   7.361   0.890   7.237 -3.5379 -3.4942  2.7678
  757MOL0     H 2163   7.547   1.008   7.308  0.1904  0.5546 -2.5697
  757MOL0     H 2164   7.643   0.860   7.335 -0.5623  0.4796  1.7898
  757MOL0     H 2165   7.572   0.980   7.053  4.0732  1.6883 -3.5634
  757MOL0     H 2166   7.680   0.842   7.092  0.5729  0.3371 -0.1829
  757MOL0     H 2167   7.727   1.128   7.172  0.9202 -0.4003  2.1459
  757MOL0     H 2168   7.832   1.000   7.221 -0.1722 -1.6733 -0.5133
  757MOL0     H 2169   7.792   1.098   6.941  0.5149  1.0551 -0.2798
  757MOL0     H 2170   7.888   0.952   6.968 -0.3355  1.4336 -2.2114
  757MOL0     H 2171   7.934   1.234   7.040  0.9211  0.3525 -1.8574
  757MOL0     H 2172   8.023   1.095   7.128 -1.9984  0.3113  1.6371
  757MOL0     H 2173   8.155   1.031   6.943 -0.2764  0.2677  2.5132
  757MOL0     H 2174   8.150   1.205   6.925 -0.9283  1.2099  0.2714
  757MOL0     H 2175   7.964   1.025   6.768  2.8208 -1.9708 -2.6287
  757MOL0     H 2176   8.107   1.095   6.720 -0.5324 -4.2955 -0.4245
  757MOL0     H 2177   7.361   0.601   7.579 -2.4965  3.6048  2.6887
  757MOL0     H 2178   7.209   0.413   7.569  2.7322 -1.3790 -0.1678
  757MOL0     H 2179   7.054   0.160   7.545 -1.1240  1.3032 -0.4200
  757MOL0     H 2180   6.935  -0.044   7.622 -0.1835  3.8611  2.4885
  757MOL0     H 2181   5.675   0.034   8.271  0.3943  0.4542 -0.4418
  757MOL0     H 2182   5.765   0.268   8.318  0.1757  0.7025  0.2619
  757MOL0     H 2183   5.953   0.555   8.342 -2.9298  1.6216 -1.0477
  757MOL0     H 2184   5.983   0.814   8.329  0.7950 -0.4922  0.8072
  757MOL0     H 2185   6.143   1.118   8.444  1.4636 -0.6381  1.7101
  757MOL0     H 2186   6.114   0.989   8.338  1.0491 -0.9442  1.0430
  757MOL0     H 2187   5.852   1.039   8.390 -0.1568  0.7972 -2.7998
  757MOL0     H 2188   5.936   1.156   8.297 -3.4850 -1.0443 -0.2117
  757MOL0     H 2189   5.854   1.304   8.462  0.5898 -0.3836 -1.0382
  757MOL0     H 2190   5.996   1.261   8.546 -0.2253  1.8002  1.9214
  757MOL0     H 2191   5.801   1.250   8.689 -0.2259  0.9497 -2.0254
  757MOL0     H 2192   5.904   1.097   8.686  3.1993  0.3936 -2.6967
  757MOL0     H 2193   5.549   0.960   8.511  0.4526 -1.4214 -1.2646
  757MOL0     H 2194   6.050   0.797   8.753  3.0134  0.9548 -0.4147
  757MOL0     H 2195   6.005   0.577   8.762  1.5335  1.2568 -0.3731
  758MOL0     O 2196   8.132   2.209   7.145  0.1483  0.1863 -0.3586
  758MOL0     C 2197   8.169   2.097   7.095 -0.0443  0.0294 -0.1037
  758MOL0     O 2198   8.097   1.989   7.059  0.2464 -0.2099  0.0489
  758MOL0     C 2199   7.960   1.983   7.069 -0.5104 -0.8994 -0.3530
  758MOL0     C 2200   7.905   1.962   7.192  0.9829  0.0917 -1.2807
  758MOL0     C 2201   7.767   1.933   7.204 -0.0825 -1.4082  0.3502
  758MOL0     C 2202   7.684   1.922   7.094  0.0232  0.0701  0.3181
  758MOL0     O 2203   7.553   1.884   7.115  0.2998 -0.5666  1.0921
  758MOL0     C 2204   7.492   1.828   6.995  0.4373 -0.2076 -1.4958
  758MOL0     C 2205   7.360   1.752   7.038 -0.4415  0.4109  0.5981
  758MOL0     C 2206   7.394   1.604   7.091 -0.3398  1.2892 -0.9903
  758MOL0     C 2207   7.274   1.531   7.145 -0.1999  0.3868 -0.4114
  758MOL0     C 2208   7.322   1.392   7.188  0.3039  0.6280 -0.6940
  758MOL0     C 2209   7.210   1.314   7.250 -1.0994  1.1754  0.0586
  758MOL0     C 2210   7.242   1.180   7.319 -0.4244 -0.4569 -0.2892
  758MOL0     C 2211   7.344   1.196   7.437 -0.6069 -0.6966  0.6790
  758MOL0     N 2212   7.276   1.153   7.561  0.2377  1.3151  0.3073
  758MOL0     C 2213   7.254   1.013   7.574 -0.3468  0.4114 -0.6602
  758MOL0     C 2214   7.145   1.007   7.654 -0.9826  0.8935  0.4213
  758MOL0     C 2215   7.058   0.882   7.676 -0.6954 -0.4583  0.3605
  758MOL0     C 2216   6.939   0.890   7.572  0.1139  0.0940 -0.4750
  758MOL0     C 2217   6.947   0.808   7.442  0.9473  0.8799  0.2077
  758MOL0     C 2218   6.832   0.830   7.339 -1.0611 -0.4728 -1.1284
  758MOL0     O 2219   6.813   0.970   7.317  0.1088  0.3299 -0.7924
  758MOL0     C 2220   6.874   1.022   7.207  0.1884 -0.3820  0.4103
  758MOL0     C 2221   6.976   0.961   7.127 -0.4571 -0.3355  0.2857
  758MOL0     C 2222   7.025   1.017   7.002 -0.1334  0.4924 -0.4506
  758MOL0     C 2223   7.121   0.930   6.921 -0.0413  0.0766 -0.9705
  758MOL0     C 2224   6.988   1.154   6.981 -0.3759  0.3317  0.7674
  758MOL0     C 2225   7.052   1.228   6.866 -0.0514 -0.9018 -0.0611
  758MOL0     O 2226   7.023   1.356   6.869 -0.7679  0.2618 -0.6976
  758MOL0     C 2227   7.066   1.438   6.769 -0.0102 -0.5577  1.2139
  758MOL0     C 2228   7.009   1.438   6.636 -0.8042  0.6718  0.1569
  758MOL0     C 2229   7.052   1.519   6.530  1.1696 -0.8957  0.7647
  758MOL0     C 2230   7.150   1.616   6.550  0.0556  0.1947 -0.0035
  758MOL0     O 2231   7.213   1.683   6.440  0.0980 -0.1212 -0.2581
  758MOL0     C 2232   7.142   1.663   6.313  0.1796 -0.0408  0.1390
  758MOL0     C 2233   7.206   1.753   6.212  0.5577  0.2420 -0.0788
  758MOL0     C 2234   7.137   1.747   6.078  0.1047 -0.9166  0.6838
  758MOL0     C 2235   7.179   1.637   5.990  1.3313  0.2103 -0.3038
  758MOL0     C 2236   7.125   1.642   5.850 -0.4847  0.0924  0.6707
  758MOL0     C 2237   7.182   1.535   5.742  0.4907 -0.3425 -0.5578
  758MOL0     C 2238   7.169   1.393   5.777  0.6090 -0.4730  0.8815
  758MOL0     C 2239   7.010   1.369   5.781 -0.1556 -0.2589 -0.1367
  758MOL0    Cl 2240   6.934   1.407   5.619 -0.0457  0.4862 -0.4260
  758MOL0     C 2241   7.203   1.620   6.680  0.2216  0.4179  0.3290
  758MOL0     C 2242   7.158   1.540   6.786  0.1560  0.6675  0.0315
  758MOL0     O 2243   7.121   1.180   6.784  0.3216  0.5015  0.0061
  758MOL0     C 2244   6.887   1.214   7.054  0.5893 -0.9022 -0.1340
  758MOL0     C 2245   6.835   1.153   7.162 -1.0300  1.1045  0.1281
  758MOL0     N 2246   7.112   1.137   7.691  0.6241  0.3380 -0.1218
  758MOL0     N 2247   7.181   1.222   7.626  0.0417 -0.2825 -0.7892
  758MOL0     C 2248   7.745   1.952   6.971  0.4899 -0.7181  0.9150
  758MOL0     C 2249   7.882   1.985   6.959  0.3824 -1.1509  0.8498
  758MOL0     C 2250   8.318   2.056   7.097  0.2731 -0.3444  0.1770
  758MOL0     C 2251   8.407   2.154   7.143 -1.0114  0.7541  0.9231
  758MOL0     C 2252   8.541   2.119   7.147  0.1641 -0.6866 -0.7805
  758MOL0     C 2253   8.591   1.998   7.105  0.0801  0.3451  1.2144
  758MOL0     O 2254   8.726   1.978   7.104  0.2197 -0.1737  0.9047
  758MOL0     C 2255   8.777   1.855   7.052  0.0632  0.2895 -0.0442
  758MOL0     C 2256   8.929   1.873   7.009  0.8041  0.9247 -0.8560
  758MOL0     C 2257   9.031   1.878   7.122 -0.0357  0.0856  0.7108
  758MOL0     C 2258   9.157   1.928   7.048 -0.3146 -0.0680  0.7502
  758MOL0     C 2259   9.268   1.912   7.135 -0.0693  0.3889 -0.5456
  758MOL0     C 2260   9.360   1.908   7.208 -0.9832 -0.6771  0.4645
  758MOL0     C 2261   8.502   1.900   7.065  0.2176 -0.6468 -0.0620
  758MOL0     C 2262   8.363   1.928   7.052 -1.0701  0.2667  0.4354
  758MOL0     H 2263   7.960   1.949   7.285 -0.2576  0.6612 -0.4398
  758MOL0     H 2264   7.726   1.910   7.302  1.8713  1.1882  1.9483
  758MOL0     H 2265   7.474   1.908   6.923  2.7331  2.4192  0.6493
  758MOL0     H 2266   7.557   1.753   6.949  0.4283 -2.3546  1.6455
  758MOL0     H 2267   7.315   1.807   7.121 -0.8638 -0.5975  1.0551
  758MOL0     H 2268   7.291   1.747   6.953  1.5726  1.6836 -1.2099
  758MOL0     H 2269   7.432   1.547   7.006 -3.0858  0.0244 -1.4733
  758MOL0     H 2270   7.468   1.610   7.171 -2.8282  1.4548  1.4797
  758MOL0     H 2271   7.234   1.586   7.231  1.0672 -0.1199  0.5376
  758MOL0     H 2272   7.191   1.513   7.077  0.5999 -2.0861 -0.8277
  758MOL0     H 2273   7.371   1.336   7.107 -0.4054  0.2530 -0.8708
  758MOL0     H 2274   7.397   1.414   7.265 -0.8102  0.0022  0.6123
  758MOL0     H 2275   7.170   1.381   7.327  0.6995  0.6362  1.5379
  758MOL0     H 2276   7.135   1.287   7.175  0.3307 -1.0173 -0.6575
  758MOL0     H 2277   7.144   1.146   7.354 -1.4514  0.0097 -2.5272
  758MOL0     H 2278   7.265   1.103   7.245 -2.5539 -2.0285  0.5863
  758MOL0     H 2279   7.375   1.300   7.451 -0.6395 -0.7345  1.0324
  758MOL0     H 2280   7.441   1.145   7.429 -0.5128 -0.4283  0.0565
  758MOL0     H 2281   7.291   0.925   7.521 -1.1937 -0.3122 -0.0839
  758MOL0     H 2282   7.124   0.797   7.656  0.5614  1.0272 -2.3203
  758MOL0     H 2283   7.033   0.884   7.783  0.2296 -1.3366  0.6167
  758MOL0     H 2284   6.941   0.996   7.543  1.0964  0.6349  1.3592
  758MOL0     H 2285   6.850   0.859   7.627  0.3606  0.9339  0.4266
  758MOL0     H 2286   6.962   0.705   7.478 -1.0130 -0.2932 -2.0688
  758MOL0     H 2287   7.040   0.847   7.400  1.5511 -0.0625  0.6095
  758MOL0     H 2288   6.743   0.781   7.379  1.0701 -5.4035 -1.7042
  758MOL0     H 2289   6.858   0.768   7.252  0.5660  1.0868 -1.8059
  758MOL0     H 2290   7.006   0.861   7.158 -0.2550  0.1724  1.7479
  758MOL0     H 2291   7.067   0.898   6.832 -0.2551  2.0328 -1.6016
  758MOL0     H 2292   7.208   0.989   6.889  0.3096 -0.4048 -0.9287
  758MOL0     H 2293   7.144   0.835   6.969 -1.9615 -0.1347 -0.4031
  758MOL0     H 2294   6.921   1.377   6.620  0.4699 -1.1634 -0.1212
  758MOL0     H 2295   7.001   1.509   6.434  2.3359  0.4262 -0.0409
  758MOL0     H 2296   7.152   1.563   6.269 -4.3501 -0.1303 -1.2246
  758MOL0     H 2297   7.037   1.688   6.330  0.4687  1.1950  0.1616
  758MOL0     H 2298   7.197   1.858   6.242 -1.9994  1.1984 -3.4380
  758MOL0     H 2299   7.309   1.723   6.193 -0.0022  0.4681 -4.6582
  758MOL0     H 2300   7.171   1.830   6.014  0.2991 -2.7459 -1.7569
  758MOL0     H 2301   7.033   1.752   6.109  0.3638 -4.3004  2.5448
  758MOL0     H 2302   7.286   1.633   5.968  1.8550 -1.4211  2.2399
  758MOL0     H 2303   7.154   1.543   6.039 -1.0956  1.4319  1.0252
  758MOL0     H 2304   7.135   1.744   5.813 -2.8219  0.3617  0.6073
  758MOL0     H 2305   7.016   1.632   5.843 -0.4264 -0.9235  1.0110
  758MOL0     H 2306   7.140   1.557   5.643  0.2872  2.2526  0.0133
  758MOL0     H 2307   7.290   1.553   5.734  0.6105 -1.3459 -1.3474
  758MOL0     H 2308   7.209   1.379   5.877 -3.0350 -0.3147  2.5023
  758MOL0     H 2309   7.229   1.323   5.718 -0.7604  0.6517 -2.0498
  758MOL0     H 2310   6.952   1.421   5.859 -1.0205 -0.8548 -0.3645
  758MOL0     H 2311   6.991   1.264   5.805  1.8541 -1.2860 -2.5805
  758MOL0     H 2312   7.276   1.698   6.700 -2.8439  3.3100  1.2766
  758MOL0     H 2313   7.211   1.561   6.878  0.8016  2.0542 -0.6251
  758MOL0     H 2314   6.858   1.318   7.043 -0.1539 -1.1517 -0.5664
  758MOL0     H 2315   6.756   1.207   7.214 -4.8061 -0.7955 -3.1172
  758MOL0     H 2316   7.687   1.967   6.880  1.9403  1.0516  0.2110
  758MOL0     H 2317   7.925   2.017   6.864  1.7818 -2.1378  1.1216
  758MOL0     H 2318   8.371   2.256   7.143 -0.4239  0.9746 -0.0963
  758MOL0     H 2319   8.617   2.191   7.177 -1.1438  0.6671 -0.5737
  758MOL0     H 2320   8.783   1.782   7.133  1.0221  0.9871  0.5283
  758MOL0     H 2321   8.723   1.827   6.960  4.1264  0.2146 -2.6623
  758MOL0     H 2322   8.940   1.960   6.944  1.0002  0.6708 -1.1627
  758MOL0     H 2323   8.955   1.783   6.953  0.6901  2.3579 -3.3320
  758MOL0     H 2324   9.056   1.779   7.163  1.0383 -0.4144 -1.0380
  758MOL0     H 2325   9.011   1.943   7.208  2.2807 -1.6023  2.6763
  758MOL0     H 2326   9.148   2.033   7.020  2.1466  0.0773  0.3214
  758MOL0     H 2327   9.184   1.858   6.968  0.0522 -2.1154  2.5609
  758MOL0     H 2328   9.443   1.886   7.273  1.1035  0.9029 -1.4941
  758MOL0     H 2329   8.530   1.798   7.044  4.5657 -0.1353  2.2240
  758MOL0     H 2330   8.290   1.858   7.012  0.9330 -3.2067  2.3757
  759MOL0     O 2331   0.974   9.751   6.701 -0.5040 -0.0345  1.2905
  759MOL0     C 2332   1.083   9.793   6.655 -0.8054 -0.5087  0.1657
  759MOL0     O 2333   1.181   9.721   6.600 -0.3711 -0.6056  0.2007
  759MOL0     C 2334   1.197   9.583   6.611  0.2326  0.1812  0.3053
  759MOL0     C 2335   1.120   9.481   6.670 -0.3163  0.0857  0.3889
  759MOL0     C 2336   1.184   9.351   6.682 -0.2818  0.0084  0.3083
  759MOL0     C 2337   1.305   9.317   6.613 -0.8635  1.9029 -0.4993
  759MOL0     O 2338   1.374   9.194   6.631 -0.0732 -0.4054 -0.5111
  759MOL0     C 2339   1.293   9.074   6.644 -0.7678 -1.1411 -0.1932
  759MOL0     C 2340   1.383   8.957   6.639  0.1731 -0.4605 -0.2295
  759MOL0     C 2341   1.478   8.957   6.515 -1.1395  0.3491  0.4849
  759MOL0     C 2342   1.575   8.838   6.507  1.0867  0.6931 -0.9077
  759MOL0     C 2343   1.662   8.858   6.368  0.9320  0.1490  0.0358
  759MOL0     C 2344   1.755   8.736   6.362  0.1972  0.5396  0.7750
  759MOL0     C 2345   1.687   8.610   6.298 -0.2397 -0.5191  0.5698
  759MOL0     C 2346   1.799   8.505   6.263 -0.2750 -0.9311  0.4114
  759MOL0     N 2347   1.750   8.388   6.210  0.6861 -0.3964 -0.0496
  759MOL0     C 2348   1.735   8.281   6.284  0.2715  0.7985 -0.9419
  759MOL0     C 2349   1.659   8.207   6.204  0.3186 -0.1074  0.0435
  759MOL0     C 2350   1.631   8.070   6.244  0.4110 -0.1967 -0.0824
  759MOL0     C 2351   1.723   7.971   6.170 -0.7583  0.1327 -0.4640
  759MOL0     C 2352   1.760   8.011   6.025  0.9338  0.3137  0.0747
  759MOL0     C 2353   1.808   7.882   5.959 -1.0913  0.5561  0.4537
  759MOL0     O 2354   1.876   7.914   5.834 -0.1238 -0.4205 -0.4060
  759MOL0     C 2355   1.909   7.818   5.743 -0.0051  0.6464 -0.6008
  759MOL0     C 2356   1.912   7.689   5.782 -0.5859  0.9786 -0.9373
  759MOL0     C 2357   1.953   7.578   5.703  0.4991  0.6551 -0.7219
  759MOL0     C 2358   1.943   7.439   5.762 -0.0664 -0.2787 -0.1172
  759MOL0     C 2359   1.990   7.612   5.571  0.0786  0.7316  0.1922
  759MOL0     C 2360   2.046   7.510   5.476 -0.0761 -0.6640  0.3890
  759MOL0     O 2361   2.094   7.561   5.361 -0.0385 -0.4938 -1.2150
  759MOL0     C 2362   2.161   7.477   5.280  0.3270 -0.8002 -0.8731
  759MOL0     C 2363   2.300   7.495   5.272  0.1621 -0.4719  0.6585
  759MOL0     C 2364   2.386   7.399   5.221 -0.3284 -0.1567 -0.3694
  759MOL0     C 2365   2.339   7.288   5.159  0.3408  0.1896 -0.4857
  759MOL0     O 2366   2.426   7.192   5.124 -0.7580 -0.0975  0.1411
  759MOL0     C 2367   2.380   7.056   5.113 -0.1766  0.1677  0.2626
  759MOL0     C 2368   2.509   6.968   5.093  0.4760  0.8880 -0.7164
  759MOL0     C 2369   2.488   6.809   5.086  0.1630 -0.0161  0.3924
  759MOL0     C 2370   2.379   6.760   5.181 -0.9936  0.8433  0.0627
  759MOL0     C 2371   2.388   6.604   5.164  0.4432  0.1428 -0.7776
  759MOL0     C 2372   2.271   6.522   5.236 -0.2239  0.0083  1.1666
  759MOL0     C 2373   2.157   6.485   5.148  0.2378  0.0551  0.5608
  759MOL0     C 2374   2.070   6.371   5.204 -0.3034 -0.5955 -0.0402
  759MOL0    Cl 2375   2.003   6.418   5.362  0.3078  0.1010  0.0712
  759MOL0     C 2376   2.195   7.271   5.159 -0.2142  0.5482 -0.6058
  759MOL0     C 2377   2.101   7.357   5.220 -0.7495 -0.1434  0.6364
  759MOL0     O 2378   2.054   7.395   5.511 -0.3786  0.6890 -0.8298
  759MOL0     C 2379   1.979   7.746   5.533 -0.3328 -0.6652 -0.3458
  759MOL0     C 2380   1.940   7.849   5.616 -0.9660  0.5305  0.1882
  759MOL0     N 2381   1.643   8.268   6.088 -0.1229  0.0547 -0.3213
  759MOL0     N 2382   1.694   8.382   6.094 -0.0122  0.1849 -0.1619
  759MOL0     C 2383   1.371   9.426   6.558  0.1873  0.5744  0.1471
  759MOL0     C 2384   1.317   9.556   6.547  0.2452  0.9386  1.5957
  759MOL0     C 2385   1.103   9.941   6.678 -0.0166 -0.1031 -0.1133
  759MOL0     C 2386   1.223  10.002   6.623  0.3342 -0.4564 -0.9212
  759MOL0     C 2387   1.249  10.141   6.646  0.1351 -0.2877 -0.0470
  759MOL0     C 2388   1.155  10.223   6.710  0.0585  0.1000  0.6905
  759MOL0     O 2389   1.195  10.352   6.734  0.6360 -0.1693 -0.2743
  759MOL0     C 2390   1.106  10.456   6.738 -0.2521 -0.0343  0.1160
  759MOL0     C 2391   1.161  10.575   6.807 -0.4848  0.1070  0.4501
  759MOL0     C 2392   1.217  10.539   6.950 -0.4008 -0.0118  0.5852
  759MOL0     C 2393   1.268  10.673   7.012  0.4016  0.1351  0.3423
  759MOL0     C 2394   1.404  10.710   6.979 -0.1032 -0.8950 -0.3465
  759MOL0     C 2395   1.521  10.719   6.948 -0.0865  1.0872 -0.3515
  759MOL0     C 2396   1.029  10.171   6.746  0.0179  0.6220 -0.0398
  759MOL0     C 2397   1.007  10.029   6.726 -0.3262  0.0362  0.1506
  759MOL0     H 2398   1.029   9.498   6.727 -1.2940 -0.3641 -1.0061
  759MOL0     H 2399   1.136   9.271   6.738  0.1332 -0.1946  0.3781
  759MOL0     H 2400   1.233   9.074   6.736  0.3200 -0.5186  0.5425
  759MOL0     H 2401   1.220   9.069   6.562  0.9360  1.3802 -2.0178
  759MOL0     H 2402   1.434   8.950   6.736 -0.1701  1.2683  0.1199
  759MOL0     H 2403   1.321   8.869   6.623  0.6518 -0.5165 -1.9172
  759MOL0     H 2404   1.429   8.967   6.418  0.6262  2.7879 -0.2409
  759MOL0     H 2405   1.546   9.042   6.528  0.3691 -0.8469  0.7472
  759MOL0     H 2406   1.645   8.852   6.590 -0.4667  0.1218  0.5566
  759MOL0     H 2407   1.521   8.747   6.536 -1.1809  2.9388  2.7868
  759MOL0     H 2408   1.598   8.856   6.280 -1.1890 -3.3719  1.4309
  759MOL0     H 2409   1.712   8.955   6.372 -0.2457  0.8745 -1.7145
  759MOL0     H 2410   1.835   8.758   6.291 -0.9835 -1.4144 -1.2877
  759MOL0     H 2411   1.792   8.700   6.459 -0.1505 -3.5781 -0.4384
  759MOL0     H 2412   1.623   8.569   6.377 -3.4258  1.9822 -0.4889
  759MOL0     H 2413   1.622   8.628   6.212  0.7161  0.1844 -0.0205
  759MOL0     H 2414   1.868   8.500   6.347  0.9527  2.5629 -0.2407
  759MOL0     H 2415   1.860   8.549   6.184 -1.3050  1.0538  0.6738
  759MOL0     H 2416   1.779   8.270   6.382 -0.2587 -0.5968 -0.8224
  759MOL0     H 2417   1.644   8.059   6.352  1.4276  0.1643 -0.1563
  759MOL0     H 2418   1.525   8.059   6.220  0.4549  1.2488 -1.0916
  759MOL0     H 2419   1.666   7.878   6.159 -0.0120 -0.0995 -3.0769
  759MOL0     H 2420   1.812   7.945   6.227 -1.8270 -2.1919  0.2768
  759MOL0     H 2421   1.841   8.083   6.020  1.6869 -0.5999 -2.6009
  759MOL0     H 2422   1.674   8.041   5.965  1.8099 -2.0323 -2.5794
  759MOL0     H 2423   1.725   7.815   5.933 -0.9265  1.5224 -3.1252
  759MOL0     H 2424   1.881   7.834   6.025 -1.1420  3.0931  2.5122
  759MOL0     H 2425   1.876   7.654   5.878  2.1752  1.0013  0.1938
  759MOL0     H 2426   1.907   7.442   5.865  0.3308  1.8245  0.0033
  759MOL0     H 2427   1.888   7.377   5.689 -0.9271  1.4109 -0.9575
  759MOL0     H 2428   2.044   7.399   5.764  0.5289  1.1437 -0.8872
  759MOL0     H 2429   2.340   7.583   5.321  1.5610 -1.4785  1.3947
  759MOL0     H 2430   2.493   7.412   5.222 -0.5041  1.4741  0.3537
  759MOL0     H 2431   2.331   7.029   5.207 -4.4803  0.9023 -1.5415
  759MOL0     H 2432   2.319   7.035   5.024  0.2023 -1.1581  0.2900
  759MOL0     H 2433   2.564   6.990   5.002  2.9932 -4.1371 -0.7887
  759MOL0     H 2434   2.573   6.988   5.180  0.3492 -0.9086 -0.1591
  759MOL0     H 2435   2.580   6.755   5.109  1.9424  2.2300 -1.0073
  759MOL0     H 2436   2.472   6.785   4.981  2.2919  1.5992 -0.3643
  759MOL0     H 2437   2.377   6.797   5.284 -2.3409 -1.7356  1.0489
  759MOL0     H 2438   2.278   6.777   5.142 -1.8277  1.1347  2.2048
  759MOL0     H 2439   2.487   6.579   5.204  0.9630 -2.0815 -3.1295
  759MOL0     H 2440   2.381   6.592   5.056 -1.0150  0.2535 -0.7102
  759MOL0     H 2441   2.305   6.430   5.286 -1.1581 -2.5729 -2.4805
  759MOL0     H 2442   2.231   6.577   5.321  0.8287 -2.6579  3.5585
  759MOL0     H 2443   2.182   6.451   5.047 -0.5857 -0.5430  0.5440
  759MOL0     H 2444   2.103   6.579   5.150  1.8877  1.0292  1.1835
  759MOL0     H 2445   2.119   6.273   5.207 -3.4675 -2.2895 -0.2198
  759MOL0     H 2446   1.979   6.346   5.149  1.1444 -2.9400 -1.5622
  759MOL0     H 2447   2.158   7.183   5.107  0.9765 -0.5109  0.2706
  759MOL0     H 2448   1.997   7.334   5.241 -0.3392 -1.2243  1.6159
  759MOL0     H 2449   2.016   7.781   5.438  1.1123  1.0029  0.7565
  759MOL0     H 2450   1.944   7.951   5.577  1.9163  0.2474 -0.4931
  759MOL0     H 2451   1.465   9.404   6.510 -1.0511 -0.1146 -2.0966
  759MOL0     H 2452   1.375   9.638   6.507 -0.3389  1.6223  2.1223
  759MOL0     H 2453   1.289   9.931   6.575 -0.1953 -0.7975 -1.1505
  759MOL0     H 2454   1.346  10.182   6.617 -0.8073  2.2213  0.1204
  759MOL0     H 2455   1.090  10.480   6.632  0.2897 -2.2512 -0.5182
  759MOL0     H 2456   1.009  10.430   6.779 -0.6889  3.0293  1.2861
  759MOL0     H 2457   1.083  10.651   6.805 -1.0697 -0.4967 -1.3614
  759MOL0     H 2458   1.240  10.620   6.745  1.0224  1.2870  3.0417
  759MOL0     H 2459   1.307  10.477   6.953 -1.9706 -2.3586  1.6922
  759MOL0     H 2460   1.144  10.477   7.002  2.1371 -1.9213  2.1188
  759MOL0     H 2461   1.259  10.668   7.121 -0.8494  1.2741  0.3137
  759MOL0     H 2462   1.202  10.757   6.988 -0.1170 -0.1027  0.8972
  759MOL0     H 2463   1.621  10.726   6.910  0.1516 -1.1507 -0.2943
  759MOL0     H 2464   0.943  10.225   6.786  1.1621  3.6114 -1.3515
  759MOL0     H 2465   0.912   9.979   6.744  0.0616 -0.7940 -0.0797
  760MOL0     O 2466   1.343   9.424   4.326  0.1765 -0.4226 -0.1976
  760MOL0     C 2467   1.359   9.473   4.216  0.2735  1.1136  0.5933
  760MOL0     O 2468   1.428   9.421   4.118  0.3617  0.4299  0.3259
  760MOL0     C 2469   1.476   9.298   4.134  0.1606  0.3593  0.1196
  760MOL0     C 2470   1.608   9.268   4.138 -0.5797  0.9563 -0.2161
  760MOL0     C 2471   1.649   9.137   4.166  0.1537  0.0727 -0.3810
  760MOL0     C 2472   1.558   9.031   4.174  0.0742  0.3983 -0.1004
  760MOL0     O 2473   1.595   8.905   4.204  0.3684 -0.0236 -0.9343
  760MOL0     C 2474   1.662   8.894   4.331  0.5013  0.0295  0.7371
  760MOL0     C 2475   1.644   8.763   4.406  0.7619  0.0822  0.7025
  760MOL0     C 2476   1.752   8.737   4.513 -0.1631  0.3879 -0.0416
  760MOL0     C 2477   1.744   8.852   4.620 -0.0187 -0.1681  0.0280
  760MOL0     C 2478   1.846   8.829   4.733  0.2996 -0.5871 -0.1203
  760MOL0     C 2479   1.993   8.776   4.695 -0.5067 -0.3744  0.6373
  760MOL0     C 2480   2.053   8.884   4.593  0.1947 -0.0088  0.5304
  760MOL0     C 2481   2.212   8.872   4.599 -0.6851 -0.8680  0.5933
  760MOL0     N 2482   2.261   8.963   4.503 -0.7474 -0.2906  1.1642
  760MOL0     C 2483   2.260   8.960   4.365 -0.5028 -0.7803 -0.7482
  760MOL0     C 2484   2.305   9.077   4.333 -0.5782  0.5778  0.1686
  760MOL0     C 2485   2.319   9.119   4.192 -0.1230 -0.7988  0.0709
  760MOL0     C 2486   2.192   9.199   4.161 -0.2428 -0.3001 -0.4321
  760MOL0     C 2487   2.210   9.287   4.039  0.4685 -0.1114 -0.1863
  760MOL0     C 2488   2.100   9.388   4.019  0.0792  0.2006 -1.2629
  760MOL0     O 2489   2.133   9.470   3.910  1.0447  0.4264 -1.4274
  760MOL0     C 2490   2.032   9.532   3.836 -0.2081 -0.3620  0.8763
  760MOL0     C 2491   1.896   9.555   3.868  0.1320  0.4375  0.2267
  760MOL0     C 2492   1.807   9.621   3.789 -0.4425 -0.4014 -1.0724
  760MOL0     C 2493   1.663   9.622   3.832  0.7856 -0.2295  0.1051
  760MOL0     C 2494   1.853   9.687   3.677 -0.1434  0.1206 -0.1068
  760MOL0     C 2495   1.775   9.786   3.594  0.0400  0.6631  0.2934
  760MOL0     O 2496   1.816   9.812   3.477 -0.4525 -0.5932  0.7165
  760MOL0     C 2497   1.723   9.854   3.379 -0.5621  0.1132 -0.6973
  760MOL0     C 2498   1.681   9.989   3.385 -0.1455 -0.2044 -0.2579
  760MOL0     C 2499   1.602  10.048   3.285  0.2484  0.0631  0.2584
  760MOL0     C 2500   1.566   9.957   3.178 -0.1631 -1.8106  0.4017
  760MOL0     O 2501   1.521  10.002   3.054 -0.0692 -0.4861 -0.3293
  760MOL0     C 2502   1.531  10.144   3.021  0.2225  0.5904  0.3523
  760MOL0     C 2503   1.464  10.156   2.882  0.2170  0.4457 -0.0184
  760MOL0     C 2504   1.506  10.287   2.815 -0.8525  0.1601 -0.9872
  760MOL0     C 2505   1.430  10.319   2.684  0.1559  0.3584  0.1274
  760MOL0     C 2506   1.391  10.471   2.679  0.1209 -0.8678  0.2438
  760MOL0     C 2507   1.326  10.528   2.547 -0.1735  0.1764 -0.6973
  760MOL0     C 2508   1.221  10.645   2.576 -0.4367 -0.0008 -0.3177
  760MOL0     C 2509   1.287  10.787   2.593 -0.5753 -0.4903  0.3645
  760MOL0    Cl 2510   1.358  10.848   2.428 -0.1245 -0.0975 -0.1220
  760MOL0     C 2511   1.586   9.823   3.175 -0.3853  0.3194  0.0372
  760MOL0     C 2512   1.667   9.774   3.284 -0.3840  0.7169  0.3828
  760MOL0     O 2513   1.672   9.840   3.640  0.1498  0.1507  0.2366
  760MOL0     C 2514   1.986   9.663   3.629 -0.2357  0.3908  0.2401
  760MOL0     C 2515   2.066   9.573   3.701  0.5658  0.8015  0.3110
  760MOL0     N 2516   2.350   9.139   4.442  0.1325 -0.1522  0.3759
  760MOL0     N 2517   2.326   9.071   4.551 -0.1020  0.7363 -0.1413
  760MOL0     C 2518   1.418   9.056   4.175 -0.6821 -1.4330 -0.0458
  760MOL0     C 2519   1.384   9.194   4.152 -0.0185  0.0946 -0.2423
  760MOL0     C 2520   1.284   9.597   4.185 -1.1211 -0.0268  0.8265
  760MOL0     C 2521   1.254   9.651   4.059  0.1797 -0.5962  0.1126
  760MOL0     C 2522   1.191   9.774   4.042 -1.3057 -0.8991 -0.0938
  760MOL0     C 2523   1.147   9.849   4.152  0.1215 -0.5462  0.3685
  760MOL0     O 2524   1.080   9.966   4.143 -0.5370 -0.2179 -0.1804
  760MOL0     C 2525   1.015  10.014   4.025 -0.4866  0.0162  0.3346
  760MOL0     C 2526   0.919   9.910   3.949 -0.8497 -0.5729  0.1597
  760MOL0     C 2527   0.856   9.981   3.826 -0.4178  0.9372  0.2038
  760MOL0     C 2528   0.766   9.883   3.740  0.2206 -0.7085 -1.1594
  760MOL0     C 2529   0.697   9.955   3.639  0.1301  0.4589  0.1668
  760MOL0     C 2530   0.620   9.992   3.557 -0.1920  0.0718 -0.8432
  760MOL0     C 2531   1.168   9.793   4.282 -1.2565  0.1382 -0.1360
  760MOL0     C 2532   1.234   9.665   4.295  0.9437  0.3571 -1.0609
  760MOL0     H 2533   1.675   9.351   4.117 -0.5161  0.1511 -3.8059
  760MOL0     H 2534   1.756   9.130   4.182  0.2583  2.9433  0.7626
  760MOL0     H 2535   1.770   8.902   4.312  0.3357 -1.3734 -1.1971
  760MOL0     H 2536   1.625   8.974   4.395 -3.1331  0.4174 -1.5709
  760MOL0     H 2537   1.543   8.763   4.449  0.7302  1.2041  0.6717
  760MOL0     H 2538   1.642   8.687   4.327 -0.4193  2.3295 -1.6035
  760MOL0     H 2539   1.744   8.648   4.576  1.5107  1.2444  1.4484
  760MOL0     H 2540   1.851   8.732   4.466 -0.8040  0.0009 -1.4001
  760MOL0     H 2541   1.774   8.952   4.587 -1.6821  0.3424 -0.0202
  760MOL0     H 2542   1.643   8.869   4.659 -0.1310  3.7165 -1.5266
  760MOL0     H 2543   1.856   8.920   4.794 -2.9316  0.2209 -0.6053
  760MOL0     H 2544   1.810   8.755   4.804 -1.6343  1.8460  1.6198
  760MOL0     H 2545   2.049   8.773   4.789 -2.1979 -0.6037  1.6917
  760MOL0     H 2546   1.991   8.672   4.660 -4.0176 -1.6502  3.9008
  760MOL0     H 2547   2.024   8.859   4.490  1.7744  0.0233  0.0581
  760MOL0     H 2548   2.014   8.986   4.604 -0.1715 -0.2605  1.7508
  760MOL0     H 2549   2.251   8.771   4.582  1.2329 -0.4704  2.2196
  760MOL0     H 2550   2.241   8.919   4.693  1.3468  0.4329 -0.6112
  760MOL0     H 2551   2.220   8.887   4.295 -0.2532 -0.3283 -1.3730
  760MOL0     H 2552   2.400   9.190   4.174 -0.3298  0.5493  3.6231
  760MOL0     H 2553   2.316   9.034   4.124  2.1815 -0.2528 -0.7789
  760MOL0     H 2554   2.165   9.253   4.252 -0.5593 -2.1352  0.6206
  760MOL0     H 2555   2.106   9.135   4.138 -0.3275 -0.0873 -0.7183
  760MOL0     H 2556   2.223   9.235   3.944  0.4500  1.1333 -0.8866
  760MOL0     H 2557   2.304   9.342   4.056 -0.0549  1.1934 -1.3253
  760MOL0     H 2558   2.078   9.439   4.113 -0.8201 -0.7225 -0.9665
  760MOL0     H 2559   2.009   9.329   4.008  0.2361 -0.9831  2.5320
  760MOL0     H 2560   1.868   9.511   3.963  1.2771 -0.1427  0.3068
  760MOL0     H 2561   1.627   9.724   3.850  3.6336  0.8148  0.3151
  760MOL0     H 2562   1.616   9.578   3.743  1.0402 -1.5544  0.5942
  760MOL0     H 2563   1.645   9.566   3.924  0.8117 -2.0864 -0.9701
  760MOL0     H 2564   1.689  10.064   3.462  0.5105  1.1227 -1.5652
  760MOL0     H 2565   1.569  10.150   3.301  1.4859  0.3271  1.3469
  760MOL0     H 2566   1.489  10.208   3.099 -2.8933 -0.3007 -0.4596
  760MOL0     H 2567   1.635  10.174   3.006 -0.2218  3.2903  2.0906
  760MOL0     H 2568   1.489  10.062   2.832 -0.6076  0.4631 -0.4814
  760MOL0     H 2569   1.357  10.163   2.907  0.1933  1.5284 -0.3869
  760MOL0     H 2570   1.612  10.281   2.788 -0.7601 -2.8344 -0.2962
  760MOL0     H 2571   1.498  10.367   2.889 -2.7333  0.3651 -1.3520
  760MOL0     H 2572   1.489  10.305   2.593 -1.0586  0.2611 -0.6738
  760MOL0     H 2573   1.342  10.257   2.662  0.7058 -0.0368 -1.0847
  760MOL0     H 2574   1.480  10.531   2.698 -1.9491  2.3372  0.4544
  760MOL0     H 2575   1.316  10.500   2.753 -0.4980  1.6349 -1.2723
  760MOL0     H 2576   1.409  10.563   2.485  0.2671  2.6002  1.1112
  760MOL0     H 2577   1.283  10.435   2.507  1.3912 -1.4242  1.1451
  760MOL0     H 2578   1.166  10.629   2.669  0.5471  0.9789  0.4662
  760MOL0     H 2579   1.159  10.652   2.486  1.6772  2.2249 -1.7543
  760MOL0     H 2580   1.364  10.791   2.670  1.2092  3.1363 -1.3552
  760MOL0     H 2581   1.208  10.857   2.622  0.1228  0.2480  0.5168
  760MOL0     H 2582   1.561   9.759   3.092  3.0594  1.0099 -1.6963
  760MOL0     H 2583   1.693   9.668   3.287 -3.2218 -0.0583  0.1282
  760MOL0     H 2584   2.027   9.708   3.539  0.7707 -0.3569  0.3098
  760MOL0     H 2585   2.169   9.566   3.669  1.1580  4.1085  1.1522
  760MOL0     H 2586   1.346   8.979   4.199 -1.1330 -1.1941 -0.6087
  760MOL0     H 2587   1.278   9.210   4.136 -0.1883 -0.8753 -0.1688
  760MOL0     H 2588   1.281   9.593   3.971  2.3118 -0.3482  0.5432
  760MOL0     H 2589   1.184   9.812   3.941  4.0644 -2.3967 -1.3352
  760MOL0     H 2590   0.946  10.091   4.061 -2.7346 -2.2329  1.1551
  760MOL0     H 2591   1.096  10.056   3.965  0.2657 -2.3004 -0.3779
  760MOL0     H 2592   0.831   9.896   4.014 -1.2334 -0.0225 -0.2292
  760MOL0     H 2593   0.968   9.825   3.902  3.2205  2.5157 -1.8639
  760MOL0     H 2594   0.930  10.025   3.759 -2.7618  0.5543 -2.8834
  760MOL0     H 2595   0.791  10.064   3.855 -0.1982  0.6982  1.4330
  760MOL0     H 2596   0.693   9.823   3.794  0.7350 -1.9261 -1.7779
  760MOL0     H 2597   0.828   9.817   3.679 -2.5079 -1.8131 -2.9206
  760MOL0     H 2598   0.553  10.021   3.479 -2.6245 -0.8800  0.7792
  760MOL0     H 2599   1.132   9.856   4.362 -0.0852  3.6695 -2.1425
  760MOL0     H 2600   1.220   9.616   4.391 -0.6410  1.1840 -0.8482
  761MOL0     O 2601   0.352   5.251   6.976  0.9201  0.0112 -0.0529
  761MOL0     C 2602   0.225   5.260   6.978 -0.1395  0.0831 -0.3012
  761MOL0     O 2603   0.155   5.371   6.976  0.8044 -0.0216 -0.5044
  761MOL0     C 2604   0.215   5.497   6.966  1.1162 -0.2578  0.6991
  761MOL0     C 2605   0.315   5.522   6.874 -0.4257  0.3470  0.1266
  761MOL0     C 2606   0.373   5.655   6.867  0.5663 -0.4976  0.0066
  761MOL0     C 2607   0.330   5.757   6.951 -0.0662 -0.1257 -0.5915
  761MOL0     O 2608   0.396   5.872   6.928  0.0211 -1.0212  1.0769
  761MOL0     C 2609   0.367   5.983   7.012 -0.1656 -0.7593  0.0772
  761MOL0     C 2610   0.477   5.981   7.123 -0.3991 -0.2781 -0.0898
  761MOL0     C 2611   0.474   6.102   7.225 -0.2729  0.0507  0.2303
  761MOL0     C 2612   0.563   6.067   7.349  0.2879  0.1049  0.9380
  761MOL0     C 2613   0.525   6.138   7.486 -0.7866  0.5797 -0.2785
  761MOL0     C 2614   0.603   6.088   7.605 -0.3554  0.7258  0.3939
  761MOL0     C 2615   0.588   5.946   7.643 -0.8929  0.1261 -0.3664
  761MOL0     C 2616   0.651   5.909   7.777  0.1494 -0.3910  0.4295
  761MOL0     N 2617   0.558   5.929   7.889  0.6233  0.4728  0.2566
  761MOL0     C 2618   0.465   5.835   7.922  0.1465  0.9587  1.4265
  761MOL0     C 2619   0.384   5.901   8.000 -0.1449 -0.1026 -0.0350
  761MOL0     C 2620   0.255   5.861   8.068  0.2125  0.9230  0.4909
  761MOL0     C 2621   0.271   5.761   8.177 -0.5079  0.5210 -0.4755
  761MOL0     C 2622   0.141   5.745   8.256 -0.0186  0.1206 -0.2032
  761MOL0     C 2623   0.148   5.682   8.396  0.0180  0.1059 -0.4249
  761MOL0     O 2624   0.018   5.654   8.447  0.5494 -0.0001 -0.3124
  761MOL0     C 2625   0.013   5.648   8.586 -0.2067 -0.2722 -0.9453
  761MOL0     C 2626   0.115   5.632   8.684 -0.3643 -0.7706 -0.5210
  761MOL0     C 2627   0.080   5.617   8.820 -0.3507  0.6811  0.1639
  761MOL0     C 2628   0.196   5.599   8.923 -0.7946 -0.2694 -0.0955
  761MOL0     C 2629  -0.053   5.633   8.862 -1.1346 -0.0959  1.0605
  761MOL0     C 2630  -0.094   5.610   9.001 -0.1154 -0.4753 -0.3943
  761MOL0     O 2631  -0.213   5.542   9.028  0.6504 -0.5759  0.5091
  761MOL0     C 2632  -0.262   5.537   9.152 -0.1735  0.9017 -0.1338
  761MOL0     C 2633  -0.344   5.638   9.199 -0.6319 -0.3427  0.0343
  761MOL0     C 2634  -0.403   5.633   9.333  0.2356  0.7435  0.4469
  761MOL0     C 2635  -0.373   5.527   9.412 -0.0669  0.4157  0.5149
  761MOL0     O 2636  -0.436   5.519   9.531  0.5625 -0.1528  0.3700
  761MOL0     C 2637  -0.360   5.601   9.629 -0.2182  0.9543 -0.9623
  761MOL0     C 2638  -0.208   5.573   9.652 -0.8430  0.2175  0.3412
  761MOL0     C 2639  -0.190   5.469   9.758 -0.2373 -0.3360  0.8183
  761MOL0     C 2640  -0.238   5.329   9.709  0.1603 -0.0964 -0.4398
  761MOL0     C 2641  -0.251   5.230   9.820 -0.9714  0.4041  0.2599
  761MOL0     C 2642  -0.124   5.205   9.905  0.6286  0.4319  0.0294
  761MOL0     C 2643  -0.131   5.062   9.952  1.1366  0.6755  0.1072
  761MOL0     C 2644   0.004   5.037  10.023 -0.6747  0.1824  0.0489
  761MOL0    Cl 2645   0.130   4.943   9.927  0.1559 -0.1715 -0.2580
  761MOL0     C 2646  -0.292   5.423   9.366  0.1678  0.2295 -0.2138
  761MOL0     C 2647  -0.237   5.428   9.231 -0.5428 -0.2422 -0.1414
  761MOL0     O 2648  -0.028   5.656   9.096  0.0696 -0.4382  0.0509
  761MOL0     C 2649  -0.152   5.655   8.767 -0.6107  0.8855 -0.4153
  761MOL0     C 2650  -0.121   5.661   8.634 -0.7133  0.6474  0.3070
  761MOL0     N 2651   0.424   6.034   8.003  0.4135 -0.7942  0.8603
  761MOL0     N 2652   0.533   6.045   7.937  0.2651  0.0545 -0.0504
  761MOL0     C 2653   0.225   5.726   7.042  1.0317 -0.2416 -0.8295
  761MOL0     C 2654   0.165   5.603   7.051  0.1297  0.6828  0.3943
  761MOL0     C 2655   0.146   5.134   6.963 -0.0900  0.5658 -0.5060
  761MOL0     C 2656   0.208   5.011   6.946  0.6849  0.5643  0.0022
  761MOL0     C 2657   0.129   4.898   6.940 -0.3321  0.2608 -0.5546
  761MOL0     C 2658  -0.009   4.908   6.948 -0.4195 -0.0017 -0.0925
  761MOL0     O 2659  -0.070   4.787   6.938  0.7382  0.5537  1.4595
  761MOL0     C 2660  -0.196   4.760   7.017 -0.0288  0.1744  0.7791
  761MOL0     C 2661  -0.209   4.603   7.044 -0.4070  0.4574 -0.3884
  761MOL0     C 2662  -0.210   4.515   6.918  0.5097  0.5093  0.4565
  761MOL0     C 2663  -0.269   4.380   6.935 -0.4911 -0.3225  0.2083
  761MOL0     C 2664  -0.160   4.294   6.984 -0.5346  0.4685  0.1526
  761MOL0     C 2665  -0.073   4.222   7.025  0.0963  0.7188 -0.3105
  761MOL0     C 2666  -0.071   5.036   6.958  0.4639  0.9734 -0.6987
  761MOL0     C 2667   0.007   5.143   6.964 -0.2487  0.0962 -0.5357
  761MOL0     H 2668   0.354   5.445   6.808  2.3284 -1.4007  3.5053
  761MOL0     H 2669   0.454   5.669   6.797  0.4700  0.2857  0.0495
  761MOL0     H 2670   0.381   6.076   6.956  2.2519 -1.4347 -0.5568
  761MOL0     H 2671   0.265   5.987   7.051  0.7134 -1.6322  2.6907
  761MOL0     H 2672   0.451   5.895   7.186 -4.3877 -1.2330 -2.7047
  761MOL0     H 2673   0.581   5.973   7.090  0.0412 -1.4604  1.4394
  761MOL0     H 2674   0.505   6.191   7.170 -2.5327 -0.3348 -1.8675
  761MOL0     H 2675   0.373   6.122   7.260 -1.4440 -2.6257 -1.2962
  761MOL0     H 2676   0.556   5.960   7.367 -1.3138  0.2600  1.3973
  761MOL0     H 2677   0.665   6.092   7.317  0.1086  0.0347  0.3052
  761MOL0     H 2678   0.537   6.247   7.478 -0.3361  0.5266 -0.3337
  761MOL0     H 2679   0.425   6.107   7.518 -0.5555  2.1414  2.2816
  761MOL0     H 2680   0.708   6.104   7.581  0.2122 -1.9774  0.7403
  761MOL0     H 2681   0.574   6.155   7.687 -1.6074  0.1481  0.4465
  761MOL0     H 2682   0.481   5.924   7.645 -1.4996  2.8468  1.3059
  761MOL0     H 2683   0.637   5.872   7.578  2.9936  0.0442  2.3121
  761MOL0     H 2684   0.738   5.970   7.803 -1.8550  1.6777  2.9351
  761MOL0     H 2685   0.680   5.804   7.787  0.5497 -0.0843  3.8783
  761MOL0     H 2686   0.451   5.735   7.884  2.0323 -0.7634  4.8177
  761MOL0     H 2687   0.199   5.949   8.100 -3.2643 -1.6764  2.2878
  761MOL0     H 2688   0.197   5.802   7.995  1.8970 -1.1291  0.7391
  761MOL0     H 2689   0.341   5.805   8.249 -0.6028  1.9398 -1.2182
  761MOL0     H 2690   0.309   5.664   8.143  2.5140  0.9813  1.1813
  761MOL0     H 2691   0.077   5.677   8.199 -2.1933 -0.6609  2.9301
  761MOL0     H 2692   0.094   5.843   8.268 -0.8597 -0.3546  0.4608
  761MOL0     H 2693   0.202   5.741   8.471 -1.4330 -1.0151  1.6057
  761MOL0     H 2694   0.203   5.588   8.382  2.7588  1.8855 -2.7458
  761MOL0     H 2695   0.219   5.643   8.655 -0.5827  2.2853 -0.5228
  761MOL0     H 2696   0.197   5.665   9.010 -0.7521 -2.7920  1.9285
  761MOL0     H 2697   0.214   5.499   8.962 -0.2340 -0.2427 -0.2810
  761MOL0     H 2698   0.291   5.616   8.872 -0.9720  0.5779 -0.1545
  761MOL0     H 2699  -0.361   5.716   9.126  0.2889 -0.4528 -0.3075
  761MOL0     H 2700  -0.477   5.708   9.359  0.5144  1.1114  0.1838
  761MOL0     H 2701  -0.358   5.702   9.587  1.8074  0.3948 -2.3699
  761MOL0     H 2702  -0.414   5.612   9.724 -1.9827 -4.1256 -1.0953
  761MOL0     H 2703  -0.166   5.538   9.557  0.1640 -1.6195  1.4226
  761MOL0     H 2704  -0.168   5.667   9.690 -3.4863  1.7876 -0.4988
  761MOL0     H 2705  -0.230   5.497   9.856  0.8499  1.3020  0.8394
  761MOL0     H 2706  -0.082   5.457   9.775  0.3056  0.7528 -1.4433
  761MOL0     H 2707  -0.342   5.335   9.675  0.1323 -3.9753 -1.5037
  761MOL0     H 2708  -0.175   5.294   9.627  0.0476 -0.3545 -0.4163
  761MOL0     H 2709  -0.282   5.138   9.771 -0.5553  1.8647 -3.0340
  761MOL0     H 2710  -0.335   5.255   9.885 -2.2748  1.6509 -1.7839
  761MOL0     H 2711  -0.030   5.212   9.851  1.8569 -0.3721  1.9422
  761MOL0     H 2712  -0.121   5.275   9.989 -2.8065  0.3776  0.3578
  761MOL0     H 2713  -0.152   4.985   9.878 -1.0965  1.4307 -0.1216
  761MOL0     H 2714  -0.209   5.052  10.029 -2.2973  2.3894 -2.8430
  761MOL0     H 2715  -0.020   4.965  10.101 -0.0595  0.4660  0.5133
  761MOL0     H 2716   0.042   5.133  10.059  1.4880 -0.3840 -0.5628
  761MOL0     H 2717  -0.280   5.332   9.424  0.0048  0.4232  0.1213
  761MOL0     H 2718  -0.172   5.349   9.195  1.7855 -1.3237  5.3249
  761MOL0     H 2719  -0.257   5.667   8.792 -1.1108 -2.4018 -0.4900
  761MOL0     H 2720  -0.205   5.671   8.567  0.0731 -5.1673 -2.0748
  761MOL0     H 2721   0.188   5.808   7.102 -0.0909 -2.7047  2.0903
  761MOL0     H 2722   0.076   5.588   7.111 -1.5618 -0.0518 -2.1053
  761MOL0     H 2723   0.317   5.008   6.944  0.8146 -0.5939  3.0752
  761MOL0     H 2724   0.174   4.802   6.958 -3.5398 -1.4344 -0.7700
  761MOL0     H 2725  -0.190   4.820   7.109 -0.6638 -0.3135  1.1553
  761MOL0     H 2726  -0.280   4.794   6.955 -0.3780 -0.0817  1.1083
  761MOL0     H 2727  -0.294   4.574   7.107  0.9395 -1.3421  0.6876
  761MOL0     H 2728  -0.132   4.569   7.114 -0.2997  1.5700  0.0549
  761MOL0     H 2729  -0.106   4.509   6.882  1.5281  0.5384  3.1905
  761MOL0     H 2730  -0.284   4.568   6.857  1.6238  1.8791  0.2389
  761MOL0     H 2731  -0.294   4.350   6.833  0.7006  0.1995 -0.2560
  761MOL0     H 2732  -0.360   4.380   6.996 -0.8366  0.3476 -0.2900
  761MOL0     H 2733   0.015   4.178   7.066  0.4579  1.4417 -0.2915
  761MOL0     H 2734  -0.179   5.045   6.966  0.4483  0.7530 -0.6617
  761MOL0     H 2735  -0.048   5.236   6.972 -0.3916 -0.0900  0.9101
  762MOL0     O 2736   1.469   4.600   7.482 -0.4190  0.1395 -0.0854
  762MOL0     C 2737   1.393   4.545   7.571  0.7772  0.0825 -0.4306
  762MOL0     O 2738   1.288   4.453   7.538 -0.9593 -0.7008 -0.3999
  762MOL0     C 2739   1.285   4.397   7.408 -0.0849  0.5230 -0.2738
  762MOL0     C 2740   1.159   4.377   7.354  0.5119 -0.4194 -0.0908
  762MOL0     C 2741   1.142   4.313   7.226 -0.3711  0.2737 -0.3319
  762MOL0     C 2742   1.256   4.268   7.163 -0.2612  0.5471 -0.8413
  762MOL0     O 2743   1.255   4.227   7.035 -0.0038  0.5907 -0.0270
  762MOL0     C 2744   1.181   4.304   6.939  0.2793  0.2902 -0.1986
  762MOL0     C 2745   1.255   4.442   6.935 -0.4018 -0.4303 -0.0046
  762MOL0     C 2746   1.186   4.529   6.839  0.4559 -0.7764 -0.1524
  762MOL0     C 2747   1.050   4.593   6.888 -0.4022  0.1046  1.0266
  762MOL0     C 2748   1.003   4.730   6.826 -1.4001  0.4119  0.2868
  762MOL0     C 2749   0.969   4.722   6.680  0.7611  0.4747 -0.1478
  762MOL0     C 2750   1.087   4.750   6.584 -0.0339  0.4963 -0.6544
  762MOL0     C 2751   1.040   4.722   6.438  0.2741  0.2694 -1.4971
  762MOL0     N 2752   1.137   4.756   6.339 -0.0496  0.3226  0.7896
  762MOL0     C 2753   1.191   4.663   6.256  0.0412  0.5050  0.1842
  762MOL0     C 2754   1.264   4.731   6.169 -0.1657 -0.3349 -0.4429
  762MOL0     C 2755   1.348   4.661   6.067  0.4528 -0.3664 -0.0626
  762MOL0     C 2756   1.280   4.641   5.929  0.7968 -0.5241  0.7542
  762MOL0     C 2757   1.372   4.576   5.825  0.3396  0.1843  0.0673
  762MOL0     C 2758   1.501   4.650   5.808  0.0039  0.7392 -0.6981
  762MOL0     O 2759   1.489   4.787   5.755  0.4331  0.0408  0.4330
  762MOL0     C 2760   1.608   4.864   5.757  0.5538 -0.3678  0.3590
  762MOL0     C 2761   1.585   4.998   5.787  0.2980  0.2474 -0.4580
  762MOL0     C 2762   1.683   5.086   5.812 -0.1386  0.7568 -0.8828
  762MOL0     C 2763   1.654   5.224   5.858 -0.2918 -0.1657 -0.9565
  762MOL0     C 2764   1.821   5.039   5.795 -0.9490 -0.3020  0.5857
  762MOL0     C 2765   1.938   5.136   5.819  0.7257 -0.1671 -0.7224
  762MOL0     O 2766   2.060   5.077   5.795  0.3832  0.5111 -0.6546
  762MOL0     C 2767   2.166   5.162   5.769 -0.2899  0.1372  0.3989
  762MOL0     C 2768   2.282   5.122   5.831  0.6507 -0.1188  0.4847
  762MOL0     C 2769   2.408   5.169   5.791  0.8648 -0.0711  0.0301
  762MOL0     C 2770   2.415   5.283   5.712  0.3419  0.7539  0.9009
  762MOL0     O 2771   2.538   5.343   5.685 -0.0848  0.6921 -0.8169
  762MOL0     C 2772   2.624   5.365   5.807 -0.6488 -0.5161 -0.5699
  762MOL0     C 2773   2.712   5.487   5.776 -0.4729  1.0734 -0.3976
  762MOL0     C 2774   2.815   5.479   5.662 -0.3427  0.7983 -1.0155
  762MOL0     C 2775   2.758   5.525   5.525 -0.4645  0.3388  0.1799
  762MOL0     C 2776   2.867   5.499   5.423  0.2982 -0.2272 -0.2144
  762MOL0     C 2777   2.822   5.507   5.281  0.9981  0.4156  0.1034
  762MOL0     C 2778   2.703   5.417   5.237  0.1917 -0.4278  0.1740
  762MOL0     C 2779   2.695   5.416   5.080 -0.0153  0.4950 -0.1213
  762MOL0    Cl 2780   2.844   5.370   4.990  0.3003 -0.5341  0.4400
  762MOL0     C 2781   2.297   5.331   5.657 -0.7629 -0.5844  0.2226
  762MOL0     C 2782   2.175   5.274   5.689  0.3702 -0.5512 -0.0709
  762MOL0     O 2783   1.931   5.248   5.867  0.6912 -0.0562  0.2238
  762MOL0     C 2784   1.849   4.909   5.749  0.2296  0.5472 -0.7626
  762MOL0     C 2785   1.739   4.820   5.730 -0.1706  1.4309 -0.4901
  762MOL0     N 2786   1.237   4.867   6.181 -0.2248 -0.7559  0.3235
  762MOL0     N 2787   1.153   4.876   6.282 -0.0031  0.3606  0.6758
  762MOL0     C 2788   1.384   4.282   7.219  0.9659 -0.2621 -0.7856
  762MOL0     C 2789   1.398   4.347   7.335  0.1553  0.3764  0.2871
  762MOL0     C 2790   1.421   4.581   7.718  0.0732  0.6574  1.2196
  762MOL0     C 2791   1.535   4.661   7.751 -0.1489 -0.4210  0.4776
  762MOL0     C 2792   1.558   4.702   7.884 -0.7153 -1.0221 -0.9450
  762MOL0     C 2793   1.473   4.664   7.987  1.2545  1.1875  0.6877
  762MOL0     O 2794   1.472   4.722   8.111  0.1588  0.2495  0.5046
  762MOL0     C 2795   1.376   4.818   8.120  0.7618 -0.6863  0.1199
  762MOL0     C 2796   1.425   4.955   8.073  0.4239 -0.1295 -0.1421
  762MOL0     C 2797   1.366   5.049   8.168 -0.0290 -0.4175  0.6522
  762MOL0     C 2798   1.384   5.195   8.129 -0.2201  0.4869 -0.5009
  762MOL0     C 2799   1.284   5.273   8.201 -0.2075  0.3881  0.6039
  762MOL0     C 2800   1.198   5.345   8.245  0.3032 -0.4833  0.4330
  762MOL0     C 2801   1.380   4.563   7.955 -0.3372 -0.6007 -0.5429
  762MOL0     C 2802   1.345   4.536   7.818  0.6110  0.6395 -0.8690
  762MOL0     H 2803   1.073   4.415   7.408 -0.3309 -1.2421 -0.8179
  762MOL0     H 2804   1.043   4.310   7.181 -1.2714 -0.2647  1.5775
  762MOL0     H 2805   1.191   4.253   6.843 -0.8828 -1.8503  0.7412
  762MOL0     H 2806   1.075   4.325   6.960  0.1889 -0.2994 -0.0345
  762MOL0     H 2807   1.263   4.490   7.033 -0.6739 -0.2523 -0.0691
  762MOL0     H 2808   1.358   4.431   6.899 -0.3021 -3.4838  0.9160
  762MOL0     H 2809   1.244   4.622   6.849 -0.1598 -0.5011  1.0165
  762MOL0     H 2810   1.179   4.494   6.735  1.5551 -0.7807 -0.2392
  762MOL0     H 2811   0.970   4.521   6.868  0.0978  0.2251 -1.8841
  762MOL0     H 2812   1.062   4.619   6.994 -0.0922  0.4010  0.9202
  762MOL0     H 2813   0.925   4.770   6.892  0.1166  1.1625  1.6779
  762MOL0     H 2814   1.078   4.809   6.832 -1.1332  0.1903 -0.0907
  762MOL0     H 2815   0.922   4.624   6.665  2.5207 -0.3593 -0.5240
  762MOL0     H 2816   0.897   4.804   6.673 -0.3364 -0.4635 -0.1032
  762MOL0     H 2817   1.125   4.853   6.591  1.1479  0.0356  0.0443
  762MOL0     H 2818   1.170   4.680   6.596 -1.9533 -2.1003 -1.6022
  762MOL0     H 2819   0.951   4.784   6.420 -0.2095 -0.1401 -0.5987
  762MOL0     H 2820   1.013   4.618   6.419 -2.3654  0.7161 -0.5754
  762MOL0     H 2821   1.177   4.556   6.265 -0.5785  0.5926  0.3681
  762MOL0     H 2822   1.437   4.723   6.061  1.7566 -1.8554  2.2589
  762MOL0     H 2823   1.364   4.556   6.094 -0.5014 -0.9919 -1.7520
  762MOL0     H 2824   1.250   4.729   5.872  1.3869  0.3206  1.7074
  762MOL0     H 2825   1.191   4.577   5.932  0.6497 -0.5580 -1.9128
  762MOL0     H 2826   1.317   4.557   5.732  2.3218 -2.8598 -0.6407
  762MOL0     H 2827   1.401   4.475   5.854  2.0743  0.5515 -0.2692
  762MOL0     H 2828   1.555   4.575   5.750 -3.3250 -2.4058 -0.1142
  762MOL0     H 2829   1.560   4.665   5.899 -0.5645 -0.9027 -0.0025
  762MOL0     H 2830   1.483   5.032   5.804  1.0861  1.4600  2.6287
  762MOL0     H 2831   1.548   5.250   5.860 -0.5423 -1.1917 -0.3448
  762MOL0     H 2832   1.686   5.243   5.960  2.1466 -0.2367 -1.6496
  762MOL0     H 2833   1.695   5.296   5.787  0.3706  0.2111 -0.2020
  762MOL0     H 2834   2.274   5.035   5.896  1.3438 -0.1469  0.5482
  762MOL0     H 2835   2.493   5.124   5.840  0.4961  0.3475  1.0867
  762MOL0     H 2836   2.566   5.389   5.897  1.3809  0.1088  0.6360
  762MOL0     H 2837   2.686   5.277   5.827 -0.0975  0.0136  0.0820
  762MOL0     H 2838   2.651   5.574   5.752 -1.3296 -0.6926 -6.2232
  762MOL0     H 2839   2.768   5.503   5.869  0.6700  1.1830 -1.0864
  762MOL0     H 2840   2.864   5.381   5.650 -1.1759  0.3899 -1.1486
  762MOL0     H 2841   2.901   5.533   5.703  0.3773 -3.4789  4.1961
  762MOL0     H 2842   2.667   5.468   5.506  2.6543 -5.5022  0.5228
  762MOL0     H 2843   2.735   5.632   5.516  1.5215  0.7495 -0.6200
  762MOL0     H 2844   2.911   5.399   5.427 -1.4406 -0.9912  0.5672
  762MOL0     H 2845   2.947   5.572   5.441  0.5892 -1.2107  3.2412
  762MOL0     H 2846   2.791   5.611   5.265  1.5868  0.8226  1.4803
  762MOL0     H 2847   2.908   5.483   5.218  1.3937 -2.3992  1.5548
  762MOL0     H 2848   2.606   5.447   5.279  0.3793  1.4718 -0.6478
  762MOL0     H 2849   2.736   5.318   5.269  3.0043 -0.1772 -1.5970
  762MOL0     H 2850   2.664   5.512   5.039 -0.6981  0.0327 -0.7238
  762MOL0     H 2851   2.620   5.342   5.047  1.9424 -1.3528 -0.6387
  762MOL0     H 2852   2.304   5.404   5.578 -0.7580 -1.2129 -0.3695
  762MOL0     H 2853   2.078   5.297   5.647  0.4597 -1.8950 -1.0747
  762MOL0     H 2854   1.952   4.876   5.747 -0.6484 -2.5354 -0.8276
  762MOL0     H 2855   1.740   4.724   5.679 -3.6514  0.2957  1.2566
  762MOL0     H 2856   1.470   4.235   7.172  3.5952 -0.7832  3.8630
  762MOL0     H 2857   1.493   4.390   7.365 -0.8401  1.1965  2.5023
  762MOL0     H 2858   1.599   4.705   7.675 -1.1448  0.3804  0.0882
  762MOL0     H 2859   1.625   4.786   7.898  0.5884 -2.0128 -1.0197
  762MOL0     H 2860   1.287   4.791   8.062  0.4680 -0.9139  0.6747
  762MOL0     H 2861   1.336   4.833   8.220 -0.7065  2.0069 -0.7583
  762MOL0     H 2862   1.408   4.961   7.965 -1.2824 -3.3759 -0.2060
  762MOL0     H 2863   1.532   4.959   8.096  0.1783 -0.3563  1.1097
  762MOL0     H 2864   1.426   5.036   8.258  1.7783 -1.7855 -0.6918
  762MOL0     H 2865   1.266   5.026   8.207 -0.8945  1.6352 -0.1919
  762MOL0     H 2866   1.367   5.212   8.022 -2.9292  3.3929  0.2272
  762MOL0     H 2867   1.488   5.213   8.155  0.5443 -1.6083 -1.8326
  762MOL0     H 2868   1.123   5.401   8.297  3.5978  2.7245  2.1467
  762MOL0     H 2869   1.319   4.527   8.038  1.1792  2.5036  2.1299
  762MOL0     H 2870   1.250   4.484   7.809  1.5230 -0.9803 -1.6666
  763MOL0     O 2871   6.852   3.483   6.981  0.4756  0.0836  0.2348
  763MOL0     C 2872   6.781   3.539   6.901  0.0718  0.4840 -0.9137
  763MOL0     O 2873   6.817   3.596   6.783 -0.5102 -0.8829 -0.2017
  763MOL0     C 2874   6.910   3.534   6.704  0.0947  0.3029 -0.0414
  763MOL0     C 2875   6.890   3.391   6.691 -0.0058 -0.3844  0.4193
  763MOL0     C 2876   6.964   3.323   6.594  0.0770 -0.4828  0.1729
  763MOL0     C 2877   7.074   3.394   6.526  0.4305  1.2025 -0.4267
  763MOL0     O 2878   7.168   3.342   6.450 -0.5366  0.5521 -0.6570
  763MOL0     C 2879   7.115   3.236   6.377 -0.2435 -0.0259  0.1308
  763MOL0     C 2880   7.217   3.186   6.268 -0.2571  0.1202  0.0445
  763MOL0     C 2881   7.253   3.293   6.166  0.4720  0.2386  0.3948
  763MOL0     C 2882   7.400   3.267   6.109  0.1836  0.9416 -0.1295
  763MOL0     C 2883   7.427   3.364   5.992 -0.1976 -0.1597  0.5109
  763MOL0     C 2884   7.558   3.341   5.919 -0.3479 -0.8493  0.0437
  763MOL0     C 2885   7.676   3.366   6.013 -0.1542 -0.1337  0.2651
  763MOL0     C 2886   7.692   3.515   6.043  0.6032 -0.0484  0.3066
  763MOL0     N 2887   7.825   3.545   6.090  0.4268 -0.3468  0.4461
  763MOL0     C 2888   7.923   3.564   5.998 -0.4708 -0.1455 -0.3069
  763MOL0     C 2889   8.013   3.624   6.078 -0.2777  0.1835 -0.1750
  763MOL0     C 2890   8.151   3.670   6.029  0.1830  0.4376  0.1545
  763MOL0     C 2891   8.161   3.826   6.005 -1.1260 -0.4342 -0.0272
  763MOL0     C 2892   8.104   3.928   6.105  0.3891  0.5085 -0.9602
  763MOL0     C 2893   8.148   3.917   6.258 -0.5454  0.0928  0.6160
  763MOL0     O 2894   8.062   4.018   6.309  0.4199 -0.5495 -0.9337
  763MOL0     C 2895   7.990   3.998   6.424 -0.1667  0.5715  1.2249
  763MOL0     C 2896   7.965   3.875   6.486 -0.2830  0.7862 -0.6845
  763MOL0     C 2897   7.883   3.875   6.602 -0.6651 -0.2500 -1.4373
  763MOL0     C 2898   7.844   3.738   6.663 -0.2367 -0.5852 -0.7099
  763MOL0     C 2899   7.853   3.996   6.668 -0.4412  0.1951 -0.6182
  763MOL0     C 2900   7.782   3.996   6.793 -0.1313 -0.9161  0.4295
  763MOL0     O 2901   7.844   3.924   6.889 -0.0229 -0.4603  0.6286
  763MOL0     C 2902   7.788   3.917   7.018  0.2036  0.7853  0.1789
  763MOL0     C 2903   7.771   4.008   7.113  0.2828 -0.3048  0.0517
  763MOL0     C 2904   7.722   3.987   7.242 -0.5315  0.3774  0.6125
  763MOL0     C 2905   7.686   3.859   7.281 -0.0292 -0.9666  0.3388
  763MOL0     O 2906   7.627   3.833   7.405 -0.1174 -0.8287  0.2944
  763MOL0     C 2907   7.621   3.694   7.440  0.1320  0.8445  0.3407
  763MOL0     C 2908   7.600   3.668   7.591 -0.2627 -0.2989 -1.0421
  763MOL0     C 2909   7.668   3.774   7.679 -0.1530  0.5876 -0.5082
  763MOL0     C 2910   7.668   3.734   7.831  0.2605  0.9887  0.1874
  763MOL0     C 2911   7.743   3.844   7.899  0.2202 -0.8397  0.6474
  763MOL0     C 2912   7.726   3.841   8.051  0.4895 -0.1722 -0.3323
  763MOL0     C 2913   7.590   3.863   8.098 -0.2621  0.1833 -0.4456
  763MOL0     C 2914   7.588   3.908   8.243 -0.5833  0.7060  0.2162
  763MOL0    Cl 2915   7.655   3.804   8.370 -0.3354  0.4181  0.1264
  763MOL0     C 2916   7.690   3.761   7.178  0.7131 -0.0875 -0.2160
  763MOL0     C 2917   7.745   3.784   7.056 -0.1305 -0.4205  0.4588
  763MOL0     O 2918   7.686   4.067   6.809 -0.4814  0.4555 -0.2633
  763MOL0     C 2919   7.883   4.116   6.605  0.2050 -0.2535  0.5248
  763MOL0     C 2920   7.953   4.112   6.486  1.1075 -0.3772  0.3692
  763MOL0     N 2921   7.968   3.641   6.203 -0.5146 -0.2782  0.0408
  763MOL0     N 2922   7.855   3.586   6.213 -0.0898  0.4381 -0.5605
  763MOL0     C 2923   7.083   3.523   6.541 -0.0074  0.3253 -0.1614
  763MOL0     C 2924   7.007   3.597   6.629  0.2116  0.4440 -0.4058
  763MOL0     C 2925   6.636   3.528   6.928  0.6494  0.5010  1.1882
  763MOL0     C 2926   6.570   3.429   6.996  0.4112  0.1732  0.7636
  763MOL0     C 2927   6.430   3.438   7.018 -0.1221 -0.2815  0.4155
  763MOL0     C 2928   6.347   3.537   6.967 -0.1752  0.5269  0.2335
  763MOL0     O 2929   6.215   3.549   6.992  0.1342  0.0409  0.4438
  763MOL0     C 2930   6.142   3.436   7.039 -0.2271 -0.0742  0.4652
  763MOL0     C 2931   5.993   3.469   7.064  0.2112 -0.0730  0.2251
  763MOL0     C 2932   5.909   3.437   6.942  0.4466  0.3900 -0.6385
  763MOL0     C 2933   5.761   3.446   6.981  0.5888 -0.5395  0.7639
  763MOL0     C 2934   5.679   3.398   6.866 -0.2726 -0.7828 -0.6245
  763MOL0     C 2935   5.615   3.389   6.768  0.2113 -0.0184 -0.3086
  763MOL0     C 2936   6.419   3.631   6.896  0.7052  0.6277 -0.4386
  763MOL0     C 2937   6.554   3.626   6.871 -0.2311  0.5810 -0.5812
  763MOL0     H 2938   6.829   3.349   6.770 -0.9261 -0.1845 -0.1722
  763MOL0     H 2939   6.963   3.215   6.597 -1.0416 -0.4758  0.5950
  763MOL0     H 2940   7.099   3.142   6.431 -0.1492 -1.3015 -1.9281
  763MOL0     H 2941   7.023   3.257   6.320 -1.5875 -2.5457  1.2150
  763MOL0     H 2942   7.295   3.137   6.327  0.1690 -0.7812 -1.2220
  763MOL0     H 2943   7.174   3.102   6.212 -0.7003  1.4347 -1.6626
  763MOL0     H 2944   7.178   3.297   6.087 -1.2896 -1.2731  1.8755
  763MOL0     H 2945   7.269   3.393   6.208  1.5382  1.8364 -3.3907
  763MOL0     H 2946   7.477   3.286   6.184  0.9397  0.4141 -0.7594
  763MOL0     H 2947   7.404   3.159   6.089 -5.0220 -0.1147  2.6723
  763MOL0     H 2948   7.345   3.382   5.921 -0.0938 -1.9309 -0.0916
  763MOL0     H 2949   7.437   3.464   6.035  2.7749  0.5389 -1.5250
  763MOL0     H 2950   7.573   3.249   5.863  2.5874 -1.3479  1.4943
  763MOL0     H 2951   7.545   3.420   5.844  1.8050 -0.5402 -0.0656
  763MOL0     H 2952   7.674   3.308   6.106 -0.4890  0.4764  0.6436
  763MOL0     H 2953   7.764   3.332   5.959 -0.3704 -0.4805  0.1304
  763MOL0     H 2954   7.616   3.536   6.119  0.3094  0.1156 -0.0302
  763MOL0     H 2955   7.685   3.570   5.949  1.9608 -1.8215 -0.8949
  763MOL0     H 2956   7.932   3.537   5.893 -3.0896 -0.4791 -0.5339
  763MOL0     H 2957   8.231   3.648   6.101  0.2348  0.5210  0.1212
  763MOL0     H 2958   8.176   3.617   5.936  3.2223  0.3796  0.9064
  763MOL0     H 2959   8.118   3.865   5.912  0.1738  3.6154  0.8827
  763MOL0     H 2960   8.266   3.853   5.989 -1.3521 -0.1645 -1.1657
  763MOL0     H 2961   7.995   3.916   6.103  0.4113  0.0970 -0.1619
  763MOL0     H 2962   8.126   4.029   6.071  1.0457  0.5320 -0.4697
  763MOL0     H 2963   8.253   3.934   6.280 -0.0879 -1.6838 -0.0221
  763MOL0     H 2964   8.133   3.815   6.295  1.7452 -0.9775 -1.1383
  763MOL0     H 2965   7.988   3.778   6.443  1.2922  1.4608 -1.4223
  763MOL0     H 2966   7.777   3.745   6.749  1.9368  0.0812  1.0404
  763MOL0     H 2967   7.796   3.692   6.576  0.2355  1.4164 -2.0901
  763MOL0     H 2968   7.935   3.679   6.679  0.0751 -0.4401 -1.8828
  763MOL0     H 2969   7.795   4.110   7.085 -1.4181 -0.4358 -2.1966
  763MOL0     H 2970   7.715   4.065   7.317 -1.6587  2.0836 -1.1742
  763MOL0     H 2971   7.548   3.634   7.385  1.6623 -1.4404  0.6756
  763MOL0     H 2972   7.719   3.647   7.438  0.0066  0.4568  1.8566
  763MOL0     H 2973   7.495   3.662   7.622  0.6793 -0.8017  2.4110
  763MOL0     H 2974   7.631   3.572   7.633 -2.1963  0.5541  2.8129
  763MOL0     H 2975   7.613   3.869   7.674 -2.0086 -0.3238  1.1410
  763MOL0     H 2976   7.769   3.787   7.639  1.8651  0.2003  3.8705
  763MOL0     H 2977   7.570   3.716   7.877 -0.8385  0.6253 -2.1336
  763MOL0     H 2978   7.724   3.641   7.838 -1.6482 -0.3827 -1.5983
  763MOL0     H 2979   7.712   3.941   7.860  1.8246 -0.2454  0.7825
  763MOL0     H 2980   7.848   3.830   7.871  0.6055  2.0078  0.3279
  763MOL0     H 2981   7.748   3.742   8.094 -0.1930  0.2262  0.9747
  763MOL0     H 2982   7.793   3.915   8.094  0.1679  0.0013 -0.1261
  763MOL0     H 2983   7.535   3.769   8.097 -1.2793  0.5883  2.9613
  763MOL0     H 2984   7.539   3.944   8.046 -1.9675  3.3429  5.2549
  763MOL0     H 2985   7.485   3.940   8.255 -1.8178 -0.8872 -4.1234
  763MOL0     H 2986   7.642   4.003   8.249  0.7517 -0.0943  1.8383
  763MOL0     H 2987   7.661   3.657   7.191  0.9610 -0.1100  0.1504
  763MOL0     H 2988   7.761   3.709   6.980 -0.7412  0.2942 -0.3980
  763MOL0     H 2989   7.840   4.203   6.652  1.2137 -1.1078  3.2017
  763MOL0     H 2990   7.987   4.207   6.447  2.5105 -0.4164  1.3916
  763MOL0     H 2991   7.146   3.566   6.463  2.4100 -2.5321  0.0559
  763MOL0     H 2992   7.031   3.702   6.644  0.9343 -0.0926  2.9598
  763MOL0     H 2993   6.618   3.343   7.043  0.2226 -1.4766 -1.8531
  763MOL0     H 2994   6.376   3.365   7.077 -0.8280  1.7660  2.4743
  763MOL0     H 2995   6.141   3.360   6.961  1.7935  1.5771 -1.2970
  763MOL0     H 2996   6.173   3.396   7.136  2.3594  0.4514 -0.0704
  763MOL0     H 2997   5.982   3.573   7.094 -0.1081  0.1022 -0.4821
  763MOL0     H 2998   5.953   3.404   7.142  2.4922 -1.3280  0.4587
  763MOL0     H 2999   5.926   3.335   6.907  1.3527  0.9965 -2.0743
  763MOL0     H 3000   5.930   3.512   6.865  2.9715 -2.4690 -3.0017
  763MOL0     H 3001   5.734   3.547   7.011 -1.8713 -0.9173  0.1338
  763MOL0     H 3002   5.746   3.381   7.069 -0.1623 -0.7135  0.5236
  763MOL0     H 3003   5.555   3.379   6.679  0.7270  0.5041 -0.7177
  763MOL0     H 3004   6.363   3.718   6.863 -0.0290  0.3701  0.0911
  763MOL0     H 3005   6.595   3.713   6.821 -0.7148  2.6939  2.4252
  764MOL0     O 3006  10.788   2.997   5.748  0.2455  0.0803  0.3519
  764MOL0     C 3007  10.713   3.094   5.745 -0.6172 -0.0402  0.3991
  764MOL0     O 3008  10.670   3.163   5.850  0.0436  0.1578 -0.9616
  764MOL0     C 3009  10.719   3.151   5.980 -0.5725 -0.0327  0.5697
  764MOL0     C 3010  10.845   3.090   6.016 -0.3463  1.4822  0.3208
  764MOL0     C 3011  10.884   3.082   6.150  1.9671 -0.7203  0.1386
  764MOL0     C 3012  10.792   3.118   6.254 -0.4703  0.3435  0.7457
  764MOL0     O 3013  10.822   3.106   6.384  0.2474 -0.8573 -0.2073
  764MOL0     C 3014  10.911   2.997   6.411 -0.7952 -0.3516 -0.4874
  764MOL0     C 3015  10.923   2.982   6.562 -1.2062 -1.2258  0.1359
  764MOL0     C 3016  10.997   3.105   6.641  0.0764  0.7819  0.1916
  764MOL0     C 3017  10.972   3.110   6.794  1.0316 -0.5905 -0.1742
  764MOL0     C 3018  10.985   2.974   6.864  0.0237 -0.0061 -0.3546
  764MOL0     C 3019  11.036   2.988   7.012 -0.7224  0.1071  0.1713
  764MOL0     C 3020  11.068   2.847   7.057  0.3523  0.2157  0.8766
  764MOL0     C 3021  11.187   2.774   6.987  0.0452  0.5308 -0.4166
  764MOL0     N 3022  11.303   2.855   7.022 -0.3242 -0.3615 -0.4436
  764MOL0     C 3023  11.345   2.880   7.156  0.7004 -0.7183  1.2295
  764MOL0     C 3024  11.439   2.976   7.149 -0.3118 -0.1268 -0.1412
  764MOL0     C 3025  11.505   3.042   7.274  1.2183 -0.3050 -0.7430
  764MOL0     C 3026  11.637   3.116   7.258 -0.3258  0.5458  0.1295
  764MOL0     C 3027  11.760   3.014   7.243  0.2370  0.8695  0.8082
  764MOL0     C 3028  11.878   3.083   7.180 -0.9677  0.2834 -0.5582
  764MOL0     O 3029  11.907   3.207   7.230  0.2038 -0.8634 -0.1359
  764MOL0     C 3030  12.031   3.241   7.204 -0.5360 -0.0056 -0.1013
  764MOL0     C 3031  12.082   3.258   7.069 -0.2176  0.0835  0.8043
  764MOL0     C 3032  12.218   3.288   7.040  0.2666  0.5278 -0.9526
  764MOL0     C 3033  12.258   3.303   6.892 -0.7323  0.4602 -0.4497
  764MOL0     C 3034  12.307   3.301   7.148 -0.1726  0.6734  0.1738
  764MOL0     C 3035  12.447   3.342   7.140 -0.5680 -0.0292  0.6194
  764MOL0     O 3036  12.514   3.279   7.039  0.0617  0.5010 -0.3974
  764MOL0     C 3037  12.651   3.291   7.007 -0.7247  0.5866  0.2470
  764MOL0     C 3038  12.700   3.316   6.877  0.4964  0.4932 -1.2387
  764MOL0     C 3039  12.840   3.316   6.848  0.1394 -0.4304 -0.0104
  764MOL0     C 3040  12.934   3.291   6.946 -0.8439  0.2459  0.8510
  764MOL0     O 3041  13.071   3.293   6.913  1.0023 -0.3492 -0.5359
  764MOL0     C 3042  13.168   3.267   7.012  1.0776 -0.4771  0.0227
  764MOL0     C 3043  13.315   3.306   6.974  0.2155  0.8687 -0.1016
  764MOL0     C 3044  13.406   3.291   7.100 -0.1892  0.1635  0.9880
  764MOL0     C 3045  13.373   3.158   7.173  0.3357 -0.0660  0.0470
  764MOL0     C 3046  13.485   3.126   7.277 -0.3862 -0.8302 -0.1403
  764MOL0     C 3047  13.462   3.044   7.397  0.5243 -0.5447  0.4004
  764MOL0     C 3048  13.590   3.036   7.482 -0.3522  0.6469 -0.1392
  764MOL0     C 3049  13.584   2.935   7.598  0.5651 -0.8910 -0.3349
  764MOL0    Cl 3050  13.580   2.769   7.531  0.1695  0.3468 -0.0994
  764MOL0     C 3051  12.886   3.253   7.077  0.2748 -0.3741  0.1713
  764MOL0     C 3052  12.750   3.260   7.098 -0.5081 -0.1453  0.4437
  764MOL0     O 3053  12.491   3.425   7.222 -0.1782 -0.4873  0.0432
  764MOL0     C 3054  12.254   3.269   7.281 -0.9616 -0.6212 -0.5207
  764MOL0     C 3055  12.123   3.244   7.307 -0.4108 -1.3581  0.1140
  764MOL0     N 3056  11.443   3.020   7.017 -0.4161  0.2868  0.2055
  764MOL0     N 3057  11.364   2.947   6.943  0.1195  0.5406  0.4606
  764MOL0     C 3058  10.679   3.176   6.220  0.9939 -0.2197  0.1685
  764MOL0     C 3059  10.638   3.193   6.084 -0.2361  0.3552 -0.3552
  764MOL0     C 3060  10.668   3.148   5.605 -0.9803 -0.2323 -0.1589
  764MOL0     C 3061  10.601   3.271   5.587 -0.3901 -0.0502  0.3553
  764MOL0     C 3062  10.611   3.332   5.460 -0.0396 -0.2400  0.3541
  764MOL0     C 3063  10.678   3.276   5.353  0.0616  0.1357 -0.1173
  764MOL0     O 3064  10.700   3.316   5.225 -0.2274  0.7870 -0.1627
  764MOL0     C 3065  10.664   3.441   5.173 -0.6570 -0.1944  0.9175
  764MOL0     C 3066  10.747   3.554   5.237  0.0224 -0.6697 -0.4114
  764MOL0     C 3067  10.888   3.531   5.182 -0.4041  0.4359 -0.8984
  764MOL0     C 3068  10.969   3.630   5.259  0.0475 -0.5400 -0.0146
  764MOL0     C 3069  11.116   3.603   5.259  0.0833 -0.0676 -0.5281
  764MOL0     C 3070  11.233   3.571   5.264 -0.4420 -0.4829 -0.2513
  764MOL0     C 3071  10.746   3.164   5.381 -0.5903 -0.3787  0.0243
  764MOL0     C 3072  10.731   3.091   5.504  0.0679  1.5560  0.2190
  764MOL0     H 3073  10.914   3.074   5.935  3.2456 -0.8616  3.5101
  764MOL0     H 3074  10.985   3.044   6.160  2.0943 -0.9054 -1.4490
  764MOL0     H 3075  10.860   2.910   6.368  0.9811 -0.6669 -2.0800
  764MOL0     H 3076  11.008   3.013   6.364 -0.0586  1.9683  1.6286
  764MOL0     H 3077  10.821   2.990   6.601 -0.2298  1.1872  2.6212
  764MOL0     H 3078  10.967   2.884   6.582  0.8437 -0.2720  0.6419
  764MOL0     H 3079  11.105   3.112   6.622 -0.3893 -0.0400 -3.5889
  764MOL0     H 3080  10.945   3.189   6.596  0.6330  0.0476 -1.9433
  764MOL0     H 3081  11.042   3.180   6.840  1.7816 -0.8769 -0.8440
  764MOL0     H 3082  10.877   3.162   6.811  2.5941  2.4194  0.0516
  764MOL0     H 3083  10.884   2.932   6.865 -0.6702  1.5524  1.0934
  764MOL0     H 3084  11.065   2.924   6.810 -1.7616 -2.6214 -0.7859
  764MOL0     H 3085  11.121   3.056   7.011 -0.1699 -0.5720  0.5601
  764MOL0     H 3086  10.958   3.024   7.080 -1.4672 -2.3638  0.7238
  764MOL0     H 3087  11.080   2.853   7.165  3.2704  0.1729  0.6302
  764MOL0     H 3088  10.978   2.787   7.039  0.1884  0.3863  1.1197
  764MOL0     H 3089  11.172   2.761   6.880  0.4121  2.2670 -0.7082
  764MOL0     H 3090  11.189   2.681   7.045 -4.1565  1.0698  0.9353
  764MOL0     H 3091  11.310   2.827   7.245 -1.7240 -0.7016  0.3598
  764MOL0     H 3092  11.428   3.110   7.309 -1.5607 -2.7151 -1.7719
  764MOL0     H 3093  11.497   2.972   7.357 -0.6672 -1.4462 -1.8153
  764MOL0     H 3094  11.652   3.173   7.350 -1.5989 -1.2876  1.5573
  764MOL0     H 3095  11.633   3.177   7.168  2.0724  3.1749  1.6355
  764MOL0     H 3096  11.732   2.938   7.169 -4.9670  3.3877 -0.2398
  764MOL0     H 3097  11.791   2.972   7.339 -0.4054 -2.2630 -0.2385
  764MOL0     H 3098  11.872   3.081   7.071  0.9250 -3.4145 -0.7530
  764MOL0     H 3099  11.960   3.014   7.203  0.7382  2.1664 -0.7765
  764MOL0     H 3100  12.020   3.235   6.982 -1.3807  1.9634  1.0693
  764MOL0     H 3101  12.172   3.304   6.823 -0.8600  2.8786 -0.3387
  764MOL0     H 3102  12.334   3.377   6.865  0.6087 -0.7540 -0.1091
  764MOL0     H 3103  12.308   3.208   6.868  2.6739  2.2117 -0.9191
  764MOL0     H 3104  12.624   3.335   6.802 -1.2471 -0.0764  0.3109
  764MOL0     H 3105  12.864   3.353   6.749 -0.7089 -0.0407 -0.0781
  764MOL0     H 3106  13.138   3.334   7.093 -2.7417  1.1831 -2.4896
  764MOL0     H 3107  13.155   3.161   7.037  0.7786 -0.7945 -1.3520
  764MOL0     H 3108  13.335   3.231   6.897 -0.8471  0.0161  0.4198
  764MOL0     H 3109  13.325   3.412   6.948  0.4003  0.6199 -1.0757
  764MOL0     H 3110  13.398   3.383   7.158  2.9424  2.4848 -1.8677
  764MOL0     H 3111  13.510   3.300   7.065 -1.8860  1.6943 -4.7765
  764MOL0     H 3112  13.276   3.160   7.224  0.3025 -1.6458  0.0996
  764MOL0     H 3113  13.355   3.071   7.109 -0.6818 -1.6591  2.3286
  764MOL0     H 3114  13.511   3.221   7.323  0.9949  0.0956 -2.6711
  764MOL0     H 3115  13.572   3.080   7.229 -0.6581 -0.4521 -1.0130
  764MOL0     H 3116  13.378   3.085   7.453 -0.0562  0.7785 -1.3661
  764MOL0     H 3117  13.438   2.942   7.366  0.8058 -0.4808 -0.0410
  764MOL0     H 3118  13.606   3.136   7.524  0.4496 -0.5058  2.5114
  764MOL0     H 3119  13.666   3.009   7.409 -0.7092  1.6522 -0.9111
  764MOL0     H 3120  13.485   2.962   7.636 -0.1971  1.1393 -3.3699
  764MOL0     H 3121  13.654   2.955   7.679  0.1335  0.2691 -0.2245
  764MOL0     H 3122  12.940   3.240   7.171 -0.9810 -2.1319  0.6998
  764MOL0     H 3123  12.719   3.242   7.200  0.5165  1.0392  0.9853
  764MOL0     H 3124  12.315   3.292   7.368 -2.4745  1.2650  0.1187
  764MOL0     H 3125  12.076   3.256   7.405  1.8238  0.1866  1.0619
  764MOL0     H 3126  10.607   3.208   6.295  1.3494 -0.6553  0.7020
  764MOL0     H 3127  10.545   3.244   6.062 -2.0380 -1.6669  2.0003
  764MOL0     H 3128  10.550   3.318   5.670 -1.5628  0.4698 -0.6353
  764MOL0     H 3129  10.548   3.420   5.458  0.1235 -0.1203  0.4649
  764MOL0     H 3130  10.676   3.438   5.064 -1.0756  2.3764  0.7366
  764MOL0     H 3131  10.557   3.451   5.192 -0.6865  2.6930 -0.3291
  764MOL0     H 3132  10.742   3.541   5.346  1.7052  1.6374  0.0148
  764MOL0     H 3133  10.710   3.653   5.208 -1.3740 -1.3432 -0.9831
  764MOL0     H 3134  10.894   3.543   5.073 -0.0261  0.8846 -0.8305
  764MOL0     H 3135  10.918   3.432   5.216 -0.1908  1.5601  2.5143
  764MOL0     H 3136  10.933   3.620   5.362 -1.2252 -1.8445 -0.5553
  764MOL0     H 3137  10.957   3.733   5.225  3.5590 -0.1772 -0.5482
  764MOL0     H 3138  11.337   3.544   5.267 -0.4990 -0.6593  1.8074
  764MOL0     H 3139  10.815   3.119   5.310  1.8680  1.3849  1.1689
  764MOL0     H 3140  10.787   2.998   5.509 -0.8056  0.9576 -0.6812
  765MOL0     O 3141   5.640  10.739   5.638 -0.3982  0.5192  0.1719
  765MOL0     C 3142   5.661  10.714   5.524 -0.3290 -0.1139 -0.3402
  765MOL0     O 3143   5.704  10.807   5.422  0.4332  0.8521 -0.1470
  765MOL0     C 3144   5.736  10.934   5.454 -1.1794  0.0014  0.3784
  765MOL0     C 3145   5.700  11.048   5.370  0.3352  0.1675 -0.3453
  765MOL0     C 3146   5.753  11.177   5.395 -0.1300  0.0030 -0.2771
  765MOL0     C 3147   5.842  11.198   5.502  0.3433  0.2734 -0.0508
  765MOL0     O 3148   5.904  11.313   5.525  0.2207 -0.9743 -0.4396
  765MOL0     C 3149   5.907  11.434   5.435 -0.1972  0.4751 -0.4649
  765MOL0     C 3150   6.050  11.478   5.393 -0.2972  0.3624  0.4626
  765MOL0     C 3151   6.142  11.367   5.344  0.6559 -0.1679  1.8622
  765MOL0     C 3152   6.106  11.310   5.192  0.1976  0.4148 -0.4302
  765MOL0     C 3153   6.219  11.218   5.138  0.0236 -0.0585 -0.4237
  765MOL0     C 3154   6.353  11.287   5.105 -0.4546  0.4742  0.3385
  765MOL0     C 3155   6.347  11.411   5.022 -0.0820 -0.2026  0.0057
  765MOL0     C 3156   6.488  11.464   5.007  1.0508  0.2436  0.3162
  765MOL0     N 3157   6.597  11.386   4.932  0.9026 -0.0507 -0.4214
  765MOL0     C 3158   6.653  11.423   4.813 -0.2175 -0.1308  0.2161
  765MOL0     C 3159   6.718  11.316   4.766  0.3318  0.1585  0.0253
  765MOL0     C 3160   6.769  11.314   4.625  0.4505 -0.3471  0.2322
  765MOL0     C 3161   6.884  11.403   4.594 -1.4570  0.5567  0.7371
  765MOL0     C 3162   6.903  11.395   4.443 -0.6187 -0.1886  0.6383
  765MOL0     C 3163   7.011  11.498   4.393  0.2927  0.8840 -0.1880
  765MOL0     O 3164   7.140  11.454   4.428  0.5318 -0.3610 -0.1572
  765MOL0     C 3165   7.239  11.500   4.351 -0.7346 -0.0541  0.0888
  765MOL0     C 3166   7.350  11.408   4.324  0.2486  0.3201 -0.0699
  765MOL0     C 3167   7.449  11.453   4.238  0.4502  0.5556  0.4216
  765MOL0     C 3168   7.550  11.354   4.201  0.4756  0.0496 -0.2227
  765MOL0     C 3169   7.456  11.581   4.187  0.3956  0.7862 -0.4149
  765MOL0     C 3170   7.563  11.638   4.089 -0.0963 -1.1525  0.3587
  765MOL0     O 3171   7.534  11.756   4.031  0.9508 -0.5690 -0.4953
  765MOL0     C 3172   7.619  11.793   3.929  0.0983 -0.0677 -0.5892
  765MOL0     C 3173   7.591  11.768   3.802  1.1300  0.7346  0.5578
  765MOL0     C 3174   7.678  11.795   3.696  0.9280  0.1647 -0.1143
  765MOL0     C 3175   7.802  11.862   3.720 -1.1636  0.4027  0.3728
  765MOL0     O 3176   7.905  11.889   3.626 -0.3664  0.2157  0.2352
  765MOL0     C 3177   7.868  11.883   3.491  0.0142  0.1776 -0.3928
  765MOL0     C 3178   7.982  11.918   3.408  0.5314 -0.4402 -0.1513
  765MOL0     C 3179   8.036  12.057   3.432  0.1780 -0.7398 -0.1954
  765MOL0     C 3180   8.104  12.108   3.301  1.0335 -0.8445 -0.3636
  765MOL0     C 3181   8.244  12.041   3.281 -0.9864 -0.2550  0.0296
  765MOL0     C 3182   8.335  12.132   3.185 -0.1217 -0.0375 -1.0512
  765MOL0     C 3183   8.278  12.141   3.045  1.8925  0.2900 -0.0061
  765MOL0     C 3184   8.263  12.010   2.960  0.6897 -0.5163  0.1085
  765MOL0    Cl 3185   8.201  12.052   2.792  0.0518 -0.3233 -0.1099
  765MOL0     C 3186   7.836  11.894   3.852  0.1485  0.8226 -0.8679
  765MOL0     C 3187   7.735  11.868   3.948  0.0198 -0.5816 -0.3268
  765MOL0     O 3188   7.659  11.572   4.063 -0.1181 -0.0104  0.2465
  765MOL0     C 3189   7.352  11.677   4.219  0.5148  0.0969  1.7928
  765MOL0     C 3190   7.251  11.638   4.306  0.6381  1.3334 -0.0435
  765MOL0     N 3191   6.714  11.216   4.859  0.0536 -0.3789 -0.5830
  765MOL0     N 3192   6.638  11.261   4.962 -0.1704 -0.1586  0.2049
  765MOL0     C 3193   5.874  11.089   5.582 -0.6638 -0.3046  0.4260
  765MOL0     C 3194   5.822  10.964   5.563  0.0858  0.2540  0.1373
  765MOL0     C 3195   5.661  10.577   5.486  0.0498 -0.0040  0.2033
  765MOL0     C 3196   5.564  10.494   5.544 -1.0661 -0.4218 -0.5076
  765MOL0     C 3197   5.541  10.365   5.496  1.2093  0.2369 -0.1574
  765MOL0     C 3198   5.615  10.316   5.388  0.0027 -0.5028  0.5899
  765MOL0     O 3199   5.595  10.197   5.327  0.8702 -0.0875 -0.6433
  765MOL0     C 3200   5.464  10.142   5.313  0.4530  0.0689  0.1049
  765MOL0     C 3201   5.483  10.011   5.245 -0.6309  1.2341  0.8730
  765MOL0     C 3202   5.521   9.901   5.350  0.3091  0.1363 -0.2398
  765MOL0     C 3203   5.582   9.775   5.277  0.0348 -0.5555 -0.4525
  765MOL0     C 3204   5.602   9.663   5.376 -0.1621 -0.0546  0.2567
  765MOL0     C 3205   5.624   9.574   5.454 -1.0512  0.3373 -0.0215
  765MOL0     C 3206   5.720  10.397   5.337  0.1704  0.7718 -0.2062
  765MOL0     C 3207   5.748  10.532   5.382 -0.7731  0.5792 -0.7379
  765MOL0     H 3208   5.622  11.038   5.296  0.9713  0.7470 -1.1066
  765MOL0     H 3209   5.717  11.268   5.347 -0.6698  0.5302  1.0738
  765MOL0     H 3210   5.847  11.428   5.343 -0.3382  0.6680 -0.3862
  765MOL0     H 3211   5.871  11.514   5.501  3.0792  0.8603  1.0639
  765MOL0     H 3212   6.033  11.540   5.304  0.8995 -2.0583 -1.5681
  765MOL0     H 3213   6.097  11.529   5.477 -2.5847  0.9057  1.4994
  765MOL0     H 3214   6.237  11.421   5.339  0.0177  0.8582 -0.4684
  765MOL0     H 3215   6.151  11.274   5.402  1.3525 -1.7625 -0.6199
  765MOL0     H 3216   6.014  11.253   5.205  1.2118 -2.4204 -4.0345
  765MOL0     H 3217   6.069  11.391   5.128  0.6762  1.7340  0.9010
  765MOL0     H 3218   6.225  11.152   5.225 -2.7642  2.1849  1.6835
  765MOL0     H 3219   6.181  11.164   5.050  0.8595  2.5797 -2.5502
  765MOL0     H 3220   6.391  11.328   5.199  0.2101  0.9779 -0.1352
  765MOL0     H 3221   6.418  11.214   5.055  1.9842  2.5525  0.2569
  765MOL0     H 3222   6.309  11.374   4.927 -0.6170 -0.3221  0.2647
  765MOL0     H 3223   6.283  11.494   5.052  3.0707  2.0388  1.0832
  765MOL0     H 3224   6.533  11.486   5.104  3.3693 -1.5146 -0.2784
  765MOL0     H 3225   6.484  11.557   4.949  0.7597  0.6617  0.9995
  765MOL0     H 3226   6.641  11.521   4.769 -1.4449 -1.0255 -1.6226
  765MOL0     H 3227   6.802  11.217   4.586 -0.5021 -1.2470  1.5973
  765MOL0     H 3228   6.680  11.342   4.569 -1.4897 -5.5083  0.2451
  765MOL0     H 3229   6.977  11.372   4.642  0.4873  0.7662 -2.6203
  765MOL0     H 3230   6.866  11.506   4.626  4.4920  2.2331 -0.0899
  765MOL0     H 3231   6.811  11.416   4.388  0.5071 -0.7217 -1.5393
  765MOL0     H 3232   6.924  11.291   4.416  1.5437  0.2456  0.4541
  765MOL0     H 3233   6.985  11.594   4.439 -3.2017 -0.2932  0.5845
  765MOL0     H 3234   6.998  11.511   4.285 -2.3635 -3.2734 -0.5829
  765MOL0     H 3235   7.340  11.304   4.355 -5.3808  0.6430  0.2759
  765MOL0     H 3236   7.653  11.387   4.213  0.3575  0.5053 -0.4352
  765MOL0     H 3237   7.550  11.265   4.264  0.0844  1.3864  1.7403
  765MOL0     H 3238   7.541  11.323   4.096  0.2058 -2.6540  0.5167
  765MOL0     H 3239   7.513  11.696   3.779  2.4151 -0.8605  0.9168
  765MOL0     H 3240   7.662  11.761   3.594  1.2532 -0.9970  0.2095
  765MOL0     H 3241   7.844  11.778   3.473  1.9441 -0.5276  0.9061
  765MOL0     H 3242   7.776  11.942   3.477  0.3796  0.5996 -1.0942
  765MOL0     H 3243   8.056  11.841   3.433  0.1349 -1.6428 -2.4627
  765MOL0     H 3244   7.956  11.908   3.303 -1.6654 -2.0668  0.4751
  765MOL0     H 3245   8.097  12.077   3.521 -2.3752  1.3716  1.2379
  765MOL0     H 3246   7.948  12.122   3.435  0.0667 -0.8969 -0.0765
  765MOL0     H 3247   8.037  12.095   3.216  1.9529  2.1628 -1.6622
  765MOL0     H 3248   8.117  12.216   3.304 -1.1659 -0.2563 -4.4903
  765MOL0     H 3249   8.230  11.938   3.245  0.5783 -0.3399 -0.4202
  765MOL0     H 3250   8.291  12.048   3.380 -0.3937  1.3195 -0.3314
  765MOL0     H 3251   8.360  12.231   3.225  1.8980 -0.8626 -0.1444
  765MOL0     H 3252   8.429  12.080   3.169  0.4139  1.2545 -2.3627
  765MOL0     H 3253   8.355  12.205   2.999  4.0506  1.1238  4.2230
  765MOL0     H 3254   8.179  12.188   3.042  0.8317 -1.8732 -2.6868
  765MOL0     H 3255   8.198  11.940   3.014  1.3247  1.3159  3.5409
  765MOL0     H 3256   8.355  11.951   2.946  0.3454 -1.1295  0.4163
  765MOL0     H 3257   7.934  11.934   3.877 -0.5641  1.5706  0.9320
  765MOL0     H 3258   7.770  11.884   4.049  1.0804 -5.6832  0.3858
  765MOL0     H 3259   7.357  11.781   4.189 -2.1144 -0.5287 -1.4056
  765MOL0     H 3260   7.164  11.702   4.318 -2.6079 -2.8189  1.1000
  765MOL0     H 3261   5.942  11.095   5.667  0.7908  0.0323 -0.7235
  765MOL0     H 3262   5.852  10.884   5.630 -1.3389 -0.5755 -0.1564
  765MOL0     H 3263   5.519  10.522   5.639  1.7397 -0.4362  0.9143
  765MOL0     H 3264   5.464  10.304   5.541  0.9391  0.7962  0.1431
  765MOL0     H 3265   5.410  10.128   5.407  2.2162  0.3768  1.2274
  765MOL0     H 3266   5.407  10.211   5.251  0.5097 -0.3632 -0.4343
  765MOL0     H 3267   5.563  10.012   5.170 -1.1530 -1.1085  0.2207
  765MOL0     H 3268   5.388   9.984   5.199 -0.9276 -0.0165  2.1529
  765MOL0     H 3269   5.430   9.871   5.403  2.6510 -2.8569  2.4853
  765MOL0     H 3270   5.584   9.940   5.430 -0.0100 -0.8912  0.5349
  765MOL0     H 3271   5.680   9.799   5.236  1.1855 -1.3516  1.6532
  765MOL0     H 3272   5.507   9.743   5.205 -0.3652 -2.5721  0.7779
  765MOL0     H 3273   5.630   9.489   5.519 -0.0163 -0.6633 -1.3766
  765MOL0     H 3274   5.787  10.356   5.262  0.9422  0.1720  0.7901
  765MOL0     H 3275   5.827  10.587   5.333  0.6769 -0.9024 -0.1570
  766MOL0     O 3276  10.021   3.419  10.367  0.2185 -0.1738  0.0099
  766MOL0     C 3277   9.971   3.331  10.296 -0.0306 -0.6776 -0.4966
  766MOL0     O 3278  10.011   3.201  10.277  0.0715  0.1537  0.0225
  766MOL0     C 3279  10.105   3.165  10.361  0.0366 -0.0566  0.6941
  766MOL0     C 3280  10.229   3.145  10.303 -0.5914  0.0514 -0.2029
  766MOL0     C 3281  10.338   3.112  10.387  0.4414 -0.7146  1.1720
  766MOL0     C 3282  10.325   3.119  10.520  0.3509 -0.5009 -0.8884
  766MOL0     O 3283  10.433   3.105  10.602 -0.2788 -1.0862  0.4622
  766MOL0     C 3284  10.472   2.967  10.610  0.1793 -0.1707 -0.7458
  766MOL0     C 3285  10.616   2.947  10.567 -0.2410  1.0102 -0.4870
  766MOL0     C 3286  10.721   3.033  10.653  0.1418 -0.0559 -0.0419
  766MOL0     C 3287  10.852   3.018  10.583  0.8684  0.5294  0.2489
  766MOL0     C 3288  10.961   3.074  10.667 -0.5700  0.8637  0.8166
  766MOL0     C 3289  10.961   3.217  10.698 -0.2081 -1.3923  0.4954
  766MOL0     C 3290  11.010   3.290  10.578 -0.7564 -0.2184 -0.4617
  766MOL0     C 3291  11.019   3.445  10.608 -0.1368  0.5230  0.4665
  766MOL0     N 3292  10.889   3.502  10.624  0.1608 -0.0115 -0.0444
  766MOL0     C 3293  10.799   3.513  10.521 -0.0855 -0.4454  0.1786
  766MOL0     C 3294  10.686   3.565  10.573  0.0490 -0.1338  0.7094
  766MOL0     C 3295  10.564   3.600  10.492 -0.0691 -0.6590  0.4915
  766MOL0     C 3296  10.432   3.511  10.495 -0.3925 -0.6085 -1.0429
  766MOL0     C 3297  10.377   3.486  10.641  0.1193  0.4447 -0.3961
  766MOL0     C 3298  10.226   3.503  10.637 -0.2652  0.3302 -0.3613
  766MOL0     O 3299  10.181   3.640  10.634 -0.1124 -0.3493 -0.4622
  766MOL0     C 3300  10.044   3.658  10.624  0.4870  0.3753 -0.6767
  766MOL0     C 3301   9.946   3.552  10.625 -0.4439  0.1510  0.3028
  766MOL0     C 3302   9.811   3.564  10.580  0.1681  1.0466  0.6867
  766MOL0     C 3303   9.722   3.434  10.559  0.7572 -1.1262 -0.2377
  766MOL0     C 3304   9.763   3.691  10.551 -0.0944 -1.6000 -0.4339
  766MOL0     C 3305   9.614   3.730  10.535 -0.4194  0.9565 -0.3832
  766MOL0     O 3306   9.515   3.632  10.556 -0.8925  0.5984 -0.6272
  766MOL0     C 3307   9.386   3.643  10.515 -0.5016 -0.1343  0.5617
  766MOL0     C 3308   9.298   3.587  10.607 -0.3197 -0.0648 -0.5315
  766MOL0     C 3309   9.167   3.584  10.571 -0.2186 -0.1384 -1.0435
  766MOL0     C 3310   9.120   3.652  10.456  1.0035 -0.8489 -0.5274
  766MOL0     O 3311   8.989   3.630  10.426 -0.7961  0.0867 -0.2651
  766MOL0     C 3312   8.912   3.740  10.378  0.2760 -1.0025  0.1595
  766MOL0     C 3313   8.765   3.711  10.401  0.6597  0.7210 -0.7467
  766MOL0     C 3314   8.710   3.601  10.307  0.7881 -0.7881  0.2130
  766MOL0     C 3315   8.643   3.492  10.377  1.3575  0.3056  0.2746
  766MOL0     C 3316   8.616   3.379  10.278  0.0908 -0.7320  0.3879
  766MOL0     C 3317   8.535   3.267  10.354  0.6306 -0.4972  0.1812
  766MOL0     C 3318   8.388   3.301  10.360  0.8848  0.3857  0.2029
  766MOL0     C 3319   8.305   3.175  10.394 -0.1882  0.2248 -0.7478
  766MOL0    Cl 3320   8.361   3.075  10.541  0.2198 -0.1819 -0.2384
  766MOL0     C 3321   9.205   3.717  10.375  0.9510 -0.8056 -0.0090
  766MOL0     C 3322   9.335   3.719  10.405 -0.4103  0.0222  0.2820
  766MOL0     O 3323   9.598   3.846  10.491  0.3899  1.2951  0.6670
  766MOL0     C 3324   9.851   3.795  10.579  0.9958 -0.2056 -0.1718
  766MOL0     C 3325   9.982   3.781  10.614 -0.4804 -0.0599 -0.3870
  766MOL0     N 3326  10.708   3.582  10.705 -0.4637 -0.6825 -0.7915
  766MOL0     N 3327  10.833   3.552  10.741  0.3423  0.3895  0.4864
  766MOL0     C 3328  10.200   3.131  10.578  0.4345 -0.5216 -0.3977
  766MOL0     C 3329  10.085   3.157  10.498 -0.9587 -1.2201 -0.1825
  766MOL0     C 3330   9.843   3.370  10.225 -0.5818  0.3681 -0.0738
  766MOL0     C 3331   9.769   3.278  10.145  0.7976 -1.0590 -0.6473
  766MOL0     C 3332   9.637   3.312  10.096  0.0078 -0.0279  0.1924
  766MOL0     C 3333   9.592   3.438  10.129  0.0788 -1.2055 -1.5016
  766MOL0     O 3334   9.459   3.471  10.099 -1.3548  0.4669 -0.3288
  766MOL0     C 3335   9.360   3.364  10.075 -0.5267 -0.0520  0.4563
  766MOL0     C 3336   9.216   3.410  10.093  0.0803  0.1225  0.0199
  766MOL0     C 3337   9.187   3.539  10.017 -0.5857  0.3482  0.2493
  766MOL0     C 3338   9.035   3.564  10.004 -0.2846  0.0806 -0.3310
  766MOL0     C 3339   9.010   3.699   9.939 -0.2664  0.3493 -1.1029
  766MOL0     C 3340   8.985   3.799   9.885 -0.0337  0.5167  1.4969
  766MOL0     C 3341   9.665   3.538  10.190  0.4740  0.6836 -0.1757
  766MOL0     C 3342   9.789   3.502  10.242 -0.1125 -1.0276 -0.0578
  766MOL0     H 3343  10.246   3.160  10.197  1.0664 -2.8815 -0.4399
  766MOL0     H 3344  10.433   3.114  10.335 -1.1387 -2.2694 -2.1261
  766MOL0     H 3345  10.454   2.955  10.717 -0.4482  5.1083 -0.0274
  766MOL0     H 3346  10.411   2.898  10.551  0.9067 -1.2780 -0.2620
  766MOL0     H 3347  10.642   2.841  10.560  1.7898  1.3939  0.4587
  766MOL0     H 3348  10.633   2.995  10.470  0.2907  3.8119  0.9018
  766MOL0     H 3349  10.685   3.136  10.655  2.1933  0.7076  0.3420
  766MOL0     H 3350  10.719   2.984  10.751  3.0072 -2.3117 -0.9771
  766MOL0     H 3351  10.876   2.917  10.550  1.7792  1.0864 -0.8656
  766MOL0     H 3352  10.833   3.075  10.492  0.0410  3.8948  2.3591
  766MOL0     H 3353  10.955   3.013  10.758 -3.7901 -1.4193 -0.7227
  766MOL0     H 3354  11.062   3.060  10.627  0.8038  4.1325  2.7239
  766MOL0     H 3355  10.858   3.246  10.725 -0.1880 -0.7784 -0.0475
  766MOL0     H 3356  11.027   3.229  10.785 -1.3463 -2.4531  1.5527
  766MOL0     H 3357  11.107   3.251  10.544 -1.0293 -0.7080 -0.6777
  766MOL0     H 3358  10.937   3.275  10.498 -1.0731 -0.8805 -0.0520
  766MOL0     H 3359  11.070   3.493  10.524 -2.8275  2.1982 -0.3451
  766MOL0     H 3360  11.071   3.461  10.702 -0.1065 -0.7358  0.6858
  766MOL0     H 3361  10.826   3.500  10.416  1.0506  1.0556  0.2573
  766MOL0     H 3362  10.533   3.699  10.527  3.6034  0.1772  1.8064
  766MOL0     H 3363  10.603   3.609  10.390 -3.0794 -0.0633 -0.7022
  766MOL0     H 3364  10.460   3.412  10.458 -1.3874 -0.5195 -2.0985
  766MOL0     H 3365  10.350   3.548  10.432  0.7708  4.4765 -0.0501
  766MOL0     H 3366  10.415   3.550  10.721  0.3382  2.2799 -1.9214
  766MOL0     H 3367  10.394   3.380  10.663 -2.3772  0.1607  0.4706
  766MOL0     H 3368  10.193   3.452  10.728  1.4768 -1.7162 -0.7962
  766MOL0     H 3369  10.186   3.450  10.549 -1.3246  0.2388  0.1660
  766MOL0     H 3370   9.982   3.450  10.619 -0.4450  0.0814  1.3217
  766MOL0     H 3371   9.663   3.408  10.647  0.8149 -1.1766 -0.2140
  766MOL0     H 3372   9.648   3.455  10.481 -0.5799 -0.2885  1.2082
  766MOL0     H 3373   9.785   3.350  10.527 -0.2317 -1.1145 -2.4185
  766MOL0     H 3374   9.328   3.534  10.697 -0.7186 -1.5028 -1.2250
  766MOL0     H 3375   9.092   3.546  10.640 -0.5592  1.6923 -0.3527
  766MOL0     H 3376   8.910   3.839  10.425 -1.6163  1.4573 -4.4118
  766MOL0     H 3377   8.928   3.761  10.272 -0.6243  0.3939  0.2765
  766MOL0     H 3378   8.749   3.696  10.509  1.2848  1.8997 -0.4718
  766MOL0     H 3379   8.704   3.799  10.379 -1.4704 -0.4018  0.3042
  766MOL0     H 3380   8.779   3.561  10.232 -2.8676 -1.0835 -3.3141
  766MOL0     H 3381   8.636   3.660  10.253  1.7166  1.5797  1.3721
  766MOL0     H 3382   8.705   3.470  10.465 -2.1891  0.6751  3.1087
  766MOL0     H 3383   8.552   3.541  10.413  0.9608  0.1746 -0.5450
  766MOL0     H 3384   8.704   3.329  10.237  1.9563 -0.5987  3.8572
  766MOL0     H 3385   8.568   3.416  10.187 -1.6279 -3.4721  0.0687
  766MOL0     H 3386   8.562   3.179  10.296  1.0746  0.3033 -0.8467
  766MOL0     H 3387   8.580   3.267  10.454 -2.2381 -0.0003  1.5848
  766MOL0     H 3388   8.358   3.331  10.260  3.5219  2.1592 -0.1690
  766MOL0     H 3389   8.365   3.379  10.434  1.8968  0.3726  0.5554
  766MOL0     H 3390   8.313   3.098  10.317 -2.6003 -0.9700  0.0874
  766MOL0     H 3391   8.199   3.204  10.401  0.5470  3.4131 -1.0471
  766MOL0     H 3392   9.163   3.773  10.292 -2.2672 -1.3720  1.0917
  766MOL0     H 3393   9.409   3.775  10.350  0.8366 -1.5381  0.3056
  766MOL0     H 3394   9.837   3.902  10.566  2.9510 -0.0453 -1.4121
  766MOL0     H 3395  10.047   3.867  10.611  0.9375 -1.0622  0.3651
  766MOL0     H 3396  10.185   3.139  10.686  0.5966  1.0987 -0.4690
  766MOL0     H 3397   9.985   3.178  10.536 -0.8127 -2.4853  0.9962
  766MOL0     H 3398   9.814   3.182  10.124  0.9252 -0.9591 -0.8321
  766MOL0     H 3399   9.576   3.243  10.038  0.0807  0.0050  0.0775
  766MOL0     H 3400   9.371   3.318   9.976 -0.9642 -0.5760  0.6516
  766MOL0     H 3401   9.389   3.286  10.145  0.6395 -0.0793 -0.0290
  766MOL0     H 3402   9.208   3.443  10.197 -3.2886  2.1014 -0.7402
  766MOL0     H 3403   9.160   3.320  10.070  4.9643 -3.8199  1.6717
  766MOL0     H 3404   9.236   3.530   9.920  2.3365  1.5979  1.4934
  766MOL0     H 3405   9.224   3.630  10.066 -1.7175  0.4083  1.0363
  766MOL0     H 3406   9.002   3.554  10.108  0.3949 -2.9107 -0.3060
  766MOL0     H 3407   8.972   3.492   9.951  0.1450 -1.2384  0.8803
  766MOL0     H 3408   8.965   3.884   9.823 -0.3851  0.8027  1.9971
  766MOL0     H 3409   9.621   3.638  10.191 -0.3757  0.3228  0.7628
  766MOL0     H 3410   9.827   3.583  10.303 -2.0888  0.6117 -0.8661
  767MOL0     O 3411   4.483   5.110   0.835 -0.0320  0.1725 -1.2075
  767MOL0     C 3412   4.548   5.187   0.898 -0.0673  0.4353 -0.8209
  767MOL0     O 3413   4.557   5.196   1.031 -0.2882  0.3064 -0.3805
  767MOL0     C 3414   4.481   5.122   1.118  0.7379 -0.9966 -0.3647
  767MOL0     C 3415   4.349   5.066   1.096  0.0885 -0.3987  0.0623
  767MOL0     C 3416   4.290   4.977   1.185 -1.2840 -0.7947 -0.0859
  767MOL0     C 3417   4.344   4.950   1.316  0.0041  0.5577 -0.3034
  767MOL0     O 3418   4.287   4.889   1.420 -0.0466  0.1841 -0.2008
  767MOL0     C 3419   4.188   4.791   1.400  0.1588 -0.3903  1.0227
  767MOL0     C 3420   4.256   4.668   1.341 -0.2199  1.0038  0.6236
  767MOL0     C 3421   4.204   4.537   1.380  0.2879  0.1318 -0.1051
  767MOL0     C 3422   4.293   4.426   1.320 -0.1230 -0.4953 -0.9792
  767MOL0     C 3423   4.235   4.287   1.344  0.4967 -0.7521  0.0835
  767MOL0     C 3424   4.306   4.167   1.266  0.6320 -1.1051 -0.3399
  767MOL0     C 3425   4.257   4.038   1.336 -1.2050  1.0626 -0.0691
  767MOL0     C 3426   4.359   3.928   1.293 -0.2331  0.1647 -0.4523
  767MOL0     N 3427   4.315   3.796   1.339 -0.0137  0.3849 -0.5710
  767MOL0     C 3428   4.203   3.732   1.283  0.4553 -0.7051 -0.2148
  767MOL0     C 3429   4.177   3.638   1.376 -0.0395 -0.0532  1.0695
  767MOL0     C 3430   4.058   3.547   1.371  0.4871 -0.1079 -1.0196
  767MOL0     C 3431   4.091   3.402   1.415  0.1350  0.2155 -0.6935
  767MOL0     C 3432   4.188   3.336   1.312 -1.4651  0.4044  0.4156
  767MOL0     C 3433   4.215   3.199   1.372  0.0889  0.0733 -0.9613
  767MOL0     O 3434   4.320   3.145   1.291 -0.5270 -0.9441 -0.3697
  767MOL0     C 3435   4.453   3.157   1.342  0.0118  0.9430  0.6677
  767MOL0     C 3436   4.493   3.229   1.458 -0.1752 -0.3854 -0.5136
  767MOL0     C 3437   4.631   3.226   1.498  0.9471  0.2423 -0.5178
  767MOL0     C 3438   4.663   3.306   1.622  0.9873 -0.1383  0.7710
  767MOL0     C 3439   4.720   3.138   1.433  0.2193 -0.9087  0.8704
  767MOL0     C 3440   4.860   3.124   1.467  0.5580  0.1864 -0.6769
  767MOL0     O 3441   4.907   3.186   1.573  1.1961  0.2514  0.3665
  767MOL0     C 3442   5.040   3.182   1.614  0.3249  0.3831 -0.3261
  767MOL0     C 3443   5.055   3.201   1.751  0.0758  0.0774  0.0458
  767MOL0     C 3444   5.183   3.200   1.813  0.4958 -0.0884  0.6100
  767MOL0     C 3445   5.303   3.211   1.740  0.4830  0.7904 -0.4795
  767MOL0     O 3446   5.425   3.202   1.786  0.3078 -0.0638  0.3403
  767MOL0     C 3447   5.446   3.130   1.908 -0.7916  0.6248 -0.2454
  767MOL0     C 3448   5.482   3.227   2.020  0.2244 -0.7511  0.6688
  767MOL0     C 3449   5.374   3.342   2.046 -0.1548  0.2334 -0.1624
  767MOL0     C 3450   5.418   3.450   2.144 -0.6445  0.3920 -0.9356
  767MOL0     C 3451   5.308   3.548   2.173  0.9594  0.3146  0.3801
  767MOL0     C 3452   5.316   3.628   2.306 -0.6715 -0.1741  0.9159
  767MOL0     C 3453   5.445   3.708   2.314  0.3032  0.2344 -1.0138
  767MOL0     C 3454   5.438   3.819   2.435  0.2711 -0.0121  0.9170
  767MOL0    Cl 3455   5.598   3.894   2.421 -0.6815 -0.1499  0.0062
  767MOL0     C 3456   5.283   3.215   1.604 -0.5851  0.3468  1.3291
  767MOL0     C 3457   5.161   3.208   1.541 -0.7644  0.7317  0.2476
  767MOL0     O 3458   4.919   3.031   1.405 -0.6766 -0.5365  0.2899
  767MOL0     C 3459   4.667   3.059   1.332  0.5452  0.1080  1.3480
  767MOL0     C 3460   4.536   3.064   1.284  0.5796 -0.1972  0.3110
  767MOL0     N 3461   4.280   3.641   1.471 -0.4926 -0.1212  0.8482
  767MOL0     N 3462   4.354   3.746   1.459 -0.5579 -0.3738 -0.6384
  767MOL0     C 3463   4.467   5.011   1.343  0.5065  0.0690  0.5942
  767MOL0     C 3464   4.534   5.088   1.245 -0.2134  0.2960 -0.0046
  767MOL0     C 3465   4.652   5.249   0.817 -0.4006 -0.3642  0.0574
  767MOL0     C 3466   4.742   5.331   0.875 -0.7740  0.0197  0.3274
  767MOL0     C 3467   4.825   5.405   0.795 -0.3414  0.1520  0.0331
  767MOL0     C 3468   4.833   5.408   0.656 -0.4815 -0.4227 -0.6885
  767MOL0     O 3469   4.922   5.495   0.592 -0.4930  0.2302 -0.9150
  767MOL0     C 3470   4.940   5.472   0.454 -0.2618 -0.6124  0.2366
  767MOL0     C 3471   4.961   5.600   0.372  0.8516  0.0884 -0.3470
  767MOL0     C 3472   5.084   5.687   0.426  0.8552  0.7056 -0.8764
  767MOL0     C 3473   5.195   5.675   0.326 -0.1271  0.2764 -0.2219
  767MOL0     C 3474   5.303   5.770   0.338  1.1481  0.0615  0.2275
  767MOL0     C 3475   5.386   5.850   0.362 -0.3918 -0.7088  0.7130
  767MOL0     C 3476   4.720   5.340   0.599  0.1657  0.0706 -0.1682
  767MOL0     C 3477   4.655   5.247   0.674  1.1459  0.6109  0.2294
  767MOL0     H 3478   4.286   5.081   1.008 -0.3939 -2.4135  0.0124
  767MOL0     H 3479   4.203   4.930   1.140 -0.8610 -0.0949 -1.7014
  767MOL0     H 3480   4.123   4.781   1.488 -0.7063  2.2721  0.7662
  767MOL0     H 3481   4.107   4.817   1.332 -0.4852  2.8234  2.8222
  767MOL0     H 3482   4.254   4.678   1.232  2.1212  2.2065  0.6174
  767MOL0     H 3483   4.363   4.660   1.363  0.3547  1.4694 -1.7518
  767MOL0     H 3484   4.221   4.537   1.488  0.4923  1.7287 -0.1063
  767MOL0     H 3485   4.098   4.533   1.356 -0.3966  2.8561  1.9679
  767MOL0     H 3486   4.307   4.454   1.215 -0.1769  3.1791 -0.1577
  767MOL0     H 3487   4.392   4.433   1.367 -0.5605 -0.5985 -0.0089
  767MOL0     H 3488   4.257   4.272   1.450  1.1589  2.2190  0.4492
  767MOL0     H 3489   4.129   4.272   1.323  0.2358 -0.6022  1.2389
  767MOL0     H 3490   4.303   4.168   1.157  0.7891 -1.4322 -0.3487
  767MOL0     H 3491   4.409   4.187   1.298 -0.1852 -0.1672  1.9662
  767MOL0     H 3492   4.251   4.042   1.445 -0.8152 -0.0192  0.0046
  767MOL0     H 3493   4.159   4.008   1.297 -1.2819  0.8069  0.3143
  767MOL0     H 3494   4.460   3.952   1.329  0.2441  1.6268 -2.5615
  767MOL0     H 3495   4.359   3.929   1.183 -2.2032 -1.1775 -0.5047
  767MOL0     H 3496   4.162   3.749   1.184 -2.3070 -0.8346  0.8245
  767MOL0     H 3497   3.975   3.588   1.430  0.8893  1.7349 -1.6621
  767MOL0     H 3498   4.017   3.550   1.270 -0.5742  1.2287 -0.5891
  767MOL0     H 3499   4.000   3.341   1.409 -0.8160  1.4859  0.2772
  767MOL0     H 3500   4.131   3.386   1.515  0.0019 -3.8608 -1.1359
  767MOL0     H 3501   4.284   3.389   1.301 -0.0994 -2.0246 -0.1250
  767MOL0     H 3502   4.133   3.336   1.218 -1.6734 -1.4226  0.4897
  767MOL0     H 3503   4.124   3.139   1.361  0.6252 -0.7131 -1.1144
  767MOL0     H 3504   4.239   3.212   1.478  1.4570 -0.0720 -1.2409
  767MOL0     H 3505   4.424   3.304   1.493 -1.9844 -1.7382 -1.0221
  767MOL0     H 3506   4.736   3.386   1.606  0.4314  0.7811  2.5544
  767MOL0     H 3507   4.569   3.348   1.660  2.0512  0.3120  3.0450
  767MOL0     H 3508   4.697   3.246   1.706  1.0545 -0.9657  0.1688
  767MOL0     H 3509   4.970   3.210   1.819  2.1715 -2.0976  3.2419
  767MOL0     H 3510   5.187   3.170   1.917  1.9833 -2.1939  0.0157
  767MOL0     H 3511   5.357   3.074   1.940  1.0890 -2.5769 -0.1599
  767MOL0     H 3512   5.525   3.056   1.893  0.3375  1.9345 -1.0539
  767MOL0     H 3513   5.484   3.164   2.109  0.5686 -0.3218  0.9706
  767MOL0     H 3514   5.582   3.270   2.006 -0.2328 -0.1379 -0.9563
  767MOL0     H 3515   5.281   3.299   2.085 -0.1594  0.0518 -0.3739
  767MOL0     H 3516   5.349   3.393   1.953 -1.8127 -2.2904 -1.2172
  767MOL0     H 3517   5.442   3.411   2.244  1.3010 -1.3438 -1.9911
  767MOL0     H 3518   5.510   3.489   2.100  0.7464 -1.2450  0.3788
  767MOL0     H 3519   5.215   3.490   2.179  0.7077  0.4810 -1.2734
  767MOL0     H 3520   5.302   3.623   2.093  5.0479  1.7593  1.2158
  767MOL0     H 3521   5.230   3.695   2.296  0.0871  0.8521  1.0382
  767MOL0     H 3522   5.314   3.554   2.386 -0.3996  0.8754  1.9276
  767MOL0     H 3523   5.450   3.781   2.233 -0.1433  1.7829  0.3092
  767MOL0     H 3524   5.539   3.653   2.314 -0.7667 -2.3366 -6.2614
  767MOL0     H 3525   5.430   3.765   2.529  0.0049 -1.7686 -0.0743
  767MOL0     H 3526   5.362   3.894   2.411 -0.0192 -0.5488  0.1174
  767MOL0     H 3527   5.364   3.221   1.531 -0.9630 -2.3520  0.5784
  767MOL0     H 3528   5.163   3.211   1.433  5.4845 -1.2057 -0.0710
  767MOL0     H 3529   4.731   2.993   1.274 -1.4200 -1.6127  1.0215
  767MOL0     H 3530   4.505   3.013   1.193  1.0468  2.0209 -1.1537
  767MOL0     H 3531   4.517   4.980   1.434 -0.7077  0.7179  1.5128
  767MOL0     H 3532   4.630   5.134   1.264  0.5400 -1.2764  0.2321
  767MOL0     H 3533   4.750   5.334   0.983 -0.9859 -1.6861  0.4326
  767MOL0     H 3534   4.901   5.463   0.846  1.2181  0.0255 -2.0139
  767MOL0     H 3535   5.032   5.412   0.448 -1.8525 -3.2666  0.6440
  767MOL0     H 3536   4.864   5.417   0.398  1.2798  1.1661 -4.0071
  767MOL0     H 3537   4.872   5.662   0.367  1.6729  1.2875 -0.4889
  767MOL0     H 3538   4.991   5.570   0.271  2.1681 -3.0354  0.8070
  767MOL0     H 3539   5.128   5.660   0.523 -1.1224  2.4054  0.6001
  767MOL0     H 3540   5.049   5.790   0.425  2.2966  1.2649  0.8978
  767MOL0     H 3541   5.160   5.679   0.222 -2.5391  0.4487  0.5210
  767MOL0     H 3542   5.238   5.577   0.348  0.3030  0.0720 -1.8234
  767MOL0     H 3543   5.442   5.936   0.392 -1.3192  0.6073 -1.0950
  767MOL0     H 3544   4.702   5.351   0.493 -0.2927  0.0421 -0.0916
  767MOL0     H 3545   4.582   5.188   0.619 -2.2618  1.6817  3.2496
  768MOL0     O 3546   7.856   2.138  11.549  0.0407  0.0115 -0.1613
  768MOL0     C 3547   7.917   2.195  11.461 -0.5984 -1.2022  0.7717
  768MOL0     O 3548   7.908   2.163  11.335 -0.8035  0.6965 -0.3959
  768MOL0     C 3549   7.845   2.053  11.300  0.7050  1.0819  0.2344
  768MOL0     C 3550   7.704   2.035  11.295 -1.3263 -0.9345 -0.5884
  768MOL0     C 3551   7.650   1.907  11.276 -0.1459  0.2646  0.0479
  768MOL0     C 3552   7.724   1.797  11.249 -0.0427  0.8645  1.3159
  768MOL0     O 3553   7.657   1.681  11.231  0.0841  0.1159  0.5977
  768MOL0     C 3554   7.706   1.572  11.305 -0.2046 -0.0777  0.5901
  768MOL0     C 3555   7.795   1.465  11.224 -0.1176 -0.5135  0.5552
  768MOL0     C 3556   7.867   1.380  11.331 -0.2529 -0.0015  0.2947
  768MOL0     C 3557   7.974   1.274  11.282 -0.0522 -0.4342 -0.5011
  768MOL0     C 3558   8.065   1.234  11.396  0.3851  0.4477  0.7936
  768MOL0     C 3559   8.143   1.111  11.345 -0.5160  0.6271  0.3096
  768MOL0     C 3560   8.240   1.055  11.440 -0.5477 -0.8254  0.1944
  768MOL0     C 3561   8.287   0.914  11.397 -0.8439  0.0385  0.3908
  768MOL0     N 3562   8.304   0.899  11.252  0.1883  0.6330 -0.6983
  768MOL0     C 3563   8.422   0.933  11.184 -0.4140 -0.8804 -0.0937
  768MOL0     C 3564   8.397   0.890  11.059  0.3404 -0.2764 -0.3555
  768MOL0     C 3565   8.499   0.884  10.952  0.5149  1.2155 -0.1543
  768MOL0     C 3566   8.582   1.022  10.933 -0.3312  0.1688  0.7223
  768MOL0     C 3567   8.499   1.136  10.877 -0.7659  1.0481  1.2050
  768MOL0     C 3568   8.587   1.267  10.879 -0.8249  0.0937  0.2234
  768MOL0     O 3569   8.629   1.297  11.013 -1.1805 -0.3207  0.2024
  768MOL0     C 3570   8.561   1.392  11.099  0.4581 -0.4317 -0.2384
  768MOL0     C 3571   8.425   1.413  11.066 -1.1828  0.7123 -0.4478
  768MOL0     C 3572   8.356   1.506  11.141  0.1686  0.4614 -1.0283
  768MOL0     C 3573   8.218   1.533  11.088 -0.2208 -0.1520 -0.8360
  768MOL0     C 3574   8.421   1.576  11.254  0.2140 -0.1762  0.4176
  768MOL0     C 3575   8.346   1.670  11.342  0.2373 -0.0152 -0.0067
  768MOL0     O 3576   8.428   1.718  11.447  1.0442  0.3281 -0.2221
  768MOL0     C 3577   8.382   1.812  11.533  0.5869 -0.2298  0.1009
  768MOL0     C 3578   8.252   1.815  11.584  0.1281 -0.2604  0.8523
  768MOL0     C 3579   8.204   1.917  11.666  0.7311  0.1382 -0.1894
  768MOL0     C 3580   8.292   2.012  11.713  1.5179  0.8943  0.6045
  768MOL0     O 3581   8.253   2.118  11.793  0.7015  0.0948 -1.1578
  768MOL0     C 3582   8.333   2.142  11.913 -0.4801 -0.4574 -0.9805
  768MOL0     C 3583   8.335   2.009  12.000 -0.3313 -0.8927  0.2518
  768MOL0     C 3584   8.446   2.021  12.112  0.4259 -0.5253  0.0500
  768MOL0     C 3585   8.442   1.895  12.203 -0.6725 -0.2616  1.0617
  768MOL0     C 3586   8.540   1.912  12.315  0.1058 -0.0485 -0.0133
  768MOL0     C 3587   8.687   1.890  12.284 -0.3725 -0.2530  1.3427
  768MOL0     C 3588   8.787   1.963  12.363 -0.0043  0.5197  0.4370
  768MOL0     C 3589   8.931   1.965  12.307  0.6986  0.8596 -0.2130
  768MOL0    Cl 3590   8.950   2.050  12.156  0.0714  0.0052  0.2109
  768MOL0     C 3591   8.425   2.009  11.674  0.5279  0.0451  0.5537
  768MOL0     C 3592   8.469   1.916  11.583  0.3402 -0.2884 -0.6393
  768MOL0     O 3593   8.233   1.707  11.315 -0.1077  1.1877  1.1278
  768MOL0     C 3594   8.555   1.540  11.285 -0.9871 -0.0129 -0.2804
  768MOL0     C 3595   8.625   1.447  11.211  0.1371  0.1557  0.8135
  768MOL0     N 3596   8.277   0.823  11.046 -0.0327  0.1427 -0.5809
  768MOL0     N 3597   8.218   0.834  11.161 -0.8276  0.0761 -0.8135
  768MOL0     C 3598   7.873   1.807  11.244 -0.0320 -0.3732  1.5620
  768MOL0     C 3599   7.926   1.936  11.266  1.3218  0.1092 -0.9038
  768MOL0     C 3600   7.993   2.304  11.508 -0.2009 -0.1085  0.0924
  768MOL0     C 3601   8.042   2.407  11.429 -0.5499  0.0553  0.9878
  768MOL0     C 3602   8.114   2.506  11.487 -0.1404  1.4748  0.1598
  768MOL0     C 3603   8.150   2.512  11.620 -0.5973  0.0756 -0.1780
  768MOL0     O 3604   8.229   2.619  11.663  0.2130  0.0786 -0.3749
  768MOL0     C 3605   8.253   2.636  11.807  0.6718  0.1471 -0.7184
  768MOL0     C 3606   8.310   2.779  11.835  0.0351 -0.4279  0.0984
  768MOL0     C 3607   8.356   2.798  11.981 -0.3361 -1.3092 -0.2799
  768MOL0     C 3608   8.366   2.953  12.004 -0.5966  0.0428 -0.1197
  768MOL0     C 3609   8.390   2.967  12.146 -1.0182  0.6473 -0.2813
  768MOL0     C 3610   8.388   2.964  12.265 -0.3791 -0.8387 -0.6522
  768MOL0     C 3611   8.105   2.409  11.705  0.2288  0.2355  0.6737
  768MOL0     C 3612   8.020   2.308  11.650  0.9216 -0.2303 -0.0295
  768MOL0     H 3613   7.625   2.110  11.292 -1.4583 -1.0118  0.3986
  768MOL0     H 3614   7.541   1.906  11.280 -0.2515 -3.8685  0.1806
  768MOL0     H 3615   7.757   1.611  11.394  1.1950 -2.5286  0.9468
  768MOL0     H 3616   7.626   1.522  11.360 -1.0275  3.3207  2.7873
  768MOL0     H 3617   7.748   1.395  11.155 -0.1519  1.2767 -1.3656
  768MOL0     H 3618   7.866   1.528  11.169  2.9309 -4.5485 -0.6435
  768MOL0     H 3619   7.926   1.457  11.381 -1.6913  3.2876 -2.6593
  768MOL0     H 3620   7.797   1.329  11.398 -0.9768 -0.3632 -0.7110
  768MOL0     H 3621   7.922   1.192  11.231  0.3103 -1.3588  0.5942
  768MOL0     H 3622   8.039   1.326  11.211 -1.8895 -0.3485 -2.2263
  768MOL0     H 3623   8.133   1.316  11.422  0.1121  0.2078  2.3995
  768MOL0     H 3624   8.007   1.216  11.487  1.5452 -1.0580  1.2856
  768MOL0     H 3625   8.076   1.028  11.320  3.6137 -2.9992  0.2377
  768MOL0     H 3626   8.198   1.139  11.255  2.8868  0.7931  2.2974
  768MOL0     H 3627   8.322   1.125  11.458 -1.6103  0.0082  2.1042
  768MOL0     H 3628   8.195   1.050  11.540  1.4707 -1.1895  1.1376
  768MOL0     H 3629   8.225   0.829  11.428  0.2577 -2.2012 -2.9637
  768MOL0     H 3630   8.378   0.911  11.458 -0.3048  4.3045  0.0815
  768MOL0     H 3631   8.511   0.978  11.229  0.7650  0.8083 -3.6798
  768MOL0     H 3632   8.563   0.803  10.987  0.4295  1.3042  0.2173
  768MOL0     H 3633   8.457   0.840  10.861  1.9657 -0.6111  0.0200
  768MOL0     H 3634   8.674   1.001  10.878  0.7309 -2.4201  3.2132
  768MOL0     H 3635   8.630   1.060  11.024 -0.4046 -0.0036  0.8329
  768MOL0     H 3636   8.406   1.138  10.935 -1.0459 -0.0343  0.8270
  768MOL0     H 3637   8.474   1.104  10.776 -0.8594 -2.1361  2.1299
  768MOL0     H 3638   8.531   1.349  10.834  1.0328  2.2512  1.6725
  768MOL0     H 3639   8.674   1.247  10.815  2.3192 -0.6003  4.3037
  768MOL0     H 3640   8.385   1.373  10.973  0.3024 -0.4175 -0.6306
  768MOL0     H 3641   8.226   1.637  11.055 -3.4300  1.0696  1.7171
  768MOL0     H 3642   8.188   1.459  11.014  0.3678 -2.6396  1.2611
  768MOL0     H 3643   8.145   1.535  11.169  2.8364  0.0105  2.1405
  768MOL0     H 3644   8.184   1.735  11.556  3.3897 -3.1107  0.3375
  768MOL0     H 3645   8.098   1.905  11.682  0.8606  0.7031  1.2526
  768MOL0     H 3646   8.438   2.169  11.903  0.5926 -3.1456  1.7328
  768MOL0     H 3647   8.287   2.223  11.971 -0.3861  0.7030 -2.4625
  768MOL0     H 3648   8.234   2.001  12.042 -0.7942  0.6234 -0.5222
  768MOL0     H 3649   8.355   1.923  11.936 -2.3107 -0.5822 -0.8324
  768MOL0     H 3650   8.426   2.108  12.175  1.6252 -0.0170 -0.2488
  768MOL0     H 3651   8.541   2.052  12.067 -0.7953  3.2393 -0.3100
  768MOL0     H 3652   8.344   1.873  12.246  0.0873 -1.2950  2.3070
  768MOL0     H 3653   8.465   1.805  12.146 -2.6888 -0.3478  0.2880
  768MOL0     H 3654   8.514   1.851  12.402  1.2348  1.2541  1.2968
  768MOL0     H 3655   8.545   2.018  12.340  4.8338  0.0416 -0.4952
  768MOL0     H 3656   8.708   1.783  12.293  1.4652  0.0305  0.9561
  768MOL0     H 3657   8.711   1.933  12.186  2.2787  3.4581  3.3777
  768MOL0     H 3658   8.782   1.926  12.466 -0.7955  2.2243  1.0412
  768MOL0     H 3659   8.760   2.068  12.366  0.9598  0.8207 -0.4840
  768MOL0     H 3660   8.963   1.864  12.280 -1.7339 -0.2153  0.5990
  768MOL0     H 3661   9.000   2.006  12.381 -0.7604 -0.9069  2.2986
  768MOL0     H 3662   8.494   2.085  11.707 -1.5897  1.0670  2.9192
  768MOL0     H 3663   8.576   1.917  11.564  0.4897  1.0449  0.1263
  768MOL0     H 3664   8.609   1.583  11.368  2.1465 -0.8325 -1.7618
  768MOL0     H 3665   8.729   1.420  11.225 -0.5625 -3.0302  0.6692
  768MOL0     H 3666   7.941   1.728  11.214 -1.3545 -0.2810 -2.1010
  768MOL0     H 3667   8.034   1.945  11.259  1.6888 -3.6487 -2.4475
  768MOL0     H 3668   8.040   2.411  11.321 -1.1584  1.2091  1.0297
  768MOL0     H 3669   8.159   2.570  11.411  1.0304 -1.1421 -1.4797
  768MOL0     H 3670   8.159   2.631  11.861 -0.4930  0.3422 -2.6336
  768MOL0     H 3671   8.322   2.562  11.850 -0.8486 -0.3117  1.0154
  768MOL0     H 3672   8.226   2.837  11.797  0.3926 -1.9718 -3.4390
  768MOL0     H 3673   8.381   2.822  11.762 -3.2090  0.0952 -3.0467
  768MOL0     H 3674   8.457   2.761  11.998  0.5716 -0.4119 -3.1498
  768MOL0     H 3675   8.282   2.764  12.055  1.7671 -2.2987  1.4803
  768MOL0     H 3676   8.274   3.000  11.972 -0.6086  0.5339  0.6156
  768MOL0     H 3677   8.447   2.992  11.941 -1.9890  1.5562 -1.0321
  768MOL0     H 3678   8.392   2.956  12.372  0.4055  0.7793 -0.5225
  768MOL0     H 3679   8.127   2.419  11.810  2.4843  0.3005  0.2521
  768MOL0     H 3680   7.983   2.253  11.736  1.1433  3.0437  2.3240
  769MOL0     O 3681   9.307   4.720   5.018 -0.2536 -0.1294 -0.4410
  769MOL0     C 3682   9.292   4.609   5.065  0.5350 -1.2365 -0.1099
  769MOL0     O 3683   9.187   4.522   5.037  0.1814 -0.5002 -1.2632
  769MOL0     C 3684   9.089   4.554   4.951 -0.3591  0.1957 -0.4940
  769MOL0     C 3685   8.970   4.616   5.006 -0.6595  0.3003  0.1704
  769MOL0     C 3686   8.867   4.642   4.919 -0.5549 -0.4285  0.8123
  769MOL0     C 3687   8.890   4.660   4.781  0.5290  0.7788 -0.2502
  769MOL0     O 3688   8.781   4.707   4.710 -0.5818  0.6862 -0.6841
  769MOL0     C 3689   8.797   4.705   4.565  0.7380 -0.1520 -0.5059
  769MOL0     C 3690   8.663   4.754   4.506 -0.0157 -0.8047 -0.2284
  769MOL0     C 3691   8.617   4.881   4.584  0.5394 -0.4222 -0.2516
  769MOL0     C 3692   8.496   4.953   4.518 -0.1133 -1.0022  0.4610
  769MOL0     C 3693   8.357   4.901   4.564  0.3478  0.2285 -0.0327
  769MOL0     C 3694   8.238   4.951   4.496 -0.3644  0.1332  0.5132
  769MOL0     C 3695   8.220   5.098   4.528 -0.3464 -0.7922 -0.5396
  769MOL0     C 3696   8.084   5.146   4.467  0.0173 -0.5338 -0.6047
  769MOL0     N 3697   8.043   5.276   4.512 -0.6272  0.3580 -0.2068
  769MOL0     C 3698   8.112   5.397   4.498  0.6049  0.6524  0.3365
  769MOL0     C 3699   8.028   5.490   4.551 -0.6866  0.0987  0.2514
  769MOL0     C 3700   8.049   5.637   4.530 -0.9261  0.8037 -0.4165
  769MOL0     C 3701   8.073   5.659   4.380 -0.9409  0.2389 -0.0060
  769MOL0     C 3702   7.942   5.658   4.308 -0.0749 -0.2512  0.1386
  769MOL0     C 3703   7.930   5.725   4.169  0.3837 -0.2484 -0.0911
  769MOL0     O 3704   7.787   5.716   4.147  0.6200  0.2290  0.0545
  769MOL0     C 3705   7.737   5.821   4.083  0.9561 -0.9205 -0.4388
  769MOL0     C 3706   7.636   5.883   4.149  0.5683 -0.2261  0.1005
  769MOL0     C 3707   7.581   6.003   4.103  0.4135 -0.9484 -0.1057
  769MOL0     C 3708   7.489   6.081   4.183 -0.2842  0.0221  0.2588
  769MOL0     C 3709   7.628   6.060   3.983  0.0770 -1.4338  0.4374
  769MOL0     C 3710   7.580   6.189   3.916 -0.0824 -0.2340  0.1272
  769MOL0     O 3711   7.570   6.303   3.989  0.0103 -0.4332  0.1146
  769MOL0     C 3712   7.584   6.417   3.917 -0.8213 -0.1988  0.2789
  769MOL0     C 3713   7.505   6.514   3.962  0.0629 -0.3457 -0.0948
  769MOL0     C 3714   7.507   6.637   3.897  0.5344 -0.0396 -0.5490
  769MOL0     C 3715   7.584   6.652   3.785  0.9218 -0.4187  0.2642
  769MOL0     O 3716   7.582   6.767   3.712 -0.3547  0.1504  0.4812
  769MOL0     C 3717   7.469   6.856   3.722 -0.4750  0.5541 -0.0418
  769MOL0     C 3718   7.488   6.960   3.618  0.4034  0.0750 -0.1608
  769MOL0     C 3719   7.515   6.902   3.477 -0.3156  0.3149 -0.2914
  769MOL0     C 3720   7.483   7.001   3.366 -0.0532  0.3908  0.3122
  769MOL0     C 3721   7.552   6.947   3.237 -0.0862  0.2328 -0.2479
  769MOL0     C 3722   7.549   7.048   3.129 -0.4848 -0.4045  0.7438
  769MOL0     C 3723   7.601   7.003   2.986 -0.6827 -0.0154 -0.4071
  769MOL0     C 3724   7.631   7.115   2.891 -0.1473  0.5057  0.6425
  769MOL0    Cl 3725   7.482   7.209   2.862 -0.0044  0.2056 -0.1149
  769MOL0     C 3726   7.677   6.554   3.736  1.7890  0.1119 -0.0510
  769MOL0     C 3727   7.677   6.439   3.814  0.4295 -0.8143 -1.1095
  769MOL0     O 3728   7.557   6.171   3.800 -0.0733  0.7566  0.2431
  769MOL0     C 3729   7.702   5.971   3.899 -0.3110  0.9052  0.4930
  769MOL0     C 3730   7.770   5.863   3.953 -0.1323 -0.0846  0.1388
  769MOL0     N 3731   7.911   5.429   4.592  0.6601 -0.4367 -0.6212
  769MOL0     N 3732   7.924   5.303   4.570  0.3002  1.3419  0.0422
  769MOL0     C 3733   9.019   4.622   4.730  0.2050 -0.0728 -0.3579
  769MOL0     C 3734   9.117   4.566   4.812  0.4480  0.1410  0.1862
  769MOL0     C 3735   9.392   4.566   5.163 -0.0189  0.0545 -0.1482
  769MOL0     C 3736   9.528   4.607   5.158  0.8050 -0.5537 -0.1116
  769MOL0     C 3737   9.620   4.548   5.234 -0.7364 -0.3633 -0.4929
  769MOL0     C 3738   9.593   4.446   5.327  0.6235 -0.0920  0.1680
  769MOL0     O 3739   9.695   4.392   5.398  1.3174  0.1033  0.3110
  769MOL0     C 3740   9.701   4.256   5.424  0.6359  0.4881  0.0765
  769MOL0     C 3741   9.838   4.228   5.483  0.5054  0.1163  0.5104
  769MOL0     C 3742   9.946   4.270   5.376  0.9177 -0.2769 -0.5205
  769MOL0     C 3743  10.033   4.148   5.357 -0.0716  0.0978  0.2179
  769MOL0     C 3744  10.158   4.188   5.292 -0.6965 -0.5847  1.6364
  769MOL0     C 3745  10.259   4.248   5.260 -0.7182 -0.1621  0.2036
  769MOL0     C 3746   9.462   4.407   5.327 -0.8526 -0.1271 -0.0417
  769MOL0     C 3747   9.360   4.464   5.251 -1.1806  0.2839 -0.5974
  769MOL0     H 3748   8.956   4.632   5.112  2.5579 -3.0872  1.3410
  769MOL0     H 3749   8.768   4.682   4.939 -1.2506 -1.9658  0.5560
  769MOL0     H 3750   8.880   4.768   4.531  0.6837  2.3264  3.3593
  769MOL0     H 3751   8.815   4.609   4.517  1.4791 -0.8970  1.2058
  769MOL0     H 3752   8.675   4.785   4.402  1.2462  1.3743  0.4934
  769MOL0     H 3753   8.584   4.679   4.513 -1.1776  0.2323 -1.4278
  769MOL0     H 3754   8.578   4.852   4.682 -3.2174  1.9553 -0.8388
  769MOL0     H 3755   8.704   4.948   4.582  2.1007 -2.3657 -1.7440
  769MOL0     H 3756   8.512   5.056   4.552  0.9810 -1.1645  0.4695
  769MOL0     H 3757   8.510   4.947   4.410  2.4094 -3.4170  0.8131
  769MOL0     H 3758   8.351   4.794   4.542 -2.4309  0.4174 -0.4977
  769MOL0     H 3759   8.353   4.925   4.670  0.2922  0.0333  0.0098
  769MOL0     H 3760   8.241   4.931   4.388 -0.4509  1.1656  0.3069
  769MOL0     H 3761   8.148   4.906   4.538  0.8575 -4.2667 -1.0106
  769MOL0     H 3762   8.234   5.121   4.634  0.2769  1.4217 -1.0411
  769MOL0     H 3763   8.284   5.168   4.473 -1.3781 -1.3144 -2.5333
  769MOL0     H 3764   8.007   5.072   4.489  1.4715 -2.2868 -1.0778
  769MOL0     H 3765   8.094   5.173   4.361 -1.8286  4.2267  0.2029
  769MOL0     H 3766   8.204   5.422   4.446  0.3113 -0.7245 -0.9390
  769MOL0     H 3767   7.969   5.692   4.580 -2.7717 -1.6321 -0.4961
  769MOL0     H 3768   8.153   5.651   4.560 -1.1543  1.5721  0.0415
  769MOL0     H 3769   8.143   5.582   4.347 -0.4775  1.1489 -1.1887
  769MOL0     H 3770   8.125   5.754   4.362  0.2149 -0.3958 -0.1575
  769MOL0     H 3771   7.871   5.711   4.372  1.6058  0.9773  1.0683
  769MOL0     H 3772   7.923   5.550   4.301  1.9856 -0.6115 -0.5359
  769MOL0     H 3773   7.995   5.680   4.094  0.2799 -1.7464  0.6782
  769MOL0     H 3774   7.960   5.830   4.168  1.5463 -0.5494 -2.4760
  769MOL0     H 3775   7.611   5.838   4.245  0.1163 -4.4277 -1.7398
  769MOL0     H 3776   7.405   6.113   4.120 -0.0867  1.9396  0.8941
  769MOL0     H 3777   7.443   6.028   4.267 -2.4952 -1.0017 -1.5042
  769MOL0     H 3778   7.532   6.179   4.205  0.4660  0.1150 -1.4794
  769MOL0     H 3779   7.434   6.486   4.039  1.1409 -2.6482  0.1410
  769MOL0     H 3780   7.430   6.707   3.929 -0.8238 -1.6189 -0.2767
  769MOL0     H 3781   7.371   6.811   3.704  0.4587 -2.0250  0.8901
  769MOL0     H 3782   7.457   6.897   3.823 -1.1428 -2.9452  1.4512
  769MOL0     H 3783   7.405   7.031   3.608  2.0491  2.3736  1.4358
  769MOL0     H 3784   7.566   7.031   3.647  0.9852 -1.0838  1.2207
  769MOL0     H 3785   7.467   6.807   3.453 -2.7003  1.2135  0.6467
  769MOL0     H 3786   7.622   6.879   3.474 -0.0089  1.7101 -1.1033
  769MOL0     H 3787   7.378   7.017   3.343  0.3173 -0.8054 -2.5495
  769MOL0     H 3788   7.534   7.096   3.384  1.2868  0.7207 -4.1670
  769MOL0     H 3789   7.502   6.854   3.210  0.2199 -0.2786  0.8606
  769MOL0     H 3790   7.655   6.917   3.259 -0.2991 -1.0406 -0.8909
  769MOL0     H 3791   7.445   7.075   3.107 -0.9951 -1.6246  1.6205
  769MOL0     H 3792   7.609   7.138   3.146 -0.8556 -0.3003  1.5437
  769MOL0     H 3793   7.532   6.933   2.937  0.3072 -2.7041  1.7817
  769MOL0     H 3794   7.699   6.957   3.004 -0.9265  0.3777  2.2134
  769MOL0     H 3795   7.671   7.081   2.795 -0.4371 -1.1332  1.0807
  769MOL0     H 3796   7.719   7.175   2.920  0.2408 -0.0419  0.6119
  769MOL0     H 3797   7.745   6.584   3.657  0.4659  2.0777 -0.5301
  769MOL0     H 3798   7.747   6.366   3.773  1.2806 -2.9253  3.5058
  769MOL0     H 3799   7.738   5.989   3.798  1.7235 -1.0214  0.7760
  769MOL0     H 3800   7.847   5.807   3.900 -0.3852 -0.8222  0.5308
  769MOL0     H 3801   9.058   4.638   4.630  0.4173  3.1354  0.1296
  769MOL0     H 3802   9.209   4.547   4.759  1.3920 -0.2356  1.8676
  769MOL0     H 3803   9.558   4.684   5.087 -1.9227  0.7639  0.0306
  769MOL0     H 3804   9.726   4.569   5.225 -0.4892 -1.9163 -1.4753
  769MOL0     H 3805   9.625   4.224   5.496  2.8713 -1.2069  1.8199
  769MOL0     H 3806   9.701   4.198   5.331  1.2274 -1.1384  1.0454
  769MOL0     H 3807   9.847   4.119   5.493  0.5301  0.0930  0.2500
  769MOL0     H 3808   9.855   4.282   5.577  1.1275 -1.6646  1.4810
  769MOL0     H 3809   9.982   4.363   5.420 -1.0533  1.8458 -3.0122
  769MOL0     H 3810   9.899   4.292   5.279  1.0769  1.2792 -0.2738
  769MOL0     H 3811   9.981   4.072   5.296 -0.2031  1.3240 -1.2549
  769MOL0     H 3812  10.049   4.114   5.459 -0.4841 -1.5054 -0.2118
  769MOL0     H 3813  10.345   4.305   5.233 -1.5918  0.5947 -1.0783
  769MOL0     H 3814   9.430   4.331   5.398  2.7523 -2.6928 -0.8676
  769MOL0     H 3815   9.257   4.429   5.255 -0.3293 -2.8883 -2.2807
  770MOL0     O 3816   4.368   4.909   3.345 -0.0440 -0.1182 -0.1137
  770MOL0     C 3817   4.278   4.831   3.362  0.7036 -1.1839  0.9641
  770MOL0     O 3818   4.148   4.867   3.371 -0.1136  0.5456 -0.1192
  770MOL0     C 3819   4.106   4.989   3.359  0.5949  0.6585 -0.9046
  770MOL0     C 3820   4.026   5.037   3.468  0.3187 -0.7558  0.1838
  770MOL0     C 3821   3.960   5.158   3.459  0.1095 -0.7861  1.4079
  770MOL0     C 3822   3.978   5.243   3.347 -0.3820 -0.5795 -0.5968
  770MOL0     O 3823   3.933   5.373   3.367  0.2738 -0.2244 -0.3898
  770MOL0     C 3824   3.962   5.471   3.267  0.1331  1.0863 -0.0953
  770MOL0     C 3825   4.097   5.543   3.299  0.4479 -0.7126 -0.2519
  770MOL0     C 3826   4.082   5.640   3.414  0.4150  0.4593 -0.5558
  770MOL0     C 3827   4.210   5.698   3.455 -0.7670  0.1089 -0.2329
  770MOL0     C 3828   4.206   5.776   3.585 -0.7790 -0.2562  0.4841
  770MOL0     C 3829   4.193   5.710   3.720  0.3321  0.4430  0.2331
  770MOL0     C 3830   4.242   5.795   3.834 -0.9338  0.2061  0.8072
  770MOL0     C 3831   4.401   5.805   3.865  0.2409  0.9432  0.4257
  770MOL0     N 3832   4.447   5.943   3.880  0.4583  0.4408  0.7636
  770MOL0     C 3833   4.383   6.033   3.958 -0.2063 -0.6324  0.6686
  770MOL0     C 3834   4.463   6.140   3.942 -0.0369 -0.1299  0.4037
  770MOL0     C 3835   4.431   6.270   4.018  0.0346 -0.6493 -0.1541
  770MOL0     C 3836   4.418   6.245   4.169 -0.3908 -0.0647  0.6719
  770MOL0     C 3837   4.529   6.165   4.235  0.2146 -0.2147 -0.2384
  770MOL0     C 3838   4.686   6.185   4.202 -0.2716  0.0252 -0.0911
  770MOL0     O 3839   4.750   6.238   4.316 -0.1996  0.0913 -1.2021
  770MOL0     C 3840   4.879   6.204   4.339 -0.0931 -1.7692  0.0659
  770MOL0     C 3841   4.924   6.220   4.462 -0.0472 -0.5249 -0.1937
  770MOL0     C 3842   5.047   6.183   4.501  1.2743 -0.0807  0.0045
  770MOL0     C 3843   5.080   6.212   4.651 -0.2317  0.2219 -0.3588
  770MOL0     C 3844   5.133   6.121   4.406 -0.1663 -0.1528 -0.1730
  770MOL0     C 3845   5.258   6.064   4.438  0.0192  0.4778  0.2997
  770MOL0     O 3846   5.361   6.086   4.340 -0.6258  1.7707 -0.1843
  770MOL0     C 3847   5.495   6.030   4.360  0.2058  0.1761  1.3510
  770MOL0     C 3848   5.602   6.098   4.292  1.0611 -0.3776 -0.3969
  770MOL0     C 3849   5.730   6.081   4.323 -1.4887  0.5312  1.0484
  770MOL0     C 3850   5.768   5.992   4.420 -0.0624  0.0863 -0.5108
  770MOL0     O 3851   5.908   5.968   4.443 -0.5252  0.0317 -0.5172
  770MOL0     C 3852   5.953   5.936   4.567  1.3670 -0.1419  0.0891
  770MOL0     C 3853   6.075   5.844   4.566  0.2629 -0.5499 -0.2636
  770MOL0     C 3854   6.037   5.699   4.519  0.2719 -0.7584 -0.2813
  770MOL0     C 3855   6.145   5.596   4.497 -0.0823 -0.3935  0.0430
  770MOL0     C 3856   6.231   5.565   4.619 -0.5932 -0.3977 -1.2143
  770MOL0     C 3857   6.332   5.452   4.578  0.3984  0.1589  0.2074
  770MOL0     C 3858   6.388   5.377   4.705  0.6029  0.4932 -0.5753
  770MOL0     C 3859   6.463   5.475   4.802  0.2378 -0.3060 -0.5019
  770MOL0    Cl 3860   6.558   5.400   4.934  0.0301  0.1952  0.1830
  770MOL0     C 3861   5.667   5.915   4.481  0.4899 -0.0048  0.2200
  770MOL0     C 3862   5.534   5.936   4.452 -0.0956 -0.7304 -0.1562
  770MOL0     O 3863   5.256   5.976   4.522 -0.1818  0.4072 -0.0802
  770MOL0     C 3864   5.093   6.117   4.274 -0.5763 -0.2406 -0.9619
  770MOL0     C 3865   4.966   6.157   4.238 -0.1107 -1.1335  0.1920
  770MOL0     N 3866   4.575   6.118   3.857  0.2222  0.0912  0.0933
  770MOL0     N 3867   4.570   5.990   3.831  0.2409  0.3937  0.5825
  770MOL0     C 3868   4.060   5.194   3.240  0.5552  0.1194 -0.3276
  770MOL0     C 3869   4.119   5.065   3.245 -0.0041 -0.4032 -0.3414
  770MOL0     C 3870   4.301   4.692   3.396  0.5694 -0.7077 -0.5956
  770MOL0     C 3871   4.432   4.633   3.420  0.7481  0.1363  1.1378
  770MOL0     C 3872   4.450   4.503   3.475  0.4839  0.1636  0.5985
  770MOL0     C 3873   4.337   4.419   3.499 -0.1566 -0.4411  0.0747
  770MOL0     O 3874   4.341   4.296   3.550  0.1169  0.1759 -0.3103
  770MOL0     C 3875   4.447   4.243   3.636  0.8913  0.8369 -0.1966
  770MOL0     C 3876   4.417   4.275   3.783  0.6928  0.9527 -0.5789
  770MOL0     C 3877   4.305   4.189   3.841  0.3593 -0.0215  0.0095
  770MOL0     C 3878   4.336   4.061   3.921 -0.7224  0.0571 -0.0431
  770MOL0     C 3879   4.205   3.991   3.933 -0.7802 -0.2593  0.0311
  770MOL0     C 3880   4.100   3.940   3.914  0.1295 -0.4504  0.4142
  770MOL0     C 3881   4.218   4.469   3.456  0.9693 -0.0726  0.0210
  770MOL0     C 3882   4.199   4.600   3.415 -0.0897  1.1096 -1.1286
  770MOL0     H 3883   4.017   4.978   3.558 -3.0951 -0.8927 -0.1286
  770MOL0     H 3884   3.911   5.198   3.547 -3.3055 -2.2891  0.3340
  770MOL0     H 3885   3.959   5.425   3.168 -1.3486 -0.2052  0.5022
  770MOL0     H 3886   3.886   5.549   3.272  1.0405  2.1797 -2.0582
  770MOL0     H 3887   4.171   5.465   3.321  2.4265  1.4355  1.0993
  770MOL0     H 3888   4.114   5.602   3.208 -0.8808 -1.6113 -1.1307
  770MOL0     H 3889   4.012   5.716   3.378 -0.8904 -1.6455 -2.7404
  770MOL0     H 3890   4.034   5.592   3.500 -3.0621  0.7167 -2.1642
  770MOL0     H 3891   4.276   5.610   3.456 -1.5663 -0.5017 -0.5523
  770MOL0     H 3892   4.251   5.758   3.374 -0.4459 -1.8146 -1.5495
  770MOL0     H 3893   4.302   5.827   3.574 -0.8458 -0.2074  0.0893
  770MOL0     H 3894   4.124   5.847   3.570  0.6754  1.5531  0.7952
  770MOL0     H 3895   4.091   5.683   3.747  1.1411 -1.4415  1.6635
  770MOL0     H 3896   4.253   5.618   3.724 -0.5616 -0.2123 -0.8308
  770MOL0     H 3897   4.216   5.900   3.823 -0.0288  0.1676 -3.0970
  770MOL0     H 3898   4.198   5.737   3.916 -4.4501 -0.5192 -1.3590
  770MOL0     H 3899   4.458   5.756   3.786 -1.4451  1.6699 -1.3118
  770MOL0     H 3900   4.432   5.744   3.950  1.6690 -1.5865 -1.7514
  770MOL0     H 3901   4.287   6.040   4.008 -0.8415  1.8150 -0.7168
  770MOL0     H 3902   4.521   6.331   4.020 -0.3178 -0.0546  3.4812
  770MOL0     H 3903   4.343   6.325   3.982  1.3769  1.8059  0.1050
  770MOL0     H 3904   4.322   6.199   4.192  0.8571 -2.3806  1.5276
  770MOL0     H 3905   4.418   6.350   4.200 -0.5272  0.8582 -2.1593
  770MOL0     H 3906   4.508   6.058   4.227  0.5668 -0.3493  0.5617
  770MOL0     H 3907   4.527   6.191   4.342  4.3316  0.5342 -0.1804
  770MOL0     H 3908   4.693   6.259   4.121  0.9915 -1.3755 -1.3397
  770MOL0     H 3909   4.735   6.093   4.170  3.0156  0.6515  2.6144
  770MOL0     H 3910   4.855   6.262   4.534  2.7902  2.0633  1.2836
  770MOL0     H 3911   5.170   6.157   4.682  0.3602  1.4011  0.0807
  770MOL0     H 3912   5.106   6.317   4.668  4.0573 -0.8565  1.0554
  770MOL0     H 3913   4.990   6.188   4.709 -5.0752  2.6559 -5.8486
  770MOL0     H 3914   5.582   6.169   4.212  4.0328  0.1759 -0.7497
  770MOL0     H 3915   5.805   6.118   4.254  0.9842 -1.0482  2.7082
  770MOL0     H 3916   5.991   6.029   4.609  2.0515 -0.3775  0.0033
  770MOL0     H 3917   5.878   5.907   4.641  1.8581  4.6785  2.8924
  770MOL0     H 3918   6.160   5.884   4.510 -1.2524  2.6031 -0.5229
  770MOL0     H 3919   6.115   5.841   4.668 -0.0371  0.4361 -0.1106
  770MOL0     H 3920   5.987   5.712   4.422  0.5869 -0.2725 -0.3831
  770MOL0     H 3921   5.958   5.664   4.586 -1.7565 -0.4745 -2.3746
  770MOL0     H 3922   6.101   5.507   4.451  0.0727  0.9302 -2.8902
  770MOL0     H 3923   6.206   5.641   4.418  0.6361 -2.2901 -0.5434
  770MOL0     H 3924   6.165   5.536   4.702  0.7225 -1.6652 -0.5540
  770MOL0     H 3925   6.282   5.659   4.641 -1.4027 -0.1453 -0.3414
  770MOL0     H 3926   6.280   5.375   4.519  2.8859 -1.9154  0.5669
  770MOL0     H 3927   6.417   5.495   4.524 -0.7948 -0.9513 -2.8143
  770MOL0     H 3928   6.462   5.307   4.665 -2.0754 -0.5596 -4.1728
  770MOL0     H 3929   6.303   5.327   4.752  0.2935  0.4061 -1.2215
  770MOL0     H 3930   6.380   5.528   4.850  0.7960 -0.3840  0.5819
  770MOL0     H 3931   6.531   5.544   4.751  0.1461  0.7305  0.7412
  770MOL0     H 3932   5.695   5.834   4.548 -1.9584 -2.0866 -1.1028
  770MOL0     H 3933   5.470   5.864   4.502  2.0177 -2.4012  0.2932
  770MOL0     H 3934   5.153   6.082   4.189  2.8334  5.1779 -1.3038
  770MOL0     H 3935   4.922   6.168   4.139 -1.1933  2.3058  0.9098
  770MOL0     H 3936   4.067   5.243   3.143 -0.4057 -1.0485 -1.0082
  770MOL0     H 3937   4.176   5.014   3.168 -3.3044  0.1687 -3.3773
  770MOL0     H 3938   4.513   4.703   3.399 -0.7722  1.3857 -0.8784
  770MOL0     H 3939   4.551   4.462   3.476  0.5238 -0.1137 -3.1480
  770MOL0     H 3940   4.457   4.134   3.629 -1.6456  0.5801 -0.5940
  770MOL0     H 3941   4.543   4.286   3.607 -0.0880  2.1622 -1.6296
  770MOL0     H 3942   4.397   4.382   3.796  1.5151  1.1777 -1.1176
  770MOL0     H 3943   4.505   4.270   3.848 -1.3081  3.1443  2.5961
  770MOL0     H 3944   4.230   4.157   3.768  2.7508 -0.7294 -2.2858
  770MOL0     H 3945   4.237   4.236   3.913  0.1614 -1.5119  0.8480
  770MOL0     H 3946   4.384   4.095   4.013  1.8091  3.1984 -2.3354
  770MOL0     H 3947   4.408   3.994   3.874 -0.9685  0.7934 -1.5208
  770MOL0     H 3948   4.003   3.910   3.881  0.4450  1.5672 -2.8470
  770MOL0     H 3949   4.139   4.394   3.457 -0.9154  1.7893 -0.9149
  770MOL0     H 3950   4.095   4.624   3.395 -1.3921 -3.0741 -0.3333
  771MOL0     O 3951   8.715   9.399   5.673 -0.2274 -0.0844  0.7496
  771MOL0     C 3952   8.656   9.387   5.777  0.0767  0.3864 -0.6287
  771MOL0     O 3953   8.719   9.396   5.904 -0.6860  1.3090  2.1016
  771MOL0     C 3954   8.851   9.437   5.916  0.2488 -0.4165  0.4568
  771MOL0     C 3955   8.949   9.411   5.825 -0.3476  0.5645 -0.6413
  771MOL0     C 3956   9.085   9.444   5.838  0.1851 -0.0291  0.9413
  771MOL0     C 3957   9.118   9.520   5.948 -0.1061  0.5764 -0.3190
  771MOL0     O 3958   9.252   9.540   5.972  0.1678  0.4048  1.0956
  771MOL0     C 3959   9.306   9.476   6.093 -0.1854  0.3612 -0.3223
  771MOL0     C 3960   9.316   9.326   6.102  0.5980 -0.2221 -0.8620
  771MOL0     C 3961   9.412   9.279   6.213 -0.5452  0.4834 -0.1824
  771MOL0     C 3962   9.330   9.184   6.306  0.0964  0.2114 -0.4058
  771MOL0     C 3963   9.422   9.128   6.418  0.2960 -0.8617  0.9442
  771MOL0     C 3964   9.355   9.015   6.508  0.2068 -0.2237  0.5631
  771MOL0     C 3965   9.451   8.934   6.595 -0.1525 -0.2081 -0.2832
  771MOL0     C 3966   9.394   8.821   6.675  0.6537  0.0556  0.3369
  771MOL0     N 3967   9.272   8.860   6.746 -0.7101 -0.1351 -0.2208
  771MOL0     C 3968   9.147   8.843   6.695  0.5034  0.1789  0.0887
  771MOL0     C 3969   9.067   8.922   6.770  0.2771  0.4036 -0.3695
  771MOL0     C 3970   8.923   8.933   6.752 -0.0758  0.0933  0.4035
  771MOL0     C 3971   8.888   9.080   6.715  0.4315 -0.6118  0.1595
  771MOL0     C 3972   8.738   9.113   6.710 -0.7157 -0.3715 -0.7434
  771MOL0     C 3973   8.713   9.232   6.606 -0.9059  0.3993  0.7224
  771MOL0     O 3974   8.583   9.295   6.622  0.2249 -0.2512  0.2558
  771MOL0     C 3975   8.552   9.350   6.745 -0.3129  0.3426  0.8735
  771MOL0     C 3976   8.422   9.382   6.771 -0.1558  0.2403 -0.6901
  771MOL0     C 3977   8.380   9.451   6.883  0.4707 -0.7322 -0.4482
  771MOL0     C 3978   8.231   9.501   6.892 -0.3694  0.0805 -0.2333
  771MOL0     C 3979   8.478   9.495   6.977  0.0355 -0.9513 -0.9841
  771MOL0     C 3980   8.444   9.576   7.094  0.1948 -0.9998 -0.1585
  771MOL0     O 3981   8.316   9.611   7.126 -0.2987  0.4675  0.2135
  771MOL0     C 3982   8.260   9.583   7.245  0.2729 -0.2219 -0.4297
  771MOL0     C 3983   8.284   9.465   7.311 -1.4722 -0.0747  0.2501
  771MOL0     C 3984   8.235   9.434   7.438 -0.0986  0.0116  0.0957
  771MOL0     C 3985   8.167   9.544   7.501  0.6992 -0.2483  0.8113
  771MOL0     O 3986   8.113   9.530   7.628 -1.5022  0.1807  0.1849
  771MOL0     C 3987   8.111   9.395   7.692  0.2509  0.7111 -0.5842
  771MOL0     C 3988   8.053   9.408   7.838  0.7940  0.2639 -0.6997
  771MOL0     C 3989   8.116   9.515   7.919  0.6815 -0.0640  0.0674
  771MOL0     C 3990   8.255   9.475   7.967  0.1048 -0.1653 -0.6478
  771MOL0     C 3991   8.324   9.595   8.047  0.0826  0.8963 -0.3811
  771MOL0     C 3992   8.450   9.548   8.108  0.2771  0.0587  0.4357
  771MOL0     C 3993   8.553   9.496   8.009  0.6461  0.2971  0.0488
  771MOL0     C 3994   8.668   9.433   8.084  0.5135  0.4431  0.1326
  771MOL0    Cl 3995   8.768   9.369   7.964  0.4220  0.5096 -0.0209
  771MOL0     C 3996   8.141   9.663   7.440  0.8968 -0.7304 -0.3652
  771MOL0     C 3997   8.191   9.681   7.308 -0.2349 -0.0173 -0.0390
  771MOL0     O 3998   8.536   9.589   7.172 -0.0158 -1.0344  0.0227
  771MOL0     C 3999   8.616   9.462   6.953  1.1224 -0.9139  0.1511
  771MOL0     C 4000   8.647   9.394   6.842 -0.3624 -0.2007  0.2030
  771MOL0     N 4001   9.142   8.976   6.870 -0.7003  0.0851 -0.2541
  771MOL0     N 4002   9.266   8.942   6.856  0.5284 -1.0627  0.7456
  771MOL0     C 4003   9.021   9.562   6.042  0.5525 -0.1218 -1.2118
  771MOL0     C 4004   8.889   9.519   6.026  0.1344 -0.3822  0.0915
  771MOL0     C 4005   8.506   9.402   5.780  0.4128 -0.8134 -0.3569
  771MOL0     C 4006   8.429   9.373   5.672 -0.7535  0.5860 -0.6919
  771MOL0     C 4007   8.294   9.382   5.678 -0.0298  1.0906  0.8305
  771MOL0     C 4008   8.229   9.384   5.801 -0.0499  0.0897  0.3969
  771MOL0     O 4009   8.089   9.390   5.809 -0.5706 -0.2110  0.1123
  771MOL0     C 4010   8.002   9.331   5.713  0.4764  0.1648 -0.0678
  771MOL0     C 4011   7.861   9.326   5.767 -0.0565  0.7394  0.8293
  771MOL0     C 4012   7.799   9.463   5.785  0.5995  0.3510 -0.7401
  771MOL0     C 4013   7.649   9.468   5.742 -0.6893 -0.1170 -0.6399
  771MOL0     C 4014   7.573   9.582   5.779 -0.6889 -0.3592  0.2003
  771MOL0     C 4015   7.517   9.693   5.803  0.0119  0.3907  0.3987
  771MOL0     C 4016   8.309   9.422   5.913 -0.6161 -0.5842  0.1705
  771MOL0     C 4017   8.447   9.428   5.904  0.8330  0.2204 -0.0793
  771MOL0     H 4018   8.932   9.373   5.724  1.8115  0.6663 -1.1031
  771MOL0     H 4019   9.163   9.408   5.772  0.0789 -0.8907  1.2673
  771MOL0     H 4020   9.407   9.518   6.100  0.5229 -1.5730  2.4202
  771MOL0     H 4021   9.241   9.514   6.174 -3.2033 -0.5044 -2.1574
  771MOL0     H 4022   9.219   9.281   6.125  2.0841 -2.2418  2.0263
  771MOL0     H 4023   9.358   9.299   6.004  0.1149  1.0391 -1.4316
  771MOL0     H 4024   9.501   9.231   6.171 -0.9441 -0.7158  0.2954
  771MOL0     H 4025   9.436   9.370   6.267 -0.7406 -0.3574  1.3659
  771MOL0     H 4026   9.248   9.247   6.343  2.5216  1.9482  2.4056
  771MOL0     H 4027   9.280   9.102   6.254  1.0585 -0.8211  0.2764
  771MOL0     H 4028   9.507   9.075   6.373 -0.8232 -1.6179 -0.3405
  771MOL0     H 4029   9.457   9.219   6.468  0.5871  2.6650 -4.7344
  771MOL0     H 4030   9.274   9.065   6.563  1.0897 -1.4050  3.0685
  771MOL0     H 4031   9.301   8.953   6.436 -1.9494  2.4950 -0.3601
  771MOL0     H 4032   9.541   8.903   6.541  0.6074  1.2561  0.0851
  771MOL0     H 4033   9.481   9.010   6.668  2.3167 -1.2111 -0.1500
  771MOL0     H 4034   9.462   8.786   6.753  0.6544  0.3637  0.4783
  771MOL0     H 4035   9.381   8.732   6.613  1.5083 -1.1407  1.8159
  771MOL0     H 4036   9.111   8.767   6.627 -2.7935 -0.3525  2.2281
  771MOL0     H 4037   8.884   8.878   6.666 -3.7088  0.4856  1.6389
  771MOL0     H 4038   8.877   8.892   6.842 -0.3059  0.0471  0.2672
  771MOL0     H 4039   8.923   9.097   6.612 -2.6353 -1.4205 -1.1424
  771MOL0     H 4040   8.939   9.147   6.784 -1.7352  2.8800 -1.3225
  771MOL0     H 4041   8.705   9.141   6.810 -0.2403 -1.1713 -0.3540
  771MOL0     H 4042   8.676   9.038   6.661 -1.7507 -0.6738  0.9425
  771MOL0     H 4043   8.715   9.189   6.506 -0.5674  0.1331  0.8447
  771MOL0     H 4044   8.804   9.293   6.614  0.1236 -1.0386  0.2559
  771MOL0     H 4045   8.342   9.342   6.709 -0.2476  0.9026 -1.0111
  771MOL0     H 4046   8.192   9.455   6.983 -0.8553  0.5830 -0.1856
  771MOL0     H 4047   8.219   9.610   6.897  2.6219  0.4686  0.7294
  771MOL0     H 4048   8.177   9.448   6.813 -1.8758  1.6325 -0.2956
  771MOL0     H 4049   8.337   9.388   7.256  0.1429 -0.1221  1.7850
  771MOL0     H 4050   8.259   9.341   7.489 -0.4799  1.7883  3.8760
  771MOL0     H 4051   8.034   9.337   7.640  0.8584 -1.0173  0.3533
  771MOL0     H 4052   8.201   9.334   7.703 -0.5612  0.0017  4.1761
  771MOL0     H 4053   7.946   9.434   7.840  0.9257  0.8038  0.4956
  771MOL0     H 4054   8.058   9.315   7.895 -0.9654  1.1217  1.0102
  771MOL0     H 4055   8.057   9.539   8.008  0.0411  1.5075 -0.7566
  771MOL0     H 4056   8.125   9.608   7.862  0.6861  1.3231  2.2123
  771MOL0     H 4057   8.250   9.387   8.032  1.3110  0.0357 -0.2588
  771MOL0     H 4058   8.317   9.441   7.883  0.5586 -4.9365  1.2966
  771MOL0     H 4059   8.256   9.619   8.129 -2.1700  0.1166 -1.9143
  771MOL0     H 4060   8.332   9.682   7.981 -1.3052  0.1424 -1.6023
  771MOL0     H 4061   8.486   9.628   8.173  1.9507  0.4027 -0.8244
  771MOL0     H 4062   8.431   9.456   8.164  3.1573 -0.2840  1.0328
  771MOL0     H 4063   8.580   9.578   7.941  1.8487  0.2821  0.4863
  771MOL0     H 4064   8.523   9.421   7.936  1.4967 -1.1735  1.1686
  771MOL0     H 4065   8.642   9.343   8.140  1.6240 -1.7571 -2.6459
  771MOL0     H 4066   8.712   9.511   8.146  3.2513 -0.8866  0.0155
  771MOL0     H 4067   8.089   9.747   7.485  1.5996 -0.6457  0.3171
  771MOL0     H 4068   8.160   9.770   7.255 -0.8411 -1.7421 -2.7563
  771MOL0     H 4069   8.694   9.501   7.018  0.3644  4.0969 -1.5253
  771MOL0     H 4070   8.746   9.359   6.814  0.2365 -0.0398  1.9769
  771MOL0     H 4071   9.037   9.598   6.144 -0.8499  0.4891 -1.1803
  771MOL0     H 4072   8.822   9.527   6.112  0.1345  1.5034 -0.0442
  771MOL0     H 4073   8.469   9.344   5.575 -3.3384 -0.9965 -1.3672
  771MOL0     H 4074   8.237   9.362   5.588 -1.9053 -0.2512  2.2327
  771MOL0     H 4075   8.006   9.399   5.627 -2.2576  0.0675 -0.3634
  771MOL0     H 4076   8.039   9.233   5.680  1.6412  0.5762 -0.0135
  771MOL0     H 4077   7.852   9.268   5.859 -3.6823  1.2307  0.9453
  771MOL0     H 4078   7.808   9.266   5.692 -0.3291  2.6004 -0.5319
  771MOL0     H 4079   7.835   9.537   5.713 -0.1836  0.8441 -0.6362
  771MOL0     H 4080   7.838   9.510   5.876 -0.6220 -0.1075  0.0481
  771MOL0     H 4081   7.601   9.375   5.776 -1.0516  1.1310  2.6743
  771MOL0     H 4082   7.668   9.464   5.635  3.5223  0.0360 -0.0604
  771MOL0     H 4083   7.470   9.779   5.847  2.8896  1.3479  1.8441
  771MOL0     H 4084   8.264   9.438   6.010 -0.8879  0.7216 -0.1467
  771MOL0     H 4085   8.509   9.437   5.993  0.6904 -0.2786  0.0691
  772MOL0     O 4086   2.796  11.099   7.841  0.3522 -0.1733  0.6433
  772MOL0     C 4087   2.861  11.036   7.930  0.3438 -0.8935  1.5499
  772MOL0     O 4088   2.988  10.992   7.927  0.1934 -0.0264  0.9128
  772MOL0     C 4089   3.029  10.977   7.804 -1.0359  0.0454 -0.5833
  772MOL0     C 4090   2.964  10.881   7.725 -0.9495 -0.8521  0.5820
  772MOL0     C 4091   3.004  10.844   7.597  0.1525  0.8535  0.6450
  772MOL0     C 4092   3.119  10.905   7.540 -0.2565 -0.4288 -1.2854
  772MOL0     O 4093   3.182  10.882   7.424 -0.7817  0.3636  0.4565
  772MOL0     C 4094   3.189  10.744   7.390  0.8199  0.0912  0.4943
  772MOL0     C 4095   3.307  10.722   7.294  0.4639  0.7793  0.3381
  772MOL0     C 4096   3.312  10.809   7.167 -0.3963  0.2591 -0.2030
  772MOL0     C 4097   3.187  10.787   7.086  0.3502 -1.2571 -0.3426
  772MOL0     C 4098   3.215  10.843   6.945 -0.0024 -0.3540 -0.3254
  772MOL0     C 4099   3.150  10.753   6.841 -0.3543 -0.6788  0.1293
  772MOL0     C 4100   3.122  10.820   6.710 -0.5125 -0.9456  0.8596
  772MOL0     C 4101   3.249  10.845   6.624  0.2817 -0.1654 -0.6977
  772MOL0     N 4102   3.268  10.741   6.522 -0.6322 -0.0072  0.1496
  772MOL0     C 4103   3.202  10.735   6.405 -0.1633  0.4600  0.0682
  772MOL0     C 4104   3.234  10.612   6.354  0.6930 -0.4138  0.3894
  772MOL0     C 4105   3.184  10.546   6.233 -0.2214  0.7302  0.5720
  772MOL0     C 4106   3.218  10.619   6.100 -0.0892  0.2411 -0.8865
  772MOL0     C 4107   3.130  10.571   5.988 -0.0021  0.8999 -0.0748
  772MOL0     C 4108   3.075  10.689   5.897  0.3158  0.3364 -0.0464
  772MOL0     O 4109   3.060  10.664   5.753  0.6265 -0.6496 -0.1414
  772MOL0     C 4110   2.995  10.761   5.679  0.5907 -0.0960 -0.9685
  772MOL0     C 4111   2.981  10.897   5.705  0.0967  0.7606  0.4581
  772MOL0     C 4112   2.917  10.990   5.621  0.3388  0.6477 -1.0467
  772MOL0     C 4113   2.898  11.132   5.671 -0.1983  0.1971 -0.1166
  772MOL0     C 4114   2.860  10.949   5.495 -0.0496 -0.6799  0.1677
  772MOL0     C 4115   2.795  11.021   5.392 -0.5792  0.6190 -0.7690
  772MOL0     O 4116   2.738  10.959   5.287  0.1971 -0.7457 -0.7512
  772MOL0     C 4117   2.705  11.030   5.175 -0.1103 -0.2799  0.1891
  772MOL0     C 4118   2.574  11.012   5.129  0.1742 -0.1233 -0.3916
  772MOL0     C 4119   2.525  11.087   5.018 -0.1517 -0.2102  1.3707
  772MOL0     C 4120   2.610  11.162   4.942 -1.3458 -0.2969 -1.1012
  772MOL0     O 4121   2.572  11.222   4.830 -0.0517  0.0120 -0.2218
  772MOL0     C 4122   2.548  11.144   4.717 -0.2727  0.1986  0.6116
  772MOL0     C 4123   2.470  11.239   4.632  1.0030 -0.0743  1.1778
  772MOL0     C 4124   2.427  11.162   4.514  0.3973 -0.0245  0.3925
  772MOL0     C 4125   2.335  11.250   4.430 -0.0185  0.4337 -0.0951
  772MOL0     C 4126   2.309  11.206   4.286  0.5740  0.3564 -0.2057
  772MOL0     C 4127   2.216  11.079   4.288  0.1812  0.5876  0.1572
  772MOL0     C 4128   2.180  11.043   4.144 -0.3298 -0.3311  0.4379
  772MOL0     C 4129   2.074  10.936   4.116  0.7537 -0.6185  0.4436
  772MOL0    Cl 4130   2.110  10.779   4.199 -0.0583 -0.1634  0.0245
  772MOL0     C 4131   2.740  11.184   4.991  0.5627  0.5694  0.9375
  772MOL0     C 4132   2.787  11.117   5.110  0.2636 -0.3083 -0.0871
  772MOL0     O 4133   2.789  11.138   5.405 -0.3460 -0.2422 -0.5392
  772MOL0     C 4134   2.877  10.814   5.470  0.0230  0.6878 -0.3497
  772MOL0     C 4135   2.943  10.722   5.557  1.5217  0.0121  0.9666
  772MOL0     N 4136   3.332  10.562   6.442  0.1764  0.2760  0.3161
  772MOL0     N 4137   3.358  10.641   6.536  0.3257 -0.3117 -0.4523
  772MOL0     C 4138   3.182  11.003   7.621  0.1374 -0.0617  0.3988
  772MOL0     C 4139   3.147  11.043   7.747  0.1294 -0.0278 -0.8182
  772MOL0     C 4140   2.793  11.005   8.050  0.8550  0.1824 -1.1206
  772MOL0     C 4141   2.842  10.934   8.156 -0.0546 -0.8971 -0.1241
  772MOL0     C 4142   2.775  10.931   8.277  0.4196 -1.5916  0.3248
  772MOL0     C 4143   2.647  10.984   8.305 -0.0712 -0.3317 -0.3018
  772MOL0     O 4144   2.574  10.976   8.423  0.3226  0.1815 -0.4781
  772MOL0     C 4145   2.463  11.070   8.444 -0.1400 -0.3654 -0.4621
  772MOL0     C 4146   2.399  11.050   8.584  0.5576  0.3080  0.5828
  772MOL0     C 4147   2.489  11.036   8.712 -0.1335 -0.1571  0.2646
  772MOL0     C 4148   2.582  10.910   8.714  1.3127 -0.4313 -0.7783
  772MOL0     C 4149   2.648  10.877   8.845  0.6280  0.3256 -0.5076
  772MOL0     C 4150   2.712  10.854   8.954  0.0732  0.0015 -0.2428
  772MOL0     C 4151   2.594  11.053   8.190 -0.0067 -0.0773  0.0451
  772MOL0     C 4152   2.668  11.064   8.073  0.2872  0.2652 -0.1300
  772MOL0     H 4153   2.883  10.825   7.769 -0.7290 -2.4283 -0.9009
  772MOL0     H 4154   2.949  10.758   7.558  0.4882  0.7672  0.3578
  772MOL0     H 4155   3.186  10.680   7.479  2.0216  0.4586  0.8055
  772MOL0     H 4156   3.093  10.731   7.339 -0.4856  1.1261  2.5443
  772MOL0     H 4157   3.412  10.729   7.324  0.7450  0.4923 -0.5168
  772MOL0     H 4158   3.292  10.618   7.262  1.1039  0.7007  0.2812
  772MOL0     H 4159   3.330  10.916   7.185  1.2270  0.1830 -1.1852
  772MOL0     H 4160   3.398  10.769   7.111  1.2837  1.4220  1.4244
  772MOL0     H 4161   3.155  10.682   7.088  2.1283 -1.8259  0.9087
  772MOL0     H 4162   3.109  10.850   7.131  2.2382 -0.2684  1.7291
  772MOL0     H 4163   3.176  10.945   6.941  1.8587  0.4820  1.1773
  772MOL0     H 4164   3.324  10.843   6.935  0.4121 -0.0551  3.0592
  772MOL0     H 4165   3.209  10.664   6.818 -1.9071 -1.3457 -1.4566
  772MOL0     H 4166   3.062  10.716   6.895  0.8312 -4.6136 -0.3927
  772MOL0     H 4167   3.049  10.761   6.653  0.0412 -1.2967  0.5116
  772MOL0     H 4168   3.080  10.920   6.725  0.7169 -0.0663 -1.1347
  772MOL0     H 4169   3.337  10.842   6.688 -0.8887 -0.4832  0.9597
  772MOL0     H 4170   3.247  10.946   6.581  2.0684 -0.1884 -0.8914
  772MOL0     H 4171   3.132  10.805   6.360  0.8019 -0.0286 -2.3358
  772MOL0     H 4172   3.203  10.439   6.221  1.6470  1.1901 -1.1643
  772MOL0     H 4173   3.075  10.542   6.242 -0.2997 -1.4918 -0.5525
  772MOL0     H 4174   3.312  10.570   6.077  1.3417  2.6957 -0.5940
  772MOL0     H 4175   3.237  10.726   6.115 -1.3076  0.4155 -0.3813
  772MOL0     H 4176   3.047  10.514   6.031  1.0244 -1.5002 -1.0988
  772MOL0     H 4177   3.182  10.501   5.922  2.0443  0.6665  1.6589
  772MOL0     H 4178   3.146  10.770   5.915  0.7828  0.3337 -1.7019
  772MOL0     H 4179   2.970  10.714   5.918 -0.8238 -1.1356 -3.2418
  772MOL0     H 4180   2.988  10.939   5.804 -0.8473  0.4867  0.6510
  772MOL0     H 4181   2.792  11.155   5.679 -0.2915  0.3556 -1.6001
  772MOL0     H 4182   2.938  11.145   5.772  0.2948  1.6291 -0.4755
  772MOL0     H 4183   2.949  11.202   5.604  1.0274  0.5167  1.0972
  772MOL0     H 4184   2.497  10.953   5.177  0.2004 -0.0616 -0.2743
  772MOL0     H 4185   2.423  11.065   4.989  0.4657 -3.8380  1.4409
  772MOL0     H 4186   2.646  11.119   4.675  1.2190  3.2145  2.0139
  772MOL0     H 4187   2.502  11.051   4.752  2.0279  0.0134  3.4628
  772MOL0     H 4188   2.389  11.288   4.688 -0.3101  2.0007 -2.2445
  772MOL0     H 4189   2.529  11.326   4.602 -2.4213  1.3674 -2.1339
  772MOL0     H 4190   2.379  11.067   4.537  0.9474 -0.0049  1.6824
  772MOL0     H 4191   2.512  11.147   4.447 -1.3566 -1.4816 -1.6595
  772MOL0     H 4192   2.241  11.262   4.485 -0.6921  0.8022 -1.2676
  772MOL0     H 4193   2.365  11.354   4.416 -0.2184  0.4493 -0.4347
  772MOL0     H 4194   2.403  11.191   4.232  0.3693 -0.5333 -0.3262
  772MOL0     H 4195   2.257  11.285   4.230 -2.4452 -1.0377  0.3919
  772MOL0     H 4196   2.265  10.988   4.322  1.9353  1.6834  0.6981
  772MOL0     H 4197   2.130  11.100   4.353  1.2584  1.6497  1.3030
  772MOL0     H 4198   2.265  11.012   4.082 -0.0970 -0.4300  0.8096
  772MOL0     H 4199   2.145  11.130   4.088  0.8754  0.2270  0.5214
  772MOL0     H 4200   2.064  10.927   4.008 -0.8892  0.8112  0.4267
  772MOL0     H 4201   1.978  10.973   4.153  1.8565  2.6601  0.3265
  772MOL0     H 4202   2.814  11.244   4.939 -0.0678  1.6905  1.2974
  772MOL0     H 4203   2.885  11.140   5.151 -1.9891  3.8636  3.8848
  772MOL0     H 4204   2.851  10.788   5.367 -2.7871  1.3277  0.1433
  772MOL0     H 4205   2.954  10.621   5.519 -2.1500  0.4274 -1.6624
  772MOL0     H 4206   3.248  11.060   7.556 -1.2350  1.4404  0.2836
  772MOL0     H 4207   3.197  11.116   7.810  1.2290 -0.4286 -1.1988
  772MOL0     H 4208   2.939  10.888   8.144 -0.3978 -1.3074 -1.5072
  772MOL0     H 4209   2.827  10.879   8.356 -0.3986  0.7472  2.5286
  772MOL0     H 4210   2.499  11.173   8.443 -2.1160  0.5858  3.8048
  772MOL0     H 4211   2.380  11.048   8.375 -0.8085 -3.8157  1.2290
  772MOL0     H 4212   2.350  10.953   8.578  0.4166  0.3040  1.6290
  772MOL0     H 4213   2.328  11.129   8.611  2.2640  1.1133  3.0663
  772MOL0     H 4214   2.426  11.036   8.801  0.9278 -1.7461  1.0475
  772MOL0     H 4215   2.559  11.120   8.717 -1.3446  0.9504 -0.3862
  772MOL0     H 4216   2.664  10.937   8.646  3.3731 -0.6003  1.5127
  772MOL0     H 4217   2.530  10.816   8.694  3.2372 -1.8195  0.3694
  772MOL0     H 4218   2.767  10.827   9.042 -3.0037  1.3354  2.3117
  772MOL0     H 4219   2.499  11.102   8.208  0.0062 -1.3592  4.6030
  772MOL0     H 4220   2.621  11.127   7.999  0.9079  0.6707 -0.1875
  773MOL0     O 4221   5.246   3.613   8.168  0.4716  0.2623  0.0558
  773MOL0     C 4222   5.222   3.736   8.153  0.1092  1.1391 -0.5358
  773MOL0     O 4223   5.311   3.824   8.140 -0.1886 -0.0117  0.2477
  773MOL0     C 4224   5.443   3.795   8.120  0.6146  1.3056 -0.1847
  773MOL0     C 4225   5.527   3.736   8.214  0.0994 -0.4345  1.2938
  773MOL0     C 4226   5.661   3.704   8.186 -1.1129 -0.9181  1.1460
  773MOL0     C 4227   5.715   3.734   8.059  0.2713 -0.5363 -0.4418
  773MOL0     O 4228   5.836   3.686   8.027 -1.2727  0.0902 -0.0473
  773MOL0     C 4229   5.940   3.729   8.109  0.1752 -0.3382 -0.3354
  773MOL0     C 4230   6.063   3.757   8.022 -0.7644 -0.3530  0.1341
  773MOL0     C 4231   6.135   3.887   8.071  0.4785 -0.6099 -0.5036
  773MOL0     C 4232   6.271   3.878   8.024 -0.0272 -0.3221  0.1525
  773MOL0     C 4233   6.356   4.002   8.067 -0.1744  0.6471  0.3044
  773MOL0     C 4234   6.308   4.129   7.996  0.5618  0.3797  0.0057
  773MOL0     C 4235   6.383   4.257   8.034  0.2349 -0.3531  0.5707
  773MOL0     C 4236   6.420   4.288   8.182 -0.4885  0.8917  0.5592
  773MOL0     N 4237   6.454   4.426   8.200 -0.5195 -0.0172 -0.3842
  773MOL0     C 4238   6.561   4.493   8.151 -0.0667  0.2631  0.3791
  773MOL0     C 4239   6.571   4.614   8.212 -0.2814  1.1871  0.1801
  773MOL0     C 4240   6.683   4.721   8.218 -0.8306 -0.2552 -0.3155
  773MOL0     C 4241   6.823   4.669   8.224 -0.3050  0.0217  0.8146
  773MOL0     C 4242   6.848   4.556   8.320  0.5025  0.4143  0.3016
  773MOL0     C 4243   6.980   4.557   8.392 -0.8655  0.7256  1.2160
  773MOL0     O 4244   6.978   4.684   8.458 -0.1878  0.3855 -0.3240
  773MOL0     C 4245   7.073   4.706   8.549  0.2011  1.1129  0.8560
  773MOL0     C 4246   7.197   4.645   8.545 -0.1214 -0.3280 -0.3175
  773MOL0     C 4247   7.286   4.676   8.646  0.9203 -0.4127  0.1299
  773MOL0     C 4248   7.403   4.586   8.647  0.3425 -0.7768  0.3958
  773MOL0     C 4249   7.255   4.770   8.745 -0.0197  0.2447  0.6468
  773MOL0     C 4250   7.353   4.806   8.864 -0.3993 -0.5217  0.8818
  773MOL0     O 4251   7.487   4.772   8.849  0.5920  0.3606  0.0576
  773MOL0     C 4252   7.588   4.799   8.926 -0.2265  0.0759  0.0552
  773MOL0     C 4253   7.706   4.717   8.923  0.7273  0.6064  0.7952
  773MOL0     C 4254   7.823   4.745   9.000 -1.0938 -0.5770  0.3870
  773MOL0     C 4255   7.827   4.862   9.076 -0.7762  1.0832 -0.5682
  773MOL0     O 4256   7.935   4.904   9.158  0.1246 -0.1702 -0.0163
  773MOL0     C 4257   7.959   4.785   9.238 -0.8076  0.1971 -0.5071
  773MOL0     C 4258   7.998   4.825   9.383 -0.7186  0.5914 -0.3279
  773MOL0     C 4259   7.869   4.822   9.477 -0.5810 -0.0609  0.6017
  773MOL0     C 4260   7.888   4.736   9.588 -0.5650 -0.5247 -0.2472
  773MOL0     C 4261   7.781   4.761   9.694  0.7930  0.5466  0.7417
  773MOL0     C 4262   7.801   4.679   9.822 -0.4630 -0.5963 -0.0344
  773MOL0     C 4263   7.757   4.753   9.948  0.6244 -0.1361 -0.3823
  773MOL0     C 4264   7.877   4.830  10.008 -0.1521  0.2309  0.6981
  773MOL0    Cl 4265   7.828   4.833  10.185  0.1156 -0.3609  0.3865
  773MOL0     C 4266   7.711   4.935   9.083  0.5887 -0.1721 -0.2645
  773MOL0     C 4267   7.597   4.902   9.016  0.6115 -1.0023 -0.7249
  773MOL0     O 4268   7.298   4.863   8.958 -0.6211 -0.0521  0.0252
  773MOL0     C 4269   7.122   4.828   8.751 -0.2400  0.3084 -0.6429
  773MOL0     C 4270   7.035   4.787   8.653  0.4993 -0.4949 -1.5436
  773MOL0     N 4271   6.460   4.625   8.294  0.0319  0.1449  0.5859
  773MOL0     N 4272   6.405   4.507   8.303 -0.1058  0.3892  1.1110
  773MOL0     C 4273   5.638   3.803   7.979  1.1028 -0.0009  0.0386
  773MOL0     C 4274   5.500   3.827   7.994 -0.6531  0.3616 -0.3540
  773MOL0     C 4275   5.086   3.785   8.178 -0.3856 -0.4761  0.0921
  773MOL0     C 4276   5.070   3.930   8.170  0.6541  1.3819  0.5716
  773MOL0     C 4277   4.946   3.982   8.195  1.2149  0.6546 -0.1681
  773MOL0     C 4278   4.831   3.910   8.237  0.4413  0.2946  0.4829
  773MOL0     O 4279   4.712   3.988   8.256 -0.4379  0.1479 -0.1506
  773MOL0     C 4280   4.603   3.939   8.176  0.2412 -0.2496  1.1858
  773MOL0     C 4281   4.487   4.037   8.186  0.0154 -0.0562  1.4653
  773MOL0     C 4282   4.370   3.976   8.110  0.2458 -0.5170 -0.0645
  773MOL0     C 4283   4.248   4.068   8.107 -0.1628  0.0852  0.2668
  773MOL0     C 4284   4.130   3.989   8.052 -0.2432 -0.2423 -0.4263
  773MOL0     C 4285   4.041   3.921   8.005 -0.2918  0.5359 -0.0492
  773MOL0     C 4286   4.857   3.774   8.250  0.2804 -0.1436  0.0319
  773MOL0     C 4287   4.978   3.714   8.226 -0.5849 -0.8364 -0.3724
  773MOL0     H 4288   5.471   3.708   8.303 -3.4092 -2.7928 -1.4041
  773MOL0     H 4289   5.723   3.644   8.252  2.1646  1.5613  0.5773
  773MOL0     H 4290   5.910   3.820   8.162 -1.2385 -0.3200 -1.1082
  773MOL0     H 4291   5.974   3.663   8.189  1.1005  1.0187  0.4399
  773MOL0     H 4292   6.138   3.678   8.012  1.3711  1.2903  2.1039
  773MOL0     H 4293   6.043   3.772   7.915 -0.8105 -4.5171 -0.6417
  773MOL0     H 4294   6.078   3.971   8.031 -1.2103 -1.1086  0.6800
  773MOL0     H 4295   6.138   3.893   8.181  3.4460  0.0848 -0.5383
  773MOL0     H 4296   6.305   3.784   8.069 -5.7440 -3.0671 -0.3330
  773MOL0     H 4297   6.268   3.873   7.915 -0.0905 -1.9126  0.2095
  773MOL0     H 4298   6.352   4.018   8.176 -2.8622 -0.0811  0.3920
  773MOL0     H 4299   6.461   3.987   8.041 -0.6441 -2.5128 -0.1100
  773MOL0     H 4300   6.312   4.109   7.889  1.2291 -2.7788  0.5078
  773MOL0     H 4301   6.202   4.150   8.017 -0.1864 -0.6010 -2.4633
  773MOL0     H 4302   6.480   4.247   7.984 -0.8155  3.4903 -2.6629
  773MOL0     H 4303   6.339   4.345   7.988  1.7603 -0.3511 -1.0097
  773MOL0     H 4304   6.506   4.230   8.216 -0.6810 -0.1070 -0.6133
  773MOL0     H 4305   6.337   4.252   8.244  0.3322 -1.3694  0.4459
  773MOL0     H 4306   6.640   4.448   8.092 -0.0764  1.2133 -0.3809
  773MOL0     H 4307   6.673   4.781   8.127 -1.4514 -0.6202 -0.4947
  773MOL0     H 4308   6.677   4.778   8.311  1.6276 -1.5688  0.7472
  773MOL0     H 4309   6.888   4.753   8.252  2.6198 -0.9368 -2.3483
  773MOL0     H 4310   6.856   4.643   8.123  1.0162  2.8834  0.4157
  773MOL0     H 4311   6.828   4.466   8.261 -0.7524 -0.9760  2.6713
  773MOL0     H 4312   6.779   4.555   8.405  0.4312  2.4523  0.3138
  773MOL0     H 4313   7.061   4.562   8.319 -3.0751 -0.6100 -1.5219
  773MOL0     H 4314   6.991   4.471   8.459  4.2951  0.8521  0.9267
  773MOL0     H 4315   7.234   4.589   8.460 -1.7454 -2.7465  0.4400
  773MOL0     H 4316   7.486   4.628   8.589 -0.9321  0.1519 -0.8314
  773MOL0     H 4317   7.440   4.563   8.747 -0.9281 -3.1082  0.4033
  773MOL0     H 4318   7.389   4.487   8.602  1.9291 -1.6980  1.7877
  773MOL0     H 4319   7.690   4.613   8.893  1.7937 -0.1146  2.5921
  773MOL0     H 4320   7.913   4.684   9.003  0.4597  1.5842  2.3725
  773MOL0     H 4321   7.876   4.713   9.244 -0.3442 -0.2329  2.5495
  773MOL0     H 4322   8.049   4.739   9.195 -0.5252  1.4681 -1.3121
  773MOL0     H 4323   8.059   4.744   9.423  0.5444  1.4504 -0.4497
  773MOL0     H 4324   8.042   4.925   9.395 -3.0494  1.4319  2.8402
  773MOL0     H 4325   7.776   4.790   9.428  0.1190 -0.1126 -0.7623
  773MOL0     H 4326   7.854   4.923   9.517  1.7379 -0.0863  1.7014
  773MOL0     H 4327   7.905   4.632   9.558 -0.6912  0.2467 -3.3224
  773MOL0     H 4328   7.986   4.767   9.626 -0.4108 -1.3938  0.0789
  773MOL0     H 4329   7.680   4.732   9.665 -0.0112  1.4110  2.5017
  773MOL0     H 4330   7.779   4.869   9.714  1.4248  0.9185 -1.0437
  773MOL0     H 4331   7.755   4.581   9.809 -0.3638 -0.5442 -0.8099
  773MOL0     H 4332   7.908   4.656   9.822 -0.1038  0.9838 -0.4286
  773MOL0     H 4333   7.729   4.676  10.021 -1.1902 -1.5885 -2.4871
  773MOL0     H 4334   7.663   4.808   9.935  0.5199 -0.2916 -0.2990
  773MOL0     H 4335   7.886   4.933   9.971  0.6112 -0.6556 -1.7696
  773MOL0     H 4336   7.975   4.787   9.985 -0.1874  2.0232 -3.9899
  773MOL0     H 4337   7.717   5.014   9.157  0.2230 -0.9179  0.5691
  773MOL0     H 4338   7.508   4.960   9.040  0.1492 -2.4765  1.5148
  773MOL0     H 4339   7.089   4.896   8.829  0.5351  0.9190 -0.8329
  773MOL0     H 4340   6.934   4.822   8.669  0.5731 -1.5168  2.2563
  773MOL0     H 4341   5.676   3.836   7.883  0.5750 -1.0911 -0.5662
  773MOL0     H 4342   5.454   3.875   7.907  0.2919 -0.7911 -1.5324
  773MOL0     H 4343   5.151   3.995   8.140  1.0216  1.1762  1.1002
  773MOL0     H 4344   4.936   4.089   8.182  0.2676  0.4776 -1.0798
  773MOL0     H 4345   4.643   3.929   8.075 -0.6264 -0.6270  0.8708
  773MOL0     H 4346   4.568   3.840   8.205  0.9635 -1.3159 -1.2912
  773MOL0     H 4347   4.523   4.126   8.133  0.6390 -1.3652 -0.4422
  773MOL0     H 4348   4.455   4.049   8.290 -0.7967 -4.9015  2.0172
  773MOL0     H 4349   4.329   3.887   8.157 -2.9543  0.8336 -0.0198
  773MOL0     H 4350   4.408   3.962   8.008  2.3946  0.9308  0.4676
  773MOL0     H 4351   4.273   4.158   8.050 -0.8882 -0.7032 -1.3747
  773MOL0     H 4352   4.228   4.100   8.209 -0.5137 -0.1106  0.2610
  773MOL0     H 4353   3.964   3.852   7.976 -1.3899  1.3144  0.9013
  773MOL0     H 4354   4.776   3.722   8.300 -0.6481  1.5313  0.3454
  773MOL0     H 4355   4.992   3.608   8.246 -0.0728 -0.7946 -0.4890
  774MOL0     O 4356  10.238   0.173   2.912 -0.0215  0.0062  0.6916
  774MOL0     C 4357  10.340   0.108   2.945 -0.3354  0.5633 -0.0506
  774MOL0     O 4358  10.342   0.002   3.026  0.5076  0.4446  0.9406
  774MOL0     C 4359  10.226  -0.050   3.069  0.4362 -0.4499 -0.3417
  774MOL0     C 4360  10.213  -0.190   3.055 -0.3235  0.7198  0.4380
  774MOL0     C 4361  10.099  -0.254   3.098 -0.0062 -0.3941  0.5725
  774MOL0     C 4362   9.995  -0.178   3.164  0.7855 -0.5557 -0.3101
  774MOL0     O 4363   9.888  -0.243   3.223 -0.7753  0.3174  0.1775
  774MOL0     C 4364   9.789  -0.157   3.294  0.2059  0.3044 -0.1263
  774MOL0     C 4365   9.696  -0.251   3.382 -0.0193  0.0485  0.2001
  774MOL0     C 4366   9.605  -0.180   3.487 -0.5318 -0.4806 -1.0429
  774MOL0     C 4367   9.536  -0.056   3.433  0.0624  0.4340  0.6188
  774MOL0     C 4368   9.437  -0.076   3.323  0.3244 -0.8610 -0.0929
  774MOL0     C 4369   9.309  -0.154   3.361 -1.0861 -0.5991  0.4446
  774MOL0     C 4370   9.197  -0.149   3.255  0.0333 -0.2125 -0.1945
  774MOL0     C 4371   9.052  -0.185   3.311  0.2048  0.9835 -0.2710
  774MOL0     N 4372   8.996  -0.304   3.236  1.1417 -0.8019 -0.2179
  774MOL0     C 4373   9.074  -0.416   3.209  0.6225 -0.3446  0.4414
  774MOL0     C 4374   8.998  -0.492   3.133  0.6615  0.5596 -0.0009
  774MOL0     C 4375   9.042  -0.614   3.060  0.5309  0.3646  1.3206
  774MOL0     C 4376   8.953  -0.733   3.120 -0.1410  0.6813  0.0925
  774MOL0     C 4377   8.993  -0.869   3.056  0.1197  0.2741 -0.1526
  774MOL0     C 4378   8.915  -0.987   3.114 -0.1455  0.7512 -0.3173
  774MOL0     O 4379   8.777  -0.975   3.089  0.5480 -0.0819 -0.7768
  774MOL0     C 4380   8.686  -0.997   3.192  0.0792 -0.3507  0.4425
  774MOL0     C 4381   8.709  -1.077   3.296  0.3944  1.0588  0.2769
  774MOL0     C 4382   8.607  -1.091   3.389 -0.4692 -1.0927  0.3704
  774MOL0     C 4383   8.633  -1.156   3.521 -0.1336 -0.4340 -0.6342
  774MOL0     C 4384   8.468  -1.057   3.353 -0.3900  0.4913  0.9688
  774MOL0     C 4385   8.346  -1.081   3.430  0.1935  0.6880  0.1660
  774MOL0     O 4386   8.245  -0.987   3.424  0.4095 -0.4137 -0.7979
  774MOL0     C 4387   8.128  -1.001   3.495 -0.1601 -0.2476  0.4450
  774MOL0     C 4388   8.015  -1.063   3.434  0.2703 -0.5193  0.5473
  774MOL0     C 4389   7.889  -1.071   3.505  0.0875 -0.3481  0.2010
  774MOL0     C 4390   7.880  -1.000   3.629  0.5310  0.6292  0.3532
  774MOL0     O 4391   7.760  -1.009   3.698 -1.2774 -0.7167 -0.2355
  774MOL0     C 4392   7.668  -1.112   3.666  0.2335  0.3755  0.1387
  774MOL0     C 4393   7.560  -1.136   3.778  0.6034 -0.2087 -0.1160
  774MOL0     C 4394   7.590  -1.087   3.919  0.4843 -0.1734 -0.5273
  774MOL0     C 4395   7.522  -1.178   4.020  0.4259  0.3023 -0.3486
  774MOL0     C 4396   7.390  -1.127   4.079  0.3658 -0.6621  0.8666
  774MOL0     C 4397   7.311  -1.238   4.151  0.7197 -0.5196 -0.1591
  774MOL0     C 4398   7.165  -1.210   4.191  0.0728  0.1544  0.7314
  774MOL0     C 4399   7.108  -1.343   4.269 -0.2499  0.3031  0.2884
  774MOL0    Cl 4400   6.931  -1.345   4.267 -0.1451 -0.4178  0.5656
  774MOL0     C 4401   7.990  -0.931   3.677 -1.5366 -0.3620  0.8611
  774MOL0     C 4402   8.121  -0.944   3.614 -0.0208  0.6798 -0.1147
  774MOL0     O 4403   8.344  -1.178   3.511 -0.3294  0.1765  0.3071
  774MOL0     C 4404   8.460  -0.956   3.257  0.5402  0.1109 -0.2006
  774MOL0     C 4405   8.565  -0.929   3.177  0.2185  0.3382  0.4177
  774MOL0     N 4406   8.868  -0.437   3.114 -0.4155  0.7166 -0.0017
  774MOL0     N 4407   8.869  -0.336   3.193 -0.1613 -0.0222  0.4273
  774MOL0     C 4408  10.010  -0.041   3.178 -0.4248 -0.0424  1.1181
  774MOL0     C 4409  10.124   0.026   3.136 -0.9832  0.5788 -0.3434
  774MOL0     C 4410  10.478   0.163   2.895  0.3216  0.3411 -1.2263
  774MOL0     C 4411  10.474   0.245   2.779 -0.4349 -0.2392 -0.1515
  774MOL0     C 4412  10.590   0.298   2.723 -0.7055 -0.5713 -0.3849
  774MOL0     C 4413  10.710   0.272   2.793  0.3561  0.9231  0.1731
  774MOL0     O 4414  10.816   0.321   2.724  0.0964 -0.1315 -0.0353
  774MOL0     C 4415  10.954   0.290   2.755 -0.2220 -0.9757 -0.5941
  774MOL0     C 4416  10.993   0.163   2.688  0.2306  0.1581 -1.1062
  774MOL0     C 4417  11.144   0.143   2.655  0.3519  0.2339  0.3637
  774MOL0     C 4418  11.225   0.112   2.778  0.3202 -0.3480  0.5456
  774MOL0     C 4419  11.372   0.106   2.751  0.8533  1.0533 -0.3156
  774MOL0     C 4420  11.496   0.094   2.739  0.9933  0.7463  0.0605
  774MOL0     C 4421  10.718   0.189   2.900 -0.5557  0.7843  0.1174
  774MOL0     C 4422  10.605   0.135   2.952  0.6462 -0.2902 -0.2898
  774MOL0     H 4423  10.296  -0.244   3.010 -0.6321  1.8931 -1.7138
  774MOL0     H 4424  10.089  -0.362   3.101 -0.7908 -0.3066  1.3122
  774MOL0     H 4425   9.828  -0.086   3.367 -0.0765  1.9559 -1.5079
  774MOL0     H 4426   9.717  -0.114   3.223 -0.7181 -2.6417 -1.1217
  774MOL0     H 4427   9.633  -0.313   3.318  0.3878  0.9215 -1.0909
  774MOL0     H 4428   9.759  -0.319   3.439  1.7375  1.3716 -0.0835
  774MOL0     H 4429   9.538  -0.252   3.534 -0.8410  0.3190 -0.2112
  774MOL0     H 4430   9.681  -0.137   3.553 -0.8368 -3.5765  1.6034
  774MOL0     H 4431   9.490  -0.018   3.525  2.6462 -1.6483  2.9664
  774MOL0     H 4432   9.607   0.023   3.409  2.5561 -1.1204  2.4114
  774MOL0     H 4433   9.392   0.019   3.293  0.7647 -0.7825 -0.5392
  774MOL0     H 4434   9.489  -0.128   3.241  2.1960 -0.8264  1.0209
  774MOL0     H 4435   9.342  -0.252   3.398 -1.2041  0.4955  3.7374
  774MOL0     H 4436   9.269  -0.104   3.449 -2.3109  0.3322 -0.6051
  774MOL0     H 4437   9.196  -0.052   3.204 -1.5095 -2.6301 -5.4113
  774MOL0     H 4438   9.227  -0.220   3.178  1.1697 -3.8737  3.2631
  774MOL0     H 4439   8.977  -0.105   3.307 -2.0237 -0.8760  1.4386
  774MOL0     H 4440   9.048  -0.210   3.417 -0.7630  2.9386  0.2105
  774MOL0     H 4441   9.177  -0.434   3.239  1.6590  2.7099 -0.8203
  774MOL0     H 4442   9.021  -0.619   2.952 -1.5761 -1.2781  1.7247
  774MOL0     H 4443   9.150  -0.627   3.067  1.4530  1.2366 -5.1514
  774MOL0     H 4444   8.853  -0.727   3.076  1.3319 -0.4153 -3.7944
  774MOL0     H 4445   8.970  -0.736   3.228  3.2972 -1.2622 -0.3806
  774MOL0     H 4446   9.100  -0.891   3.054  0.0866  0.1535 -1.0235
  774MOL0     H 4447   8.958  -0.859   2.953 -4.2296 -1.1823  0.9814
  774MOL0     H 4448   8.938  -0.990   3.221 -1.1359  0.5237 -0.1052
  774MOL0     H 4449   8.950  -1.084   3.078 -1.7016  0.6216 -1.5712
  774MOL0     H 4450   8.801  -1.132   3.312  0.5554  1.7352  1.7917
  774MOL0     H 4451   8.718  -1.098   3.558 -0.4198  0.2170 -0.9783
  774MOL0     H 4452   8.556  -1.155   3.599  0.6954 -0.8813  0.2100
  774MOL0     H 4453   8.672  -1.258   3.508 -1.4390 -0.9183 -0.9690
  774MOL0     H 4454   8.029  -1.075   3.327  0.1362  7.2456 -0.9448
  774MOL0     H 4455   7.800  -1.120   3.467 -0.1892 -0.9889  1.6364
  774MOL0     H 4456   7.619  -1.077   3.575  0.4115 -0.5088 -0.3111
  774MOL0     H 4457   7.699  -1.216   3.650 -0.1933 -0.3826  3.5609
  774MOL0     H 4458   7.463  -1.089   3.758  0.4626 -0.6063 -0.3897
  774MOL0     H 4459   7.556  -1.246   3.774  2.6059 -0.2971 -0.5500
  774MOL0     H 4460   7.575  -0.979   3.929  1.3783 -0.1914  1.9357
  774MOL0     H 4461   7.698  -1.098   3.933  0.6595 -0.4616 -1.9947
  774MOL0     H 4462   7.510  -1.273   3.967 -0.9648  1.3706 -2.0467
  774MOL0     H 4463   7.596  -1.199   4.099  1.4802 -3.4129 -2.1032
  774MOL0     H 4464   7.338  -1.083   3.993  0.1947 -3.1806 -0.4194
  774MOL0     H 4465   7.420  -1.052   4.152  2.1519 -1.1234  0.6392
  774MOL0     H 4466   7.300  -1.323   4.084 -0.7419 -1.6558  1.4367
  774MOL0     H 4467   7.367  -1.265   4.241 -1.6698 -1.8261  1.0340
  774MOL0     H 4468   7.103  -1.191   4.104  0.3833 -0.3233  0.4017
  774MOL0     H 4469   7.163  -1.133   4.269  0.1312 -1.7892  2.7726
  774MOL0     H 4470   7.145  -1.339   4.372 -0.8259 -1.9790  0.6424
  774MOL0     H 4471   7.151  -1.438   4.233  1.3087  1.4816 -1.1238
  774MOL0     H 4472   7.979  -0.875   3.770  0.0966  1.0510  0.2611
  774MOL0     H 4473   8.195  -0.884   3.667 -0.1332 -1.0329  2.1271
  774MOL0     H 4474   8.365  -0.909   3.236  0.1842  1.2027  3.2440
  774MOL0     H 4475   8.555  -0.857   3.096  0.4124 -0.1934 -0.0845
  774MOL0     H 4476   9.959   0.027   3.245  1.7538  3.0398 -0.0593
  774MOL0     H 4477  10.136   0.131   3.161 -2.4542  0.4450  1.1231
  774MOL0     H 4478  10.387   0.268   2.718  0.7690  0.4164 -1.6991
  774MOL0     H 4479  10.574   0.350   2.629 -2.0184 -0.7979 -0.3136
  774MOL0     H 4480  11.019   0.367   2.713 -0.7268 -2.2472 -4.0249
  774MOL0     H 4481  10.976   0.306   2.861 -1.5360  1.1695 -0.6050
  774MOL0     H 4482  10.958   0.158   2.584  1.3455 -1.4018 -1.4336
  774MOL0     H 4483  10.942   0.074   2.726  0.7068 -0.4947 -1.9676
  774MOL0     H 4484  11.185   0.231   2.605  1.7982 -0.6967 -0.1292
  774MOL0     H 4485  11.146   0.061   2.583  1.8125  2.2971 -2.0937
  774MOL0     H 4486  11.205   0.009   2.811  1.3806 -1.1247 -1.0660
  774MOL0     H 4487  11.216   0.181   2.862 -1.4495 -3.9283  3.5793
  774MOL0     H 4488  11.598   0.066   2.727  0.9077  0.8601 -0.9960
  774MOL0     H 4489  10.809   0.154   2.947 -1.1453 -3.3524 -1.3862
  774MOL0     H 4490  10.610   0.069   3.038 -0.3730 -2.1745 -1.6146
  775MOL0     O 4491   3.519   5.058   4.473  0.2809 -0.0542 -0.2892
  775MOL0     C 4492   3.619   5.132   4.450  0.2851 -0.0715  0.0068
  775MOL0     O 4493   3.633   5.211   4.335 -0.1475 -0.3249  0.2106
  775MOL0     C 4494   3.522   5.227   4.261  0.4177  1.7441  0.0577
  775MOL0     C 4495   3.525   5.174   4.132 -0.2823  0.3253 -0.5000
  775MOL0     C 4496   3.409   5.186   4.053 -0.2383  0.4688  0.6067
  775MOL0     C 4497   3.288   5.236   4.106  0.3306  0.0566 -1.1885
  775MOL0     O 4498   3.171   5.245   4.043  0.5934  1.0258  0.3734
  775MOL0     C 4499   3.112   5.126   3.997 -0.0589  0.3085  0.6706
  775MOL0     C 4500   2.981   5.103   4.070 -0.6287 -0.1835  0.2253
  775MOL0     C 4501   2.900   5.225   4.096  0.0784  0.8723 -0.2265
  775MOL0     C 4502   2.771   5.196   4.176  0.1187  0.4188 -0.7100
  775MOL0     C 4503   2.709   5.326   4.215  0.0224 -0.2086  0.4158
  775MOL0     C 4504   2.576   5.312   4.294  0.1555  1.4441 -0.3479
  775MOL0     C 4505   2.510   5.448   4.331 -0.6393 -0.7704  0.9484
  775MOL0     C 4506   2.391   5.428   4.425  0.3484 -0.7241 -0.5088
  775MOL0     N 4507   2.429   5.354   4.550  0.6370 -0.1981  0.7931
  775MOL0     C 4508   2.357   5.239   4.589 -0.5252  0.5202  0.0681
  775MOL0     C 4509   2.411   5.218   4.710  0.0007  0.0270 -0.5339
  775MOL0     C 4510   2.357   5.115   4.821 -0.7185 -0.2236  0.2778
  775MOL0     C 4511   2.206   5.100   4.811 -0.1499  0.9285 -0.1537
  775MOL0     C 4512   2.119   5.220   4.844 -0.1865 -0.4411  0.0234
  775MOL0     C 4513   1.980   5.206   4.777  0.1854  0.5372  0.2271
  775MOL0     O 4514   1.893   5.301   4.829  0.4523  0.1265  0.4585
  775MOL0     C 4515   1.903   5.433   4.789 -0.2326  0.1808  0.0760
  775MOL0     C 4516   1.983   5.468   4.672 -0.0033 -0.1066  0.2964
  775MOL0     C 4517   1.997   5.598   4.625 -0.8396  1.1124 -1.2081
  775MOL0     C 4518   2.102   5.641   4.524  0.0178 -0.0346  1.0234
  775MOL0     C 4519   1.924   5.694   4.686  0.3684  0.1087 -0.9086
  775MOL0     C 4520   1.896   5.825   4.618  0.6065  0.3110  0.1488
  775MOL0     O 4521   1.877   5.931   4.704  0.1543 -0.2672  0.1215
  775MOL0     C 4522   1.819   6.042   4.643  0.7229  0.4808 -0.0268
  775MOL0     C 4523   1.884   6.145   4.588 -0.8450  0.0110 -0.3080
  775MOL0     C 4524   1.825   6.263   4.544  0.1808 -0.5446  1.2143
  775MOL0     C 4525   1.684   6.283   4.549 -0.3900 -0.2685 -0.2356
  775MOL0     O 4526   1.634   6.391   4.494 -0.6501 -0.7484 -0.2142
  775MOL0     C 4527   1.492   6.385   4.454 -1.0585 -1.3358  0.0819
  775MOL0     C 4528   1.467   6.524   4.386  0.2053  0.1780 -0.0215
  775MOL0     C 4529   1.523   6.542   4.244  0.7752 -0.0736  0.8394
  775MOL0     C 4530   1.460   6.650   4.149  0.7648 -0.0257 -0.0547
  775MOL0     C 4531   1.504   6.790   4.208 -0.2282 -0.3871 -0.5405
  775MOL0     C 4532   1.438   6.904   4.131  0.4095 -0.1370 -0.0441
  775MOL0     C 4533   1.496   7.050   4.180 -0.0242  0.2182 -0.2294
  775MOL0     C 4534   1.423   7.096   4.307  0.3134 -1.0922 -1.0995
  775MOL0    Cl 4535   1.476   7.257   4.367  0.8635 -0.3430 -0.2652
  775MOL0     C 4536   1.611   6.172   4.613 -0.4066 -0.6287  0.4586
  775MOL0     C 4537   1.686   6.061   4.668 -0.0949  0.6612 -0.8470
  775MOL0     O 4538   1.891   5.835   4.494  0.5278  0.8023 -0.1839
  775MOL0     C 4539   1.852   5.664   4.804  0.0862  0.2964 -0.4537
  775MOL0     C 4540   1.846   5.539   4.856 -0.0518 -0.3962 -0.1355
  775MOL0     N 4541   2.514   5.304   4.731 -0.2296 -0.1950 -1.2762
  775MOL0     N 4542   2.518   5.399   4.643  0.6691  1.0587  0.7642
  775MOL0     C 4543   3.288   5.285   4.236 -0.2091  0.0186  0.4259
  775MOL0     C 4544   3.407   5.291   4.308  0.0565 -0.5801  0.1971
  775MOL0     C 4545   3.706   5.142   4.563 -0.8749  1.1881 -0.3762
  775MOL0     C 4546   3.795   5.240   4.569  0.5851 -0.6452 -0.3511
  775MOL0     C 4547   3.902   5.248   4.669 -0.3608 -0.0890  0.4706
  775MOL0     C 4548   3.928   5.148   4.765 -0.5075  0.8538  0.1933
  775MOL0     O 4549   4.036   5.137   4.857  0.2719 -0.3545  0.6608
  775MOL0     C 4550   4.156   5.208   4.854  0.4494  0.4800 -0.7334
  775MOL0     C 4551   4.275   5.112   4.823 -0.0902 -0.0819 -0.3315
  775MOL0     C 4552   4.302   4.974   4.899 -0.5950  0.6954 -1.0778
  775MOL0     C 4553   4.187   4.867   4.901 -0.5984  1.5161  0.0683
  775MOL0     C 4554   4.205   4.750   4.993  0.0446  0.2051 -0.5908
  775MOL0     C 4555   4.221   4.653   5.069 -0.3585  0.9858  0.4573
  775MOL0     C 4556   3.834   5.040   4.746 -1.0311  0.2858  1.6946
  775MOL0     C 4557   3.734   5.034   4.652  0.0041 -0.2266 -0.2681
  775MOL0     H 4558   3.606   5.111   4.097 -2.0071 -0.2390 -3.9878
  775MOL0     H 4559   3.421   5.145   3.954  1.0749  1.7824  0.1809
  775MOL0     H 4560   3.082   5.138   3.893  0.1514  2.1320  0.7925
  775MOL0     H 4561   3.183   5.044   4.010  1.1394  1.4750  1.9132
  775MOL0     H 4562   2.933   5.036   3.999 -2.4195 -0.0693  1.2677
  775MOL0     H 4563   2.998   5.043   4.160  1.1991 -2.0379 -1.2576
  775MOL0     H 4564   2.948   5.299   4.160  1.0615  1.4836 -1.6026
  775MOL0     H 4565   2.870   5.278   4.005 -3.1244  0.7296  0.6394
  775MOL0     H 4566   2.701   5.131   4.123 -2.6495  0.2658  2.7548
  775MOL0     H 4567   2.797   5.136   4.264  0.5977 -0.9245 -1.7433
  775MOL0     H 4568   2.782   5.382   4.273 -0.7648  0.4981  0.7469
  775MOL0     H 4569   2.681   5.384   4.126 -2.9674 -0.1660  1.2619
  775MOL0     H 4570   2.498   5.260   4.236 -1.2129  2.6527  0.3401
  775MOL0     H 4571   2.609   5.263   4.386  2.8984  2.3414 -0.7722
  775MOL0     H 4572   2.589   5.494   4.390 -0.9292 -1.9620  2.3033
  775MOL0     H 4573   2.483   5.507   4.242 -2.8936 -0.9932  1.4033
  775MOL0     H 4574   2.305   5.380   4.378 -1.8662  1.5018  1.0210
  775MOL0     H 4575   2.368   5.533   4.443  0.6556 -0.8453  0.6617
  775MOL0     H 4576   2.284   5.181   4.533  1.2868 -1.2386 -0.6068
  775MOL0     H 4577   2.408   5.019   4.810 -0.6279  0.0250 -2.0718
  775MOL0     H 4578   2.388   5.161   4.914 -0.3171 -0.9855  0.5270
  775MOL0     H 4579   2.179   5.024   4.885  1.9155  2.0394  1.8896
  775MOL0     H 4580   2.175   5.067   4.712  0.2308 -0.5247  0.1871
  775MOL0     H 4581   2.170   5.310   4.808  0.1395  0.0583  1.6388
  775MOL0     H 4582   2.113   5.220   4.953  0.3211 -0.1547  0.0542
  775MOL0     H 4583   1.951   5.105   4.807  0.0394  0.3374 -0.5866
  775MOL0     H 4584   1.976   5.194   4.669  0.9524 -2.8845  0.4944
  775MOL0     H 4585   2.054   5.404   4.621  2.4432  2.3016  0.4694
  775MOL0     H 4586   2.053   5.668   4.430 -1.0201  0.6782  1.7617
  775MOL0     H 4587   2.155   5.732   4.552  1.4197 -0.8629  1.1935
  775MOL0     H 4588   2.175   5.560   4.514 -1.3167 -1.0510 -1.2540
  775MOL0     H 4589   1.992   6.137   4.584 -0.8295 -0.8991  1.2089
  775MOL0     H 4590   1.883   6.334   4.486  0.4456 -2.2286 -0.7060
  775MOL0     H 4591   1.464   6.303   4.388  0.5859 -1.0953 -0.9684
  775MOL0     H 4592   1.430   6.365   4.542  0.1657 -0.6689  1.1331
  775MOL0     H 4593   1.358   6.531   4.385  0.2092  0.3173 -0.9383
  775MOL0     H 4594   1.510   6.601   4.450  3.4025 -1.1060 -0.4341
  775MOL0     H 4595   1.505   6.448   4.190  0.6162 -1.4672  3.2121
  775MOL0     H 4596   1.632   6.538   4.245  0.9920  0.8537 -2.8258
  775MOL0     H 4597   1.504   6.645   4.049 -0.6595 -0.6486 -0.6707
  775MOL0     H 4598   1.352   6.634   4.142  0.8538 -0.1189 -1.6159
  775MOL0     H 4599   1.613   6.793   4.197  0.1621 -0.4299  2.5774
  775MOL0     H 4600   1.470   6.806   4.311  0.9524  0.8165 -0.2971
  775MOL0     H 4601   1.461   6.887   4.025 -1.2136  1.4586 -0.6985
  775MOL0     H 4602   1.329   6.898   4.143  0.3060 -0.2276 -0.9209
  775MOL0     H 4603   1.474   7.132   4.112 -1.7078  0.5482  0.6602
  775MOL0     H 4604   1.604   7.033   4.190  0.4918  3.1033 -0.1529
  775MOL0     H 4605   1.452   7.027   4.386 -1.0384 -2.7228 -1.9484
  775MOL0     H 4606   1.314   7.090   4.294  0.1957 -1.6855  0.0121
  775MOL0     H 4607   1.503   6.165   4.611 -0.4691  0.2856 -0.2139
  775MOL0     H 4608   1.629   5.979   4.711 -2.9132  1.5799 -2.5386
  775MOL0     H 4609   1.783   5.733   4.851 -0.3733 -0.0944 -0.5394
  775MOL0     H 4610   1.793   5.516   4.948  1.6903 -2.0105  0.5387
  775MOL0     H 4611   3.203   5.339   4.276 -2.2603 -3.3976  1.1244
  775MOL0     H 4612   3.410   5.347   4.400  0.6619 -0.3794  0.0644
  775MOL0     H 4613   3.772   5.329   4.511 -1.0267  0.1128  1.3460
  775MOL0     H 4614   3.975   5.327   4.654 -2.4948  2.0119  0.4004
  775MOL0     H 4615   4.151   5.280   4.772 -3.5355 -0.9808 -1.9713
  775MOL0     H 4616   4.176   5.260   4.948  0.8722  0.2450 -0.6905
  775MOL0     H 4617   4.359   5.176   4.850 -0.7262  0.9378 -0.7184
  775MOL0     H 4618   4.282   5.094   4.716 -0.3026 -0.6937 -0.2458
  775MOL0     H 4619   4.326   5.004   5.001 -2.4982 -0.7600 -0.1314
  775MOL0     H 4620   4.399   4.933   4.869  0.6099  2.6817 -0.1173
  775MOL0     H 4621   4.186   4.831   4.798 -3.7424 -2.4572  1.2396
  775MOL0     H 4622   4.095   4.921   4.924 -1.2855 -0.0183  1.0704
  775MOL0     H 4623   4.213   4.567   5.133 -2.5512 -1.1974 -2.4439
  775MOL0     H 4624   3.880   4.953   4.793  1.0642 -0.3501 -1.2700
  775MOL0     H 4625   3.679   4.941   4.655 -0.8113  0.2691  1.0593
  776MOL0     O 4626   0.069   5.877   4.206  0.2303 -0.5869 -0.5633
  776MOL0     C 4627   0.155   5.864   4.124 -0.6973 -1.0040  1.0730
  776MOL0     O 4628   0.196   5.747   4.072 -0.5551  0.1823  0.2310
  776MOL0     C 4629   0.132   5.635   4.128  0.2490 -0.1811 -0.0362
  776MOL0     C 4630   0.174   5.583   4.250  0.2286  0.5656 -0.7183
  776MOL0     C 4631   0.082   5.494   4.308  0.4728 -0.5747  0.2203
  776MOL0     C 4632  -0.034   5.451   4.248  0.4214  0.7442  0.2591
  776MOL0     O 4633  -0.118   5.372   4.323 -0.3260  0.1178 -0.3644
  776MOL0     C 4634  -0.127   5.385   4.464  0.4473 -0.4744 -0.0442
  776MOL0     C 4635  -0.269   5.343   4.516  0.5706 -0.5569 -0.1191
  776MOL0     C 4636  -0.373   5.411   4.424 -0.1884 -0.5590  0.0863
  776MOL0     C 4637  -0.520   5.380   4.460 -0.5136  0.0783  0.0727
  776MOL0     C 4638  -0.623   5.394   4.344  0.3310 -0.1815  0.4838
  776MOL0     C 4639  -0.748   5.302   4.368  0.6249 -0.3328  0.7472
  776MOL0     C 4640  -0.833   5.333   4.495  0.0188 -0.2174  0.6125
  776MOL0     C 4641  -0.874   5.474   4.525 -0.8226  0.0766  0.1993
  776MOL0     N 4642  -0.955   5.518   4.413  1.3130  0.3454 -0.3496
  776MOL0     C 4643  -1.089   5.483   4.396  0.3522 -0.4009  0.1624
  776MOL0     C 4644  -1.115   5.528   4.267  0.5039 -0.8115  0.2596
  776MOL0     C 4645  -1.234   5.510   4.185  0.6347 -0.6120 -0.0448
  776MOL0     C 4646  -1.361   5.588   4.237 -0.4888 -1.2718  0.5781
  776MOL0     C 4647  -1.330   5.747   4.243 -0.0772  0.7336  0.4899
  776MOL0     C 4648  -1.438   5.836   4.307  0.8424  0.8375  0.2731
  776MOL0     O 4649  -1.406   5.868   4.437 -0.3824  0.8356  0.3463
  776MOL0     C 4650  -1.440   5.784   4.544  0.1742  1.0106  0.2562
  776MOL0     C 4651  -1.354   5.703   4.618 -0.0691  0.1256 -0.7697
  776MOL0     C 4652  -1.394   5.609   4.715  0.6385 -0.4451  1.1822
  776MOL0     C 4653  -1.289   5.514   4.773 -0.7221 -0.5953 -0.2558
  776MOL0     C 4654  -1.536   5.604   4.743 -0.9295 -0.2081  0.4987
  776MOL0     C 4655  -1.602   5.540   4.858  0.7313 -0.1642 -0.1014
  776MOL0     O 4656  -1.712   5.608   4.910 -0.7915 -0.5025 -0.3803
  776MOL0     C 4657  -1.736   5.591   5.048  0.3405  0.0481 -0.4206
  776MOL0     C 4658  -1.637   5.593   5.140  0.0586  0.5205 -0.3259
  776MOL0     C 4659  -1.667   5.558   5.274 -0.3083 -0.5665 -0.2428
  776MOL0     C 4660  -1.796   5.533   5.320 -0.1523  0.4877 -0.2680
  776MOL0     O 4661  -1.848   5.524   5.447  0.7056  0.0971  0.0616
  776MOL0     C 4662  -1.760   5.555   5.551  1.0380 -0.8451 -0.8206
  776MOL0     C 4663  -1.813   5.512   5.686 -0.7241  0.4593 -0.1009
  776MOL0     C 4664  -1.928   5.609   5.719 -0.2640  0.7474  0.4352
  776MOL0     C 4665  -1.950   5.629   5.873  0.2425 -1.6781 -0.3169
  776MOL0     C 4666  -1.991   5.509   5.949  1.0084 -0.4700  0.8498
  776MOL0     C 4667  -2.115   5.445   5.881 -0.1953 -0.3380  1.0053
  776MOL0     C 4668  -2.175   5.333   5.965  0.5186 -0.2137 -0.0993
  776MOL0     C 4669  -2.314   5.299   5.906 -0.3770  0.0043  0.0026
  776MOL0    Cl 4670  -2.360   5.128   5.892 -0.5303  0.1663  0.1885
  776MOL0     C 4671  -1.895   5.522   5.223  0.1854 -0.6122 -0.0447
  776MOL0     C 4672  -1.869   5.571   5.090 -0.6673  0.0550 -0.2523
  776MOL0     O 4673  -1.566   5.427   4.889  0.2435 -0.2511 -0.0320
  776MOL0     C 4674  -1.621   5.680   4.664  0.4072 -0.4880 -1.3486
  776MOL0     C 4675  -1.579   5.767   4.562  0.0031 -0.2590 -0.2057
  776MOL0     N 4676  -0.999   5.606   4.224  0.1823  0.2100 -0.1370
  776MOL0     N 4677  -0.913   5.591   4.311  0.0303  0.3275 -0.4341
  776MOL0     C 4678  -0.058   5.481   4.115 -0.1795 -0.0306  0.8506
  776MOL0     C 4679   0.029   5.572   4.048 -0.8019 -0.3241  0.0219
  776MOL0     C 4680   0.228   5.985   4.085 -0.4556 -0.6782 -0.5890
  776MOL0     C 4681   0.220   6.109   4.162  0.2017 -0.4211  0.0264
  776MOL0     C 4682   0.310   6.210   4.123  0.3585  0.0607  0.0118
  776MOL0     C 4683   0.409   6.200   4.024  0.0905 -0.3832  0.2229
  776MOL0     O 4684   0.503   6.307   4.008 -0.5643  0.4204  0.0947
  776MOL0     C 4685   0.467   6.405   3.908 -0.4781 -0.7150 -0.6095
  776MOL0     C 4686   0.367   6.514   3.947  0.1533  0.2609  0.0679
  776MOL0     C 4687   0.298   6.606   3.834  0.4400  0.1473 -0.3598
  776MOL0     C 4688   0.375   6.683   3.725 -0.6091  0.4694 -0.5152
  776MOL0     C 4689   0.490   6.767   3.782  0.2243  0.1362  0.6840
  776MOL0     C 4690   0.584   6.823   3.831  0.9778 -1.2316  0.1590
  776MOL0     C 4691   0.418   6.081   3.945  0.5532  0.4517  0.2389
  776MOL0     C 4692   0.324   5.975   3.977 -0.4401 -0.0393 -0.5216
  776MOL0     H 4693   0.264   5.620   4.297 -0.6352  0.6215  0.9819
  776MOL0     H 4694   0.109   5.465   4.409  0.3482  4.5518  2.0067
  776MOL0     H 4695  -0.056   5.323   4.519  2.8434  0.1318 -2.2795
  776MOL0     H 4696  -0.121   5.490   4.496 -2.3738 -0.4907  0.8381
  776MOL0     H 4697  -0.273   5.236   4.493  0.5088 -0.3311 -1.2346
  776MOL0     H 4698  -0.273   5.354   4.624  3.5817 -0.0585  0.0299
  776MOL0     H 4699  -0.380   5.519   4.441 -0.2080 -0.0609 -2.6469
  776MOL0     H 4700  -0.354   5.400   4.317 -1.5738  0.5343 -0.2901
  776MOL0     H 4701  -0.537   5.284   4.510  0.1581 -0.4992 -0.7804
  776MOL0     H 4702  -0.550   5.455   4.534 -1.6635 -1.0111  0.7507
  776MOL0     H 4703  -0.652   5.498   4.332 -1.1267 -0.7548 -1.4811
  776MOL0     H 4704  -0.587   5.357   4.247  0.5483  0.7387  0.2040
  776MOL0     H 4705  -0.815   5.319   4.283 -2.6565 -1.3041  2.9362
  776MOL0     H 4706  -0.715   5.198   4.366 -0.5321 -0.7071 -0.6579
  776MOL0     H 4707  -0.923   5.270   4.502  0.2388 -0.3539  2.8932
  776MOL0     H 4708  -0.770   5.301   4.579  0.2517  1.6272  1.1717
  776MOL0     H 4709  -0.782   5.533   4.530 -0.5997 -0.3898  2.6292
  776MOL0     H 4710  -0.940   5.491   4.610 -0.5787  1.6994  0.1076
  776MOL0     H 4711  -1.167   5.439   4.456 -0.4947  0.4144 -0.3148
  776MOL0     H 4712  -1.205   5.531   4.081  2.3962  0.2721  0.5807
  776MOL0     H 4713  -1.262   5.405   4.194  0.5103 -0.4442  1.9920
  776MOL0     H 4714  -1.389   5.561   4.339 -1.9198  0.1453  0.5944
  776MOL0     H 4715  -1.442   5.575   4.165 -0.3921  0.4041  0.1189
  776MOL0     H 4716  -1.321   5.782   4.140 -0.0895  1.1299  0.6222
  776MOL0     H 4717  -1.229   5.759   4.283  0.0466  0.9704  0.1086
  776MOL0     H 4718  -1.531   5.779   4.295 -0.6037  2.7204  1.8876
  776MOL0     H 4719  -1.454   5.931   4.255  4.5419  0.5165 -1.7937
  776MOL0     H 4720  -1.249   5.701   4.590 -0.0938 -1.5249 -0.8505
  776MOL0     H 4721  -1.237   5.554   4.860 -2.2234  1.9476 -0.4176
  776MOL0     H 4722  -1.326   5.413   4.791  1.2298 -1.8126 -2.4987
  776MOL0     H 4723  -1.208   5.498   4.701 -0.4389 -0.1116 -0.0470
  776MOL0     H 4724  -1.531   5.610   5.129 -0.2722  4.3999  1.0511
  776MOL0     H 4725  -1.586   5.545   5.345 -0.0660  0.1975 -0.3706
  776MOL0     H 4726  -1.662   5.507   5.538  0.7971 -1.6760  0.2704
  776MOL0     H 4727  -1.739   5.662   5.557 -2.3595 -0.1013 -0.3012
  776MOL0     H 4728  -1.844   5.407   5.688  0.7529 -0.0036  0.4534
  776MOL0     H 4729  -1.729   5.525   5.756 -0.4816 -1.6843  0.0669
  776MOL0     H 4730  -2.023   5.576   5.677 -1.4085  2.0210  1.8559
  776MOL0     H 4731  -1.916   5.707   5.671 -3.4264  0.4855 -1.1318
  776MOL0     H 4732  -1.858   5.648   5.930 -0.8767 -0.6522  1.2497
  776MOL0     H 4733  -2.020   5.713   5.875  2.0989  0.0873 -3.2341
  776MOL0     H 4734  -2.014   5.545   6.050  3.7112  1.3716  0.9136
  776MOL0     H 4735  -1.901   5.447   5.949  2.5361  1.6505  0.9222
  776MOL0     H 4736  -2.184   5.528   5.862 -0.1330 -0.5028  0.0218
  776MOL0     H 4737  -2.085   5.396   5.788 -2.8120  1.2529 -0.8038
  776MOL0     H 4738  -2.182   5.354   6.072 -2.6203 -1.8317  0.1492
  776MOL0     H 4739  -2.109   5.246   5.964  1.6792  0.6537 -0.1463
  776MOL0     H 4740  -2.310   5.338   5.803  0.0999 -0.0557 -0.0049
  776MOL0     H 4741  -2.398   5.358   5.945 -2.6437 -0.6626 -3.3429
  776MOL0     H 4742  -1.992   5.484   5.253 -0.1588  0.1616 -0.1487
  776MOL0     H 4743  -1.941   5.574   5.009 -0.8120 -2.9989 -0.3508
  776MOL0     H 4744  -1.727   5.660   4.680  1.1877 -3.4361  0.8102
  776MOL0     H 4745  -1.639   5.831   4.498 -1.8212 -2.0951 -0.4356
  776MOL0     H 4746  -0.131   5.427   4.056  1.7141 -2.0869  0.2440
  776MOL0     H 4747   0.022   5.609   3.947 -4.3693  4.2650  1.5736
  776MOL0     H 4748   0.154   6.127   4.246 -1.0113 -0.3126 -0.9202
  776MOL0     H 4749   0.300   6.304   4.176 -1.6200  1.2419 -2.2767
  776MOL0     H 4750   0.562   6.451   3.878  0.3708 -2.3084 -0.4858
  776MOL0     H 4751   0.430   6.360   3.815 -0.9951 -0.9534 -0.2883
  776MOL0     H 4752   0.425   6.588   4.003 -0.8849  2.0194 -1.0727
  776MOL0     H 4753   0.286   6.469   4.005  0.0401 -4.3941 -3.1719
  776MOL0     H 4754   0.226   6.677   3.874  0.8784 -0.1557  1.0293
  776MOL0     H 4755   0.237   6.536   3.777  0.6860 -2.2886  2.1505
  776MOL0     H 4756   0.289   6.735   3.682  0.3773  0.0888 -3.0894
  776MOL0     H 4757   0.413   6.626   3.641  0.2435  1.1931 -0.6315
  776MOL0     H 4758   0.679   6.859   3.866  0.6425  0.4728 -0.5955
  776MOL0     H 4759   0.483   6.073   3.858  1.2653 -0.1330  0.8132
  776MOL0     H 4760   0.343   5.877   3.935  2.9877 -0.7368  2.1301
  777MOL0     O 4761   2.651   4.652   7.604 -0.3118  0.2951  0.3304
  777MOL0     C 4762   2.608   4.741   7.528 -0.5750  0.4432 -0.0152
  777MOL0     O 4763   2.476   4.787   7.502 -0.6674  1.0077  0.4306
  777MOL0     C 4764   2.361   4.758   7.573  0.1609 -0.9462  0.4436
  777MOL0     C 4765   2.232   4.753   7.510  0.6388  0.6627  0.0023
  777MOL0     C 4766   2.115   4.717   7.575  0.2018 -1.1869 -0.3673
  777MOL0     C 4767   2.116   4.691   7.716  0.1938  0.2145 -1.3411
  777MOL0     O 4768   2.009   4.679   7.804 -0.4076 -0.8650  0.2914
  777MOL0     C 4769   1.920   4.567   7.780  0.2188 -0.2290 -0.5887
  777MOL0     C 4770   1.973   4.433   7.836  0.0529 -0.6201 -0.2274
  777MOL0     C 4771   1.868   4.322   7.836 -0.1042  0.0433  0.0315
  777MOL0     C 4772   1.875   4.245   7.708 -0.6571 -0.0683 -0.0501
  777MOL0     C 4773   1.775   4.143   7.697 -0.3307 -0.9271 -0.6202
  777MOL0     C 4774   1.797   4.092   7.558 -0.2543 -0.4887  0.9621
  777MOL0     C 4775   1.678   4.012   7.511  0.1913  0.6292  1.0799
  777MOL0     C 4776   1.689   3.981   7.363  0.4837  0.5025  0.4545
  777MOL0     N 4777   1.594   3.890   7.319 -0.3073  0.0927  0.1567
  777MOL0     C 4778   1.463   3.919   7.311  0.0697  1.1126 -1.2025
  777MOL0     C 4779   1.398   3.809   7.266  0.0340 -0.4300 -0.5978
  777MOL0     C 4780   1.248   3.822   7.243 -0.4768 -0.0099  0.1423
  777MOL0     C 4781   1.165   3.772   7.359  0.5899 -0.5695 -0.5789
  777MOL0     C 4782   1.019   3.799   7.333 -0.4967 -0.6327 -0.4548
  777MOL0     C 4783   0.936   3.779   7.463 -0.3991  0.1095 -0.4036
  777MOL0     O 4784   0.925   3.640   7.491 -0.1751 -0.5023  0.1991
  777MOL0     C 4785   0.804   3.582   7.517 -0.4789  0.2220 -0.5309
  777MOL0     C 4786   0.686   3.607   7.448  0.6898 -1.0098  0.5945
  777MOL0     C 4787   0.560   3.551   7.494  0.2601 -0.1533  0.8168
  777MOL0     C 4788   0.435   3.575   7.422 -1.0409  0.1112  1.0364
  777MOL0     C 4789   0.553   3.480   7.610 -0.5641  0.5230  0.2154
  777MOL0     C 4790   0.440   3.430   7.667  0.1184  0.1781 -1.7806
  777MOL0     O 4791   0.410   3.306   7.631 -0.9089 -0.1927  0.1687
  777MOL0     C 4792   0.292   3.252   7.663 -1.5694  0.3213 -0.0184
  777MOL0     C 4793   0.289   3.139   7.742 -0.4068 -0.7522  0.0477
  777MOL0     C 4794   0.164   3.072   7.770  0.1680 -0.5892 -0.1443
  777MOL0     C 4795   0.042   3.130   7.733  0.4914 -0.2624 -0.2853
  777MOL0     O 4796  -0.076   3.066   7.761  0.6249  0.7204 -0.2125
  777MOL0     C 4797  -0.200   3.111   7.723  0.2036 -0.1859  0.5141
  777MOL0     C 4798  -0.258   3.003   7.635 -0.0756 -0.0738  0.5793
  777MOL0     C 4799  -0.378   3.042   7.552 -0.2526  0.1054  0.0569
  777MOL0     C 4800  -0.513   3.004   7.620  0.7654  0.0209 -0.0836
  777MOL0     C 4801  -0.625   2.972   7.517 -1.2478 -0.0275 -0.0135
  777MOL0     C 4802  -0.654   3.074   7.399 -0.7693  0.7748 -0.1860
  777MOL0     C 4803  -0.785   3.051   7.330  0.1583 -0.0072 -0.5901
  777MOL0     C 4804  -0.814   2.903   7.303  0.5395  0.4932 -0.4179
  777MOL0    Cl 4805  -0.975   2.879   7.237  0.2375 -0.4771  0.4361
  777MOL0     C 4806   0.051   3.243   7.647 -0.4109 -0.5811 -1.1766
  777MOL0     C 4807   0.175   3.298   7.623 -0.6986 -0.6292 -0.4517
  777MOL0     O 4808   0.372   3.498   7.744  0.2797 -0.0612 -0.1662
  777MOL0     C 4809   0.674   3.459   7.679  0.2461  0.0665  0.2163
  777MOL0     C 4810   0.796   3.497   7.633  0.6057 -0.4038 -0.0124
  777MOL0     N 4811   1.491   3.705   7.264 -0.3872  1.0896 -0.5617
  777MOL0     N 4812   1.605   3.755   7.288  0.8149  0.4418 -0.4500
  777MOL0     C 4813   2.239   4.680   7.772 -0.0455  0.0637 -0.3438
  777MOL0     C 4814   2.345   4.727   7.708  0.1848 -1.5203  0.0685
  777MOL0     C 4815   2.717   4.828   7.458  0.0996 -0.3765  0.0893
  777MOL0     C 4816   2.855   4.798   7.458  0.5563  0.0657 -0.4906
  777MOL0     C 4817   2.938   4.890   7.395  0.0288  0.1863  0.0427
  777MOL0     C 4818   2.894   5.019   7.357 -1.0111 -0.9244  0.4077
  777MOL0     O 4819   2.985   5.119   7.314 -0.9446 -0.8054 -0.0182
  777MOL0     C 4820   3.122   5.097   7.314  0.5541  0.8552 -0.3083
  777MOL0     C 4821   3.192   5.092   7.453  0.9404 -0.6826 -0.1666
  777MOL0     C 4822   3.220   5.244   7.497  0.5425 -0.3943  0.2597
  777MOL0     C 4823   3.361   5.265   7.545 -1.3173 -1.1512  0.1401
  777MOL0     C 4824   3.453   5.254   7.430  0.4722  0.0413 -0.9434
  777MOL0     C 4825   3.525   5.249   7.334  0.2203 -0.1454  0.4874
  777MOL0     C 4826   2.761   5.054   7.368 -0.3822  1.4029  0.6230
  777MOL0     C 4827   2.675   4.957   7.418 -0.5678 -0.9293  0.8304
  777MOL0     H 4828   2.244   4.773   7.405  0.8824 -0.4691 -0.2055
  777MOL0     H 4829   2.012   4.728   7.541 -0.4914  1.1493  2.1294
  777MOL0     H 4830   1.817   4.577   7.815  0.2415  0.0041 -0.5896
  777MOL0     H 4831   1.924   4.551   7.672  2.7871 -1.0074 -0.4448
  777MOL0     H 4832   2.059   4.407   7.774  0.4354  0.3606 -0.1247
  777MOL0     H 4833   2.014   4.449   7.936  1.9854  0.6701 -1.1696
  777MOL0     H 4834   1.898   4.252   7.915  2.7637  2.4763  1.3036
  777MOL0     H 4835   1.767   4.363   7.847  0.7059  1.9621  0.6724
  777MOL0     H 4836   1.882   4.315   7.624  4.2533 -3.7040 -3.2178
  777MOL0     H 4837   1.973   4.196   7.705  0.3423  1.4473  3.1010
  777MOL0     H 4838   1.775   4.056   7.763 -3.0257  0.1419  0.9920
  777MOL0     H 4839   1.669   4.170   7.698 -0.5690 -1.6683 -2.2697
  777MOL0     H 4840   1.801   4.174   7.485 -2.4682  0.8199  2.1924
  777MOL0     H 4841   1.895   4.044   7.556 -0.7105 -1.4524  1.2632
  777MOL0     H 4842   1.670   3.924   7.576  0.3189  1.4442  2.2393
  777MOL0     H 4843   1.588   4.074   7.519 -0.8564 -0.6501 -0.3000
  777MOL0     H 4844   1.782   3.929   7.341 -0.4548 -0.6287 -1.0912
  777MOL0     H 4845   1.690   4.070   7.299  0.9270 -0.5382 -1.0393
  777MOL0     H 4846   1.419   4.014   7.339  1.5662  1.2898  0.7319
  777MOL0     H 4847   1.216   3.925   7.221  0.9567  0.6740  1.0737
  777MOL0     H 4848   1.215   3.771   7.152  2.4671 -2.9619  0.5331
  777MOL0     H 4849   1.203   3.813   7.453  2.1400 -2.0579 -0.4926
  777MOL0     H 4850   1.185   3.667   7.382 -0.2531 -1.0364 -1.8888
  777MOL0     H 4851   0.986   3.721   7.264 -1.9245 -0.0388 -0.4945
  777MOL0     H 4852   1.007   3.903   7.302  1.1437 -0.4606 -0.5689
  777MOL0     H 4853   0.831   3.804   7.448 -0.8239 -1.3850 -0.1150
  777MOL0     H 4854   0.971   3.853   7.535  3.8493 -0.4326 -1.6005
  777MOL0     H 4855   0.697   3.658   7.353  3.3452  0.2805  1.5188
  777MOL0     H 4856   0.359   3.607   7.494 -0.4212 -0.5639  2.0132
  777MOL0     H 4857   0.450   3.652   7.345  5.3520 -1.2383  0.3189
  777MOL0     H 4858   0.404   3.487   7.366  4.1413  0.1065 -2.5179
  777MOL0     H 4859   0.383   3.093   7.770 -0.8580 -0.5569  1.9942
  777MOL0     H 4860   0.149   2.976   7.818 -0.4433 -1.2349 -1.5775
  777MOL0     H 4861  -0.263   3.122   7.812  0.5857  0.0404  0.7600
  777MOL0     H 4862  -0.193   3.200   7.661  0.1979 -1.3863 -1.2725
  777MOL0     H 4863  -0.182   2.997   7.556 -0.3104  1.2778  0.2121
  777MOL0     H 4864  -0.269   2.904   7.679  0.3531  0.5932  2.2805
  777MOL0     H 4865  -0.366   2.999   7.451 -3.4474  2.4387 -1.5021
  777MOL0     H 4866  -0.370   3.149   7.531  3.3647 -0.0269  0.0896
  777MOL0     H 4867  -0.490   2.920   7.687 -0.9941  0.0722  0.6315
  777MOL0     H 4868  -0.557   3.072   7.692 -0.3791  0.3154 -1.0407
  777MOL0     H 4869  -0.709   2.951   7.585 -1.0731  0.0677  0.2321
  777MOL0     H 4870  -0.595   2.880   7.468  2.2604  2.2001 -2.4669
  777MOL0     H 4871  -0.643   3.179   7.429 -1.1359 -0.2776  4.2319
  777MOL0     H 4872  -0.573   3.061   7.326  1.9871  1.4640  2.5601
  777MOL0     H 4873  -0.786   3.111   7.238 -0.8181 -0.4670 -0.8887
  777MOL0     H 4874  -0.858   3.079   7.406  1.2272  0.3141  0.3446
  777MOL0     H 4875  -0.806   2.843   7.394 -4.2308 -0.0714 -0.1013
  777MOL0     H 4876  -0.738   2.871   7.231  0.0514 -0.0282 -0.7043
  777MOL0     H 4877  -0.034   3.287   7.597 -0.5954  0.4405 -0.0052
  777MOL0     H 4878   0.188   3.390   7.566  1.2853  1.0626  2.4336
  777MOL0     H 4879   0.674   3.418   7.779  1.2257  1.6966  0.9299
  777MOL0     H 4880   0.877   3.471   7.700 -0.7100 -1.0743  1.3902
  777MOL0     H 4881   2.244   4.633   7.870  1.0169 -0.5108 -0.6614
  777MOL0     H 4882   2.427   4.713   7.777 -1.5805  1.4051  3.0237
  777MOL0     H 4883   2.893   4.705   7.499 -0.0381 -0.8089 -1.8717
  777MOL0     H 4884   3.039   4.850   7.397 -0.1353 -0.2143  0.4090
  777MOL0     H 4885   3.145   5.000   7.269 -1.8873  1.8987 -4.2811
  777MOL0     H 4886   3.175   5.168   7.250 -0.3820  1.6768 -0.1869
  777MOL0     H 4887   3.276   5.022   7.442  0.3333 -1.5686  0.7066
  777MOL0     H 4888   3.138   5.039   7.531 -0.8455  2.3574  0.8350
  777MOL0     H 4889   3.159   5.271   7.583 -2.0527 -2.3840 -0.8231
  777MOL0     H 4890   3.191   5.313   7.416 -0.4544  3.8630  3.8482
  777MOL0     H 4891   3.378   5.196   7.627  0.9074 -1.0023 -0.1376
  777MOL0     H 4892   3.378   5.367   7.581  4.3743 -0.2160 -3.8184
  777MOL0     H 4893   3.584   5.223   7.249  0.8329  1.7052  0.2994
  777MOL0     H 4894   2.738   5.154   7.332  0.5242  1.4680  0.1976
  777MOL0     H 4895   2.575   4.999   7.409  1.5361  4.6247 -0.3897
  778MOL0     O 4896   7.393   4.987   1.067  0.4768 -0.1195 -0.0933
  778MOL0     C 4897   7.442   5.045   0.973  0.0847 -0.5082  0.6303
  778MOL0     O 4898   7.575   5.056   0.945  0.6383  0.0432 -0.2113
  778MOL0     C 4899   7.667   5.001   1.041  0.5804  0.1480  0.2695
  778MOL0     C 4900   7.725   5.081   1.139 -0.0812 -0.1139  0.0099
  778MOL0     C 4901   7.804   5.032   1.235 -0.1457  0.9272  0.4379
  778MOL0     C 4902   7.810   4.888   1.256  0.6926  0.3397 -0.7434
  778MOL0     O 4903   7.877   4.834   1.365 -0.1532 -0.2467  0.1771
  778MOL0     C 4904   7.936   4.706   1.349  0.4562 -0.0379 -1.3844
  778MOL0     C 4905   8.046   4.701   1.238  1.2130 -0.3901  0.1648
  778MOL0     C 4906   8.041   4.555   1.174 -0.1294  0.2853 -0.1881
  778MOL0     C 4907   8.171   4.520   1.098 -0.6922 -0.0772 -0.9045
  778MOL0     C 4908   8.299   4.499   1.190 -0.1701  0.3741  0.5966
  778MOL0     C 4909   8.420   4.455   1.118  0.0058 -0.5363 -0.2627
  778MOL0     C 4910   8.473   4.570   1.037  0.2947  0.3669 -0.7764
  778MOL0     C 4911   8.599   4.529   0.955  0.2710  0.2026 -0.4250
  778MOL0     N 4912   8.717   4.535   1.038  0.3018  0.2101 -0.5583
  778MOL0     C 4913   8.740   4.604   1.159  0.6921 -0.6353  0.5610
  778MOL0     C 4914   8.856   4.562   1.203  0.0280  0.2561 -0.8131
  778MOL0     C 4915   8.927   4.610   1.327  0.2161 -0.4542 -0.9003
  778MOL0     C 4916   9.052   4.685   1.283  0.0779 -0.5127 -0.7589
  778MOL0     C 4917   9.085   4.787   1.388  1.1450  0.2695 -0.5074
  778MOL0     C 4918   9.199   4.877   1.334  0.0792  1.4611 -0.9567
  778MOL0     O 4919   9.251   4.962   1.429  0.0087  0.4485 -0.4354
  778MOL0     C 4920   9.307   5.076   1.381 -0.2030 -0.0712  0.3564
  778MOL0     C 4921   9.317   5.132   1.247 -0.3823  0.5964  0.2948
  778MOL0     C 4922   9.377   5.246   1.221 -1.6218 -0.3136 -0.4938
  778MOL0     C 4923   9.366   5.290   1.076  0.6725  0.3455  0.6813
  778MOL0     C 4924   9.441   5.319   1.325  0.0314  0.2141  0.8838
  778MOL0     C 4925   9.527   5.438   1.304  0.4094  0.0605 -0.6510
  778MOL0     O 4926   9.552   5.526   1.418 -0.6227  0.7976  0.4886
  778MOL0     C 4927   9.599   5.644   1.373  0.5961  0.0985  0.5195
  778MOL0     C 4928   9.522   5.746   1.328  0.1909  0.2855  0.3353
  778MOL0     C 4929   9.587   5.867   1.283  0.5747  0.2543  0.1581
  778MOL0     C 4930   9.724   5.887   1.290 -0.1371 -0.0019 -0.2279
  778MOL0     O 4931   9.776   6.003   1.235 -0.3042  0.2272 -0.0520
  778MOL0     C 4932   9.908   6.009   1.196 -0.2903  0.2312  0.1111
  778MOL0     C 4933   9.936   5.922   1.060  0.1745 -0.1005 -0.3099
  778MOL0     C 4934   9.870   6.011   0.952  0.0969  0.4359  0.5337
  778MOL0     C 4935   9.826   5.928   0.828  0.0179  0.1089  0.2983
  778MOL0     C 4936   9.722   5.992   0.745 -0.4114 -0.6976 -0.1231
  778MOL0     C 4937   9.771   6.125   0.694 -0.0614 -0.8193 -0.0262
  778MOL0     C 4938   9.687   6.176   0.568 -0.2059  0.3271  0.3583
  778MOL0     C 4939   9.771   6.298   0.515  0.3684 -0.2423 -0.1141
  778MOL0    Cl 4940   9.915   6.246   0.446 -0.6832 -0.2282 -0.0193
  778MOL0     C 4941   9.803   5.788   1.349  0.1843  0.6475  0.7765
  778MOL0     C 4942   9.736   5.664   1.381 -0.4123 -0.0946  0.5707
  778MOL0     O 4943   9.581   5.453   1.195  0.1479  0.1119  0.2719
  778MOL0     C 4944   9.420   5.276   1.459 -0.0214  0.4584 -1.0657
  778MOL0     C 4945   9.361   5.156   1.483 -0.1873 -0.6133 -0.5955
  778MOL0     N 4946   8.904   4.455   1.127  0.8476 -0.0455  1.6028
  778MOL0     N 4947   8.818   4.439   1.033  1.2332  0.3054  0.0402
  778MOL0     C 4948   7.766   4.810   1.144  0.8868  0.2728 -0.8945
  778MOL0     C 4949   7.691   4.860   1.045 -0.5054  0.2175 -0.4208
  778MOL0     C 4950   7.355   5.106   0.874 -0.6751  0.2044 -0.1065
  778MOL0     C 4951   7.394   5.219   0.802  0.2085  0.6285 -0.0449
  778MOL0     C 4952   7.301   5.280   0.720 -0.4052  0.3402 -1.0005
  778MOL0     C 4953   7.175   5.233   0.711 -0.4999 -0.5167  0.3619
  778MOL0     O 4954   7.087   5.289   0.635 -0.1730 -0.0095  0.5107
  778MOL0     C 4955   6.979   5.362   0.697 -0.8612  0.6718  0.0408
  778MOL0     C 4956   7.034   5.490   0.749  0.3952 -0.3863  0.3092
  778MOL0     C 4957   6.935   5.552   0.843  0.7561  0.3862  0.6503
  778MOL0     C 4958   7.004   5.669   0.915  0.5208 -0.0229  0.5591
  778MOL0     C 4959   6.901   5.729   1.009  0.1649  0.9511  0.5605
  778MOL0     C 4960   6.823   5.775   1.088 -0.3155 -0.4836 -0.2059
  778MOL0     C 4961   7.135   5.124   0.786  0.1565 -0.1006  1.4295
  778MOL0     C 4962   7.228   5.046   0.868 -0.6667 -0.6032  0.9905
  778MOL0     H 4963   7.709   5.186   1.120 -0.2672  0.0466  0.9855
  778MOL0     H 4964   7.840   5.099   1.312 -0.0426 -0.6009  1.7837
  778MOL0     H 4965   8.005   4.689   1.432  0.6770 -1.9422 -1.9165
  778MOL0     H 4966   7.871   4.619   1.338  1.8229 -1.0112 -2.0564
  778MOL0     H 4967   8.036   4.772   1.155  1.5754 -2.2729 -1.5564
  778MOL0     H 4968   8.141   4.719   1.290  0.5540  1.3898  0.8450
  778MOL0     H 4969   8.047   4.479   1.252  2.6705  2.6536  2.1552
  778MOL0     H 4970   7.955   4.559   1.106  1.5825 -1.5353 -2.6262
  778MOL0     H 4971   8.150   4.423   1.052  3.1196 -2.7635  2.3017
  778MOL0     H 4972   8.190   4.593   1.019 -0.4890 -0.5694 -1.3125
  778MOL0     H 4973   8.312   4.586   1.255  0.0214  0.1975  0.7977
  778MOL0     H 4974   8.271   4.420   1.260 -3.4187  1.2703  0.4408
  778MOL0     H 4975   8.493   4.434   1.198  1.8718  1.0836 -1.4385
  778MOL0     H 4976   8.405   4.364   1.059  1.4059 -0.3778 -0.9164
  778MOL0     H 4977   8.400   4.603   0.963 -0.1662 -0.9595 -0.9344
  778MOL0     H 4978   8.489   4.654   1.105 -0.0641 -0.1686 -0.0179
  778MOL0     H 4979   8.613   4.586   0.863  1.9002 -0.9715 -0.9511
  778MOL0     H 4980   8.600   4.426   0.918  2.8437  1.4920 -4.5501
  778MOL0     H 4981   8.681   4.689   1.191  0.6763  0.5406 -2.3463
  778MOL0     H 4982   8.857   4.676   1.379 -0.0307 -1.2767 -0.1504
  778MOL0     H 4983   8.956   4.523   1.388  2.6730 -0.0179 -1.3342
  778MOL0     H 4984   9.026   4.732   1.187 -3.7818 -0.3218  0.2090
  778MOL0     H 4985   9.146   4.629   1.279  2.5002  2.8262  2.6004
  778MOL0     H 4986   9.116   4.743   1.483 -0.5803  0.6398  0.2590
  778MOL0     H 4987   8.999   4.853   1.401 -0.5323 -1.4657 -2.1635
  778MOL0     H 4988   9.171   4.933   1.244  0.6516 -0.3372 -2.3221
  778MOL0     H 4989   9.272   4.803   1.299 -0.3217  0.7665 -0.3648
  778MOL0     H 4990   9.274   5.075   1.165  0.5707  1.8981 -1.1742
  778MOL0     H 4991   9.455   5.254   1.024 -0.5248 -2.1383  0.1929
  778MOL0     H 4992   9.272   5.266   1.027 -1.1144  2.5593  2.8231
  778MOL0     H 4993   9.352   5.398   1.076 -2.9801 -0.0040 -0.8595
  778MOL0     H 4994   9.416   5.725   1.340 -0.3940  3.4877  2.0699
  778MOL0     H 4995   9.526   5.950   1.249 -0.7518 -0.4354  0.7745
  778MOL0     H 4996   9.943   6.111   1.177  1.1270 -0.1250  0.7009
  778MOL0     H 4997   9.964   5.966   1.279 -3.1513 -2.9767  0.6133
  778MOL0     H 4998  10.045   5.921   1.048  0.4486  3.1187  0.9345
  778MOL0     H 4999   9.896   5.820   1.062  1.4441 -0.6799 -2.0088
  778MOL0     H 5000   9.947   6.080   0.915  1.0238  0.5044  2.4508
  778MOL0     H 5001   9.790   6.069   1.000 -0.2630  1.8240 -1.5833
  778MOL0     H 5002   9.911   5.890   0.771 -0.1074 -1.3733  1.0466
  778MOL0     H 5003   9.786   5.831   0.860  3.8511 -1.9336 -0.4467
  778MOL0     H 5004   9.628   6.007   0.799 -1.0698 -2.5132 -0.6895
  778MOL0     H 5005   9.717   5.924   0.659  3.2505 -2.7554  1.0787
  778MOL0     H 5006   9.749   6.197   0.774 -2.1376 -3.1479  1.6667
  778MOL0     H 5007   9.877   6.115   0.672 -0.6719 -4.0400 -2.1867
  778MOL0     H 5008   9.587   6.204   0.601 -0.9835 -2.4015  0.5801
  778MOL0     H 5009   9.679   6.090   0.502  2.4086  0.3351 -0.0805
  778MOL0     H 5010   9.788   6.360   0.603  0.3138 -0.6614  0.1960
  778MOL0     H 5011   9.704   6.343   0.442  0.4953  0.8123  0.3992
  778MOL0     H 5012   9.909   5.800   1.362  0.7401 -1.2104 -1.2793
  778MOL0     H 5013   9.800   5.599   1.440 -0.1514  0.5538  1.0186
  778MOL0     H 5014   9.461   5.335   1.540  2.7026 -2.2778 -0.2684
  778MOL0     H 5015   9.339   5.118   1.582  1.7178  0.8158  0.4512
  778MOL0     H 5016   7.762   4.702   1.139 -1.2624  0.3195 -0.9230
  778MOL0     H 5017   7.637   4.789   0.984 -0.3457 -2.2204  2.1181
  778MOL0     H 5018   7.494   5.259   0.811  0.2439  0.2169  1.6973
  778MOL0     H 5019   7.321   5.371   0.664  0.0906 -0.1277 -1.6115
  778MOL0     H 5020   6.899   5.377   0.623  0.2397 -2.7740 -2.0740
  778MOL0     H 5021   6.941   5.301   0.779 -2.7915  2.5497  0.6543
  778MOL0     H 5022   7.067   5.565   0.676 -1.2150  2.2451  2.0912
  778MOL0     H 5023   7.117   5.468   0.817 -0.2860 -1.2793  0.8844
  778MOL0     H 5024   6.897   5.487   0.922  0.8919  2.8869  2.8856
  778MOL0     H 5025   6.854   5.588   0.778  2.5648  1.0801 -1.3597
  778MOL0     H 5026   7.035   5.737   0.836 -2.0145  0.5097 -0.0797
  778MOL0     H 5027   7.096   5.636   0.965  1.2853  1.2389  0.0206
  778MOL0     H 5028   6.750   5.808   1.159 -1.7489  1.2430 -2.3608
  778MOL0     H 5029   7.034   5.086   0.774  0.0470  0.4088  0.6688
  778MOL0     H 5030   7.203   4.955   0.921 -0.6285 -2.5949 -2.0988
  779MOL0     O 5031   1.173   7.253   4.949 -0.1547 -1.1497 -0.1825
  779MOL0     C 5032   1.087   7.294   5.026 -0.0876  0.6267  0.0044
  779MOL0     O 5033   1.081   7.424   5.068  0.2214 -0.4534 -0.6354
  779MOL0     C 5034   1.166   7.528   5.037  0.4588  0.2905 -0.9881
  779MOL0     C 5035   1.114   7.660   5.046 -0.3093 -0.4597  0.2994
  779MOL0     C 5036   1.192   7.772   5.010  0.9129  0.1291  0.1685
  779MOL0     C 5037   1.324   7.751   4.978 -0.5098  0.3421 -0.2078
  779MOL0     O 5038   1.398   7.862   4.951  0.8843  0.3938 -0.2581
  779MOL0     C 5039   1.508   7.868   5.036  0.3128  0.1456  0.3960
  779MOL0     C 5040   1.564   8.007   5.053 -0.4355  0.0793  0.3650
  779MOL0     C 5041   1.649   8.038   4.927 -0.5557 -0.0591  0.1409
  779MOL0     C 5042   1.754   7.933   4.882 -1.2295  0.5510 -0.0813
  779MOL0     C 5043   1.811   7.988   4.748  0.6966  0.3587 -0.4195
  779MOL0     C 5044   1.904   7.880   4.690  0.0636 -1.0475  0.1460
  779MOL0     C 5045   2.035   7.864   4.768  1.8057  0.6138  0.4115
  779MOL0     C 5046   2.153   7.826   4.679 -0.4340  0.7784 -0.5106
  779MOL0     N 5047   2.230   7.916   4.592  0.6526 -0.2967 -0.2619
  779MOL0     C 5048   2.197   7.944   4.467 -0.7650  0.2321  0.2090
  779MOL0     C 5049   2.295   8.031   4.423  0.3860  1.3153  0.9359
  779MOL0     C 5050   2.307   8.098   4.284 -0.1091 -0.1966  0.7018
  779MOL0     C 5051   2.441   8.056   4.212  1.0141 -0.2611 -0.1820
  779MOL0     C 5052   2.569   8.101   4.287  1.2896  0.2658  0.7957
  779MOL0     C 5053   2.687   8.068   4.185  0.2788  0.8727 -0.8124
  779MOL0     O 5054   2.652   8.005   4.058  0.0537  0.3307  0.2183
  779MOL0     C 5055   2.756   7.993   3.969  0.3487  0.5368  0.5067
  779MOL0     C 5056   2.719   7.944   3.839 -0.1529 -0.5204 -0.4454
  779MOL0     C 5057   2.807   7.935   3.732 -0.3586  0.1924 -0.4661
  779MOL0     C 5058   2.753   7.878   3.604  0.3817  0.5246 -1.1459
  779MOL0     C 5059   2.939   7.970   3.754  0.9561  0.3985  0.3592
  779MOL0     C 5060   3.036   7.950   3.650  0.0881 -0.1739  0.2914
  779MOL0     O 5061   3.066   7.832   3.600  0.2515 -0.7428 -0.3194
  779MOL0     C 5062   3.137   7.836   3.485 -0.1640 -0.4232  0.0455
  779MOL0     C 5063   3.089   7.886   3.362 -0.6806  1.1104 -0.6157
  779MOL0     C 5064   3.177   7.878   3.252  1.1484  0.0655 -0.7854
  779MOL0     C 5065   3.299   7.813   3.250  0.3125 -0.3679 -1.2733
  779MOL0     O 5066   3.378   7.793   3.147  0.7738  0.6748  0.3188
  779MOL0     C 5067   3.326   7.806   3.012 -0.6325  0.0269  0.2086
  779MOL0     C 5068   3.459   7.796   2.932  0.5559  0.1794 -0.1628
  779MOL0     C 5069   3.429   7.726   2.795  0.1615  0.2380  0.1403
  779MOL0     C 5070   3.426   7.571   2.786 -1.1599 -0.0813  0.0903
  779MOL0     C 5071   3.290   7.508   2.760  0.7994 -0.8113 -0.3333
  779MOL0     C 5072   3.294   7.359   2.721  0.2940  0.2570  0.0246
  779MOL0     C 5073   3.153   7.307   2.682 -0.2745  0.7289 -0.3559
  779MOL0     C 5074   3.159   7.172   2.602  0.1630 -0.4252  0.4487
  779MOL0    Cl 5075   3.185   7.213   2.427  0.1392 -0.3239  0.4408
  779MOL0     C 5076   3.342   7.779   3.379  0.1966 -0.3806  0.1652
  779MOL0     C 5077   3.267   7.792   3.496 -0.7021 -0.1421  0.3930
  779MOL0     O 5078   3.099   8.057   3.629 -0.2961  0.0133 -0.5508
  779MOL0     C 5079   2.977   8.013   3.877 -1.0487  0.4291  0.3133
  779MOL0     C 5080   2.893   8.030   3.985 -0.0269 -0.4463 -0.0770
  779MOL0     N 5081   2.372   8.066   4.530 -1.0201 -0.5226  0.3029
  779MOL0     N 5082   2.342   7.992   4.627 -0.1041  0.0307 -0.6684
  779MOL0     C 5083   1.377   7.620   4.995  0.6520 -0.0484 -0.0590
  779MOL0     C 5084   1.298   7.510   4.999 -0.2244 -0.2803 -0.0544
  779MOL0     C 5085   0.993   7.192   5.072  0.6431  0.7941  0.2516
  779MOL0     C 5086   1.021   7.052   5.045  0.3955 -0.1344 -0.1013
  779MOL0     C 5087   0.933   6.946   5.097 -0.1538 -0.6228 -0.3275
  779MOL0     C 5088   0.814   6.984   5.156 -0.0452 -0.3859  0.4842
  779MOL0     O 5089   0.715   6.894   5.180 -0.2161  0.3517 -0.7462
  779MOL0     C 5090   0.747   6.751   5.198 -0.4809  0.5316 -0.8071
  779MOL0     C 5091   0.810   6.732   5.335 -0.2347 -1.0007  0.8107
  779MOL0     C 5092   0.816   6.573   5.356 -0.9181  0.0436 -0.0304
  779MOL0     C 5093   0.888   6.483   5.254  0.1677 -0.5681 -0.8936
  779MOL0     C 5094   1.027   6.455   5.284 -1.3354 -0.4959 -0.4301
  779MOL0     C 5095   1.150   6.461   5.286  1.0016  0.7249 -0.6364
  779MOL0     C 5096   0.792   7.112   5.198 -0.1574  0.0827  0.2328
  779MOL0     C 5097   0.874   7.211   5.151 -0.5041  0.7816  0.4494
  779MOL0     H 5098   1.012   7.671   5.084  0.1585  1.9176  1.0114
  779MOL0     H 5099   1.138   7.866   5.010 -2.5666 -1.6483 -2.2180
  779MOL0     H 5100   1.495   7.826   5.136  2.2424  1.1495  1.1134
  779MOL0     H 5101   1.584   7.798   4.999 -0.3615 -0.4088  0.0348
  779MOL0     H 5102   1.486   8.079   5.081 -0.4272  0.2823 -0.1140
  779MOL0     H 5103   1.631   8.010   5.139 -1.4980  1.1838  1.1938
  779MOL0     H 5104   1.578   8.042   4.844 -0.2420 -2.4100 -0.3327
  779MOL0     H 5105   1.688   8.139   4.928  1.7850 -0.9084 -0.3341
  779MOL0     H 5106   1.843   7.928   4.946 -0.6348  3.6298 -0.5405
  779MOL0     H 5107   1.721   7.830   4.863  1.9374 -0.0859 -3.2977
  779MOL0     H 5108   1.732   8.029   4.684 -0.5770 -0.6496  0.4408
  779MOL0     H 5109   1.881   8.069   4.771  3.7997 -1.7863 -1.6333
  779MOL0     H 5110   1.847   7.788   4.678  0.7495 -1.7848  2.0598
  779MOL0     H 5111   1.926   7.910   4.587  0.2031  3.1462  1.1916
  779MOL0     H 5112   2.062   7.956   4.821 -2.8392  3.5263 -1.6390
  779MOL0     H 5113   2.006   7.787   4.840 -1.7532  0.0023 -1.4153
  779MOL0     H 5114   2.129   7.740   4.616  1.8180 -0.4938  0.2840
  779MOL0     H 5115   2.227   7.785   4.749 -2.0064  0.2202  0.9044
  779MOL0     H 5116   2.108   7.901   4.422 -2.1548  4.4117 -1.6025
  779MOL0     H 5117   2.228   8.070   4.213  0.8204 -1.9448  0.2712
  779MOL0     H 5118   2.301   8.206   4.293 -1.7015  0.0295 -1.9155
  779MOL0     H 5119   2.438   8.096   4.110  0.3496  2.8643  0.9553
  779MOL0     H 5120   2.453   7.947   4.211  3.1909 -0.0687 -0.2565
  779MOL0     H 5121   2.579   8.038   4.376 -0.5526 -0.2195  0.6941
  779MOL0     H 5122   2.557   8.206   4.314 -5.4665  1.5054 -4.3597
  779MOL0     H 5123   2.768   8.009   4.228 -1.7721 -2.4084 -1.1120
  779MOL0     H 5124   2.726   8.170   4.171  0.2494  0.8939 -0.7347
  779MOL0     H 5125   2.613   7.925   3.826 -0.2592  0.6157 -1.3712
  779MOL0     H 5126   2.685   7.795   3.626  2.5262 -1.2080 -0.6690
  779MOL0     H 5127   2.703   7.960   3.552  3.4028  1.8910 -2.1449
  779MOL0     H 5128   2.840   7.849   3.545  1.0222  2.7095 -1.3354
  779MOL0     H 5129   2.997   7.941   3.347 -2.7035 -1.7440  0.6692
  779MOL0     H 5130   3.145   7.915   3.155 -1.0229  2.8012  0.8220
  779MOL0     H 5131   3.263   7.725   2.975 -0.2505  0.1093 -0.6360
  779MOL0     H 5132   3.286   7.906   2.995 -1.7962  0.0757  2.7860
  779MOL0     H 5133   3.498   7.896   2.914 -1.5525  0.5697 -3.6654
  779MOL0     H 5134   3.535   7.745   2.991  1.0337  1.4639  0.3489
  779MOL0     H 5135   3.516   7.768   2.744 -0.4912  0.8589 -0.4680
  779MOL0     H 5136   3.341   7.763   2.741 -0.0376 -0.1718  0.1804
  779MOL0     H 5137   3.486   7.538   2.701  0.9071 -0.1926  1.5188
  779MOL0     H 5138   3.478   7.530   2.873  0.0927  0.0693 -0.5690
  779MOL0     H 5139   3.231   7.561   2.685 -2.0784  0.1345  2.3801
  779MOL0     H 5140   3.234   7.521   2.853  0.5609  0.2568 -0.6161
  779MOL0     H 5141   3.358   7.348   2.633  0.5177 -1.1010  0.3316
  779MOL0     H 5142   3.330   7.292   2.799 -0.1876  0.3582  0.3336
  779MOL0     H 5143   3.094   7.379   2.625 -0.6564  0.2652 -0.5543
  779MOL0     H 5144   3.102   7.276   2.774  0.8648  4.3037  1.6618
  779MOL0     H 5145   3.066   7.116   2.611  0.2360 -0.4754  0.8806
  779MOL0     H 5146   3.232   7.104   2.645  0.7201  0.1098  0.3714
  779MOL0     H 5147   3.442   7.738   3.381 -1.1834 -4.0706  1.6103
  779MOL0     H 5148   3.300   7.780   3.598  1.0623  1.1352  0.0145
  779MOL0     H 5149   3.077   8.047   3.901 -0.4074 -0.8768 -0.4273
  779MOL0     H 5150   2.929   8.082   4.072  0.3459  0.6640 -0.8708
  779MOL0     H 5151   1.483   7.600   4.983 -0.1147 -6.3262  0.1475
  779MOL0     H 5152   1.343   7.410   5.002 -1.5470 -0.8848  0.1920
  779MOL0     H 5153   1.103   7.010   4.987 -2.2275 -5.5081 -0.5775
  779MOL0     H 5154   0.951   6.842   5.073  1.7138 -0.9939  2.2686
  779MOL0     H 5155   0.659   6.693   5.171 -0.1700 -0.1803 -0.3154
  779MOL0     H 5156   0.818   6.712   5.125  0.6214  2.8350 -1.0736
  779MOL0     H 5157   0.756   6.774   5.420  1.1994 -1.0532  1.7791
  779MOL0     H 5158   0.902   6.791   5.340  1.3722 -3.0670 -1.4973
  779MOL0     H 5159   0.716   6.529   5.350 -0.4691 -0.9416 -0.3990
  779MOL0     H 5160   0.851   6.558   5.458  3.8691  1.3410 -1.2383
  779MOL0     H 5161   0.885   6.514   5.149 -1.1114  2.0849 -0.1508
  779MOL0     H 5162   0.836   6.387   5.261 -1.7661  0.3985 -1.3790
  779MOL0     H 5163   1.254   6.445   5.302  0.4936 -0.5481  1.8159
  779MOL0     H 5164   0.699   7.149   5.239 -0.3836  0.7015 -0.7939
  779MOL0     H 5165   0.856   7.314   5.181  2.3468  1.3868  0.3405
  780MOL0     O 5166   0.048  10.759   8.509 -0.0362  1.3236  0.8449
  780MOL0     C 5167  -0.063  10.720   8.471 -1.3359  0.0202 -0.9834
  780MOL0     O 5168  -0.098  10.600   8.421  0.5856 -0.5445 -0.6692
  780MOL0     C 5169   0.004  10.505   8.427  0.6750  0.1471  0.7394
  780MOL0     C 5170   0.114  10.518   8.347  0.6311 -0.5077  0.2771
  780MOL0     C 5171   0.230  10.439   8.364 -0.0428 -0.6164  0.4956
  780MOL0     C 5172   0.232  10.339   8.459  1.0166  0.0439 -0.2931
  780MOL0     O 5173   0.334  10.252   8.476  0.3866  0.3157  0.3668
  780MOL0     C 5174   0.384  10.223   8.609  0.0710 -0.2954  0.3291
  780MOL0     C 5175   0.534  10.178   8.601  0.4889 -0.8627 -0.2955
  780MOL0     C 5176   0.637  10.294   8.621  0.3852  0.9442 -0.4962
  780MOL0     C 5177   0.784  10.249   8.622 -1.7881 -0.1343  0.4916
  780MOL0     C 5178   0.884  10.371   8.626 -0.2001  0.6828 -0.6049
  780MOL0     C 5179   1.026  10.320   8.653  0.9996  0.2964 -0.3779
  780MOL0     C 5180   1.127  10.436   8.681  0.1079 -0.1190  0.2190
  780MOL0     C 5181   1.087  10.526   8.793  0.5888 -0.4329  0.0015
  780MOL0     N 5182   1.198  10.607   8.853 -0.0375  0.1217 -0.1891
  780MOL0     C 5183   1.271  10.696   8.776  0.3662 -0.5645  0.4372
  780MOL0     C 5184   1.392  10.695   8.826 -1.0248  0.7754  0.3725
  780MOL0     C 5185   1.517  10.775   8.780  0.5200  0.3754 -0.3704
  780MOL0     C 5186   1.610  10.702   8.686  0.4124 -0.2860 -0.3558
  780MOL0     C 5187   1.700  10.595   8.751  0.0414  0.2516 -0.5760
  780MOL0     C 5188   1.774  10.526   8.635  0.3477  0.8631  0.8171
  780MOL0     O 5189   1.840  10.411   8.684 -0.3800  0.4548 -0.0508
  780MOL0     C 5190   1.790  10.284   8.638  0.7290  0.0790 -0.0404
  780MOL0     C 5191   1.876  10.185   8.590  0.0354  0.0532  0.4521
  780MOL0     C 5192   1.830  10.071   8.525  0.0404 -0.5333 -0.8407
  780MOL0     C 5193   1.924   9.965   8.474  0.3586 -0.6601  0.3670
  780MOL0     C 5194   1.692  10.049   8.520  0.0144  0.3547 -0.2388
  780MOL0     C 5195   1.620   9.944   8.443  0.7508 -0.0935 -0.3090
  780MOL0     O 5196   1.505   9.907   8.500 -0.3578  0.1189 -0.9431
  780MOL0     C 5197   1.419   9.813   8.441 -1.0614 -0.9473  1.0591
  780MOL0     C 5198   1.448   9.676   8.429  0.4867  0.5935 -0.5013
  780MOL0     C 5199   1.357   9.587   8.370  0.3930  0.8146 -0.2009
  780MOL0     C 5200   1.238   9.637   8.327  0.2723  1.1612 -0.2536
  780MOL0     O 5201   1.141   9.559   8.266  0.3112  0.4180  0.1873
  780MOL0     C 5202   1.086   9.462   8.362 -0.3823 -0.0114  0.4228
  780MOL0     C 5203   0.949   9.420   8.309 -0.1815 -0.5320 -0.1710
  780MOL0     C 5204   0.893   9.297   8.375  0.3852  0.2366 -0.1205
  780MOL0     C 5205   0.860   9.332   8.521  0.4099  0.6406  0.5373
  780MOL0     C 5206   0.746   9.239   8.568 -0.2100 -1.0951  0.9395
  780MOL0     C 5207   0.708   9.276   8.703 -0.2522  0.4679  0.3863
  780MOL0     C 5208   0.582   9.215   8.746  0.1702  0.7003 -0.2677
  780MOL0     C 5209   0.515   9.325   8.814  0.6187  0.4548 -0.7209
  780MOL0    Cl 5210   0.609   9.351   8.966  0.2094  0.0979  0.3373
  780MOL0     C 5211   1.213   9.769   8.332  0.6217 -0.4119  0.8814
  780MOL0     C 5212   1.299   9.859   8.396 -0.2979 -0.3559  0.5947
  780MOL0     O 5213   1.660   9.916   8.334 -0.2607  0.0875  0.0755
  780MOL0     C 5214   1.612  10.133   8.583 -0.1567 -0.2864  0.3224
  780MOL0     C 5215   1.653  10.254   8.632  0.5909  0.6938  0.4458
  780MOL0     N 5216   1.399  10.603   8.927 -0.1276 -0.6083 -0.2068
  780MOL0     N 5217   1.283  10.549   8.940 -0.4829 -0.0056  0.0870
  780MOL0     C 5218   0.115  10.324   8.544 -0.8431 -0.1798  1.9185
  780MOL0     C 5219  -0.004  10.389   8.515  0.6484 -0.5246 -0.5998
  780MOL0     C 5220  -0.177  10.808   8.495  0.4262 -0.0930  0.8587
  780MOL0     C 5221  -0.306  10.757   8.533  0.4721  0.2936  0.0466
  780MOL0     C 5222  -0.411  10.841   8.555 -0.0071  0.3118 -0.7245
  780MOL0     C 5223  -0.391  10.978   8.546 -0.0345 -0.1623  0.1151
  780MOL0     O 5224  -0.493  11.067   8.560  0.7527  0.3756 -0.4437
  780MOL0     C 5225  -0.502  11.127   8.691 -0.3436 -0.3860 -0.5998
  780MOL0     C 5226  -0.529  11.035   8.807  0.8313 -0.7139  1.1221
  780MOL0     C 5227  -0.673  10.988   8.814  0.4857 -0.1929 -0.2395
  780MOL0     C 5228  -0.710  10.878   8.922 -0.7652  0.1013  0.5742
  780MOL0     C 5229  -0.782  10.915   9.039  0.8022  0.5332 -0.3681
  780MOL0     C 5230  -0.841  10.937   9.137 -0.6479 -0.5319 -0.0164
  780MOL0     C 5231  -0.267  11.027   8.514  0.5005 -0.3122  0.0881
  780MOL0     C 5232  -0.157  10.939   8.492 -0.2602  0.4532 -0.4700
  780MOL0     H 5233   0.122  10.607   8.285 -2.1651 -0.7540 -0.5634
  780MOL0     H 5234   0.326  10.469   8.323 -0.4359  1.7929  1.2031
  780MOL0     H 5235   0.367  10.313   8.668 -3.1907 -0.3839 -0.3251
  780MOL0     H 5236   0.328  10.144   8.660 -2.8450  2.0100  0.9550
  780MOL0     H 5237   0.552  10.106   8.681 -0.0457 -1.5137 -0.7548
  780MOL0     H 5238   0.548  10.125   8.506  1.6776  2.2016 -1.9821
  780MOL0     H 5239   0.618  10.369   8.543 -0.1465  2.9850  1.5004
  780MOL0     H 5240   0.612  10.341   8.716  2.6384  1.7080 -0.2051
  780MOL0     H 5241   0.805  10.173   8.698 -0.5654 -0.2491  0.0747
  780MOL0     H 5242   0.805  10.187   8.534  2.2368  1.8026 -0.1447
  780MOL0     H 5243   0.893  10.424   8.531  0.3295 -2.6008 -2.5142
  780MOL0     H 5244   0.859  10.436   8.711 -0.8108 -1.8946  1.3027
  780MOL0     H 5245   1.028  10.268   8.749 -0.1753  2.4197  0.8692
  780MOL0     H 5246   1.053  10.242   8.581  2.9716  1.7305 -1.2835
  780MOL0     H 5247   1.231  10.402   8.681 -0.5283 -2.7755 -3.7743
  780MOL0     H 5248   1.140  10.494   8.589 -1.4837 -2.2860 -1.4980
  780MOL0     H 5249   1.051  10.472   8.880 -1.0767  1.4358  0.5380
  780MOL0     H 5250   1.006  10.594   8.763  1.0883  1.2741  2.2749
  780MOL0     H 5251   1.233  10.746   8.688 -2.3147 -3.5658 -0.2880
  780MOL0     H 5252   1.483  10.867   8.731  1.9429  0.7818 -0.6250
  780MOL0     H 5253   1.570  10.807   8.870  1.9657 -0.3579 -0.9327
  780MOL0     H 5254   1.658  10.784   8.631 -2.0609  1.0240 -0.7331
  780MOL0     H 5255   1.547  10.653   8.612  1.2366 -0.6107 -0.8491
  780MOL0     H 5256   1.641  10.531   8.817 -3.4419  2.8584 -0.9025
  780MOL0     H 5257   1.768  10.656   8.811  1.1635 -0.9093 -0.5973
  780MOL0     H 5258   1.847  10.592   8.587  3.0431 -1.9495  0.6896
  780MOL0     H 5259   1.710  10.488   8.555  1.2463 -0.0149  0.4993
  780MOL0     H 5260   1.982  10.210   8.591 -0.0310  0.3758  1.5079
  780MOL0     H 5261   2.020   9.973   8.526 -0.8183  0.9545  2.4703
  780MOL0     H 5262   1.890   9.861   8.483 -0.4446 -0.7971 -3.0663
  780MOL0     H 5263   1.927   9.981   8.366 -1.2928 -3.4560 -0.1981
  780MOL0     H 5264   1.534   9.625   8.471 -0.8295 -2.8541 -1.6425
  780MOL0     H 5265   1.391   9.484   8.365  0.1469  0.6301  1.5560
  780MOL0     H 5266   1.148   9.372   8.371  0.1390  0.4503  1.7452
  780MOL0     H 5267   1.078   9.504   8.463 -2.3210 -0.0318  0.3126
  780MOL0     H 5268   0.880   9.501   8.333 -0.4644 -1.0421  0.7810
  780MOL0     H 5269   0.952   9.403   8.201 -2.9956  1.1734 -0.6172
  780MOL0     H 5270   0.964   9.214   8.374  0.2498  0.1189 -0.1858
  780MOL0     H 5271   0.801   9.266   8.325  0.4896 -0.9080  0.3509
  780MOL0     H 5272   0.956   9.316   8.571 -0.3742  1.1257  2.2668
  780MOL0     H 5273   0.819   9.433   8.513 -1.2110 -0.1529 -4.3100
  780MOL0     H 5274   0.783   9.137   8.554 -0.0481 -0.8357 -0.7281
  780MOL0     H 5275   0.665   9.258   8.496  0.5020 -2.9871 -0.4585
  780MOL0     H 5276   0.787   9.246   8.772 -0.1869 -2.6950 -0.8827
  780MOL0     H 5277   0.710   9.385   8.712  1.3370  0.2978  3.0016
  780MOL0     H 5278   0.594   9.123   8.804  0.9270 -0.3900 -2.0606
  780MOL0     H 5279   0.527   9.180   8.658  2.0133 -0.9136 -0.8543
  780MOL0     H 5280   0.413   9.318   8.854  0.2294  0.7608 -1.6284
  780MOL0     H 5281   0.509   9.417   8.755 -2.7464  1.0357  0.3330
  780MOL0     H 5282   1.118   9.797   8.287  1.5529 -1.2339 -1.7657
  780MOL0     H 5283   1.264   9.962   8.405  4.1686  1.3642  0.9032
  780MOL0     H 5284   1.504  10.118   8.581 -0.2635  0.4557 -1.6116
  780MOL0     H 5285   1.575  10.318   8.672 -0.7105 -0.6576  0.1593
  780MOL0     H 5286   0.125  10.250   8.623  0.8166  0.5143  2.4119
  780MOL0     H 5287  -0.093  10.378   8.578  0.8468 -0.5649 -0.3247
  780MOL0     H 5288  -0.325  10.652   8.555  1.3216  0.5305  2.2072
  780MOL0     H 5289  -0.508  10.809   8.594  1.5600 -1.6544  1.9119
  780MOL0     H 5290  -0.410  11.183   8.711 -0.5061 -0.0544 -0.7751
  780MOL0     H 5291  -0.588  11.194   8.686 -3.4056 -3.6293  2.5946
  780MOL0     H 5292  -0.512  11.090   8.900  3.4302  1.0566 -0.2760
  780MOL0     H 5293  -0.456  10.955   8.799  0.4845 -0.9617  0.2588
  780MOL0     H 5294  -0.693  10.933   8.721 -0.3632 -1.7764  0.8315
  780MOL0     H 5295  -0.742  11.073   8.819  0.4861 -0.2685  1.4778
  780MOL0     H 5296  -0.615  10.833   8.954  0.3136  1.2158 -0.8796
  780MOL0     H 5297  -0.751  10.789   8.875  0.2292  0.5265 -1.2183
  780MOL0     H 5298  -0.889  10.961   9.229 -1.5543 -0.4168 -0.5075
  780MOL0     H 5299  -0.243  11.133   8.511 -2.2077  0.3613 -0.3016
  780MOL0     H 5300  -0.059  10.985   8.484 -0.7002  2.1934  2.4276
  781MOL0     O 5301   5.850   0.396   9.612 -0.2138 -0.2588  0.3688
  781MOL0     C 5302   5.871   0.465   9.505  0.0362  0.5872 -0.5991
  781MOL0     O 5303   5.960   0.437   9.407 -0.3852 -0.2295  0.7566
  781MOL0     C 5304   6.060   0.335   9.428  1.5291 -0.7487  0.0181
  781MOL0     C 5305   6.187   0.375   9.388 -0.0786  0.9146  0.0427
  781MOL0     C 5306   6.288   0.286   9.401 -0.0602  0.0629 -0.1494
  781MOL0     C 5307   6.264   0.142   9.444  0.8177 -0.5509  0.1517
  781MOL0     O 5308   6.360   0.047   9.448 -0.0539  0.6441 -0.5550
  781MOL0     C 5309   6.335  -0.059   9.542  0.2946  0.3765 -0.1006
  781MOL0     C 5310   6.470  -0.134   9.577  1.5024  0.2091  0.2411
  781MOL0     C 5311   6.542  -0.176   9.456  0.1387  0.9161 -0.4538
  781MOL0     C 5312   6.630  -0.302   9.501 -0.8438  0.0633  0.7293
  781MOL0     C 5313   6.736  -0.329   9.384 -0.2363  0.1416 -0.2239
  781MOL0     C 5314   6.677  -0.360   9.245  1.0365 -0.1807 -0.0117
  781MOL0     C 5315   6.779  -0.383   9.134  0.6247 -0.0933  0.1389
  781MOL0     C 5316   6.850  -0.515   9.135 -0.0347 -0.2292  0.4348
  781MOL0     N 5317   6.768  -0.640   9.096 -0.6014 -0.5758 -0.1323
  781MOL0     C 5318   6.719  -0.682   8.976 -1.0741  1.1457 -0.3554
  781MOL0     C 5319   6.654  -0.799   9.013  0.6331  0.8188  0.1094
  781MOL0     C 5320   6.579  -0.890   8.905 -0.2446  1.3716 -0.2518
  781MOL0     C 5321   6.621  -1.036   8.857 -0.3395 -0.7064 -0.0439
  781MOL0     C 5322   6.537  -1.085   8.744 -0.3387  0.1371  0.0069
  781MOL0     C 5323   6.561  -1.234   8.727  0.1712 -0.3190  0.0001
  781MOL0     O 5324   6.509  -1.271   8.605 -0.0545 -0.2788  0.0979
  781MOL0     C 5325   6.374  -1.263   8.573 -0.0684  0.0311  0.3488
  781MOL0     C 5326   6.276  -1.296   8.665 -0.9652  0.0271 -0.3652
  781MOL0     C 5327   6.135  -1.299   8.638 -0.5625 -0.6730  0.0951
  781MOL0     C 5328   6.051  -1.350   8.746 -0.5914  0.1698  0.3833
  781MOL0     C 5329   6.090  -1.258   8.512 -0.2894 -0.6930 -0.3557
  781MOL0     C 5330   5.942  -1.255   8.472  0.6485  0.5482  0.5310
  781MOL0     O 5331   5.913  -1.241   8.339  0.4531 -0.0060  0.1394
  781MOL0     C 5332   5.787  -1.269   8.297 -0.2420 -0.1681 -0.5052
  781MOL0     C 5333   5.721  -1.389   8.333 -0.2955  0.1282 -0.5069
  781MOL0     C 5334   5.594  -1.408   8.284  0.4666  0.0957  0.4626
  781MOL0     C 5335   5.536  -1.325   8.187  0.6743 -0.3358 -1.2970
  781MOL0     O 5336   5.409  -1.321   8.157 -0.2948 -0.2965  0.5208
  781MOL0     C 5337   5.317  -1.422   8.219  0.1524 -0.4976  0.2380
  781MOL0     C 5338   5.325  -1.560   8.168  0.4582 -0.0522  0.5945
  781MOL0     C 5339   5.246  -1.667   8.252 -0.3089 -0.0584 -0.0655
  781MOL0     C 5340   5.096  -1.674   8.205 -0.4281 -0.1691  0.5144
  781MOL0     C 5341   5.005  -1.760   8.295 -0.0503  0.6036  0.3979
  781MOL0     C 5342   5.036  -1.913   8.280 -0.2476 -1.0206 -0.4508
  781MOL0     C 5343   4.916  -1.986   8.338 -0.2143  0.8410  0.0164
  781MOL0     C 5344   4.875  -1.946   8.485 -0.7572  0.7633 -0.2334
  781MOL0    Cl 5345   4.769  -2.071   8.556 -0.0050 -0.0538 -0.2662
  781MOL0     C 5346   5.606  -1.214   8.142  0.5691  0.7274 -0.9444
  781MOL0     C 5347   5.731  -1.192   8.194 -0.5170 -0.0297 -0.4735
  781MOL0     O 5348   5.860  -1.252   8.567 -0.5602  0.4742  0.2964
  781MOL0     C 5349   6.193  -1.217   8.420  0.3619  0.3023 -0.0781
  781MOL0     C 5350   6.327  -1.228   8.444 -0.6086  0.1823  0.1752
  781MOL0     N 5351   6.659  -0.830   9.153 -0.1863 -0.4423 -0.3480
  781MOL0     N 5352   6.728  -0.729   9.194 -0.0449 -1.0795 -0.2976
  781MOL0     C 5353   6.129   0.107   9.457 -0.0194 -0.4121  0.7854
  781MOL0     C 5354   6.028   0.204   9.457 -0.3964 -0.6422  0.1773
  781MOL0     C 5355   5.776   0.580   9.478 -0.4245 -0.2588  0.4311
  781MOL0     C 5356   5.777   0.668   9.367  0.1486  0.2288 -0.3600
  781MOL0     C 5357   5.685   0.772   9.353 -0.3989 -0.5289  0.4543
  781MOL0     C 5358   5.609   0.806   9.467  0.2412 -0.8546  1.0461
  781MOL0     O 5359   5.517   0.909   9.465 -0.9351  0.6473 -0.1542
  781MOL0     C 5360   5.406   0.903   9.384 -0.4122  0.4132  0.1168
  781MOL0     C 5361   5.291   1.006   9.419  0.2153 -1.2173  0.7317
  781MOL0     C 5362   5.334   1.140   9.355  1.4454 -0.1529 -0.4435
  781MOL0     C 5363   5.207   1.231   9.357 -0.3408 -0.0126 -0.1199
  781MOL0     C 5364   5.246   1.368   9.371  0.0925  0.2358  0.8273
  781MOL0     C 5365   5.287   1.481   9.385  0.9532  0.1075  0.4080
  781MOL0     C 5366   5.604   0.727   9.576 -0.2433 -0.3657 -0.2952
  781MOL0     C 5367   5.683   0.614   9.579 -0.7868 -0.3720 -0.0939
  781MOL0     H 5368   6.205   0.470   9.340  2.6006  0.7588  0.5926
  781MOL0     H 5369   6.386   0.305   9.359  0.3925 -0.2937  0.7192
  781MOL0     H 5370   6.272  -0.032   9.627 -0.6922  1.7153 -1.2154
  781MOL0     H 5371   6.281  -0.131   9.480  0.1685  0.6009 -0.2541
  781MOL0     H 5372   6.536  -0.083   9.648  0.2737  1.9859  0.1950
  781MOL0     H 5373   6.433  -0.222   9.630 -2.2876  0.3816 -1.7567
  781MOL0     H 5374   6.469  -0.205   9.380 -0.9789  0.0670  0.8816
  781MOL0     H 5375   6.609  -0.100   9.416  1.3912  0.1974  0.2044
  781MOL0     H 5376   6.682  -0.277   9.594  1.7474  2.8428 -1.2677
  781MOL0     H 5377   6.569  -0.388   9.528 -1.3745  0.1121 -0.2860
  781MOL0     H 5378   6.792  -0.235   9.378  0.2036  0.0001  1.3161
  781MOL0     H 5379   6.791  -0.419   9.411 -0.8346  0.1216  1.0205
  781MOL0     H 5380   6.613  -0.448   9.244  2.9011 -1.7136  2.4987
  781MOL0     H 5381   6.618  -0.279   9.202  1.6658 -1.1266 -2.8080
  781MOL0     H 5382   6.726  -0.371   9.039  1.1067 -0.5136 -0.1941
  781MOL0     H 5383   6.846  -0.296   9.135  0.6662 -0.0922 -1.2154
  781MOL0     H 5384   6.888  -0.528   9.237 -0.4515 -0.2244  0.5931
  781MOL0     H 5385   6.929  -0.504   9.061 -0.2545  1.2499  0.4038
  781MOL0     H 5386   6.723  -0.633   8.879  1.7384  0.0598 -0.8888
  781MOL0     H 5387   6.474  -0.891   8.936  0.3795 -0.6106  2.1276
  781MOL0     H 5388   6.593  -0.839   8.809  0.7203 -1.6746 -1.8458
  781MOL0     H 5389   6.621  -1.106   8.941  2.5753  0.7770  1.3792
  781MOL0     H 5390   6.724  -1.027   8.821 -1.2390 -1.8318 -3.1893
  781MOL0     H 5391   6.562  -1.040   8.648 -0.9779 -0.2493 -0.3467
  781MOL0     H 5392   6.432  -1.068   8.769 -0.1178  2.3486 -0.4121
  781MOL0     H 5393   6.528  -1.282   8.820 -1.6306  2.3388  0.8428
  781MOL0     H 5394   6.669  -1.255   8.730  0.1032 -0.6335  1.9423
  781MOL0     H 5395   6.304  -1.327   8.765  1.5854 -0.4926 -1.1618
  781MOL0     H 5396   6.118  -1.403   8.816  1.9584 -1.3069 -2.9048
  781MOL0     H 5397   6.001  -1.262   8.787 -0.0181  1.5902 -1.8338
  781MOL0     H 5398   5.977  -1.428   8.728 -0.0393 -0.2817  0.0182
  781MOL0     H 5399   5.759  -1.455   8.411 -0.5938 -0.8856 -1.1878
  781MOL0     H 5400   5.532  -1.488   8.323 -3.0650  2.1823 -0.4130
  781MOL0     H 5401   5.327  -1.435   8.327  0.5327 -3.4592 -0.0732
  781MOL0     H 5402   5.220  -1.374   8.207  1.4165  1.8557 -1.6839
  781MOL0     H 5403   5.287  -1.565   8.066  0.9287 -1.8296  0.4711
  781MOL0     H 5404   5.430  -1.592   8.165  0.1799 -1.3494  2.7690
  781MOL0     H 5405   5.264  -1.645   8.357  0.1035  1.7361 -0.4661
  781MOL0     H 5406   5.287  -1.768   8.242 -0.2922 -0.2218  1.4990
  781MOL0     H 5407   5.046  -1.576   8.203 -1.6049 -0.7595 -0.1671
  781MOL0     H 5408   5.100  -1.718   8.105  4.6533 -1.5091  1.0024
  781MOL0     H 5409   4.904  -1.720   8.279 -2.0329 -3.9679 -0.1818
  781MOL0     H 5410   5.027  -1.735   8.399 -1.5437 -1.2207  1.2112
  781MOL0     H 5411   5.062  -1.946   8.179  2.0523  1.0559 -0.6303
  781MOL0     H 5412   5.121  -1.931   8.347 -0.4696  2.0568  0.8351
  781MOL0     H 5413   4.944  -2.091   8.337 -1.5882  0.4531  0.2456
  781MOL0     H 5414   4.830  -1.965   8.274  0.0567  1.2969 -0.2077
  781MOL0     H 5415   4.817  -1.853   8.488 -0.2563  1.0572  0.8334
  781MOL0     H 5416   4.970  -1.927   8.537 -0.2300  0.6651 -1.1263
  781MOL0     H 5417   5.556  -1.141   8.080 -0.4329  2.1363  1.3855
  781MOL0     H 5418   5.777  -1.105   8.149 -1.7113 -0.0043 -1.7231
  781MOL0     H 5419   6.168  -1.172   8.324  0.5660 -0.4836 -0.5121
  781MOL0     H 5420   6.390  -1.201   8.359 -0.9799  3.1585  0.7414
  781MOL0     H 5421   6.100   0.005   9.479  2.5280 -1.9776 -2.4063
  781MOL0     H 5422   5.926   0.186   9.488 -0.2075  0.2633  1.4040
  781MOL0     H 5423   5.855   0.654   9.292 -2.3859 -3.8059 -2.6222
  781MOL0     H 5424   5.684   0.836   9.265  1.7758 -0.0305  0.7274
  781MOL0     H 5425   5.437   0.909   9.280  0.2731 -2.5289  0.0871
  781MOL0     H 5426   5.354   0.810   9.406 -0.3619  0.0712 -1.1305
  781MOL0     H 5427   5.280   1.029   9.526  4.8238  2.8690  0.6722
  781MOL0     H 5428   5.200   0.969   9.372 -0.3507 -0.7291  1.4188
  781MOL0     H 5429   5.365   1.120   9.252  0.4786  2.9700 -1.4413
  781MOL0     H 5430   5.415   1.188   9.411 -1.3832  0.7354  3.2459
  781MOL0     H 5431   5.146   1.198   9.441  0.8156 -1.9563  0.0070
  781MOL0     H 5432   5.142   1.226   9.269 -1.9288 -1.0936  1.0660
  781MOL0     H 5433   5.318   1.584   9.387  1.1660  0.0594  2.6039
  781MOL0     H 5434   5.529   0.753   9.650  1.0090  0.3344  0.7801
  781MOL0     H 5435   5.683   0.544   9.662  1.5740  0.3290  0.5856
  782MOL0     O 5436   9.836   7.859   0.168  0.3294 -0.0408  0.0721
  782MOL0     C 5437   9.929   7.883   0.091 -0.0270 -0.2237  0.8874
  782MOL0     O 5438  10.062   7.857   0.093 -1.0638 -0.0637 -0.8283
  782MOL0     C 5439  10.092   7.761   0.185  0.1891 -0.6951 -0.7029
  782MOL0     C 5440  10.165   7.792   0.297 -0.4966 -0.0496 -0.3847
  782MOL0     C 5441  10.180   7.694   0.390  0.9042 -0.3033  0.1064
  782MOL0     C 5442  10.136   7.560   0.370 -0.4550 -0.0134 -0.3559
  782MOL0     O 5443  10.171   7.489   0.490  0.1270 -0.5776 -0.3393
  782MOL0     C 5444  10.130   7.358   0.495  0.0495  0.2269  0.2752
  782MOL0     C 5445   9.995   7.351   0.561  1.8310  0.1560 -0.2511
  782MOL0     C 5446   9.976   7.406   0.706 -0.4563  0.6690 -0.2439
  782MOL0     C 5447  10.033   7.319   0.815 -0.7201  0.4404  0.1557
  782MOL0     C 5448  10.178   7.355   0.844 -0.7697  1.8160 -0.4815
  782MOL0     C 5449  10.204   7.502   0.883 -0.1622  0.5582  0.5147
  782MOL0     C 5450  10.321   7.511   0.982 -0.3567 -0.5478 -0.1002
  782MOL0     C 5451  10.347   7.661   1.032  0.3858 -0.0050  0.3913
  782MOL0     N 5452  10.405   7.746   0.935  0.0838 -0.2778  0.0916
  782MOL0     C 5453  10.520   7.814   0.960  0.1113  0.2942 -0.6386
  782MOL0     C 5454  10.550   7.879   0.847  0.6495  0.0717 -0.7253
  782MOL0     C 5455  10.671   7.953   0.825  0.5353 -0.1719  1.0453
  782MOL0     C 5456  10.748   7.999   0.952  0.6798 -0.3215  0.2283
  782MOL0     C 5457  10.851   8.110   0.924 -0.2702  0.1877 -0.7542
  782MOL0     C 5458  10.791   8.245   0.911 -0.1933 -1.3294  0.7508
  782MOL0     O 5459  10.716   8.292   1.017  0.4372 -0.1552 -0.6389
  782MOL0     C 5460  10.762   8.311   1.146 -0.5365  0.2965  0.6418
  782MOL0     C 5461  10.665   8.319   1.254 -0.0419 -0.2822  0.0148
  782MOL0     C 5462  10.698   8.329   1.388  0.4778 -0.3389 -0.5245
  782MOL0     C 5463  10.579   8.362   1.483  0.0932 -0.6581  1.1184
  782MOL0     C 5464  10.838   8.339   1.427 -0.7471  0.1921  0.0326
  782MOL0     C 5465  10.885   8.365   1.567  0.2647  0.4487 -0.0449
  782MOL0     O 5466  10.794   8.334   1.667  0.4971 -0.3317  0.0785
  782MOL0     C 5467  10.806   8.371   1.798  0.3816  0.3858  0.7217
  782MOL0     C 5468  10.754   8.272   1.883 -0.1649  0.8236 -0.9495
  782MOL0     C 5469  10.734   8.306   2.018  0.2409  0.7252  0.2047
  782MOL0     C 5470  10.759   8.437   2.066  0.2873 -0.0750  0.3197
  782MOL0     O 5471  10.749   8.449   2.201  0.4514 -0.0763 -0.0361
  782MOL0     C 5472  10.729   8.568   2.265 -0.1479 -0.8432  1.5787
  782MOL0     C 5473  10.859   8.605   2.359  0.3036  1.2906 -1.1375
  782MOL0     C 5474  10.840   8.750   2.427 -0.0663  0.1900  0.4648
  782MOL0     C 5475  10.747   8.743   2.550  0.3206  0.2517  1.3114
  782MOL0     C 5476  10.820   8.748   2.684 -0.4930 -0.3872 -0.1960
  782MOL0     C 5477  10.732   8.725   2.801  0.1016  0.1438  0.2939
  782MOL0     C 5478  10.815   8.743   2.933  0.0367 -0.0169 -0.4898
  782MOL0     C 5479  10.752   8.736   3.059 -0.2852  0.2952 -0.6622
  782MOL0    Cl 5480  10.653   8.887   3.077 -0.0645  0.0117  0.0533
  782MOL0     C 5481  10.821   8.529   1.989  0.5753 -1.1879  1.3340
  782MOL0     C 5482  10.846   8.496   1.852 -0.9785 -0.1461 -0.2256
  782MOL0     O 5483  11.000   8.398   1.584  0.2081 -0.0996 -0.0886
  782MOL0     C 5484  10.925   8.352   1.321 -0.4534 -0.1004 -0.1859
  782MOL0     C 5485  10.894   8.334   1.188 -0.8458  0.4578  0.2347
  782MOL0     N 5486  10.460   7.846   0.751 -0.5043  0.1430  0.6787
  782MOL0     N 5487  10.369   7.767   0.805  0.1131  0.5738 -1.0487
  782MOL0     C 5488  10.064   7.525   0.255  0.3824  0.0687 -0.3137
  782MOL0     C 5489  10.041   7.633   0.163 -1.1271  0.5524 -0.2392
  782MOL0     C 5490   9.882   7.971  -0.026 -0.9126  0.3576  0.0904
  782MOL0     C 5491   9.963   8.069  -0.075  1.0284 -0.6180  0.6795
  782MOL0     C 5492   9.921   8.158  -0.175 -0.0654  1.0596 -0.8327
  782MOL0     C 5493   9.787   8.143  -0.225  0.8772 -0.1446  0.0066
  782MOL0     O 5494   9.753   8.217  -0.327 -0.1418 -0.7307 -0.2017
  782MOL0     C 5495   9.628   8.285  -0.312  0.7739 -0.9487  0.1076
  782MOL0     C 5496   9.641   8.417  -0.219  0.5262  0.7810 -0.0518
  782MOL0     C 5497   9.740   8.517  -0.270  0.5775  0.6262 -1.3179
  782MOL0     C 5498   9.783   8.616  -0.165 -0.2845  0.1278 -1.3029
  782MOL0     C 5499   9.680   8.717  -0.132 -1.0175 -1.2259 -1.2099
  782MOL0     C 5500   9.582   8.793  -0.096  1.0545 -0.0520  0.4057
  782MOL0     C 5501   9.713   8.034  -0.184  0.5379  0.1682  0.5966
  782MOL0     C 5502   9.752   7.959  -0.076 -1.1520  0.6020  0.2290
  782MOL0     H 5503  10.197   7.895   0.309  0.3115  0.1012 -3.0432
  782MOL0     H 5504  10.220   7.724   0.486 -2.3035  2.0295  0.8774
  782MOL0     H 5505  10.107   7.307   0.401 -3.7759  2.1788 -0.0422
  782MOL0     H 5506  10.201   7.289   0.542 -1.0002 -1.4870 -0.5970
  782MOL0     H 5507   9.925   7.408   0.498 -0.0913  1.0188  2.5030
  782MOL0     H 5508   9.957   7.249   0.560  0.3664  0.6456  0.7123
  782MOL0     H 5509  10.011   7.509   0.713  1.3729 -0.0239  2.2918
  782MOL0     H 5510   9.869   7.408   0.730 -0.3136 -2.9164  1.3190
  782MOL0     H 5511   9.965   7.334   0.899 -1.8576 -3.5330  0.1238
  782MOL0     H 5512  10.029   7.212   0.793 -2.9515  1.0007 -2.8677
  782MOL0     H 5513  10.211   7.288   0.924  1.1704 -2.1418 -4.2045
  782MOL0     H 5514  10.251   7.344   0.763  1.5202  0.2570  1.6411
  782MOL0     H 5515  10.229   7.557   0.791  3.3266  1.2635  1.7215
  782MOL0     H 5516  10.122   7.551   0.937 -1.5812  0.0972 -1.1514
  782MOL0     H 5517  10.298   7.454   1.073  0.7644 -1.3701 -0.3093
  782MOL0     H 5518  10.415   7.471   0.941  0.9375 -1.9895  3.7909
  782MOL0     H 5519  10.409   7.656   1.122  1.4233  2.0442 -0.1294
  782MOL0     H 5520  10.252   7.700   1.070 -0.9830 -2.9633  0.2154
  782MOL0     H 5521  10.569   7.827   1.056 -3.7759  1.3965  1.4282
  782MOL0     H 5522  10.740   7.875   0.791 -1.6245 -2.4418  1.5911
  782MOL0     H 5523  10.669   8.032   0.749 -1.6430 -0.7921  0.4151
  782MOL0     H 5524  10.807   7.913   0.983  1.2624 -0.3537 -0.9333
  782MOL0     H 5525  10.672   8.027   1.027  0.7952 -2.9498  1.4346
  782MOL0     H 5526  10.916   8.106   0.836 -0.4113  1.8758 -0.9625
  782MOL0     H 5527  10.916   8.117   1.011 -3.0409 -1.0129  1.5833
  782MOL0     H 5528  10.729   8.240   0.821  1.2396  0.5699 -0.4103
  782MOL0     H 5529  10.866   8.323   0.896 -1.4747 -0.2133  0.0614
  782MOL0     H 5530  10.562   8.319   1.219  0.2798 -4.0210 -1.4729
  782MOL0     H 5531  10.576   8.281   1.556  2.2867 -2.3340 -0.5276
  782MOL0     H 5532  10.584   8.450   1.547 -1.5715 -0.9212  1.6641
  782MOL0     H 5533  10.487   8.375   1.424 -0.2854 -1.7968  1.4315
  782MOL0     H 5534  10.716   8.175   1.854 -1.6557  1.4612 -1.2530
  782MOL0     H 5535  10.684   8.236   2.084  1.4336 -1.3644 -1.0068
  782MOL0     H 5536  10.724   8.655   2.198  0.5150 -1.3134  0.8992
  782MOL0     H 5537  10.630   8.577   2.309 -0.1583 -0.1500  1.4343
  782MOL0     H 5538  10.876   8.542   2.447 -0.5172  1.7166 -0.6640
  782MOL0     H 5539  10.949   8.602   2.296 -0.4959 -1.0490 -2.2533
  782MOL0     H 5540  10.823   8.827   2.352 -0.0050 -1.0645 -0.8885
  782MOL0     H 5541  10.937   8.783   2.466  1.5318  0.5883 -3.4017
  782MOL0     H 5542  10.663   8.812   2.541 -0.0989 -0.4002 -0.1150
  782MOL0     H 5543  10.687   8.652   2.548 -1.4059  1.3100  2.4355
  782MOL0     H 5544  10.860   8.849   2.698 -1.9082  0.1595  0.0985
  782MOL0     H 5545  10.902   8.676   2.694  0.1376  0.5709  2.7101
  782MOL0     H 5546  10.658   8.805   2.811 -0.7818 -0.7894  1.4643
  782MOL0     H 5547  10.695   8.622   2.796 -0.1436  0.1744  1.2361
  782MOL0     H 5548  10.862   8.842   2.923 -2.7975  1.1941 -3.7072
  782MOL0     H 5549  10.887   8.661   2.939 -4.6171 -4.4423  3.1789
  782MOL0     H 5550  10.826   8.732   3.139 -1.5666 -0.0197  0.5566
  782MOL0     H 5551  10.683   8.651   3.067 -1.6969  1.5102  1.0596
  782MOL0     H 5552  10.851   8.629   2.020 -0.5945  0.8243 -3.2305
  782MOL0     H 5553  10.901   8.558   1.782  0.0620 -4.0617 -3.2511
  782MOL0     H 5554  11.030   8.367   1.341  0.4463 -3.6533 -1.3828
  782MOL0     H 5555  10.979   8.344   1.121 -1.9739  0.6646 -1.2132
  782MOL0     H 5556  10.035   7.424   0.228 -0.2609  0.9500 -3.2944
  782MOL0     H 5557   9.992   7.617   0.067 -0.7003 -4.9254  0.0988
  782MOL0     H 5558  10.062   8.073  -0.032  1.3433  0.0305 -0.0920
  782MOL0     H 5559   9.983   8.240  -0.212  0.5185  2.2160  2.3928
  782MOL0     H 5560   9.588   8.326  -0.405 -0.5305 -1.4828  0.4054
  782MOL0     H 5561   9.549   8.229  -0.260 -1.5375  2.0441  0.1332
  782MOL0     H 5562   9.671   8.375  -0.122 -3.3499 -1.9754  0.1825
  782MOL0     H 5563   9.546   8.471  -0.221  0.7875  1.4307  1.9814
  782MOL0     H 5564   9.688   8.560  -0.356 -1.5731  0.2770 -0.2629
  782MOL0     H 5565   9.820   8.457  -0.315  0.1578 -3.5009  2.6564
  782MOL0     H 5566   9.874   8.662  -0.205  0.4381 -0.8307 -0.8142
  782MOL0     H 5567   9.806   8.551  -0.080  1.2900  1.7710 -0.4149
  782MOL0     H 5568   9.496   8.852  -0.070  0.7769  0.8828 -2.2806
  782MOL0     H 5569   9.621   8.018  -0.238 -0.8477 -1.1208  3.1572
  782MOL0     H 5570   9.680   7.893  -0.028  0.0618 -0.3280  0.8307
  783MOL0     O 5571   0.290   6.585   6.459  0.3472 -0.2949 -0.6818
  783MOL0     C 5572   0.274   6.462   6.451  0.2967  0.0637 -0.7561
  783MOL0     O 5573   0.323   6.361   6.527 -0.6526  0.0081 -0.5004
  783MOL0     C 5574   0.413   6.402   6.618  0.9956  0.6894  0.0199
  783MOL0     C 5575   0.526   6.478   6.606  0.2212  0.1382 -0.4874
  783MOL0     C 5576   0.618   6.485   6.704 -0.6824 -0.6767  0.0364
  783MOL0     C 5577   0.612   6.414   6.823  0.6289  0.8970  1.1760
  783MOL0     O 5578   0.716   6.406   6.908  0.7935  0.3544 -0.3831
  783MOL0     C 5579   0.781   6.524   6.943 -0.1239  0.6347  0.2490
  783MOL0     C 5580   0.720   6.570   7.083  0.0811  0.3680  1.3484
  783MOL0     C 5581   0.819   6.518   7.197 -0.2742 -0.4551 -0.1159
  783MOL0     C 5582   0.850   6.371   7.179  0.4515 -0.1932  0.3404
  783MOL0     C 5583   0.939   6.346   7.300 -0.0663 -0.0105  0.6842
  783MOL0     C 5584   1.084   6.387   7.286 -0.1736 -0.0838  0.7148
  783MOL0     C 5585   1.180   6.318   7.394 -0.1942  0.6337 -0.0842
  783MOL0     C 5586   1.157   6.375   7.540 -0.7506  0.1102  0.6895
  783MOL0     N 5587   1.251   6.486   7.571  0.0746  0.0386 -0.4760
  783MOL0     C 5588   1.298   6.526   7.696  0.4125  0.5187  0.4167
  783MOL0     C 5589   1.390   6.628   7.671  0.0798  0.2757 -1.1543
  783MOL0     C 5590   1.496   6.684   7.762  0.3910 -0.2433  0.2402
  783MOL0     C 5591   1.433   6.756   7.889 -0.2483 -0.5221  0.6743
  783MOL0     C 5592   1.335   6.863   7.841  0.8473 -0.5509 -0.3891
  783MOL0     C 5593   1.314   6.978   7.946  1.0170 -0.0213  1.0262
  783MOL0     O 5594   1.214   6.916   8.027  0.3060  0.3802 -0.2809
  783MOL0     C 5595   1.175   6.979   8.139  0.0210  0.2319 -0.1800
  783MOL0     C 5596   1.250   7.073   8.215 -0.9294  0.4424 -0.8995
  783MOL0     C 5597   1.178   7.127   8.331 -0.3571 -0.7366 -0.0247
  783MOL0     C 5598   1.235   7.235   8.413  0.3546  0.1485  1.3052
  783MOL0     C 5599   1.052   7.080   8.367 -0.3090 -0.1595 -0.0466
  783MOL0     C 5600   0.970   7.139   8.483 -0.0319 -0.9279 -0.7838
  783MOL0     O 5601   0.848   7.187   8.453  0.0560 -0.3200 -0.3426
  783MOL0     C 5602   0.761   7.232   8.546 -0.7740 -0.1521  0.0826
  783MOL0     C 5603   0.780   7.288   8.675 -0.2910  0.1019 -0.5611
  783MOL0     C 5604   0.674   7.304   8.770  1.1545 -0.3370  0.0279
  783MOL0     C 5605   0.540   7.280   8.729 -1.2804 -0.6035 -0.0892
  783MOL0     O 5606   0.436   7.319   8.797 -0.4616  0.6023 -0.7646
  783MOL0     C 5607   0.430   7.284   8.931  0.1622  0.5115 -1.0191
  783MOL0     C 5608   0.289   7.326   8.985 -0.1361  0.4940  1.2808
  783MOL0     C 5609   0.298   7.305   9.135 -0.6783  0.4834 -0.3680
  783MOL0     C 5610   0.160   7.333   9.196  0.0660 -0.8468 -1.4225
  783MOL0     C 5611   0.144   7.473   9.243  0.7215 -0.5170  0.1197
  783MOL0     C 5612   0.008   7.498   9.300  0.2375 -0.6166 -0.5416
  783MOL0     C 5613  -0.104   7.482   9.192 -0.5690 -1.2215 -0.4323
  783MOL0     C 5614  -0.235   7.533   9.253 -0.2324  0.1059  0.3293
  783MOL0    Cl 5615  -0.265   7.709   9.252 -0.5780 -0.0180 -0.1332
  783MOL0     C 5616   0.522   7.220   8.602 -1.1971  0.2557  1.0276
  783MOL0     C 5617   0.629   7.191   8.523  0.5673  0.0209  0.3307
  783MOL0     O 5618   1.016   7.117   8.596 -0.5160  0.2072  0.2419
  783MOL0     C 5619   0.992   6.982   8.292  0.1665  0.2781 -0.4587
  783MOL0     C 5620   1.044   6.932   8.178 -0.0658 -0.2852 -0.4341
  783MOL0     N 5621   1.385   6.655   7.541 -0.0272 -0.3014  0.2092
  783MOL0     N 5622   1.296   6.576   7.480  0.3829  0.6220 -0.8074
  783MOL0     C 5623   0.496   6.333   6.843  0.5454  0.4565  0.1786
  783MOL0     C 5624   0.402   6.329   6.738 -0.3259  0.8253  0.1654
  783MOL0     C 5625   0.175   6.430   6.333  0.3752  0.6641  0.1076
  783MOL0     C 5626   0.127   6.534   6.245 -0.5740 -0.1111  0.1749
  783MOL0     C 5627   0.025   6.494   6.148 -0.3048 -0.5708  0.0556
  783MOL0     C 5628  -0.032   6.375   6.132  0.7065  0.7503 -0.1329
  783MOL0     O 5629  -0.126   6.346   6.043 -0.1712  0.4327  0.0537
  783MOL0     C 5630  -0.200   6.441   5.959  0.3905  0.1888 -0.2628
  783MOL0     C 5631  -0.114   6.468   5.843 -0.4172  0.1689 -0.0762
  783MOL0     C 5632  -0.137   6.602   5.769  0.3652 -1.7272 -0.5384
  783MOL0     C 5633  -0.010   6.674   5.722  0.4741 -1.2490 -0.9647
  783MOL0     C 5634   0.054   6.775   5.817  1.1135  0.3752  0.0995
  783MOL0     C 5635   0.088   6.859   5.888  0.5638 -0.4096 -0.3699
  783MOL0     C 5636   0.027   6.283   6.215  0.7017  0.0223 -0.2227
  783MOL0     C 5637   0.121   6.311   6.315 -0.6609  0.9862 -1.2887
  783MOL0     H 5638   0.544   6.537   6.517  0.3338 -0.8543 -1.1470
  783MOL0     H 5639   0.708   6.540   6.681  0.1530 -2.3843 -1.0634
  783MOL0     H 5640   0.885   6.497   6.964 -0.4798 -3.0474 -1.8873
  783MOL0     H 5641   0.792   6.597   6.862  3.9213  0.3164  0.2999
  783MOL0     H 5642   0.732   6.679   7.088 -0.2003  0.4009  1.3356
  783MOL0     H 5643   0.621   6.527   7.097 -0.3891  2.0689  3.9207
  783MOL0     H 5644   0.914   6.569   7.180 -1.1651  1.5972  0.7170
  783MOL0     H 5645   0.764   6.530   7.291  0.4205  1.4659  0.0842
  783MOL0     H 5646   0.763   6.305   7.176 -0.5464  1.0175  1.3420
  783MOL0     H 5647   0.911   6.347   7.091 -0.6878  3.6252 -1.7299
  783MOL0     H 5648   0.896   6.388   7.391 -0.7515  0.8748 -0.0144
  783MOL0     H 5649   0.939   6.237   7.306  0.5078 -0.1245 -0.8353
  783MOL0     H 5650   1.114   6.337   7.194 -1.5341  0.6481 -0.1525
  783MOL0     H 5651   1.101   6.494   7.294 -2.4125  0.3611  0.1574
  783MOL0     H 5652   1.151   6.213   7.394 -3.2261  1.3603 -0.2207
  783MOL0     H 5653   1.282   6.337   7.360 -0.6912  0.7018 -1.5856
  783MOL0     H 5654   1.159   6.292   7.611 -1.0632  0.5089  1.1810
  783MOL0     H 5655   1.056   6.416   7.539 -0.0994  1.8326 -0.6754
  783MOL0     H 5656   1.293   6.476   7.792  1.5881  0.1178  0.2841
  783MOL0     H 5657   1.548   6.598   7.805 -0.9542 -1.1784  0.0837
  783MOL0     H 5658   1.560   6.752   7.707  3.1658 -2.3622  0.6412
  783MOL0     H 5659   1.518   6.798   7.943  0.4271  1.0446 -1.4719
  783MOL0     H 5660   1.391   6.672   7.945 -2.7186  1.1652  1.5692
  783MOL0     H 5661   1.235   6.822   7.828  1.4587 -2.1927 -0.2766
  783MOL0     H 5662   1.365   6.902   7.744  0.9671 -0.7220 -0.4225
  783MOL0     H 5663   1.263   7.066   7.905  1.2477 -0.4292 -0.1694
  783MOL0     H 5664   1.401   7.021   7.996  2.4547 -2.5036  0.8120
  783MOL0     H 5665   1.344   7.118   8.187 -1.3196  0.8828 -1.5206
  783MOL0     H 5666   1.318   7.202   8.477  0.8209 -0.8192  0.2442
  783MOL0     H 5667   1.298   7.305   8.358  2.4400 -0.3438  2.9326
  783MOL0     H 5668   1.157   7.297   8.458 -0.7664 -0.4736  0.2774
  783MOL0     H 5669   0.882   7.296   8.711  0.0798 -3.4574 -0.4810
  783MOL0     H 5670   0.695   7.346   8.868 -0.9679  1.8830 -0.3741
  783MOL0     H 5671   0.447   7.177   8.940  0.3087  0.5928 -0.3426
  783MOL0     H 5672   0.514   7.339   8.975  2.1197 -2.2872 -1.0416
  783MOL0     H 5673   0.262   7.424   8.945 -0.1287 -0.3144 -0.8654
  783MOL0     H 5674   0.204   7.264   8.954  0.6532 -0.0038  0.0568
  783MOL0     H 5675   0.386   7.355   9.177 -0.4998  1.8120 -2.2224
  783MOL0     H 5676   0.309   7.196   9.146 -1.0592  0.2823 -1.7662
  783MOL0     H 5677   0.084   7.298   9.125  0.1947 -1.4342 -1.2801
  783MOL0     H 5678   0.138   7.260   9.274 -3.2941  0.6647 -0.7519
  783MOL0     H 5679   0.165   7.548   9.167  1.7318  0.6156  1.4629
  783MOL0     H 5680   0.213   7.493   9.325  0.3541  0.2203  0.2581
  783MOL0     H 5681  -0.009   7.434   9.387  1.2386  1.3932  1.2540
  783MOL0     H 5682   0.015   7.603   9.332  1.3952 -1.2906  1.6604
  783MOL0     H 5683  -0.120   7.376   9.170 -1.0150 -0.9182 -1.5923
  783MOL0     H 5684  -0.086   7.539   9.101  1.4682 -3.5110 -1.5583
  783MOL0     H 5685  -0.248   7.487   9.352  3.0556 -0.0557  0.8086
  783MOL0     H 5686  -0.306   7.496   9.178  0.4758  1.2765 -0.9542
  783MOL0     H 5687   0.429   7.189   8.555  1.0585 -1.7971 -2.5874
  783MOL0     H 5688   0.610   7.154   8.423  0.3672 -3.1634  1.4341
  783MOL0     H 5689   0.895   6.941   8.318 -1.9917  2.6854 -4.0212
  783MOL0     H 5690   0.997   6.850   8.124  1.2935 -1.0455 -0.4997
  783MOL0     H 5691   0.498   6.264   6.926  1.9147  1.0580  0.6776
  783MOL0     H 5692   0.326   6.254   6.755  0.5027  0.0214  0.3929
  783MOL0     H 5693   0.163   6.635   6.232  2.4180 -1.5198 -5.0029
  783MOL0     H 5694  -0.017   6.576   6.090  1.2139  2.5361  3.0065
  783MOL0     H 5695  -0.301   6.412   5.929 -0.9957  1.3638  2.8638
  783MOL0     H 5696  -0.204   6.532   6.020  4.5256  0.4091  0.0050
  783MOL0     H 5697  -0.114   6.384   5.773  2.0879  0.8969 -1.0876
  783MOL0     H 5698  -0.010   6.482   5.873 -0.7752  1.4601  0.6209
  783MOL0     H 5699  -0.189   6.657   5.849 -1.4990 -2.6062 -1.0782
  783MOL0     H 5700  -0.200   6.586   5.681  0.8422  2.2997 -1.8036
  783MOL0     H 5701  -0.041   6.736   5.637  3.0633  2.3497  0.4197
  783MOL0     H 5702   0.058   6.601   5.678  0.8721 -0.6410 -1.3873
  783MOL0     H 5703   0.123   6.924   5.965 -0.2048 -0.0579 -0.3104
  783MOL0     H 5704   0.005   6.179   6.196 -0.7159  0.8065 -3.4057
  783MOL0     H 5705   0.161   6.236   6.383  2.7544  1.4072 -2.6486
  784MOL0     O 5706  11.178   0.520  10.252  0.2024 -0.0632  0.2289
  784MOL0     C 5707  11.221   0.572  10.356  0.8714 -0.5851  0.3577
  784MOL0     O 5708  11.139   0.642  10.441  0.0135  0.0115 -0.6377
  784MOL0     C 5709  11.021   0.586  10.481 -0.3781 -0.1018 -0.1493
  784MOL0     C 5710  10.936   0.685  10.520 -0.0153 -0.0750  0.1708
  784MOL0     C 5711  10.810   0.648  10.577 -1.3745  0.7995  0.4801
  784MOL0     C 5712  10.772   0.519  10.600  0.2895  0.4037  0.9191
  784MOL0     O 5713  10.654   0.510  10.676  0.9432  0.9780  0.4533
  784MOL0     C 5714  10.672   0.469  10.812  0.0109 -0.3639 -0.3078
  784MOL0     C 5715  10.614   0.329  10.825 -0.6509  0.3471  0.2480
  784MOL0     C 5716  10.581   0.285  10.964 -0.0562  0.2578  0.4600
  784MOL0     C 5717  10.515   0.382  11.063 -0.5359  0.6235  1.0959
  784MOL0     C 5718  10.381   0.424  11.003  0.7500 -0.4476 -0.5282
  784MOL0     C 5719  10.270   0.315  11.023 -0.6010 -0.4701 -0.2522
  784MOL0     C 5720  10.127   0.369  11.035  0.3506 -0.2628 -0.1716
  784MOL0     C 5721  10.067   0.429  10.906 -0.0769 -0.0348  0.6947
  784MOL0     N 5722  10.108   0.576  10.907  0.8864  0.2168  0.5166
  784MOL0     C 5723  10.175   0.642  10.803  0.3086 -0.2766  0.2546
  784MOL0     C 5724  10.144   0.773  10.837  0.5567  0.0002  0.1328
  784MOL0     C 5725  10.194   0.886  10.745 -0.3803  0.3323 -0.0361
  784MOL0     C 5726  10.342   0.920  10.766  0.1241  0.3777  0.0934
  784MOL0     C 5727  10.361   1.038  10.869 -1.1705 -0.6886  0.0265
  784MOL0     C 5728  10.515   1.053  10.898 -0.1710 -0.2142 -1.6309
  784MOL0     O 5729  10.587   1.082  10.781 -1.5444  0.5432  0.3006
  784MOL0     C 5730  10.722   1.092  10.799  0.0108  0.1088 -0.5461
  784MOL0     C 5731  10.800   1.083  10.680  0.0671  0.0982 -0.3187
  784MOL0     C 5732  10.936   1.107  10.688 -0.8138  0.7180 -0.1920
  784MOL0     C 5733  11.026   1.099  10.566  0.2441 -0.7619  0.4233
  784MOL0     C 5734  11.002   1.117  10.811 -0.0089  0.0686 -0.4341
  784MOL0     C 5735  11.141   1.137  10.808 -0.4411 -0.6763  0.8320
  784MOL0     O 5736  11.219   1.028  10.827  0.4117 -1.3543 -0.6408
  784MOL0     C 5737  11.336   1.046  10.900  0.6014  0.3509 -0.1877
  784MOL0     C 5738  11.391   1.157  10.966  0.3361  0.1829 -0.6127
  784MOL0     C 5739  11.514   1.151  11.027  0.2286  0.1123  0.7489
  784MOL0     C 5740  11.597   1.034  11.017  0.2803  0.5155 -0.5119
  784MOL0     O 5741  11.735   1.016  11.070  0.9792  0.8697 -0.4871
  784MOL0     C 5742  11.809   1.117  11.132  0.1852  0.0401 -0.6703
  784MOL0     C 5743  11.883   1.208  11.027  0.7189  0.6096 -1.0465
  784MOL0     C 5744  12.005   1.126  10.960 -0.4679 -0.8484 -0.9403
  784MOL0     C 5745  12.117   1.202  10.901 -0.4988 -0.2109  0.0714
  784MOL0     C 5746  12.251   1.133  10.875  0.8241  0.2912  0.0483
  784MOL0     C 5747  12.358   1.226  10.809 -0.3546  0.1683  0.6924
  784MOL0     C 5748  12.486   1.146  10.810  0.6302  0.5734  1.4347
  784MOL0     C 5749  12.584   1.221  10.723 -0.8119  0.9376 -0.5272
  784MOL0    Cl 5750  12.608   1.391  10.775  0.1844 -0.2491  0.3703
  784MOL0     C 5751  11.539   0.923  10.957 -0.9909 -0.6415  0.0547
  784MOL0     C 5752  11.411   0.931  10.902 -0.1650  0.7881 -0.4928
  784MOL0     O 5753  11.184   1.251  10.782 -0.4320  0.2262  0.1599
  784MOL0     C 5754  10.928   1.107  10.928 -0.5488 -0.1486  0.0478
  784MOL0     C 5755  10.788   1.095  10.925 -1.4230  0.8317 -0.7265
  784MOL0     N 5756  10.057   0.786  10.947 -0.1018 -0.2007 -0.2886
  784MOL0     N 5757  10.047   0.667  10.991  0.5266 -0.4550  0.3427
  784MOL0     C 5758  10.860   0.414  10.560  0.2657 -0.2299  0.5188
  784MOL0     C 5759  10.980   0.455  10.490  0.4278  0.7759  0.4018
  784MOL0     C 5760  11.363   0.595  10.379  1.0932  0.1912 -0.6221
  784MOL0     C 5761  11.405   0.643  10.503  0.4224  0.0418  0.0934
  784MOL0     C 5762  11.534   0.682  10.521 -1.0633  0.0933  0.3484
  784MOL0     C 5763  11.628   0.646  10.422  0.7713 -0.1759  0.1918
  784MOL0     O 5764  11.752   0.676  10.452  0.6028 -0.9084 -0.2868
  784MOL0     C 5765  11.852   0.661  10.356 -0.1468  0.6572  0.3139
  784MOL0     C 5766  12.000   0.660  10.413 -0.3518 -0.4870 -0.2142
  784MOL0     C 5767  12.117   0.643  10.312  0.3572 -0.4270  0.8982
  784MOL0     C 5768  12.095   0.522  10.217  0.4915 -0.6771 -0.0254
  784MOL0     C 5769  12.213   0.503  10.124  0.1374 -0.7902 -0.4962
  784MOL0     C 5770  12.288   0.468  10.043  0.3308 -0.4666  0.1740
  784MOL0     C 5771  11.592   0.579  10.301  1.0207 -0.2622  0.1252
  784MOL0     C 5772  11.454   0.558  10.280  0.3495 -0.0271 -0.2413
  784MOL0     H 5773  10.963   0.789  10.507 -2.3037  0.2348 -4.2866
  784MOL0     H 5774  10.740   0.719  10.621 -4.5318 -0.5132 -2.0315
  784MOL0     H 5775  10.779   0.466  10.833  0.0980  0.3088 -0.6455
  784MOL0     H 5776  10.616   0.535  10.878 -1.0980 -0.7563 -0.8241
  784MOL0     H 5777  10.527   0.333  10.758  0.9620  4.2910 -1.9630
  784MOL0     H 5778  10.687   0.261  10.780 -1.1348 -1.4837  2.0522
  784MOL0     H 5779  10.513   0.199  10.963  0.8508 -0.5691  2.5534
  784MOL0     H 5780  10.677   0.264  11.012  0.8382 -2.1441 -2.1064
  784MOL0     H 5781  10.510   0.344  11.166  0.3876  2.5250  1.9111
  784MOL0     H 5782  10.576   0.473  11.067 -0.5049  0.5722  2.0067
  784MOL0     H 5783  10.330   0.509  11.050  1.9050 -0.1654  0.2637
  784MOL0     H 5784  10.380   0.451  10.897  0.1446 -0.2278 -0.4696
  784MOL0     H 5785  10.282   0.249  10.936  0.6897  1.1824 -1.3997
  784MOL0     H 5786  10.288   0.268  11.120  1.3801 -2.2671 -1.3961
  784MOL0     H 5787  10.072   0.278  11.063 -0.3138  0.2634  0.2707
  784MOL0     H 5788  10.127   0.426  11.128 -1.2162 -3.0807  1.6992
  784MOL0     H 5789   9.958   0.414  10.908  0.2156 -2.5891  0.6962
  784MOL0     H 5790  10.099   0.375  10.817 -1.7461 -1.7506  1.0441
  784MOL0     H 5791  10.221   0.607  10.712  1.7794  1.1821  0.3978
  784MOL0     H 5792  10.171   0.853  10.644 -0.1921  0.2683 -0.0590
  784MOL0     H 5793  10.130   0.972  10.767  0.6015  0.4835  2.6639
  784MOL0     H 5794  10.384   0.949  10.670 -0.5850  2.8448  0.4581
  784MOL0     H 5795  10.401   0.836  10.803 -0.1411  1.1011  2.3034
  784MOL0     H 5796  10.300   1.028  10.960 -1.5457 -0.8699 -0.2450
  784MOL0     H 5797  10.320   1.125  10.817  2.1293  0.0389 -1.6023
  784MOL0     H 5798  10.539   0.954  10.939 -3.0829 -0.9070 -1.3699
  784MOL0     H 5799  10.526   1.133  10.972 -1.8401 -0.9636 -0.5225
  784MOL0     H 5800  10.752   1.083  10.583  1.4833 -1.5191 -1.0610
  784MOL0     H 5801  11.069   0.999  10.565 -3.1390 -2.3943  1.6199
  784MOL0     H 5802  10.973   1.132  10.475  3.7953  0.2397 -1.4659
  784MOL0     H 5803  11.117   1.158  10.575 -0.2893 -0.2770  3.9375
  784MOL0     H 5804  11.342   1.251  10.989  0.7468 -0.0041  1.1610
  784MOL0     H 5805  11.545   1.244  11.074 -2.6256  1.5550 -0.0100
  784MOL0     H 5806  11.742   1.195  11.170  2.7781  2.7962 -1.3298
  784MOL0     H 5807  11.881   1.079  11.205  0.2764  0.9871 -0.2522
  784MOL0     H 5808  11.802   1.244  10.963 -0.8063 -2.9482 -1.3412
  784MOL0     H 5809  11.927   1.298  11.072  1.7773 -1.1023  1.5758
  784MOL0     H 5810  11.971   1.056  10.883 -0.8605 -1.3096 -0.3672
  784MOL0     H 5811  12.056   1.061  11.033  2.1026 -0.2201 -2.0570
  784MOL0     H 5812  12.080   1.226  10.801 -0.5908 -3.0981 -0.6872
  784MOL0     H 5813  12.142   1.287  10.965  0.7661 -1.4704  1.3410
  784MOL0     H 5814  12.238   1.041  10.817 -1.0671  2.5077 -3.4022
  784MOL0     H 5815  12.299   1.103  10.968  0.0709  0.8806  0.6405
  784MOL0     H 5816  12.330   1.240  10.704 -1.2654 -2.1758  0.5686
  784MOL0     H 5817  12.371   1.315  10.872  2.4051  1.5531 -1.5488
  784MOL0     H 5818  12.467   1.046  10.771 -0.4205  0.5523  1.9462
  784MOL0     H 5819  12.525   1.133  10.911 -4.3461 -0.3411  3.5531
  784MOL0     H 5820  12.540   1.213  10.624 -2.7166 -0.2932  0.3696
  784MOL0     H 5821  12.674   1.160  10.726 -1.2859  0.2188 -0.8448
  784MOL0     H 5822  11.597   0.832  10.966 -0.9623 -0.5883  0.4128
  784MOL0     H 5823  11.379   0.833  10.869  2.0774 -1.0164  2.1989
  784MOL0     H 5824  10.967   1.120  11.028 -1.2341  0.7943  0.2048
  784MOL0     H 5825  10.749   1.097  11.027  1.9239 -2.2683  0.8457
  784MOL0     H 5826  10.833   0.310  10.579 -0.8237  0.5753  4.4675
  784MOL0     H 5827  11.058   0.390  10.453 -0.1875  1.1038 -1.5816
  784MOL0     H 5828  11.340   0.655  10.589 -4.2662 -0.5426 -3.0455
  784MOL0     H 5829  11.581   0.724  10.609 -2.4627 -0.2772  1.2988
  784MOL0     H 5830  11.837   0.562  10.312  0.3068 -0.0859  1.7662
  784MOL0     H 5831  11.848   0.735  10.276 -0.5815 -2.6853 -3.0481
  784MOL0     H 5832  12.013   0.573  10.478  1.1270  1.5690  2.4637
  784MOL0     H 5833  12.024   0.752  10.468 -1.5169 -0.3800  0.1422
  784MOL0     H 5834  12.216   0.637  10.357  1.7915  0.2780 -1.9271
  784MOL0     H 5835  12.121   0.735  10.253  1.4518 -1.2373 -0.3380
  784MOL0     H 5836  12.006   0.533  10.154  2.2433  1.1228 -2.3848
  784MOL0     H 5837  12.092   0.428  10.273  0.9772 -0.2337  0.7632
  784MOL0     H 5838  12.344   0.426   9.961  0.9693  2.2878 -0.9000
  784MOL0     H 5839  11.668   0.546  10.232  1.5051  0.3346  0.3625
  784MOL0     H 5840  11.427   0.519  10.182  1.2006  2.9556 -1.7877
  785MOL0     O 5841   4.057   0.702  11.543  0.1491  0.3228 -0.3773
  785MOL0     C 5842   4.043   0.781  11.449 -0.2121 -0.3248  0.1848
  785MOL0     O 5843   4.098   0.910  11.441  0.3209  0.4198  0.6526
  785MOL0     C 5844   4.159   0.964  11.548 -0.0119  0.8097 -0.5203
  785MOL0     C 5845   4.290   1.014  11.533 -0.1206  0.4801 -0.0434
  785MOL0     C 5846   4.352   1.078  11.639 -1.0184 -0.5691  0.5231
  785MOL0     C 5847   4.291   1.096  11.763 -0.1274 -0.8041 -0.4173
  785MOL0     O 5848   4.348   1.167  11.862  0.4160  0.1757  0.0049
  785MOL0     C 5849   4.276   1.263  11.953  0.3837  0.5178 -0.1305
  785MOL0     C 5850   4.260   1.211  12.092  0.3566 -0.1451 -0.6867
  785MOL0     C 5851   4.193   1.307  12.191  0.9976  0.5050  0.6319
  785MOL0     C 5852   4.042   1.313  12.154 -0.0340 -0.4225  0.2499
  785MOL0     C 5853   4.001   1.445  12.074  0.4968  0.1467 -0.9977
  785MOL0     C 5854   3.854   1.445  12.030  0.6875 -0.8400  0.1049
  785MOL0     C 5855   3.821   1.568  11.940 -0.1809  0.8348  0.1920
  785MOL0     C 5856   3.811   1.701  12.023 -0.1345  0.3258  0.1211
  785MOL0     N 5857   3.778   1.823  11.941 -0.0821  0.2674  0.4671
  785MOL0     C 5858   3.665   1.840  11.874  0.0184 -0.7757 -0.1351
  785MOL0     C 5859   3.682   1.948  11.796  0.1974 -0.6006  0.7405
  785MOL0     C 5860   3.576   1.996  11.707 -0.3642 -0.5800  0.9437
  785MOL0     C 5861   3.539   1.895  11.593 -0.0253  0.6848 -0.3073
  785MOL0     C 5862   3.450   1.970  11.499  0.2069  0.4842  0.2991
  785MOL0     C 5863   3.324   2.029  11.565 -0.0893  0.1152  0.0083
  785MOL0     O 5864   3.237   2.078  11.463  0.1264 -0.1054  0.2828
  785MOL0     C 5865   3.126   2.150  11.485  0.8006  0.3774  0.5986
  785MOL0     C 5866   3.013   2.123  11.392 -0.0459 -0.4487 -0.1372
  785MOL0     C 5867   2.887   2.182  11.415 -0.9034 -0.0683 -0.4438
  785MOL0     C 5868   2.785   2.158  11.314  1.2439  0.0908 -0.4524
  785MOL0     C 5869   2.869   2.259  11.535 -0.2930  0.1704 -0.2775
  785MOL0     C 5870   2.737   2.324  11.576 -0.4610  0.2163 -0.0926
  785MOL0     O 5871   2.748   2.439  11.653  0.3891 -0.1309  0.2175
  785MOL0     C 5872   2.636   2.520  11.669  0.1373 -0.1984  0.6547
  785MOL0     C 5873   2.614   2.571  11.797 -0.2089 -0.7410 -0.6510
  785MOL0     C 5874   2.506   2.648  11.834 -0.5227  0.1617  0.0911
  785MOL0     C 5875   2.424   2.689  11.730  1.7242  0.6131  0.1123
  785MOL0     O 5876   2.342   2.797  11.747  0.2247 -0.7626  0.2110
  785MOL0     C 5877   2.201   2.763  11.756 -0.2385  0.5055  0.6465
  785MOL0     C 5878   2.125   2.854  11.856 -0.1084  0.8631  0.3918
  785MOL0     C 5879   2.121   2.810  12.002 -0.4670 -0.4253  0.9694
  785MOL0     C 5880   2.262   2.770  12.053 -0.2564  0.4512 -0.3675
  785MOL0     C 5881   2.249   2.740  12.210 -0.0995  0.3852  0.8051
  785MOL0     C 5882   2.239   2.873  12.284  0.2881 -0.2928 -0.8201
  785MOL0     C 5883   2.232   2.838  12.432  0.5387 -0.2085 -0.2152
  785MOL0     C 5884   2.282   2.955  12.525  0.1342  0.3241 -0.0753
  785MOL0    Cl 5885   2.160   3.080  12.571  0.0860 -0.0489 -0.5866
  785MOL0     C 5886   2.428   2.629  11.602 -0.0463  0.7956 -1.0562
  785MOL0     C 5887   2.539   2.546  11.570 -0.2818  0.5302 -0.2900
  785MOL0     O 5888   2.640   2.259  11.553  0.3641 -0.0332  0.2903
  785MOL0     C 5889   2.977   2.280  11.616 -0.1714 -0.4704  0.0946
  785MOL0     C 5890   3.106   2.224  11.596 -1.1810 -0.2794  0.3375
  785MOL0     N 5891   3.823   1.977  11.801 -1.2812 -0.4369 -0.0436
  785MOL0     N 5892   3.877   1.900  11.892  0.1456 -0.2965  0.6255
  785MOL0     C 5893   4.164   1.031  11.784 -0.8045 -0.0311 -0.0970
  785MOL0     C 5894   4.097   0.964  11.675  0.5188  0.4227 -0.5764
  785MOL0     C 5895   3.970   0.736  11.325  0.7560  0.4320  0.3620
  785MOL0     C 5896   3.848   0.674  11.347  0.7794 -0.2840 -0.1624
  785MOL0     C 5897   3.760   0.651  11.240 -0.4700  1.0999  0.2203
  785MOL0     C 5898   3.800   0.668  11.101  0.3911 -0.3484 -0.3788
  785MOL0     O 5899   3.718   0.647  10.993 -0.0724  0.5052 -0.2109
  785MOL0     C 5900   3.772   0.615  10.858  0.6766  0.6642  0.6848
  785MOL0     C 5901   3.863   0.500  10.842  0.2843  0.0682  0.8389
  785MOL0     C 5902   3.939   0.503  10.711  0.0560 -0.4524  0.4840
  785MOL0     C 5903   3.990   0.361  10.670  0.0597  0.9994 -0.2870
  785MOL0     C 5904   4.080   0.369  10.542  0.7923  0.0954 -0.4752
  785MOL0     C 5905   4.131   0.345  10.437  0.3365 -0.5985 -0.3374
  785MOL0     C 5906   3.938   0.714  11.085 -0.3291  0.5528  0.0594
  785MOL0     C 5907   4.018   0.729  11.196 -0.1675  0.6026  0.4276
  785MOL0     H 5908   4.335   0.994  11.436 -3.0879 -0.7080 -1.3145
  785MOL0     H 5909   4.454   1.112  11.628 -0.7709 -1.5408 -0.2706
  785MOL0     H 5910   4.341   1.349  11.970  0.9167  0.7975 -3.1247
  785MOL0     H 5911   4.186   1.287  11.895  0.3633 -1.6037 -1.0673
  785MOL0     H 5912   4.216   1.110  12.096 -0.1453  0.0920  0.0704
  785MOL0     H 5913   4.359   1.198  12.135 -0.2588 -2.1036  0.2520
  785MOL0     H 5914   4.199   1.261  12.290 -0.4729  2.5569  1.7535
  785MOL0     H 5915   4.234   1.408  12.184  0.0501  1.1051  2.9303
  785MOL0     H 5916   4.019   1.228  12.089 -0.8714  1.2975 -1.8292
  785MOL0     H 5917   3.981   1.326  12.243  0.3568  0.7836  0.3574
  785MOL0     H 5918   4.009   1.529  12.145 -0.3776  0.5236 -1.3363
  785MOL0     H 5919   4.074   1.459  11.994  0.5823  0.5556 -0.8568
  785MOL0     H 5920   3.831   1.358  11.969 -5.1099  0.5821 -0.3042
  785MOL0     H 5921   3.782   1.440  12.112  1.0825  0.9338  0.6108
  785MOL0     H 5922   3.897   1.573  11.861  2.7240 -2.9446  2.4286
  785MOL0     H 5923   3.721   1.549  11.900 -0.0030  1.0895 -0.3935
  785MOL0     H 5924   3.906   1.729  12.069  0.2458 -2.4551  1.2684
  785MOL0     H 5925   3.736   1.693  12.103 -0.8765 -0.9752 -0.6685
  785MOL0     H 5926   3.578   1.777  11.888  1.1666 -2.3109  0.5496
  785MOL0     H 5927   3.487   2.006  11.771 -1.0323  1.1176 -0.1695
  785MOL0     H 5928   3.602   2.099  11.678  0.4809  0.0272  3.5661
  785MOL0     H 5929   3.479   1.813  11.632  3.0302 -1.5846  0.0432
  785MOL0     H 5930   3.635   1.867  11.546  0.0577  1.1762 -0.4350
  785MOL0     H 5931   3.424   1.908  11.412  1.4458  0.1211  0.1623
  785MOL0     H 5932   3.506   2.055  11.459  1.8056  1.3863  4.0503
  785MOL0     H 5933   3.351   2.099  11.644 -2.5959 -0.4060  1.4428
  785MOL0     H 5934   3.269   1.948  11.614  1.4098 -0.1688  1.2912
  785MOL0     H 5935   3.029   2.057  11.307 -0.3685 -1.3598  0.4957
  785MOL0     H 5936   2.817   2.112  11.220 -0.9814 -1.8353 -0.3622
  785MOL0     H 5937   2.728   2.078  11.362  1.0578  0.2679 -0.3752
  785MOL0     H 5938   2.725   2.246  11.288  1.7583  0.5677 -0.0677
  785MOL0     H 5939   2.689   2.548  11.871  0.0312  0.6370 -0.4323
  785MOL0     H 5940   2.497   2.692  11.932 -1.9717 -1.0569  0.5335
  785MOL0     H 5941   2.158   2.768  11.655  1.5842 -1.4852 -0.2990
  785MOL0     H 5942   2.191   2.660  11.790 -0.9752 -0.9485 -3.4081
  785MOL0     H 5943   2.167   2.955  11.856  4.9634 -0.9257  3.1388
  785MOL0     H 5944   2.022   2.839  11.822  1.2372 -2.2430 -2.9866
  785MOL0     H 5945   2.053   2.726  12.015 -1.2170 -0.1292 -0.7272
  785MOL0     H 5946   2.084   2.895  12.060  1.2010  1.5854 -0.7579
  785MOL0     H 5947   2.298   2.677  12.009 -0.7714  1.3326 -2.7998
  785MOL0     H 5948   2.329   2.853  12.028 -1.3845  0.8588 -2.3010
  785MOL0     H 5949   2.331   2.680  12.250 -1.6430  0.9670  5.3685
  785MOL0     H 5950   2.152   2.689  12.211 -2.2701  3.5060 -4.6505
  785MOL0     H 5951   2.325   2.940  12.276  0.9459 -1.1375 -1.0009
  785MOL0     H 5952   2.152   2.936  12.261  0.2408  0.6347  1.6007
  785MOL0     H 5953   2.291   2.747  12.441 -0.4473 -0.9227 -0.8162
  785MOL0     H 5954   2.131   2.813  12.467  0.9795  0.2512  1.4608
  785MOL0     H 5955   2.370   3.003  12.481  0.0244  1.2402  0.6800
  785MOL0     H 5956   2.337   2.908  12.607 -2.4790 -0.2813  1.4452
  785MOL0     H 5957   2.366   2.672  11.524  0.0668  2.0823 -0.4614
  785MOL0     H 5958   2.563   2.517  11.468  0.0055 -0.5754  0.0863
  785MOL0     H 5959   2.959   2.326  11.712  1.0190 -0.6197  0.4012
  785MOL0     H 5960   3.192   2.235  11.661 -2.1728 -2.7301  2.2367
  785MOL0     H 5961   4.114   1.046  11.879  2.2093  2.1617  1.3227
  785MOL0     H 5962   3.996   0.927  11.688 -0.0273  2.6957  3.4965
  785MOL0     H 5963   3.809   0.661  11.447 -0.9572 -2.5886 -1.0238
  785MOL0     H 5964   3.657   0.620  11.250  0.1969 -0.6943  2.3927
  785MOL0     H 5965   3.687   0.591  10.793  1.2397 -0.4711  0.3531
  785MOL0     H 5966   3.799   0.713  10.816 -0.6611  0.7226 -0.0977
  785MOL0     H 5967   3.800   0.411  10.844  0.7112 -0.2515  0.3393
  785MOL0     H 5968   3.933   0.508  10.926 -2.0853  1.3665  2.8125
  785MOL0     H 5969   4.009   0.586  10.721 -1.4565  0.6536  2.6215
  785MOL0     H 5970   3.873   0.533  10.629  1.7586 -0.3422 -0.9086
  785MOL0     H 5971   3.902   0.296  10.657  2.6735 -4.4748  4.4554
  785MOL0     H 5972   4.029   0.305  10.756 -1.4295 -2.2762 -1.5503
  785MOL0     H 5973   4.174   0.299  10.350  4.3139  2.1951 -0.1299
  785MOL0     H 5974   3.976   0.738  10.986  0.7268 -2.0369 -0.2468
  785MOL0     H 5975   4.117   0.766  11.169 -0.0805 -0.3321 -0.5850
  786MOL0     O 5976  11.543   6.336   0.249 -0.0203  0.7919  0.3991
  786MOL0     C 5977  11.523   6.219   0.258 -0.9933  0.0565 -1.2595
  786MOL0     O 5978  11.500   6.128   0.157  0.3096  0.1324  0.6662
  786MOL0     C 5979  11.478   6.173   0.024  0.4119  0.0091 -0.1502
  786MOL0     C 5980  11.377   6.260  -0.010  0.2417  0.3159  0.5324
  786MOL0     C 5981  11.347   6.289  -0.152 -0.4367  0.3014 -0.2819
  786MOL0     C 5982  11.417   6.218  -0.248 -0.0810  1.8136 -0.4170
  786MOL0     O 5983  11.404   6.219  -0.384 -0.9679 -0.7892  0.3587
  786MOL0     C 5984  11.328   6.321  -0.442  0.1791 -1.2679  0.3362
  786MOL0     C 5985  11.361   6.357  -0.586 -0.0496 -0.3000  0.2258
  786MOL0     C 5986  11.502   6.422  -0.597  0.1622  0.8503 -0.5388
  786MOL0     C 5987  11.568   6.434  -0.734 -0.9677 -0.2439 -0.7368
  786MOL0     C 5988  11.509   6.539  -0.828  0.4886 -0.1924  0.8777
  786MOL0     C 5989  11.381   6.517  -0.908  0.5024  0.3427  0.1180
  786MOL0     C 5990  11.362   6.616  -1.021  0.1508 -1.1404  0.3205
  786MOL0     C 5991  11.470   6.610  -1.141  0.2287 -0.6739  0.4500
  786MOL0     N 5992  11.457   6.713  -1.249 -0.2993 -0.0022 -0.5319
  786MOL0     C 5993  11.561   6.796  -1.289 -0.1820 -0.0642  0.6189
  786MOL0     C 5994  11.500   6.885  -1.366 -0.4756  0.2608 -0.1311
  786MOL0     C 5995  11.558   6.998  -1.456  0.4870 -0.0662  0.7500
  786MOL0     C 5996  11.502   7.005  -1.601  0.3282 -0.6293  0.1439
  786MOL0     C 5997  11.555   6.892  -1.691 -0.3718 -0.0457  0.6977
  786MOL0     C 5998  11.710   6.876  -1.684 -0.6692 -0.0142 -0.2930
  786MOL0     O 5999  11.743   6.761  -1.603 -0.3390  0.0126  0.4714
  786MOL0     C 6000  11.863   6.692  -1.625 -0.5795 -1.4507 -0.3919
  786MOL0     C 6001  11.891   6.607  -1.736  0.3303  0.6978 -0.1288
  786MOL0     C 6002  12.013   6.544  -1.755 -0.9622 -0.5207  0.2552
  786MOL0     C 6003  12.043   6.456  -1.878  0.0974 -0.4368  0.6342
  786MOL0     C 6004  12.109   6.557  -1.656  0.2331 -0.6182 -0.0653
  786MOL0     C 6005  12.245   6.512  -1.678  0.0314 -0.5416  0.1526
  786MOL0     O 6006  12.285   6.417  -1.594  0.6235 -0.9249 -0.3303
  786MOL0     C 6007  12.399   6.339  -1.623 -0.3329  0.1386  0.0155
  786MOL0     C 6008  12.530   6.387  -1.638 -0.1600  0.8178  0.1597
  786MOL0     C 6009  12.632   6.303  -1.675  0.2327  0.4061  0.1974
  786MOL0     C 6010  12.614   6.163  -1.684  0.8858  0.4890 -0.4384
  786MOL0     O 6011  12.731   6.089  -1.704  0.3404 -0.7902  0.0152
  786MOL0     C 6012  12.735   5.971  -1.620 -0.6485  0.0399 -0.5803
  786MOL0     C 6013  12.877   5.911  -1.607  0.9321 -0.2796  0.2334
  786MOL0     C 6014  12.981   6.018  -1.587 -0.0331  0.5428 -0.2417
  786MOL0     C 6015  13.097   5.942  -1.521 -0.0186  0.0619  0.2641
  786MOL0     C 6016  13.212   6.044  -1.483  0.6106  0.5511  0.0627
  786MOL0     C 6017  13.318   5.985  -1.395 -0.2786 -0.8217  0.1786
  786MOL0     C 6018  13.404   5.878  -1.465 -0.6936  0.3704  0.4238
  786MOL0     C 6019  13.504   5.938  -1.572  0.9697  0.0756 -0.2398
  786MOL0    Cl 6020  13.581   5.800  -1.664  0.6363  0.0141  0.3981
  786MOL0     C 6021  12.485   6.110  -1.651  0.3869 -0.5284 -0.6218
  786MOL0     C 6022  12.383   6.198  -1.625 -1.2078 -0.4515  0.3924
  786MOL0     O 6023  12.310   6.551  -1.774  0.1684  0.4431  0.2430
  786MOL0     C 6024  12.067   6.635  -1.538 -1.3587  0.2411 -1.2339
  786MOL0     C 6025  11.947   6.701  -1.525 -0.0137 -0.0950 -0.2781
  786MOL0     N 6026  11.365   6.871  -1.367  0.1909 -1.0348  0.3552
  786MOL0     N 6027  11.339   6.765  -1.298 -1.1736 -0.5258  0.6711
  786MOL0     C 6028  11.518   6.128  -0.212  0.1069 -1.2145  0.6050
  786MOL0     C 6029  11.541   6.106  -0.079 -0.0831  0.2737 -0.1302
  786MOL0     C 6030  11.523   6.164   0.396 -0.6728 -1.0450  0.0165
  786MOL0     C 6031  11.510   6.256   0.499  0.3490  0.1626 -0.6347
  786MOL0     C 6032  11.514   6.224   0.636  0.4179 -0.2883  0.5355
  786MOL0     C 6033  11.554   6.097   0.669  0.3730  1.4579 -0.4907
  786MOL0     O 6034  11.604   6.097   0.799  0.3815 -0.5724  0.4580
  786MOL0     C 6035  11.636   5.969   0.863 -0.1620  0.4174  0.6947
  786MOL0     C 6036  11.660   5.974   1.009 -1.0917 -0.7694  0.8763
  786MOL0     C 6037  11.763   6.082   1.066  0.1416 -0.0039 -0.1944
  786MOL0     C 6038  11.868   6.138   0.962  0.3241  0.3787 -0.7080
  786MOL0     C 6039  11.949   6.237   1.034 -0.2653 -0.2630  1.0654
  786MOL0     C 6040  12.028   6.315   1.090 -0.0380 -0.0056 -0.3056
  786MOL0     C 6041  11.583   6.003   0.567  0.0110 -0.2011  0.9424
  786MOL0     C 6042  11.572   6.038   0.432  0.6790  0.8091 -0.8648
  786MOL0     H 6043  11.314   6.295   0.072 -0.3711 -2.1296  1.1705
  786MOL0     H 6044  11.277   6.370  -0.169 -2.0472 -1.1712 -0.9923
  786MOL0     H 6045  11.224   6.288  -0.457  0.7288 -2.0125 -2.4922
  786MOL0     H 6046  11.335   6.407  -0.375 -0.2046 -3.1580  2.9085
  786MOL0     H 6047  11.357   6.268  -0.650  0.2066  0.1337 -0.4004
  786MOL0     H 6048  11.282   6.420  -0.628 -3.9239 -2.3557  3.7274
  786MOL0     H 6049  11.472   6.519  -0.556 -3.7000 -0.3473 -0.1613
  786MOL0     H 6050  11.572   6.363  -0.537  1.4610 -1.2037 -3.8097
  786MOL0     H 6051  11.668   6.460  -0.698 -2.4486  0.7228  3.1661
  786MOL0     H 6052  11.580   6.340  -0.789 -2.0151 -1.1456  0.5194
  786MOL0     H 6053  11.489   6.634  -0.777 -1.3072 -0.5711  0.9231
  786MOL0     H 6054  11.577   6.557  -0.912 -1.3966  0.8263 -0.5183
  786MOL0     H 6055  11.377   6.417  -0.952  0.7431  1.2035 -1.9561
  786MOL0     H 6056  11.305   6.526  -0.830  0.0919  0.4529 -0.2950
  786MOL0     H 6057  11.261   6.590  -1.053 -0.8062  3.3241 -0.8282
  786MOL0     H 6058  11.355   6.720  -0.987 -3.0357 -1.6007  1.4081
  786MOL0     H 6059  11.463   6.508  -1.178 -0.4819 -0.0676 -1.1946
  786MOL0     H 6060  11.571   6.596  -1.101  0.2018  1.4925  1.4757
  786MOL0     H 6061  11.669   6.787  -1.280  0.3592 -0.1858 -3.7544
  786MOL0     H 6062  11.515   7.088  -1.411 -0.5211 -0.4613  0.6050
  786MOL0     H 6063  11.667   6.997  -1.457  0.4813 -1.0726  0.6028
  786MOL0     H 6064  11.532   7.098  -1.649 -0.0350  0.3911  1.8397
  786MOL0     H 6065  11.393   6.997  -1.592  0.2370  1.3899  1.2937
  786MOL0     H 6066  11.532   6.904  -1.797  1.6019 -5.1801 -0.6145
  786MOL0     H 6067  11.519   6.794  -1.655  2.4728 -2.4502 -2.4307
  786MOL0     H 6068  11.767   6.967  -1.665 -1.9937  1.4112 -2.5998
  786MOL0     H 6069  11.739   6.837  -1.783  0.1877  1.4152 -0.6321
  786MOL0     H 6070  11.812   6.600  -1.809 -0.6689 -2.0600  1.0687
  786MOL0     H 6071  11.956   6.457  -1.944  0.1619  1.9981  0.4919
  786MOL0     H 6072  12.124   6.497  -1.939 -0.0799 -1.4666 -0.3246
  786MOL0     H 6073  12.063   6.352  -1.851  0.2998 -1.0758 -1.8193
  786MOL0     H 6074  12.551   6.491  -1.614  2.6795  1.5649 -4.5023
  786MOL0     H 6075  12.735   6.325  -1.701  1.9772 -4.3257  2.0269
  786MOL0     H 6076  12.706   6.004  -1.520  2.1852  2.2855 -0.3769
  786MOL0     H 6077  12.660   5.896  -1.647 -0.1901 -0.4670 -0.4664
  786MOL0     H 6078  12.869   5.852  -1.515  0.6421  2.5188  2.0895
  786MOL0     H 6079  12.896   5.838  -1.687 -3.0382 -3.2460  1.6501
  786MOL0     H 6080  12.944   6.103  -1.529 -0.8739 -0.6238  1.0064
  786MOL0     H 6081  13.012   6.067  -1.680 -0.1916 -1.5849 -1.4844
  786MOL0     H 6082  13.061   5.889  -1.432 -1.6789 -3.9922 -2.5663
  786MOL0     H 6083  13.143   5.880  -1.598  2.3012  3.3107 -1.2088
  786MOL0     H 6084  13.167   6.121  -1.419  3.1220  2.1776  0.0234
  786MOL0     H 6085  13.242   6.088  -1.579  1.4773  0.6544  0.3783
  786MOL0     H 6086  13.381   6.065  -1.353  0.1191 -1.8185  1.5871
  786MOL0     H 6087  13.274   5.931  -1.310  1.7881 -2.4570  0.2925
  786MOL0     H 6088  13.352   5.789  -1.501 -0.6399  0.5058  0.0092
  786MOL0     H 6089  13.469   5.832  -1.390 -0.4721  0.5016  0.3133
  786MOL0     H 6090  13.580   5.994  -1.516 -2.4953  4.1023  0.9124
  786MOL0     H 6091  13.454   6.006  -1.642  0.8786  2.0791  1.6561
  786MOL0     H 6092  12.475   6.003  -1.636  0.3545 -0.4317  0.0986
  786MOL0     H 6093  12.280   6.163  -1.620 -0.4061 -3.1667 -0.4511
  786MOL0     H 6094  12.128   6.660  -1.452 -0.3626 -2.9319 -0.9027
  786MOL0     H 6095  11.921   6.758  -1.437 -0.5782  0.1108 -0.5754
  786MOL0     H 6096  11.578   6.078  -0.287  2.8214  0.1968  1.7015
  786MOL0     H 6097  11.605   6.019  -0.070 -0.8080 -0.4747 -1.7297
  786MOL0     H 6098  11.484   6.358   0.471 -0.0108 -0.4662 -2.7474
  786MOL0     H 6099  11.492   6.292   0.718  0.7573  1.9207 -1.1040
  786MOL0     H 6100  11.549   5.903   0.868  1.6057 -2.5698 -2.6774
  786MOL0     H 6101  11.715   5.916   0.809 -1.5225  0.9219 -1.9956
  786MOL0     H 6102  11.708   5.882   1.044  0.3273  0.8166  3.3719
  786MOL0     H 6103  11.575   6.000   1.074 -1.6896 -0.7392  0.1020
  786MOL0     H 6104  11.827   6.031   1.138  0.7536  0.4930 -0.3679
  786MOL0     H 6105  11.707   6.162   1.114  0.8175 -0.6778  1.8049
  786MOL0     H 6106  11.817   6.190   0.880 -0.4639 -0.0794 -0.5171
  786MOL0     H 6107  11.932   6.057   0.926  1.7887  1.4347 -0.5840
  786MOL0     H 6108  12.101   6.386   1.121 -0.7003  0.9587 -0.9125
  786MOL0     H 6109  11.605   5.899   0.587  1.5380 -0.2011 -0.5179
  786MOL0     H 6110  11.598   5.965   0.356  2.1722  0.0575  0.3276
  787MOL0     O 6111   4.435   6.800   5.878  0.0036 -1.0709 -0.1132
  787MOL0     C 6112   4.376   6.725   5.804  0.2425 -0.8193 -0.6459
  787MOL0     O 6113   4.239   6.694   5.806 -0.0986 -0.1740  0.1958
  787MOL0     C 6114   4.156   6.749   5.905  0.3175  0.3886  0.3143
  787MOL0     C 6115   4.090   6.664   5.997  0.4385  0.7869  0.9734
  787MOL0     C 6116   4.014   6.710   6.101  0.1688 -0.3206  0.3762
  787MOL0     C 6117   3.993   6.849   6.107  0.1401  0.3042 -0.4912
  787MOL0     O 6118   3.912   6.918   6.196  0.0526 -0.4325 -0.1362
  787MOL0     C 6119   3.862   6.839   6.304 -0.1096 -0.6536  0.2378
  787MOL0     C 6120   3.809   6.936   6.409 -0.4518 -0.3807 -0.3024
  787MOL0     C 6121   3.740   6.867   6.526 -0.4656  0.3658 -0.0174
  787MOL0     C 6122   3.602   6.934   6.548 -0.3559 -1.0640  0.0785
  787MOL0     C 6123   3.521   6.910   6.672  0.3005 -0.4288 -0.4996
  787MOL0     C 6124   3.432   7.028   6.706  0.9109  0.0818 -1.1626
  787MOL0     C 6125   3.335   7.003   6.833  0.1900  0.5722 -0.2633
  787MOL0     C 6126   3.263   7.145   6.838 -0.2856  0.2030 -0.0888
  787MOL0     N 6127   3.148   7.136   6.923 -0.1222  0.3223 -0.3911
  787MOL0     C 6128   3.154   7.125   7.058  0.2993 -0.6086 -0.1500
  787MOL0     C 6129   3.025   7.137   7.096 -0.5584  0.1237 -0.4446
  787MOL0     C 6130   2.962   7.121   7.233 -0.4883 -0.7764  0.0790
  787MOL0     C 6131   2.979   6.972   7.285 -0.1029  0.5396 -0.5042
  787MOL0     C 6132   2.908   6.934   7.429  0.2407 -0.5045 -0.4693
  787MOL0     C 6133   2.906   7.046   7.524  0.0970  0.5690 -0.2384
  787MOL0     O 6134   3.037   7.089   7.554 -0.5332  0.5897  0.4844
  787MOL0     C 6135   3.066   7.191   7.633 -0.5658  0.1014 -0.4680
  787MOL0     C 6136   2.975   7.247   7.716 -0.1743 -0.7242 -0.2626
  787MOL0     C 6137   2.999   7.369   7.784 -0.2012  0.1950 -0.6163
  787MOL0     C 6138   2.878   7.418   7.851  0.4227  0.3358  0.9712
  787MOL0     C 6139   3.133   7.413   7.801  0.2500 -0.2709  0.2832
  787MOL0     C 6140   3.164   7.525   7.889 -0.4163 -0.7120 -1.2697
  787MOL0     O 6141   3.058   7.590   7.940 -0.5054 -0.4035  0.0938
  787MOL0     C 6142   3.088   7.665   8.048 -0.0961 -0.9660  0.4901
  787MOL0     C 6143   3.037   7.606   8.162  1.1577  0.8489  0.6630
  787MOL0     C 6144   3.060   7.674   8.286  0.2230  0.1096 -0.4505
  787MOL0     C 6145   3.125   7.803   8.283 -0.2184  0.1579  0.1082
  787MOL0     O 6146   3.165   7.859   8.408  0.4043 -0.3585  0.5559
  787MOL0     C 6147   3.106   7.819   8.534  0.9945  0.1107  0.6317
  787MOL0     C 6148   3.141   7.922   8.635 -0.1900 -0.4308 -0.1764
  787MOL0     C 6149   3.084   8.062   8.617 -0.4611  0.1450 -0.2440
  787MOL0     C 6150   3.043   8.130   8.745 -0.6566  0.3959  0.3185
  787MOL0     C 6151   2.955   8.254   8.727 -0.3051 -0.1144  0.0946
  787MOL0     C 6152   2.978   8.342   8.853 -0.4396 -0.9081  0.0481
  787MOL0     C 6153   3.117   8.414   8.852  0.4825 -0.0802  0.3539
  787MOL0     C 6154   3.105   8.552   8.918 -0.8536 -0.3514 -0.4361
  787MOL0    Cl 6155   3.259   8.630   8.928 -0.4246  0.1230  0.0792
  787MOL0     C 6156   3.177   7.857   8.166  0.8282  0.3911  0.2527
  787MOL0     C 6157   3.154   7.788   8.043 -0.7686  0.1900 -0.4673
  787MOL0     O 6158   3.279   7.549   7.928 -0.0488 -0.0896  0.1812
  787MOL0     C 6159   3.231   7.340   7.731 -0.5274 -1.4750  0.5402
  787MOL0     C 6160   3.203   7.236   7.649 -0.0169  0.0175 -0.2283
  787MOL0     N 6161   2.937   7.155   6.990 -0.2485 -0.0941 -0.5109
  787MOL0     N 6162   3.017   7.161   6.889 -0.6034 -0.3263 -0.4175
  787MOL0     C 6163   4.053   6.936   6.012 -0.0051  0.5980 -0.9799
  787MOL0     C 6164   4.131   6.884   5.913  0.1654  0.5788  0.8420
  787MOL0     C 6165   4.469   6.678   5.697  1.1229 -0.3795  0.1074
  787MOL0     C 6166   4.608   6.655   5.708  0.4908 -0.6138  0.2947
  787MOL0     C 6167   4.678   6.600   5.607 -0.4123 -0.1281  0.2075
  787MOL0     C 6168   4.612   6.553   5.493 -0.5312 -0.0748 -0.2776
  787MOL0     O 6169   4.696   6.504   5.401 -0.8780  0.0541  0.2380
  787MOL0     C 6170   4.630   6.442   5.285 -1.1477 -0.6094 -0.2903
  787MOL0     C 6171   4.687   6.328   5.216 -0.3824  0.3919  0.3571
  787MOL0     C 6172   4.837   6.311   5.225  0.7387 -0.9451 -0.0533
  787MOL0     C 6173   4.925   6.417   5.155  0.1044  0.2145  0.4023
  787MOL0     C 6174   4.870   6.409   5.011  0.2841 -0.2301  0.1469
  787MOL0     C 6175   4.837   6.413   4.894 -0.0579 -0.2393 -0.6338
  787MOL0     C 6176   4.474   6.577   5.480 -0.4568 -0.9374  0.5011
  787MOL0     C 6177   4.401   6.633   5.579 -0.8331  1.1498 -0.9216
  787MOL0     H 6178   4.119   6.559   5.990 -2.1465  0.1438 -2.0896
  787MOL0     H 6179   3.981   6.629   6.166  2.1784 -2.1412 -0.7383
  787MOL0     H 6180   3.788   6.770   6.263  1.0576 -1.0357 -1.3246
  787MOL0     H 6181   3.950   6.783   6.338  2.1354  1.0939 -2.2812
  787MOL0     H 6182   3.899   6.994   6.434  1.2934 -1.4208 -3.5472
  787MOL0     H 6183   3.739   7.000   6.353 -2.8390 -1.8713  0.8257
  787MOL0     H 6184   3.736   6.759   6.509  1.2799  0.6169 -2.7625
  787MOL0     H 6185   3.799   6.876   6.618  5.4344 -1.7755 -3.0200
  787MOL0     H 6186   3.620   7.042   6.540 -0.2433 -0.7199  3.5272
  787MOL0     H 6187   3.536   6.910   6.464 -1.4571  1.8777 -0.0321
  787MOL0     H 6188   3.462   6.818   6.658  0.1787 -0.3423 -0.5519
  787MOL0     H 6189   3.585   6.891   6.759 -1.2516 -3.5271  0.1224
  787MOL0     H 6190   3.490   7.119   6.726  1.7714  0.1808 -3.7092
  787MOL0     H 6191   3.363   7.040   6.622 -0.9608 -4.0546 -0.4368
  787MOL0     H 6192   3.257   6.929   6.816 -2.0908  3.1893 -2.0084
  787MOL0     H 6193   3.382   6.990   6.931 -2.6587  1.6128  1.3507
  787MOL0     H 6194   3.225   7.160   6.737 -2.3464  0.5234  0.6986
  787MOL0     H 6195   3.312   7.237   6.874 -3.9356  0.7507  4.3835
  787MOL0     H 6196   3.243   7.099   7.116 -0.4949 -0.9726  0.9355
  787MOL0     H 6197   3.008   7.199   7.294 -0.6716  0.1399 -0.9295
  787MOL0     H 6198   2.863   7.166   7.235 -0.5113 -0.8373  0.6244
  787MOL0     H 6199   3.085   6.957   7.303  0.4964  0.4763 -3.5163
  787MOL0     H 6200   2.946   6.902   7.207  1.8654  0.2189 -1.0962
  787MOL0     H 6201   2.966   6.850   7.468  0.5081 -0.6000 -1.0688
  787MOL0     H 6202   2.808   6.901   7.400 -1.4010  4.6180 -1.7459
  787MOL0     H 6203   2.864   7.010   7.619 -0.5193 -0.6999 -0.9702
  787MOL0     H 6204   2.850   7.133   7.488  0.1117 -0.2715 -2.4079
  787MOL0     H 6205   2.877   7.204   7.703  0.1659 -3.5000  4.1860
  787MOL0     H 6206   2.858   7.513   7.801  1.7930 -0.1349 -0.5583
  787MOL0     H 6207   2.795   7.347   7.841 -0.3579  0.6716  4.0238
  787MOL0     H 6208   2.898   7.430   7.958  2.3018  1.4034  0.5428
  787MOL0     H 6209   2.975   7.517   8.165  3.2903 -0.7309 -0.1981
  787MOL0     H 6210   3.010   7.629   8.372 -2.3577  2.1941 -0.7269
  787MOL0     H 6211   2.999   7.799   8.522  1.3490 -1.7802  0.3058
  787MOL0     H 6212   3.140   7.722   8.570 -3.0561 -0.9196  2.1940
  787MOL0     H 6213   3.105   7.882   8.730  0.8457 -0.2899  0.2934
  787MOL0     H 6214   3.251   7.924   8.643 -0.0977 -2.2916 -0.5875
  787MOL0     H 6215   2.989   8.060   8.562 -0.9652 -1.8419  0.5956
  787MOL0     H 6216   3.145   8.130   8.559 -1.4902  0.2940 -1.1901
  787MOL0     H 6217   2.991   8.063   8.814 -1.3314  0.8026  0.2134
  787MOL0     H 6218   3.145   8.152   8.780  1.8737 -3.4400 -3.5542
  787MOL0     H 6219   2.849   8.231   8.717 -0.8325  1.9593  0.4365
  787MOL0     H 6220   2.990   8.311   8.641  1.9532  1.8641  2.1466
  787MOL0     H 6221   2.904   8.422   8.866  1.8735  1.3976 -0.0625
  787MOL0     H 6222   2.979   8.281   8.944 -1.2325 -3.7521 -1.7527
  787MOL0     H 6223   3.160   8.442   8.755 -1.3321  2.5991  0.2263
  787MOL0     H 6224   3.197   8.360   8.904  2.3819 -1.9021 -3.9832
  787MOL0     H 6225   3.065   8.532   9.017  3.3273  0.1727  1.5599
  787MOL0     H 6226   3.024   8.604   8.867 -3.7284 -2.0478  2.0937
  787MOL0     H 6227   3.243   7.943   8.173  1.6342  0.0578 -2.4273
  787MOL0     H 6228   3.207   7.817   7.953  0.7636 -0.5990  0.1421
  787MOL0     H 6229   3.338   7.355   7.747 -0.9225  1.7655  0.8127
  787MOL0     H 6230   3.276   7.169   7.606 -0.8940 -1.4807  0.5403
  787MOL0     H 6231   4.025   7.040   6.028 -3.2398 -0.4582  1.1197
  787MOL0     H 6232   4.183   6.950   5.845  0.6056  0.1032  0.7075
  787MOL0     H 6233   4.670   6.682   5.793 -0.8917 -0.1852  1.1857
  787MOL0     H 6234   4.787   6.602   5.609 -0.3324 -2.6477  0.8479
  787MOL0     H 6235   4.535   6.401   5.321 -0.4296 -0.1423  2.3361
  787MOL0     H 6236   4.617   6.525   5.215  0.6380  1.8973  2.1558
  787MOL0     H 6237   4.646   6.318   5.115 -0.7919  0.4644  0.5156
  787MOL0     H 6238   4.649   6.236   5.263 -1.0121  0.9695  1.0063
  787MOL0     H 6239   4.861   6.211   5.188  3.0563 -0.6016  0.3227
  787MOL0     H 6240   4.868   6.312   5.330  0.0410  1.1449  0.1859
  787MOL0     H 6241   5.033   6.403   5.164 -0.1584 -2.5765  0.2959
  787MOL0     H 6242   4.904   6.512   5.204 -2.5953 -0.0838 -0.0326
  787MOL0     H 6243   4.800   6.400   4.795  0.3914 -2.2665 -0.5771
  787MOL0     H 6244   4.428   6.567   5.382  2.1680 -2.7477 -0.6423
  787MOL0     H 6245   4.299   6.666   5.563 -0.5891  2.7231  0.4488
  788MOL0     O 6246   1.359   1.035   0.638  0.6593  0.2160 -0.0356
  788MOL0     C 6247   1.331   0.946   0.559 -0.0636  0.1738  0.2142
  788MOL0     O 6248   1.326   0.953   0.422  0.6014 -0.2630 -0.3368
  788MOL0     C 6249   1.315   1.076   0.354 -0.5017  0.5557 -0.0766
  788MOL0     C 6250   1.288   1.061   0.219  0.6190  0.0555 -0.6415
  788MOL0     C 6251   1.288   1.173   0.143 -0.5572 -0.6043  0.5149
  788MOL0     C 6252   1.308   1.304   0.197 -0.0837  0.3326  0.3644
  788MOL0     O 6253   1.292   1.414   0.115 -0.3673  0.3986 -0.0285
  788MOL0     C 6254   1.156   1.475   0.104  0.1079 -0.8957  0.0710
  788MOL0     C 6255   1.145   1.595   0.197 -0.5157  1.2417 -0.6605
  788MOL0     C 6256   1.279   1.685   0.218  0.4604  0.1558  0.4865
  788MOL0     C 6257   1.297   1.750   0.080  0.1963  0.2851  0.6316
  788MOL0     C 6258   1.202   1.868   0.056 -0.1519 -0.1801  0.1262
  788MOL0     C 6259   1.202   1.910  -0.090 -0.8281  0.1219 -0.6292
  788MOL0     C 6260   1.127   2.043  -0.111  0.4158  0.2011  0.0718
  788MOL0     C 6261   0.978   2.022  -0.096  0.2057  0.1173 -0.7872
  788MOL0     N 6262   0.895   2.137  -0.111 -0.5597  0.8756 -0.1494
  788MOL0     C 6263   0.878   2.239  -0.023 -0.1893 -0.8585 -0.1491
  788MOL0     C 6264   0.830   2.339  -0.103  0.1525  1.0889 -0.2003
  788MOL0     C 6265   0.785   2.466  -0.048 -0.4315  0.2872 -0.1729
  788MOL0     C 6266   0.863   2.581  -0.115 -0.1365  0.6513  0.6331
  788MOL0     C 6267   0.791   2.708  -0.126  0.1981 -1.2678  0.2790
  788MOL0     C 6268   0.732   2.768  -0.002  0.1180 -0.1790 -0.3085
  788MOL0     O 6269   0.767   2.905   0.019 -0.4953  0.0145  0.8492
  788MOL0     C 6270   0.739   2.970   0.139  0.5723  0.7375  0.4404
  788MOL0     C 6271   0.680   2.924   0.255 -1.0701  0.0152 -0.5535
  788MOL0     C 6272   0.649   3.008   0.362 -1.7222 -0.6871 -0.4473
  788MOL0     C 6273   0.588   2.932   0.470  0.0052 -0.4844  0.6442
  788MOL0     C 6274   0.692   3.142   0.367 -0.2476 -0.0071 -0.2836
  788MOL0     C 6275   0.678   3.230   0.487  1.2464  0.1219  0.3926
  788MOL0     O 6276   0.729   3.359   0.464 -0.2696  0.8486 -0.4551
  788MOL0     C 6277   0.676   3.464   0.526 -0.4269 -0.8893  1.2021
  788MOL0     C 6278   0.763   3.571   0.553 -0.0846 -0.3457 -0.4773
  788MOL0     C 6279   0.725   3.686   0.627  0.9780 -0.3454 -0.2298
  788MOL0     C 6280   0.597   3.682   0.697  0.0091  1.0693  0.2077
  788MOL0     O 6281   0.559   3.781   0.771  0.2994 -0.6219  0.2787
  788MOL0     C 6282   0.603   3.761   0.902 -0.2054  0.8628 -0.4741
  788MOL0     C 6283   0.549   3.867   1.002  0.5087  0.0264 -0.2676
  788MOL0     C 6284   0.406   3.868   1.048 -0.5706  0.3982 -1.3391
  788MOL0     C 6285   0.336   3.959   0.949 -0.0835  1.1154 -0.6606
  788MOL0     C 6286   0.186   3.973   0.974 -0.3619 -0.0157  0.7547
  788MOL0     C 6287   0.155   4.023   1.114  0.5781  0.7398 -0.3148
  788MOL0     C 6288  -0.001   4.028   1.151 -0.1429 -0.2312 -0.4698
  788MOL0     C 6289  -0.027   4.104   1.282 -0.8128 -0.2070  0.3468
  788MOL0    Cl 6290  -0.163   4.214   1.243 -0.0597  0.2380  0.1009
  788MOL0     C 6291   0.512   3.576   0.661  0.3645  0.7764  0.8898
  788MOL0     C 6292   0.548   3.473   0.574 -0.2569 -0.4005  0.1645
  788MOL0     O 6293   0.651   3.186   0.592  0.2771 -0.4152 -0.1198
  788MOL0     C 6294   0.743   3.193   0.245 -0.0291  0.4028 -0.4566
  788MOL0     C 6295   0.759   3.102   0.141 -0.7659 -0.1636 -0.0949
  788MOL0     N 6296   0.813   2.287  -0.234 -0.0335 -0.2634 -0.5899
  788MOL0     N 6297   0.851   2.169  -0.239  0.1365  0.7604 -0.2795
  788MOL0     C 6298   1.338   1.322   0.331  0.5403  0.0481  0.5736
  788MOL0     C 6299   1.341   1.203   0.410 -0.6593 -0.0801 -0.7257
  788MOL0     C 6300   1.315   0.800   0.611 -0.1361  0.2364  0.6843
  788MOL0     C 6301   1.391   0.760   0.716  0.2396  1.1184  0.6981
  788MOL0     C 6302   1.370   0.631   0.771 -0.1640 -1.0775 -0.2126
  788MOL0     C 6303   1.281   0.538   0.713 -0.0169 -0.1158 -0.1334
  788MOL0     O 6304   1.265   0.405   0.757  0.8757  0.3947  0.6347
  788MOL0     C 6305   1.388   0.336   0.774 -0.0376  0.3400  0.4705
  788MOL0     C 6306   1.371   0.185   0.741  0.1019 -0.7481  0.8168
  788MOL0     C 6307   1.445   0.156   0.609  0.1124 -0.8155  0.9236
  788MOL0     C 6308   1.460   0.001   0.584 -0.6220 -0.1213 -0.3253
  788MOL0     C 6309   1.531  -0.072   0.687  0.6767 -0.0607 -0.7584
  788MOL0     C 6310   1.588  -0.135   0.775 -0.1369  0.3941  0.1333
  788MOL0     C 6311   1.204   0.583   0.607  0.5087  0.4626  1.2417
  788MOL0     C 6312   1.223   0.711   0.553  0.9462  0.0845 -0.4581
  788MOL0     H 6313   1.276   0.968   0.165 -0.4721  0.1796 -0.6269
  788MOL0     H 6314   1.294   1.168   0.035  2.9364 -0.2294  0.5535
  788MOL0     H 6315   1.145   1.515   0.003  1.5733 -2.0869 -0.5887
  788MOL0     H 6316   1.067   1.415   0.124 -1.6464  0.6440 -2.5228
  788MOL0     H 6317   1.063   1.662   0.168 -2.1643 -0.4052 -0.0100
  788MOL0     H 6318   1.112   1.567   0.297  0.5012 -0.5456 -0.7839
  788MOL0     H 6319   1.275   1.757   0.300 -1.0556  0.8220 -0.1260
  788MOL0     H 6320   1.360   1.615   0.240 -0.9288 -1.2566  1.3412
  788MOL0     H 6321   1.402   1.780   0.088  0.4672 -0.4896  0.0800
  788MOL0     H 6322   1.297   1.689  -0.011 -1.9560  3.1206 -1.4636
  788MOL0     H 6323   1.099   1.843   0.086 -0.1702 -1.3896 -0.8568
  788MOL0     H 6324   1.240   1.946   0.122 -0.2873 -0.8451  0.9939
  788MOL0     H 6325   1.306   1.930  -0.118 -0.6655  2.8273  1.5982
  788MOL0     H 6326   1.152   1.824  -0.135 -0.1496 -0.2262 -0.7351
  788MOL0     H 6327   1.159   2.134  -0.060  2.2495  0.1258 -0.8514
  788MOL0     H 6328   1.137   2.070  -0.217  0.8062 -1.6319 -0.3938
  788MOL0     H 6329   0.964   1.992   0.008  1.3789  3.9968  0.6658
  788MOL0     H 6330   0.938   1.950  -0.169 -3.6044  1.0812  0.1123
  788MOL0     H 6331   0.899   2.239   0.083 -3.6393  0.8190  0.6687
  788MOL0     H 6332   0.677   2.475  -0.067  0.0932 -1.3149 -5.5341
  788MOL0     H 6333   0.811   2.464   0.058 -2.5339  1.2024  0.4177
  788MOL0     H 6334   0.892   2.555  -0.217 -2.1433  2.1112 -0.3661
  788MOL0     H 6335   0.953   2.604  -0.057  0.3947 -2.8758  1.4823
  788MOL0     H 6336   0.718   2.709  -0.207  0.6601  1.4552 -0.2082
  788MOL0     H 6337   0.867   2.781  -0.155 -0.3338 -0.3934  1.0159
  788MOL0     H 6338   0.764   2.710   0.085  0.2265  0.1876 -0.1020
  788MOL0     H 6339   0.623   2.779  -0.001  0.0874 -0.5421  0.7239
  788MOL0     H 6340   0.656   2.818   0.264 -2.6574  0.5019  1.4990
  788MOL0     H 6341   0.651   2.869   0.535 -1.3532 -1.2834  1.2269
  788MOL0     H 6342   0.524   2.993   0.534 -1.3698 -1.5662  0.3276
  788MOL0     H 6343   0.519   2.857   0.430  1.8770 -1.7544 -0.4071
  788MOL0     H 6344   0.866   3.544   0.530 -0.3684 -1.4290 -0.5144
  788MOL0     H 6345   0.794   3.770   0.636 -0.4435  0.8520  0.0173
  788MOL0     H 6346   0.572   3.663   0.940  3.6636 -0.0687  0.6625
  788MOL0     H 6347   0.711   3.759   0.913 -0.3725  0.7403  1.5800
  788MOL0     H 6348   0.594   3.837   1.097 -1.9962 -3.5216 -0.0253
  788MOL0     H 6349   0.587   3.966   0.973 -0.6782  1.5152  2.8502
  788MOL0     H 6350   0.418   3.927   1.139  1.4357 -1.0816 -0.5616
  788MOL0     H 6351   0.366   3.768   1.065  2.1171 -0.8410 -1.8191
  788MOL0     H 6352   0.387   4.055   0.963 -0.3523  0.8848  2.7515
  788MOL0     H 6353   0.343   3.927   0.845 -3.2904  0.4385 -0.7752
  788MOL0     H 6354   0.146   3.873   0.957  3.0190 -2.0621  3.4764
  788MOL0     H 6355   0.136   4.041   0.904  0.0512  2.6053  2.8283
  788MOL0     H 6356   0.207   3.969   1.194  4.1687  1.3701 -1.9856
  788MOL0     H 6357   0.186   4.128   1.116 -0.4187  1.0595 -0.8953
  788MOL0     H 6358  -0.050   3.930   1.158  1.1968 -0.8817  0.1221
  788MOL0     H 6359  -0.047   4.079   1.067 -4.2648 -1.2829  0.9095
  788MOL0     H 6360   0.058   4.167   1.310 -0.7798 -0.6361  1.2684
  788MOL0     H 6361  -0.049   4.047   1.374  0.4759  1.6674  1.8916
  788MOL0     H 6362   0.409   3.571   0.696  0.0298  1.5629  0.0348
  788MOL0     H 6363   0.470   3.402   0.547  0.2135  0.0524 -2.6534
  788MOL0     H 6364   0.772   3.294   0.222 -0.0534  0.0387 -2.1613
  788MOL0     H 6365   0.793   3.142   0.046 -3.3163  2.0012 -0.2047
  788MOL0     H 6366   1.374   1.414   0.377  1.0669 -1.3329  3.1088
  788MOL0     H 6367   1.368   1.223   0.513 -0.3752 -0.9158 -0.6292
  788MOL0     H 6368   1.454   0.831   0.768 -0.3746  1.2501  1.2711
  788MOL0     H 6369   1.423   0.603   0.862  2.6533 -2.4652 -2.1179
  788MOL0     H 6370   1.471   0.381   0.719 -0.2921  3.4070  2.3598
  788MOL0     H 6371   1.415   0.353   0.879  1.1970  3.2455 -0.2316
  788MOL0     H 6372   1.266   0.158   0.725 -0.3065  1.9474 -2.0872
  788MOL0     H 6373   1.408   0.120   0.820  0.5122 -2.6782 -0.8717
  788MOL0     H 6374   1.545   0.198   0.619  0.1962 -0.5623 -0.7349
  788MOL0     H 6375   1.403   0.201   0.519  2.0468 -1.5520 -0.4151
  788MOL0     H 6376   1.521  -0.022   0.496  0.3588 -5.3603  1.3925
  788MOL0     H 6377   1.361  -0.042   0.566 -0.3438  0.0473 -2.5158
  788MOL0     H 6378   1.628  -0.198   0.853 -0.2196  1.4826  1.0868
  788MOL0     H 6379   1.135   0.512   0.564  0.7209  1.7283 -1.3479
  788MOL0     H 6380   1.153   0.728   0.471  0.2138 -4.5303 -1.0731
  789MOL0     O 6381   3.148   6.013   3.544  0.3475 -0.1900  0.3641
  789MOL0     C 6382   3.133   6.005   3.662  0.0595  0.4545  0.0729
  789MOL0     O 6383   3.013   5.979   3.732 -0.0788 -0.3572 -0.1287
  789MOL0     C 6384   2.898   5.978   3.655  0.7074  0.4514  0.6712
  789MOL0     C 6385   2.878   5.916   3.527  0.2131  0.2424  0.6782
  789MOL0     C 6386   2.746   5.908   3.480 -0.4150  0.2936  0.4063
  789MOL0     C 6387   2.635   5.937   3.564 -0.0942  0.7925  0.7458
  789MOL0     O 6388   2.513   5.916   3.509  0.1643 -0.1941  0.5342
  789MOL0     C 6389   2.402   5.874   3.590 -0.4054 -0.0139  0.8032
  789MOL0     C 6390   2.273   5.871   3.512  0.6507  0.0330 -0.2001
  789MOL0     C 6391   2.203   6.012   3.508 -0.2238 -0.5669 -0.2915
  789MOL0     C 6392   2.128   6.043   3.372  0.2344 -0.1452 -0.8601
  789MOL0     C 6393   2.126   6.190   3.343  0.7472 -0.5838  0.1080
  789MOL0     C 6394   2.056   6.224   3.208 -0.8936  0.2059  0.1784
  789MOL0     C 6395   2.065   6.361   3.155 -0.3014 -0.1281 -0.7526
  789MOL0     C 6396   1.994   6.377   3.016 -1.1365 -0.4879 -0.0930
  789MOL0     N 6397   1.857   6.320   3.012 -0.4770  0.2240  0.0923
  789MOL0     C 6398   1.818   6.193   2.978 -0.5354 -0.2345  0.0813
  789MOL0     C 6399   1.688   6.199   2.973  0.1773  0.4670 -0.7562
  789MOL0     C 6400   1.585   6.095   2.942  0.1432  0.1833  0.8927
  789MOL0     C 6401   1.505   6.065   3.068  0.9478  0.1604  0.4598
  789MOL0     C 6402   1.403   5.954   3.043  0.1042 -0.3634 -0.0744
  789MOL0     C 6403   1.309   5.916   3.162  0.2286 -0.5296 -0.3841
  789MOL0     O 6404   1.385   5.857   3.262 -0.0159 -0.6435  0.8899
  789MOL0     C 6405   1.332   5.818   3.382 -0.5955 -0.4319 -0.2922
  789MOL0     C 6406   1.201   5.812   3.421 -0.0115  0.2117  0.1517
  789MOL0     C 6407   1.161   5.762   3.548  0.1679 -0.4289  0.3565
  789MOL0     C 6408   1.020   5.771   3.576  0.1309  0.8760  0.8192
  789MOL0     C 6409   1.259   5.712   3.641  0.8848 -0.4985  0.1815
  789MOL0     C 6410   1.230   5.666   3.777 -0.0900  0.2748 -0.6179
  789MOL0     O 6411   1.133   5.560   3.785  0.5601  0.2072 -0.8957
  789MOL0     C 6412   1.116   5.505   3.909  0.5310 -0.4648  1.6170
  789MOL0     C 6413   1.025   5.569   3.986  0.5876  0.1807 -0.8991
  789MOL0     C 6414   1.001   5.515   4.114  0.5951 -0.4316 -0.1143
  789MOL0     C 6415   1.061   5.395   4.164  0.5664 -0.9442 -1.2172
  789MOL0     O 6416   1.032   5.354   4.298  0.1809 -0.0308  0.9015
  789MOL0     C 6417   1.108   5.245   4.354 -0.2423  0.9694 -0.8771
  789MOL0     C 6418   1.092   5.246   4.503 -0.1964 -0.2458 -0.0567
  789MOL0     C 6419   1.173   5.139   4.576  0.0634 -0.1367  0.3502
  789MOL0     C 6420   1.126   4.991   4.565  0.8905 -0.9639 -0.3485
  789MOL0     C 6421   1.229   4.903   4.643  0.6423  0.9366 -0.6011
  789MOL0     C 6422   1.179   4.759   4.657 -0.1080 -0.0610 -0.3367
  789MOL0     C 6423   1.174   4.692   4.521 -0.7418 -0.4779 -0.4687
  789MOL0     C 6424   1.107   4.556   4.540 -0.3180  0.5213 -0.2238
  789MOL0    Cl 6425   1.069   4.470   4.387  0.0989 -0.0258 -0.4682
  789MOL0     C 6426   1.152   5.341   4.073 -0.7049  0.4802  0.3425
  789MOL0     C 6427   1.177   5.389   3.949 -0.0914  1.0743 -0.2518
  789MOL0     O 6428   1.268   5.735   3.866  0.0409 -0.1035 -0.1853
  789MOL0     C 6429   1.395   5.718   3.594  0.4056 -0.1686 -0.2544
  789MOL0     C 6430   1.431   5.765   3.465 -0.8901 -0.3447  0.1550
  789MOL0     N 6431   1.645   6.330   2.993  0.0657 -0.6781  0.1478
  789MOL0     N 6432   1.749   6.400   3.015  0.7360  0.0493  0.0683
  789MOL0     C 6433   2.660   5.998   3.689 -0.2695 -0.3367 -0.5142
  789MOL0     C 6434   2.788   6.022   3.730  0.0760 -0.3724 -0.2667
  789MOL0     C 6435   3.259   6.038   3.726 -1.0734 -0.2711 -0.5529
  789MOL0     C 6436   3.280   5.991   3.860  0.4888  0.3628  0.4463
  789MOL0     C 6437   3.399   6.014   3.922 -0.6647 -0.6859  0.7846
  789MOL0     C 6438   3.505   6.076   3.853 -0.7116  0.7902  0.3632
  789MOL0     O 6439   3.639   6.090   3.901  0.4465 -0.4548 -0.3545
  789MOL0     C 6440   3.675   6.027   4.026  0.2547  1.0423  0.7810
  789MOL0     C 6441   3.820   6.040   4.061 -0.8963  0.6509 -0.2165
  789MOL0     C 6442   3.858   6.186   4.080  0.3075 -0.8318 -0.2559
  789MOL0     C 6443   4.004   6.199   4.065 -0.2083  0.0355 -0.2829
  789MOL0     C 6444   4.060   6.185   3.924 -0.0630 -0.5682 -1.5188
  789MOL0     C 6445   4.106   6.187   3.815  0.6791 -0.4810  0.5089
  789MOL0     C 6446   3.486   6.135   3.731 -0.1974 -0.4432  0.9535
  789MOL0     C 6447   3.368   6.110   3.669 -0.2233  0.5890  0.5439
  789MOL0     H 6448   2.964   5.875   3.475 -1.4318 -3.4642  0.6229
  789MOL0     H 6449   2.723   5.879   3.378 -1.0769  0.1727  0.5893
  789MOL0     H 6450   2.413   5.768   3.615 -2.2363 -0.2515  0.7967
  789MOL0     H 6451   2.389   5.935   3.680 -2.1209  3.3518 -1.5064
  789MOL0     H 6452   2.283   5.833   3.410  0.6453  0.4899 -0.3721
  789MOL0     H 6453   2.202   5.800   3.555  0.3756 -0.4877 -1.4720
  789MOL0     H 6454   2.141   6.015   3.598 -2.7476 -1.4030 -1.9120
  789MOL0     H 6455   2.273   6.089   3.540 -2.6729  1.7221 -0.1439
  789MOL0     H 6456   2.173   5.994   3.284  1.4857  0.9382 -0.8514
  789MOL0     H 6457   2.026   6.005   3.382  0.1023  0.1176 -1.2129
  789MOL0     H 6458   2.067   6.240   3.421  2.8054  1.2778  0.5861
  789MOL0     H 6459   2.233   6.215   3.336  1.1104 -1.7297  1.0750
  789MOL0     H 6460   2.101   6.155   3.136  0.0595 -1.3534  2.1784
  789MOL0     H 6461   1.950   6.200   3.212 -0.6690 -1.5443 -2.1849
  789MOL0     H 6462   2.020   6.434   3.223 -2.1451 -1.2676 -0.6679
  789MOL0     H 6463   2.172   6.382   3.151  0.0064 -1.3703  0.5322
  789MOL0     H 6464   2.066   6.323   2.954 -2.2581 -2.2724  0.0932
  789MOL0     H 6465   1.990   6.484   2.992  1.1919  0.4571  3.0658
  789MOL0     H 6466   1.879   6.105   2.959 -0.3540 -0.2989  0.9208
  789MOL0     H 6467   1.528   6.143   2.862  4.8920  1.0072 -2.4526
  789MOL0     H 6468   1.617   5.999   2.900  0.3746 -0.2619  2.0426
  789MOL0     H 6469   1.449   6.153   3.102 -0.3693 -0.1310 -0.8693
  789MOL0     H 6470   1.571   6.038   3.151 -0.0268 -0.6295  1.0027
  789MOL0     H 6471   1.452   5.859   3.021 -1.5881 -1.0551 -0.9890
  789MOL0     H 6472   1.352   5.974   2.949  3.5404 -0.3128 -2.1065
  789MOL0     H 6473   1.224   5.853   3.133 -1.0406  0.4058  1.1507
  789MOL0     H 6474   1.263   6.005   3.205  0.7307 -1.6556  2.7425
  789MOL0     H 6475   1.120   5.850   3.360 -1.5410 -2.5424  0.2877
  789MOL0     H 6476   0.972   5.858   3.531 -3.0677  0.3301  2.8262
  789MOL0     H 6477   0.962   5.692   3.527 -0.7435  4.1305 -4.0339
  789MOL0     H 6478   1.004   5.787   3.683  1.7043  0.5567  1.1393
  789MOL0     H 6479   0.962   5.655   3.963  0.5819  1.2547  2.6437
  789MOL0     H 6480   0.929   5.553   4.186  1.7125  2.1029 -0.2338
  789MOL0     H 6481   1.070   5.148   4.321 -0.9394  0.8473  0.2286
  789MOL0     H 6482   1.214   5.246   4.328  0.4756  0.4172  1.7838
  789MOL0     H 6483   1.114   5.346   4.541 -0.8779  0.0717 -0.4673
  789MOL0     H 6484   0.987   5.230   4.528 -0.3337  0.4736 -0.1736
  789MOL0     H 6485   1.158   5.162   4.682 -0.1656 -1.2921  0.5798
  789MOL0     H 6486   1.278   5.156   4.552 -0.2077  3.6997  1.3227
  789MOL0     H 6487   1.027   4.982   4.613  0.1872 -2.0537 -1.9286
  789MOL0     H 6488   1.113   4.951   4.464  1.7514 -2.7259  0.2001
  789MOL0     H 6489   1.231   4.949   4.743  2.7356  0.9185 -0.6043
  789MOL0     H 6490   1.329   4.901   4.600  0.3055  0.7946 -1.3871
  789MOL0     H 6491   1.246   4.700   4.720  1.5631  2.4901  0.4578
  789MOL0     H 6492   1.076   4.763   4.692  0.8031 -3.5048  3.4380
  789MOL0     H 6493   1.270   4.683   4.468  0.6243 -1.1879  1.9452
  789MOL0     H 6494   1.105   4.739   4.450  1.6324  1.7468 -1.5016
  789MOL0     H 6495   1.015   4.567   4.598 -0.2698 -0.1059 -0.0211
  789MOL0     H 6496   1.161   4.486   4.604  0.8987  2.5937  1.1715
  789MOL0     H 6497   1.197   5.247   4.103 -5.1853 -1.9521  0.4171
  789MOL0     H 6498   1.248   5.332   3.890 -0.9586 -0.5479  0.2075
  789MOL0     H 6499   1.481   5.693   3.656 -0.0305  0.2644  0.5362
  789MOL0     H 6500   1.538   5.767   3.446 -0.6732  1.9942  1.2199
  789MOL0     H 6501   2.577   6.011   3.759 -0.4263 -0.7524 -0.6184
  789MOL0     H 6502   2.795   6.067   3.829 -3.1996  3.7187 -1.6218
  789MOL0     H 6503   3.194   5.939   3.901 -0.7252 -0.9713 -3.4055
  789MOL0     H 6504   3.391   5.967   4.019  0.4331 -3.2893 -0.3011
  789MOL0     H 6505   3.605   6.064   4.101 -3.0444 -0.5388 -1.3172
  789MOL0     H 6506   3.649   5.921   4.024 -1.8200  1.5167  0.8080
  789MOL0     H 6507   3.870   5.987   3.979  3.1213  0.4498  2.1247
  789MOL0     H 6508   3.846   5.994   4.157  0.2182  1.5274 -0.0767
  789MOL0     H 6509   3.830   6.207   4.184 -0.7814 -0.3089 -0.6405
  789MOL0     H 6510   3.801   6.244   4.007 -1.0801 -2.5475 -0.5882
  789MOL0     H 6511   4.052   6.129   4.133  0.5754  0.4866 -0.3560
  789MOL0     H 6512   4.032   6.298   4.103 -0.7741  1.0338 -2.2788
  789MOL0     H 6513   4.153   6.207   3.720  2.6929 -1.2892  1.2836
  789MOL0     H 6514   3.567   6.189   3.683 -1.9045  2.1209  0.7756
  789MOL0     H 6515   3.356   6.159   3.572 -0.1461  0.2948  0.3847
  790MOL0     O 6516   1.106   6.473   9.615  0.8087 -0.1997  0.5348
  790MOL0     C 6517   0.995   6.451   9.558 -0.6101 -0.3434  0.6571
  790MOL0     O 6518   0.908   6.547   9.526 -0.1878  0.7783  0.4182
  790MOL0     C 6519   0.931   6.678   9.552 -0.0418  0.3721 -0.0639
  790MOL0     C 6520   0.808   6.750   9.519 -0.5810  0.6565  0.0797
  790MOL0     C 6521   0.811   6.895   9.520  0.0533  0.5502  0.3782
  790MOL0     C 6522   0.928   6.964   9.552 -0.3091 -0.1008 -0.2814
  790MOL0     O 6523   0.914   7.105   9.556  1.1149  0.5187 -0.2043
  790MOL0     C 6524   1.013   7.177   9.623  0.1577  0.0206  0.5165
  790MOL0     C 6525   1.015   7.326   9.592  0.4683  0.5791 -0.2436
  790MOL0     C 6526   1.135   7.410   9.639 -0.0826 -0.2813  0.3153
  790MOL0     C 6527   1.126   7.541   9.573  0.0673  0.3387 -0.0006
  790MOL0     C 6528   1.194   7.547   9.442  0.6924  0.2538 -0.2118
  790MOL0     C 6529   1.284   7.668   9.426  0.0664  0.5038  0.3682
  790MOL0     C 6530   1.320   7.692   9.279 -0.1214 -0.8519  1.3712
  790MOL0     C 6531   1.409   7.821   9.271 -0.4345  0.9671 -0.4098
  790MOL0     N 6532   1.422   7.857   9.129  0.1261 -0.2810 -0.1661
  790MOL0     C 6533   1.497   7.788   9.041 -1.1008 -0.4872  0.6345
  790MOL0     C 6534   1.474   7.851   8.916 -0.5126  0.2115 -0.9372
  790MOL0     C 6535   1.544   7.818   8.780  0.2108 -0.0949 -0.6441
  790MOL0     C 6536   1.699   7.815   8.781  0.0828 -0.0288  0.4104
  790MOL0     C 6537   1.770   7.930   8.852 -0.0589 -0.3413  0.2797
  790MOL0     C 6538   1.905   7.889   8.916 -0.5728 -0.1132 -0.0577
  790MOL0     O 6539   1.885   7.813   9.030 -0.6497 -0.2163 -0.0144
  790MOL0     C 6540   1.960   7.707   9.059 -0.6657 -0.5232 -0.4438
  790MOL0     C 6541   1.964   7.603   8.967  0.1026 -0.1543  0.2074
  790MOL0     C 6542   2.044   7.486   8.992 -1.0946 -0.7083 -0.1723
  790MOL0     C 6543   2.037   7.378   8.886  0.1748 -0.1937 -0.1876
  790MOL0     C 6544   2.116   7.475   9.109 -0.2612  0.1695  0.2964
  790MOL0     C 6545   2.193   7.358   9.137  0.1276  0.2127 -0.5078
  790MOL0     O 6546   2.118   7.250   9.164 -0.0693  0.8010  0.4826
  790MOL0     C 6547   2.192   7.139   9.167  0.5985  0.9059  0.2757
  790MOL0     C 6548   2.266   7.089   9.056 -1.0323 -0.0208  0.8307
  790MOL0     C 6549   2.339   6.973   9.067  0.7534 -0.2918  0.0191
  790MOL0     C 6550   2.333   6.894   9.188 -0.5681 -0.4160 -0.6571
  790MOL0     O 6551   2.409   6.781   9.205  0.4454  0.4165  0.0735
  790MOL0     C 6552   2.547   6.803   9.233 -0.1189  0.6339  0.5278
  790MOL0     C 6553   2.631   6.738   9.124 -0.0517 -0.1203  1.1165
  790MOL0     C 6554   2.640   6.584   9.139  1.0787 -0.8156 -0.4233
  790MOL0     C 6555   2.741   6.525   9.049 -0.6456 -0.3887  0.3117
  790MOL0     C 6556   2.677   6.482   8.922  0.1231  0.3943  0.9258
  790MOL0     C 6557   2.777   6.390   8.841  0.6483 -0.5348  0.1398
  790MOL0     C 6558   2.709   6.343   8.712 -1.2193  0.3119  0.1123
  790MOL0     C 6559   2.795   6.251   8.635  0.4304 -0.2313 -0.1588
  790MOL0    Cl 6560   2.729   6.203   8.487  0.5477  0.3590 -0.1839
  790MOL0     C 6561   2.259   6.952   9.296  0.0322  0.5646 -0.4453
  790MOL0     C 6562   2.182   7.068   9.284  0.3226  1.0180 -0.4306
  790MOL0     O 6563   2.313   7.376   9.154  0.1399  1.1802  0.2520
  790MOL0     C 6564   2.124   7.584   9.193  0.2448 -0.9613 -0.2114
  790MOL0     C 6565   2.038   7.697   9.179  0.2584  1.2253  0.0910
  790MOL0     N 6566   1.400   7.966   8.948 -0.6861  0.2514  1.2251
  790MOL0     N 6567   1.384   7.970   9.071 -0.0434 -0.3585 -0.3176
  790MOL0     C 6568   1.033   6.891   9.596  0.1014  0.3358  0.4485
  790MOL0     C 6569   1.038   6.749   9.600 -0.8470 -0.0198  1.1821
  790MOL0     C 6570   0.971   6.308   9.540  0.3730 -0.5801 -0.7613
  790MOL0     C 6571   0.837   6.269   9.519 -0.5597  0.4849  0.8353
  790MOL0     C 6572   0.808   6.129   9.507 -0.1108 -0.1091 -0.2175
  790MOL0     C 6573   0.910   6.029   9.516 -0.2474  1.3328  1.0076
  790MOL0     O 6574   0.884   5.895   9.509  0.3565 -0.1054  0.2239
  790MOL0     C 6575   0.957   5.804   9.590 -0.4577  0.5255  0.1713
  790MOL0     C 6576   0.896   5.661   9.605  0.1635  0.1622 -0.5038
  790MOL0     C 6577   0.760   5.661   9.667 -0.1468 -0.4570 -0.5066
  790MOL0     C 6578   0.640   5.733   9.595 -0.4952  1.0762  0.5433
  790MOL0     C 6579   0.612   5.861   9.666 -0.3598 -0.3300  0.4928
  790MOL0     C 6580   0.592   5.961   9.721 -0.8004 -0.7849  0.5280
  790MOL0     C 6581   1.041   6.068   9.535  0.2815 -0.9128  0.2274
  790MOL0     C 6582   1.067   6.200   9.552 -0.0828 -0.8426 -0.0813
  790MOL0     H 6583   0.713   6.701   9.501 -0.7042  0.6905  0.6168
  790MOL0     H 6584   0.719   6.943   9.487  0.2157  0.0319 -0.8906
  790MOL0     H 6585   1.001   7.173   9.732 -2.4493 -0.6111  0.2575
  790MOL0     H 6586   1.113   7.140   9.598 -0.7328 -1.5075 -0.9347
  790MOL0     H 6587   1.026   7.328   9.483  5.1461 -0.1426  0.0042
  790MOL0     H 6588   0.920   7.366   9.629  0.5703 -0.9143  1.7684
  790MOL0     H 6589   1.137   7.419   9.748  4.4842  2.0614  0.2951
  790MOL0     H 6590   1.228   7.363   9.606  1.0600  2.1808 -0.1655
  790MOL0     H 6591   1.018   7.555   9.566 -0.3045 -2.7528 -1.9447
  790MOL0     H 6592   1.173   7.620   9.633 -1.4328 -0.6088  2.6089
  790MOL0     H 6593   1.259   7.462   9.420  0.9835  0.7931 -1.5197
  790MOL0     H 6594   1.115   7.537   9.367  0.6470 -0.9566 -0.0259
  790MOL0     H 6595   1.229   7.755   9.461  0.7963  0.3877  1.8664
  790MOL0     H 6596   1.368   7.670   9.496  1.0100  3.0396 -0.7369
  790MOL0     H 6597   1.375   7.609   9.234 -4.6204 -3.0126 -0.8932
  790MOL0     H 6598   1.229   7.706   9.220  0.2618  1.5460  1.2600
  790MOL0     H 6599   1.507   7.809   9.318 -0.5688  0.7038 -0.1955
  790MOL0     H 6600   1.365   7.897   9.336  1.1036 -0.2400  2.1995
  790MOL0     H 6601   1.555   7.697   9.053  1.3000  0.5095 -2.1656
  790MOL0     H 6602   1.514   7.725   8.731  2.8789 -1.1972 -0.3369
  790MOL0     H 6603   1.529   7.895   8.703 -1.6315  0.2510  0.0124
  790MOL0     H 6604   1.735   7.812   8.678  1.3070  1.0900  0.7619
  790MOL0     H 6605   1.736   7.722   8.825  6.7313  2.2863  0.9844
  790MOL0     H 6606   1.706   7.967   8.933 -0.9466 -0.7875 -0.2021
  790MOL0     H 6607   1.788   8.011   8.781  0.2201 -2.3740 -2.1110
  790MOL0     H 6608   1.951   7.980   8.956  0.2406 -0.8445  0.7115
  790MOL0     H 6609   1.980   7.853   8.845  0.3155 -1.2373  1.3905
  790MOL0     H 6610   1.906   7.614   8.876  0.1496  0.8184  0.2880
  790MOL0     H 6611   2.051   7.276   8.924  1.1647 -0.1825 -0.4739
  790MOL0     H 6612   1.944   7.381   8.828  2.2395  0.4918 -3.7882
  790MOL0     H 6613   2.105   7.401   8.803  0.5817 -0.5544  0.0375
  790MOL0     H 6614   2.283   7.151   8.968 -0.4545 -2.2285 -0.7178
  790MOL0     H 6615   2.403   6.933   8.988  1.3156 -0.3241  0.4828
  790MOL0     H 6616   2.586   6.904   9.225 -1.8394  1.2477 -0.8116
  790MOL0     H 6617   2.564   6.760   9.332 -1.3979 -0.0631  0.4734
  790MOL0     H 6618   2.585   6.765   9.028  0.4103  2.6214  1.5711
  790MOL0     H 6619   2.733   6.777   9.119  0.6662 -1.6992  2.7360
  790MOL0     H 6620   2.548   6.525   9.131  1.5130 -1.7720  1.0808
  790MOL0     H 6621   2.664   6.564   9.244  0.3154 -0.9727 -0.2710
  790MOL0     H 6622   2.825   6.594   9.034 -0.0336 -0.2015  3.6452
  790MOL0     H 6623   2.781   6.436   9.099 -2.0748 -0.5178  1.3082
  790MOL0     H 6624   2.629   6.566   8.872  1.2537  0.9240  0.7059
  790MOL0     H 6625   2.591   6.415   8.932 -1.2387  1.8554 -0.4733
  790MOL0     H 6626   2.878   6.431   8.831  2.6324 -5.0081 -1.2021
  790MOL0     H 6627   2.815   6.296   8.885  1.2394 -0.7743 -0.8346
  790MOL0     H 6628   2.688   6.430   8.649  1.3964  2.3578  1.8604
  790MOL0     H 6629   2.628   6.277   8.746  0.4021 -1.7634  0.1914
  790MOL0     H 6630   2.814   6.160   8.692  1.2553 -0.2577 -0.4629
  790MOL0     H 6631   2.884   6.309   8.610 -0.2823 -0.3338 -3.5014
  790MOL0     H 6632   2.262   6.913   9.397  3.3804  4.5848  1.3289
  790MOL0     H 6633   2.137   7.122   9.367 -0.4950 -0.5001  0.1443
  790MOL0     H 6634   2.191   7.580   9.279  1.5980  2.3921 -0.9528
  790MOL0     H 6635   2.051   7.781   9.247  2.7832 -0.8722  2.4650
  790MOL0     H 6636   1.126   6.935   9.629  2.2371 -1.9931 -1.9478
  790MOL0     H 6637   1.139   6.711   9.611 -0.7117 -0.5220 -1.3160
  790MOL0     H 6638   0.771   6.347   9.484  1.3893  0.9498 -2.3308
  790MOL0     H 6639   0.703   6.103   9.498  0.2181 -0.7862 -2.6381
  790MOL0     H 6640   1.052   5.774   9.544  0.6770  1.5275  1.7629
  790MOL0     H 6641   0.990   5.833   9.690 -2.3520 -3.4828  2.1416
  790MOL0     H 6642   0.966   5.604   9.668  0.2687  0.2637 -0.5286
  790MOL0     H 6643   0.903   5.615   9.506 -0.2161  0.7252 -0.7946
  790MOL0     H 6644   0.752   5.689   9.772 -3.5190 -5.2593  0.8531
  790MOL0     H 6645   0.731   5.555   9.671 -1.5428 -0.0491  1.4224
  790MOL0     H 6646   0.551   5.670   9.588  0.2195  0.2385 -2.3152
  790MOL0     H 6647   0.666   5.756   9.491  0.0546 -1.0467  0.1646
  790MOL0     H 6648   0.557   6.048   9.773 -0.2030 -0.7749  0.9200
  790MOL0     H 6649   1.121   5.994   9.537  0.7449 -0.4146  0.1576
  790MOL0     H 6650   1.166   6.240   9.570  0.3193 -0.7827 -2.2570
  791MOL0     O 6651   7.148   1.785  10.798 -0.2238  0.6372 -0.0996
  791MOL0     C 6652   7.079   1.766  10.699  0.4960 -0.5912  0.7543
  791MOL0     O 6653   7.069   1.854  10.591 -1.3802  0.6528 -0.4994
  791MOL0     C 6654   7.111   1.989  10.600 -0.2765  0.1290 -0.3147
  791MOL0     C 6655   7.019   2.091  10.598 -0.2904  0.5739  0.0309
  791MOL0     C 6656   7.048   2.219  10.627 -0.2463  0.0629 -0.6605
  791MOL0     C 6657   7.179   2.259  10.660  0.1575  0.2489 -0.8712
  791MOL0     O 6658   7.215   2.387  10.680  0.3653 -0.6579 -0.0418
  791MOL0     C 6659   7.346   2.440  10.682 -0.6729  0.0244  0.7125
  791MOL0     C 6660   7.363   2.584  10.635 -0.4277 -0.0467 -0.2343
  791MOL0     C 6661   7.260   2.625  10.530  0.1744 -0.3978  0.3514
  791MOL0     C 6662   7.264   2.770  10.477  0.0970 -0.8468 -0.2804
  791MOL0     C 6663   7.398   2.835  10.456  0.8234  0.1338  1.0751
  791MOL0     C 6664   7.399   2.969  10.386 -0.0829  0.7587  0.1923
  791MOL0     C 6665   7.346   2.982  10.233 -0.3896  0.1083  0.9917
  791MOL0     C 6666   7.388   2.872  10.131 -0.1185 -0.4464 -0.0423
  791MOL0     N 6667   7.525   2.885  10.076  0.3038 -0.7181  0.5030
  791MOL0     C 6668   7.619   2.782  10.072 -0.5571 -0.0715  0.2565
  791MOL0     C 6669   7.724   2.846  10.004 -0.3688  0.7344  0.0181
  791MOL0     C 6670   7.837   2.764   9.966 -0.0598 -0.9315  0.1387
  791MOL0     C 6671   7.924   2.764  10.100 -0.3082  0.2065 -0.2483
  791MOL0     C 6672   8.038   2.653  10.084  0.6728 -0.9265  0.6654
  791MOL0     C 6673   8.117   2.641  10.213 -0.1676  1.0489  0.0399
  791MOL0     O 6674   8.184   2.758  10.249 -0.3014  0.1736 -0.3540
  791MOL0     C 6675   8.317   2.765  10.219 -0.2319  0.1552  0.2596
  791MOL0     C 6676   8.385   2.697  10.118  0.2831 -0.0525 -1.1220
  791MOL0     C 6677   8.522   2.699  10.108  0.3185 -1.1155  0.5010
  791MOL0     C 6678   8.587   2.637   9.984  0.2663  0.1043  0.2287
  791MOL0     C 6679   8.601   2.761  10.212  0.8923 -0.4180 -0.2424
  791MOL0     C 6680   8.743   2.793  10.199 -0.4396  0.4523  1.0495
  791MOL0     O 6681   8.813   2.803  10.313 -0.0128 -0.2559 -0.1476
  791MOL0     C 6682   8.922   2.891  10.320 -0.3938 -0.0563  0.5089
  791MOL0     C 6683   9.055   2.847  10.312 -0.1287  0.4777  0.3141
  791MOL0     C 6684   9.163   2.938  10.336  0.1818 -0.1371 -0.1647
  791MOL0     C 6685   9.127   3.073  10.359  0.3675 -0.0486 -0.1054
  791MOL0     O 6686   9.228   3.171  10.356 -0.3590  0.4127  0.2535
  791MOL0     C 6687   9.269   3.212  10.487 -0.1893 -0.6326  0.2821
  791MOL0     C 6688   9.423   3.234  10.495 -0.9172 -0.2546 -0.5519
  791MOL0     C 6689   9.508   3.112  10.452 -0.8008 -0.6590  0.8124
  791MOL0     C 6690   9.555   3.002  10.552 -0.3205 -0.3423 -0.6655
  791MOL0     C 6691   9.642   2.887  10.488  0.1333 -0.7979  0.6161
  791MOL0     C 6692   9.793   2.941  10.484 -0.2956  0.4115  0.0186
  791MOL0     C 6693   9.888   2.851  10.392  0.0329 -0.9378 -0.1867
  791MOL0     C 6694   9.929   2.719  10.445  0.3990 -0.5061  0.5743
  791MOL0    Cl 6695   9.887   2.588  10.327  0.3941  0.1432  0.1937
  791MOL0     C 6696   8.989   3.115  10.354 -0.4655  0.3781  0.5340
  791MOL0     C 6697   8.891   3.021  10.349 -0.6419 -0.8951  0.8254
  791MOL0     O 6698   8.804   2.797  10.087 -0.7356  0.9722 -0.7828
  791MOL0     C 6699   8.536   2.808  10.324 -0.3032 -0.5204 -0.2528
  791MOL0     C 6700   8.400   2.810  10.325  0.6405 -0.2017 -0.2374
  791MOL0     N 6701   7.683   2.968   9.961 -0.4529  0.3844  0.6028
  791MOL0     N 6702   7.564   2.992   9.994  0.7478 -0.2964 -0.0595
  791MOL0     C 6703   7.273   2.153  10.670  0.5752 -0.1543 -1.5002
  791MOL0     C 6704   7.236   2.021  10.650 -1.1333  0.2516 -0.4135
  791MOL0     C 6705   7.006   1.641  10.669  0.3590 -0.8389 -0.5465
  791MOL0     C 6706   7.001   1.535  10.754  0.1951  0.2322 -1.1087
  791MOL0     C 6707   6.934   1.418  10.722  0.3645  0.5121  0.6034
  791MOL0     C 6708   6.872   1.398  10.599 -0.3364  0.0056  0.4852
  791MOL0     O 6709   6.816   1.283  10.549 -1.4287  0.0866 -0.3734
  791MOL0     C 6710   6.860   1.166  10.622 -0.4708  0.1031 -0.0923
  791MOL0     C 6711   6.767   1.050  10.588  0.4093 -0.4116 -0.2211
  791MOL0     C 6712   6.814   0.919  10.674 -0.5632 -1.6361 -0.1451
  791MOL0     C 6713   6.754   0.922  10.815 -0.0404 -0.3670 -0.3548
  791MOL0     C 6714   6.802   0.799  10.884  1.4700  0.4750 -0.9503
  791MOL0     C 6715   6.846   0.698  10.929 -0.0679 -0.2099 -0.4773
  791MOL0     C 6716   6.864   1.512  10.518 -0.2915 -0.0740  0.0224
  791MOL0     C 6717   6.922   1.628  10.555  0.6588  0.5150  1.0013
  791MOL0     H 6718   6.921   2.063  10.560 -0.1417 -3.2539  2.0045
  791MOL0     H 6719   6.964   2.288  10.629 -1.5120 -1.3826 -1.7586
  791MOL0     H 6720   7.397   2.416  10.776 -0.4985  0.1661  0.6527
  791MOL0     H 6721   7.402   2.386  10.605  0.2309 -1.3998  2.2739
  791MOL0     H 6722   7.342   2.646  10.723 -3.6491 -2.2845  0.7840
  791MOL0     H 6723   7.465   2.608  10.604 -0.8891  1.4543 -0.6878
  791MOL0     H 6724   7.275   2.562  10.442  0.5748  0.6864 -0.3846
  791MOL0     H 6725   7.164   2.599  10.574  2.3478 -0.5927  5.8207
  791MOL0     H 6726   7.202   2.765  10.387 -2.3878 -4.0052  1.4054
  791MOL0     H 6727   7.203   2.836  10.538 -1.5229 -1.2225 -1.4262
  791MOL0     H 6728   7.437   2.858  10.555  2.9121 -0.8516  0.5450
  791MOL0     H 6729   7.469   2.760  10.418 -1.1098 -0.2821 -2.0844
  791MOL0     H 6730   7.347   3.039  10.452  1.1610 -0.1075  2.1879
  791MOL0     H 6731   7.498   3.015  10.397  0.1078  0.1675  1.0711
  791MOL0     H 6732   7.237   2.974  10.236 -0.3236 -5.7610  0.0002
  791MOL0     H 6733   7.365   3.079  10.187  0.2892  0.6229  2.3024
  791MOL0     H 6734   7.318   2.886  10.048  2.2306  1.1356 -1.8916
  791MOL0     H 6735   7.384   2.772  10.175  3.0740  0.1662  1.9539
  791MOL0     H 6736   7.609   2.684  10.119  0.2437  0.6097  1.9231
  791MOL0     H 6737   7.811   2.659   9.949 -0.0511 -0.6482 -1.9264
  791MOL0     H 6738   7.890   2.803   9.879  0.8761  0.5124  1.2984
  791MOL0     H 6739   7.861   2.738  10.185 -1.3624 -2.7856 -1.7916
  791MOL0     H 6740   7.959   2.867  10.114 -0.3232  0.2345 -0.4106
  791MOL0     H 6741   8.104   2.684  10.003  0.5220  0.8328  1.1902
  791MOL0     H 6742   7.991   2.559  10.054  0.3912 -0.3441 -0.7753
  791MOL0     H 6743   8.184   2.554  10.215 -2.2281 -0.6356 -0.8524
  791MOL0     H 6744   8.047   2.620  10.294  2.0814 -0.0178  1.8096
  791MOL0     H 6745   8.319   2.654  10.043  0.8792 -2.9642 -0.0900
  791MOL0     H 6746   8.513   2.611   9.908  2.6068 -0.2196 -2.0718
  791MOL0     H 6747   8.659   2.707   9.939 -0.0929  2.3234  2.8002
  791MOL0     H 6748   8.644   2.548  10.011 -1.2279  0.0103  3.6423
  791MOL0     H 6749   9.081   2.745  10.285  0.3107  1.0138 -1.3761
  791MOL0     H 6750   9.260   2.890  10.331 -0.4116 -1.2666 -1.5500
  791MOL0     H 6751   9.218   3.306  10.511  0.9463 -0.2368  1.2162
  791MOL0     H 6752   9.248   3.136  10.563 -1.5920 -1.4224 -0.8419
  791MOL0     H 6753   9.454   3.313  10.426  2.1703 -1.6042 -0.9163
  791MOL0     H 6754   9.450   3.262  10.598 -0.7240 -2.7168  0.1372
  791MOL0     H 6755   9.595   3.142  10.393 -1.2196 -2.0277 -0.5543
  791MOL0     H 6756   9.444   3.063  10.378 -0.4079  1.8994 -1.3645
  791MOL0     H 6757   9.626   3.047  10.622 -2.5751 -1.9198  2.9976
  791MOL0     H 6758   9.474   2.979  10.622  0.9240  1.9049  1.6884
  791MOL0     H 6759   9.609   2.876  10.384 -1.8489  1.1889  0.9594
  791MOL0     H 6760   9.628   2.790  10.537 -1.2118 -1.1695 -0.4570
  791MOL0     H 6761   9.803   3.046  10.456  1.0202  0.7837  1.7425
  791MOL0     H 6762   9.842   2.948  10.581 -0.1723  1.9831 -0.1357
  791MOL0     H 6763   9.975   2.906  10.355 -2.4394  1.7588 -2.6462
  791MOL0     H 6764   9.842   2.822  10.296  1.6083 -4.1647 -0.0908
  791MOL0     H 6765   9.890   2.702  10.546 -0.9780 -2.0668 -0.1719
  791MOL0     H 6766  10.038   2.710  10.451  0.5597 -1.8703 -2.7506
  791MOL0     H 6767   8.973   3.220  10.377 -2.8136  0.4557 -1.1142
  791MOL0     H 6768   8.788   3.049  10.367 -0.0309  0.4194  2.5553
  791MOL0     H 6769   8.578   2.852  10.414 -2.2679  1.1003 -0.0630
  791MOL0     H 6770   8.367   2.862  10.414  2.2637  1.6624 -0.6549
  791MOL0     H 6771   7.374   2.180  10.701  1.1564 -4.2713  0.9094
  791MOL0     H 6772   7.318   1.953  10.672 -0.5282  0.7317 -1.1361
  791MOL0     H 6773   7.040   1.546  10.855  0.8047 -0.4543 -1.2578
  791MOL0     H 6774   6.943   1.342  10.799 -3.6738 -0.6652  0.1147
  791MOL0     H 6775   6.967   1.150  10.603  0.0606  0.1141  2.5918
  791MOL0     H 6776   6.845   1.179  10.729  0.6549  0.7651  0.0074
  791MOL0     H 6777   6.783   1.027  10.482  3.6244  0.3232 -0.0021
  791MOL0     H 6778   6.660   1.067  10.605  1.1712  2.9301  2.1538
  791MOL0     H 6779   6.923   0.919  10.677 -0.4876  1.0203 -0.7584
  791MOL0     H 6780   6.768   0.828  10.633 -1.4708  0.2475 -3.7228
  791MOL0     H 6781   6.645   0.920  10.808 -0.7516  2.2862  5.1426
  791MOL0     H 6782   6.780   1.002  10.885  2.1270 -0.7942 -0.5834
  791MOL0     H 6783   6.878   0.604  10.969 -0.4612 -0.2470 -0.2531
  791MOL0     H 6784   6.812   1.499  10.424  2.5940 -1.0490 -1.5735
  791MOL0     H 6785   6.909   1.721  10.500  4.3922  0.9557  0.6210
  792MOL0     O 6786  10.413   8.558   8.808 -0.5636 -0.7507  0.1720
  792MOL0     C 6787  10.521   8.606   8.858  0.5866 -0.0165  0.5770
  792MOL0     O 6788  10.599   8.548   8.944 -0.1328  0.2429  0.2430
  792MOL0     C 6789  10.568   8.425   8.977 -0.3608  0.7015  0.4434
  792MOL0     C 6790  10.506   8.396   9.096 -0.0508  0.8713 -0.1918
  792MOL0     C 6791  10.494   8.259   9.134  0.4380 -0.0788 -0.7102
  792MOL0     C 6792  10.544   8.152   9.073 -0.8243 -0.1749 -0.8084
  792MOL0     O 6793  10.526   8.030   9.137 -0.2430  0.5797 -0.3412
  792MOL0     C 6794  10.526   7.917   9.047  1.1214 -0.1024  0.0027
  792MOL0     C 6795  10.440   7.791   9.102  0.4141 -0.6311  0.6609
  792MOL0     C 6796  10.535   7.716   9.188  0.6451 -0.1341  0.0043
  792MOL0     C 6797  10.624   7.608   9.124 -0.7922  0.5917  0.6631
  792MOL0     C 6798  10.600   7.475   9.199 -0.1269  0.3105  0.4724
  792MOL0     C 6799  10.666   7.485   9.341 -0.0298 -0.4436  0.7622
  792MOL0     C 6800  10.605   7.384   9.443  0.4471 -0.5862  0.6365
  792MOL0     C 6801  10.702   7.375   9.558 -0.2986 -1.1566 -0.8628
  792MOL0     N 6802  10.833   7.304   9.525  0.5904 -0.5756  0.2206
  792MOL0     C 6803  10.837   7.173   9.495 -0.1179  0.2514  0.6076
  792MOL0     C 6804  10.966   7.142   9.463  0.0472 -1.0536 -0.3009
  792MOL0     C 6805  11.041   7.009   9.442 -0.0306 -0.1928 -0.4099
  792MOL0     C 6806  11.095   6.963   9.572 -1.1922  0.0403 -0.6948
  792MOL0     C 6807  11.214   7.042   9.625  0.4831 -0.4918  1.4659
  792MOL0     C 6808  11.322   7.054   9.512 -0.3699  0.9229 -0.3199
  792MOL0     O 6809  11.450   7.073   9.582 -0.1846 -0.1363 -0.4035
  792MOL0     C 6810  11.480   7.208   9.620  1.0735 -0.2249 -0.2900
  792MOL0     C 6811  11.600   7.219   9.698  1.1872  0.5417  0.0784
  792MOL0     C 6812  11.667   7.338   9.732 -0.4522 -0.0562 -0.0687
  792MOL0     C 6813  11.799   7.344   9.806 -0.2468 -0.5547  0.9635
  792MOL0     C 6814  11.596   7.462   9.700  0.5529  0.2804  0.4849
  792MOL0     C 6815  11.653   7.607   9.721 -0.5742  0.1457  0.6131
  792MOL0     O 6816  11.781   7.617   9.760  0.0116 -0.7061  0.2514
  792MOL0     C 6817  11.815   7.732   9.812  0.5713  0.3593 -0.5488
  792MOL0     C 6818  11.903   7.800   9.739 -0.6638 -0.5225  0.4661
  792MOL0     C 6819  11.959   7.912   9.791 -0.6241 -0.0917  0.9530
  792MOL0     C 6820  11.920   7.968   9.910 -0.6754 -0.2818 -0.2816
  792MOL0     O 6821  11.979   8.092   9.949 -0.9926  0.1679 -0.6247
  792MOL0     C 6822  12.009   8.099  10.096  0.5723 -0.5754 -0.0024
  792MOL0     C 6823  12.082   8.226  10.120  0.2568  0.3003  0.4639
  792MOL0     C 6824  12.214   8.231  10.055  0.2263 -0.0312 -0.5092
  792MOL0     C 6825  12.327   8.183  10.142 -0.4610  0.3601 -0.3366
  792MOL0     C 6826  12.475   8.199  10.080  0.6238 -0.8169 -0.1228
  792MOL0     C 6827  12.608   8.160  10.145  0.2040  0.9052  0.2854
  792MOL0     C 6828  12.588   8.132  10.291 -0.5210  0.2090 -0.8311
  792MOL0     C 6829  12.732   8.114  10.358  0.1706  0.1252  0.5554
  792MOL0    Cl 6830  12.802   8.273  10.400  0.0714 -0.1537 -0.1756
  792MOL0     C 6831  11.818   7.902   9.980  0.1257  0.5224 -0.1083
  792MOL0     C 6832  11.772   7.779   9.935 -0.1249 -0.0015  0.8089
  792MOL0     O 6833  11.572   7.699   9.705 -0.2674 -0.9201 -0.1147
  792MOL0     C 6834  11.471   7.455   9.631 -0.3985 -0.6770 -0.3894
  792MOL0     C 6835  11.416   7.326   9.592 -0.7179 -0.2004 -0.6916
  792MOL0     N 6836  11.042   7.269   9.474 -0.5390 -0.2807  0.4669
  792MOL0     N 6837  10.958   7.353   9.521 -0.2397 -0.9046 -0.6370
  792MOL0     C 6838  10.594   8.184   8.943 -0.0189  0.6786  0.9349
  792MOL0     C 6839  10.616   8.310   8.904 -0.8476  0.2528  0.0252
  792MOL0     C 6840  10.557   8.743   8.818 -0.2563 -0.2591 -0.0413
  792MOL0     C 6841  10.689   8.782   8.844 -0.6460  0.3823 -0.6565
  792MOL0     C 6842  10.736   8.911   8.834 -0.1346 -0.2408 -1.1855
  792MOL0     C 6843  10.651   9.018   8.797 -0.4318 -0.5750 -0.2540
  792MOL0     O 6844  10.681   9.146   8.783 -0.0026 -0.6039  0.2824
  792MOL0     C 6845  10.818   9.197   8.773 -0.5926  0.2411  1.3846
  792MOL0     C 6846  10.844   9.346   8.780 -0.1760  0.3044 -0.7730
  792MOL0     C 6847  10.753   9.428   8.690  0.7472 -0.0675 -0.0679
  792MOL0     C 6848  10.762   9.580   8.723 -0.0803  0.4123 -0.0718
  792MOL0     C 6849  10.899   9.633   8.670  0.0489  0.1150 -0.5395
  792MOL0     C 6850  11.000   9.659   8.603 -0.2168  0.1154  0.3457
  792MOL0     C 6851  10.520   8.974   8.746  0.1945 -1.4008 -1.0029
  792MOL0     C 6852  10.470   8.845   8.766  0.2750  0.0256 -0.1256
  792MOL0     H 6853  10.480   8.467   9.175 -1.6667  0.8681 -0.6855
  792MOL0     H 6854  10.464   8.248   9.238  1.1586 -1.6623 -0.6481
  792MOL0     H 6855  10.471   7.957   8.962 -0.6080 -0.9146  0.7013
  792MOL0     H 6856  10.627   7.885   9.019  0.4345 -2.1955 -0.2729
  792MOL0     H 6857  10.363   7.833   9.167 -1.5231 -0.1406 -1.8079
  792MOL0     H 6858  10.391   7.720   9.033 -1.6504  1.8996 -0.6604
  792MOL0     H 6859  10.592   7.794   9.239  0.1276  0.7466 -0.7305
  792MOL0     H 6860  10.483   7.665   9.270  1.2155 -0.7499 -0.0089
  792MOL0     H 6861  10.609   7.583   9.018 -0.2931 -1.7222  1.0743
  792MOL0     H 6862  10.731   7.627   9.134  0.2083 -2.4470 -2.2577
  792MOL0     H 6863  10.493   7.453   9.192  0.6370 -4.0802 -0.3996
  792MOL0     H 6864  10.652   7.391   9.152  1.1845  0.0129  2.3516
  792MOL0     H 6865  10.771   7.461   9.317 -0.4986 -3.0031  0.9600
  792MOL0     H 6866  10.656   7.585   9.384 -0.8485  0.5604 -1.6108
  792MOL0     H 6867  10.514   7.421   9.491  1.3463  0.7786  1.3281
  792MOL0     H 6868  10.596   7.283   9.401  0.8551 -1.3299  2.2465
  792MOL0     H 6869  10.652   7.316   9.635  3.4251  0.1265  2.8814
  792MOL0     H 6870  10.722   7.472   9.604  2.1505 -2.4773  1.0522
  792MOL0     H 6871  10.750   7.108   9.497 -1.1397  1.5206 -0.8528
  792MOL0     H 6872  10.968   6.941   9.398  0.4249 -0.7546 -0.3108
  792MOL0     H 6873  11.119   7.031   9.368 -1.1726  1.5444 -1.1586
  792MOL0     H 6874  11.139   6.864   9.554  0.9600  0.6456  0.8344
  792MOL0     H 6875  11.016   6.972   9.646 -0.4433 -0.7594  0.2305
  792MOL0     H 6876  11.248   6.973   9.703  0.6747 -1.4080  0.5906
  792MOL0     H 6877  11.187   7.144   9.654 -0.1823  0.4514 -2.0426
  792MOL0     H 6878  11.305   7.143   9.450  1.8946  0.4110 -1.7717
  792MOL0     H 6879  11.327   6.967   9.446  0.2106  1.1566 -0.5835
  792MOL0     H 6880  11.649   7.125   9.725 -0.8548 -0.3249  0.9917
  792MOL0     H 6881  11.872   7.399   9.745 -1.6737  1.4412  0.9858
  792MOL0     H 6882  11.782   7.383   9.907 -1.0072 -2.0142  1.4207
  792MOL0     H 6883  11.839   7.245   9.829  0.3744  0.1873  3.5026
  792MOL0     H 6884  11.912   7.752   9.642 -1.4240 -0.5556  0.4031
  792MOL0     H 6885  12.032   7.971   9.736 -3.0180  2.7228  0.5404
  792MOL0     H 6886  11.912   8.093  10.147  0.4918 -2.7034 -0.3271
  792MOL0     H 6887  12.061   8.011  10.135  1.8283 -0.3452 -1.1048
  792MOL0     H 6888  12.020   8.304  10.075  0.6560 -1.1236 -2.8431
  792MOL0     H 6889  12.084   8.250  10.227  1.9472  0.1727  0.4935
  792MOL0     H 6890  12.228   8.340  10.050 -0.6509  0.2805  2.0963
  792MOL0     H 6891  12.209   8.189   9.955 -1.8417 -0.6065 -0.2188
  792MOL0     H 6892  12.328   8.241  10.235 -3.5512 -2.0652  1.4258
  792MOL0     H 6893  12.303   8.080  10.169 -3.0098  1.0783  0.4563
  792MOL0     H 6894  12.469   8.307  10.066  2.5449 -0.6420  0.1647
  792MOL0     H 6895  12.458   8.146   9.986 -1.9621  1.3317 -0.9974
  792MOL0     H 6896  12.652   8.074  10.094  0.9048  1.7986 -0.6682
  792MOL0     H 6897  12.672   8.246  10.121 -1.6034  1.6793 -2.1482
  792MOL0     H 6898  12.534   8.038  10.296  2.7894 -1.8133  0.4205
  792MOL0     H 6899  12.541   8.220  10.337  0.8836  0.4259  0.2747
  792MOL0     H 6900  12.799   8.060  10.290 -2.2418 -0.9376 -1.0834
  792MOL0     H 6901  12.710   8.058  10.450 -0.2364 -2.1319 -0.8450
  792MOL0     H 6902  11.774   7.934  10.075 -1.4364 -2.3494  0.2393
  792MOL0     H 6903  11.701   7.729  10.000  1.6260 -0.6563  2.3048
  792MOL0     H 6904  11.416   7.546   9.607 -0.6417 -1.1288 -1.5688
  792MOL0     H 6905  11.313   7.317   9.559  0.0141  0.1734 -3.2530
  792MOL0     H 6906  10.619   8.094   8.888 -3.5394 -0.0138  0.2131
  792MOL0     H 6907  10.667   8.335   8.811 -1.2887 -0.7748 -0.5061
  792MOL0     H 6908  10.760   8.711   8.883 -0.1983  1.1752 -0.0046
  792MOL0     H 6909  10.837   8.926   8.872  1.2867 -3.6671 -3.1643
  792MOL0     H 6910  10.890   9.159   8.847  0.1404 -5.6523 -1.7009
  792MOL0     H 6911  10.862   9.159   8.680  2.7217  1.0062  2.4934
  792MOL0     H 6912  10.948   9.364   8.749  0.1263  0.9623  0.5669
  792MOL0     H 6913  10.828   9.378   8.883 -1.3078 -1.7961 -0.2392
  792MOL0     H 6914  10.655   9.381   8.696  0.1276  1.3014  1.0419
  792MOL0     H 6915  10.776   9.412   8.584 -3.0218  2.8885 -1.5788
  792MOL0     H 6916  10.751   9.590   8.831 -3.3260 -2.7103  0.0807
  792MOL0     H 6917  10.686   9.637   8.668  1.3717  0.6038 -1.9923
  792MOL0     H 6918  11.085   9.684   8.543  0.4422 -1.2021  0.7036
  792MOL0     H 6919  10.457   9.054   8.708  1.2868  1.1223  2.0718
  792MOL0     H 6920  10.368   8.818   8.740 -0.2540  1.1244  0.7407
  793MOL0     O 6921   4.607   8.474   4.268  0.9424 -0.1280  0.1203
  793MOL0     C 6922   4.682   8.564   4.255  0.0943 -1.5371 -0.8061
  793MOL0     O 6923   4.711   8.639   4.142 -0.2220 -0.5160  0.1046
  793MOL0     C 6924   4.656   8.623   4.016  0.9706 -0.2328  0.0905
  793MOL0     C 6925   4.528   8.571   3.995 -0.3036  0.1029  0.6862
  793MOL0     C 6926   4.476   8.579   3.855  0.1349  0.7451 -0.1807
  793MOL0     C 6927   4.545   8.633   3.750 -0.4688 -0.8504  0.3983
  793MOL0     O 6928   4.514   8.616   3.617  0.3519  0.0283 -0.4020
  793MOL0     C 6929   4.536   8.717   3.528 -1.1682 -0.2575 -0.6066
  793MOL0     C 6930   4.522   8.662   3.387  1.3019  0.4844  1.0311
  793MOL0     C 6931   4.383   8.612   3.343 -0.1546 -0.2500  0.6803
  793MOL0     C 6932   4.271   8.705   3.284 -0.6512 -0.3340 -0.0736
  793MOL0     C 6933   4.125   8.640   3.266 -0.8428  0.7875 -0.4362
  793MOL0     C 6934   4.112   8.526   3.166 -0.7850  0.1269 -0.6114
  793MOL0     C 6935   4.119   8.573   3.020  0.4759  0.1936  0.1739
  793MOL0     C 6936   4.204   8.480   2.932  0.5987  0.0400 -0.0370
  793MOL0     N 6937   4.170   8.340   2.960 -0.3014  0.5624  0.5883
  793MOL0     C 6938   4.241   8.228   3.023  0.5215 -0.1508 -0.1143
  793MOL0     C 6939   4.170   8.109   3.015  0.2298 -0.8165  0.6933
  793MOL0     C 6940   4.200   7.977   3.067  0.7170  0.0377 -0.0285
  793MOL0     C 6941   4.310   7.902   2.991 -0.2861 -1.0352 -0.3803
  793MOL0     C 6942   4.296   7.881   2.840  0.4706  0.6034 -0.1002
  793MOL0     C 6943   4.433   7.851   2.782  0.0232 -0.5438  0.0462
  793MOL0     O 6944   4.479   7.948   2.684  0.2494 -0.3599 -1.1027
  793MOL0     C 6945   4.520   8.074   2.731 -0.6626  0.3665 -0.3987
  793MOL0     C 6946   4.476   8.185   2.655 -0.9908 -0.1171 -0.1541
  793MOL0     C 6947   4.522   8.319   2.697 -0.2750 -0.1996 -0.0800
  793MOL0     C 6948   4.476   8.429   2.610 -0.0897  0.3091  0.4846
  793MOL0     C 6949   4.587   8.328   2.819  0.0205 -0.0464 -0.0860
  793MOL0     C 6950   4.631   8.462   2.867  0.4714 -0.0614  0.1136
  793MOL0     O 6951   4.616   8.577   2.797 -0.2839  1.1853 -0.1178
  793MOL0     C 6952   4.636   8.695   2.866 -0.0217 -0.4632 -0.0682
  793MOL0     C 6953   4.750   8.774   2.838  0.7930  0.3920  0.2077
  793MOL0     C 6954   4.774   8.884   2.915  0.2400  0.5261  0.2975
  793MOL0     C 6955   4.685   8.938   3.010  0.9825  0.0041 -0.2661
  793MOL0     O 6956   4.685   9.060   3.071 -0.6731 -0.6434 -0.1319
  793MOL0     C 6957   4.803   9.142   3.048 -0.3263 -0.3482  0.6582
  793MOL0     C 6958   4.814   9.254   3.144 -0.1489 -0.5139 -1.1606
  793MOL0     C 6959   4.803   9.199   3.290  0.7057  0.9752  0.2596
  793MOL0     C 6960   4.809   9.301   3.416  0.6920 -0.6733 -0.6955
  793MOL0     C 6961   4.806   9.218   3.538  0.5929  0.4167  0.0330
  793MOL0     C 6962   4.777   9.294   3.665  0.1244 -0.4436 -0.7556
  793MOL0     C 6963   4.832   9.259   3.808 -0.7802  0.5517  0.5467
  793MOL0     C 6964   4.796   9.110   3.849 -0.6495 -0.1076  1.3993
  793MOL0    Cl 6965   4.864   8.985   3.739  0.0427  0.5378 -0.1869
  793MOL0     C 6966   4.576   8.855   3.039 -1.0181  0.6516  0.1230
  793MOL0     C 6967   4.548   8.738   2.957  0.0890 -0.6449  0.1829
  793MOL0     O 6968   4.672   8.456   2.981  0.6871  0.3374  0.5566
  793MOL0     C 6969   4.612   8.213   2.900  0.6670 -0.8887 -0.2382
  793MOL0     C 6970   4.587   8.091   2.853  0.6791  0.0905  0.7271
  793MOL0     N 6971   4.070   8.142   2.936  1.1379 -0.3843 -0.2394
  793MOL0     N 6972   4.061   8.274   2.906 -0.4889 -0.3269 -0.3128
  793MOL0     C 6973   4.659   8.706   3.788 -0.2733  0.0042  0.7392
  793MOL0     C 6974   4.711   8.694   3.916 -0.5345  0.5768  0.0143
  793MOL0     C 6975   4.755   8.616   4.374 -0.0371  0.5770  0.4540
  793MOL0     C 6976   4.849   8.718   4.357  0.0852  0.3385  0.2997
  793MOL0     C 6977   4.905   8.780   4.467 -0.2166 -0.2815 -0.0550
  793MOL0     C 6978   4.887   8.719   4.595  0.3041 -0.9300  0.4230
  793MOL0     O 6979   4.956   8.757   4.708 -0.6266  0.0923  0.0354
  793MOL0     C 6980   5.097   8.741   4.684  0.4578  0.6658 -0.9375
  793MOL0     C 6981   5.167   8.622   4.757  0.0013 -0.8800  0.1348
  793MOL0     C 6982   5.240   8.659   4.891 -0.5241 -0.5197 -0.2739
  793MOL0     C 6983   5.160   8.733   4.998 -0.5207  0.5089 -0.9461
  793MOL0     C 6984   5.040   8.663   5.040  0.5393  0.5198 -0.1913
  793MOL0     C 6985   4.939   8.610   5.080  0.1090 -1.3511 -0.9798
  793MOL0     C 6986   4.797   8.618   4.605 -0.2868 -0.0304 -0.8175
  793MOL0     C 6987   4.729   8.568   4.497  0.2345  0.2889 -0.1000
  793MOL0     H 6988   4.486   8.503   4.069  2.4530 -1.4613  0.9662
  793MOL0     H 6989   4.386   8.521   3.838 -1.8049  3.1232  1.3463
  793MOL0     H 6990   4.460   8.792   3.554 -3.4064 -1.9605 -1.8435
  793MOL0     H 6991   4.636   8.758   3.542 -1.6500  1.1474 -1.0721
  793MOL0     H 6992   4.548   8.746   3.322  3.5074  0.9854  2.4352
  793MOL0     H 6993   4.590   8.577   3.377 -0.5056 -0.9018 -0.0900
  793MOL0     H 6994   4.401   8.533   3.269 -0.0632 -1.3660  1.8485
  793MOL0     H 6995   4.341   8.552   3.424  1.0168 -0.7818  0.9099
  793MOL0     H 6996   4.257   8.795   3.344  2.4409 -0.9504  1.7632
  793MOL0     H 6997   4.307   8.749   3.191 -0.9491  0.3035  0.1085
  793MOL0     H 6998   4.097   8.600   3.364 -1.1980  4.6477  1.2097
  793MOL0     H 6999   4.053   8.718   3.238 -1.5815  0.0024 -0.7751
  793MOL0     H 7000   4.187   8.448   3.184  1.1108  2.3935  2.3767
  793MOL0     H 7001   4.017   8.483   3.198 -1.2539 -0.4018 -2.5783
  793MOL0     H 7002   4.025   8.575   2.965 -0.1920 -3.5695  0.8991
  793MOL0     H 7003   4.161   8.673   3.004  4.1940 -1.5572 -2.8137
  793MOL0     H 7004   4.309   8.492   2.959  0.3856  0.5789  0.5842
  793MOL0     H 7005   4.188   8.506   2.827 -0.6072  1.5058  0.4600
  793MOL0     H 7006   4.331   8.248   3.080 -0.7415  2.8469  1.0056
  793MOL0     H 7007   4.237   7.984   3.170  1.2884  1.9380 -0.3235
  793MOL0     H 7008   4.108   7.917   3.065  0.5245  0.3217  0.2502
  793MOL0     H 7009   4.341   7.817   3.054  1.5141  1.6687  2.7100
  793MOL0     H 7010   4.384   7.982   3.000 -3.6522  2.6314 -2.4177
  793MOL0     H 7011   4.253   7.968   2.790 -0.1790 -0.6631 -1.8390
  793MOL0     H 7012   4.225   7.800   2.822  1.6901 -0.1115 -2.0889
  793MOL0     H 7013   4.424   7.756   2.730  0.7724 -2.8895  3.7949
  793MOL0     H 7014   4.508   7.827   2.859 -0.5523 -2.2960  0.0882
  793MOL0     H 7015   4.408   8.170   2.571 -1.7582  2.5169 -0.0759
  793MOL0     H 7016   4.438   8.513   2.669  1.6299  1.2380  0.3214
  793MOL0     H 7017   4.559   8.472   2.554 -1.2121 -0.2303 -1.7148
  793MOL0     H 7018   4.398   8.382   2.549  0.2735 -1.1442  1.0825
  793MOL0     H 7019   4.820   8.748   2.759  0.1843 -1.1342  0.1327
  793MOL0     H 7020   4.869   8.924   2.881  0.5075 -2.3115 -2.7525
  793MOL0     H 7021   4.890   9.076   3.056 -1.1164 -1.7473 -1.4313
  793MOL0     H 7022   4.796   9.181   2.946 -3.4909 -0.4117  0.7438
  793MOL0     H 7023   4.909   9.302   3.117  1.7326 -1.3484  3.0592
  793MOL0     H 7024   4.732   9.322   3.121 -2.2985 -1.8759  1.8477
  793MOL0     H 7025   4.885   9.132   3.318 -1.2954 -0.9963  1.8006
  793MOL0     H 7026   4.713   9.136   3.298  1.2783 -0.3046 -2.3053
  793MOL0     H 7027   4.898   9.364   3.415 -0.1085  0.6290  1.5348
  793MOL0     H 7028   4.730   9.376   3.413 -2.1399 -3.4437 -1.0838
  793MOL0     H 7029   4.903   9.168   3.540  0.6763  0.5176 -1.1804
  793MOL0     H 7030   4.723   9.150   3.516 -2.1986  3.7342 -0.5079
  793MOL0     H 7031   4.807   9.399   3.662 -4.8905  1.5182  3.2245
  793MOL0     H 7032   4.667   9.292   3.673  0.1503  0.9916  0.2433
  793MOL0     H 7033   4.816   9.331   3.890  1.3537 -2.0054  3.4566
  793MOL0     H 7034   4.941   9.260   3.795 -0.5012  0.9244  2.5080
  793MOL0     H 7035   4.686   9.104   3.848 -0.7189  0.8472  0.1631
  793MOL0     H 7036   4.835   9.088   3.948 -2.1915 -2.1906  1.6133
  793MOL0     H 7037   4.501   8.881   3.113  0.5921 -2.5753  3.1779
  793MOL0     H 7038   4.458   8.680   2.979 -0.1359 -0.6029 -0.6032
  793MOL0     H 7039   4.659   8.219   2.997  0.0822 -1.2541  0.0675
  793MOL0     H 7040   4.611   7.998   2.904 -1.7148  0.0265  1.9007
  793MOL0     H 7041   4.717   8.773   3.726  0.0469 -0.9241  0.0007
  793MOL0     H 7042   4.804   8.746   3.936  1.0495 -1.3495 -1.8594
  793MOL0     H 7043   4.878   8.763   4.263 -0.5296 -0.1250 -0.1213
  793MOL0     H 7044   4.966   8.868   4.451  2.1131 -1.8281 -0.2070
  793MOL0     H 7045   5.121   8.733   4.577 -1.4059  3.6730 -1.6833
  793MOL0     H 7046   5.150   8.831   4.716 -0.2776  1.9374 -3.1093
  793MOL0     H 7047   5.241   8.581   4.687 -0.4680 -1.1962 -0.1760
  793MOL0     H 7048   5.096   8.541   4.772 -2.6569  1.2167 -0.3470
  793MOL0     H 7049   5.328   8.723   4.878 -0.2662 -1.1609 -1.9515
  793MOL0     H 7050   5.277   8.562   4.926  0.1661 -0.3883 -0.6197
  793MOL0     H 7051   5.152   8.837   4.964 -0.4394  0.4593 -1.1176
  793MOL0     H 7052   5.222   8.741   5.088  0.2857  1.6692 -1.5681
  793MOL0     H 7053   4.842   8.584   5.118 -1.6278  3.8530 -0.9922
  793MOL0     H 7054   4.764   8.585   4.704  5.1946 -1.6300  0.8292
  793MOL0     H 7055   4.656   8.489   4.510 -0.5182  0.5369 -2.4756
  794MOL0     O 7056   6.472   7.272   5.037 -0.9527 -0.5567  0.4252
  794MOL0     C 7057   6.451   7.257   4.920  0.3095  0.0016  1.2957
  794MOL0     O 7058   6.470   7.140   4.855 -0.8964 -0.0769 -0.3774
  794MOL0     C 7059   6.541   7.043   4.924  0.0826 -0.2103  0.4425
  794MOL0     C 7060   6.679   7.034   4.918  0.6770  0.1337 -0.2267
  794MOL0     C 7061   6.755   6.936   4.997  0.8073  0.1644 -0.2073
  794MOL0     C 7062   6.687   6.853   5.090  0.4339  0.6986 -0.9213
  794MOL0     O 7063   6.735   6.770   5.188 -0.8710 -0.1279  0.1967
  794MOL0     C 7064   6.853   6.796   5.265 -0.0121 -0.1768  0.4332
  794MOL0     C 7065   6.978   6.733   5.202  0.0456 -0.1999  0.5796
  794MOL0     C 7066   7.108   6.760   5.281  0.5773  0.3118  0.0657
  794MOL0     C 7067   7.242   6.742   5.209 -0.1930 -0.0054 -0.1226
  794MOL0     C 7068   7.351   6.797   5.308  0.4801  0.0747 -0.3159
  794MOL0     C 7069   7.485   6.746   5.265  0.6019  0.0269  0.7013
  794MOL0     C 7070   7.611   6.807   5.346  0.9745  0.1026 -0.0303
  794MOL0     C 7071   7.746   6.740   5.339 -0.2342 -0.6106  0.0739
  794MOL0     N 7072   7.783   6.748   5.197  0.4521  1.6232 -0.2553
  794MOL0     C 7073   7.735   6.670   5.092 -0.0744  0.2006 -0.0268
  794MOL0     C 7074   7.804   6.725   4.986  0.4097  0.8985  0.6050
  794MOL0     C 7075   7.794   6.681   4.838  0.1040 -0.0215 -0.4096
  794MOL0     C 7076   7.659   6.630   4.814  0.0940  0.1845  0.2761
  794MOL0     C 7077   7.631   6.611   4.661  0.7620 -1.1427 -0.7946
  794MOL0     C 7078   7.516   6.508   4.644 -0.4654 -0.2786  0.0923
  794MOL0     O 7079   7.523   6.464   4.504  0.1077 -0.1623 -0.0150
  794MOL0     C 7080   7.465   6.539   4.410  0.0485 -0.2465  0.6035
  794MOL0     C 7081   7.531   6.640   4.350 -0.0041  0.2092 -0.3309
  794MOL0     C 7082   7.481   6.734   4.255  0.8538 -0.4299  1.0615
  794MOL0     C 7083   7.567   6.844   4.202 -0.3380 -0.6310  0.5617
  794MOL0     C 7084   7.346   6.721   4.213  0.3834 -0.6861 -1.1696
  794MOL0     C 7085   7.259   6.813   4.135 -0.4339 -0.8342  0.1578
  794MOL0     O 7086   7.144   6.767   4.082 -0.3291 -0.3321  0.0267
  794MOL0     C 7087   7.066   6.839   3.994 -0.2723  0.1454 -0.1244
  794MOL0     C 7088   6.992   6.951   4.045  1.0833 -0.9968 -0.6548
  794MOL0     C 7089   6.919   7.037   3.960  0.2182  0.0743  0.4131
  794MOL0     C 7090   6.918   7.024   3.827 -0.2919  0.8395  0.0745
  794MOL0     O 7091   6.873   7.117   3.739  0.3615 -0.7691  0.1466
  794MOL0     C 7092   6.898   7.251   3.765  0.0495 -0.3253  0.6884
  794MOL0     C 7093   6.961   7.310   3.648  0.1582 -0.7882  0.7112
  794MOL0     C 7094   7.107   7.271   3.630  0.2159 -0.4538  0.1175
  794MOL0     C 7095   7.168   7.357   3.511 -0.0798 -0.3906  1.0601
  794MOL0     C 7096   7.317   7.366   3.520  0.3272 -0.1523  0.1794
  794MOL0     C 7097   7.378   7.417   3.397 -0.7032 -0.2765  1.7861
  794MOL0     C 7098   7.531   7.433   3.409 -0.0442 -0.8801  0.3900
  794MOL0     C 7099   7.586   7.516   3.296  0.4207  0.2359  0.4968
  794MOL0    Cl 7100   7.586   7.410   3.147  0.3533  0.5251 -0.0210
  794MOL0     C 7101   6.976   6.913   3.775 -0.3972  0.5837 -0.3727
  794MOL0     C 7102   7.046   6.816   3.856  0.7691 -0.2314  0.4316
  794MOL0     O 7103   7.297   6.925   4.123 -0.7983 -0.9600  0.2238
  794MOL0     C 7104   7.281   6.603   4.264 -0.2657 -0.0312 -0.8001
  794MOL0     C 7105   7.336   6.516   4.361 -1.4716  0.1279 -0.5273
  794MOL0     N 7106   7.884   6.830   5.027  0.1995  0.7323 -0.4159
  794MOL0     N 7107   7.877   6.834   5.155  0.8527  0.6390  0.7223
  794MOL0     C 7108   6.552   6.863   5.090 -0.4849 -0.6545  1.2849
  794MOL0     C 7109   6.476   6.955   5.009  0.2756  0.9407 -0.0574
  794MOL0     C 7110   6.393   7.378   4.845  0.9738  1.2148  0.4873
  794MOL0     C 7111   6.398   7.378   4.707 -1.0349 -1.0700 -0.1220
  794MOL0     C 7112   6.366   7.496   4.630  0.4366 -0.7170 -0.2754
  794MOL0     C 7113   6.335   7.608   4.705  0.1099  0.0262  0.2050
  794MOL0     O 7114   6.335   7.729   4.625  0.2957 -0.0349 -0.3610
  794MOL0     C 7115   6.246   7.836   4.666  0.0390  0.5428 -1.4362
  794MOL0     C 7116   6.273   7.972   4.600 -0.3949 -0.0673  0.3492
  794MOL0     C 7117   6.414   8.018   4.622 -0.0664  0.0579  0.8668
  794MOL0     C 7118   6.449   8.146   4.542  0.0098 -0.1949 -0.0638
  794MOL0     C 7119   6.590   8.165   4.525 -0.3928  0.0483  0.1798
  794MOL0     C 7120   6.703   8.197   4.520  0.4810 -0.6062 -0.3852
  794MOL0     C 7121   6.306   7.605   4.842  0.0590  1.2279  0.1390
  794MOL0     C 7122   6.343   7.489   4.915 -0.2457 -0.5108 -1.0097
  794MOL0     H 7123   6.735   7.093   4.846  0.1231  0.0024 -0.7687
  794MOL0     H 7124   6.863   6.940   4.998  0.9357 -2.0474 -0.7778
  794MOL0     H 7125   6.874   6.903   5.266  4.0700 -0.8085  2.1043
  794MOL0     H 7126   6.847   6.755   5.366 -0.6731 -0.9946  0.0772
  794MOL0     H 7127   6.962   6.625   5.210 -0.4786 -0.1175  0.6567
  794MOL0     H 7128   6.989   6.756   5.096 -2.3241 -0.4418  0.2318
  794MOL0     H 7129   7.102   6.868   5.296 -0.0085  0.2878  0.0198
  794MOL0     H 7130   7.111   6.696   5.369 -1.8871 -1.0586 -0.7536
  794MOL0     H 7131   7.261   6.637   5.185 -0.4476  0.5121 -2.8353
  794MOL0     H 7132   7.242   6.803   5.119 -0.9780  0.6485  0.3058
  794MOL0     H 7133   7.339   6.906   5.311 -2.3140 -0.0613 -2.3936
  794MOL0     H 7134   7.328   6.763   5.410  5.1942  0.7132  1.1954
  794MOL0     H 7135   7.494   6.637   5.272  2.1408 -0.2347 -3.0472
  794MOL0     H 7136   7.492   6.777   5.160 -1.0900 -0.7240  0.3281
  794MOL0     H 7137   7.620   6.914   5.323  1.9251 -0.1654 -0.9877
  794MOL0     H 7138   7.596   6.800   5.454  3.2239  1.0453  0.4071
  794MOL0     H 7139   7.761   6.645   5.391 -0.4560 -0.4169  0.5063
  794MOL0     H 7140   7.809   6.815   5.387 -0.4753  1.0149 -2.0045
  794MOL0     H 7141   7.661   6.591   5.091 -0.7399  0.8145 -0.2007
  794MOL0     H 7142   7.800   6.777   4.784  2.6560  0.2295  0.1951
  794MOL0     H 7143   7.883   6.630   4.800  1.5180  2.7768 -1.2053
  794MOL0     H 7144   7.583   6.693   4.862  0.3432  0.1995  0.6513
  794MOL0     H 7145   7.659   6.530   4.859 -0.1936 -0.9911 -2.1779
  794MOL0     H 7146   7.718   6.565   4.613  2.7490  1.0806  0.4502
  794MOL0     H 7147   7.595   6.710   4.631 -0.5185 -0.4085  2.7011
  794MOL0     H 7148   7.420   6.558   4.660  1.0664  1.8860  3.9837
  794MOL0     H 7149   7.517   6.423   4.714 -5.5225 -3.1847 -2.7155
  794MOL0     H 7150   7.632   6.657   4.386  0.0518 -0.4763 -0.1475
  794MOL0     H 7151   7.675   6.827   4.214 -0.0202  0.3431 -0.6971
  794MOL0     H 7152   7.553   6.849   4.093  0.1524 -1.3792  0.4552
  794MOL0     H 7153   7.545   6.944   4.240 -2.0813  1.4124 -4.8139
  794MOL0     H 7154   6.991   6.981   4.149 -0.7283  1.9608 -1.4198
  794MOL0     H 7155   6.860   7.120   3.998 -0.8740  0.6082 -2.2323
  794MOL0     H 7156   6.805   7.308   3.776 -0.4466 -1.3616  2.1088
  794MOL0     H 7157   6.965   7.268   3.850  1.9391  1.0046 -0.9769
  794MOL0     H 7158   6.920   7.285   3.550  1.1037  3.6331 -1.0882
  794MOL0     H 7159   6.950   7.419   3.648  1.7346 -0.3360 -4.3009
  794MOL0     H 7160   7.116   7.163   3.614  0.2738 -0.2189 -1.6541
  794MOL0     H 7161   7.157   7.299   3.722 -1.8108 -2.2770  1.9128
  794MOL0     H 7162   7.146   7.304   3.417  0.1665 -1.2436  1.4676
  794MOL0     H 7163   7.127   7.458   3.517  0.3613 -0.2904  2.7094
  794MOL0     H 7164   7.366   7.268   3.525  2.1207  0.4198 -3.0054
  794MOL0     H 7165   7.345   7.427   3.606 -1.1683  0.6286  0.1386
  794MOL0     H 7166   7.359   7.337   3.325 -0.8077 -0.0489  1.5601
  794MOL0     H 7167   7.327   7.511   3.374 -0.3983 -0.3722  0.6058
  794MOL0     H 7168   7.584   7.338   3.410  1.8771  0.0775  3.3499
  794MOL0     H 7169   7.550   7.489   3.502  1.6729  0.0882 -0.5017
  794MOL0     H 7170   7.688   7.553   3.316  0.1377  1.2629  0.1258
  794MOL0     H 7171   7.526   7.605   3.274  1.2254  1.5292  3.1121
  794MOL0     H 7172   6.967   6.882   3.671 -1.4262 -0.9878  0.1364
  794MOL0     H 7173   7.077   6.722   3.812  3.0346  0.9409 -0.6267
  794MOL0     H 7174   7.177   6.595   4.235 -0.2580  1.2388 -1.2159
  794MOL0     H 7175   7.287   6.430   4.404  2.1201 -0.8335  2.1486
  794MOL0     H 7176   6.509   6.798   5.165 -0.1690 -1.7930  0.5117
  794MOL0     H 7177   6.368   6.954   5.025 -0.0985 -3.9982 -1.0658
  794MOL0     H 7178   6.426   7.295   4.643  0.0106  1.3410 -3.0922
  794MOL0     H 7179   6.376   7.487   4.523  1.8685 -0.1972 -0.2130
  794MOL0     H 7180   6.141   7.809   4.647 -0.6208  1.6147  0.4130
  794MOL0     H 7181   6.260   7.853   4.773 -1.7066 -0.2361 -1.0443
  794MOL0     H 7182   6.208   8.047   4.647  2.0901  1.9691  0.7757
  794MOL0     H 7183   6.244   7.985   4.495  0.9145  2.5652  0.2304
  794MOL0     H 7184   6.477   7.935   4.587  0.9371  1.3020 -0.4162
  794MOL0     H 7185   6.432   8.021   4.729 -1.2199  0.7307  1.0528
  794MOL0     H 7186   6.406   8.218   4.612 -0.6140  1.1224 -1.7349
  794MOL0     H 7187   6.388   8.158   4.452  1.0575  5.0559 -0.4006
  794MOL0     H 7188   6.798   8.242   4.543 -1.3512  2.3927  2.1849
  794MOL0     H 7189   6.268   7.700   4.880 -1.0876  0.6227  0.5624
  794MOL0     H 7190   6.357   7.494   5.022  2.5897  0.6064 -1.3480
  795MOL0     O 7191   1.041   3.197  10.890 -0.6237 -0.1674 -0.7992
  795MOL0     C 7192   1.009   3.083  10.842  0.2554 -0.9945 -0.4272
  795MOL0     O 7193   0.892   3.022  10.854  0.4932 -0.4384  0.4981
  795MOL0     C 7194   0.807   3.066  10.954 -0.2337  0.9602 -0.1919
  795MOL0     C 7195   0.675   3.073  10.923  0.8196 -0.2146  0.9905
  795MOL0     C 7196   0.578   3.109  11.020  0.2813 -0.1690 -0.8165
  795MOL0     C 7197   0.615   3.142  11.146 -0.0362  0.5267 -0.3095
  795MOL0     O 7198   0.515   3.186  11.223  0.0011  0.1408 -0.3731
  795MOL0     C 7199   0.501   3.124  11.353 -0.8525 -0.3223 -0.2148
  795MOL0     C 7200   0.511   2.971  11.358  0.1774  0.3591  0.0763
  795MOL0     C 7201   0.375   2.894  11.310 -0.0038 -0.6906 -0.3238
  795MOL0     C 7202   0.381   2.749  11.348 -0.9616 -0.5282 -0.3271
  795MOL0     C 7203   0.256   2.670  11.323 -0.1694 -1.0727  0.8028
  795MOL0     C 7204   0.270   2.542  11.392 -0.1152  0.0042 -0.6041
  795MOL0     C 7205   0.173   2.533  11.513 -0.4274 -0.0124 -0.7902
  795MOL0     C 7206   0.179   2.653  11.612 -0.3420  1.1317  0.3145
  795MOL0     N 7207   0.270   2.627  11.719  0.2621 -0.3050 -0.0395
  795MOL0     C 7208   0.239   2.574  11.844  0.4768  0.0809  0.3046
  795MOL0     C 7209   0.352   2.563  11.908 -0.5045  0.7648 -0.0424
  795MOL0     C 7210   0.349   2.525  12.058 -0.2524  0.3446  0.1399
  795MOL0     C 7211   0.264   2.619  12.148 -1.0493 -0.1243  0.2456
  795MOL0     C 7212   0.315   2.760  12.152  0.5167  0.1251  0.4752
  795MOL0     C 7213   0.229   2.844  12.250 -0.5496 -0.1946  0.3613
  795MOL0     O 7214   0.284   2.983  12.258  0.2301  0.2752  0.0883
  795MOL0     C 7215   0.233   3.077  12.349 -1.2951  0.4078 -1.1316
  795MOL0     C 7216   0.309   3.189  12.370  0.7270 -0.1621  0.5039
  795MOL0     C 7217   0.256   3.297  12.443  0.7442  0.0053  0.7565
  795MOL0     C 7218   0.348   3.414  12.468  0.3154  0.2626 -0.7528
  795MOL0     C 7219   0.121   3.293  12.487 -0.4821  0.4739 -0.3322
  795MOL0     C 7220   0.049   3.400  12.551 -0.5506 -0.5426  0.5693
  795MOL0     O 7221  -0.085   3.420  12.523 -0.3059  0.5362 -0.2409
  795MOL0     C 7222  -0.162   3.517  12.584  0.6628  0.4880 -0.8410
  795MOL0     C 7223  -0.231   3.496  12.705 -0.2911  0.0495  0.3781
  795MOL0     C 7224  -0.299   3.606  12.758 -0.9729 -0.8814  0.3734
  795MOL0     C 7225  -0.311   3.727  12.688  0.5751 -0.4299  0.1321
  795MOL0     O 7226  -0.402   3.812  12.749 -0.6996 -0.0949 -0.4743
  795MOL0     C 7227  -0.405   3.952  12.717 -0.4072  0.3717  0.0681
  795MOL0     C 7228  -0.554   3.999  12.717  0.1839 -0.3794  0.8054
  795MOL0     C 7229  -0.559   4.156  12.721 -0.8994 -0.4466 -0.1695
  795MOL0     C 7230  -0.575   4.203  12.576  0.3284 -0.5248 -0.5324
  795MOL0     C 7231  -0.568   4.357  12.561 -0.9007 -0.6199 -0.5206
  795MOL0     C 7232  -0.630   4.394  12.423 -0.3092  0.6232 -0.9409
  795MOL0     C 7233  -0.632   4.541  12.405 -0.1068 -0.0703 -0.0048
  795MOL0     C 7234  -0.694   4.565  12.271  0.7442 -0.2012  0.3801
  795MOL0    Cl 7235  -0.869   4.547  12.303  0.2770 -0.3393  0.1683
  795MOL0     C 7236  -0.266   3.735  12.554 -0.7686 -0.1494  0.6419
  795MOL0     C 7237  -0.183   3.630  12.510  0.9463  0.7248 -0.1222
  795MOL0     O 7238   0.118   3.468  12.632  0.4106 -0.4841 -0.0145
  795MOL0     C 7239   0.045   3.175  12.468  0.2133  0.8248 -0.8799
  795MOL0     C 7240   0.103   3.061  12.408  0.0023  0.0778  0.3515
  795MOL0     N 7241   0.454   2.610  11.829 -0.2794  0.0088 -0.5084
  795MOL0     N 7242   0.401   2.643  11.713 -0.0761 -0.1730  0.5028
  795MOL0     C 7243   0.751   3.143  11.177 -0.3244  1.0504  0.0294
  795MOL0     C 7244   0.849   3.104  11.081  0.8571  0.1257 -0.2529
  795MOL0     C 7245   1.098   3.020  10.756  0.0123  0.6905  0.6001
  795MOL0     C 7246   1.213   3.085  10.715 -0.3089 -0.4689  0.6702
  795MOL0     C 7247   1.318   3.009  10.645  1.0629  0.7586  0.3964
  795MOL0     C 7248   1.290   2.877  10.610  0.2576  0.6209 -0.2448
  795MOL0     O 7249   1.384   2.803  10.541  0.9751 -0.0948 -0.7007
  795MOL0     C 7250   1.360   2.660  10.521  0.2616  0.1287 -0.1785
  795MOL0     C 7251   1.382   2.575  10.651  0.4025 -0.0479  0.0116
  795MOL0     C 7252   1.532   2.567  10.700 -0.7269  0.7632 -0.1496
  795MOL0     C 7253   1.622   2.501  10.604  0.2172  0.6379 -0.0049
  795MOL0     C 7254   1.714   2.597  10.536  0.1929  0.5438  0.2220
  795MOL0     C 7255   1.798   2.665  10.487  0.7382 -0.0721  0.1549
  795MOL0     C 7256   1.168   2.814  10.659  0.1330 -0.4571 -0.9283
  795MOL0     C 7257   1.073   2.887  10.736  0.0460 -0.4140  0.8256
  795MOL0     H 7258   0.639   3.072  10.820  1.8808  4.4792  0.3517
  795MOL0     H 7259   0.470   3.111  11.011  0.0310  0.2008  1.5942
  795MOL0     H 7260   0.587   3.162  11.409 -1.1644 -0.6768  0.5181
  795MOL0     H 7261   0.407   3.165  11.392 -0.5671  0.1497 -0.0161
  795MOL0     H 7262   0.609   2.940  11.322  1.6211  1.3954  2.8508
  795MOL0     H 7263   0.514   2.953  11.466 -2.0458  2.5507  0.5973
  795MOL0     H 7264   0.288   2.939  11.359  0.3912 -1.6986  1.3797
  795MOL0     H 7265   0.362   2.896  11.202  0.0400 -1.8568 -0.3578
  795MOL0     H 7266   0.469   2.710  11.297 -0.4468  1.0809 -0.7253
  795MOL0     H 7267   0.391   2.739  11.456  0.3091 -2.8305 -0.5863
  795MOL0     H 7268   0.170   2.720  11.367  0.2663 -0.9066  1.4752
  795MOL0     H 7269   0.242   2.667  11.214 -0.6786 -2.0025  0.8869
  795MOL0     H 7270   0.232   2.463  11.326 -1.3834 -3.7704  3.9970
  795MOL0     H 7271   0.373   2.519  11.419 -1.2020 -0.3580  4.3348
  795MOL0     H 7272   0.068   2.534  11.482 -1.4309  0.0407  2.2706
  795MOL0     H 7273   0.194   2.436  11.558 -0.2504  0.2240 -0.3560
  795MOL0     H 7274   0.079   2.675  11.652 -1.2263  0.5786 -1.4714
  795MOL0     H 7275   0.206   2.742  11.554 -3.7313  0.4418 -2.6983
  795MOL0     H 7276   0.142   2.543  11.882 -0.6511 -1.5255 -3.4177
  795MOL0     H 7277   0.294   2.431  12.063 -0.9316  0.7761  1.6051
  795MOL0     H 7278   0.440   2.509  12.116 -2.4473 -0.8596  3.6459
  795MOL0     H 7279   0.267   2.567  12.244  2.6643 -0.2207  0.2501
  795MOL0     H 7280   0.160   2.629  12.118 -0.8170 -1.7650 -1.2116
  795MOL0     H 7281   0.309   2.797  12.049 -1.0309  1.0500  0.8609
  795MOL0     H 7282   0.414   2.759  12.197  0.4611  1.7341  0.6994
  795MOL0     H 7283   0.228   2.805  12.352  3.6230  1.8691  1.3797
  795MOL0     H 7284   0.124   2.854  12.221 -0.2737  0.3654 -0.4904
  795MOL0     H 7285   0.405   3.188  12.319  1.9286  0.6374  2.6372
  795MOL0     H 7286   0.431   3.426  12.398  0.7992 -0.7843 -0.3787
  795MOL0     H 7287   0.298   3.511  12.463 -1.3889 -0.5636 -0.4195
  795MOL0     H 7288   0.398   3.412  12.566  0.6469  2.7541 -0.8138
  795MOL0     H 7289  -0.222   3.406  12.764 -2.1688  0.9876  2.2249
  795MOL0     H 7290  -0.346   3.600  12.856 -0.8097  0.9528  0.6038
  795MOL0     H 7291  -0.341   3.998  12.794  0.5088  0.9933 -1.0203
  795MOL0     H 7292  -0.362   3.962  12.617 -0.1595 -1.4121 -0.0247
  795MOL0     H 7293  -0.601   3.955  12.629  0.6305 -0.8009  0.7697
  795MOL0     H 7294  -0.616   3.958  12.797 -1.7507 -0.6473 -0.7395
  795MOL0     H 7295  -0.470   4.193  12.772  0.3350 -1.2570 -1.6652
  795MOL0     H 7296  -0.644   4.187  12.783  0.1842 -1.4213  1.8705
  795MOL0     H 7297  -0.483   4.176  12.523  1.5954  3.4403 -0.6786
  795MOL0     H 7298  -0.663   4.162  12.527  0.9771 -2.3731 -0.2177
  795MOL0     H 7299  -0.461   4.380  12.563 -0.6366 -1.7206 -1.0395
  795MOL0     H 7300  -0.621   4.411  12.640 -0.8936 -3.3107  1.4626
  795MOL0     H 7301  -0.555   4.352  12.356 -1.7679  1.1327 -2.9985
  795MOL0     H 7302  -0.725   4.346  12.400 -1.4518  2.0530  0.4992
  795MOL0     H 7303  -0.529   4.576  12.398 -0.4834  0.7859 -1.6009
  795MOL0     H 7304  -0.675   4.608  12.481  1.8598  1.1515  0.1160
  795MOL0     H 7305  -0.674   4.493  12.191 -2.8056  1.6850 -2.5231
  795MOL0     H 7306  -0.668   4.663  12.230 -0.2446 -1.2479 -3.0642
  795MOL0     H 7307  -0.298   3.812  12.485 -2.7034 -2.7273 -1.5590
  795MOL0     H 7308  -0.138   3.649  12.413  0.6581  0.2017 -0.3638
  795MOL0     H 7309  -0.062   3.173  12.487  0.2206  1.2992 -0.7540
  795MOL0     H 7310   0.041   2.973  12.407 -1.8340  1.2728  2.2419
  795MOL0     H 7311   0.777   3.171  11.279 -1.4381 -0.5928  0.8272
  795MOL0     H 7312   0.951   3.102  11.118  0.2933 -1.5417  1.3196
  795MOL0     H 7313   1.238   3.189  10.729  0.9092 -0.6490 -0.0015
  795MOL0     H 7314   1.414   3.052  10.618  0.3251  1.8504 -0.5552
  795MOL0     H 7315   1.259   2.641  10.486 -0.3412  2.4843  0.0963
  795MOL0     H 7316   1.432   2.627  10.445  0.1694 -0.7111  0.0850
  795MOL0     H 7317   1.365   2.471  10.625  0.9863  0.0183 -0.6697
  795MOL0     H 7318   1.312   2.609  10.728  1.2981 -0.1966  0.9291
  795MOL0     H 7319   1.532   2.510  10.794 -0.3119  1.6793  0.4231
  795MOL0     H 7320   1.571   2.665  10.727  0.6149  0.5281 -1.1562
  795MOL0     H 7321   1.568   2.444  10.527  0.4125 -1.8487  1.5709
  795MOL0     H 7322   1.675   2.432  10.670 -0.7659 -0.0243  0.1207
  795MOL0     H 7323   1.872   2.726  10.440  0.2637  1.4770  1.3325
  795MOL0     H 7324   1.143   2.709  10.647  2.4007 -1.2292  0.5169
  795MOL0     H 7325   0.987   2.828  10.764 -1.2440  1.9151  2.0165
  796MOL0     O 7326   5.426   1.031   6.694  0.5107 -0.0065  0.7833
  796MOL0     C 7327   5.329   1.033   6.614 -0.0134  0.2738 -0.0740
  796MOL0     O 7328   5.277   1.145   6.551  0.2449 -0.0171  0.5021
  796MOL0     C 7329   5.301   1.271   6.602 -0.7645  0.0958 -0.3321
  796MOL0     C 7330   5.304   1.308   6.738 -0.5995 -0.5658 -1.0572
  796MOL0     C 7331   5.329   1.443   6.781 -0.3309  0.6820  0.8625
  796MOL0     C 7332   5.339   1.539   6.682  0.9490 -0.9621  0.0145
  796MOL0     O 7333   5.346   1.675   6.698  0.6044  0.0463 -0.2881
  796MOL0     C 7334   5.386   1.737   6.821  0.7890  0.7942 -0.1804
  796MOL0     C 7335   5.383   1.890   6.824 -0.4947  1.0169  1.0071
  796MOL0     C 7336   5.272   1.936   6.904 -0.0093 -0.7587  0.0718
  796MOL0     C 7337   5.133   1.890   6.858  0.5452  0.4621 -0.0959
  796MOL0     C 7338   5.020   1.989   6.898 -0.5750  0.2179 -1.0644
  796MOL0     C 7339   4.964   2.076   6.785  0.5367 -0.4047  0.3484
  796MOL0     C 7340   4.895   2.196   6.858  0.8716 -0.2293 -1.0777
  796MOL0     C 7341   4.796   2.254   6.762  1.0949 -0.3144  0.1736
  796MOL0     N 7342   4.860   2.329   6.648 -0.9355 -1.2554 -0.3170
  796MOL0     C 7343   4.898   2.285   6.522  0.2646  0.9144 -0.2319
  796MOL0     C 7344   4.973   2.375   6.462 -0.3859 -0.6544 -0.1555
  796MOL0     C 7345   5.038   2.382   6.327  0.1649 -0.7340 -0.2419
  796MOL0     C 7346   5.189   2.405   6.355  0.1529 -0.2844  0.1793
  796MOL0     C 7347   5.265   2.270   6.359  0.2004 -0.7171  0.3640
  796MOL0     C 7348   5.280   2.190   6.231  0.3205 -0.9317 -1.0362
  796MOL0     O 7349   5.346   2.269   6.128  0.4656  0.0283 -0.5275
  796MOL0     C 7350   5.462   2.222   6.065  0.4694 -0.3889 -0.3990
  796MOL0     C 7351   5.461   2.101   6.000  0.0125 -1.3554 -0.3292
  796MOL0     C 7352   5.573   2.064   5.916  0.4392 -0.8830 -1.1360
  796MOL0     C 7353   5.573   1.934   5.845  0.0606 -1.2129 -0.2672
  796MOL0     C 7354   5.697   2.147   5.932  0.1473  0.7981  0.5955
  796MOL0     C 7355   5.828   2.115   5.878  0.1219  0.2193  0.4180
  796MOL0     O 7356   5.858   1.982   5.849 -0.0720  0.2113 -0.3623
  796MOL0     C 7357   5.984   1.944   5.813  0.0874  0.1939  0.8141
  796MOL0     C 7358   6.107   2.021   5.816  0.1393  0.9726  0.3728
  796MOL0     C 7359   6.235   1.964   5.803 -0.3593 -0.5732 -0.0245
  796MOL0     C 7360   6.246   1.824   5.786  0.0078 -0.1552  1.1463
  796MOL0     O 7361   6.367   1.768   5.766  0.0518 -0.1377  0.1392
  796MOL0     C 7362   6.372   1.675   5.652 -0.2105 -0.9247 -0.6794
  796MOL0     C 7363   6.509   1.618   5.641 -0.1210 -0.6512  0.0699
  796MOL0     C 7364   6.551   1.504   5.551 -1.0133  0.7237 -0.8661
  796MOL0     C 7365   6.504   1.516   5.412  0.0057 -0.2515 -0.5298
  796MOL0     C 7366   6.514   1.381   5.339 -1.0092 -0.0193  0.6689
  796MOL0     C 7367   6.519   1.390   5.178 -0.5688 -0.0198 -0.2274
  796MOL0     C 7368   6.473   1.262   5.127  0.4553  0.6261 -0.3315
  796MOL0     C 7369   6.495   1.246   4.977  1.0924 -0.0847 -0.3879
  796MOL0    Cl 7370   6.528   1.086   4.948 -0.1307  0.4224 -0.0581
  796MOL0     C 7371   6.131   1.748   5.781 -0.0339  0.2606 -0.3392
  796MOL0     C 7372   6.004   1.807   5.797  0.1910 -0.2474 -0.4797
  796MOL0     O 7373   5.893   2.216   5.851 -0.3076  0.1766 -0.8188
  796MOL0     C 7374   5.694   2.263   6.012 -0.7558  0.1774 -1.2319
  796MOL0     C 7375   5.580   2.296   6.071  0.1353  0.6948  0.4273
  796MOL0     N 7376   4.973   2.482   6.549 -0.2465  0.0558 -0.0195
  796MOL0     N 7377   4.913   2.450   6.662  0.2107  0.2054  0.6472
  796MOL0     C 7378   5.319   1.503   6.547  0.5733  1.1337 -0.1844
  796MOL0     C 7379   5.297   1.369   6.513  0.5013 -0.7351 -0.4013
  796MOL0     C 7380   5.272   0.893   6.592  0.5995 -0.7621 -0.4746
  796MOL0     C 7381   5.166   0.889   6.502 -0.6215  0.1643  0.1211
  796MOL0     C 7382   5.116   0.753   6.475  0.1486 -0.8260  0.0826
  796MOL0     C 7383   5.173   0.636   6.511 -0.1259 -0.8206 -0.8761
  796MOL0     O 7384   5.144   0.516   6.459  0.0857  1.2652  0.4439
  796MOL0     C 7385   5.101   0.506   6.312  0.2212 -0.0497 -0.3365
  796MOL0     C 7386   5.129   0.361   6.265  0.2724 -0.6977  0.5948
  796MOL0     C 7387   5.075   0.329   6.131 -0.8463 -0.2234 -0.0183
  796MOL0     C 7388   5.119   0.203   6.061 -0.1780  0.2654  0.3387
  796MOL0     C 7389   5.026   0.090   6.106 -0.2294  1.7744 -0.1655
  796MOL0     C 7390   4.963  -0.017   6.125 -0.2081  0.2200  0.5843
  796MOL0     C 7391   5.281   0.647   6.605  0.2710 -0.0565  1.1574
  796MOL0     C 7392   5.327   0.775   6.650  0.9469  0.2622 -0.3075
  796MOL0     H 7393   5.308   1.232   6.816  3.2159  2.2057  1.8864
  796MOL0     H 7394   5.317   1.475   6.884 -0.2466 -2.8899  2.1148
  796MOL0     H 7395   5.334   1.690   6.905  1.1174  0.8741  0.0678
  796MOL0     H 7396   5.489   1.704   6.836  1.3302  1.3410 -2.3186
  796MOL0     H 7397   5.476   1.924   6.870  0.7413 -1.8762  0.8625
  796MOL0     H 7398   5.390   1.922   6.719  1.0119  2.8088  1.5947
  796MOL0     H 7399   5.306   1.904   7.003  2.1319 -0.2225 -0.4500
  796MOL0     H 7400   5.283   2.044   6.908 -0.5973 -0.5445 -2.3817
  796MOL0     H 7401   5.137   1.873   6.750 -0.3961  0.4967 -0.1471
  796MOL0     H 7402   5.115   1.792   6.902 -1.2607  0.9019  0.2172
  796MOL0     H 7403   4.938   1.932   6.942  0.3620 -0.2001  0.2161
  796MOL0     H 7404   5.053   2.060   6.975 -1.6233 -1.0871  0.6591
  796MOL0     H 7405   5.055   2.103   6.731 -0.3264 -0.4880 -1.1985
  796MOL0     H 7406   4.896   2.011   6.729  1.5836 -3.8155  2.6988
  796MOL0     H 7407   4.851   2.161   6.952 -0.7668  2.0026 -0.9408
  796MOL0     H 7408   4.959   2.283   6.877  0.6363 -0.0537 -1.0898
  796MOL0     H 7409   4.737   2.325   6.822  1.5518  0.7395 -0.5939
  796MOL0     H 7410   4.732   2.172   6.730  4.7390 -3.8530  1.0864
  796MOL0     H 7411   4.873   2.184   6.494  2.2205 -1.2049  4.5249
  796MOL0     H 7412   5.022   2.291   6.268 -0.0245  0.6859 -2.5151
  796MOL0     H 7413   4.999   2.473   6.280  0.6886 -0.1506  0.4429
  796MOL0     H 7414   5.208   2.475   6.437  2.5417  0.7386 -1.1218
  796MOL0     H 7415   5.228   2.449   6.263  0.6228 -3.3200 -1.1914
  796MOL0     H 7416   5.235   2.207   6.443  2.9464 -3.2754 -0.3685
  796MOL0     H 7417   5.364   2.302   6.393 -0.1524  0.6296  0.1673
  796MOL0     H 7418   5.180   2.164   6.194 -0.5174 -0.5618  0.8385
  796MOL0     H 7419   5.351   2.109   6.243  0.6527 -0.3340  1.5988
  796MOL0     H 7420   5.365   2.050   5.999 -0.2366 -0.9305  0.5191
  796MOL0     H 7421   5.629   1.952   5.753  0.1183  2.4392  0.3420
  796MOL0     H 7422   5.633   1.859   5.898 -1.1421 -0.7536  1.8502
  796MOL0     H 7423   5.478   1.891   5.811  1.6250 -2.3311 -3.7599
  796MOL0     H 7424   6.105   2.127   5.838  0.3156  1.4671 -1.8236
  796MOL0     H 7425   6.323   2.026   5.814 -0.0006 -1.5685  4.2190
  796MOL0     H 7426   6.326   1.577   5.669  2.7325 -2.3500 -0.3247
  796MOL0     H 7427   6.337   1.714   5.556 -0.4390  0.7815  0.0622
  796MOL0     H 7428   6.571   1.706   5.618  0.2571 -0.9894 -0.2221
  796MOL0     H 7429   6.533   1.585   5.742 -1.0463 -3.6182 -0.5706
  796MOL0     H 7430   6.502   1.420   5.602  0.5850  1.6825  2.5536
  796MOL0     H 7431   6.660   1.503   5.542 -0.9960  2.1201 -0.9912
  796MOL0     H 7432   6.397   1.532   5.394 -0.5193 -0.5415  1.9005
  796MOL0     H 7433   6.556   1.597   5.362 -0.3213  0.3778  0.1288
  796MOL0     H 7434   6.431   1.313   5.361 -0.1026 -2.0615 -1.7895
  796MOL0     H 7435   6.603   1.323   5.360 -2.1309 -1.4437  1.6759
  796MOL0     H 7436   6.470   1.482   5.145  0.6561  0.7914  0.1731
  796MOL0     H 7437   6.625   1.399   5.154 -0.7381  3.8455 -0.2294
  796MOL0     H 7438   6.367   1.255   5.152 -0.4209  0.7163 -3.6062
  796MOL0     H 7439   6.519   1.179   5.180 -1.0726  0.7487  1.2519
  796MOL0     H 7440   6.581   1.309   4.956  2.3457  0.8521  5.7549
  796MOL0     H 7441   6.410   1.286   4.919  2.3033 -1.5002 -3.3611
  796MOL0     H 7442   6.130   1.640   5.766 -1.1779  0.3909 -1.3762
  796MOL0     H 7443   5.920   1.739   5.788 -1.1366  1.4661 -1.5032
  796MOL0     H 7444   5.785   2.321   6.022 -1.1590  0.9253 -1.7685
  796MOL0     H 7445   5.594   2.378   6.139 -0.4118  1.7326 -0.6712
  796MOL0     H 7446   5.319   1.584   6.474  0.7054  1.5121  0.2245
  796MOL0     H 7447   5.276   1.343   6.409 -0.7901 -0.3648 -0.2569
  796MOL0     H 7448   5.126   0.980   6.460  2.6680  2.4662  1.5756
  796MOL0     H 7449   5.032   0.768   6.409 -1.3446  0.5500  2.1499
  796MOL0     H 7450   4.995   0.529   6.299 -0.1491 -2.6018 -2.4805
  796MOL0     H 7451   5.151   0.587   6.258 -2.1715  2.3107  0.7222
  796MOL0     H 7452   5.093   0.286   6.337  2.4378 -0.9155  1.5202
  796MOL0     H 7453   5.236   0.339   6.261  0.2784 -0.4979 -1.8222
  796MOL0     H 7454   5.101   0.414   6.068  2.0026 -1.1831 -0.2881
  796MOL0     H 7455   4.966   0.320   6.131 -0.8201 -0.5647 -0.7029
  796MOL0     H 7456   5.219   0.178   6.097  0.1856  3.6120  1.9974
  796MOL0     H 7457   5.118   0.215   5.952  0.7104  0.1064  0.3098
  796MOL0     H 7458   4.907  -0.106   6.146  1.1546 -0.9531 -0.5679
  796MOL0     H 7459   5.329   0.565   6.657 -2.1888 -2.5787 -0.2633
  796MOL0     H 7460   5.409   0.788   6.721  0.5992 -0.9378  0.3352
  797MOL0     O 7461   5.599   0.307   0.588  1.0100 -0.6752 -0.7348
  797MOL0     C 7462   5.632   0.414   0.640 -0.4026  0.6880  0.0411
  797MOL0     O 7463   5.733   0.488   0.600 -0.0767  0.2934  0.2702
  797MOL0     C 7464   5.775   0.454   0.473  0.0837  0.8380  0.1341
  797MOL0     C 7465   5.721   0.521   0.365 -0.5679 -0.6280  0.0724
  797MOL0     C 7466   5.761   0.480   0.231  0.9560 -0.6492 -0.8404
  797MOL0     C 7467   5.855   0.375   0.212 -0.0763 -0.9099  0.7428
  797MOL0     O 7468   5.901   0.354   0.085 -0.9120  0.3279  0.5408
  797MOL0     C 7469   5.934   0.218   0.050 -0.4298 -0.1871 -0.0033
  797MOL0     C 7470   5.941   0.184  -0.103 -0.3107  0.4014 -0.0750
  797MOL0     C 7471   5.809   0.187  -0.170  0.0619 -0.4608 -0.4263
  797MOL0     C 7472   5.698   0.089  -0.119 -0.2948  0.0518 -0.1452
  797MOL0     C 7473   5.555   0.138  -0.146 -0.5060 -0.2015 -0.4371
  797MOL0     C 7474   5.452   0.028  -0.102 -0.5675  0.9927  0.0989
  797MOL0     C 7475   5.316   0.096  -0.091 -1.3966  0.2887 -0.5596
  797MOL0     C 7476   5.201  -0.013  -0.072  0.2121  0.6083 -0.1914
  797MOL0     N 7477   5.174  -0.085  -0.190  0.9683 -0.3684  0.6021
  797MOL0     C 7478   5.136  -0.030  -0.311 -0.8142  0.7026 -0.0167
  797MOL0     C 7479   5.119  -0.136  -0.401 -0.6703 -0.0909  0.9566
  797MOL0     C 7480   5.045  -0.124  -0.538  0.9169 -0.1802  0.4060
  797MOL0     C 7481   5.151  -0.096  -0.653 -1.2635  0.0145  0.0343
  797MOL0     C 7482   5.259  -0.213  -0.684 -0.1547 -0.8406 -1.1884
  797MOL0     C 7483   5.196  -0.321  -0.765  0.0077  0.6891  0.0114
  797MOL0     O 7484   5.279  -0.433  -0.792  0.7594 -0.2559  0.3097
  797MOL0     C 7485   5.291  -0.518  -0.689  0.4650  0.5814  0.1259
  797MOL0     C 7486   5.226  -0.521  -0.564 -0.2729  0.6624  0.4094
  797MOL0     C 7487   5.259  -0.615  -0.471  0.7218 -0.2417  0.4382
  797MOL0     C 7488   5.186  -0.605  -0.342 -0.5601 -0.2712  0.4141
  797MOL0     C 7489   5.340  -0.724  -0.494  0.3105 -0.7116 -0.3477
  797MOL0     C 7490   5.367  -0.838  -0.406 -1.1221  0.0925  0.5325
  797MOL0     O 7491   5.380  -0.967  -0.459 -0.2496 -1.2982  0.8917
  797MOL0     C 7492   5.383  -1.057  -0.357  0.5005  0.0787  0.2644
  797MOL0     C 7493   5.272  -1.111  -0.300  1.0607 -0.1792 -1.2369
  797MOL0     C 7494   5.273  -1.208  -0.197  0.9170 -0.0892 -1.1780
  797MOL0     C 7495   5.390  -1.252  -0.135  0.4461 -0.4598 -0.7613
  797MOL0     O 7496   5.395  -1.327  -0.020 -0.4899  0.1407  0.6911
  797MOL0     C 7497   5.371  -1.472  -0.030  0.0293 -0.2501  0.3745
  797MOL0     C 7498   5.474  -1.536  -0.129  0.2373  1.0079 -0.1647
  797MOL0     C 7499   5.616  -1.545  -0.073 -0.2526 -0.1207  0.2919
  797MOL0     C 7500   5.698  -1.619  -0.182 -0.7038  0.6339  0.6944
  797MOL0     C 7501   5.831  -1.665  -0.137 -1.6111  0.1130  0.1112
  797MOL0     C 7502   5.897  -1.763  -0.238 -0.9619 -0.0348 -0.1024
  797MOL0     C 7503   5.936  -1.698  -0.383 -0.2205 -0.3927  0.9495
  797MOL0     C 7504   6.030  -1.794  -0.458 -0.4063 -0.0033  0.3226
  797MOL0    Cl 7505   6.060  -1.716  -0.618  0.0491 -0.3285  0.1941
  797MOL0     C 7506   5.510  -1.193  -0.194  0.5163  0.1080  0.2032
  797MOL0     C 7507   5.505  -1.099  -0.305  0.5796 -0.5554 -0.7490
  797MOL0     O 7508   5.405  -0.810  -0.293 -0.3829 -0.0051 -0.1956
  797MOL0     C 7509   5.410  -0.730  -0.615  0.8680 -0.2557  0.8249
  797MOL0     C 7510   5.377  -0.633  -0.713 -0.2879  0.0107 -0.3800
  797MOL0     N 7511   5.143  -0.248  -0.324  0.1022 -0.1668  0.7324
  797MOL0     N 7512   5.181  -0.218  -0.205 -0.2448 -0.7294  0.1507
  797MOL0     C 7513   5.918   0.331   0.326  0.3975  0.7770 -0.5343
  797MOL0     C 7514   5.891   0.374   0.458  0.7667  0.1955  0.0769
  797MOL0     C 7515   5.550   0.454   0.758 -0.5142  0.0863 -1.1648
  797MOL0     C 7516   5.429   0.384   0.791 -0.7173  0.5586  0.1239
  797MOL0     C 7517   5.346   0.426   0.897 -1.1231 -0.2864 -0.4263
  797MOL0     C 7518   5.382   0.539   0.968 -0.0784 -1.1460 -0.2919
  797MOL0     O 7519   5.304   0.570   1.078 -0.0257 -0.5178  0.0724
  797MOL0     C 7520   5.305   0.702   1.142  0.3781  0.2240 -0.2541
  797MOL0     C 7521   5.160   0.725   1.196  0.2106 -0.3028 -0.6013
  797MOL0     C 7522   5.051   0.710   1.089 -0.0395 -0.1748  0.5238
  797MOL0     C 7523   4.914   0.749   1.130  0.4043 -0.6942 -0.2572
  797MOL0     C 7524   4.887   0.669   1.254 -0.7929  0.2487 -0.4388
  797MOL0     C 7525   4.849   0.598   1.347  1.2432 -0.3885  0.3223
  797MOL0     C 7526   5.487   0.622   0.920 -0.3999  0.8413 -0.3276
  797MOL0     C 7527   5.580   0.564   0.830  0.6295 -1.3601  0.8027
  797MOL0     H 7528   5.644   0.597   0.375  0.2987  0.1494  1.1329
  797MOL0     H 7529   5.708   0.521   0.146  1.1005  1.2689 -0.0654
  797MOL0     H 7530   6.027   0.188   0.099 -0.5016 -1.1917 -0.4540
  797MOL0     H 7531   5.845   0.162   0.082 -2.6677  2.9309 -0.3219
  797MOL0     H 7532   6.004   0.258  -0.153  0.1436 -0.8914 -1.5080
  797MOL0     H 7533   5.981   0.087  -0.133 -0.3599  0.2677  0.2902
  797MOL0     H 7534   5.759   0.283  -0.161  0.2256 -0.2968 -1.2241
  797MOL0     H 7535   5.831   0.166  -0.275 -0.8691  0.2328 -0.7638
  797MOL0     H 7536   5.711  -0.008  -0.167  4.1267  0.3030  0.1760
  797MOL0     H 7537   5.697   0.066  -0.012 -2.3595 -2.4331 -0.6004
  797MOL0     H 7538   5.541   0.233  -0.094  0.7601  1.1727 -2.4804
  797MOL0     H 7539   5.539   0.154  -0.253  1.9688  1.8878 -0.5981
  797MOL0     H 7540   5.453  -0.048  -0.180 -0.0461  2.0031 -0.9203
  797MOL0     H 7541   5.463  -0.010   0.000 -1.3010 -0.2483 -0.2646
  797MOL0     H 7542   5.322   0.165  -0.007  0.4979  0.9313 -1.1685
  797MOL0     H 7543   5.294   0.163  -0.175  0.0088 -0.0524 -1.2319
  797MOL0     H 7544   5.111   0.028  -0.024 -0.3759  0.3196 -1.0313
  797MOL0     H 7545   5.234  -0.081   0.007 -2.8658  0.3762  1.0612
  797MOL0     H 7546   5.096   0.069  -0.324  1.4653  2.0598  2.4424
  797MOL0     H 7547   4.994  -0.216  -0.566 -1.1396  1.5375 -1.9497
  797MOL0     H 7548   4.977  -0.039  -0.526  1.2489  0.1898 -0.2493
  797MOL0     H 7549   5.217  -0.016  -0.618  0.4397 -0.9942 -0.7575
  797MOL0     H 7550   5.117  -0.074  -0.755  0.2607 -0.6138 -0.6431
  797MOL0     H 7551   5.304  -0.251  -0.592 -0.5618 -0.3215 -0.7749
  797MOL0     H 7552   5.351  -0.176  -0.731  0.6717  0.9264  1.5630
  797MOL0     H 7553   5.181  -0.283  -0.867  0.0427  0.5625 -0.0415
  797MOL0     H 7554   5.096  -0.345  -0.728  0.6285 -1.0201  0.6636
  797MOL0     H 7555   5.149  -0.449  -0.539  0.8749  1.7805  0.8107
  797MOL0     H 7556   5.264  -0.619  -0.267  0.9004 -1.2532 -1.2321
  797MOL0     H 7557   5.141  -0.506  -0.350  0.0044 -0.1710 -3.6339
  797MOL0     H 7558   5.103  -0.677  -0.340 -0.5085 -0.3154  1.2164
  797MOL0     H 7559   5.174  -1.073  -0.327  0.4864  1.5272  2.5296
  797MOL0     H 7560   5.184  -1.251  -0.153  0.7387  1.1727 -0.2540
  797MOL0     H 7561   5.401  -1.530   0.057  2.0503 -2.5025 -1.6985
  797MOL0     H 7562   5.266  -1.498  -0.045 -0.1646  0.4840  0.3808
  797MOL0     H 7563   5.444  -1.641  -0.140  0.6672  0.7734  0.8459
  797MOL0     H 7564   5.457  -1.494  -0.229  0.6752  0.8759 -0.2979
  797MOL0     H 7565   5.601  -1.599   0.021  0.8344  1.0345  1.1754
  797MOL0     H 7566   5.658  -1.448  -0.046 -1.1818  0.5290 -0.5312
  797MOL0     H 7567   5.651  -1.706  -0.230  4.0971 -1.8520 -0.1202
  797MOL0     H 7568   5.731  -1.558  -0.267  3.9564 -2.8214 -0.3591
  797MOL0     H 7569   5.827  -1.713  -0.039  1.2886 -1.5588 -0.4829
  797MOL0     H 7570   5.883  -1.569  -0.134  0.2403 -0.8554  0.8072
  797MOL0     H 7571   5.996  -1.792  -0.201 -1.4639 -3.8542 -1.2884
  797MOL0     H 7572   5.849  -1.861  -0.247  2.2101 -1.6635 -1.2896
  797MOL0     H 7573   5.983  -1.600  -0.370  2.8358 -1.8161  1.2260
  797MOL0     H 7574   5.856  -1.690  -0.458  0.1517  0.7448  0.6546
  797MOL0     H 7575   5.978  -1.890  -0.464  0.2115 -0.4528  1.7331
  797MOL0     H 7576   6.126  -1.798  -0.406  0.3756  3.9845 -0.5288
  797MOL0     H 7577   5.608  -1.206  -0.147  1.6492  0.6564 -1.8862
  797MOL0     H 7578   5.596  -1.046  -0.332 -0.0190  1.4259  0.8623
  797MOL0     H 7579   5.483  -0.804  -0.644  1.8637  1.9420 -3.0167
  797MOL0     H 7580   5.433  -0.659  -0.803 -1.1294 -3.4606 -0.0574
  797MOL0     H 7581   5.995   0.255   0.337 -2.1011 -1.6810  1.6484
  797MOL0     H 7582   5.940   0.337   0.547  1.1212 -0.2878 -0.3060
  797MOL0     H 7583   5.407   0.287   0.746 -0.5254 -0.6313  2.4557
  797MOL0     H 7584   5.269   0.361   0.938 -0.6833  0.5588  1.9134
  797MOL0     H 7585   5.383   0.711   1.218 -0.5800  1.2330  0.6499
  797MOL0     H 7586   5.315   0.780   1.066 -1.5826  0.1849 -0.6172
  797MOL0     H 7587   5.156   0.829   1.229  0.5066  0.8293 -3.7137
  797MOL0     H 7588   5.152   0.652   1.276 -2.6389  2.0225  1.4645
  797MOL0     H 7589   5.052   0.608   1.050  2.7653  0.4984 -1.5125
  797MOL0     H 7590   5.090   0.770   1.006 -0.0027  0.2067  0.8149
  797MOL0     H 7591   4.837   0.726   1.056 -0.0669  0.5953 -0.1916
  797MOL0     H 7592   4.913   0.858   1.144 -1.9851 -0.9818  3.4110
  797MOL0     H 7593   4.797   0.528   1.409 -2.6338  1.8412 -0.0725
  797MOL0     H 7594   5.516   0.722   0.952  0.4454  0.0922  1.3504
  797MOL0     H 7595   5.676   0.610   0.809 -0.6860  0.8540 -0.7385
  798MOL0     O 7596  10.804  11.294   8.114 -0.3121 -0.7589 -0.1574
  798MOL0     C 7597  10.736  11.195   8.083  0.1033 -0.9869  0.7725
  798MOL0     O 7598  10.626  11.208   8.011 -0.3714  0.5292  0.3976
  798MOL0     C 7599  10.551  11.319   8.036  0.2169 -0.5188  0.2539
  798MOL0     C 7600  10.510  11.392   7.931 -0.1498  0.7857 -0.1648
  798MOL0     C 7601  10.434  11.512   7.947 -0.6891 -0.1627  0.1072
  798MOL0     C 7602  10.408  11.562   8.071 -0.0365  0.5521 -1.0981
  798MOL0     O 7603  10.357  11.689   8.091 -0.5210 -0.6647 -0.3551
  798MOL0     C 7604  10.378  11.794   7.994 -0.1263  0.2017  0.5275
  798MOL0     C 7605  10.352  11.933   8.062  0.5567  0.6698 -0.8147
  798MOL0     C 7606  10.232  11.926   8.164  0.1266  0.5860  0.7756
  798MOL0     C 7607  10.096  11.881   8.100 -0.3198  0.5511 -0.0856
  798MOL0     C 7608  10.056  11.947   7.970  0.8959 -0.3557  1.1119
  798MOL0     C 7609   9.916  11.900   7.908  0.6112 -0.2634 -0.3896
  798MOL0     C 7610   9.789  11.984   7.951 -1.1736 -0.4087  0.3815
  798MOL0     C 7611   9.768  12.004   8.101  1.3212 -1.2398  0.2950
  798MOL0     N 7612   9.850  12.103   8.175  0.2698 -0.8359  0.5876
  798MOL0     C 7613   9.859  12.090   8.307 -0.1560 -0.3176  0.1472
  798MOL0     C 7614   9.923  12.195   8.349  0.4316 -0.0570 -0.2599
  798MOL0     C 7615   9.949  12.243   8.490 -0.6819  0.5766 -0.4311
  798MOL0     C 7616  10.095  12.294   8.504 -0.1102 -0.3887 -0.4315
  798MOL0     C 7617  10.109  12.400   8.621  0.3569 -0.6695 -0.9180
  798MOL0     C 7618  10.258  12.413   8.655  1.0538  0.4328 -0.4677
  798MOL0     O 7619  10.308  12.335   8.767  0.0844 -0.7720 -0.3141
  798MOL0     C 7620  10.368  12.214   8.742  0.4424 -0.9112  0.5405
  798MOL0     C 7621  10.386  12.131   8.852 -1.2002  1.2778 -0.6089
  798MOL0     C 7622  10.447  12.004   8.849  0.8476  0.7905  0.2372
  798MOL0     C 7623  10.438  11.919   8.968  0.2104 -0.2811  0.1406
  798MOL0     C 7624  10.488  11.958   8.726  1.1612  0.6899  0.1068
  798MOL0     C 7625  10.528  11.811   8.692 -0.1200 -0.9377  0.7499
  798MOL0     O 7626  10.501  11.769   8.567  0.2403  0.7714  0.9540
  798MOL0     C 7627  10.536  11.637   8.542  0.4158 -1.0744  0.2654
  798MOL0     C 7628  10.461  11.534   8.601  0.1113  1.6032 -0.3997
  798MOL0     C 7629  10.495  11.396   8.584  1.0134  0.0436  0.4126
  798MOL0     C 7630  10.610  11.368   8.511  0.5962  0.2309 -0.9000
  798MOL0     O 7631  10.658  11.245   8.500 -0.7371 -0.0390 -0.4610
  798MOL0     C 7632  10.597  11.127   8.559  0.8264  0.0983  0.1845
  798MOL0     C 7633  10.647  10.996   8.500  0.3613  0.1690  0.3815
  798MOL0     C 7634  10.546  10.951   8.389  0.1347 -0.1050  0.4145
  798MOL0     C 7635  10.592  10.822   8.327  0.2177 -0.9830  0.2753
  798MOL0     C 7636  10.505  10.780   8.208 -0.0680  0.0040  0.1471
  798MOL0     C 7637  10.545  10.648   8.135 -0.3240  0.2952 -0.7281
  798MOL0     C 7638  10.479  10.525   8.211  0.4941 -0.4393  0.5487
  798MOL0     C 7639  10.549  10.392   8.182 -0.5133  0.0573 -0.5456
  798MOL0    Cl 7640  10.706  10.376   8.263  0.2641 -0.3716 -0.7206
  798MOL0     C 7641  10.684  11.469   8.452  0.3363  0.4278 -0.1536
  798MOL0     C 7642  10.645  11.609   8.456  0.5344  0.7349 -1.7460
  798MOL0     O 7643  10.588  11.752   8.774  0.0474 -1.1690  0.2332
  798MOL0     C 7644  10.468  12.039   8.611 -1.3725 -0.0829 -1.0610
  798MOL0     C 7645  10.417  12.170   8.617 -1.0994 -0.0298 -0.8787
  798MOL0     N 7646   9.932  12.289   8.247  0.5150 -0.1537 -0.4651
  798MOL0     N 7647   9.885  12.235   8.141 -0.4486  1.0013  0.3692
  798MOL0     C 7648  10.444  11.484   8.183 -0.0892 -0.6512 -0.1931
  798MOL0     C 7649  10.517  11.364   8.168 -0.4824  0.1709 -0.1160
  798MOL0     C 7650  10.807  11.066   8.094  0.8441 -0.1379 -1.1302
  798MOL0     C 7651  10.889  11.045   8.205 -1.5102  0.7101  0.0524
  798MOL0     C 7652  10.971  10.921   8.209 -0.4509 -0.4391 -0.6816
  798MOL0     C 7653  10.960  10.818   8.115  0.9379 -1.3791 -0.0174
  798MOL0     O 7654  11.028  10.704   8.116 -0.2300  0.4316  0.2463
  798MOL0     C 7655  11.085  10.663   8.240  0.0983 -1.1589  0.1800
  798MOL0     C 7656  11.126  10.521   8.244  0.3456 -0.4557 -0.5829
  798MOL0     C 7657  11.218  10.483   8.127  0.5973  0.6191 -1.5390
  798MOL0     C 7658  11.306  10.362   8.171  0.5597  0.4788 -0.0938
  798MOL0     C 7659  11.414  10.338   8.084 -0.5591 -0.3625  0.3363
  798MOL0     C 7660  11.511  10.317   8.019  0.3278 -0.7276 -0.4783
  798MOL0     C 7661  10.869  10.848   8.005 -0.3499 -1.0443  0.4460
  798MOL0     C 7662  10.802  10.968   7.992  0.0051  0.0233  0.8072
  798MOL0     H 7663  10.540  11.386   7.827  1.3159  4.9978 -0.1619
  798MOL0     H 7664  10.418  11.576   7.860  1.6670  1.0741  0.5110
  798MOL0     H 7665  10.483  11.792   7.963 -0.3563  0.7524 -0.3192
  798MOL0     H 7666  10.307  11.785   7.912  2.7792 -2.3377 -2.0041
  798MOL0     H 7667  10.444  11.957   8.117 -0.6196  0.6079  1.2676
  798MOL0     H 7668  10.334  12.017   7.994  0.1915  0.8999 -0.4339
  798MOL0     H 7669  10.260  11.860   8.247  0.6958 -1.4506 -0.9308
  798MOL0     H 7670  10.221  12.025   8.208  2.6922  0.7324  1.2503
  798MOL0     H 7671  10.111  11.774   8.079  0.2741  1.1724 -3.5309
  798MOL0     H 7672  10.015  11.890   8.173  0.2629 -2.7233  1.1501
  798MOL0     H 7673  10.057  12.055   7.986 -3.2424 -0.0912  0.7468
  798MOL0     H 7674  10.140  11.919   7.906  0.6648  3.2656 -1.0606
  798MOL0     H 7675   9.924  11.922   7.801 -1.6164  1.3062 -0.3114
  798MOL0     H 7676   9.904  11.792   7.919 -0.1990 -0.2316 -0.9343
  798MOL0     H 7677   9.787  12.078   7.894  0.4116 -1.2402 -1.1625
  798MOL0     H 7678   9.702  11.933   7.910  0.1782 -1.1238 -1.7748
  798MOL0     H 7679   9.783  11.902   8.137  0.3840 -2.1991 -1.8709
  798MOL0     H 7680   9.666  12.044   8.102  2.4738  2.0981 -0.8515
  798MOL0     H 7681   9.836  12.001   8.364  1.6924 -0.8380  0.1277
  798MOL0     H 7682   9.879  12.325   8.510 -0.7247  0.7607 -1.2994
  798MOL0     H 7683   9.940  12.164   8.564  4.6261 -1.4975 -1.5445
  798MOL0     H 7684  10.131  12.322   8.406  2.1100 -2.3109 -0.2538
  798MOL0     H 7685  10.150  12.209   8.546 -1.6033 -1.6442 -0.9212
  798MOL0     H 7686  10.051  12.366   8.707  1.6022 -1.0575 -0.2123
  798MOL0     H 7687  10.068  12.497   8.592 -1.6487  0.2587  4.0915
  798MOL0     H 7688  10.275  12.521   8.663  2.6009  0.0989  1.9006
  798MOL0     H 7689  10.320  12.388   8.569 -0.2195 -0.3419 -1.1985
  798MOL0     H 7690  10.363  12.174   8.949  2.0994 -1.7307  1.7758
  798MOL0     H 7691  10.365  11.957   9.040 -1.2298 -3.0869  0.2619
  798MOL0     H 7692  10.407  11.816   8.949 -0.7693  0.2630 -1.3988
  798MOL0     H 7693  10.537  11.905   9.012  1.2501 -1.4282 -2.3685
  798MOL0     H 7694  10.369  11.566   8.650 -1.3089  0.0794 -1.9328
  798MOL0     H 7695  10.435  11.322   8.635  0.2952  2.2355  2.9895
  798MOL0     H 7696  10.623  11.122   8.665 -2.1348  3.1167  1.2217
  798MOL0     H 7697  10.489  11.138   8.549  1.0608  1.7138 -1.1498
  798MOL0     H 7698  10.752  11.003   8.469 -0.9268  0.8176 -4.8201
  798MOL0     H 7699  10.644  10.924   8.582 -2.0193 -0.6833 -0.3787
  798MOL0     H 7700  10.542  11.024   8.308  0.2681 -1.1025 -0.5211
  798MOL0     H 7701  10.444  10.949   8.428 -0.9416  2.4499 -1.9215
  798MOL0     H 7702  10.692  10.833   8.285  0.2328  1.5100  0.7778
  798MOL0     H 7703  10.587  10.749   8.408 -3.1606  1.7858  2.8652
  798MOL0     H 7704  10.501  10.858   8.132  2.3549 -1.3341 -1.4761
  798MOL0     H 7705  10.405  10.760   8.247  0.0526  1.4640  1.2981
  798MOL0     H 7706  10.521  10.654   8.028  3.4488 -0.2597 -1.7730
  798MOL0     H 7707  10.654  10.635   8.141 -0.0237  2.1984 -1.1995
  798MOL0     H 7708  10.374  10.514   8.184  0.7642 -0.8622 -0.3890
  798MOL0     H 7709  10.486  10.541   8.319  0.6479 -2.2088  0.8315
  798MOL0     H 7710  10.563  10.391   8.074  1.0310 -0.9222 -0.3699
  798MOL0     H 7711  10.488  10.310   8.220  0.8451  0.2539  2.3261
  798MOL0     H 7712  10.777  11.441   8.404 -0.4060  0.1552 -1.4851
  798MOL0     H 7713  10.700  11.693   8.415  0.6880  1.4601 -0.1348
  798MOL0     H 7714  10.506  12.006   8.515  1.6128  0.6115 -0.2165
  798MOL0     H 7715  10.435  12.239   8.535  2.6587  1.9968  1.3686
  798MOL0     H 7716  10.410  11.505   8.284 -3.5714 -1.4394 -1.0714
  798MOL0     H 7717  10.551  11.314   8.258  1.1023  0.7900 -0.3292
  798MOL0     H 7718  10.895  11.123   8.280 -2.6840 -1.0268  2.0437
  798MOL0     H 7719  11.033  10.913   8.298 -0.1547  2.7041 -0.4704
  798MOL0     H 7720  11.176  10.722   8.253  0.6705 -1.7254 -1.1165
  798MOL0     H 7721  11.007  10.680   8.315 -1.2381  0.0407 -1.4216
  798MOL0     H 7722  11.039  10.454   8.237 -1.7561  2.1745 -1.0003
  798MOL0     H 7723  11.183  10.498   8.334 -1.7966  0.7712  1.1832
  798MOL0     H 7724  11.284  10.567   8.104  1.2269 -0.2581 -3.1697
  798MOL0     H 7725  11.160  10.462   8.037  1.2343 -1.0585 -1.6170
  798MOL0     H 7726  11.233  10.280   8.167  2.3967 -1.3830  1.7058
  798MOL0     H 7727  11.359  10.365   8.266 -0.6073  1.8072  0.5545
  798MOL0     H 7728  11.585  10.332   7.943 -0.7159  3.4741 -0.9018
  798MOL0     H 7729  10.862  10.768   7.931  1.0960 -2.0983  1.3901
  798MOL0     H 7730  10.757  10.992   7.896  0.0179 -1.7627  0.3172
  799MOL0     O 7731   4.125   9.677   5.174 -0.0500  0.6121  0.0604
  799MOL0     C 7732   4.078   9.737   5.270  0.1216  0.3029  0.4518
  799MOL0     O 7733   3.996   9.682   5.369 -0.1541 -0.2259  0.2017
  799MOL0     C 7734   3.946   9.556   5.364  0.4157  0.5132  0.4799
  799MOL0     C 7735   4.029   9.446   5.336  1.0151  0.4713 -0.2256
  799MOL0     C 7736   3.983   9.312   5.365  1.0812 -0.9501  0.4776
  799MOL0     C 7737   3.852   9.293   5.388  0.1894 -0.4607  0.6686
  799MOL0     O 7738   3.806   9.167   5.397 -0.5324  0.1521 -0.5041
  799MOL0     C 7739   3.661   9.136   5.408  0.6556  0.8735  0.0894
  799MOL0     C 7740   3.660   8.994   5.368 -0.0309  0.6197 -0.3164
  799MOL0     C 7741   3.750   8.906   5.456 -0.6222  0.4402 -0.6181
  799MOL0     C 7742   3.743   8.762   5.412  0.1043  0.0308  0.1470
  799MOL0     C 7743   3.868   8.673   5.442  0.1959 -0.3342  1.3591
  799MOL0     C 7744   4.003   8.736   5.427 -0.1676  1.1592  0.8243
  799MOL0     C 7745   4.020   8.785   5.285 -0.2711 -0.4523  0.1165
  799MOL0     C 7746   4.167   8.820   5.261 -0.6500  0.3793  0.2980
  799MOL0     N 7747   4.170   8.921   5.151 -0.2839  0.5851 -0.3697
  799MOL0     C 7748   4.236   9.034   5.179  0.7896 -0.0648 -0.2249
  799MOL0     C 7749   4.238   9.098   5.063  1.0633 -0.0723  0.6486
  799MOL0     C 7750   4.325   9.219   5.017  0.4197 -0.2556 -0.0847
  799MOL0     C 7751   4.265   9.347   5.073  0.2478 -0.7251 -0.0526
  799MOL0     C 7752   4.319   9.459   4.972  0.2666  0.1023 -0.0943
  799MOL0     C 7753   4.464   9.493   5.005  1.3013 -0.0179 -0.7211
  799MOL0     O 7754   4.464   9.552   5.133  0.2280 -0.0885 -0.4932
  799MOL0     C 7755   4.501   9.681   5.166 -0.6158  0.8283 -0.0624
  799MOL0     C 7756   4.515   9.795   5.082  0.1580  1.3222 -0.3555
  799MOL0     C 7757   4.558   9.916   5.125 -0.3030 -0.6743 -0.6770
  799MOL0     C 7758   4.522  10.031   5.041 -0.2734  0.6173  0.4361
  799MOL0     C 7759   4.602   9.933   5.259  0.3689  0.8233 -0.2002
  799MOL0     C 7760   4.637  10.061   5.326 -0.7615 -0.8152  0.0510
  799MOL0     O 7761   4.662  10.064   5.465 -0.3706  0.8654 -0.3750
  799MOL0     C 7762   4.643  10.181   5.525 -0.5837 -0.4451 -0.8075
  799MOL0     C 7763   4.522  10.243   5.524 -0.2323 -0.0531 -0.3678
  799MOL0     C 7764   4.503  10.361   5.602 -0.5957 -1.2831  0.6866
  799MOL0     C 7765   4.602  10.408   5.683  0.5180 -0.5128 -0.6005
  799MOL0     O 7766   4.595  10.517   5.763 -0.1208 -0.7954 -0.2487
  799MOL0     C 7767   4.494  10.622   5.725 -0.3362  0.0462  0.1104
  799MOL0     C 7768   4.497  10.762   5.803 -0.6090 -0.2066  0.3852
  799MOL0     C 7769   4.407  10.874   5.746 -1.1753 -0.1952  0.2004
  799MOL0     C 7770   4.493  10.996   5.690  0.7487 -0.1953  0.4846
  799MOL0     C 7771   4.561  11.080   5.804 -0.2104  0.1652 -0.6672
  799MOL0     C 7772   4.474  11.186   5.874  0.5811 -0.7155  0.2721
  799MOL0     C 7773   4.554  11.228   6.003  0.3247  1.0545  0.5355
  799MOL0     C 7774   4.465  11.325   6.074  0.6703 -0.0051  1.2093
  799MOL0    Cl 7775   4.521  11.383   6.237 -0.2196 -0.2121  0.2217
  799MOL0     C 7776   4.724  10.348   5.693  0.5817  0.4719  0.2830
  799MOL0     C 7777   4.738  10.237   5.609  0.0055 -0.0747  0.5733
  799MOL0     O 7778   4.655  10.167   5.257  0.3733  0.1165  0.5192
  799MOL0     C 7779   4.604   9.815   5.340 -0.5166  0.9928  0.6025
  799MOL0     C 7780   4.555   9.691   5.295  0.1831 -0.0688  0.6882
  799MOL0     N 7781   4.178   9.015   4.971  0.8650 -0.1899  0.4950
  799MOL0     N 7782   4.134   8.904   5.027 -1.2011 -0.4356 -0.0241
  799MOL0     C 7783   3.775   9.405   5.418  0.0967 -0.6367  0.2509
  799MOL0     C 7784   3.814   9.537   5.398 -1.2751 -0.5662 -1.7209
  799MOL0     C 7785   4.124   9.877   5.273  0.5457  0.3651 -0.3370
  799MOL0     C 7786   4.189   9.948   5.167  0.8244 -0.0695 -0.8972
  799MOL0     C 7787   4.215  10.081   5.174  0.2662 -0.0534  0.2284
  799MOL0     C 7788   4.166  10.155   5.285 -0.5635 -0.4045 -0.2628
  799MOL0     O 7789   4.167  10.288   5.293  0.9689  0.3296 -0.0768
  799MOL0     C 7790   4.173  10.375   5.181  0.0842  0.2710  0.9943
  799MOL0     C 7791   4.316  10.423   5.159 -0.4784  0.4888 -0.6276
  799MOL0     C 7792   4.352  10.530   5.268  0.2268 -0.1477 -0.1725
  799MOL0     C 7793   4.479  10.610   5.252 -0.5120  0.2889 -0.1043
  799MOL0     C 7794   4.596  10.556   5.315  0.0563  0.1334 -0.7172
  799MOL0     C 7795   4.683  10.509   5.385 -0.8333 -0.1371  1.2745
  799MOL0     C 7796   4.117  10.085   5.396  0.6200  1.3585 -0.6291
  799MOL0     C 7797   4.097   9.947   5.396 -0.1796  0.7738  0.7751
  799MOL0     H 7798   4.133   9.457   5.306  2.0457 -4.0437  0.9803
  799MOL0     H 7799   4.041   9.226   5.394  0.7619  0.0894  4.7902
  799MOL0     H 7800   3.617   9.139   5.508  1.8739  2.5813  0.6252
  799MOL0     H 7801   3.606   9.194   5.333  1.9225 -1.7174 -3.0946
  799MOL0     H 7802   3.554   8.966   5.368  0.2747 -0.5921  0.1354
  799MOL0     H 7803   3.694   8.976   5.266 -1.4095 -0.5578 -0.5992
  799MOL0     H 7804   3.852   8.940   5.436  0.0293 -2.0083 -1.7985
  799MOL0     H 7805   3.743   8.929   5.563  1.1301  0.3513 -0.4506
  799MOL0     H 7806   3.648   8.716   5.442  0.1576 -0.0625  0.1736
  799MOL0     H 7807   3.747   8.766   5.303  2.6849  2.5220  0.2194
  799MOL0     H 7808   3.871   8.648   5.549  2.6257 -0.6950  1.2807
  799MOL0     H 7809   3.859   8.578   5.388 -2.2715 -0.6702  2.2423
  799MOL0     H 7810   4.023   8.821   5.492  3.5935  1.7373 -0.8220
  799MOL0     H 7811   4.071   8.659   5.464 -0.7520  1.1562  1.9195
  799MOL0     H 7812   3.984   8.725   5.202 -1.6317  0.9336 -0.3516
  799MOL0     H 7813   3.961   8.878   5.282 -0.1066 -0.3271  0.6654
  799MOL0     H 7814   4.211   8.724   5.235  0.8947  0.9986  0.5127
  799MOL0     H 7815   4.207   8.866   5.352 -0.9324  0.0891  0.5711
  799MOL0     H 7816   4.284   9.066   5.271 -0.2678  0.7341  0.0655
  799MOL0     H 7817   4.427   9.185   5.040 -0.3999 -2.1368  1.0623
  799MOL0     H 7818   4.322   9.226   4.908 -0.6158  6.0369  0.0007
  799MOL0     H 7819   4.288   9.365   5.179 -0.4228 -2.3364  0.3894
  799MOL0     H 7820   4.157   9.351   5.056  0.4214  0.4819 -1.0461
  799MOL0     H 7821   4.261   9.551   4.964  1.3724  0.6352 -3.7693
  799MOL0     H 7822   4.315   9.417   4.871 -0.7940 -0.9955  0.3863
  799MOL0     H 7823   4.510   9.555   4.928 -1.8563  1.4005 -1.6033
  799MOL0     H 7824   4.521   9.402   5.026 -1.3169 -1.9116 -1.2960
  799MOL0     H 7825   4.466   9.791   4.985 -1.0291  0.8055  0.2454
  799MOL0     H 7826   4.478  10.112   5.100 -0.1553 -0.1604  1.6282
  799MOL0     H 7827   4.611  10.064   4.987  1.7502 -1.4396  2.2712
  799MOL0     H 7828   4.440   9.997   4.978  0.4511 -1.7972  0.6846
  799MOL0     H 7829   4.456  10.202   5.448  1.2489  1.1070 -2.3653
  799MOL0     H 7830   4.409  10.415   5.590  0.6879  0.7257 -1.0887
  799MOL0     H 7831   4.506  10.637   5.617 -2.4110 -3.0318 -0.7015
  799MOL0     H 7832   4.391  10.588   5.736 -0.5221  0.9194  1.1971
  799MOL0     H 7833   4.465  10.743   5.906  2.1087 -2.0272  1.0052
  799MOL0     H 7834   4.600  10.798   5.816 -1.5368  1.5641  4.8255
  799MOL0     H 7835   4.335  10.899   5.825 -1.8068 -1.7066  0.1323
  799MOL0     H 7836   4.344  10.836   5.666  0.0317  2.5242 -2.2374
  799MOL0     H 7837   4.559  10.954   5.614  1.1435 -0.6335  1.0599
  799MOL0     H 7838   4.431  11.069   5.637 -0.6987 -1.1818  0.7526
  799MOL0     H 7839   4.646  11.131   5.756 -0.1219  0.0281 -0.6567
  799MOL0     H 7840   4.603  11.011   5.878  1.6464  3.2630  1.3823
  799MOL0     H 7841   4.447  11.269   5.808 -1.1571 -1.8219 -0.4575
  799MOL0     H 7842   4.380  11.138   5.902  1.2654 -1.2001  1.8596
  799MOL0     H 7843   4.654  11.266   5.983  0.7585 -0.3182 -0.0756
  799MOL0     H 7844   4.571  11.142   6.069  0.5837  1.8992  1.5912
  799MOL0     H 7845   4.369  11.274   6.083  0.3538 -0.3437 -2.4803
  799MOL0     H 7846   4.455  11.406   6.001 -4.7252  1.8728  3.4858
  799MOL0     H 7847   4.800  10.405   5.745  0.7926  2.2072 -1.7945
  799MOL0     H 7848   4.837  10.192   5.607  0.0679  0.0938 -0.7868
  799MOL0     H 7849   4.647   9.843   5.436 -2.7872  2.1676  1.3494
  799MOL0     H 7850   4.557   9.591   5.338  0.7355 -0.0038  0.8194
  799MOL0     H 7851   3.679   9.394   5.469  0.5854  0.7756  1.5623
  799MOL0     H 7852   3.749   9.620   5.425 -3.1267 -2.5271  0.3056
  799MOL0     H 7853   4.221   9.893   5.079  0.7627 -0.5344 -0.6347
  799MOL0     H 7854   4.266  10.122   5.087  1.9044  1.8133  1.9491
  799MOL0     H 7855   4.137  10.317   5.095  2.7813 -0.2662  0.1222
  799MOL0     H 7856   4.101  10.457   5.182 -0.8933 -0.5652  1.6559
  799MOL0     H 7857   4.320  10.466   5.058 -2.8229 -1.0025 -1.4312
  799MOL0     H 7858   4.396  10.350   5.176  0.4951  1.6914  0.0733
  799MOL0     H 7859   4.347  10.486   5.368  1.2986  1.4503  0.6276
  799MOL0     H 7860   4.274  10.606   5.278 -0.3742 -0.9947  2.0095
  799MOL0     H 7861   4.453  10.706   5.298 -1.1922  0.0599  0.0036
  799MOL0     H 7862   4.505  10.638   5.149 -0.6918  1.5722  0.1843
  799MOL0     H 7863   4.766  10.482   5.447  1.8578  2.7239 -0.7742
  799MOL0     H 7864   4.103  10.142   5.487 -0.1333 -0.9234  0.7501
  799MOL0     H 7865   4.061   9.890   5.482  0.7479 -1.3432 -0.1803
  800MOL0     O 7866   7.298   0.933   3.970 -0.2471 -0.2960  0.1905
  800MOL0     C 7867   7.366   0.926   4.071  1.0461 -0.4578 -0.1414
  800MOL0     O 7868   7.392   0.817   4.137 -0.2554 -0.1836  0.0739
  800MOL0     C 7869   7.356   0.687   4.100  0.0032 -0.2144 -0.7110
  800MOL0     C 7870   7.393   0.634   3.971 -0.4686 -0.0623  0.0083
  800MOL0     C 7871   7.332   0.512   3.927  0.1504  0.3205 -0.9073
  800MOL0     C 7872   7.251   0.438   4.020  0.9744 -0.5239  1.0092
  800MOL0     O 7873   7.199   0.317   3.991  0.1292  0.2209 -0.5768
  800MOL0     C 7874   7.213   0.262   3.862  0.0345 -0.2083  0.8692
  800MOL0     C 7875   7.155   0.121   3.875 -0.2558  0.2810 -0.4802
  800MOL0     C 7876   7.011   0.105   3.921 -0.1548 -0.6126  0.9687
  800MOL0     C 7877   6.906   0.127   3.813 -0.1336  0.1331  0.0273
  800MOL0     C 7878   6.771   0.059   3.867  0.1849 -1.3095 -0.4038
  800MOL0     C 7879   6.720   0.127   3.996 -0.0472  0.0964  0.4753
  800MOL0     C 7880   6.600   0.039   4.053  0.5874  0.5764 -0.1623
  800MOL0     C 7881   6.468   0.049   3.971 -0.0752  0.9051  0.0185
  800MOL0     N 7882   6.397   0.177   3.984 -0.6470  0.9667  0.5580
  800MOL0     C 7883   6.352   0.209   4.099 -0.3276 -0.8128  1.0857
  800MOL0     C 7884   6.330   0.340   4.086  0.4299  0.7530  0.2990
  800MOL0     C 7885   6.254   0.431   4.182 -0.2413 -0.3663  0.1327
  800MOL0     C 7886   6.323   0.577   4.185  0.2501  0.1225  0.0921
  800MOL0     C 7887   6.242   0.694   4.243 -0.0916 -0.3230 -0.4891
  800MOL0     C 7888   6.138   0.757   4.154  0.1723 -0.3812  0.6196
  800MOL0     O 7889   6.122   0.901   4.187 -0.5457 -0.3253 -1.3264
  800MOL0     C 7890   6.087   0.930   4.323 -0.0376 -0.1004  0.7994
  800MOL0     C 7891   6.169   0.998   4.406  1.2570  0.9301  0.3318
  800MOL0     C 7892   6.133   1.019   4.540  0.3059  0.6332  0.0585
  800MOL0     C 7893   6.251   1.086   4.616  0.0315  0.9625  0.3118
  800MOL0     C 7894   6.004   0.974   4.593 -0.7896 -0.9881  0.1680
  800MOL0     C 7895   5.960   1.006   4.726 -0.7181 -0.6999 -1.3622
  800MOL0     O 7896   6.033   1.080   4.824  0.6903 -0.5280 -0.0900
  800MOL0     C 7897   5.979   1.195   4.873  0.6213 -0.7139 -0.5009
  800MOL0     C 7898   5.858   1.248   4.813 -0.0887  0.1425 -0.2929
  800MOL0     C 7899   5.813   1.372   4.858 -0.4474 -0.2461  0.6635
  800MOL0     C 7900   5.879   1.444   4.952 -0.0066 -0.9961 -0.4626
  800MOL0     O 7901   5.817   1.558   4.987  0.3840 -1.3114 -0.0977
  800MOL0     C 7902   5.885   1.660   5.058 -0.3373  0.6240  0.6117
  800MOL0     C 7903   5.792   1.786   5.080  0.2317 -0.0962  0.5390
  800MOL0     C 7904   5.683   1.740   5.176 -0.1822  0.1902  0.2981
  800MOL0     C 7905   5.589   1.863   5.201  0.7932 -0.1109  0.2285
  800MOL0     C 7906   5.483   1.809   5.296 -0.0524  0.2413  0.1819
  800MOL0     C 7907   5.365   1.902   5.321 -0.1943  0.0583  0.0332
  800MOL0     C 7908   5.240   1.839   5.368 -0.1093  1.0665  0.0293
  800MOL0     C 7909   5.238   1.781   5.519  0.1755 -0.0304  0.3713
  800MOL0    Cl 7910   5.081   1.697   5.547 -0.4634 -0.4827 -0.1748
  800MOL0     C 7911   6.002   1.396   5.000 -0.5565  0.5813  0.3926
  800MOL0     C 7912   6.055   1.274   4.954  0.2609 -0.4167  0.4593
  800MOL0     O 7913   5.861   0.938   4.758 -0.7728 -0.2428  0.0395
  800MOL0     C 7914   5.922   0.900   4.503 -0.4591  0.5489 -0.2729
  800MOL0     C 7915   5.961   0.878   4.369  0.7649 -0.7012  0.5796
  800MOL0     N 7916   6.384   0.391   3.967 -1.1045 -0.5356 -0.6046
  800MOL0     N 7917   6.429   0.285   3.906 -0.1939  0.4517 -0.0228
  800MOL0     C 7918   7.236   0.482   4.148 -0.2678 -0.3942  0.7640
  800MOL0     C 7919   7.292   0.599   4.190 -0.1438  0.3357  0.7142
  800MOL0     C 7920   7.396   1.052   4.132  0.0197 -0.3935  0.1038
  800MOL0     C 7921   7.364   1.178   4.070 -0.0504 -0.1292 -0.6025
  800MOL0     C 7922   7.408   1.304   4.117 -0.3510  0.4745 -0.3580
  800MOL0     C 7923   7.487   1.309   4.235 -0.5867 -0.6774 -0.4330
  800MOL0     O 7924   7.523   1.431   4.289 -0.4281 -0.2571 -0.0970
  800MOL0     C 7925   7.617   1.448   4.400  0.4774  0.4098  0.1090
  800MOL0     C 7926   7.684   1.579   4.383 -0.9527 -0.1411 -0.5539
  800MOL0     C 7927   7.768   1.585   4.254  0.9328 -0.2996  0.0165
  800MOL0     C 7928   7.833   1.721   4.228 -1.4395  0.2688 -0.2694
  800MOL0     C 7929   7.952   1.702   4.135  0.4706 -0.1790  0.2528
  800MOL0     C 7930   8.031   1.672   4.047 -0.1667  0.4971 -1.0290
  800MOL0     C 7931   7.502   1.186   4.305 -0.5272  0.0924 -0.0616
  800MOL0     C 7932   7.465   1.064   4.254 -0.1212  1.0304 -0.5618
  800MOL0     H 7933   7.446   0.693   3.897  1.1087  0.2527  1.3439
  800MOL0     H 7934   7.359   0.477   3.828  1.0261 -0.3768 -0.4418
  800MOL0     H 7935   7.157   0.334   3.802  1.3510  1.2131  1.2877
  800MOL0     H 7936   7.314   0.253   3.822  0.3253 -2.3319  1.9430
  800MOL0     H 7937   7.174   0.076   3.777  0.4104  2.4473 -1.4065
  800MOL0     H 7938   7.216   0.077   3.955 -2.4029 -0.0668  1.0638
  800MOL0     H 7939   6.993   0.004   3.959  0.2234 -1.2853 -0.5377
  800MOL0     H 7940   6.995   0.169   4.008 -1.6605 -2.9787  2.5490
  800MOL0     H 7941   6.892   0.234   3.801 -0.5091  0.4813  2.9264
  800MOL0     H 7942   6.932   0.076   3.719  1.1204  0.7020  0.0463
  800MOL0     H 7943   6.700   0.066   3.784  0.2244 -1.8555 -0.4906
  800MOL0     H 7944   6.780  -0.050   3.870 -3.4305 -1.7308 -0.2146
  800MOL0     H 7945   6.797   0.124   4.073 -0.2922  2.7708  0.9144
  800MOL0     H 7946   6.696   0.233   3.987  2.7499  0.8137  0.6756
  800MOL0     H 7947   6.627  -0.067   4.051  0.0560  0.4368 -0.0577
  800MOL0     H 7948   6.580   0.067   4.157 -3.5890 -3.6788  0.4987
  800MOL0     H 7949   6.392  -0.023   4.000 -0.9992  2.1254  0.7272
  800MOL0     H 7950   6.502   0.027   3.869  2.9929  2.9790  0.4521
  800MOL0     H 7951   6.312   0.144   4.175 -1.3488  0.4009  1.6291
  800MOL0     H 7952   6.148   0.444   4.156  0.2178  3.1545 -0.5135
  800MOL0     H 7953   6.266   0.385   4.280  0.2476 -1.5975 -0.4789
  800MOL0     H 7954   6.357   0.616   4.089  1.9024  0.5856  0.8439
  800MOL0     H 7955   6.418   0.565   4.237 -0.2842  0.2754  1.1378
  800MOL0     H 7956   6.310   0.774   4.270  0.2852 -1.3522  1.7987
  800MOL0     H 7957   6.201   0.670   4.341 -0.2972 -0.8872 -0.7084
  800MOL0     H 7958   6.050   0.697   4.182 -0.4846 -0.1228 -0.7968
  800MOL0     H 7959   6.156   0.736   4.048  2.5048 -0.0100  0.8934
  800MOL0     H 7960   6.262   1.036   4.366 -0.1626  4.6378  0.2215
  800MOL0     H 7961   6.341   1.041   4.574 -0.9308 -0.5623 -0.2157
  800MOL0     H 7962   6.252   1.195   4.610 -2.4815  1.2200  2.4598
  800MOL0     H 7963   6.251   1.048   4.719 -0.0900 -0.6049 -0.2345
  800MOL0     H 7964   5.816   1.196   4.727  0.0115 -0.1494 -0.1684
  800MOL0     H 7965   5.723   1.420   4.823  0.1739  0.3985 -0.0734
  800MOL0     H 7966   5.911   1.623   5.158 -0.7051 -2.0289 -0.2113
  800MOL0     H 7967   5.975   1.690   5.003  0.6842  0.9657  2.3896
  800MOL0     H 7968   5.831   1.875   5.131 -0.4360  2.0737 -2.4228
  800MOL0     H 7969   5.754   1.831   4.988  1.6078 -0.9666 -0.4863
  800MOL0     H 7970   5.722   1.712   5.274 -1.8195  1.7488  1.4463
  800MOL0     H 7971   5.623   1.656   5.140  0.0286 -0.4293  1.3475
  800MOL0     H 7972   5.648   1.934   5.261  1.1728 -1.6749  1.8040
  800MOL0     H 7973   5.549   1.888   5.103  2.7722  1.9830 -0.1422
  800MOL0     H 7974   5.512   1.767   5.392 -2.1658 -0.3813  0.5957
  800MOL0     H 7975   5.426   1.730   5.246 -1.3570  0.9066  0.5933
  800MOL0     H 7976   5.394   1.983   5.389  1.7707 -1.1986  0.7839
  800MOL0     H 7977   5.343   1.948   5.225  1.8569 -0.3038 -0.6548
  800MOL0     H 7978   5.209   1.773   5.287 -1.9726 -0.6377  2.0122
  800MOL0     H 7979   5.163   1.916   5.358  1.1648  2.7988  2.3720
  800MOL0     H 7980   5.277   1.851   5.593  1.3952 -0.4769  0.1715
  800MOL0     H 7981   5.304   1.696   5.538 -1.9536 -1.2909  2.8417
  800MOL0     H 7982   6.068   1.454   5.064 -0.3604  1.9284 -0.9828
  800MOL0     H 7983   6.153   1.241   4.988  1.3799  0.6304 -1.5455
  800MOL0     H 7984   5.827   0.869   4.545 -0.9402 -0.5382 -2.0459
  800MOL0     H 7985   5.895   0.827   4.300 -1.9544  2.1107  0.8396
  800MOL0     H 7986   7.186   0.413   4.216  0.1117 -1.0956  0.3398
  800MOL0     H 7987   7.276   0.631   4.292 -4.0066  0.2092  0.2972
  800MOL0     H 7988   7.292   1.203   3.993 -0.8359  6.2322  1.5759
  800MOL0     H 7989   7.367   1.390   4.066  0.7060 -1.2817 -4.6475
  800MOL0     H 7990   7.564   1.445   4.496  3.2481  0.1895  1.7528
  800MOL0     H 7991   7.691   1.368   4.406  0.7386  0.6282 -0.1624
  800MOL0     H 7992   7.745   1.620   4.465 -4.3256  0.8042  1.6919
  800MOL0     H 7993   7.604   1.652   4.369  1.3053  2.4884 -0.7390
  800MOL0     H 7994   7.690   1.565   4.180 -1.4144  1.1525  1.9671
  800MOL0     H 7995   7.847   1.509   4.258  0.9595 -0.3169 -0.6986
  800MOL0     H 7996   7.881   1.760   4.319  2.5234  1.4179 -2.6285
  800MOL0     H 7997   7.748   1.781   4.194 -2.0676 -0.1107  0.5846
  800MOL0     H 7998   8.109   1.645   3.978  2.6547 -0.9185  2.4233
  800MOL0     H 7999   7.557   1.179   4.398  2.1214  0.2343 -1.5244
  800MOL0     H 8000   7.489   0.977   4.314  1.1297  1.5229 -0.3084
  801MOL0     O 8001   4.309  10.433   0.293  0.3471 -0.1337 -0.0403
  801MOL0     C 8002   4.397  10.366   0.351  0.6116  1.3246 -0.6889
  801MOL0     O 8003   4.372  10.260   0.440  0.6976 -0.5964 -0.5303
  801MOL0     C 8004   4.247  10.213   0.465 -1.0185  0.5890 -0.3151
  801MOL0     C 8005   4.122  10.273   0.455  0.0023  0.3852  0.2824
  801MOL0     C 8006   3.995  10.207   0.493 -0.2792  0.5622 -1.0226
  801MOL0     C 8007   3.995  10.069   0.542 -0.6334 -1.1127  0.1154
  801MOL0     O 8008   3.878  10.006   0.553 -0.2792  0.2250 -0.0003
  801MOL0     C 8009   3.869   9.884   0.621  0.6349  0.8219  0.2713
  801MOL0     C 8010   3.740   9.805   0.583  1.2709 -0.3966  0.7603
  801MOL0     C 8011   3.746   9.665   0.647  0.0774  0.8854 -0.8445
  801MOL0     C 8012   3.833   9.565   0.572 -0.0472 -0.0537  0.0957
  801MOL0     C 8013   3.810   9.427   0.617  0.5338  0.8758  0.1230
  801MOL0     C 8014   3.903   9.329   0.534 -0.3268  0.1428  0.2561
  801MOL0     C 8015   3.953   9.204   0.617  0.0916  0.4555  0.4909
  801MOL0     C 8016   3.843   9.101   0.641 -0.1841 -0.1229  0.3480
  801MOL0     N 8017   3.782   9.040   0.514  0.2492 -0.4962 -0.6201
  801MOL0     C 8018   3.683   9.105   0.455  0.2283 -0.0509  0.1315
  801MOL0     C 8019   3.663   9.031   0.341  0.1128 -0.0940  0.1697
  801MOL0     C 8020   3.564   9.074   0.238  0.4534 -0.0199  0.1369
  801MOL0     C 8021   3.524   9.221   0.235  0.2991  0.2193 -0.3720
  801MOL0     C 8022   3.439   9.248   0.107  0.2502 -0.2185 -0.2830
  801MOL0     C 8023   3.389   9.388   0.101 -0.2609  0.3544 -0.5721
  801MOL0     O 8024   3.284   9.407   0.006  0.1968  0.0632  0.3557
  801MOL0     C 8025   3.247   9.534  -0.003 -0.4769 -0.6937  0.5967
  801MOL0     C 8026   3.126   9.551  -0.074 -0.4802  0.1003  0.1916
  801MOL0     C 8027   3.064   9.663  -0.092  0.4625 -0.6949  0.2797
  801MOL0     C 8028   2.927   9.659  -0.165  0.1783 -0.5740  0.8475
  801MOL0     C 8029   3.124   9.783  -0.048  0.4383  0.8792 -0.2754
  801MOL0     C 8030   3.071   9.916  -0.082 -0.8396  0.0214 -1.2328
  801MOL0     O 8031   3.116  10.017  -0.009 -0.1066 -1.5332 -0.5644
  801MOL0     C 8032   3.030  10.127  -0.014 -0.5071 -0.7846  0.7823
  801MOL0     C 8033   3.086  10.252   0.025  0.6314  0.1628  0.7252
  801MOL0     C 8034   3.008  10.368   0.018 -0.4125  0.1375 -0.6123
  801MOL0     C 8035   2.871  10.372  -0.020  0.5335 -0.1666  0.8169
  801MOL0     O 8036   2.819  10.495  -0.008 -0.2345 -0.2823 -0.5951
  801MOL0     C 8037   2.683  10.514   0.034  0.2058  0.8145  0.5646
  801MOL0     C 8038   2.585  10.539  -0.085 -1.6416  0.2265 -0.5005
  801MOL0     C 8039   2.437  10.522  -0.054 -0.0257 -0.1444 -0.1396
  801MOL0     C 8040   2.383  10.650   0.017 -0.3695 -0.7090  0.2613
  801MOL0     C 8041   2.237  10.665  -0.022 -1.0740  0.4203 -0.4766
  801MOL0     C 8042   2.178  10.804   0.031  0.0906  0.1391 -1.4487
  801MOL0     C 8043   2.208  10.854   0.182  0.4509  0.4026  0.5713
  801MOL0     C 8044   2.227  11.004   0.195  0.6283 -0.2542  0.0114
  801MOL0    Cl 8045   2.075  11.087   0.186 -0.0117  0.2890 -0.0247
  801MOL0     C 8046   2.809  10.248  -0.034 -0.7100  0.0136  0.0384
  801MOL0     C 8047   2.890  10.127  -0.036  0.3540 -0.2311  0.0036
  801MOL0     O 8048   3.008   9.924  -0.187  0.4058 -0.1780 -0.5273
  801MOL0     C 8049   3.249   9.776   0.024 -0.2142 -0.0392  0.7923
  801MOL0     C 8050   3.301   9.647   0.057 -0.9601  0.3378 -0.0997
  801MOL0     N 8051   3.753   8.927   0.336  0.4303 -0.2897  0.0322
  801MOL0     N 8052   3.833   8.942   0.436  0.5127 -0.6541 -0.4537
  801MOL0     C 8053   4.128  10.019   0.564 -1.2973  0.0954 -0.4475
  801MOL0     C 8054   4.251  10.089   0.521 -0.6603  0.3679 -0.4851
  801MOL0     C 8055   4.537  10.380   0.315 -0.8954  0.4536 -0.5647
  801MOL0     C 8056   4.637  10.279   0.336  0.8665 -0.1224 -0.6693
  801MOL0     C 8057   4.772  10.293   0.292  0.5622 -0.0877  0.0580
  801MOL0     C 8058   4.807  10.412   0.236  0.1757 -0.7094  0.1350
  801MOL0     O 8059   4.931  10.442   0.188 -0.2059 -0.2450 -0.2406
  801MOL0     C 8060   5.013  10.340   0.139 -0.3040  0.5259 -0.7496
  801MOL0     C 8061   5.098  10.302   0.258 -0.0752 -0.6479 -0.6853
  801MOL0     C 8062   5.158  10.162   0.268  0.7154  0.3323 -0.1075
  801MOL0     C 8063   5.218  10.145   0.409 -0.1597  0.2711  0.7010
  801MOL0     C 8064   5.260  10.002   0.431  0.9231  0.0374  0.5594
  801MOL0     C 8065   5.295   9.889   0.442 -0.0502  1.0943 -0.0860
  801MOL0     C 8066   4.711  10.514   0.217 -0.3605 -0.4343 -0.3526
  801MOL0     C 8067   4.578  10.503   0.261  0.9715  0.6133 -0.0894
  801MOL0     H 8068   4.105  10.377   0.427 -0.2625 -0.5347 -3.6055
  801MOL0     H 8069   3.898  10.251   0.472  0.1878  2.9399  1.3064
  801MOL0     H 8070   3.949   9.824   0.577 -1.8247 -1.4062 -1.4544
  801MOL0     H 8071   3.879   9.895   0.729  2.4399  3.8592 -0.0902
  801MOL0     H 8072   3.651   9.852   0.627  1.0320  2.1716 -2.0732
  801MOL0     H 8073   3.732   9.795   0.474 -0.1906 -1.5520  0.9438
  801MOL0     H 8074   3.793   9.670   0.745 -1.3510 -2.4474  0.1328
  801MOL0     H 8075   3.645   9.631   0.670  0.5542  0.7493  1.1588
  801MOL0     H 8076   3.803   9.576   0.467 -4.0552  1.8794  1.2445
  801MOL0     H 8077   3.939   9.586   0.587  0.0008 -0.8118  0.8937
  801MOL0     H 8078   3.837   9.421   0.723 -0.9060 -0.8317  0.4325
  801MOL0     H 8079   3.707   9.392   0.608 -0.1694  3.1422 -1.5416
  801MOL0     H 8080   3.849   9.299   0.444 -2.6164  2.5304  0.7378
  801MOL0     H 8081   3.994   9.383   0.505  1.5181  0.4793  5.5273
  801MOL0     H 8082   4.028   9.162   0.550  1.2734  2.5027  0.4339
  801MOL0     H 8083   4.002   9.225   0.712 -1.0560  0.8016  1.0326
  801MOL0     H 8084   3.766   9.158   0.694 -0.0771  0.8080 -0.4712
  801MOL0     H 8085   3.872   9.014   0.700 -0.5264 -1.1716 -0.9925
  801MOL0     H 8086   3.637   9.198   0.486 -0.2147 -0.3258  0.3230
  801MOL0     H 8087   3.609   9.039   0.145 -1.9961 -0.9739 -0.7743
  801MOL0     H 8088   3.474   9.012   0.236 -0.5307  1.1679 -4.6316
  801MOL0     H 8089   3.622   9.269   0.234  0.0337  0.7850  0.1388
  801MOL0     H 8090   3.457   9.248   0.318  0.2343 -2.1704  0.4452
  801MOL0     H 8091   3.353   9.182   0.094 -0.2642  0.8279 -2.9155
  801MOL0     H 8092   3.505   9.224   0.023  2.1785 -0.8310  1.3144
  801MOL0     H 8093   3.473   9.448   0.067  0.7565 -0.5637  0.2583
  801MOL0     H 8094   3.356   9.426   0.199  1.5543  2.4924 -0.7063
  801MOL0     H 8095   3.080   9.454  -0.092 -0.0786 -0.2120  0.7781
  801MOL0     H 8096   2.863   9.739  -0.127 -0.4962 -1.0740  0.7798
  801MOL0     H 8097   2.937   9.680  -0.272  1.0083 -0.7738  0.8803
  801MOL0     H 8098   2.868   9.568  -0.152 -0.3875 -0.1354  1.4361
  801MOL0     H 8099   3.188  10.267   0.058  0.4519 -0.1079  1.4121
  801MOL0     H 8100   3.049  10.462   0.053 -3.2435  1.0812  0.4472
  801MOL0     H 8101   2.643  10.432   0.095  1.8251 -1.8305 -1.6433
  801MOL0     H 8102   2.667  10.594   0.106 -2.1667  0.6225  0.3359
  801MOL0     H 8103   2.616  10.637  -0.122 -1.3486  1.0163  1.7455
  801MOL0     H 8104   2.617  10.458  -0.151 -0.9206  0.5762 -0.5876
  801MOL0     H 8105   2.412  10.430  -0.000  3.7504 -0.8511  0.6531
  801MOL0     H 8106   2.402  10.508  -0.157  0.0249  1.3720 -0.3845
  801MOL0     H 8107   2.403  10.638   0.124  1.2094 -0.4405  0.0243
  801MOL0     H 8108   2.437  10.737  -0.022  1.3727 -1.8505 -0.0219
  801MOL0     H 8109   2.180  10.584   0.022 -1.5985  2.1002  2.1211
  801MOL0     H 8110   2.230  10.661  -0.131 -1.6565 -0.6497 -0.4116
  801MOL0     H 8111   2.212  10.882  -0.037  5.0272  1.2284  1.7697
  801MOL0     H 8112   2.069  10.800   0.021  0.0728 -5.1943 -1.9137
  801MOL0     H 8113   2.300  10.805   0.216  0.5196 -0.4729 -0.7779
  801MOL0     H 8114   2.115  10.835   0.237 -1.2227  1.2847 -1.8120
  801MOL0     H 8115   2.296  11.046   0.121  0.5151 -0.4459 -0.2037
  801MOL0     H 8116   2.267  11.028   0.294  1.7423  3.3249 -1.1409
  801MOL0     H 8117   2.702  10.243  -0.047 -0.6805  1.4627 -1.0035
  801MOL0     H 8118   2.843  10.029  -0.043 -0.8978  0.2428  1.2529
  801MOL0     H 8119   3.291   9.873   0.048 -0.6801  1.2462 -2.9723
  801MOL0     H 8120   3.387   9.630   0.121 -1.3691 -4.8236 -0.4567
  801MOL0     H 8121   4.137   9.922   0.610 -1.6188 -2.2163 -4.7175
  801MOL0     H 8122   4.343  10.036   0.542  0.9271  3.2668  0.3259
  801MOL0     H 8123   4.618  10.183   0.382  2.5885 -0.4507 -0.5863
  801MOL0     H 8124   4.835  10.207   0.308  3.7201  2.4572  2.9429
  801MOL0     H 8125   4.953  10.250   0.124  1.7224 -1.9633  4.0824
  801MOL0     H 8126   5.080  10.364   0.056  1.1539 -0.2101  0.1728
  801MOL0     H 8127   5.049  10.317   0.355 -0.4398  1.3489 -1.1248
  801MOL0     H 8128   5.182  10.372   0.260  1.3080 -2.1130 -2.8630
  801MOL0     H 8129   5.233  10.169   0.188 -1.5615  1.0952 -2.3217
  801MOL0     H 8130   5.085  10.091   0.226  1.1723  0.0522 -0.4506
  801MOL0     H 8131   5.137  10.173   0.476  1.0678  2.3646  1.3931
  801MOL0     H 8132   5.302  10.214   0.419 -2.2489  3.4942 -1.8758
  801MOL0     H 8133   5.325   9.788   0.464  2.4711  2.2143  2.1186
  801MOL0     H 8134   4.730  10.609   0.169 -0.7099 -0.2577 -0.1385
  801MOL0     H 8135   4.514  10.586   0.235  3.1303  2.2234 -0.4566
  802MOL0     O 8136  11.421   3.077  10.096  0.0202  0.6158  0.4785
  802MOL0     C 8137  11.457   2.987  10.011 -0.5852 -0.7581 -0.1311
  802MOL0     O 8138  11.445   2.853  10.025 -0.5414  0.4764  0.4576
  802MOL0     C 8139  11.475   2.785  10.143  0.1257 -0.6729 -0.2325
  802MOL0     C 8140  11.409   2.668  10.178 -1.0372  0.3258  0.4409
  802MOL0     C 8141  11.453   2.586  10.292 -0.2036  0.4303  0.5985
  802MOL0     C 8142  11.574   2.612  10.358  0.4975 -0.2143  0.0612
  802MOL0     O 8143  11.612   2.523  10.454 -0.2190 -0.0426  0.0899
  802MOL0     C 8144  11.720   2.570  10.541 -0.0248  0.1845 -0.1139
  802MOL0     C 8145  11.757   2.446  10.616  0.7913  0.4322 -0.9908
  802MOL0     C 8146  11.760   2.482  10.768 -0.0164  0.7623  0.5038
  802MOL0     C 8147  11.894   2.544  10.815 -0.0467 -0.5029 -0.1922
  802MOL0     C 8148  11.920   2.537  10.970 -0.6832 -0.5077 -0.2197
  802MOL0     C 8149  11.996   2.409  11.016 -0.0717  0.5487  1.0696
  802MOL0     C 8150  12.141   2.407  10.991  0.4579 -0.2253  0.4446
  802MOL0     C 8151  12.199   2.284  11.049  0.5238  0.1429 -0.4421
  802MOL0     N 8152  12.181   2.166  10.969  0.0176 -0.2112 -0.3210
  802MOL0     C 8153  12.174   2.161  10.830  0.1320  0.2063  0.8331
  802MOL0     C 8154  12.096   2.048  10.792 -1.0553 -1.0255 -0.7108
  802MOL0     C 8155  12.065   1.995  10.657 -0.4872 -0.3002 -0.3057
  802MOL0     C 8156  12.183   2.025  10.558 -0.2719 -0.0870 -0.4209
  802MOL0     C 8157  12.170   1.929  10.440  0.8243  0.3105 -0.2053
  802MOL0     C 8158  12.299   1.924  10.363 -0.5151 -0.3544 -0.8140
  802MOL0     O 8159  12.316   2.054  10.288  0.4720 -0.2877  0.3245
  802MOL0     C 8160  12.434   2.119  10.285 -0.0678  0.2425  0.1931
  802MOL0     C 8161  12.441   2.251  10.260  0.7267 -0.1902 -0.1471
  802MOL0     C 8162  12.555   2.328  10.271  0.0914  0.8245  0.3205
  802MOL0     C 8163  12.539   2.473  10.233 -0.3656  0.2538 -1.1634
  802MOL0     C 8164  12.677   2.267  10.304 -0.0425  0.0554  0.5054
  802MOL0     C 8165  12.799   2.342  10.292  0.1759  0.2906 -0.9183
  802MOL0     O 8166  12.903   2.267  10.241  0.7585  0.0448  0.2993
  802MOL0     C 8167  12.987   2.340  10.165  0.2570 -0.0342  0.3671
  802MOL0     C 8168  12.971   2.331  10.030  0.5161 -0.1433  0.3504
  802MOL0     C 8169  13.045   2.427   9.942 -0.0891  0.9438 -1.4635
  802MOL0     C 8170  13.142   2.498   9.997 -0.2484 -0.4151  0.1793
  802MOL0     O 8171  13.218   2.566   9.912  0.0891 -0.2615  0.9143
  802MOL0     C 8172  13.356   2.520   9.911  0.6516  0.2055  0.4575
  802MOL0     C 8173  13.379   2.429   9.791 -0.6197 -0.2221  0.8711
  802MOL0     C 8174  13.365   2.508   9.660  0.5161  0.8657 -0.3171
  802MOL0     C 8175  13.468   2.617   9.652  0.5140  0.4452 -0.3158
  802MOL0     C 8176  13.474   2.697   9.526 -0.7393  0.5166  0.2351
  802MOL0     C 8177  13.565   2.820   9.542 -0.1638  0.4588  0.0623
  802MOL0     C 8178  13.572   2.889   9.407  0.4551  0.7803 -0.2011
  802MOL0     C 8179  13.691   2.980   9.389  0.1880  0.0137  0.3393
  802MOL0    Cl 8180  13.837   2.883   9.337  0.4083 -0.8750  0.0582
  802MOL0     C 8181  13.174   2.495  10.135  0.2012  0.2944  0.5080
  802MOL0     C 8182  13.089   2.420  10.217 -1.0500  0.2111  0.5815
  802MOL0     O 8183  12.803   2.454  10.346  0.0598 -0.7627  0.1457
  802MOL0     C 8184  12.671   2.122  10.311 -0.5496 -0.0805  0.4030
  802MOL0     C 8185  12.556   2.054  10.313  0.2477 -0.1314 -0.8571
  802MOL0     N 8186  12.078   1.987  10.917 -0.5288  0.3374 -0.0218
  802MOL0     N 8187  12.131   2.049  11.017  0.3173 -0.0206 -0.1137
  802MOL0     C 8188  11.635   2.735  10.316  0.4314 -0.7349 -0.9065
  802MOL0     C 8189  11.586   2.821  10.210 -0.1969  0.6129  0.0340
  802MOL0     C 8190  11.524   3.034   9.885  0.6128  0.1744  0.4202
  802MOL0     C 8191  11.533   2.954   9.767 -0.1255  0.6394  0.4166
  802MOL0     C 8192  11.595   2.987   9.648  0.2759  0.2621  0.0099
  802MOL0     C 8193  11.651   3.109   9.641 -0.2933  0.1727 -0.3376
  802MOL0     O 8194  11.721   3.146   9.527  0.7858  0.3472 -0.6773
  802MOL0     C 8195  11.639   3.207   9.426 -0.6303 -0.2850  0.2122
  802MOL0     C 8196  11.622   3.358   9.454 -0.8986  0.3987  0.6397
  802MOL0     C 8197  11.724   3.439   9.392  0.3776  0.0051  0.1808
  802MOL0     C 8198  11.875   3.390   9.407 -0.5605  1.1299 -1.0098
  802MOL0     C 8199  11.976   3.482   9.352 -0.5805  0.2979  0.0428
  802MOL0     C 8200  12.078   3.542   9.344 -0.4525 -0.7000 -0.0056
  802MOL0     C 8201  11.644   3.200   9.755  0.1380  0.2323 -0.1291
  802MOL0     C 8202  11.573   3.165   9.870 -0.6395 -0.8620  0.1010
  802MOL0     H 8203  11.331   2.638  10.109  0.5991 -3.5416  0.0095
  802MOL0     H 8204  11.398   2.498  10.322 -1.8509  1.4462  0.6558
  802MOL0     H 8205  11.803   2.611  10.484 -1.8647  0.6626 -2.5762
  802MOL0     H 8206  11.663   2.645  10.596  0.6557  0.4454  0.2514
  802MOL0     H 8207  11.686   2.366  10.591 -0.4218  2.2596 -3.9182
  802MOL0     H 8208  11.855   2.407  10.587  0.1570 -0.3441 -2.1901
  802MOL0     H 8209  11.677   2.548  10.795 -0.2475 -0.0065  1.7726
  802MOL0     H 8210  11.732   2.389  10.819  1.5433 -1.3762 -2.2898
  802MOL0     H 8211  11.987   2.492  10.788  0.5950  0.3249  0.3948
  802MOL0     H 8212  11.895   2.646  10.774  2.6883 -1.4916 -2.9539
  802MOL0     H 8213  11.989   2.617  10.998 -1.0738  0.1161 -1.0065
  802MOL0     H 8214  11.827   2.550  11.025 -1.2529  1.3219 -1.5221
  802MOL0     H 8215  11.972   2.394  11.122  1.7692  0.1336  1.4669
  802MOL0     H 8216  11.943   2.323  10.973  1.4319  0.6028 -1.0277
  802MOL0     H 8217  12.177   2.409  10.888  1.0032 -2.6223  0.5231
  802MOL0     H 8218  12.182   2.498  11.036  0.3881  0.9010 -1.6601
  802MOL0     H 8219  12.146   2.258  11.141  1.1962  0.7985  0.1353
  802MOL0     H 8220  12.305   2.299  11.072  0.8992 -1.7017 -0.7967
  802MOL0     H 8221  12.202   2.238  10.759  1.6639 -0.3031  0.8375
  802MOL0     H 8222  12.045   1.888  10.665 -2.0936 -0.0110 -0.1459
  802MOL0     H 8223  11.981   2.056  10.620 -1.1969 -0.1152  1.5307
  802MOL0     H 8224  12.273   2.008  10.619 -2.0382 -3.0703  1.6358
  802MOL0     H 8225  12.175   2.130  10.528 -1.5575  0.4426  1.5689
  802MOL0     H 8226  12.083   1.966  10.386  2.3091  3.5391 -0.6583
  802MOL0     H 8227  12.147   1.831  10.484  0.9832 -0.3618 -1.5941
  802MOL0     H 8228  12.306   1.839  10.294  2.6689 -0.8653 -0.0253
  802MOL0     H 8229  12.380   1.905  10.434 -1.5915  1.2651  0.9484
  802MOL0     H 8230  12.336   2.275  10.247  1.2326  1.1344 -2.2692
  802MOL0     H 8231  12.490   2.475  10.135 -0.6257  2.9531 -1.0479
  802MOL0     H 8232  12.478   2.517  10.313  0.5811 -0.4888 -0.0022
  802MOL0     H 8233  12.632   2.527  10.214  0.3969 -1.3067 -2.0933
  802MOL0     H 8234  12.891   2.265   9.997  2.3692 -0.9376 -2.9855
  802MOL0     H 8235  13.025   2.438   9.836 -2.6580 -2.8991 -1.5863
  802MOL0     H 8236  13.425   2.605   9.909 -0.1048  0.8216 -0.6711
  802MOL0     H 8237  13.370   2.465  10.005 -1.2404  0.1521  0.7452
  802MOL0     H 8238  13.486   2.408   9.795 -0.3292  0.9667 -0.0091
  802MOL0     H 8239  13.318   2.338   9.789 -1.4487  0.3419 -0.6494
  802MOL0     H 8240  13.264   2.550   9.663 -0.0759 -0.5197  0.1324
  802MOL0     H 8241  13.383   2.437   9.579  1.3132  1.5188 -0.7369
  802MOL0     H 8242  13.451   2.699   9.722 -2.9454 -0.9403  0.6814
  802MOL0     H 8243  13.566   2.569   9.661  0.8571  1.3013  0.7030
  802MOL0     H 8244  13.382   2.739   9.483  0.9459  1.4869 -2.7698
  802MOL0     H 8245  13.510   2.633   9.444 -0.9075  1.2145 -0.4014
  802MOL0     H 8246  13.520   2.888   9.615 -2.2766  0.6947 -1.3610
  802MOL0     H 8247  13.661   2.784   9.579 -0.3662  1.1623  1.3351
  802MOL0     H 8248  13.480   2.945   9.389  0.3669  0.4828 -0.6738
  802MOL0     H 8249  13.571   2.814   9.328 -0.7651 -0.3602  0.8343
  802MOL0     H 8250  13.705   3.037   9.482 -3.2502  0.8471  0.4718
  802MOL0     H 8251  13.667   3.056   9.314  2.4642  0.9482  0.4780
  802MOL0     H 8252  13.253   2.553  10.182 -0.3163 -0.2903  2.1691
  802MOL0     H 8253  13.113   2.409  10.322  0.6501 -0.3369  0.1645
  802MOL0     H 8254  12.765   2.073  10.333  1.0016  2.4028 -0.3481
  802MOL0     H 8255  12.567   1.947  10.322 -3.3273 -0.5076  1.0555
  802MOL0     H 8256  11.723   2.764  10.372  1.5416 -3.4403 -1.1140
  802MOL0     H 8257  11.641   2.911  10.183  2.0359 -1.1332 -1.6201
  802MOL0     H 8258  11.493   2.854   9.762  0.3130  0.5302 -1.2745
  802MOL0     H 8259  11.586   2.931   9.556 -4.1067  3.4060 -1.8050
  802MOL0     H 8260  11.682   3.198   9.326  0.0091  0.9388  0.3616
  802MOL0     H 8261  11.542   3.161   9.409  0.8278 -2.1136 -5.1958
  802MOL0     H 8262  11.626   3.374   9.562  4.0271  0.1551  0.6823
  802MOL0     H 8263  11.524   3.376   9.408 -2.2024 -3.5007  1.4898
  802MOL0     H 8264  11.714   3.536   9.441 -2.1363  0.1793 -0.5195
  802MOL0     H 8265  11.699   3.451   9.286  0.4161  2.0936  0.3681
  802MOL0     H 8266  11.885   3.297   9.351  1.4274 -0.0222  1.1072
  802MOL0     H 8267  11.897   3.367   9.511 -2.4491 -1.4612 -1.0775
  802MOL0     H 8268  12.169   3.600   9.350 -0.4740 -0.6666 -0.0013
  802MOL0     H 8269  11.714   3.283   9.764  1.4730 -1.0189  2.2149
  802MOL0     H 8270  11.568   3.241   9.946  0.3679  1.0749 -1.6587
  803MOL0     O 8271   7.688   0.728   3.191 -0.4260 -0.3913 -0.6983
  803MOL0     C 8272   7.657   0.677   3.301  0.4522  0.9185 -0.7378
  803MOL0     O 8273   7.572   0.565   3.328 -0.8181  0.8043  0.3092
  803MOL0     C 8274   7.495   0.510   3.227  0.0446 -0.1512 -0.4319
  803MOL0     C 8275   7.470   0.372   3.239 -0.2036  0.1607  0.5925
  803MOL0     C 8276   7.431   0.306   3.118  0.1474 -0.6675 -0.2113
  803MOL0     C 8277   7.396   0.369   3.005  0.2663 -0.6408 -0.5673
  803MOL0     O 8278   7.363   0.302   2.888  0.5037  0.5155 -0.5223
  803MOL0     C 8279   7.465   0.228   2.831 -0.4722 -0.4149 -0.1118
  803MOL0     C 8280   7.418   0.143   2.730 -0.8065 -0.0809  1.2046
  803MOL0     C 8281   7.529   0.074   2.651  1.1228  0.6488 -0.0680
  803MOL0     C 8282   7.494  -0.061   2.586  0.0711 -1.1549  0.3553
  803MOL0     C 8283   7.550  -0.180   2.666  0.7336  0.5152 -0.9255
  803MOL0     C 8284   7.529  -0.175   2.818  0.0149  0.2208  0.3163
  803MOL0     C 8285   7.586  -0.304   2.883  0.6364  0.4999 -0.3474
  803MOL0     C 8286   7.533  -0.319   3.023  0.1243 -0.4525 -0.5160
  803MOL0     N 8287   7.535  -0.198   3.103  0.3206 -0.0869 -0.0765
  803MOL0     C 8288   7.434  -0.137   3.170 -0.2962  0.8388 -0.4606
  803MOL0     C 8289   7.489  -0.054   3.260 -1.8873 -0.3854 -0.4338
  803MOL0     C 8290   7.403   0.009   3.370  0.2365  0.1737 -0.0276
  803MOL0     C 8291   7.420  -0.060   3.503 -0.2612 -0.1644 -0.0710
  803MOL0     C 8292   7.443  -0.204   3.490 -0.1208  0.2451  0.4656
  803MOL0     C 8293   7.428  -0.269   3.634 -0.4928 -0.1158  0.3263
  803MOL0     O 8294   7.309  -0.254   3.715  0.0637 -0.5875  0.5629
  803MOL0     C 8295   7.302  -0.321   3.837 -0.7231  0.8026  0.0168
  803MOL0     C 8296   7.189  -0.290   3.903 -0.2856  0.2288  0.0739
  803MOL0     C 8297   7.158  -0.343   4.029 -1.0255  0.5562  0.4068
  803MOL0     C 8298   7.032  -0.301   4.100  0.2764 -0.2867 -0.7276
  803MOL0     C 8299   7.254  -0.434   4.090 -0.4916 -1.0143 -0.0643
  803MOL0     C 8300   7.240  -0.503   4.222 -1.1844 -0.4596  0.0024
  803MOL0     O 8301   7.119  -0.512   4.280  0.5315  0.7265 -0.2602
  803MOL0     C 8302   7.103  -0.523   4.420 -0.7639  0.2856 -0.7433
  803MOL0     C 8303   7.014  -0.612   4.482 -0.2583  0.3126  0.1073
  803MOL0     C 8304   6.989  -0.612   4.630  0.5812  0.2050  0.4059
  803MOL0     C 8305   7.051  -0.516   4.710 -1.1107  0.3602 -0.1290
  803MOL0     O 8306   7.058  -0.504   4.842  0.0363  0.6609 -0.3424
  803MOL0     C 8307   6.997  -0.613   4.915  0.2259  0.2621  0.4829
  803MOL0     C 8308   7.058  -0.614   5.052  0.3850  0.3882  0.4753
  803MOL0     C 8309   7.209  -0.667   5.058  0.0511 -0.2899  0.1333
  803MOL0     C 8310   7.311  -0.552   5.062 -0.5549 -0.7684  0.1311
  803MOL0     C 8311   7.447  -0.610   5.091 -0.3040  1.2456 -0.2291
  803MOL0     C 8312   7.559  -0.510   5.098  0.4704  0.3171  0.5666
  803MOL0     C 8313   7.529  -0.377   5.181  0.6062  0.7208  0.8210
  803MOL0     C 8314   7.648  -0.305   5.231  0.3452  0.2316  0.5195
  803MOL0    Cl 8315   7.594  -0.135   5.229 -0.2404  0.2386 -0.1079
  803MOL0     C 8316   7.133  -0.435   4.645 -0.6350  0.5364  0.6488
  803MOL0     C 8317   7.168  -0.432   4.508  0.0971  0.1292  0.6505
  803MOL0     O 8318   7.351  -0.532   4.282 -0.0578 -0.5721 -0.5267
  803MOL0     C 8319   7.366  -0.474   4.013 -0.0819  0.1907  0.3693
  803MOL0     C 8320   7.392  -0.409   3.890 -0.8532  0.0573  1.5771
  803MOL0     N 8321   7.629  -0.042   3.238 -0.2414  0.4249 -0.0987
  803MOL0     N 8322   7.648  -0.133   3.143 -1.0071 -0.3537  0.8186
  803MOL0     C 8323   7.397   0.514   3.007 -0.5461 -0.8316  0.9374
  803MOL0     C 8324   7.453   0.583   3.111 -0.3723  0.1332 -0.1001
  803MOL0     C 8325   7.712   0.742   3.427  1.1044 -0.1473  0.7081
  803MOL0     C 8326   7.675   0.683   3.546  0.5503  0.0783  0.0153
  803MOL0     C 8327   7.704   0.747   3.667  0.2411  0.7531  0.2287
  803MOL0     C 8328   7.786   0.867   3.660 -0.2376  0.3727  0.2608
  803MOL0     O 8329   7.823   0.940   3.773  0.6367 -0.1643  0.0239
  803MOL0     C 8330   7.742   0.951   3.895  0.1963 -0.0782  0.2402
  803MOL0     C 8331   7.836   0.904   4.007 -0.6886  0.3566  0.8786
  803MOL0     C 8332   7.771   0.947   4.134 -0.2591 -0.6830 -0.9601
  803MOL0     C 8333   7.823   0.868   4.257  0.5023  0.8869  0.6531
  803MOL0     C 8334   7.753   0.740   4.263  0.7061 -0.8090  0.8455
  803MOL0     C 8335   7.708   0.625   4.261 -0.4967  0.3732  0.7659
  803MOL0     C 8336   7.839   0.899   3.542  1.6464 -1.3408  0.6493
  803MOL0     C 8337   7.794   0.851   3.420  0.1329  0.4440 -0.2177
  803MOL0     H 8338   7.485   0.320   3.333  1.1767  1.7472  1.3110
  803MOL0     H 8339   7.404   0.201   3.120 -0.0027 -0.7143 -2.4472
  803MOL0     H 8340   7.524   0.295   2.767 -0.3868 -1.7521 -1.4915
  803MOL0     H 8341   7.522   0.167   2.902 -3.0067 -0.5397  1.9805
  803MOL0     H 8342   7.343   0.077   2.776 -0.9225 -2.4596 -2.0348
  803MOL0     H 8343   7.370   0.215   2.663 -0.1160  1.2864  2.1381
  803MOL0     H 8344   7.563   0.138   2.569  1.9819 -1.7494 -1.7198
  803MOL0     H 8345   7.625   0.057   2.702 -0.1977 -2.0618  1.7707
  803MOL0     H 8346   7.385  -0.054   2.583  0.1404 -0.2213 -2.1669
  803MOL0     H 8347   7.528  -0.075   2.483 -2.0239  1.5810 -0.8460
  803MOL0     H 8348   7.496  -0.269   2.631  1.8195 -0.4414 -0.2595
  803MOL0     H 8349   7.654  -0.199   2.637 -0.3314 -1.1582 -4.1073
  803MOL0     H 8350   7.574  -0.086   2.863 -1.6492 -0.6250  4.0321
  803MOL0     H 8351   7.423  -0.166   2.842  0.0760  2.9051 -0.0899
  803MOL0     H 8352   7.553  -0.388   2.821 -2.9630  1.0457  0.5677
  803MOL0     H 8353   7.695  -0.302   2.891  0.8373 -4.4449  1.5511
  803MOL0     H 8354   7.596  -0.394   3.074 -0.7370  0.4841  2.0679
  803MOL0     H 8355   7.434  -0.362   3.008 -1.1351  2.1201 -0.0852
  803MOL0     H 8356   7.337  -0.183   3.184  1.1606 -2.2641  0.2468
  803MOL0     H 8357   7.424   0.116   3.375  0.1274  0.3321 -1.9539
  803MOL0     H 8358   7.299  -0.001   3.339  0.3087 -2.0372  0.2694
  803MOL0     H 8359   7.327  -0.049   3.559  0.3182  0.1600  0.8368
  803MOL0     H 8360   7.493  -0.014   3.570  1.6140 -0.8963 -1.5261
  803MOL0     H 8361   7.539  -0.220   3.440 -0.1591  3.8423 -1.0492
  803MOL0     H 8362   7.370  -0.251   3.423  0.4584  0.3939 -0.2758
  803MOL0     H 8363   7.519  -0.231   3.679 -1.4248  4.0627 -0.8197
  803MOL0     H 8364   7.438  -0.378   3.628 -2.2723 -0.2993  0.1323
  803MOL0     H 8365   7.129  -0.221   3.845  0.5648 -1.6942 -3.3716
  803MOL0     H 8366   6.991  -0.219   4.041 -1.8002  1.6559  3.0212
  803MOL0     H 8367   6.950  -0.373   4.108  1.4233 -1.5738 -0.1476
  803MOL0     H 8368   7.045  -0.259   4.200  0.0515 -0.4962 -0.6075
  803MOL0     H 8369   6.936  -0.666   4.430 -1.0924  2.5378 -1.0558
  803MOL0     H 8370   6.921  -0.688   4.668  1.0426 -1.6187 -2.1577
  803MOL0     H 8371   6.895  -0.576   4.927  1.2138  3.2873  0.3458
  803MOL0     H 8372   6.996  -0.710   4.864  3.3565 -0.0683  0.8675
  803MOL0     H 8373   7.065  -0.513   5.093 -0.2432  0.2513  0.9304
  803MOL0     H 8374   6.997  -0.666   5.127 -1.9991  3.0217  0.5214
  803MOL0     H 8375   7.227  -0.723   4.965 -1.3712  2.7751 -2.1818
  803MOL0     H 8376   7.215  -0.734   5.144  2.3146  0.4187  0.5926
  803MOL0     H 8377   7.301  -0.509   4.962 -1.8766 -0.5470  0.3392
  803MOL0     H 8378   7.277  -0.470   5.127 -2.1287 -1.1175 -0.1972
  803MOL0     H 8379   7.451  -0.682   5.008 -1.7876 -0.4928  1.1304
  803MOL0     H 8380   7.443  -0.665   5.185  2.0954  1.0323 -0.1834
  803MOL0     H 8381   7.637  -0.566   5.149 -1.2068 -3.7958 -0.9535
  803MOL0     H 8382   7.587  -0.479   4.996 -2.0281  4.2260  0.8407
  803MOL0     H 8383   7.473  -0.401   5.272  1.6759  3.3743  2.2795
  803MOL0     H 8384   7.466  -0.316   5.115  2.0535 -1.8542 -3.3011
  803MOL0     H 8385   7.732  -0.317   5.163 -0.5454  0.8818 -0.7518
  803MOL0     H 8386   7.673  -0.343   5.330  0.7198 -4.3228 -1.0977
  803MOL0     H 8387   7.193  -0.368   4.706  0.0946 -0.3263  0.8975
  803MOL0     H 8388   7.251  -0.367   4.479 -0.1061 -1.8587 -5.9977
  803MOL0     H 8389   7.441  -0.542   4.051 -1.2659 -0.3139  1.8731
  803MOL0     H 8390   7.483  -0.434   3.838 -1.1157  1.8617  0.1524
  803MOL0     H 8391   7.355   0.573   2.926 -0.2023  1.4108  2.3045
  803MOL0     H 8392   7.461   0.691   3.120 -0.2831  0.0818  0.5173
  803MOL0     H 8393   7.626   0.588   3.560 -1.3663  0.9968 -0.1470
  803MOL0     H 8394   7.685   0.704   3.765 -0.0835 -0.8379 -0.4991
  803MOL0     H 8395   7.708   1.055   3.904 -5.2625 -1.7175  2.6219
  803MOL0     H 8396   7.658   0.882   3.903 -2.1619  2.7393  1.9027
  803MOL0     H 8397   7.937   0.940   3.987  0.9434 -2.9863  2.3545
  803MOL0     H 8398   7.837   0.795   3.996  1.4910  0.4899 -0.8842
  803MOL0     H 8399   7.663   0.936   4.122 -0.5977  0.8646  0.3198
  803MOL0     H 8400   7.777   1.055   4.152 -2.0523 -0.7710  0.4945
  803MOL0     H 8401   7.787   0.905   4.354 -2.4350 -1.3365  0.5406
  803MOL0     H 8402   7.931   0.852   4.255  0.4501  0.6469 -0.6509
  803MOL0     H 8403   7.648   0.536   4.269  1.6643 -1.1828  0.4648
  803MOL0     H 8404   7.902   0.987   3.552 -0.0954 -0.1972  2.4931
  803MOL0     H 8405   7.834   0.893   3.328  2.4739  1.7835  1.2940
  804MOL0     O 8406   3.518   6.343   0.437  0.1108  0.2335 -0.3342
  804MOL0     C 8407   3.430   6.267   0.411 -0.6249 -0.1492 -0.5100
  804MOL0     O 8408   3.292   6.286   0.427  0.1180  0.0931  0.0209
  804MOL0     C 8409   3.255   6.401   0.500 -0.2256 -0.6579 -0.0914
  804MOL0     C 8410   3.189   6.503   0.428  0.4227  1.5412 -0.5748
  804MOL0     C 8411   3.140   6.617   0.480  0.7621  0.1650 -0.4417
  804MOL0     C 8412   3.159   6.640   0.616  0.3492  0.4289  0.1678
  804MOL0     O 8413   3.111   6.752   0.668 -0.5245  0.0881  0.0375
  804MOL0     C 8414   2.993   6.818   0.622 -1.0562  0.6313  0.4383
  804MOL0     C 8415   2.946   6.886   0.747  0.9173  0.2722  0.4015
  804MOL0     C 8416   2.876   7.022   0.712 -1.5549 -0.3047 -0.1627
  804MOL0     C 8417   2.866   7.097   0.845  0.1121 -0.3195  0.4333
  804MOL0     C 8418   2.767   7.211   0.835 -0.9927 -0.4101  0.0753
  804MOL0     C 8419   2.796   7.337   0.757  0.3282  0.0354 -0.0739
  804MOL0     C 8420   2.932   7.398   0.784  0.3839 -0.0355  0.2296
  804MOL0     C 8421   2.956   7.554   0.770 -0.0322  0.7208 -0.1513
  804MOL0     N 8422   2.991   7.580   0.620  1.1984 -0.4560 -0.9602
  804MOL0     C 8423   2.895   7.571   0.515 -0.9623  0.4928  0.7015
  804MOL0     C 8424   2.970   7.586   0.407  0.3221  0.0152  0.5494
  804MOL0     C 8425   2.912   7.583   0.258  0.0019  0.6390 -0.5875
  804MOL0     C 8426   3.018   7.545   0.158  1.2092  0.6818  0.9789
  804MOL0     C 8427   2.953   7.518   0.017  0.3686 -0.0998  0.7475
  804MOL0     C 8428   3.042   7.441  -0.082  0.0512  0.9942 -0.4104
  804MOL0     O 8429   3.142   7.535  -0.131  0.6148 -0.2664 -0.0478
  804MOL0     C 8430   3.232   7.504  -0.231  0.3992 -0.4783 -0.0384
  804MOL0     C 8431   3.233   7.385  -0.309 -0.0353 -0.0968  0.3779
  804MOL0     C 8432   3.346   7.350  -0.389 -0.0615  0.6567 -0.0165
  804MOL0     C 8433   3.346   7.221  -0.456  0.4139  0.1969  0.7383
  804MOL0     C 8434   3.453   7.439  -0.385  0.4426  0.3086  0.0495
  804MOL0     C 8435   3.580   7.416  -0.455  0.0060  0.5638  0.1011
  804MOL0     O 8436   3.623   7.292  -0.496 -0.6462  0.0805 -0.1742
  804MOL0     C 8437   3.731   7.255  -0.576  0.5598  0.3279  1.1976
  804MOL0     C 8438   3.839   7.337  -0.615 -0.3702 -0.3941 -0.2387
  804MOL0     C 8439   3.942   7.292  -0.684 -0.3141 -0.1793 -1.2330
  804MOL0     C 8440   3.943   7.159  -0.740  0.1940 -0.5457 -0.1353
  804MOL0     O 8441   4.041   7.123  -0.828  1.1975  0.6943 -0.7072
  804MOL0     C 8442   4.005   7.023  -0.926  0.3270 -0.1425 -0.2628
  804MOL0     C 8443   4.064   7.065  -1.062  0.8180  0.2133  0.5352
  804MOL0     C 8444   4.215   7.091  -1.051 -0.6224 -0.0997  0.7679
  804MOL0     C 8445   4.272   7.155  -1.176  0.3505  0.2330 -0.5895
  804MOL0     C 8446   4.422   7.154  -1.163 -0.3907  0.2125  0.2469
  804MOL0     C 8447   4.502   7.241  -1.263 -0.0453  0.3227 -0.4285
  804MOL0     C 8448   4.436   7.385  -1.269  0.2131  0.1009  0.1496
  804MOL0     C 8449   4.331   7.403  -1.371  0.3021  0.2966 -1.0916
  804MOL0    Cl 8450   4.286   7.572  -1.377  0.1244  0.0259  0.2064
  804MOL0     C 8451   3.840   7.069  -0.699 -0.5758  0.4349  1.4212
  804MOL0     C 8452   3.746   7.121  -0.615  0.3956 -0.6247 -0.3363
  804MOL0     O 8453   3.646   7.516  -0.467 -0.4357 -0.1182 -0.7076
  804MOL0     C 8454   3.441   7.555  -0.309 -0.1255  0.1120 -1.8138
  804MOL0     C 8455   3.337   7.591  -0.237  0.6832 -0.1953 -0.5092
  804MOL0     N 8456   3.105   7.590   0.444  0.3520  0.1281 -1.1678
  804MOL0     N 8457   3.117   7.583   0.569  0.9620 -0.7971  0.0900
  804MOL0     C 8458   3.225   6.549   0.701  0.4705  0.6668  0.3050
  804MOL0     C 8459   3.271   6.425   0.639  0.0825  0.1842  0.5446
  804MOL0     C 8460   3.462   6.135   0.344  0.0942  0.6111  0.7750
  804MOL0     C 8461   3.594   6.101   0.324  0.5438  0.4766  0.3708
  804MOL0     C 8462   3.630   5.978   0.274  0.0116  0.6993  0.4447
  804MOL0     C 8463   3.526   5.878   0.250 -0.6509  0.2290 -0.5283
  804MOL0     O 8464   3.577   5.751   0.211 -0.1284 -0.7270  0.2058
  804MOL0     C 8465   3.484   5.645   0.206  0.0609  0.2153 -0.3116
  804MOL0     C 8466   3.513   5.515   0.266  0.5991  0.5559  0.5218
  804MOL0     C 8467   3.521   5.504   0.422  0.2003  0.7851  0.2047
  804MOL0     C 8468   3.660   5.545   0.475  0.7356 -0.5226 -0.2316
  804MOL0     C 8469   3.770   5.460   0.427  0.7787  0.2396 -1.2885
  804MOL0     C 8470   3.848   5.363   0.408  0.0488 -0.7230  0.4069
  804MOL0     C 8471   3.386   5.916   0.254  0.0475  0.0558 -0.1577
  804MOL0     C 8472   3.360   6.046   0.308  1.1523 -0.3809 -0.1682
  804MOL0     H 8473   3.167   6.485   0.323  2.2539  1.4187 -0.9627
  804MOL0     H 8474   3.084   6.690   0.421 -0.8704  0.2815  1.1753
  804MOL0     H 8475   3.028   6.879   0.539  1.5452 -1.1876  0.0747
  804MOL0     H 8476   2.915   6.748   0.592 -0.2713 -2.8249  5.2443
  804MOL0     H 8477   2.872   6.821   0.793 -1.3475  3.0631  1.0204
  804MOL0     H 8478   3.020   6.896   0.826  1.4269 -3.2498  0.5054
  804MOL0     H 8479   2.926   7.081   0.634  0.3656 -0.3290  0.9768
  804MOL0     H 8480   2.777   7.005   0.670 -1.8920  0.2416  0.3952
  804MOL0     H 8481   2.822   7.039   0.927  1.0406 -1.2975  0.2741
  804MOL0     H 8482   2.971   7.112   0.875  1.2553 -2.3722 -2.1709
  804MOL0     H 8483   2.678   7.153   0.808  0.8109 -4.3117  1.7719
  804MOL0     H 8484   2.746   7.247   0.936 -2.8943  1.4293 -0.8664
  804MOL0     H 8485   2.794   7.318   0.650 -0.1765  1.0632 -0.2603
  804MOL0     H 8486   2.715   7.410   0.768  0.2636  0.5706 -3.2914
  804MOL0     H 8487   2.957   7.368   0.886  0.9817 -3.0880 -0.7014
  804MOL0     H 8488   2.995   7.345   0.712 -2.8456  0.9168 -3.6791
  804MOL0     H 8489   3.045   7.587   0.824 -1.1283  0.7258  1.7370
  804MOL0     H 8490   2.865   7.607   0.798 -0.4742  1.5735 -2.8213
  804MOL0     H 8491   2.787   7.566   0.520 -0.9676 -1.8807 -0.4062
  804MOL0     H 8492   2.836   7.504   0.261  2.5905 -1.9485  0.6485
  804MOL0     H 8493   2.876   7.683   0.231  0.6138  0.9523 -0.2601
  804MOL0     H 8494   3.065   7.448   0.178  0.5136 -0.2151 -1.3372
  804MOL0     H 8495   3.091   7.625   0.166  0.6693  1.2893  0.0309
  804MOL0     H 8496   2.942   7.615  -0.034  1.3693 -1.8784 -3.3079
  804MOL0     H 8497   2.857   7.465   0.027 -1.5923  3.2561  1.2074
  804MOL0     H 8498   2.984   7.404  -0.168 -2.3746 -2.2068  2.3003
  804MOL0     H 8499   3.087   7.353  -0.035  2.1298  0.4214 -3.1838
  804MOL0     H 8500   3.154   7.313  -0.294  0.6051 -1.1355 -1.0349
  804MOL0     H 8501   3.245   7.183  -0.470  1.2243 -2.1198  0.7691
  804MOL0     H 8502   3.392   7.221  -0.555  1.1656 -3.3388  0.9793
  804MOL0     H 8503   3.409   7.157  -0.394  1.2048  1.1399  0.9345
  804MOL0     H 8504   3.842   7.443  -0.590 -2.7250 -0.9913  3.2123
  804MOL0     H 8505   4.039   7.336  -0.705  0.1843 -0.6764 -0.0288
  804MOL0     H 8506   4.052   6.927  -0.902  0.4880 -0.4201 -1.5984
  804MOL0     H 8507   3.900   6.997  -0.944  0.3972 -1.4233  1.0186
  804MOL0     H 8508   4.043   6.997  -1.145 -0.9774  0.3755  0.8234
  804MOL0     H 8509   4.005   7.154  -1.085 -1.6868 -1.9251 -2.1918
  804MOL0     H 8510   4.271   6.998  -1.037 -3.8071 -2.6190 -1.6727
  804MOL0     H 8511   4.237   7.144  -0.958  0.0279  2.6352 -0.8275
  804MOL0     H 8512   4.224   7.113  -1.265 -2.7540 -1.7037  1.7999
  804MOL0     H 8513   4.236   7.256  -1.156  0.1458  0.2617 -1.0909
  804MOL0     H 8514   4.456   7.052  -1.182 -0.3798  0.6870 -2.9924
  804MOL0     H 8515   4.452   7.177  -1.061 -2.7823 -1.8452  1.5378
  804MOL0     H 8516   4.606   7.244  -1.229 -0.6812 -1.5493  1.9422
  804MOL0     H 8517   4.496   7.181  -1.354  0.0955  2.1150 -1.6817
  804MOL0     H 8518   4.518   7.451  -1.299  0.7639  0.0424  1.4554
  804MOL0     H 8519   4.398   7.418  -1.172  0.0554 -2.6023  1.0969
  804MOL0     H 8520   4.247   7.333  -1.368  0.3557  0.1839 -2.0871
  804MOL0     H 8521   4.399   7.389  -1.455  1.2917 -2.6080  0.0543
  804MOL0     H 8522   3.834   6.970  -0.742 -2.9267  0.0685  2.4204
  804MOL0     H 8523   3.665   7.055  -0.584  0.1694 -0.9104 -1.5127
  804MOL0     H 8524   3.526   7.622  -0.299 -0.8648  1.0088 -1.4379
  804MOL0     H 8525   3.340   7.669  -0.162  3.2286 -0.4797 -0.2167
  804MOL0     H 8526   3.225   6.574   0.807  0.7719  0.2043  0.4155
  804MOL0     H 8527   3.305   6.359   0.719 -2.5695 -0.2860  1.3854
  804MOL0     H 8528   3.680   6.161   0.352  2.9661 -3.2346  1.7449
  804MOL0     H 8529   3.734   5.952   0.261 -1.0144 -3.3308 -1.2753
  804MOL0     H 8530   3.386   5.663   0.250  1.5422  0.7674  3.0815
  804MOL0     H 8531   3.470   5.644   0.097 -0.6892  0.2100 -0.2176
  804MOL0     H 8532   3.603   5.475   0.219 -1.0466  0.1086 -2.4379
  804MOL0     H 8533   3.431   5.445   0.248  3.1860 -3.3389  2.4761
  804MOL0     H 8534   3.505   5.401   0.455  2.0060  1.1601  2.4961
  804MOL0     H 8535   3.443   5.567   0.466  0.8693  0.5584  1.7763
  804MOL0     H 8536   3.669   5.541   0.584  1.1360 -1.6401 -0.2924
  804MOL0     H 8537   3.673   5.648   0.443 -0.5437  0.3924  1.9873
  804MOL0     H 8538   3.918   5.286   0.382  1.9463  1.1476 -0.2795
  804MOL0     H 8539   3.309   5.848   0.218  0.5663  0.3204 -1.8674
  804MOL0     H 8540   3.259   6.080   0.328  1.2934 -0.0739  0.0188
  805MOL0     O 8541   1.393  10.717   4.235 -0.2919  0.0890 -1.0339
  805MOL0     C 8542   1.507  10.680   4.261 -0.4563  0.9011 -0.1109
  805MOL0     O 8543   1.554  10.633   4.384  0.7590 -0.1504  0.2474
  805MOL0     C 8544   1.471  10.642   4.492  0.8046 -0.4377  0.0106
  805MOL0     C 8545   1.427  10.770   4.528 -1.0153  0.4946 -1.0402
  805MOL0     C 8546   1.331  10.793   4.636 -1.0702  0.5081  0.6109
  805MOL0     C 8547   1.293  10.682   4.706  0.5822 -0.5778  0.0144
  805MOL0     O 8548   1.198  10.712   4.800  0.1970  0.3238 -0.6661
  805MOL0     C 8549   1.139  10.598   4.868 -0.2008  0.1115 -0.5484
  805MOL0     C 8550   1.038  10.658   4.964 -0.8399 -0.4925  0.0474
  805MOL0     C 8551   0.925  10.742   4.898  0.0279  0.5604 -0.4091
  805MOL0     C 8552   0.837  10.818   5.003  0.4659 -0.3569 -0.9235
  805MOL0     C 8553   0.729  10.897   4.932  0.6821  0.3536 -0.3814
  805MOL0     C 8554   0.623  10.812   4.850  0.6689  0.3784  0.5151
  805MOL0     C 8555   0.523  10.896   4.774 -0.3598 -0.2490  0.3364
  805MOL0     C 8556   0.582  10.990   4.667  0.9038 -0.3059  0.3600
  805MOL0     N 8557   0.677  10.928   4.573  0.3056 -0.5339 -0.0886
  805MOL0     C 8558   0.814  10.923   4.583  0.6671 -0.4162  0.2814
  805MOL0     C 8559   0.842  10.834   4.485 -0.0114 -0.8288  0.2718
  805MOL0     C 8560   0.976  10.779   4.448 -0.0399 -0.0475  0.5199
  805MOL0     C 8561   1.006  10.639   4.496 -1.0559 -0.4044 -0.5078
  805MOL0     C 8562   0.899  10.534   4.452  0.0510 -1.2725 -0.2723
  805MOL0     C 8563   0.911  10.504   4.294  0.4206  0.4071 -0.9025
  805MOL0     O 8564   0.794  10.425   4.263  0.4921  0.4884 -0.5181
  805MOL0     C 8565   0.724  10.461   4.150 -0.3176 -1.1873 -0.1576
  805MOL0     C 8566   0.733  10.396   4.031  0.2533  0.1222  0.2636
  805MOL0     C 8567   0.678  10.454   3.914 -0.2806  0.4292 -0.5848
  805MOL0     C 8568   0.700  10.367   3.788  0.8880  0.7220  0.2965
  805MOL0     C 8569   0.610  10.586   3.914 -0.1972  0.7528  0.3392
  805MOL0     C 8570   0.544  10.650   3.805 -0.1090 -0.0345 -0.8382
  805MOL0     O 8571   0.491  10.770   3.842  0.7038  0.5196 -0.7163
  805MOL0     C 8572   0.429  10.845   3.744 -0.5993 -0.5838 -1.1052
  805MOL0     C 8573   0.486  10.963   3.703 -0.0570 -1.7947  0.0508
  805MOL0     C 8574   0.419  11.031   3.598  0.6973 -0.2130  0.5569
  805MOL0     C 8575   0.283  10.986   3.553  0.4580 -0.1632 -0.0849
  805MOL0     O 8576   0.231  11.073   3.457  0.9599 -0.7711 -1.0257
  805MOL0     C 8577   0.085  11.063   3.421 -1.0467 -0.7142 -0.1926
  805MOL0     C 8578   0.027  11.164   3.326 -0.1419  0.3249 -0.3055
  805MOL0     C 8579  -0.118  11.127   3.301  0.0619  0.6382  0.8729
  805MOL0     C 8580  -0.189  11.235   3.205  1.6772  0.1988  0.0958
  805MOL0     C 8581  -0.336  11.190   3.167 -0.6676 -0.7524 -0.1364
  805MOL0     C 8582  -0.408  11.296   3.077 -0.1059  0.3279 -0.5552
  805MOL0     C 8583  -0.546  11.244   3.035  0.1131  0.1208  0.1716
  805MOL0     C 8584  -0.638  11.352   2.977 -0.2108  1.0669 -1.0891
  805MOL0    Cl 8585  -0.650  11.330   2.805 -0.5646  0.3366 -0.1897
  805MOL0     C 8586   0.229  10.869   3.602  0.1074 -0.8993 -0.4652
  805MOL0     C 8587   0.303  10.794   3.694 -0.0652 -0.3758  0.4699
  805MOL0     O 8588   0.529  10.602   3.692 -0.2909  0.4317 -0.4129
  805MOL0     C 8589   0.593  10.638   4.036 -0.3762  0.5366 -0.1488
  805MOL0     C 8590   0.641  10.571   4.147 -0.3665 -0.5345 -0.2986
  805MOL0     N 8591   0.727  10.806   4.417 -0.0505 -0.1500 -0.2969
  805MOL0     N 8592   0.628  10.858   4.475  0.3941 -0.2848 -0.1319
  805MOL0     C 8593   1.336  10.554   4.670 -0.3680  0.4814  0.1027
  805MOL0     C 8594   1.433  10.533   4.569 -0.1395 -0.2896 -0.1702
  805MOL0     C 8595   1.598  10.665   4.149 -0.8999 -0.3171 -1.1420
  805MOL0     C 8596   1.730  10.637   4.172 -0.1982  0.2448 -0.3225
  805MOL0     C 8597   1.826  10.630   4.072  0.8511  0.4079  0.3357
  805MOL0     C 8598   1.788  10.644   3.937  0.4093  0.7226  0.0944
  805MOL0     O 8599   1.885  10.625   3.838  0.1226  0.2507 -0.5885
  805MOL0     C 8600   1.858  10.695   3.718 -0.1936  0.2928  0.9828
  805MOL0     C 8601   1.980  10.689   3.632 -0.0450 -0.5654  0.3848
  805MOL0     C 8602   2.083  10.802   3.664 -1.0330  0.1353 -0.5838
  805MOL0     C 8603   2.169  10.760   3.791  0.2007  0.4787 -0.1768
  805MOL0     C 8604   2.276  10.674   3.747 -0.2714  0.2587 -0.3325
  805MOL0     C 8605   2.376  10.601   3.736 -0.4741 -0.3022 -0.4211
  805MOL0     C 8606   1.650  10.649   3.910  1.2531 -0.6693  0.0004
  805MOL0     C 8607   1.558  10.659   4.011  0.3297 -1.0897 -0.5986
  805MOL0     H 8608   1.458  10.856   4.468 -0.0663  2.6281  2.2462
  805MOL0     H 8609   1.304  10.897   4.653 -1.6755  0.3909  0.4058
  805MOL0     H 8610   1.081  10.528   4.807 -0.2377 -0.1737 -0.1902
  805MOL0     H 8611   1.213  10.537   4.921 -2.7745 -2.3034  0.5608
  805MOL0     H 8612   0.999  10.591   5.042 -1.1598  0.9319  1.1655
  805MOL0     H 8613   1.098  10.734   5.016  1.1282  0.7374 -3.7090
  805MOL0     H 8614   0.970  10.806   4.822  2.3984 -1.5828 -0.9718
  805MOL0     H 8615   0.867  10.661   4.852  1.6138 -0.2824 -1.0092
  805MOL0     H 8616   0.810  10.735   5.069  1.0361 -1.8804 -2.5103
  805MOL0     H 8617   0.905  10.883   5.058  2.1607 -0.4010 -2.8424
  805MOL0     H 8618   0.673  10.961   5.002  0.9825  0.8344 -0.5693
  805MOL0     H 8619   0.784  10.977   4.882  3.3591 -0.4429  1.0905
  805MOL0     H 8620   0.670  10.755   4.770  1.3216  1.1464  0.3443
  805MOL0     H 8621   0.565  10.735   4.903  0.3549  1.1125  1.2561
  805MOL0     H 8622   0.452  10.840   4.712 -1.6533  2.9229 -1.2584
  805MOL0     H 8623   0.470  10.955   4.849  0.4390  3.2665 -1.6475
  805MOL0     H 8624   0.635  11.070   4.720 -0.0501  0.9444 -0.4952
  805MOL0     H 8625   0.500  11.039   4.612  1.1386  1.0770  1.1910
  805MOL0     H 8626   0.890  10.964   4.649 -0.4506  1.9092  0.2025
  805MOL0     H 8627   0.979  10.773   4.339 -2.3423  0.0079  0.4128
  805MOL0     H 8628   1.055  10.844   4.487  2.6144 -0.4533 -3.6008
  805MOL0     H 8629   1.010  10.643   4.605 -4.1291 -2.2007 -0.1974
  805MOL0     H 8630   1.100  10.599   4.457 -0.5473 -1.0434  1.2591
  805MOL0     H 8631   0.797  10.573   4.463 -0.4505 -0.6093 -4.9407
  805MOL0     H 8632   0.911  10.447   4.516  3.1703  0.1263  1.2410
  805MOL0     H 8633   1.000  10.441   4.292 -1.2081 -2.2163  1.3386
  805MOL0     H 8634   0.917  10.592   4.230 -0.9448  0.7245 -0.6313
  805MOL0     H 8635   0.795  10.307   4.019  0.0476  0.1961 -1.7534
  805MOL0     H 8636   0.699  10.430   3.699  1.6344  0.1049 -0.1597
  805MOL0     H 8637   0.799  10.321   3.782  0.7122  0.4136 -0.2846
  805MOL0     H 8638   0.620  10.293   3.780  1.2272  0.2018  1.5093
  805MOL0     H 8639   0.572  10.999   3.759 -2.2137  0.0945  2.4101
  805MOL0     H 8640   0.465  11.118   3.551  0.2748  0.1001  0.7234
  805MOL0     H 8641   0.055  10.961   3.397 -0.0924 -1.1193  0.2719
  805MOL0     H 8642   0.036  11.094   3.514  3.3128  2.0031  1.5179
  805MOL0     H 8643   0.016  11.262   3.372 -1.9076  0.4220 -0.8542
  805MOL0     H 8644   0.093  11.178   3.240 -0.9530  1.1882 -0.8092
  805MOL0     H 8645  -0.183  11.107   3.387 -1.2358  0.3881 -0.1318
  805MOL0     H 8646  -0.120  11.033   3.246  1.1594  1.2038 -0.1763
  805MOL0     H 8647  -0.201  11.327   3.263 -1.2203  0.0754 -0.1610
  805MOL0     H 8648  -0.125  11.253   3.119  1.4101 -0.2050 -0.1884
  805MOL0     H 8649  -0.401  11.186   3.255 -1.0562  1.9960 -0.2136
  805MOL0     H 8650  -0.344  11.093   3.117 -2.9671 -0.0348 -1.3179
  805MOL0     H 8651  -0.404  11.389   3.136 -0.2192 -0.8393  1.3854
  805MOL0     H 8652  -0.351  11.305   2.985 -1.1109  0.3580 -1.1888
  805MOL0     H 8653  -0.594  11.195   3.121 -0.7969  1.9042  0.7461
  805MOL0     H 8654  -0.549  11.160   2.966 -1.9296  1.0044 -0.9089
  805MOL0     H 8655  -0.592  11.449   2.998  0.6766  0.2556  1.0203
  805MOL0     H 8656  -0.728  11.332   3.037  1.9361 -1.8019  1.5178
  805MOL0     H 8657   0.140  10.820   3.564 -0.5933 -0.7810  0.9611
  805MOL0     H 8658   0.270  10.694   3.719  2.1109 -1.6615 -1.3966
  805MOL0     H 8659   0.524  10.717   4.063  3.2284  3.7487  0.4467
  805MOL0     H 8660   0.623  10.622   4.241  0.6215  1.5370 -1.1820
  805MOL0     H 8661   1.316  10.474   4.741 -3.9888  3.2476  2.5680
  805MOL0     H 8662   1.473  10.434   4.550 -1.4878 -0.8824 -0.0210
  805MOL0     H 8663   1.762  10.631   4.276 -1.2801  0.7251  0.0488
  805MOL0     H 8664   1.925  10.598   4.102  0.8584  1.8527  1.9926
  805MOL0     H 8665   1.767  10.652   3.676 -0.7188  0.4220  1.9625
  805MOL0     H 8666   1.814  10.795   3.713 -0.0271  0.3354 -2.3034
  805MOL0     H 8667   1.944  10.716   3.532 -0.0420  3.4068  1.3098
  805MOL0     H 8668   2.023  10.588   3.627  0.0425 -0.6416  2.2221
  805MOL0     H 8669   2.037  10.900   3.680 -0.5438  0.2695  0.0683
  805MOL0     H 8670   2.153  10.818   3.581 -0.0054  1.5846  0.5109
  805MOL0     H 8671   2.119  10.705   3.870 -0.3885  2.3511  0.8142
  805MOL0     H 8672   2.210  10.850   3.838 -3.7781  2.7139 -0.5050
  805MOL0     H 8673   2.461  10.546   3.702 -0.3179  1.6732 -3.6697
  805MOL0     H 8674   1.615  10.627   3.809  2.2861 -1.9117 -0.1203
  805MOL0     H 8675   1.453  10.665   3.983  0.2912  0.5390 -0.2137
  806MOL0     O 8676   3.736   6.887   3.390  0.3633 -0.1257 -0.5192
  806MOL0     C 8677   3.740   6.943   3.497 -0.8416  0.2990 -0.0121
  806MOL0     O 8678   3.638   6.965   3.578 -0.0471 -0.6822 -0.1878
  806MOL0     C 8679   3.516   6.946   3.531 -0.2073 -0.3699  0.7792
  806MOL0     C 8680   3.433   6.842   3.576  0.6235  0.0495 -0.4485
  806MOL0     C 8681   3.314   6.826   3.508  0.1101  0.2175  0.7584
  806MOL0     C 8682   3.257   6.913   3.414  0.4315  0.0907 -0.8652
  806MOL0     O 8683   3.135   6.890   3.350  0.4332 -1.1286  0.2932
  806MOL0     C 8684   3.039   6.789   3.382 -0.5948 -0.7229  0.1287
  806MOL0     C 8685   2.922   6.796   3.284 -0.4201 -0.7661  0.4760
  806MOL0     C 8686   2.837   6.672   3.289 -0.1629  1.0441 -1.1933
  806MOL0     C 8687   2.721   6.674   3.188 -1.3871 -0.2903 -0.3944
  806MOL0     C 8688   2.655   6.537   3.169  0.4380  0.5315  0.1367
  806MOL0     C 8689   2.537   6.552   3.074  0.3795 -0.2011 -0.0274
  806MOL0     C 8690   2.475   6.411   3.064 -0.0343 -0.2625 -0.4748
  806MOL0     C 8691   2.421   6.404   2.920  0.2031  0.2397  0.4439
  806MOL0     N 8692   2.321   6.502   2.874 -0.2601  0.2391  0.8500
  806MOL0     C 8693   2.263   6.478   2.756  0.5737 -0.0334  0.6152
  806MOL0     C 8694   2.160   6.560   2.748  0.3214  0.2919  0.6061
  806MOL0     C 8695   2.069   6.572   2.627 -0.7359  0.7847 -0.0422
  806MOL0     C 8696   1.929   6.616   2.661 -0.1080  0.2774  1.1686
  806MOL0     C 8697   1.937   6.758   2.712  1.1020 -0.5323  0.1804
  806MOL0     C 8698   1.998   6.859   2.610 -0.1166 -0.1596  0.5174
  806MOL0     O 8699   1.964   6.842   2.472  0.6322  0.7907 -0.1198
  806MOL0     C 8700   2.062   6.862   2.376 -0.7331 -0.1858  0.0841
  806MOL0     C 8701   2.167   6.950   2.390 -0.9227  0.4110  0.2462
  806MOL0     C 8702   2.256   6.980   2.280  0.5409 -0.0895 -0.9638
  806MOL0     C 8703   2.385   7.066   2.299 -0.3595  0.9642  0.3183
  806MOL0     C 8704   2.229   6.918   2.163 -0.6209  0.5665  1.6865
  806MOL0     C 8705   2.301   6.958   2.041  0.7910 -0.1060 -0.0891
  806MOL0     O 8706   2.226   6.962   1.922 -0.8700  0.6186  0.2349
  806MOL0     C 8707   2.294   6.998   1.800  0.7182 -0.7213  0.0810
  806MOL0     C 8708   2.235   6.948   1.683  0.7228 -0.3181  0.7866
  806MOL0     C 8709   2.275   6.987   1.554  0.4117 -0.4947  0.1010
  806MOL0     C 8710   2.385   7.063   1.537  0.0183 -0.2451  0.2200
  806MOL0     O 8711   2.419   7.091   1.401 -0.0026 -1.0762  0.4252
  806MOL0     C 8712   2.511   7.196   1.379 -0.4841  0.8890  0.5762
  806MOL0     C 8713   2.521   7.243   1.242  0.0561  0.1856 -0.2608
  806MOL0     C 8714   2.564   7.392   1.230  0.3820  0.0141  0.6652
  806MOL0     C 8715   2.541   7.458   1.093 -0.2579 -0.4413 -0.1920
  806MOL0     C 8716   2.576   7.611   1.100  0.4002  0.1596 -0.0136
  806MOL0     C 8717   2.719   7.647   1.137 -0.5308  0.4092  0.2523
  806MOL0     C 8718   2.744   7.799   1.117 -0.5922  0.3046  0.5199
  806MOL0     C 8719   2.815   7.834   0.992 -0.9641  0.0554  0.5932
  806MOL0    Cl 8720   2.730   7.824   0.836  0.3301 -0.2508  0.4986
  806MOL0     C 8721   2.452   7.106   1.654 -0.1159  0.5262 -1.5639
  806MOL0     C 8722   2.412   7.068   1.782  0.5818 -0.8269 -0.2465
  806MOL0     O 8723   2.424   6.955   2.047  0.3211  0.4493 -0.3142
  806MOL0     C 8724   2.119   6.829   2.140 -0.3419  0.0704 -0.0493
  806MOL0     C 8725   2.031   6.808   2.249  0.0164 -0.5177  0.0282
  806MOL0     N 8726   2.147   6.622   2.869 -0.2387  0.2316 -0.4909
  806MOL0     N 8727   2.253   6.588   2.944  0.8473 -0.5321 -0.9172
  806MOL0     C 8728   3.337   7.025   3.388 -0.1288 -0.0397 -0.5377
  806MOL0     C 8729   3.466   7.037   3.436  0.2574 -0.1406 -0.6883
  806MOL0     C 8730   3.878   6.982   3.541 -0.5213  0.4122 -0.6105
  806MOL0     C 8731   3.896   7.026   3.670 -0.7414 -0.1211 -0.4160
  806MOL0     C 8732   4.025   7.036   3.731 -0.6028  0.4615  0.2188
  806MOL0     C 8733   4.142   7.022   3.642 -0.1645 -0.0550  0.3454
  806MOL0     O 8734   4.279   7.020   3.688 -0.7679  0.5287  0.9416
  806MOL0     C 8735   4.315   7.060   3.818  0.2845 -0.3234  0.4699
  806MOL0     C 8736   4.456   7.027   3.858 -0.3108  0.1265  0.7932
  806MOL0     C 8737   4.538   7.147   3.796  0.8997  0.3532  0.0625
  806MOL0     C 8738   4.682   7.118   3.780 -0.3741 -0.2983  0.2422
  806MOL0     C 8739   4.733   7.224   3.698  1.1751 -0.8909 -0.5698
  806MOL0     C 8740   4.765   7.303   3.618  0.2511 -0.9675 -0.1898
  806MOL0     C 8741   4.128   6.988   3.512 -0.5513 -0.3395  0.1201
  806MOL0     C 8742   3.998   6.967   3.460 -0.1019  0.5527 -0.0644
  806MOL0     H 8743   3.461   6.775   3.657  2.8450  0.8066 -0.5149
  806MOL0     H 8744   3.255   6.739   3.533  0.8647 -0.9135 -1.1755
  806MOL0     H 8745   3.082   6.689   3.370 -2.3509 -1.5051  0.0717
  806MOL0     H 8746   3.010   6.803   3.487 -1.6527  0.5102 -0.3020
  806MOL0     H 8747   2.856   6.879   3.312 -0.7696  1.4024 -5.2789
  806MOL0     H 8748   2.956   6.818   3.182 -3.2618  1.1231 -0.1970
  806MOL0     H 8749   2.911   6.596   3.261  0.1329  1.4345 -1.4721
  806MOL0     H 8750   2.803   6.644   3.389  0.4421 -2.7159 -1.8824
  806MOL0     H 8751   2.646   6.747   3.219 -2.0933  0.9081 -4.4124
  806MOL0     H 8752   2.762   6.701   3.091 -2.9133 -1.3537 -1.3810
  806MOL0     H 8753   2.730   6.474   3.121  1.6048  1.2642  0.9425
  806MOL0     H 8754   2.619   6.496   3.265 -0.8301  2.8565  0.7185
  806MOL0     H 8755   2.463   6.633   3.076 -2.9235 -2.7310 -3.7533
  806MOL0     H 8756   2.587   6.565   2.978 -2.9423 -1.7290 -2.1468
  806MOL0     H 8757   2.547   6.330   3.079 -0.1248 -0.0670  1.1755
  806MOL0     H 8758   2.393   6.415   3.136  2.1577  1.1327  2.1250
  806MOL0     H 8759   2.366   6.310   2.908 -2.3963  1.9890 -3.7813
  806MOL0     H 8760   2.511   6.407   2.858  0.9965 -1.0639  1.4735
  806MOL0     H 8761   2.301   6.416   2.675 -0.8491 -0.1417  0.0083
  806MOL0     H 8762   2.123   6.638   2.558  0.3995  4.4963  3.9474
  806MOL0     H 8763   2.063   6.465   2.602  0.4451  0.2510  1.7647
  806MOL0     H 8764   1.875   6.544   2.723 -0.4217  0.0291  0.6143
  806MOL0     H 8765   1.872   6.613   2.568 -0.3402 -5.4157  1.1307
  806MOL0     H 8766   1.972   6.782   2.813 -2.4087 -1.2456  1.7075
  806MOL0     H 8767   1.834   6.795   2.713  2.0770  2.6137  2.2475
  806MOL0     H 8768   2.107   6.855   2.622  0.1145 -1.6033 -1.4555
  806MOL0     H 8769   1.950   6.955   2.632 -1.7679 -0.6435 -0.7743
  806MOL0     H 8770   2.187   7.006   2.481  0.5283 -2.5485  1.8749
  806MOL0     H 8771   2.390   7.149   2.228 -2.8449  1.2283  0.3716
  806MOL0     H 8772   2.388   7.098   2.404  2.3150 -2.8309  1.6159
  806MOL0     H 8773   2.476   7.006   2.294 -0.9362 -0.1825  2.3922
  806MOL0     H 8774   2.155   6.885   1.720  0.3656  1.4404  3.2376
  806MOL0     H 8775   2.204   6.977   1.473 -1.3890 -0.8457  1.6497
  806MOL0     H 8776   2.486   7.278   1.447  0.6120 -0.9828  3.4066
  806MOL0     H 8777   2.605   7.140   1.387 -1.9252 -2.7739 -3.5927
  806MOL0     H 8778   2.591   7.175   1.192  0.2669 -0.0588  0.3691
  806MOL0     H 8779   2.417   7.236   1.209 -1.4368  0.7269  3.7728
  806MOL0     H 8780   2.665   7.411   1.268 -1.1936  2.5752  4.1639
  806MOL0     H 8781   2.493   7.441   1.297 -2.4149 -1.6532 -0.8530
  806MOL0     H 8782   2.580   7.411   1.002 -3.0094  0.8589 -2.1932
  806MOL0     H 8783   2.437   7.442   1.062  0.1378 -1.4777 -1.0693
  806MOL0     H 8784   2.509   7.651   1.178  0.8745  1.5932 -0.3050
  806MOL0     H 8785   2.558   7.658   1.003  4.8413  3.6456  0.5203
  806MOL0     H 8786   2.719   7.623   1.243 -0.7242 -1.0353 -0.0595
  806MOL0     H 8787   2.795   7.584   1.089  0.3198  0.2616  1.7165
  806MOL0     H 8788   2.799   7.825   1.207 -3.8721 -0.2256  2.8483
  806MOL0     H 8789   2.656   7.863   1.108 -0.4937  0.2555 -1.3292
  806MOL0     H 8790   2.903   7.770   0.983  0.2936  1.6072  1.3399
  806MOL0     H 8791   2.857   7.933   1.009 -1.3383  0.3674 -0.2374
  806MOL0     H 8792   2.546   7.160   1.643  0.9155 -0.7834  0.3532
  806MOL0     H 8793   2.481   7.098   1.861  1.0142  1.2822 -1.3300
  806MOL0     H 8794   2.091   6.785   2.044 -4.4380  2.5879 -0.2405
  806MOL0     H 8795   1.939   6.752   2.235 -0.7952 -0.0674  2.8657
  806MOL0     H 8796   3.301   7.091   3.310 -0.3294 -1.8713 -2.0670
  806MOL0     H 8797   3.531   7.111   3.390  0.2884 -0.3400 -0.9648
  806MOL0     H 8798   3.813   7.058   3.732 -0.8577  1.2012 -1.2300
  806MOL0     H 8799   4.038   7.062   3.836 -0.2552 -1.6078  0.7308
  806MOL0     H 8800   4.306   7.169   3.812  5.6481  0.3176 -4.1544
  806MOL0     H 8801   4.247   7.003   3.882 -2.4367  2.3112  0.1186
  806MOL0     H 8802   4.485   6.934   3.809 -2.1764  0.3137 -0.7383
  806MOL0     H 8803   4.478   7.020   3.965 -2.3140  0.5097  1.2740
  806MOL0     H 8804   4.524   7.235   3.859  0.5496  1.7513 -1.8799
  806MOL0     H 8805   4.501   7.161   3.694  1.1056  0.0981 -0.0487
  806MOL0     H 8806   4.696   7.025   3.725 -1.8483 -1.9423  2.4920
  806MOL0     H 8807   4.748   7.107   3.866  2.3916  0.3298 -1.6500
  806MOL0     H 8808   4.804   7.366   3.540  1.6552 -2.7147 -0.9761
  806MOL0     H 8809   4.225   6.980   3.463 -0.5954  3.9753 -1.0226
  806MOL0     H 8810   4.002   6.947   3.353  3.8518  2.2157 -0.3940
  807MOL0     O 8811  10.280   9.007   3.995 -1.1883 -0.1633  0.2042
  807MOL0     C 8812  10.189   8.940   4.044  0.7485 -0.2860 -0.5877
  807MOL0     O 8813  10.067   8.990   4.080 -0.3784 -0.3048 -0.2148
  807MOL0     C 8814  10.045   9.126   4.061 -1.5750 -0.3014 -0.0073
  807MOL0     C 8815  10.052   9.182   3.929 -0.4139  0.2688 -0.7515
  807MOL0     C 8816  10.013   9.315   3.918 -0.0676 -1.2081 -0.3333
  807MOL0     C 8817   9.961   9.390   4.027  0.5696 -0.2511  0.2055
  807MOL0     O 8818   9.914   9.520   4.015  0.0983  0.2565  0.3545
  807MOL0     C 8819   9.773   9.547   4.054 -0.4012  0.4057  0.5716
  807MOL0     C 8820   9.745   9.667   4.147  0.8687  0.1249 -0.0071
  807MOL0     C 8821   9.722   9.640   4.295  0.5581  0.1552  0.0560
  807MOL0     C 8822   9.728   9.758   4.384 -0.3106  0.2836  0.3621
  807MOL0     C 8823   9.721   9.704   4.535  0.1181 -0.3328  1.1037
  807MOL0     C 8824   9.768   9.806   4.637 -0.5747 -0.0406  0.9012
  807MOL0     C 8825   9.914   9.862   4.625 -0.3518  0.6822 -0.4504
  807MOL0     C 8826  10.036   9.770   4.625  0.2962  0.6462  1.0388
  807MOL0     N 8827  10.061   9.733   4.765  0.5842 -0.3371  0.8821
  807MOL0     C 8828  10.170   9.768   4.838  0.0228  0.5052  0.1319
  807MOL0     C 8829  10.185   9.679   4.935  0.1801  0.2779 -0.3028
  807MOL0     C 8830  10.293   9.674   5.038  0.0043  0.3700 -0.2542
  807MOL0     C 8831  10.408   9.576   5.017 -0.6978 -0.1475  0.4353
  807MOL0     C 8832  10.528   9.655   4.964  1.4577  0.9470 -0.1870
  807MOL0     C 8833  10.640   9.558   4.953  0.3387 -1.0139  0.0239
  807MOL0     O 8834  10.757   9.650   4.942  0.6327  0.3776 -0.2775
  807MOL0     C 8835  10.874   9.599   4.889 -0.2521  0.0786 -0.7258
  807MOL0     C 8836  10.966   9.701   4.866  0.8867 -0.2464  0.0922
  807MOL0     C 8837  11.083   9.676   4.797  0.8218  0.9696  0.3396
  807MOL0     C 8838  11.173   9.792   4.755  0.2723 -0.3461  0.4314
  807MOL0     C 8839  11.118   9.541   4.776  1.3889 -0.7089  0.5853
  807MOL0     C 8840  11.242   9.493   4.714  0.8851 -0.3634 -0.1400
  807MOL0     O 8841  11.236   9.382   4.631  0.1991  0.7469 -0.7604
  807MOL0     C 8842  11.361   9.338   4.595 -0.3000 -1.0616 -0.1296
  807MOL0     C 8843  11.419   9.381   4.465  0.2971  0.0467 -0.2868
  807MOL0     C 8844  11.548   9.329   4.425 -0.1683  1.0263 -0.9483
  807MOL0     C 8845  11.623   9.240   4.513 -0.1856 -0.4937 -0.0632
  807MOL0     O 8846  11.748   9.214   4.463 -0.7043  0.7494  0.8860
  807MOL0     C 8847  11.807   9.091   4.514  0.1191  0.9295 -0.0243
  807MOL0     C 8848  11.896   9.015   4.418 -1.0505 -0.2194 -0.7486
  807MOL0     C 8849  12.022   9.091   4.394 -0.0448 -1.0861  1.0552
  807MOL0     C 8850  12.120   9.010   4.301  1.1563 -0.5221 -0.9456
  807MOL0     C 8851  12.262   9.064   4.293 -1.1483  0.1948  0.0875
  807MOL0     C 8852  12.345   8.994   4.180 -0.1203 -0.6183  0.7852
  807MOL0     C 8853  12.352   8.840   4.187 -1.0750 -0.6504  0.3900
  807MOL0     C 8854  12.437   8.792   4.070  0.3063  0.0142  0.8308
  807MOL0    Cl 8855  12.599   8.853   4.057 -0.3272  0.3430 -0.3502
  807MOL0     C 8856  11.562   9.205   4.636  0.0850 -0.6118 -0.1860
  807MOL0     C 8857  11.433   9.257   4.674 -0.1017 -1.7035 -0.9239
  807MOL0     O 8858  11.343   9.555   4.733  0.3251  0.8037  0.0047
  807MOL0     C 8859  11.035   9.439   4.828  0.5779  0.7285 -0.4533
  807MOL0     C 8860  10.910   9.465   4.876  0.2529 -0.5297 -0.5383
  807MOL0     N 8861  10.086   9.584   4.927 -0.0452 -0.0335  0.6776
  807MOL0     N 8862  10.023   9.613   4.822  0.6854  0.4591  0.0370
  807MOL0     C 8863   9.961   9.341   4.153  0.0950  0.1292 -0.7323
  807MOL0     C 8864  10.008   9.206   4.167  0.4358  0.0048 -1.5174
  807MOL0     C 8865  10.222   8.807   4.091 -0.5709  0.3250  1.0917
  807MOL0     C 8866  10.125   8.710   4.125  0.4238  0.6084 -0.4338
  807MOL0     C 8867  10.149   8.572   4.156  0.4038 -0.3932  0.2137
  807MOL0     C 8868  10.279   8.529   4.173 -1.0635 -0.0460  0.6085
  807MOL0     O 8869  10.305   8.396   4.199 -0.9394 -0.5432  0.5519
  807MOL0     C 8870  10.440   8.343   4.177  0.6456 -0.3947 -0.7096
  807MOL0     C 8871  10.515   8.372   4.302 -0.3623 -0.6673 -0.4851
  807MOL0     C 8872  10.642   8.285   4.312  0.5084 -0.0848 -0.3883
  807MOL0     C 8873  10.766   8.339   4.232 -0.2872  0.3230  0.5320
  807MOL0     C 8874  10.876   8.239   4.234 -0.5877 -0.0050  1.0085
  807MOL0     C 8875  10.978   8.164   4.237  0.8638  0.5395  0.0664
  807MOL0     C 8876  10.383   8.628   4.140  0.2260  1.1018  0.4377
  807MOL0     C 8877  10.354   8.763   4.102 -0.4874 -0.4003 -0.2607
  807MOL0     H 8878  10.067   9.117   3.844 -0.0556  1.7982 -1.9153
  807MOL0     H 8879  10.016   9.367   3.823 -0.9838 -1.9551 -0.7877
  807MOL0     H 8880   9.722   9.566   3.959  2.0172 -0.5801 -1.0205
  807MOL0     H 8881   9.722   9.460   4.097  2.0534 -1.8909 -0.7755
  807MOL0     H 8882   9.824   9.744   4.142 -0.3797  1.4047 -4.5381
  807MOL0     H 8883   9.652   9.719   4.123  0.9748  0.3084 -0.0285
  807MOL0     H 8884   9.625   9.592   4.311  0.3303  0.2387 -1.0078
  807MOL0     H 8885   9.797   9.565   4.321 -1.8452 -1.9984  1.1763
  807MOL0     H 8886   9.823   9.807   4.360  0.4601 -0.9136  0.8413
  807MOL0     H 8887   9.640   9.818   4.362  0.5621  0.5936 -2.7886
  807MOL0     H 8888   9.613   9.696   4.550 -0.1320 -1.5302 -0.9681
  807MOL0     H 8889   9.769   9.606   4.545  0.2018 -0.3628  0.4354
  807MOL0     H 8890   9.699   9.891   4.632 -3.0170 -1.9125  0.7913
  807MOL0     H 8891   9.760   9.774   4.741  1.2656 -0.0688  1.0714
  807MOL0     H 8892   9.925   9.917   4.532 -2.4071 -0.1473 -1.2278
  807MOL0     H 8893   9.919   9.930   4.711 -2.6144 -1.7600  1.7789
  807MOL0     H 8894  10.122   9.827   4.589  1.2327 -1.1772  0.2131
  807MOL0     H 8895  10.022   9.675   4.573 -0.3337  1.3536 -0.1164
  807MOL0     H 8896  10.237   9.852   4.824 -0.1390  0.7332  0.6767
  807MOL0     H 8897  10.340   9.772   5.055  0.7387  0.4353 -2.3505
  807MOL0     H 8898  10.250   9.636   5.130 -0.6067 -1.5032 -1.2662
  807MOL0     H 8899  10.373   9.489   4.962  1.6003  0.7461 -2.7791
  807MOL0     H 8900  10.437   9.547   5.119 -1.8974 -1.6335  0.3889
  807MOL0     H 8901  10.550   9.724   5.046 -0.4460 -1.3447  2.4525
  807MOL0     H 8902  10.523   9.701   4.865  2.5442 -3.0952 -2.3631
  807MOL0     H 8903  10.631   9.485   4.873  2.3034  0.6416 -1.8496
  807MOL0     H 8904  10.668   9.513   5.048  2.9538 -2.1532 -1.1939
  807MOL0     H 8905  10.936   9.801   4.894  0.2224 -0.3386 -0.2684
  807MOL0     H 8906  11.110   9.878   4.733  1.2534  0.2577 -0.0606
  807MOL0     H 8907  11.254   9.796   4.828  2.9106 -3.9471 -1.8895
  807MOL0     H 8908  11.223   9.765   4.661 -3.2894 -0.9298 -1.4854
  807MOL0     H 8909  11.368   9.451   4.400 -2.4082 -2.4832 -1.1195
  807MOL0     H 8910  11.586   9.357   4.327 -1.2860 -3.3892 -2.8931
  807MOL0     H 8911  11.859   9.111   4.608  0.4853  0.5113 -0.1326
  807MOL0     H 8912  11.722   9.026   4.532  0.8641  0.1209  0.6780
  807MOL0     H 8913  11.918   8.917   4.462 -0.4401 -0.3297 -1.2840
  807MOL0     H 8914  11.834   9.005   4.329 -3.0731  1.3930  0.3931
  807MOL0     H 8915  12.063   9.114   4.493 -0.8671  2.3613  0.7326
  807MOL0     H 8916  11.995   9.192   4.361  0.5437 -1.2209  0.1428
  807MOL0     H 8917  12.106   8.912   4.348 -0.2844 -0.2461 -0.7267
  807MOL0     H 8918  12.077   8.996   4.201  0.6159 -4.1231 -0.3593
  807MOL0     H 8919  12.313   9.031   4.384 -1.8264  2.1750  1.2341
  807MOL0     H 8920  12.257   9.173   4.286 -0.8296  0.1068 -2.5625
  807MOL0     H 8921  12.288   9.008   4.088 -3.2201 -0.4021  2.6069
  807MOL0     H 8922  12.444   9.039   4.174  0.7322 -2.5381 -3.0210
  807MOL0     H 8923  12.259   8.784   4.181 -0.1993 -2.0702 -0.4940
  807MOL0     H 8924  12.409   8.806   4.273  0.4079 -0.0218 -0.2985
  807MOL0     H 8925  12.379   8.837   3.989 -0.9966 -1.5456  0.8424
  807MOL0     H 8926  12.437   8.682   4.068  0.6276 -0.2137 -5.2911
  807MOL0     H 8927  11.624   9.140   4.696 -1.4943 -1.6137  0.4259
  807MOL0     H 8928  11.388   9.230   4.769  0.0281 -1.9529 -0.9310
  807MOL0     H 8929  11.062   9.334   4.815 -0.0640  0.4716  0.2482
  807MOL0     H 8930  10.839   9.388   4.906 -2.2783  1.9942  0.3371
  807MOL0     H 8931   9.926   9.374   4.250 -1.4669 -1.7319 -0.5955
  807MOL0     H 8932  10.009   9.171   4.270 -0.4416 -1.7785 -2.0790
  807MOL0     H 8933  10.023   8.742   4.108  1.8081  4.1775 -3.5539
  807MOL0     H 8934  10.061   8.508   4.160  0.7481 -0.8741  0.1129
  807MOL0     H 8935  10.427   8.236   4.161 -0.8817 -1.0263  3.5379
  807MOL0     H 8936  10.499   8.392   4.099  1.7585 -2.6154 -1.3191
  807MOL0     H 8937  10.454   8.355   4.392  0.6894  2.3620  0.9210
  807MOL0     H 8938  10.551   8.475   4.304 -0.7950 -0.4862  2.1087
  807MOL0     H 8939  10.615   8.184   4.279 -1.6500 -0.2898  1.7647
  807MOL0     H 8940  10.672   8.285   4.417  1.7398  1.0319 -0.7153
  807MOL0     H 8941  10.791   8.434   4.279 -3.2290  0.0582  2.9007
  807MOL0     H 8942  10.750   8.365   4.126 -2.4907 -0.5404  0.5993
  807MOL0     H 8943  11.060   8.096   4.225 -1.0512 -1.7247 -1.0366
  807MOL0     H 8944  10.492   8.621   4.143  0.1959  0.7575  3.0748
  807MOL0     H 8945  10.428   8.830   4.057 -0.5042  0.8522  1.4822
  808MOL0     O 8946   2.957  10.854   0.728  0.3115 -0.6227 -0.8962
  808MOL0     C 8947   3.034  10.948   0.709  0.2650  0.0633  0.5090
  808MOL0     O 8948   3.171  10.949   0.729 -0.4456  0.3323  0.3303
  808MOL0     C 8949   3.223  10.847   0.803 -0.2208  0.0562  0.4179
  808MOL0     C 8950   3.255  10.870   0.934 -0.6844 -0.1688 -0.3477
  808MOL0     C 8951   3.306  10.774   1.020 -0.2969 -0.2128  0.1253
  808MOL0     C 8952   3.311  10.636   0.973 -0.2016 -0.3093  0.1918
  808MOL0     O 8953   3.355  10.529   1.055 -0.1114 -1.3126 -0.1496
  808MOL0     C 8954   3.393  10.399   1.004 -0.0873  1.0604 -0.1727
  808MOL0     C 8955   3.456  10.336   1.126 -0.5707 -1.1458  1.6575
  808MOL0     C 8956   3.351  10.301   1.240  0.0173  0.3395  0.7216
  808MOL0     C 8957   3.327  10.147   1.243 -0.6324 -0.5836  0.3043
  808MOL0     C 8958   3.200  10.126   1.334 -0.2974  0.1343 -0.1526
  808MOL0     C 8959   3.177   9.982   1.352  0.2648  0.0289 -0.8536
  808MOL0     C 8960   3.052   9.960   1.441  0.5399  0.2376  0.3394
  808MOL0     C 8961   3.003   9.814   1.446 -0.5899  0.6775 -0.8660
  808MOL0     N 8962   3.109   9.722   1.494 -0.6372  0.3956 -0.3061
  808MOL0     C 8963   3.105   9.585   1.464  0.6514 -0.1497 -0.6158
  808MOL0     C 8964   3.186   9.528   1.558  0.1728  0.5270 -0.1259
  808MOL0     C 8965   3.206   9.390   1.576  0.8055  0.4818  0.0599
  808MOL0     C 8966   3.065   9.317   1.593 -0.1429  0.0330 -0.4963
  808MOL0     C 8967   3.065   9.262   1.738  0.9621  0.5747 -0.0509
  808MOL0     C 8968   2.929   9.192   1.782  0.2716  0.3867 -0.2420
  808MOL0     O 8969   2.920   9.073   1.690 -0.5254 -0.3387 -0.2781
  808MOL0     C 8970   2.817   8.983   1.709  0.1090  0.6784 -0.0310
  808MOL0     C 8971   2.682   9.028   1.705 -0.0283 -0.2335  0.5360
  808MOL0     C 8972   2.576   8.937   1.717 -0.0826  0.1017  0.8996
  808MOL0     C 8973   2.441   8.987   1.667 -0.3135  0.1028  0.4189
  808MOL0     C 8974   2.601   8.804   1.743 -0.5748 -0.4953  0.3898
  808MOL0     C 8975   2.492   8.706   1.759 -0.2799  0.2755 -0.3315
  808MOL0     O 8976   2.383   8.742   1.824  0.6768 -0.6708 -0.8460
  808MOL0     C 8977   2.257   8.677   1.827 -0.5140 -0.0339  0.6103
  808MOL0     C 8978   2.210   8.575   1.744  0.7386  0.4560  0.8351
  808MOL0     C 8979   2.076   8.517   1.770  0.6712 -0.1456  1.1941
  808MOL0     C 8980   2.001   8.548   1.883 -0.0464 -1.0707  0.2456
  808MOL0     O 8981   1.883   8.497   1.910  0.6633  0.3743 -0.8473
  808MOL0     C 8982   1.787   8.462   1.806  0.8802  0.7842 -0.3894
  808MOL0     C 8983   1.658   8.391   1.864 -0.0773 -0.6404 -0.0022
  808MOL0     C 8984   1.565   8.361   1.746 -0.1424  0.2544 -1.3520
  808MOL0     C 8985   1.472   8.241   1.788  0.4754 -0.0225 -0.2483
  808MOL0     C 8986   1.354   8.228   1.700  0.3153 -1.0586 -0.7041
  808MOL0     C 8987   1.284   8.085   1.720 -0.1754  0.0164  0.4571
  808MOL0     C 8988   1.168   8.059   1.618 -0.4091  0.4061 -0.0257
  808MOL0     C 8989   1.134   7.903   1.612 -1.0752 -0.1713  0.5569
  808MOL0    Cl 8990   1.046   7.843   1.466  0.4016 -0.4561  0.5020
  808MOL0     C 8991   2.057   8.638   1.967 -0.5310  0.0894  0.5690
  808MOL0     C 8992   2.180   8.703   1.938  0.1776  0.4621 -0.3629
  808MOL0     O 8993   2.530   8.594   1.730  0.7338 -0.9417 -0.2664
  808MOL0     C 8994   2.734   8.762   1.758 -0.1451 -0.5804  0.2422
  808MOL0     C 8995   2.839   8.847   1.725  0.9420  0.2214  0.1719
  808MOL0     N 8996   3.254   9.634   1.618  0.1390  0.7125 -0.8902
  808MOL0     N 8997   3.207   9.753   1.587  0.4136  0.7567  1.4549
  808MOL0     C 8998   3.280  10.619   0.841  0.7193  0.5489  1.4162
  808MOL0     C 8999   3.243  10.721   0.751 -0.0271  0.2976 -0.1439
  808MOL0     C 9000   2.959  11.074   0.685  0.3817  0.5716 -0.0084
  808MOL0     C 9001   2.821  11.072   0.669  0.7245  0.2006  0.5592
  808MOL0     C 9002   2.755  11.199   0.642  0.2266 -0.2170  0.8701
  808MOL0     C 9003   2.835  11.315   0.644 -0.5309  1.0380 -0.3289
  808MOL0     O 9004   2.782  11.433   0.623  0.2711 -0.8100  0.3923
  808MOL0     C 9005   2.720  11.496   0.739  0.5865  0.0066  1.7674
  808MOL0     C 9006   2.820  11.545   0.835 -0.2299 -0.8597 -0.9128
  808MOL0     C 9007   2.733  11.590   0.959 -0.7478 -0.3106 -0.4036
  808MOL0     C 9008   2.825  11.632   1.074 -0.3015 -0.7228 -0.0684
  808MOL0     C 9009   2.751  11.690   1.181  0.1197  0.0280  0.0587
  808MOL0     C 9010   2.678  11.729   1.276  0.9498 -0.1646  0.1544
  808MOL0     C 9011   2.979  11.310   0.651 -0.2580  0.1836 -0.8331
  808MOL0     C 9012   3.034  11.189   0.681  0.0506  0.8312  0.0356
  808MOL0     H 9013   3.239  10.973   0.966  1.4947  0.9444 -2.4799
  808MOL0     H 9014   3.336  10.808   1.119  0.0493 -1.3688  0.4269
  808MOL0     H 9015   3.302  10.351   0.967  0.5945  0.8114 -1.5938
  808MOL0     H 9016   3.450  10.413   0.912 -0.3876 -0.3261 -0.5821
  808MOL0     H 9017   3.492  10.243   1.080 -0.2449  0.5021 -1.7122
  808MOL0     H 9018   3.541  10.390   1.170 -0.8529  0.5533  0.2482
  808MOL0     H 9019   3.390  10.345   1.332  0.3668 -0.7784  1.1286
  808MOL0     H 9020   3.257  10.355   1.237  0.1725  0.5839  0.2521
  808MOL0     H 9021   3.312  10.108   1.142  2.0039  2.9018 -1.6197
  808MOL0     H 9022   3.421  10.100   1.274 -0.5877 -1.7734 -1.4641
  808MOL0     H 9023   3.222  10.176   1.428  2.7083  0.2710 -0.8207
  808MOL0     H 9024   3.118  10.178   1.283  0.8515 -0.1144 -2.3936
  808MOL0     H 9025   3.150   9.952   1.250  0.9962  1.1153 -1.3834
  808MOL0     H 9026   3.267   9.933   1.390 -0.3443  1.2285  2.4501
  808MOL0     H 9027   3.066   9.990   1.545 -1.4281  1.7978  0.2277
  808MOL0     H 9028   2.978  10.033   1.405  1.7549  1.1256 -0.4605
  808MOL0     H 9029   2.974   9.784   1.345 -0.9349 -0.1435 -0.5344
  808MOL0     H 9030   2.912   9.810   1.507 -2.3721  0.6150 -3.3519
  808MOL0     H 9031   3.059   9.542   1.376  0.7731 -0.4424 -0.5370
  808MOL0     H 9032   3.267   9.351   1.494 -1.1999 -0.1931 -1.1693
  808MOL0     H 9033   3.266   9.371   1.665  1.7835 -2.4478 -1.0971
  808MOL0     H 9034   3.078   9.232   1.526  0.1134  3.0307 -4.6247
  808MOL0     H 9035   2.977   9.377   1.571  0.5932  1.2210 -0.2961
  808MOL0     H 9036   3.091   9.352   1.794  1.2463  1.3570 -1.3813
  808MOL0     H 9037   3.142   9.188   1.760 -0.1367  0.0091  2.1924
  808MOL0     H 9038   2.841   9.257   1.786  0.6121  0.8108  1.4837
  808MOL0     H 9039   2.944   9.156   1.885 -2.5632 -0.3749 -0.0142
  808MOL0     H 9040   2.663   9.131   1.678 -1.2960 -0.8615 -1.1504
  808MOL0     H 9041   2.379   9.007   1.755 -0.1659 -0.1061  0.5686
  808MOL0     H 9042   2.450   9.075   1.602 -1.1044 -0.0551  0.0785
  808MOL0     H 9043   2.389   8.907   1.613 -2.5970  1.2756  0.7465
  808MOL0     H 9044   2.262   8.548   1.652  0.1752  1.6726  0.1449
  808MOL0     H 9045   2.041   8.441   1.701  2.1398 -2.3107  2.6914
  808MOL0     H 9046   1.741   8.548   1.756 -1.1194  0.6556  1.1197
  808MOL0     H 9047   1.824   8.388   1.735 -1.3415 -0.6111 -0.1852
  808MOL0     H 9048   1.688   8.295   1.907  2.2876  0.3241  0.6919
  808MOL0     H 9049   1.615   8.451   1.945  1.0617  0.0941  0.0866
  808MOL0     H 9050   1.631   8.324   1.668  2.1410 -1.4589  1.1905
  808MOL0     H 9051   1.505   8.450   1.724 -3.1938 -1.1413  0.5936
  808MOL0     H 9052   1.539   8.157   1.766 -0.8768 -0.9875 -0.8004
  808MOL0     H 9053   1.444   8.245   1.893 -0.0599  1.5571 -0.4193
  808MOL0     H 9054   1.388   8.257   1.600  1.5019  1.2240  0.2847
  808MOL0     H 9055   1.291   8.311   1.732  0.8494 -1.2817  1.0356
  808MOL0     H 9056   1.367   8.015   1.703 -0.5328 -0.4894  0.7697
  808MOL0     H 9057   1.239   8.063   1.817 -2.1875 -0.1334 -0.4529
  808MOL0     H 9058   1.208   8.093   1.522 -1.0313 -1.0815 -0.8525
  808MOL0     H 9059   1.081   8.117   1.651 -2.7776 -3.2361  0.7213
  808MOL0     H 9060   1.061   7.894   1.693 -0.6467  1.6930  1.2125
  808MOL0     H 9061   1.221   7.838   1.629 -0.7331  0.4504  1.2596
  808MOL0     H 9062   2.003   8.653   2.060 -0.3678 -4.3727  1.5868
  808MOL0     H 9063   2.196   8.792   1.999 -3.1925  0.4826  0.6716
  808MOL0     H 9064   2.759   8.660   1.783 -1.7893 -1.2110 -0.5405
  808MOL0     H 9065   2.944   8.821   1.719  1.4298  2.2887 -3.7233
  808MOL0     H 9066   3.297  10.523   0.794 -0.3581  0.1179  1.8662
  808MOL0     H 9067   3.219  10.702   0.647 -0.8275  1.3940 -0.1799
  808MOL0     H 9068   2.746  10.993   0.672 -0.0604  0.8391 -0.8152
  808MOL0     H 9069   2.648  11.202   0.621  0.4715 -0.7322 -0.5715
  808MOL0     H 9070   2.666  11.583   0.700  2.0622  0.9803  1.7630
  808MOL0     H 9071   2.653  11.434   0.799 -3.0272  1.7551 -0.1240
  808MOL0     H 9072   2.884  11.623   0.793 -1.2428 -0.9159 -2.6547
  808MOL0     H 9073   2.885  11.461   0.863  1.6362  0.5879 -0.7317
  808MOL0     H 9074   2.670  11.507   0.991  1.2423 -2.9415 -2.7415
  808MOL0     H 9075   2.671  11.674   0.928 -0.9886  0.4587  1.9836
  808MOL0     H 9076   2.897  11.710   1.044 -1.7715  1.4115  1.6079
  808MOL0     H 9077   2.872  11.540   1.108  0.6561 -0.1204  0.2835
  808MOL0     H 9078   2.603  11.762   1.346 -1.2947  1.1450 -2.6484
  808MOL0     H 9079   3.047  11.395   0.647 -2.3017  1.8940 -2.0384
  808MOL0     H 9080   3.142  11.186   0.690  0.0295 -1.7718  0.1180
  809MOL0     O 9081   2.143   6.482   9.492  0.2786  0.5530 -0.8183
  809MOL0     C 9082   2.022   6.481   9.474 -0.3121  0.5584 -0.0819
  809MOL0     O 9083   1.942   6.381   9.530 -0.0236 -0.0843  0.7837
  809MOL0     C 9084   2.012   6.301   9.619 -0.5223  0.9813  0.6772
  809MOL0     C 9085   2.110   6.207   9.564 -0.4435  0.3845  0.1183
  809MOL0     C 9086   2.175   6.121   9.657 -0.2169 -0.1841  0.1936
  809MOL0     C 9087   2.143   6.119   9.794  0.4751 -0.9760 -0.4135
  809MOL0     O 9088   2.200   6.056   9.890 -0.5905 -0.0186 -1.0594
  809MOL0     C 9089   2.318   5.977   9.865 -0.0556  0.6255  0.1549
  809MOL0     C 9090   2.346   5.898   9.998 -0.2361 -0.4846  0.4872
  809MOL0     C 9091   2.464   5.805   9.962  0.0938  0.5056 -0.8791
  809MOL0     C 9092   2.511   5.737  10.085  1.3037  0.5421  0.8178
  809MOL0     C 9093   2.608   5.628  10.049 -0.8116 -0.4691 -1.0667
  809MOL0     C 9094   2.658   5.538  10.165 -0.0682  0.5757  0.7186
  809MOL0     C 9095   2.756   5.436  10.113 -0.0296 -0.0390 -0.6152
  809MOL0     C 9096   2.904   5.491  10.094  0.9848  0.1035  0.2414
  809MOL0     N 9097   2.987   5.394  10.019  0.2283  0.5434  0.1116
  809MOL0     C 9098   3.032   5.273  10.073  0.2212  0.7391  0.6591
  809MOL0     C 9099   3.088   5.216   9.967 -0.0787  0.6704 -0.6350
  809MOL0     C 9100   3.159   5.085   9.975 -0.2720  0.1760 -0.1793
  809MOL0     C 9101   3.073   4.968  10.027  0.4437  0.6073 -0.2001
  809MOL0     C 9102   2.961   4.929   9.925 -0.0881 -0.2699 -1.1488
  809MOL0     C 9103   2.829   4.988   9.958  0.5863 -0.4229 -1.5412
  809MOL0     O 9104   2.731   4.930   9.865 -0.4938  0.6751  0.0563
  809MOL0     C 9105   2.594   4.910   9.886  0.0140 -0.6974  0.1258
  809MOL0     C 9106   2.527   4.956  10.001 -0.6109  0.1313  0.7633
  809MOL0     C 9107   2.388   4.959  10.011  0.6445  0.3478  0.8621
  809MOL0     C 9108   2.333   5.013  10.146 -0.6142 -0.1399 -0.2275
  809MOL0     C 9109   2.312   4.905   9.904  1.0003  0.2685 -0.1794
  809MOL0     C 9110   2.159   4.903   9.916  0.4817  0.2526 -0.3847
  809MOL0     O 9111   2.101   4.840   9.811  0.7437 -0.4175  0.2128
  809MOL0     C 9112   1.966   4.863   9.785 -0.0824 -1.0656 -0.0789
  809MOL0     C 9113   1.876   4.765   9.773 -0.8830  1.5277 -0.0484
  809MOL0     C 9114   1.739   4.792   9.744 -0.0503  0.6379 -0.5838
  809MOL0     C 9115   1.685   4.920   9.751 -0.4256 -0.1140 -0.3844
  809MOL0     O 9116   1.548   4.931   9.736  0.0833 -0.3630 -0.1584
  809MOL0     C 9117   1.483   5.042   9.780 -0.1076 -1.3603  0.4286
  809MOL0     C 9118   1.331   5.013   9.796  0.3678 -0.4076 -0.5865
  809MOL0     C 9119   1.309   4.916   9.921  0.4299  1.0811 -0.3545
  809MOL0     C 9120   1.164   4.880   9.944  0.1248  0.3316  0.4434
  809MOL0     C 9121   1.154   4.779  10.059  0.5282 -0.7281  0.2592
  809MOL0     C 9122   1.185   4.862  10.190  0.2370  0.5188  1.0005
  809MOL0     C 9123   1.119   4.789  10.312 -0.3595  0.5112  0.3912
  809MOL0     C 9124   1.129   4.872  10.438  0.0921  0.3435  0.3411
  809MOL0    Cl 9125   1.028   5.023  10.410  0.0064  0.1318 -0.0131
  809MOL0     C 9126   1.779   5.028   9.779  0.1882 -0.5457 -1.4377
  809MOL0     C 9127   1.916   5.001   9.779 -0.5282 -1.0727  0.2555
  809MOL0     O 9128   2.095   4.964  10.009  0.1481  0.6240  0.2404
  809MOL0     C 9129   2.375   4.859   9.789 -0.2068  0.0445 -0.4942
  809MOL0     C 9130   2.517   4.860   9.784 -1.0950  0.6153  0.0448
  809MOL0     N 9131   3.091   5.302   9.857  0.2318  0.6489 -0.0155
  809MOL0     N 9132   3.029   5.403   9.889 -0.0236  0.4008 -0.6246
  809MOL0     C 9133   2.045   6.208   9.846  0.7963  0.4699  0.8672
  809MOL0     C 9134   1.977   6.299   9.754 -0.8613  0.2549 -0.7832
  809MOL0     C 9135   1.960   6.582   9.393  0.0568 -0.2430  0.5512
  809MOL0     C 9136   2.041   6.680   9.322 -0.2488 -0.2918 -0.2220
  809MOL0     C 9137   1.993   6.754   9.208 -0.5295 -0.0928 -0.4841
  809MOL0     C 9138   1.862   6.737   9.169 -0.7635  1.4239  1.0482
  809MOL0     O 9139   1.794   6.820   9.078  0.3981  0.2156 -0.3903
  809MOL0     C 9140   1.877   6.900   8.995  0.2962  0.2468 -0.3183
  809MOL0     C 9141   1.818   6.893   8.856  0.5569 -0.2163  0.0634
  809MOL0     C 9142   1.878   6.981   8.744  0.9293  0.2907  1.0021
  809MOL0     C 9143   2.028   6.940   8.716  0.5936 -0.1283  0.3036
  809MOL0     C 9144   2.018   6.827   8.620 -0.5776 -0.3388 -0.2156
  809MOL0     C 9145   2.028   6.742   8.538 -0.5883 -0.1206 -0.4727
  809MOL0     C 9146   1.784   6.637   9.243  0.1737  0.0502  0.2361
  809MOL0     C 9147   1.838   6.565   9.341 -0.2738  0.6112  0.9628
  809MOL0     H 9148   2.153   6.210   9.464  0.0550 -1.3054  0.2514
  809MOL0     H 9149   2.249   6.060   9.605  2.7142  4.3579 -1.5883
  809MOL0     H 9150   2.302   5.908   9.781 -0.1984  0.0966  0.6126
  809MOL0     H 9151   2.398   6.049   9.843  0.5357 -0.6742 -2.4175
  809MOL0     H 9152   2.384   5.975  10.066 -0.6841  0.0554  0.1438
  809MOL0     H 9153   2.263   5.839  10.038  0.8281 -1.5417  1.2128
  809MOL0     H 9154   2.436   5.730   9.887 -2.6655 -0.8637  1.3628
  809MOL0     H 9155   2.552   5.861   9.929  1.7989 -0.9828  0.9212
  809MOL0     H 9156   2.565   5.807  10.150  0.5736  1.6173  0.2960
  809MOL0     H 9157   2.422   5.694  10.131  1.7462 -1.4866 -0.1043
  809MOL0     H 9158   2.571   5.561   9.971  2.7901 -4.9067  0.5737
  809MOL0     H 9159   2.699   5.682  10.019 -1.4746  2.0415  1.0471
  809MOL0     H 9160   2.703   5.604  10.239  0.2632 -1.4232  2.3684
  809MOL0     H 9161   2.569   5.490  10.208 -1.4801  1.4795 -1.0249
  809MOL0     H 9162   2.756   5.360  10.192 -2.6752 -2.6190 -2.9160
  809MOL0     H 9163   2.727   5.387  10.020  0.9798 -1.1691 -0.3591
  809MOL0     H 9164   2.943   5.515  10.193 -1.9328  0.0363  1.5112
  809MOL0     H 9165   2.899   5.577  10.026  1.7080 -0.8175 -1.0137
  809MOL0     H 9166   3.028   5.241  10.177 -3.1295 -2.8731 -0.3487
  809MOL0     H 9167   3.198   5.057   9.877  0.4786 -1.8784  0.6548
  809MOL0     H 9168   3.246   5.099  10.041  0.5842 -1.1888 -0.9750
  809MOL0     H 9169   3.026   4.983  10.124  2.2667 -0.2046  0.8523
  809MOL0     H 9170   3.139   4.881  10.027 -1.0401 -0.5644 -0.6425
  809MOL0     H 9171   2.954   4.820   9.928 -0.6256 -0.2360  1.6466
  809MOL0     H 9172   2.991   4.971   9.829  1.0759  0.0807 -0.6496
  809MOL0     H 9173   2.828   5.097   9.950  0.0339 -0.4775 -2.3588
  809MOL0     H 9174   2.808   4.958  10.062  0.6177  0.4049 -1.2861
  809MOL0     H 9175   2.595   4.987  10.080  3.2480  0.5980 -2.4294
  809MOL0     H 9176   2.414   4.982  10.214  1.0854  4.0015 -0.0686
  809MOL0     H 9177   2.324   5.122  10.141  2.7951  0.2084 -2.9128
  809MOL0     H 9178   2.245   4.965  10.188 -1.8589  3.0287  1.1395
  809MOL0     H 9179   1.911   4.662   9.768  0.8755  2.1455 -1.7700
  809MOL0     H 9180   1.671   4.710   9.720  2.7637 -2.1795  0.3379
  809MOL0     H 9181   1.512   5.073   9.881 -4.4807  3.2611  0.6406
  809MOL0     H 9182   1.497   5.134   9.723 -1.0968  0.5207  3.0405
  809MOL0     H 9183   1.277   5.103   9.827 -4.0129 -1.0333 -5.1824
  809MOL0     H 9184   1.281   4.977   9.706  0.2166 -0.3777 -0.5143
  809MOL0     H 9185   1.340   4.965  10.013 -0.1511 -2.2527  1.7961
  809MOL0     H 9186   1.373   4.832   9.892  0.7902  1.7425 -1.5455
  809MOL0     H 9187   1.096   4.964   9.958 -3.0479 -1.7213 -1.4318
  809MOL0     H 9188   1.132   4.834   9.850 -1.3157  0.9851  0.5872
  809MOL0     H 9189   1.231   4.704  10.042  0.9056  0.1111 -2.1570
  809MOL0     H 9190   1.055   4.733  10.065 -0.2504  0.8345  0.0113
  809MOL0     H 9191   1.293   4.872  10.204  0.8947 -0.3929 -2.4109
  809MOL0     H 9192   1.151   4.966  10.191 -0.5074  0.3509 -1.4700
  809MOL0     H 9193   1.176   4.698  10.330  1.7152  1.7482  0.3660
  809MOL0     H 9194   1.013   4.762  10.303 -0.8565  2.0909  1.2352
  809MOL0     H 9195   1.229   4.913  10.458 -0.8194  2.2555  1.2027
  809MOL0     H 9196   1.090   4.813  10.522  1.5476  1.3111  1.7766
  809MOL0     H 9197   1.740   5.129   9.772 -0.3194 -0.5573  0.6718
  809MOL0     H 9198   1.989   5.081   9.781  0.9244 -1.9436 -4.7213
  809MOL0     H 9199   2.321   4.808   9.710 -0.1803  1.4269 -1.4521
  809MOL0     H 9200   2.564   4.823   9.694  1.0711  1.4758  0.7605
  809MOL0     H 9201   2.014   6.199   9.950  0.8938  0.1165  0.8701
  809MOL0     H 9202   1.900   6.369   9.784 -0.1969  2.0816 -3.0484
  809MOL0     H 9203   2.144   6.706   9.343 -0.9313  1.6742  0.9162
  809MOL0     H 9204   2.064   6.821   9.160  0.7967  0.2266  1.7910
  809MOL0     H 9205   1.881   6.991   9.055  0.7584  0.2266 -0.3139
  809MOL0     H 9206   1.974   6.851   8.978  0.4349  1.4094 -3.8616
  809MOL0     H 9207   1.718   6.935   8.875  0.7727 -0.4908  1.9426
  809MOL0     H 9208   1.806   6.791   8.820  0.6638 -2.0558  4.6597
  809MOL0     H 9209   1.879   7.084   8.780  1.1381  0.0834  1.6090
  809MOL0     H 9210   1.809   6.961   8.661  0.4855  2.2025  0.8679
  809MOL0     H 9211   2.078   6.908   8.808  0.2401  0.9951  0.9081
  809MOL0     H 9212   2.084   7.024   8.675  2.2800 -1.0532  0.6081
  809MOL0     H 9213   2.036   6.658   8.472 -0.6288 -1.1412  0.7927
  809MOL0     H 9214   1.682   6.621   9.210 -0.7774  2.1547  1.8819
  809MOL0     H 9215   1.788   6.471   9.361  0.9535 -0.1293  0.6494
  810MOL0     O 9216  10.933   0.151   7.200  0.1417  0.1281 -0.4498
  810MOL0     C 9217  11.047   0.104   7.161  0.5417  0.0362  0.3574
  810MOL0     O 9218  11.157   0.185   7.137 -0.1122  0.2680  0.5779
  810MOL0     C 9219  11.160   0.320   7.139 -0.8045 -0.7828 -0.0582
  810MOL0     C 9220  11.077   0.400   7.066  0.4049  0.5227  0.4827
  810MOL0     C 9221  11.093   0.537   7.063  0.1512  0.2390 -0.2773
  810MOL0     C 9222  11.202   0.603   7.137  0.4151  0.3346  0.2553
  810MOL0     O 9223  11.226   0.740   7.117  0.4561 -0.2536 -0.5595
  810MOL0     C 9224  11.127   0.836   7.161  0.3955 -0.1204 -0.5992
  810MOL0     C 9225  11.206   0.939   7.242  0.9474 -0.6046 -1.5705
  810MOL0     C 9226  11.244   0.874   7.379  1.3184  0.6641  1.0048
  810MOL0     C 9227  11.318   0.962   7.482  0.3422  0.3999 -0.1123
  810MOL0     C 9228  11.260   0.948   7.625 -0.3166  0.0390 -0.5367
  810MOL0     C 9229  11.289   0.808   7.677  0.2323 -0.8242 -0.1309
  810MOL0     C 9230  11.230   0.800   7.824 -0.1303  0.7819  0.6875
  810MOL0     C 9231  11.344   0.841   7.911 -0.5102  0.1182  1.0137
  810MOL0     N 9232  11.309   0.813   8.051 -0.1050  0.3957 -0.1892
  810MOL0     C 9233  11.243   0.903   8.133 -0.0590 -0.7206 -0.6007
  810MOL0     C 9234  11.218   0.837   8.245  0.8828 -0.1516 -0.2709
  810MOL0     C 9235  11.145   0.882   8.368  0.4927 -0.3114  0.9096
  810MOL0     C 9236  11.226   0.961   8.475  0.5618  0.0534 -0.5991
  810MOL0     C 9237  11.333   0.863   8.529 -0.1784  0.4187  0.6833
  810MOL0     C 9238  11.434   0.909   8.639  0.0411  0.4639  0.1743
  810MOL0     O 9239  11.477   1.041   8.615  0.3151  0.5618  0.4199
  810MOL0     C 9240  11.568   1.088   8.710 -0.5333 -0.3189 -0.1709
  810MOL0     C 9241  11.617   1.017   8.819  0.1726  0.5392  0.1372
  810MOL0     C 9242  11.711   1.075   8.907 -0.0575  0.2667  0.1066
  810MOL0     C 9243  11.750   0.988   9.021  0.9664  0.3175  0.6673
  810MOL0     C 9244  11.780   1.191   8.869 -0.2422  1.1154 -0.7708
  810MOL0     C 9245  11.896   1.255   8.932  0.9251  0.2218  0.1733
  810MOL0     O 9246  11.970   1.333   8.846  0.0089 -0.3762  0.2178
  810MOL0     C 9247  12.093   1.379   8.885  0.3308 -0.3323 -0.9349
  810MOL0     C 9248  12.133   1.497   8.815  1.0363  0.6745  0.2614
  810MOL0     C 9249  12.265   1.544   8.845  0.2676 -0.3527 -0.4906
  810MOL0     C 9250  12.343   1.492   8.947 -0.8032 -0.9792 -0.1601
  810MOL0     O 9251  12.467   1.557   8.957  0.0195  0.8764 -0.6637
  810MOL0     C 9252  12.563   1.491   9.044  0.1172  0.2256  0.2718
  810MOL0     C 9253  12.711   1.558   9.061 -0.5139 -1.2269 -0.1029
  810MOL0     C 9254  12.696   1.701   9.104 -0.1809 -0.7499 -0.5695
  810MOL0     C 9255  12.815   1.775   9.179  0.1805 -0.6337  0.9432
  810MOL0     C 9256  12.854   1.692   9.303 -0.5462 -0.0767 -0.3145
  810MOL0     C 9257  12.964   1.749   9.383 -0.1556  0.4489 -0.9698
  810MOL0     C 9258  12.914   1.853   9.490 -0.1865  0.0683 -0.3430
  810MOL0     C 9259  12.921   2.002   9.449 -0.3052  0.2057  0.3546
  810MOL0    Cl 9260  12.864   2.100   9.587 -0.3702  0.0168  0.0871
  810MOL0     C 9261  12.295   1.382   9.025 -0.2052  0.1184  0.5316
  810MOL0     C 9262  12.179   1.315   8.975  0.8549 -0.3782 -0.6524
  810MOL0     O 9263  11.919   1.231   9.057  0.3417  0.6528 -0.8364
  810MOL0     C 9264  11.733   1.254   8.749 -0.5006 -0.2052  0.3550
  810MOL0     C 9265  11.633   1.206   8.667 -0.1622  0.9117 -0.7509
  810MOL0     N 9266  11.271   0.709   8.235  0.4471 -0.7879 -0.5967
  810MOL0     N 9267  11.326   0.700   8.119  0.6209 -0.4214  0.3896
  810MOL0     C 9268  11.283   0.521   7.220  0.5414  0.6041  0.2693
  810MOL0     C 9269  11.270   0.381   7.210 -0.1195  0.2580  0.3411
  810MOL0     C 9270  11.064  -0.042   7.136  0.1352 -0.1236  0.1264
  810MOL0     C 9271  11.177  -0.100   7.068  0.5693  0.3074  0.1177
  810MOL0     C 9272  11.207  -0.238   7.053 -0.6324  0.0340  0.4987
  810MOL0     C 9273  11.124  -0.336   7.110  0.9800  1.1459  0.5399
  810MOL0     O 9274  11.142  -0.472   7.126 -0.0005  0.4297  0.0680
  810MOL0     C 9275  11.247  -0.525   7.045  0.0228  0.3059  0.0760
  810MOL0     C 9276  11.310  -0.657   7.112 -0.2751  0.6760  1.0283
  810MOL0     C 9277  11.407  -0.736   7.015  0.6623  0.5403  1.7510
  810MOL0     C 9278  11.474  -0.851   7.076 -0.6580  0.0590  0.9104
  810MOL0     C 9279  11.570  -0.806   7.182  0.2942 -0.7379  0.0407
  810MOL0     C 9280  11.648  -0.766   7.269  0.0246  0.0170 -0.0296
  810MOL0     C 9281  11.006  -0.279   7.166 -0.2013  1.0122  0.3146
  810MOL0     C 9282  10.972  -0.146   7.187 -0.2387  0.1225  0.4410
  810MOL0     H 9283  10.999   0.358   7.004  1.0653 -0.4509  0.3058
  810MOL0     H 9284  11.016   0.599   7.020  2.1497  1.7059 -1.9647
  810MOL0     H 9285  11.092   0.890   7.072  1.0292  3.1284  0.9745
  810MOL0     H 9286  11.051   0.790   7.224  0.5155 -0.7167 -0.8893
  810MOL0     H 9287  11.293   0.981   7.191  2.3956  2.4132  2.7387
  810MOL0     H 9288  11.127   1.011   7.267  1.4052 -0.5591 -0.1510
  810MOL0     H 9289  11.146   0.840   7.414  0.2889 -0.3832 -2.5223
  810MOL0     H 9290  11.305   0.785   7.358  1.1967  0.9162 -0.5437
  810MOL0     H 9291  11.416   0.912   7.485 -0.5881 -1.5825 -0.7975
  810MOL0     H 9292  11.322   1.063   7.442  0.0070  1.7131  2.9366
  810MOL0     H 9293  11.303   1.026   7.688 -1.3594  1.9731 -2.1155
  810MOL0     H 9294  11.155   0.973   7.609 -0.6233  2.0861  3.4213
  810MOL0     H 9295  11.251   0.731   7.610  1.4357 -3.0805  1.6384
  810MOL0     H 9296  11.396   0.791   7.694  0.9292  2.8719  0.1223
  810MOL0     H 9297  11.141   0.864   7.829  0.1656  1.4043 -1.2629
  810MOL0     H 9298  11.189   0.700   7.840 -3.6006  2.0417  0.5331
  810MOL0     H 9299  11.364   0.947   7.897  0.6110  0.1173  2.3906
  810MOL0     H 9300  11.433   0.782   7.890 -3.1662 -4.3052  0.8236
  810MOL0     H 9301  11.232   1.009   8.109 -1.5216 -1.0856 -1.6848
  810MOL0     H 9302  11.070   0.957   8.341  0.9992 -0.0666  0.1367
  810MOL0     H 9303  11.095   0.795   8.412  0.9069 -1.0113  0.0446
  810MOL0     H 9304  11.160   0.999   8.554 -1.5187 -0.1854 -2.1351
  810MOL0     H 9305  11.267   1.053   8.434 -0.3639  2.1128  2.7037
  810MOL0     H 9306  11.397   0.827   8.449 -1.3009 -2.0029  0.7603
  810MOL0     H 9307  11.271   0.785   8.575 -4.3649  2.2234 -1.3745
  810MOL0     H 9308  11.519   0.842   8.656 -0.8060 -0.5308  0.6027
  810MOL0     H 9309  11.362   0.915   8.722 -2.0427  1.6852 -1.6198
  810MOL0     H 9310  11.572   0.926   8.855  0.6777 -0.8006 -2.3718
  810MOL0     H 9311  11.855   0.957   9.018  0.4869 -1.4147  0.3768
  810MOL0     H 9312  11.723   1.040   9.114 -1.3444 -0.3931  0.4570
  810MOL0     H 9313  11.692   0.895   9.015  1.2899  0.1741 -0.3701
  810MOL0     H 9314  12.072   1.556   8.748 -0.7940  1.0396  2.1494
  810MOL0     H 9315  12.304   1.632   8.794 -1.3568 -0.3250 -1.7687
  810MOL0     H 9316  12.520   1.488   9.144 -1.7386 -1.3059 -0.5101
  810MOL0     H 9317  12.576   1.386   9.018  3.0836 -0.8283  4.8700
  810MOL0     H 9318  12.770   1.497   9.130  1.6716  0.1713 -0.6591
  810MOL0     H 9319  12.764   1.556   8.966 -1.3277 -0.7580 -0.5757
  810MOL0     H 9320  12.611   1.707   9.173 -2.2889 -1.0386 -2.9931
  810MOL0     H 9321  12.668   1.759   9.016  2.0949 -1.9139 -2.1551
  810MOL0     H 9322  12.902   1.799   9.118 -0.9893 -0.0528 -0.5554
  810MOL0     H 9323  12.767   1.870   9.205 -1.1920 -1.1936  0.5280
  810MOL0     H 9324  12.903   1.600   9.272 -1.1816 -0.0964 -1.3183
  810MOL0     H 9325  12.768   1.666   9.366 -1.8635  1.5824 -1.3280
  810MOL0     H 9326  13.021   1.671   9.435 -0.9382  1.3530  1.3922
  810MOL0     H 9327  13.032   1.804   9.318 -0.7601 -1.0657 -2.9830
  810MOL0     H 9328  12.966   1.849   9.586 -0.3363 -0.2804 -0.2742
  810MOL0     H 9329  12.818   1.814   9.525  0.5004 -2.7287 -1.3357
  810MOL0     H 9330  12.858   2.020   9.361  1.1822  4.1976 -0.1363
  810MOL0     H 9331  13.026   2.025   9.430  0.9644 -0.7643  4.9830
  810MOL0     H 9332  12.355   1.326   9.096  2.2750 -3.6598 -3.9118
  810MOL0     H 9333  12.160   1.214   9.008  1.5320 -0.5767 -0.8526
  810MOL0     H 9334  11.795   1.332   8.705  2.2180 -2.2946  0.2467
  810MOL0     H 9335  11.598   1.238   8.569 -0.6752 -0.8422 -1.1799
  810MOL0     H 9336  11.375   0.562   7.261  0.2758  1.7413 -0.2398
  810MOL0     H 9337  11.329   0.322   7.279 -3.4701  0.7362  4.0094
  810MOL0     H 9338  11.239  -0.025   7.020  1.6390  0.0160  1.0131
  810MOL0     H 9339  11.296  -0.262   6.995 -1.5262 -3.0638  0.2694
  810MOL0     H 9340  11.209  -0.550   6.945 -1.2479 -1.1619  0.8989
  810MOL0     H 9341  11.328  -0.453   7.034  1.8046 -1.6680 -0.3855
  810MOL0     H 9342  11.232  -0.730   7.135  0.2185 -0.5337 -0.9085
  810MOL0     H 9343  11.362  -0.624   7.202  1.7311  1.7635 -0.4429
  810MOL0     H 9344  11.481  -0.663   6.981  0.2893 -0.5727 -1.8507
  810MOL0     H 9345  11.355  -0.767   6.924  4.0637 -0.8185  0.1145
  810MOL0     H 9346  11.532  -0.904   6.999 -1.1903  2.8620 -1.6038
  810MOL0     H 9347  11.397  -0.922   7.109 -3.3105  1.2401 -2.1802
  810MOL0     H 9348  11.714  -0.719   7.338 -0.4707 -0.5315  0.8332
  810MOL0     H 9349  10.944  -0.347   7.223 -2.2568  1.2899 -1.4884
  810MOL0     H 9350  10.881  -0.136   7.247 -0.2095 -4.2051  1.5771
  811MOL0     O 9351  11.527   5.068   1.917  0.2003 -0.3163 -1.2589
  811MOL0     C 9352  11.491   5.175   1.868 -0.2830  0.2310  0.2568
  811MOL0     O 9353  11.370   5.202   1.815 -0.9197 -0.6323 -0.4505
  811MOL0     C 9354  11.298   5.087   1.790  1.0736  0.5370 -0.2270
  811MOL0     C 9355  11.286   5.046   1.652  0.4431  0.6799  0.0500
  811MOL0     C 9356  11.223   4.928   1.618 -0.0131  0.0281  0.3144
  811MOL0     C 9357  11.170   4.849   1.716 -0.4499  0.5438 -0.5750
  811MOL0     O 9358  11.094   4.741   1.683 -1.3538  0.2271 -0.9675
  811MOL0     C 9359  10.955   4.766   1.674 -0.8925 -0.0830 -0.8938
  811MOL0     C 9360  10.900   4.762   1.536  0.5050  0.0303  0.4042
  811MOL0     C 9361  10.926   4.623   1.473 -0.4717  0.6468 -0.0085
  811MOL0     C 9362  10.969   4.633   1.323 -1.1862  0.1069 -0.6971
  811MOL0     C 9363  10.868   4.719   1.238 -0.2923 -1.2453  0.1294
  811MOL0     C 9364  10.729   4.659   1.221  1.4060  0.0816  0.7890
  811MOL0     C 9365  10.640   4.738   1.131  0.0616  0.8287 -0.2848
  811MOL0     C 9366  10.487   4.712   1.145 -1.1197  0.2382  0.1593
  811MOL0     N 9367  10.473   4.570   1.121  0.0462 -0.7298 -0.0780
  811MOL0     C 9368  10.518   4.493   1.014 -0.6298  0.2732 -0.1300
  811MOL0     C 9369  10.471   4.369   1.037  0.2773 -0.0368  0.3799
  811MOL0     C 9370  10.502   4.247   0.946  0.0915 -0.1886 -0.3484
  811MOL0     C 9371  10.379   4.188   0.891 -0.0702 -0.1970 -0.2725
  811MOL0     C 9372  10.389   4.068   0.787  0.0756 -0.7061 -0.3541
  811MOL0     C 9373  10.425   3.931   0.848  0.2427  0.0185 -0.1052
  811MOL0     O 9374  10.546   3.948   0.924  0.1689 -0.2190 -0.0060
  811MOL0     C 9375  10.582   3.846   1.015  0.2592  0.2405  0.1682
  811MOL0     C 9376  10.712   3.803   1.014 -0.0443 -0.4971 -0.3655
  811MOL0     C 9377  10.752   3.695   1.098 -0.3001 -0.7575  0.9782
  811MOL0     C 9378  10.891   3.639   1.082  0.3310 -1.0323 -0.1567
  811MOL0     C 9379  10.665   3.647   1.193 -0.3101  0.2863  0.8146
  811MOL0     C 9380  10.711   3.539   1.293  0.9611 -0.2663 -0.3605
  811MOL0     O 9381  10.838   3.521   1.314 -0.8571 -0.0166  0.0449
  811MOL0     C 9382  10.865   3.475   1.434  0.2668 -1.1147 -0.0416
  811MOL0     C 9383  10.862   3.346   1.471  0.5682  0.4968  0.5775
  811MOL0     C 9384  10.870   3.307   1.610 -0.1244  0.1633  0.2522
  811MOL0     C 9385  10.914   3.403   1.704 -0.7768 -0.6494 -1.6167
  811MOL0     O 9386  10.939   3.375   1.847 -1.0780  0.0697  0.3539
  811MOL0     C 9387  10.827   3.340   1.910  0.4698 -0.5344  0.2487
  811MOL0     C 9388  10.877   3.264   2.032  0.1070  0.2138  0.8621
  811MOL0     C 9389  10.944   3.353   2.134  0.5379 -0.4000 -0.0997
  811MOL0     C 9390  10.845   3.462   2.190  0.2150  0.3445 -0.8607
  811MOL0     C 9391  10.891   3.514   2.317  0.0161  0.6365 -0.8100
  811MOL0     C 9392  10.841   3.660   2.342  0.1674 -0.0520  0.8164
  811MOL0     C 9393  10.889   3.707   2.477 -0.6581  1.0318  0.4598
  811MOL0     C 9394  10.943   3.854   2.493 -0.4804  0.2113  0.2438
  811MOL0    Cl 9395  10.846   3.955   2.396  0.0580 -0.1247 -0.1258
  811MOL0     C 9396  10.932   3.528   1.656  0.0983  0.0121 -0.5120
  811MOL0     C 9397  10.906   3.572   1.524  0.7487 -0.2205 -0.1415
  811MOL0     O 9398  10.621   3.469   1.350  0.1262  0.6131  0.6127
  811MOL0     C 9399  10.531   3.684   1.189  0.1075  0.2770 -0.0892
  811MOL0     C 9400  10.490   3.784   1.103  0.1824 -0.2183  0.4440
  811MOL0     N 9401  10.375   4.383   1.136  0.0418  0.7027  1.1643
  811MOL0     N 9402  10.366   4.509   1.180 -0.0615  0.2341  0.4361
  811MOL0     C 9403  11.163   4.895   1.854 -0.0139  0.1279 -0.4687
  811MOL0     C 9404  11.239   5.006   1.894  1.1576  0.2557 -0.7373
  811MOL0     C 9405  11.589   5.281   1.866 -0.2693  0.6100 -0.5233
  811MOL0     C 9406  11.718   5.251   1.915 -0.5108  0.0547 -0.5822
  811MOL0     C 9407  11.815   5.345   1.908 -0.9337 -0.1573  0.3574
  811MOL0     C 9408  11.800   5.468   1.854  0.1395 -0.6897  0.7534
  811MOL0     O 9409  11.905   5.564   1.832  0.3134 -0.8792 -0.7922
  811MOL0     C 9410  12.039   5.518   1.818 -1.7332  0.1525  0.4356
  811MOL0     C 9411  12.127   5.649   1.817 -0.1858 -0.7418  0.0995
  811MOL0     C 9412  12.145   5.707   1.961 -0.6414 -0.2743 -0.1039
  811MOL0     C 9413  12.229   5.839   1.971 -0.2536 -0.7374  0.5028
  811MOL0     C 9414  12.206   5.912   2.098 -0.8413  0.2810  1.5407
  811MOL0     C 9415  12.181   5.988   2.193 -0.4290 -0.0307 -0.3734
  811MOL0     C 9416  11.670   5.502   1.811 -0.4449  1.0803  0.7664
  811MOL0     C 9417  11.563   5.416   1.822 -0.9190  0.8506  0.2118
  811MOL0     H 9418  11.328   5.112   1.576  1.5109  0.1667  0.1775
  811MOL0     H 9419  11.211   4.906   1.512  0.3493 -2.7401  0.7907
  811MOL0     H 9420  10.917   4.688   1.741 -0.3971  1.2238  0.9768
  811MOL0     H 9421  10.931   4.859   1.725  0.1597 -0.0846 -0.3707
  811MOL0     H 9422  10.793   4.782   1.548  0.5527  1.8509 -1.6946
  811MOL0     H 9423  10.947   4.841   1.478  0.5592  0.4047  0.9516
  811MOL0     H 9424  11.005   4.584   1.538 -0.4002  2.8643  1.3678
  811MOL0     H 9425  10.835   4.564   1.490 -0.2520  0.5508  0.8813
  811MOL0     H 9426  11.069   4.678   1.321 -0.7773 -0.7653 -0.4997
  811MOL0     H 9427  10.988   4.533   1.283  3.4007 -0.1413  1.3849
  811MOL0     H 9428  10.855   4.824   1.265 -1.0820 -0.6398 -2.2837
  811MOL0     H 9429  10.911   4.727   1.137  4.7509  0.1304  2.0508
  811MOL0     H 9430  10.742   4.563   1.171 -0.8826  0.9756 -1.7689
  811MOL0     H 9431  10.681   4.631   1.315 -0.3022  1.8075  0.5018
  811MOL0     H 9432  10.665   4.842   1.153  0.3683  0.6616  0.1703
  811MOL0     H 9433  10.667   4.719   1.026  0.7286  0.1387  0.0047
  811MOL0     H 9434  10.428   4.773   1.075 -1.2423 -2.5016 -2.3345
  811MOL0     H 9435  10.454   4.729   1.247  1.3090  3.2552  0.5784
  811MOL0     H 9436  10.579   4.524   0.931 -1.2566 -1.2617 -1.2110
  811MOL0     H 9437  10.564   4.282   0.863 -1.8606  0.7461 -1.4837
  811MOL0     H 9438  10.568   4.180   1.003  0.9705  1.3668  0.5320
  811MOL0     H 9439  10.322   4.265   0.837  1.7716 -0.2530 -2.4670
  811MOL0     H 9440  10.318   4.151   0.973 -0.4027 -2.0641 -1.3091
  811MOL0     H 9441  10.470   4.087   0.716  0.3309  3.8208  0.8023
  811MOL0     H 9442  10.292   4.066   0.735 -0.0053 -2.0328 -0.1913
  811MOL0     H 9443  10.432   3.855   0.770  0.3287 -1.2207  1.0654
  811MOL0     H 9444  10.348   3.895   0.917  0.5692 -0.1810  0.1611
  811MOL0     H 9445  10.770   3.845   0.932 -1.3613  0.4832 -0.8071
  811MOL0     H 9446  10.884   3.530   1.067 -4.3897 -0.5491 -4.4672
  811MOL0     H 9447  10.929   3.675   0.986  0.5032  2.2931  1.0466
  811MOL0     H 9448  10.963   3.678   1.154 -1.7937  2.2514  0.4260
  811MOL0     H 9449  10.828   3.275   1.395 -1.0598 -0.1462  1.8380
  811MOL0     H 9450  10.855   3.205   1.645  4.2209 -1.2760 -1.3701
  811MOL0     H 9451  10.778   3.437   1.923  1.4923  0.0459 -0.1177
  811MOL0     H 9452  10.757   3.276   1.856  0.0578  0.0231  0.1174
  811MOL0     H 9453  10.797   3.199   2.070  0.6401 -0.8404  0.2311
  811MOL0     H 9454  10.940   3.185   1.989 -0.5978 -0.3777  0.8906
  811MOL0     H 9455  11.023   3.416   2.092 -0.5406 -0.7060 -2.7766
  811MOL0     H 9456  10.983   3.290   2.215 -1.2087 -0.9379  0.3832
  811MOL0     H 9457  10.854   3.548   2.123  1.3029  2.4348  1.8236
  811MOL0     H 9458  10.737   3.445   2.201  0.2750  1.3233  1.7788
  811MOL0     H 9459  11.000   3.511   2.316  0.0002 -1.3135 -0.4441
  811MOL0     H 9460  10.868   3.440   2.394  4.8741 -0.4383 -0.0641
  811MOL0     H 9461  10.889   3.716   2.260  0.2558 -1.1691  0.0887
  811MOL0     H 9462  10.733   3.660   2.326  0.2806  1.3274 -0.2509
  811MOL0     H 9463  10.969   3.638   2.505  3.5164  4.0485 -2.6499
  811MOL0     H 9464  10.802   3.681   2.538 -0.5054 -2.3298 -0.5583
  811MOL0     H 9465  11.046   3.860   2.459 -0.3969 -1.4703  0.1648
  811MOL0     H 9466  10.917   3.873   2.598 -2.0411  1.5281 -0.3337
  811MOL0     H 9467  10.944   3.604   1.733 -3.0904 -1.1641  1.3555
  811MOL0     H 9468  10.911   3.674   1.486 -2.0350 -0.1276 -0.4739
  811MOL0     H 9469  10.461   3.646   1.262  1.8208  1.1499  2.1255
  811MOL0     H 9470  10.385   3.810   1.112  0.5368  0.5957  3.5917
  811MOL0     H 9471  11.095   4.851   1.926 -0.2637  1.6941  0.3149
  811MOL0     H 9472  11.260   5.034   1.997  4.6397 -2.6096 -0.4673
  811MOL0     H 9473  11.746   5.155   1.956 -1.5493  0.2569  0.6546
  811MOL0     H 9474  11.913   5.306   1.934 -0.1572  0.4171 -1.5572
  811MOL0     H 9475  12.082   5.463   1.902  4.4957  3.0970 -0.2200
  811MOL0     H 9476  12.039   5.469   1.720 -4.4491  0.8917 -0.0211
  811MOL0     H 9477  12.086   5.718   1.744  1.2850  1.5973  1.3637
  811MOL0     H 9478  12.226   5.606   1.799 -1.9920 -4.9322 -1.2298
  811MOL0     H 9479  12.187   5.631   2.027  1.0940  1.5491  1.0045
  811MOL0     H 9480  12.046   5.729   2.003 -0.1927 -0.0244  0.8627
  811MOL0     H 9481  12.193   5.906   1.892  0.8012 -0.3922  0.2935
  811MOL0     H 9482  12.332   5.815   1.942 -0.0652  1.6029 -1.0496
  811MOL0     H 9483  12.167   6.052   2.278  1.0541 -2.0906  1.5659
  811MOL0     H 9484  11.653   5.604   1.780 -0.5727  1.4467  2.0151
  811MOL0     H 9485  11.464   5.458   1.806 -0.3827  2.8606  1.7083
  812MOL0     O 9486   9.626  10.436  10.827  0.0390  0.1089  0.0600
  812MOL0     C 9487   9.538  10.487  10.759  0.8744  0.0936 -0.9594
  812MOL0     O 9488   9.488  10.609  10.770 -0.5389  0.1331  0.0201
  812MOL0     C 9489   9.548  10.705  10.858 -0.9885 -0.2740  0.9034
  812MOL0     C 9490   9.687  10.726  10.890  0.1916  0.4055 -0.9167
  812MOL0     C 9491   9.718  10.815  11.003  0.4752  0.5922  0.1676
  812MOL0     C 9492   9.622  10.880  11.076  0.0586  0.0707  0.5150
  812MOL0     O 9493   9.648  10.965  11.181 -0.1519 -0.3919  0.1391
  812MOL0     C 9494   9.582  10.960  11.312  0.0140  0.6333  1.1780
  812MOL0     C 9495   9.530  11.101  11.330  0.1492  1.2366 -0.0634
  812MOL0     C 9496   9.648  11.195  11.344 -0.1245 -0.3310  0.7055
  812MOL0     C 9497   9.622  11.341  11.391  1.0272  0.1915  0.2748
  812MOL0     C 9498   9.763  11.399  11.421  0.5602  0.5379  0.1202
  812MOL0     C 9499   9.756  11.539  11.487 -0.3460  1.4557  0.1036
  812MOL0     C 9500   9.732  11.644  11.382  0.6176 -0.4600  0.7431
  812MOL0     C 9501   9.845  11.664  11.285  0.0228  0.6100  0.2574
  812MOL0     N 9502   9.828  11.786  11.209  0.3433 -0.6925  0.4224
  812MOL0     C 9503   9.830  11.907  11.273 -0.5159  0.4226  0.3310
  812MOL0     C 9504   9.797  11.999  11.180  0.1460  0.1882 -0.0035
  812MOL0     C 9505   9.764  12.146  11.202 -1.4402 -0.3766 -0.1021
  812MOL0     C 9506   9.894  12.217  11.263 -0.1553 -0.3000  0.8591
  812MOL0     C 9507   9.877  12.368  11.259 -0.0655  1.2484 -0.1367
  812MOL0     C 9508   9.746  12.413  11.326 -0.4477  0.0653  0.4222
  812MOL0     O 9509   9.740  12.378  11.461 -0.0676 -0.0473  0.7265
  812MOL0     C 9510   9.628  12.375  11.537  0.0189 -0.8680  0.4968
  812MOL0     C 9511   9.663  12.351  11.673 -0.0199  0.6167  0.7800
  812MOL0     C 9512   9.568  12.353  11.770  0.1482 -1.5027 -0.2889
  812MOL0     C 9513   9.594  12.321  11.918 -0.2707  0.6518  0.8601
  812MOL0     C 9514   9.436  12.378  11.727  1.2729 -1.0540 -0.9787
  812MOL0     C 9515   9.320  12.365  11.817 -0.2019 -0.1965 -0.0837
  812MOL0     O 9516   9.236  12.473  11.832  0.0802  0.4685 -0.2921
  812MOL0     C 9517   9.148  12.480  11.939 -0.8456 -0.0073  0.2251
  812MOL0     C 9518   9.178  12.446  12.072 -0.0140 -0.2524 -0.3012
  812MOL0     C 9519   9.083  12.447  12.172 -0.5005  0.3948  0.5698
  812MOL0     C 9520   8.948  12.465  12.141  0.5597 -0.1638 -0.5715
  812MOL0     O 9521   8.860  12.451  12.244 -0.1944 -0.1905  0.1723
  812MOL0     C 9522   8.721  12.456  12.225  0.6269 -0.9379 -0.5864
  812MOL0     C 9523   8.641  12.426  12.355 -0.2346 -0.9318 -1.0807
  812MOL0     C 9524   8.682  12.511  12.469  0.3395  0.3969  0.7914
  812MOL0     C 9525   8.647  12.657  12.441 -0.2218 -0.5293 -0.3622
  812MOL0     C 9526   8.494  12.675  12.429  0.1070  0.7366  0.1503
  812MOL0     C 9527   8.457  12.818  12.442 -0.0723  0.1114 -0.4482
  812MOL0     C 9528   8.493  12.888  12.570 -0.2535  0.3656 -0.1918
  812MOL0     C 9529   8.407  13.007  12.597 -1.2323 -0.1899 -0.1898
  812MOL0    Cl 9530   8.423  13.162  12.491  0.2480  0.3491 -0.1348
  812MOL0     C 9531   8.914  12.483  12.007 -0.0005  0.7313 -0.3098
  812MOL0     C 9532   9.014  12.505  11.911  0.3051 -0.4044 -0.4273
  812MOL0     O 9533   9.303  12.250  11.861  0.9246  0.1338 -0.1508
  812MOL0     C 9534   9.403  12.429  11.599  0.1495 -0.7900 -0.0752
  812MOL0     C 9535   9.501  12.423  11.501 -0.3686  0.4618 -0.2284
  812MOL0     N 9536   9.781  11.924  11.059 -0.2666 -0.0258  0.7332
  812MOL0     N 9537   9.812  11.798  11.071  0.0023 -0.3606  0.0469
  812MOL0     C 9538   9.488  10.865  11.035 -0.6547  1.0268  0.6117
  812MOL0     C 9539   9.457  10.773  10.932 -0.6134  0.3149  0.3043
  812MOL0     C 9540   9.468  10.396  10.660 -0.3233 -1.1286 -0.4951
  812MOL0     C 9541   9.339  10.427  10.615 -0.5251  0.4337  0.4749
  812MOL0     C 9542   9.257  10.333  10.541 -0.6815 -1.1350  0.4879
  812MOL0     C 9543   9.327  10.223  10.486  0.2175 -0.0390  0.0193
  812MOL0     O 9544   9.249  10.133  10.414  0.0813 -0.5285 -0.4750
  812MOL0     C 9545   9.261   9.998  10.462 -1.2345  0.0644  0.8884
  812MOL0     C 9546   9.241   9.982  10.611 -0.1318 -0.3327 -1.5243
  812MOL0     C 9547   9.195   9.833  10.645  0.2798  0.2685 -1.1349
  812MOL0     C 9548   9.292   9.720  10.622  0.2749  0.6499 -0.2261
  812MOL0     C 9549   9.428   9.747  10.676 -0.0002  0.2757 -0.3961
  812MOL0     C 9550   9.541   9.764  10.725  0.3003  0.3609  0.3674
  812MOL0     C 9551   9.459  10.197  10.522  0.7944  0.7464  0.4751
  812MOL0     C 9552   9.528  10.276  10.612  0.0971 -0.1000  0.7233
  812MOL0     H 9553   9.753  10.665  10.829  0.4087  2.5720 -2.9741
  812MOL0     H 9554   9.823  10.828  11.025  0.7932  0.0515 -0.9543
  812MOL0     H 9555   9.507  10.881  11.305  1.4002 -0.7210  0.7899
  812MOL0     H 9556   9.661  10.933  11.384  0.7882 -1.0557 -0.2176
  812MOL0     H 9557   9.466  11.130  11.245 -1.3086  2.8182  1.4902
  812MOL0     H 9558   9.472  11.096  11.422  0.0434 -3.0813 -0.1674
  812MOL0     H 9559   9.722  11.150  11.411 -0.6243  0.5388  1.8667
  812MOL0     H 9560   9.682  11.212  11.241  1.1711  1.5859  1.4055
  812MOL0     H 9561   9.571  11.397  11.313 -2.9635 -0.2482  2.3020
  812MOL0     H 9562   9.549  11.338  11.473 -0.9126 -3.2003 -1.3388
  812MOL0     H 9563   9.814  11.333  11.492  0.5390 -2.4184 -2.4003
  812MOL0     H 9564   9.815  11.393  11.325  0.1715  0.8817 -0.1132
  812MOL0     H 9565   9.682  11.542  11.567 -0.5441  0.1538 -0.0073
  812MOL0     H 9566   9.851  11.569  11.533 -0.6815 -0.4510  2.2586
  812MOL0     H 9567   9.647  11.617  11.318  1.1921  0.2564 -0.3446
  812MOL0     H 9568   9.721  11.736  11.440  1.9542 -0.6343  1.3001
  812MOL0     H 9569   9.852  11.574  11.224  1.2556  0.5776  0.4352
  812MOL0     H 9570   9.936  11.670  11.345 -1.2133 -0.5473  2.3873
  812MOL0     H 9571   9.841  11.924  11.380 -3.3842 -3.8996  1.5759
  812MOL0     H 9572   9.734  12.185  11.104  3.3048 -0.1887 -1.7034
  812MOL0     H 9573   9.681  12.162  11.272 -0.8787  1.9231  0.1194
  812MOL0     H 9574   9.981  12.185  11.205 -0.7956  0.3202 -0.4859
  812MOL0     H 9575   9.895  12.178  11.365 -1.4658  0.4189  1.1594
  812MOL0     H 9576   9.877  12.405  11.157 -0.5840  2.8356  0.4132
  812MOL0     H 9577   9.956  12.411  11.321 -2.0614  1.5982  2.3382
  812MOL0     H 9578   9.657  12.369  11.280  1.1108 -3.2228  0.2869
  812MOL0     H 9579   9.731  12.520  11.311  0.7340  0.3870  1.4514
  812MOL0     H 9580   9.770  12.341  11.687  0.4977 -0.9189 -3.0780
  812MOL0     H 9581   9.525  12.389  11.969 -1.0167  1.5831 -1.2588
  812MOL0     H 9582   9.551  12.222  11.934 -0.1299  0.2932 -0.8055
  812MOL0     H 9583   9.696  12.344  11.949 -1.2733  6.8459  0.7796
  812MOL0     H 9584   9.281  12.419  12.095 -0.9034 -2.2696  1.7050
  812MOL0     H 9585   9.106  12.389  12.261  0.9418 -2.1104 -1.3042
  812MOL0     H 9586   8.707  12.563  12.207  2.3056 -0.0095  2.9048
  812MOL0     H 9587   8.699  12.391  12.139 -0.7094 -1.8061  0.3675
  812MOL0     H 9588   8.532  12.434  12.345 -0.2136 -2.7210 -3.7539
  812MOL0     H 9589   8.660  12.324  12.390  1.8892 -0.8137 -1.7813
  812MOL0     H 9590   8.791  12.501  12.476  0.4249 -0.1654 -0.8816
  812MOL0     H 9591   8.635  12.477  12.561  2.3755  1.8046  2.4352
  812MOL0     H 9592   8.682  12.714  12.527 -3.5463  1.4179 -0.1302
  812MOL0     H 9593   8.704  12.700  12.358 -0.1025  1.0111  0.4714
  812MOL0     H 9594   8.455  12.637  12.523  3.0407  0.8994  1.5417
  812MOL0     H 9595   8.448  12.625  12.343  0.5053 -2.3759  1.6036
  812MOL0     H 9596   8.497  12.866  12.352 -1.7262  1.0559 -0.7234
  812MOL0     H 9597   8.350  12.838  12.437 -0.1424  0.0400  0.5164
  812MOL0     H 9598   8.597  12.920  12.556 -0.1863  0.6042  0.8002
  812MOL0     H 9599   8.488  12.815  12.652 -1.0201 -1.2192 -1.5798
  812MOL0     H 9600   8.423  13.040  12.700  5.5091 -0.1484 -0.8475
  812MOL0     H 9601   8.303  12.975  12.590 -1.3630 -0.2762  1.6248
  812MOL0     H 9602   8.809  12.473  11.979  0.1954 -0.6477 -0.6003
  812MOL0     H 9603   8.982  12.524  11.809 -1.5406 -0.6604  0.0790
  812MOL0     H 9604   9.307  12.474  11.580  0.5920  0.2556  0.0587
  812MOL0     H 9605   9.474  12.463  11.403 -2.4621 -0.4036 -0.0511
  812MOL0     H 9606   9.412  10.905  11.102 -0.0011 -0.5540  2.3736
  812MOL0     H 9607   9.353  10.742  10.927  0.3326 -4.0690  2.4687
  812MOL0     H 9608   9.290  10.511  10.663  0.0878  1.1539 -0.1518
  812MOL0     H 9609   9.154  10.359  10.521 -0.2592 -0.0372 -0.2920
  812MOL0     H 9610   9.199   9.932  10.400  0.7794  0.6423 -1.9336
  812MOL0     H 9611   9.365   9.966  10.447 -0.7026  0.4835  3.2851
  812MOL0     H 9612   9.163  10.055  10.635 -2.8516 -2.6562 -2.6506
  812MOL0     H 9613   9.327  10.001  10.676 -1.7503 -3.8876  2.0931
  812MOL0     H 9614   9.112   9.804  10.581 -1.9324  2.5773  0.4819
  812MOL0     H 9615   9.165   9.826  10.751  1.7583 -2.9156 -0.8067
  812MOL0     H 9616   9.310   9.699  10.517  0.4104 -0.5397  0.0267
  812MOL0     H 9617   9.266   9.620  10.658 -0.7068  0.9588 -0.0511
  812MOL0     H 9618   9.636   9.783  10.771  1.7617  2.5624 -3.1773
  812MOL0     H 9619   9.505  10.104  10.491 -0.7952  0.2711 -0.6016
  812MOL0     H 9620   9.630  10.261  10.647  1.1947 -0.7782 -2.3713
  813MOL0     O 9621   5.721   4.580   3.058  0.9322 -0.5170 -0.3390
  813MOL0     C 9622   5.836   4.539   3.072 -0.2383 -1.0279  0.2916
  813MOL0     O 9623   5.917   4.557   3.181  0.5204  0.3229 -0.1097
  813MOL0     C 9624   5.873   4.635   3.281  0.6334  0.3740  0.6470
  813MOL0     C 9625   5.957   4.734   3.328 -0.4950  0.8329  0.2924
  813MOL0     C 9626   5.920   4.821   3.431 -0.5359 -0.4129  1.1136
  813MOL0     C 9627   5.803   4.792   3.501  0.0897 -0.5575 -0.8268
  813MOL0     O 9628   5.757   4.872   3.606  0.5641 -0.7724 -0.7724
  813MOL0     C 9629   5.782   4.812   3.734  0.3479 -0.0015 -0.1294
  813MOL0     C 9630   5.745   4.903   3.842 -0.3838 -0.9005 -0.6746
  813MOL0     C 9631   5.590   4.922   3.853  0.2093 -0.3881  0.2787
  813MOL0     C 9632   5.542   5.033   3.929 -0.5833  0.8109 -0.7756
  813MOL0     C 9633   5.574   5.004   4.074 -0.7344  0.7437 -0.2777
  813MOL0     C 9634   5.495   5.083   4.171  0.3681  0.3591  0.0549
  813MOL0     C 9635   5.563   5.085   4.308 -0.0373  0.2537 -0.2063
  813MOL0     C 9636   5.656   5.213   4.328  0.7071  0.0275 -0.1535
  813MOL0     N 9637   5.692   5.224   4.474  0.2678  0.1812 -0.1195
  813MOL0     C 9638   5.817   5.218   4.523  0.1257  0.2980  0.6849
  813MOL0     C 9639   5.813   5.251   4.659  0.9906 -0.3024 -1.2987
  813MOL0     C 9640   5.928   5.233   4.756  0.8716  0.0741 -0.7491
  813MOL0     C 9641   5.888   5.161   4.886 -1.0602 -0.4283  0.2240
  813MOL0     C 9642   6.023   5.154   4.960 -0.0577 -0.0071  0.0393
  813MOL0     C 9643   5.995   5.117   5.114  0.4375 -0.5289 -0.3771
  813MOL0     O 9644   5.955   4.978   5.129 -0.4578  0.1105  0.2844
  813MOL0     C 9645   5.957   4.924   5.257  0.2654 -0.2313  1.4038
  813MOL0     C 9646   5.955   5.007   5.369  0.0774  1.2995  0.3381
  813MOL0     C 9647   5.955   4.954   5.505  0.7731  0.0722  0.5462
  813MOL0     C 9648   5.963   5.056   5.615 -0.6689 -0.5662 -0.8413
  813MOL0     C 9649   5.941   4.819   5.528  0.2373  0.7067 -0.1421
  813MOL0     C 9650   5.965   4.753   5.657  0.8004 -1.3024  0.3729
  813MOL0     O 9651   6.047   4.651   5.655 -1.4966 -0.4344 -0.0620
  813MOL0     C 9652   6.038   4.572   5.764 -0.4501  0.4884 -0.0618
  813MOL0     C 9653   6.129   4.585   5.875 -0.1292  0.5942  1.0255
  813MOL0     C 9654   6.109   4.492   5.975 -0.5368  0.3119  0.3452
  813MOL0     C 9655   6.012   4.394   5.986 -0.2015  0.8652  0.3973
  813MOL0     O 9656   5.990   4.298   6.086  0.7337  0.1078  0.7756
  813MOL0     C 9657   5.963   4.346   6.210  0.6123 -0.3438  0.1316
  813MOL0     C 9658   6.054   4.283   6.314  0.0306 -0.5893 -0.4732
  813MOL0     C 9659   6.071   4.134   6.330  0.0481 -0.0718  0.6825
  813MOL0     C 9660   6.188   4.101   6.421 -0.6088 -0.0645 -0.5931
  813MOL0     C 9661   6.200   3.945   6.416  0.1100 -0.8125 -0.6435
  813MOL0     C 9662   6.323   3.903   6.506  0.4966  0.9380 -0.4118
  813MOL0     C 9663   6.348   3.754   6.490  1.1146  1.1226 -0.0338
  813MOL0     C 9664   6.232   3.692   6.567  0.0529  0.3269 -1.0477
  813MOL0    Cl 9665   6.256   3.522   6.568  0.4383  0.3842 -0.0292
  813MOL0     C 9666   5.922   4.379   5.879 -1.3203  0.1412  0.2425
  813MOL0     C 9667   5.936   4.470   5.769 -0.6915  0.2599  0.0254
  813MOL0     O 9668   5.905   4.800   5.758 -0.5171 -0.0849  0.0268
  813MOL0     C 9669   5.935   4.729   5.410  0.8615  0.3864 -1.4169
  813MOL0     C 9670   5.941   4.778   5.283 -0.3868 -0.2410  0.4286
  813MOL0     N 9671   5.687   5.315   4.671 -0.3573 -0.6211  0.1599
  813MOL0     N 9672   5.622   5.304   4.560  0.2451 -0.5537 -0.3902
  813MOL0     C 9673   5.730   4.678   3.472  0.1074  0.1023  0.2946
  813MOL0     C 9674   5.764   4.599   3.357  0.0874  0.0571 -0.2938
  813MOL0     C 9675   5.894   4.462   2.961 -0.1488 -0.5125  0.2628
  813MOL0     C 9676   5.821   4.421   2.847 -0.0309  0.2111 -0.8448
  813MOL0     C 9677   5.885   4.357   2.733  0.8215 -0.5597 -0.1365
  813MOL0     C 9678   6.020   4.350   2.732  0.3028  0.2063 -1.3895
  813MOL0     O 9679   6.087   4.300   2.631 -0.2007  1.1752  0.3817
  813MOL0     C 9680   6.084   4.157   2.624  0.0765 -0.5649  1.3098
  813MOL0     C 9681   6.131   4.120   2.485 -0.6599 -0.6289 -0.5318
  813MOL0     C 9682   6.024   4.126   2.376 -0.0991  0.9711 -0.5418
  813MOL0     C 9683   6.071   4.062   2.247 -0.1529 -0.6935  0.0976
  813MOL0     C 9684   6.158   4.155   2.168  0.2809  0.1963 -0.3040
  813MOL0     C 9685   6.216   4.228   2.098 -0.4903 -1.1132 -0.0243
  813MOL0     C 9686   6.089   4.370   2.849 -0.0433 -0.0882  0.2364
  813MOL0     C 9687   6.033   4.424   2.962  0.0789 -0.3574  0.4768
  813MOL0     H 9688   6.049   4.748   3.273 -0.5321 -1.2870 -0.4038
  813MOL0     H 9689   5.971   4.910   3.468 -0.3360  1.0581 -2.3097
  813MOL0     H 9690   5.730   4.719   3.761 -1.3942  0.7648 -0.7207
  813MOL0     H 9691   5.887   4.791   3.761  0.3408  0.9048  0.6705
  813MOL0     H 9692   5.757   4.871   3.946  0.2779 -0.5278 -0.6309
  813MOL0     H 9693   5.795   4.998   3.821  0.0348 -1.3942 -1.9850
  813MOL0     H 9694   5.557   4.934   3.750 -0.6600  1.6365  0.7480
  813MOL0     H 9695   5.549   4.826   3.888  1.1599  0.5362  4.5525
  813MOL0     H 9696   5.589   5.126   3.895 -0.3527  0.6949 -0.7758
  813MOL0     H 9697   5.434   5.042   3.919 -0.5232  2.4113 -0.3202
  813MOL0     H 9698   5.578   4.898   4.100  2.3564 -0.6417 -5.0335
  813MOL0     H 9699   5.679   5.034   4.083 -1.3768  3.4409 -0.9166
  813MOL0     H 9700   5.463   5.175   4.123  0.9193 -0.5608 -2.2252
  813MOL0     H 9701   5.404   5.026   4.193 -0.6606  0.6739 -2.9054
  813MOL0     H 9702   5.481   5.078   4.379 -2.0374  0.5533 -2.3495
  813MOL0     H 9703   5.617   4.993   4.331 -1.4345 -0.8252 -1.1099
  813MOL0     H 9704   5.586   5.297   4.315 -0.7662 -0.6197  2.7488
  813MOL0     H 9705   5.748   5.221   4.269  0.9404  0.6706  0.2844
  813MOL0     H 9706   5.907   5.178   4.478 -0.0496  2.5507 -1.9411
  813MOL0     H 9707   6.011   5.197   4.694  1.5248 -0.6943  0.5399
  813MOL0     H 9708   5.961   5.334   4.779  2.6659 -0.1724 -1.9970
  813MOL0     H 9709   5.855   5.063   4.852  1.8539 -0.5089 -3.0228
  813MOL0     H 9710   5.816   5.232   4.928  1.6043  2.0330  0.9774
  813MOL0     H 9711   6.074   5.250   4.960  0.3778 -0.0010  4.5745
  813MOL0     H 9712   6.087   5.079   4.911  2.5670  1.0543  1.6138
  813MOL0     H 9713   5.917   5.186   5.149 -1.3005 -1.2709 -2.5222
  813MOL0     H 9714   6.088   5.142   5.166  1.0318 -0.5930 -1.3787
  813MOL0     H 9715   5.969   5.114   5.367 -1.8370  1.6190  1.0304
  813MOL0     H 9716   6.038   5.021   5.686 -1.1118 -0.6503 -0.4094
  813MOL0     H 9717   5.996   5.155   5.583 -1.1220  0.9651  2.9118
  813MOL0     H 9718   5.872   5.079   5.672  0.0433  0.0866  0.0543
  813MOL0     H 9719   6.217   4.648   5.875  0.6145 -0.4006 -0.5012
  813MOL0     H 9720   6.178   4.492   6.059  0.2405 -4.1401 -0.0822
  813MOL0     H 9721   5.970   4.455   6.216  1.0675 -0.2749 -1.4675
  813MOL0     H 9722   5.857   4.329   6.233  0.1287  2.7487  0.7311
  813MOL0     H 9723   6.148   4.336   6.298  1.2393 -2.9606 -1.7613
  813MOL0     H 9724   6.018   4.323   6.409 -3.9929 -1.2775 -1.5099
  813MOL0     H 9725   6.091   4.087   6.234 -0.7372  1.6244 -0.3622
  813MOL0     H 9726   5.980   4.088   6.371 -1.0604 -0.3386 -1.9148
  813MOL0     H 9727   6.283   4.155   6.409  1.0478 -2.9225 -1.1565
  813MOL0     H 9728   6.148   4.130   6.519 -0.0286 -0.9130 -0.0845
  813MOL0     H 9729   6.215   3.923   6.310 -0.5256  1.4415 -1.2705
  813MOL0     H 9730   6.106   3.903   6.451  0.3186 -0.8441 -0.1154
  813MOL0     H 9731   6.407   3.953   6.457 -0.4251  0.3120 -2.7770
  813MOL0     H 9732   6.304   3.939   6.607  1.8283 -1.9628  1.0017
  813MOL0     H 9733   6.443   3.732   6.540 -0.8450 -0.3628  3.3865
  813MOL0     H 9734   6.351   3.742   6.382 -0.3377 -0.2415  0.0475
  813MOL0     H 9735   6.130   3.705   6.530 -0.9294  1.2908  1.7389
  813MOL0     H 9736   6.241   3.721   6.672  2.8864  3.1353 -1.9101
  813MOL0     H 9737   5.851   4.299   5.901 -2.2494  1.4389  2.2683
  813MOL0     H 9738   5.884   4.463   5.674 -0.4013  0.0594 -0.1178
  813MOL0     H 9739   5.906   4.629   5.441 -2.1045  1.2156 -1.2019
  813MOL0     H 9740   5.923   4.705   5.204 -0.9080 -0.9386  1.1799
  813MOL0     H 9741   5.637   4.661   3.526 -1.6469  2.4059 -1.7775
  813MOL0     H 9742   5.710   4.506   3.341 -0.3308  0.1949  0.2512
  813MOL0     H 9743   5.713   4.437   2.839 -0.2273  1.8345  3.0051
  813MOL0     H 9744   5.834   4.314   2.647  0.5274 -1.3300  0.4035
  813MOL0     H 9745   6.145   4.123   2.709  0.5589  1.6626  1.9253
  813MOL0     H 9746   5.981   4.124   2.634 -0.6952  1.2040 -0.2142
  813MOL0     H 9747   6.172   4.019   2.494 -0.0028 -0.2495  1.0551
  813MOL0     H 9748   6.218   4.179   2.456 -0.3119 -1.7215 -1.8102
  813MOL0     H 9749   6.003   4.232   2.359 -1.1801  1.0146  0.9599
  813MOL0     H 9750   5.933   4.077   2.411  2.0810 -0.0949  4.3862
  813MOL0     H 9751   5.985   4.036   2.184  0.0565  0.9330 -0.9112
  813MOL0     H 9752   6.137   3.979   2.273  0.2314 -1.3449 -2.5730
  813MOL0     H 9753   6.285   4.293   2.048 -0.4527  1.9834  3.5562
  813MOL0     H 9754   6.197   4.364   2.860 -0.0392  0.5389  0.6192
  813MOL0     H 9755   6.104   4.431   3.044 -0.0116 -2.7970  0.8493
  814MOL0     O 9756   6.712  11.135  11.276  0.3500 -0.1068  0.1096
  814MOL0     C 9757   6.732  11.238  11.338 -1.0600 -0.6117 -0.0873
  814MOL0     O 9758   6.832  11.272  11.424 -0.2822 -0.4010  0.5308
  814MOL0     C 9759   6.911  11.167  11.464 -0.0156  0.2516  0.0084
  814MOL0     C 9760   7.035  11.144  11.417 -0.6854  0.3813  0.7942
  814MOL0     C 9761   7.100  11.018  11.442  0.5020 -0.6786 -0.5028
  814MOL0     C 9762   7.042  10.923  11.527 -0.1301 -0.2878 -0.6078
  814MOL0     O 9763   7.100  10.802  11.554  0.1639 -0.9459  0.0370
  814MOL0     C 9764   7.241  10.809  11.600 -0.2706  0.0449 -0.1697
  814MOL0     C 9765   7.268  10.897  11.719  0.4699  0.1367 -0.3768
  814MOL0     C 9766   7.178  10.887  11.842  0.3467 -0.4380 -0.1750
  814MOL0     C 9767   7.196  10.758  11.908 -0.3510 -0.2415 -0.1870
  814MOL0     C 9768   7.133  10.743  12.044  0.5564  0.6468 -0.4796
  814MOL0     C 9769   7.175  10.598  12.095  0.1543  0.0286  0.8372
  814MOL0     C 9770   7.084  10.551  12.213  0.6557  0.0145 -0.1757
  814MOL0     C 9771   7.092  10.406  12.246 -0.4701  0.8371  0.3140
  814MOL0     N 9772   6.995  10.354  12.346  0.4717 -0.0518 -0.0906
  814MOL0     C 9773   6.972  10.423  12.462 -0.4186  0.0262 -0.4735
  814MOL0     C 9774   6.850  10.381  12.507 -1.0453  1.1700 -0.3496
  814MOL0     C 9775   6.791  10.425  12.639 -0.0811  0.3657 -0.2913
  814MOL0     C 9776   6.666  10.506  12.610 -1.0341  0.4114 -0.4721
  814MOL0     C 9777   6.646  10.587  12.731  0.4291 -0.3213  0.6024
  814MOL0     C 9778   6.515  10.660  12.708  0.2547  0.7023 -0.3721
  814MOL0     O 9779   6.461  10.697  12.836 -0.3860 -0.4055  0.2209
  814MOL0     C 9780   6.348  10.773  12.844  0.1755 -0.3308 -0.6340
  814MOL0     C 9781   6.310  10.815  12.970  0.2708 -0.5124  0.1338
  814MOL0     C 9782   6.197  10.894  12.997  0.0052 -0.6037  0.8646
  814MOL0     C 9783   6.190  10.963  13.134 -0.0647 -0.2650  0.7463
  814MOL0     C 9784   6.106  10.915  12.895 -0.1743  0.1810 -0.1849
  814MOL0     C 9785   5.969  10.980  12.918 -0.1802  0.0691  0.6812
  814MOL0     O 9786   5.887  10.981  12.806  0.1020 -0.6395 -0.5511
  814MOL0     C 9787   5.769  11.061  12.802  0.1818  1.6796  1.0223
  814MOL0     C 9788   5.677  11.051  12.899 -0.3760  0.2322 -0.3771
  814MOL0     C 9789   5.569  11.144  12.902 -0.2276  0.4088  0.8936
  814MOL0     C 9790   5.561  11.248  12.806  0.2947 -0.0693 -0.0299
  814MOL0     O 9791   5.454  11.332  12.829  0.8405  0.6689  0.5069
  814MOL0     C 9792   5.456  11.454  12.765  0.1687  0.4989  0.2174
  814MOL0     C 9793   5.363  11.553  12.830 -0.2151 -0.4270  0.7155
  814MOL0     C 9794   5.417  11.698  12.814  0.2350  0.2084 -0.4872
  814MOL0     C 9795   5.568  11.720  12.846 -0.5284  0.1373  0.1759
  814MOL0     C 9796   5.606  11.876  12.844 -0.4127 -0.0945  0.1949
  814MOL0     C 9797   5.758  11.901  12.858  0.1601  1.4451 -0.1405
  814MOL0     C 9798   5.832  11.900  12.727  0.0043  0.1402  0.0157
  814MOL0     C 9799   5.945  11.805  12.735  0.2913  0.6021  0.2724
  814MOL0    Cl 9800   6.049  11.867  12.865  0.4192  0.1928  0.4839
  814MOL0     C 9801   5.666  11.262  12.714  0.1467  0.3830 -0.2806
  814MOL0     C 9802   5.775  11.169  12.718  0.1521 -0.4329 -0.1241
  814MOL0     O 9803   5.954  11.057  13.013  0.4566 -0.0336 -0.1322
  814MOL0     C 9804   6.142  10.864  12.761  0.3784 -0.7844 -0.2881
  814MOL0     C 9805   6.262  10.799  12.739 -1.0612  0.2477 -0.0703
  814MOL0     N 9806   6.795  10.297  12.405  0.1219  0.1305  0.5465
  814MOL0     N 9807   6.884  10.292  12.307  0.1234 -0.4859  0.1450
  814MOL0     C 9808   6.909  10.952  11.573 -0.3747  0.5010  0.2450
  814MOL0     C 9809   6.850  11.067  11.543  0.3591 -0.6489 -0.2026
  814MOL0     C 9810   6.637  11.344  11.303 -0.2533  0.4921  0.5194
  814MOL0     C 9811   6.636  11.393  11.175  0.7619 -1.5416 -0.0591
  814MOL0     C 9812   6.565  11.511  11.154  0.0812  0.5243 -0.4191
  814MOL0     C 9813   6.503  11.588  11.258 -0.9096 -0.4664 -0.1839
  814MOL0     O 9814   6.462  11.720  11.225 -0.5174  0.5067 -0.4152
  814MOL0     C 9815   6.334  11.749  11.292 -0.0392  0.1467  0.8543
  814MOL0     C 9816   6.284  11.890  11.250 -1.1799 -0.0324 -0.2759
  814MOL0     C 9817   6.202  11.895  11.109 -0.7657  0.2699  0.3492
  814MOL0     C 9818   6.059  11.827  11.104 -0.2770  0.6877  0.8542
  814MOL0     C 9819   5.954  11.932  11.118 -0.0767  0.1717  0.8480
  814MOL0     C 9820   5.885  12.037  11.127 -0.5578 -0.4965 -0.1870
  814MOL0     C 9821   6.509  11.532  11.390 -0.4741  0.4268  0.0236
  814MOL0     C 9822   6.580  11.420  11.415  0.0949  0.1261  1.0967
  814MOL0     H 9823   7.100  11.218  11.371  3.2116 -0.1500  4.8078
  814MOL0     H 9824   7.201  11.004  11.404  1.3831  2.7052  0.2161
  814MOL0     H 9825   7.283  10.711  11.626 -2.3226 -0.6350  0.7843
  814MOL0     H 9826   7.306  10.842  11.518 -2.6759  3.5178 -0.9112
  814MOL0     H 9827   7.372  10.871  11.743  0.1224 -1.1612 -0.1971
  814MOL0     H 9828   7.258  11.001  11.688  0.5649  0.5940  1.0772
  814MOL0     H 9829   7.210  10.962  11.916  1.5400 -0.1757 -0.9216
  814MOL0     H 9830   7.074  10.906  11.817  0.9623  0.5344 -2.1627
  814MOL0     H 9831   7.151  10.693  11.832 -0.4175 -0.8549  0.3658
  814MOL0     H 9832   7.298  10.728  11.932 -2.3037 -3.8538  5.4663
  814MOL0     H 9833   7.160  10.830  12.104  1.1429  1.5798 -2.0339
  814MOL0     H 9834   7.025  10.756  12.037  0.8309  2.4931 -2.0655
  814MOL0     H 9835   7.165  10.537  12.005 -2.8771  1.5128  0.0236
  814MOL0     H 9836   7.282  10.608  12.117  1.0941  3.1185 -3.6797
  814MOL0     H 9837   7.104  10.606  12.305 -0.4843  0.2617 -0.0703
  814MOL0     H 9838   6.982  10.576  12.182 -0.6457  0.8621  4.1751
  814MOL0     H 9839   7.189  10.398  12.297  1.1463  2.9987 -2.1493
  814MOL0     H 9840   7.114  10.340  12.162  1.6923  1.0633  0.6390
  814MOL0     H 9841   7.038  10.487  12.519  1.2016 -2.4305  0.5383
  814MOL0     H 9842   6.757  10.336  12.693  1.8176  0.5449  1.3016
  814MOL0     H 9843   6.859  10.479  12.705 -1.6204  2.2954 -0.1668
  814MOL0     H 9844   6.590  10.436  12.575 -0.9609  0.2792 -0.3674
  814MOL0     H 9845   6.690  10.572  12.526 -0.0777  0.1116 -0.4488
  814MOL0     H 9846   6.724  10.657  12.760  0.9962 -0.7563  0.1743
  814MOL0     H 9847   6.644  10.517  12.815  2.2052 -3.0656 -1.4333
  814MOL0     H 9848   6.443  10.584  12.675  0.0248  0.3425  0.8933
  814MOL0     H 9849   6.531  10.746  12.643  2.9391 -1.0164 -2.1863
  814MOL0     H 9850   6.377  10.788  13.052 -0.4062 -0.5903  0.6677
  814MOL0     H 9851   6.275  10.932  13.195 -0.8555  2.7324  3.6761
  814MOL0     H 9852   6.206  11.070  13.118  0.9567 -0.2663  1.7048
  814MOL0     H 9853   6.090  10.937  13.171 -0.3581 -0.3307 -0.0681
  814MOL0     H 9854   5.690  10.970  12.971  0.3694  0.9927  0.3674
  814MOL0     H 9855   5.488  11.130  12.972 -2.3791  2.8003 -0.9097
  814MOL0     H 9856   5.558  11.494  12.765 -0.0997  1.3210  2.5205
  814MOL0     H 9857   5.415  11.437  12.665 -2.8352  1.1763  1.2228
  814MOL0     H 9858   5.261  11.542  12.793  0.3088 -0.2945 -0.8213
  814MOL0     H 9859   5.361  11.535  12.938  1.4189 -0.8758  0.6982
  814MOL0     H 9860   5.355  11.763  12.876 -1.5279  2.1771 -4.0547
  814MOL0     H 9861   5.405  11.731  12.711  1.7208  1.7429 -0.2165
  814MOL0     H 9862   5.596  11.670  12.939  0.0901  1.5066  0.7716
  814MOL0     H 9863   5.631  11.671  12.771  1.0956 -1.3712  2.3999
  814MOL0     H 9864   5.567  11.931  12.930 -1.7447  2.3405 -1.8053
  814MOL0     H 9865   5.561  11.929  12.759 -1.1555 -0.1410  0.5585
  814MOL0     H 9866   5.763  12.005  12.892 -0.5027  1.2134  0.7162
  814MOL0     H 9867   5.802  11.843  12.940  1.8289  1.0896 -1.2436
  814MOL0     H 9868   5.865  12.003  12.709 -1.5805  0.1821 -3.3790
  814MOL0     H 9869   5.772  11.869  12.641  1.6489  0.7837 -1.4462
  814MOL0     H 9870   5.995  11.798  12.638 -0.6054  1.1838 -0.2530
  814MOL0     H 9871   5.912  11.701  12.749 -1.3875  0.9805 -0.5382
  814MOL0     H 9872   5.666  11.336  12.635  2.5296 -0.5874 -1.2526
  814MOL0     H 9873   5.862  11.177  12.654  1.4520  2.0449  1.7806
  814MOL0     H 9874   6.068  10.880  12.683  0.7400 -1.1422 -0.7155
  814MOL0     H 9875   6.287  10.777  12.636 -2.4317  4.8111 -1.6423
  814MOL0     H 9876   6.856  10.875  11.629  1.1580 -2.3141 -1.8837
  814MOL0     H 9877   6.746  11.084  11.572  1.2716  0.9686  2.5099
  814MOL0     H 9878   6.698  11.351  11.097  1.3626 -1.5784  0.4291
  814MOL0     H 9879   6.575  11.540  11.049  3.2112 -1.2446 -0.7554
  814MOL0     H 9880   6.264  11.676  11.249  0.2040 -0.5472  1.6089
  814MOL0     H 9881   6.330  11.733  11.400  2.1982  1.4966  1.2003
  814MOL0     H 9882   6.372  11.956  11.243 -2.5768  2.1241  1.1620
  814MOL0     H 9883   6.218  11.939  11.323  1.7521  1.4076  1.5988
  814MOL0     H 9884   6.268  11.843  11.039  2.5856  1.4012  2.4105
  814MOL0     H 9885   6.196  12.001  11.081  0.0908 -0.4120 -2.7864
  814MOL0     H 9886   6.056  11.750  11.181  0.5264 -1.7390 -1.3906
  814MOL0     H 9887   6.044  11.779  11.007 -0.7166 -0.6670  1.5733
  814MOL0     H 9888   5.829  12.128  11.133 -0.2224 -0.3898  2.7627
  814MOL0     H 9889   6.474  11.590  11.474 -1.2756  0.7892 -0.5463
  814MOL0     H 9890   6.592  11.390  11.519 -2.9872  1.3741  1.9108
  815MOL0     O 9891   7.133  11.062   9.627 -0.2992  0.1485  0.1798
  815MOL0     C 9892   7.063  11.154   9.599 -0.3582 -1.5185  1.1824
  815MOL0     O 9893   6.963  11.212   9.674 -0.1704  0.5763  0.3232
  815MOL0     C 9894   6.948  11.167   9.801 -0.2011 -0.7929 -1.0503
  815MOL0     C 9895   6.892  11.046   9.838 -0.3201  1.1425  0.1744
  815MOL0     C 9896   6.860  11.010   9.972  0.6722 -0.9167 -0.4233
  815MOL0     C 9897   6.880  11.107  10.072  0.6643  0.6961 -0.7506
  815MOL0     O 9898   6.858  11.073  10.205 -0.2943 -0.0123  0.1565
  815MOL0     C 9899   6.876  10.935  10.240 -0.6817 -0.1461  0.1555
  815MOL0     C 9900   6.880  10.938  10.393  0.0210  0.2730  0.6254
  815MOL0     C 9901   6.743  10.955  10.455  0.1842 -1.0969  0.4475
  815MOL0     C 9902   6.627  10.905  10.370  0.2013 -0.8343  0.6205
  815MOL0     C 9903   6.612  10.751  10.379  0.4487  0.2706 -0.0986
  815MOL0     C 9904   6.530  10.691  10.259  1.1588 -0.5125  0.5762
  815MOL0     C 9905   6.542  10.539  10.249  0.0038 -0.5288  1.3418
  815MOL0     C 9906   6.473  10.475  10.371  0.2709  0.6303  1.2549
  815MOL0     N 9907   6.321  10.506  10.378 -0.4695 -0.3180  1.0867
  815MOL0     C 9908   6.235  10.466  10.285 -0.4302 -0.7608  1.0209
  815MOL0     C 9909   6.117  10.526  10.314 -0.1376  0.1277 -0.5781
  815MOL0     C 9910   5.983  10.503  10.240 -0.3587  0.6570 -0.7915
  815MOL0     C 9911   5.942  10.371  10.175 -1.1764 -0.1108 -0.6728
  815MOL0     C 9912   5.815  10.372  10.084 -0.4852  0.4738  0.1108
  815MOL0     C 9913   5.827  10.458   9.954 -0.2251  0.6398  0.4800
  815MOL0     O 9914   5.946  10.427   9.881  0.4245  0.5490  0.8515
  815MOL0     C 9915   5.958  10.319   9.798 -0.2596 -0.0674  0.5090
  815MOL0     C 9916   5.883  10.313   9.681  0.0969 -0.5721 -0.0685
  815MOL0     C 9917   5.904  10.206   9.598 -0.1539 -0.3930  0.0078
  815MOL0     C 9918   5.815  10.198   9.485 -0.1989 -1.0337  1.7245
  815MOL0     C 9919   6.007  10.107   9.615 -0.5360 -0.2666 -0.1726
  815MOL0     C 9920   6.050  10.004   9.518  0.6084  0.2226 -0.3402
  815MOL0     O 9921   6.179   9.970   9.533 -0.0047 -0.0348 -0.2716
  815MOL0     C 9922   6.213   9.871   9.449  0.5765  0.3577  0.1544
  815MOL0     C 9923   6.255   9.746   9.507  0.2964 -0.5937  0.1629
  815MOL0     C 9924   6.271   9.634   9.428 -0.2973  0.1612  0.0829
  815MOL0     C 9925   6.257   9.643   9.293 -0.4284  0.0884 -0.3249
  815MOL0     O 9926   6.283   9.524   9.227  0.3848  0.3593 -0.6525
  815MOL0     C 9927   6.236   9.511   9.092  0.0775 -0.0242  0.0767
  815MOL0     C 9928   6.334   9.560   8.977  0.0798  0.0213 -0.3045
  815MOL0     C 9929   6.290   9.494   8.846 -0.4919  0.2068 -0.5850
  815MOL0     C 9930   6.139   9.520   8.806  0.2702 -0.1319 -0.3212
  815MOL0     C 9931   6.111   9.658   8.748  0.6412 -0.6291 -0.9389
  815MOL0     C 9932   6.201   9.705   8.635 -0.5555  0.0114  0.2119
  815MOL0     C 9933   6.157   9.837   8.572  0.1097 -0.0914  0.4771
  815MOL0     C 9934   6.235   9.876   8.441 -0.0575  0.5137  1.1839
  815MOL0    Cl 9935   6.386   9.938   8.506  0.0604  0.0359 -0.5245
  815MOL0     C 9936   6.214   9.763   9.232 -0.2806  1.5029  0.7310
  815MOL0     C 9937   6.194   9.876   9.316 -0.2197  1.3667  1.4370
  815MOL0     O 9938   5.961   9.950   9.453 -0.6365  0.4408 -0.0897
  815MOL0     C 9939   6.080  10.126   9.733  0.6173 -0.4337  0.8278
  815MOL0     C 9940   6.058  10.230   9.821  0.5080  0.3866  0.1515
  815MOL0     N 9941   6.141  10.603  10.429  0.3901  0.8983  0.5935
  815MOL0     N 9942   6.261  10.601  10.456 -0.1975 -0.3026  0.4072
  815MOL0     C 9943   6.944  11.225  10.041  0.3319  0.2946 -0.1107
  815MOL0     C 9944   6.983  11.255   9.906  0.2539 -0.1400 -0.4383
  815MOL0     C 9945   7.093  11.215   9.476 -0.9742 -0.1665 -0.1094
  815MOL0     C 9946   7.080  11.353   9.455 -0.3444  0.7733 -0.5995
  815MOL0     C 9947   7.104  11.403   9.324 -0.4162 -0.1824  0.1602
  815MOL0     C 9948   7.128  11.313   9.214 -0.5375 -0.0989 -0.3592
  815MOL0     O 9949   7.163  11.362   9.087  0.3989 -0.2132 -0.7910
  815MOL0     C 9950   7.178  11.502   9.062 -0.6195 -0.3797  0.4299
  815MOL0     C 9951   7.191  11.518   8.912  0.3265 -0.2448  0.6033
  815MOL0     C 9952   7.095  11.433   8.836 -0.1516  0.1985  0.6446
  815MOL0     C 9953   7.081  11.483   8.694  0.1723  1.3804  0.0466
  815MOL0     C 9954   7.213  11.485   8.619 -1.0473  0.4633 -0.6756
  815MOL0     C 9955   7.322  11.483   8.564  0.1624  0.9908  0.1539
  815MOL0     C 9956   7.154  11.177   9.243 -0.4601  0.7666  1.4293
  815MOL0     C 9957   7.142  11.134   9.373  0.3914  0.8730 -1.1329
  815MOL0     H 9958   6.863  10.984   9.753  2.1338  0.2577 -0.0933
  815MOL0     H 9959   6.812  10.915   9.994  1.3401 -0.5285  3.2822
  815MOL0     H 9960   6.805  10.872  10.186  1.2712  0.9030 -4.0368
  815MOL0     H 9961   6.973  10.905  10.200 -1.6366 -2.1031 -0.8368
  815MOL0     H 9962   6.923  10.845  10.433  3.6383  0.3700 -2.4617
  815MOL0     H 9963   6.941  11.025  10.419 -0.8881  2.5341 -3.8384
  815MOL0     H 9964   6.749  10.887  10.540  1.6048 -0.3160  1.0051
  815MOL0     H 9965   6.719  11.052  10.499 -1.8911 -0.4896 -1.7744
  815MOL0     H 9966   6.542  10.928  10.434  3.0762 -0.8495  4.8634
  815MOL0     H 9967   6.617  10.955  10.273 -1.1837 -1.3413  0.4808
  815MOL0     H 9968   6.705  10.693  10.372  1.0682  0.9882  1.7302
  815MOL0     H 9969   6.560  10.720  10.469 -2.6616  1.3490 -1.3956
  815MOL0     H 9970   6.424  10.711  10.278  0.6749 -2.4471  0.0971
  815MOL0     H 9971   6.560  10.737  10.164 -0.8145 -0.7764 -0.2272
  815MOL0     H 9972   6.483  10.501  10.164  0.3519  2.1416 -0.1939
  815MOL0     H 9973   6.648  10.513  10.251  0.2562  0.5031  2.5455
  815MOL0     H 9974   6.524  10.500  10.464 -1.2846 -0.6065  2.5100
  815MOL0     H 9975   6.485  10.366  10.365  0.0197  0.6172  0.9782
  815MOL0     H 9976   6.249  10.400  10.199  2.0228 -1.5779  1.9892
  815MOL0     H 9977   5.915  10.531  10.321  0.8545 -0.0742  0.5402
  815MOL0     H 9978   5.986  10.582  10.164  1.2499  0.5647 -0.8764
  815MOL0     H 9979   5.920  10.298  10.253  2.8086 -1.0657 -0.2177
  815MOL0     H 9980   6.022  10.316  10.124 -1.3490 -0.8440 -0.1711
  815MOL0     H 9981   5.723  10.391  10.141  0.6500  1.4012  1.7064
  815MOL0     H 9982   5.798  10.274  10.036 -4.9955  1.1106 -0.0713
  815MOL0     H 9983   5.835  10.562   9.987  0.8158  0.8037 -0.2524
  815MOL0     H 9984   5.737  10.454   9.891  0.5830 -1.3570 -0.6193
  815MOL0     H 9985   5.800  10.382   9.689 -2.8225 -3.8999  1.4370
  815MOL0     H 9986   5.874  10.209   9.394 -1.2863  2.5343  1.2933
  815MOL0     H 9987   5.759  10.104   9.475 -3.6039  0.8575  1.4847
  815MOL0     H 9988   5.739  10.277   9.492  0.5684 -0.4040  3.4097
  815MOL0     H 9989   6.265   9.735   9.615 -0.9993  1.0950  0.4940
  815MOL0     H 9990   6.283   9.532   9.462 -1.1416 -0.0061 -0.1020
  815MOL0     H 9991   6.210   9.407   9.070 -1.9471  0.6352 -0.8701
  815MOL0     H 9992   6.142   9.566   9.081 -0.6077 -0.6585  2.3327
  815MOL0     H 9993   6.327   9.669   8.981 -0.9473 -0.0471  2.7989
  815MOL0     H 9994   6.440   9.534   8.989  0.2735  0.8668 -0.1393
  815MOL0     H 9995   6.322   9.389   8.846  3.1263  1.1849 -0.7977
  815MOL0     H 9996   6.357   9.531   8.769  0.9469  1.9804  1.4131
  815MOL0     H 9997   6.101   9.443   8.738  0.7907 -3.1262  2.5541
  815MOL0     H 9998   6.077   9.507   8.895  0.0569  2.4438 -0.0133
  815MOL0     H 9999   6.125   9.722   8.836 -3.8427 -3.7168  2.4601
  815MOL0     H10000   6.006   9.672   8.723  0.9501  1.1577 -1.3701
  815MOL0     H10001   6.302   9.725   8.674 -0.7751  3.8963 -0.7853
  815MOL0     H10002   6.193   9.629   8.557 -2.1807 -0.7775  1.0961
  815MOL0     H10003   6.170   9.913   8.649 -2.1189 -2.5424  3.5612
  815MOL0     H10004   6.052   9.833   8.539  0.0645  1.4516  0.3813
  815MOL0     H10005   6.200   9.956   8.375  1.5024 -0.3439 -0.7810
  815MOL0     H10006   6.246   9.789   8.376 -1.5679  0.2131  1.2864
  815MOL0     H10007   6.192   9.774   9.126  0.9654  0.2923  0.3142
  815MOL0     H10008   6.159   9.967   9.270 -1.2571 -0.6016 -2.0761
  815MOL0     H10009   6.168  10.068   9.757  2.6439  3.1447  3.0993
  815MOL0     H10010   6.121  10.240   9.909  1.2041 -1.7635 -0.0438
  815MOL0     H10011   6.985  11.296  10.112  2.5594  1.2757 -2.2210
  815MOL0     H10012   7.042  11.344   9.885  1.4194 -1.4689 -3.2986
  815MOL0     H10013   7.048  11.429   9.525 -0.6155  0.4381 -0.3572
  815MOL0     H10014   7.103  11.510   9.310  0.9188  0.4706  3.9445
  815MOL0     H10015   7.087  11.544   9.105 -1.1337  0.2738 -1.2510
  815MOL0     H10016   7.266  11.544   9.113 -0.4604 -1.6600  1.2645
  815MOL0     H10017   7.292  11.487   8.884 -0.3371 -0.5132 -1.6824
  815MOL0     H10018   7.184  11.620   8.873 -3.2668 -0.4055  0.5200
  815MOL0     H10019   6.995  11.429   8.880 -0.4532 -0.9121 -0.1085
  815MOL0     H10020   7.123  11.328   8.836  3.6327  1.0691  0.3116
  815MOL0     H10021   7.021  11.575   8.698  1.5633  2.3159 -0.0248
  815MOL0     H10022   7.016  11.408   8.647 -0.4906 -0.8616  4.1024
  815MOL0     H10023   7.418  11.495   8.519  0.6145 -0.6993  0.5968
  815MOL0     H10024   7.193  11.111   9.166  0.9946 -1.0712  3.6116
  815MOL0     H10025   7.162  11.029   9.390 -1.5506  0.6421 -0.0151
  816MOL0     O10026  10.966   2.142  10.561 -0.3561 -0.4450  0.2876
  816MOL0     C10027  10.963   2.028  10.590  0.1927  0.5535  0.5057
  816MOL0     O10028  10.898   1.937  10.518  0.1477  0.3891  1.0175
  816MOL0     C10029  10.831   1.987  10.405 -1.0972  0.9065 -0.5831
  816MOL0     C10030  10.889   1.998  10.281  1.2122  0.2162  0.4340
  816MOL0     C10031  10.817   2.053  10.179 -1.0024 -0.1844 -0.0436
  816MOL0     C10032  10.687   2.093  10.197  0.1299  0.0606 -0.2043
  816MOL0     O10033  10.606   2.155  10.102 -1.0113  0.0932 -0.0305
  816MOL0     C10034  10.673   2.210   9.986  0.8963 -1.3960 -0.4896
  816MOL0     C10035  10.570   2.215   9.880  0.0561  0.5613  0.3860
  816MOL0     C10036  10.475   2.328   9.902 -0.3561  0.7736 -0.0610
  816MOL0     C10037  10.378   2.343   9.786 -0.0995  0.6528 -0.6106
  816MOL0     C10038  10.303   2.484   9.792  0.1009  0.5121 -0.5008
  816MOL0     C10039  10.165   2.465   9.715 -0.6248 -0.3703 -0.8161
  816MOL0     C10040  10.085   2.586   9.731  0.4111 -1.3500 -1.1659
  816MOL0     C10041  10.010   2.593   9.869 -0.2800 -0.2166  0.0149
  816MOL0     N10042   9.928   2.724   9.866 -0.3107  0.7558 -0.8834
  816MOL0     C10043   9.892   2.812   9.762 -0.0377 -0.0724  0.0782
  816MOL0     C10044   9.813   2.909   9.822 -0.4465  0.1821 -0.6454
  816MOL0     C10045   9.748   3.025   9.742  0.6788  0.7152 -0.0252
  816MOL0     C10046   9.593   3.042   9.753 -0.7543 -0.5933 -0.2231
  816MOL0     C10047   9.534   3.139   9.656  0.4616 -1.1776 -0.0852
  816MOL0     C10048   9.398   3.190   9.693  0.4526 -0.2019  0.9823
  816MOL0     O10049   9.305   3.080   9.683 -0.2445 -0.1739 -0.3288
  816MOL0     C10050   9.180   3.107   9.730 -0.6266 -0.8162 -1.3290
  816MOL0     C10051   9.105   3.221   9.694  0.2940 -0.0388  1.0477
  816MOL0     C10052   8.968   3.237   9.727  0.5900 -0.4177 -0.4153
  816MOL0     C10053   8.900   3.371   9.703 -0.0424 -1.2551  0.0835
  816MOL0     C10054   8.912   3.141   9.819  0.4586 -0.2845  0.3799
  816MOL0     C10055   8.774   3.155   9.888 -0.3015  0.4475  0.5688
  816MOL0     O10056   8.687   3.054   9.859 -0.4691  0.5159  0.7044
  816MOL0     C10057   8.545   3.066   9.871  1.0138  0.0150 -0.0463
  816MOL0     C10058   8.470   3.160   9.939  0.0904  0.4151 -0.1453
  816MOL0     C10059   8.331   3.157   9.952  0.3555 -0.0918 -0.8059
  816MOL0     C10060   8.267   3.060   9.875  0.0884 -0.2085 -0.8546
  816MOL0     O10061   8.138   3.034   9.884 -0.6019  0.2655 -0.0788
  816MOL0     C10062   8.057   3.126   9.970 -0.3349  0.4841  0.1232
  816MOL0     C10063   8.070   3.097  10.122 -0.4080  0.2799  0.1460
  816MOL0     C10064   7.943   3.116  10.202 -0.2681 -0.3601  0.3193
  816MOL0     C10065   7.885   3.257  10.185  0.4068  0.6769 -0.2512
  816MOL0     C10066   7.777   3.287  10.295 -0.3312  0.8509  0.4441
  816MOL0     C10067   7.704   3.415  10.256  1.4322  0.4024 -0.0760
  816MOL0     C10068   7.605   3.456  10.366  0.4727  0.0216 -0.0836
  816MOL0     C10069   7.512   3.581  10.320 -0.7121  0.1433  0.0858
  816MOL0    Cl10070   7.363   3.523  10.274  0.0119  0.0681  0.0669
  816MOL0     C10071   8.333   2.961   9.804  0.5571 -0.5032  0.2442
  816MOL0     C10072   8.474   2.959   9.815  1.1453 -1.5000 -0.3725
  816MOL0     O10073   8.750   3.240   9.974  0.2407  0.2104  0.9001
  816MOL0     C10074   8.993   3.043   9.869  0.2766  0.3204 -0.3667
  816MOL0     C10075   9.124   3.022   9.833  0.8835  0.8561  0.2543
  816MOL0     N10076   9.803   2.874   9.956  0.6275  0.0797 -0.7243
  816MOL0     N10077   9.865   2.762   9.983 -0.6429 -0.4143  0.6287
  816MOL0     C10078  10.634   2.082  10.321  0.8560 -0.8470  0.7909
  816MOL0     C10079  10.695   2.017  10.421  0.0995  0.9655 -0.4523
  816MOL0     C10080  11.040   1.978  10.702  0.1796 -0.0658  0.1202
  816MOL0     C10081  11.032   1.841  10.741  0.1143  0.0728  0.8694
  816MOL0     C10082  11.101   1.805  10.859  0.3071  0.1105 -0.9632
  816MOL0     C10083  11.178   1.897  10.928 -0.1396  0.1785  0.1069
  816MOL0     O10084  11.252   1.856  11.033 -0.5870  0.1356  0.4018
  816MOL0     C10085  11.177   1.840  11.162  0.3030  0.8886  0.7276
  816MOL0     C10086  11.220   1.704  11.233  0.8244 -0.0117  0.7637
  816MOL0     C10087  11.230   1.571  11.156 -0.5443  0.6460 -0.3152
  816MOL0     C10088  11.084   1.501  11.129  0.6373  0.0244 -0.1246
  816MOL0     C10089  11.060   1.384  11.217 -0.6536  1.2816  0.1818
  816MOL0     C10090  11.050   1.274  11.281 -0.0183  0.0319  0.4310
  816MOL0     C10091  11.195   2.023  10.875 -0.4795  0.0621  0.2039
  816MOL0     C10092  11.117   2.068  10.771 -0.4943 -0.3297  0.4127
  816MOL0     H10093  10.989   1.973  10.246  0.5981  0.1222 -1.3272
  816MOL0     H10094  10.868   2.071  10.085 -1.8616  1.6351 -0.1955
  816MOL0     H10095  10.714   2.310  10.004 -3.9296  0.4539  1.8067
  816MOL0     H10096  10.752   2.144   9.949  1.5224  0.7862 -3.3767
  816MOL0     H10097  10.613   2.211   9.780 -1.1786  0.9739 -0.1727
  816MOL0     H10098  10.511   2.123   9.881 -1.7312  1.5499 -2.3314
  816MOL0     H10099  10.432   2.308  10.001  0.8656  1.2626  0.5862
  816MOL0     H10100  10.533   2.420   9.903 -0.0087  0.6475 -2.5639
  816MOL0     H10101  10.431   2.324   9.692  2.0283 -1.5608  0.9340
  816MOL0     H10102  10.307   2.260   9.797  0.3000  0.0340 -2.2732
  816MOL0     H10103  10.268   2.501   9.894  4.5651  1.0442  1.1978
  816MOL0     H10104  10.367   2.567   9.760 -1.0300  2.0481  1.0999
  816MOL0     H10105  10.200   2.437   9.615 -0.3453 -0.6493 -0.6424
  816MOL0     H10106  10.116   2.374   9.752  1.2195 -1.7872 -1.6517
  816MOL0     H10107  10.150   2.674   9.724 -1.6300  0.1347 -2.6069
  816MOL0     H10108  10.005   2.601   9.658  0.0885  2.6880 -0.2482
  816MOL0     H10109  10.082   2.588   9.951 -1.2888  1.7035  1.0739
  816MOL0     H10110   9.944   2.507   9.882 -0.4529 -0.3878 -1.7387
  816MOL0     H10111   9.918   2.811   9.657  3.3126 -2.5827  0.7579
  816MOL0     H10112   9.789   3.115   9.788 -2.3784  0.8611  2.7462
  816MOL0     H10113   9.788   3.028   9.640 -0.4872  1.2107 -0.4776
  816MOL0     H10114   9.572   3.079   9.854 -0.8645  2.2884 -1.2044
  816MOL0     H10115   9.543   2.947   9.730 -1.7528  0.2860 -1.9305
  816MOL0     H10116   9.531   3.093   9.557  1.4483 -2.0705  0.2869
  816MOL0     H10117   9.609   3.220   9.651  0.8631 -1.6039 -1.5327
  816MOL0     H10118   9.374   3.265   9.618  0.9215 -3.1536 -2.3915
  816MOL0     H10119   9.404   3.223   9.798 -1.8338  2.5033  0.4037
  816MOL0     H10120   9.145   3.292   9.622 -1.1882 -2.0411 -1.9503
  816MOL0     H10121   8.852   3.359   9.605 -1.2349 -0.1800  0.5188
  816MOL0     H10122   8.826   3.400   9.778  0.8752  1.1872  0.1369
  816MOL0     H10123   8.966   3.458   9.693  0.7182 -1.9692 -1.7316
  816MOL0     H10124   8.522   3.226  10.008  0.6016  2.5381 -2.4289
  816MOL0     H10125   8.281   3.236  10.005 -1.4573  0.4866 -3.2011
  816MOL0     H10126   8.081   3.228   9.937  1.8163  0.2717  0.8662
  816MOL0     H10127   7.954   3.098   9.946 -0.3165  2.1231 -2.1001
  816MOL0     H10128   8.119   3.001  10.140  0.9034  1.1057  1.1403
  816MOL0     H10129   8.149   3.165  10.155 -0.4269 -1.0271  3.1582
  816MOL0     H10130   7.978   3.093  10.303  1.6017  0.3532 -0.1174
  816MOL0     H10131   7.866   3.045  10.170 -1.6958  1.2341  0.0351
  816MOL0     H10132   7.953   3.339  10.205 -0.0898  1.6519 -2.3115
  816MOL0     H10133   7.842   3.258  10.084  0.3968 -0.8960 -0.2885
  816MOL0     H10134   7.813   3.295  10.398 -3.2879  1.9745  1.5152
  816MOL0     H10135   7.701   3.212  10.274  1.7116 -0.2247 -4.6124
  816MOL0     H10136   7.772   3.497  10.234  0.1504  1.9976  1.5747
  816MOL0     H10137   7.644   3.384  10.170  1.6384 -3.5264  0.9998
  816MOL0     H10138   7.670   3.500  10.442  1.2517 -0.5824 -0.3760
  816MOL0     H10139   7.561   3.371  10.419  1.4843  1.8566  4.0657
  816MOL0     H10140   7.566   3.632  10.240  0.5356 -4.4582 -2.3540
  816MOL0     H10141   7.513   3.644  10.409 -1.7477 -0.4975  0.5623
  816MOL0     H10142   8.277   2.893   9.741 -0.6507 -0.4452  1.2149
  816MOL0     H10143   8.518   2.878   9.759 -0.2881 -2.2701 -0.4175
  816MOL0     H10144   8.971   2.964   9.939 -2.5795 -1.3185 -2.8281
  816MOL0     H10145   9.177   2.943   9.885  0.7902  0.0302 -0.8398
  816MOL0     H10146  10.534   2.125  10.328  0.3310 -2.1111  1.1627
  816MOL0     H10147  10.638   1.996  10.511  0.6302 -0.3611 -0.4049
  816MOL0     H10148  10.988   1.768  10.674 -0.5814 -0.6504  2.0712
  816MOL0     H10149  11.096   1.703  10.894  0.8525  0.4909  0.2932
  816MOL0     H10150  11.198   1.923  11.230  1.8961  2.0559 -1.1122
  816MOL0     H10151  11.070   1.841  11.141  0.7152 -2.3570 -2.4909
  816MOL0     H10152  11.145   1.696  11.312  1.2084 -2.0868  0.9692
  816MOL0     H10153  11.321   1.724  11.269  2.6276  0.7000 -3.9738
  816MOL0     H10154  11.282   1.496  11.217  0.1260 -0.3448 -2.0446
  816MOL0     H10155  11.284   1.593  11.064 -2.2777  0.7482 -1.3642
  816MOL0     H10156  11.076   1.455  11.030 -2.7254  2.0104 -0.9643
  816MOL0     H10157  11.002   1.573  11.142 -2.4588 -3.2420  0.1788
  816MOL0     H10158  11.059   1.179  11.331  2.1917 -2.3541 -3.9333
  816MOL0     H10159  11.262   2.096  10.919  0.5337  2.1517 -4.2482
  816MOL0     H10160  11.118   2.172  10.738 -3.5562  0.0698  1.2971
  817MOL0     O10161   4.007   7.408   7.922  0.5869 -0.4257  0.8843
  817MOL0     C10162   3.894   7.432   7.889  0.2095 -0.5247  0.4579
  817MOL0     O10163   3.821   7.365   7.794 -0.2852 -0.3153  0.7686
  817MOL0     C10164   3.875   7.250   7.750 -0.8386 -1.4295 -0.5703
  817MOL0     C10165   3.975   7.237   7.653  0.6172  0.5836  0.8486
  817MOL0     C10166   3.997   7.105   7.603  0.2221 -0.3343  0.0917
  817MOL0     C10167   3.933   6.990   7.658 -0.5858  0.4894  1.1712
  817MOL0     O10168   3.968   6.858   7.620 -0.1543 -0.3195  0.6707
  817MOL0     C10169   4.106   6.839   7.579 -0.7730  0.4118  0.1206
  817MOL0     C10170   4.139   6.691   7.615 -0.1364 -0.1491  0.4688
  817MOL0     C10171   4.131   6.654   7.763 -0.0266 -0.5545 -0.1416
  817MOL0     C10172   4.274   6.670   7.814  0.0689  0.4230  0.3850
  817MOL0     C10173   4.281   6.596   7.948  0.6869 -0.7008 -0.3611
  817MOL0     C10174   4.227   6.681   8.064  0.4295  0.1123  0.0752
  817MOL0     C10175   4.273   6.625   8.195  1.2423 -0.6452  0.4227
  817MOL0     C10176   4.201   6.701   8.303  0.1726  0.4524 -0.4957
  817MOL0     N10177   4.246   6.659   8.437  0.0159 -0.2827  0.2166
  817MOL0     C10178   4.205   6.726   8.558  0.3611  0.3461 -0.2220
  817MOL0     C10179   4.281   6.673   8.659  0.2967  0.1219  0.8454
  817MOL0     C10180   4.270   6.711   8.801 -0.7088 -0.1536 -1.2117
  817MOL0     C10181   4.378   6.801   8.836  0.3626 -0.3908  0.8884
  817MOL0     C10182   4.376   6.937   8.756  0.0555 -0.6006 -0.1115
  817MOL0     C10183   4.483   7.050   8.777 -0.7884 -0.2440 -0.0932
  817MOL0     O10184   4.616   6.999   8.810 -0.3658  0.5395  0.6366
  817MOL0     C10185   4.632   6.954   8.936 -0.7272 -0.8587  0.4047
  817MOL0     C10186   4.581   7.015   9.052 -0.0357 -0.3928  0.5158
  817MOL0     C10187   4.585   6.950   9.178 -0.7424  0.2762  0.5227
  817MOL0     C10188   4.519   7.026   9.290  0.1189  0.0517 -0.6281
  817MOL0     C10189   4.666   6.835   9.199  0.6170  0.3071  1.0716
  817MOL0     C10190   4.676   6.760   9.330  0.5260 -0.7359  0.7114
  817MOL0     O10191   4.774   6.669   9.343 -0.4932  0.4347  0.6890
  817MOL0     C10192   4.794   6.606   9.468 -0.2848  0.0889 -0.7933
  817MOL0     C10193   4.785   6.680   9.591  1.0098  0.0508 -0.5941
  817MOL0     C10194   4.790   6.600   9.710 -0.0097 -0.5021 -0.4898
  817MOL0     C10195   4.812   6.468   9.714 -0.0502  0.6331 -0.2584
  817MOL0     O10196   4.834   6.383   9.828  0.2854 -0.5248 -0.3293
  817MOL0     C10197   4.841   6.454   9.961 -1.3293 -0.4012 -0.4893
  817MOL0     C10198   4.908   6.362  10.053 -0.8730 -0.0200  0.5690
  817MOL0     C10199   4.818   6.259  10.107  0.1459  0.2186  0.4157
  817MOL0     C10200   4.887   6.193  10.235 -0.3370  0.5207 -0.2420
  817MOL0     C10201   4.812   6.122  10.343  0.7964  0.7293 -0.0871
  817MOL0     C10202   4.881   6.141  10.477 -0.3269 -0.3391  0.2725
  817MOL0     C10203   4.842   6.036  10.586 -0.4088  0.9939 -0.1419
  817MOL0     C10204   4.951   6.011  10.691  0.1279  0.0692 -0.4708
  817MOL0    Cl10205   5.018   6.174  10.758 -0.3470  0.1885  0.0322
  817MOL0     C10206   4.826   6.398   9.596 -0.2973  0.2913  0.1607
  817MOL0     C10207   4.812   6.466   9.467  0.4126  0.6720  1.4871
  817MOL0     O10208   4.578   6.781   9.404 -0.5775  0.1444  0.0583
  817MOL0     C10209   4.742   6.802   9.091  0.3749  0.3335 -0.3143
  817MOL0     C10210   4.713   6.854   8.960 -0.2743  1.0021 -0.4203
  817MOL0     N10211   4.365   6.573   8.597  0.4396 -0.2912  0.3999
  817MOL0     N10212   4.336   6.561   8.470  0.4590 -0.4829 -0.4349
  817MOL0     C10213   3.840   7.010   7.753 -0.5931 -0.2106 -0.5839
  817MOL0     C10214   3.796   7.140   7.788  0.4371 -0.3956  0.4866
  817MOL0     C10215   3.809   7.534   7.960  0.5650 -0.2581  0.1239
  817MOL0     C10216   3.845   7.593   8.085 -0.3017 -0.9625 -0.1342
  817MOL0     C10217   3.780   7.702   8.146  0.5459  0.4785 -0.0161
  817MOL0     C10218   3.666   7.753   8.085 -0.0160  0.0149 -0.4840
  817MOL0     O10219   3.583   7.852   8.127 -0.5374 -0.4476  0.4543
  817MOL0     C10220   3.608   7.907   8.250 -0.0840  0.3716 -0.7101
  817MOL0     C10221   3.527   8.029   8.262 -0.0649  0.4125 -1.2358
  817MOL0     C10222   3.498   8.067   8.401  0.2251 -0.2050 -0.8830
  817MOL0     C10223   3.466   8.213   8.410  0.0779  0.9209  0.8800
  817MOL0     C10224   3.425   8.244   8.547 -0.4830 -0.6774  0.9156
  817MOL0     C10225   3.417   8.253   8.667  0.8979 -0.1934  0.0750
  817MOL0     C10226   3.632   7.698   7.961  0.1309 -0.0712  1.3052
  817MOL0     C10227   3.691   7.586   7.896  0.1588 -0.0729 -0.2915
  817MOL0     H10228   4.032   7.324   7.623 -1.0000 -0.0921 -5.3811
  817MOL0     H10229   4.070   7.096   7.523  0.8100  0.7725  0.4913
  817MOL0     H10230   4.103   6.847   7.470 -0.7738 -1.9130 -0.0976
  817MOL0     H10231   4.173   6.897   7.642 -0.6115  0.2228  0.1232
  817MOL0     H10232   4.067   6.621   7.571  1.6343 -0.7432 -1.6981
  817MOL0     H10233   4.239   6.668   7.577 -0.4264 -0.5653 -0.0583
  817MOL0     H10234   4.078   6.726   7.827  1.0185 -0.7757  1.0013
  817MOL0     H10235   4.081   6.557   7.775 -0.1788 -0.8347 -2.5969
  817MOL0     H10236   4.339   6.610   7.750 -0.4474  1.0609 -0.7780
  817MOL0     H10237   4.309   6.774   7.803  0.7215  0.0086 -2.0009
  817MOL0     H10238   4.219   6.507   7.934 -0.2387  0.0764 -1.3996
  817MOL0     H10239   4.386   6.569   7.969  0.3932 -0.9408  0.8868
  817MOL0     H10240   4.249   6.787   8.048 -1.9202  1.3172  3.5701
  817MOL0     H10241   4.118   6.689   8.063  0.4427  0.3026 -1.2593
  817MOL0     H10242   4.246   6.519   8.186  3.1527 -1.0031 -2.1773
  817MOL0     H10243   4.382   6.629   8.208  1.1559 -2.6656  2.4166
  817MOL0     H10244   4.093   6.700   8.286 -0.5730 -4.8900  2.3780
  817MOL0     H10245   4.236   6.805   8.301  1.7018  0.1329  2.7183
  817MOL0     H10246   4.136   6.806   8.584 -0.2712 -0.3163  0.1755
  817MOL0     H10247   4.171   6.744   8.833 -0.8039 -1.2644 -0.3017
  817MOL0     H10248   4.288   6.619   8.857 -2.2747  1.2129  1.7624
  817MOL0     H10249   4.474   6.751   8.826  0.6975  0.1425  1.3414
  817MOL0     H10250   4.374   6.824   8.943 -1.4923  1.6390  0.4652
  817MOL0     H10251   4.280   6.989   8.745  1.9254  3.1973  0.0435
  817MOL0     H10252   4.384   6.908   8.651  1.1164  0.9233 -0.4906
  817MOL0     H10253   4.455   7.128   8.848  0.7899  1.3871 -1.1702
  817MOL0     H10254   4.479   7.104   8.681 -1.1250 -3.9829 -2.3861
  817MOL0     H10255   4.521   7.103   9.030 -0.8521 -1.3468 -1.2767
  817MOL0     H10256   4.584   7.102   9.335  0.7685 -1.1880  0.6167
  817MOL0     H10257   4.450   7.097   9.243  1.7706  1.9554 -0.3247
  817MOL0     H10258   4.468   6.970   9.368  1.6886  1.6913  1.7180
  817MOL0     H10259   4.751   6.783   9.601 -1.7505 -0.7707 -0.6388
  817MOL0     H10260   4.776   6.653   9.804 -2.2976 -0.8933 -0.5486
  817MOL0     H10261   4.900   6.545   9.944 -3.7178  0.9873 -1.8477
  817MOL0     H10262   4.741   6.485   9.993 -2.0258 -2.5147 -0.4731
  817MOL0     H10263   4.994   6.312  10.006 -1.7189 -1.7583  0.7997
  817MOL0     H10264   4.942   6.426  10.135 -0.1074  1.5874 -0.9358
  817MOL0     H10265   4.790   6.175  10.043  1.5393 -1.0877  1.4478
  817MOL0     H10266   4.727   6.311  10.139 -1.6947 -1.7914 -1.1911
  817MOL0     H10267   4.964   6.129  10.192 -0.0728 -0.3328  1.4168
  817MOL0     H10268   4.945   6.273  10.283  1.0046  1.6059 -3.3954
  817MOL0     H10269   4.795   6.016  10.327  0.9300  0.2495  2.5291
  817MOL0     H10270   4.706   6.148  10.347  0.8842  1.0511  0.3279
  817MOL0     H10271   4.988   6.141  10.454 -0.4581 -3.1823 -0.7849
  817MOL0     H10272   4.858   6.246  10.498 -0.0795 -0.3392  0.5465
  817MOL0     H10273   4.832   5.937  10.541 -2.5247  0.2731  1.7188
  817MOL0     H10274   4.745   6.059  10.630 -1.2255 -2.7035  0.2709
  817MOL0     H10275   5.036   5.960  10.645 -0.3938 -2.3760  1.0764
  817MOL0     H10276   4.912   5.957  10.778 -0.4007  1.2339  0.0387
  817MOL0     H10277   4.844   6.292   9.586  2.6124  0.5252  1.8903
  817MOL0     H10278   4.824   6.419   9.370  0.2634 -0.6536  2.0893
  817MOL0     H10279   4.803   6.712   9.085 -0.3898 -0.1239 -1.5519
  817MOL0     H10280   4.758   6.806   8.874 -1.4418 -0.2682 -0.3553
  817MOL0     H10281   3.788   6.935   7.812  2.8276 -0.3609  2.6088
  817MOL0     H10282   3.707   7.159   7.848 -0.3556  0.7266 -0.9995
  817MOL0     H10283   3.927   7.552   8.143 -0.6256  1.0054  1.8644
  817MOL0     H10284   3.834   7.744   8.230  0.9399 -0.0014 -0.0268
  817MOL0     H10285   3.587   7.837   8.332  0.6502 -0.7956 -1.4904
  817MOL0     H10286   3.715   7.930   8.262  0.1704  0.0109 -2.1436
  817MOL0     H10287   3.432   7.993   8.222  0.3358 -0.8980 -1.0701
  817MOL0     H10288   3.576   8.108   8.204 -0.3710  1.9872  0.5688
  817MOL0     H10289   3.573   8.041   8.476 -1.1655 -2.3050 -0.1259
  817MOL0     H10290   3.407   8.016   8.435  0.6859  1.1110  2.7504
  817MOL0     H10291   3.374   8.228   8.352 -0.7444  0.5170  2.0440
  817MOL0     H10292   3.551   8.277   8.384  1.0817  0.5196  2.9591
  817MOL0     H10293   3.389   8.266   8.769  1.3033  1.4251 -0.0012
  817MOL0     H10294   3.545   7.741   7.911  3.9860  2.3866 -4.4139
  817MOL0     H10295   3.647   7.560   7.801  2.1786  1.7043 -1.8286
  818MOL0     O10296   0.668  10.698   7.897  0.3869  0.6973 -0.3832
  818MOL0     C10297   0.558  10.699   7.843 -0.2440  1.0967  0.4656
  818MOL0     O10298   0.439  10.727   7.906 -0.0808 -0.0981 -0.2211
  818MOL0     C10299   0.445  10.774   8.031 -0.2976  0.1596  0.2377
  818MOL0     C10300   0.355  10.727   8.125 -0.7748 -0.7518 -0.3945
  818MOL0     C10301   0.353  10.777   8.262 -0.4315  1.3875  0.2546
  818MOL0     C10302   0.449  10.874   8.303  0.5290  0.0890  0.0220
  818MOL0     O10303   0.444  10.924   8.428 -0.0183  0.1562 -0.7973
  818MOL0     C10304   0.328  10.998   8.462 -0.7340  0.1524  0.6047
  818MOL0     C10305   0.356  11.083   8.592 -0.3665  0.4033  0.4162
  818MOL0     C10306   0.481  11.164   8.590 -1.2647 -0.0058  1.1608
  818MOL0     C10307   0.487  11.270   8.695  0.2723 -0.1658 -0.0597
  818MOL0     C10308   0.620  11.354   8.706 -0.2023 -0.9301  0.3165
  818MOL0     C10309   0.620  11.456   8.825 -0.1329 -0.1033 -0.5221
  818MOL0     C10310   0.760  11.504   8.872  1.0296  0.8925 -0.4895
  818MOL0     C10311   0.845  11.582   8.759 -0.0265  0.1290 -0.3524
  818MOL0     N10312   0.979  11.609   8.818 -0.5037  0.9387 -0.5928
  818MOL0     C10313   1.012  11.732   8.862  0.1104  0.6125 -0.1333
  818MOL0     C10314   1.142  11.748   8.864 -1.1579 -0.5062  0.1230
  818MOL0     C10315   1.216  11.871   8.912 -0.4586  1.1777 -0.3353
  818MOL0     C10316   1.208  11.883   9.062 -0.3543  0.0682 -0.4985
  818MOL0     C10317   1.312  11.799   9.141  0.0159 -0.0540 -0.0389
  818MOL0     C10318   1.309  11.822   9.287 -0.6422 -0.6640  1.1204
  818MOL0     O10319   1.408  11.741   9.355 -0.3814 -0.6623 -0.1675
  818MOL0     C10320   1.539  11.783   9.374  0.2126  0.3572  0.0555
  818MOL0     C10321   1.627  11.689   9.412  0.6259  0.2432  0.2816
  818MOL0     C10322   1.761  11.714   9.421  0.4542 -0.6956 -0.4754
  818MOL0     C10323   1.860  11.609   9.439  0.3002 -0.6181  0.2594
  818MOL0     C10324   1.815  11.844   9.387 -0.1440  0.3595 -0.3967
  818MOL0     C10325   1.962  11.888   9.400  0.7015 -0.4584 -0.2502
  818MOL0     O10326   2.028  11.871   9.521  0.3872  0.1050 -0.4096
  818MOL0     C10327   2.160  11.905   9.524  0.0396 -0.2029 -0.2575
  818MOL0     C10328   2.232  11.802   9.583  0.3602  0.5319 -0.3014
  818MOL0     C10329   2.363  11.829   9.634  0.7451 -0.6861 -0.3155
  818MOL0     C10330   2.418  11.959   9.616 -0.7781 -0.3849 -0.2098
  818MOL0     O10331   2.543  11.992   9.656  0.3017 -0.0787 -0.4392
  818MOL0     C10332   2.639  11.901   9.662 -0.6358 -0.4557 -0.1872
  818MOL0     C10333   2.775  11.960   9.716 -0.0913 -0.0145  0.1210
  818MOL0     C10334   2.843  12.074   9.640 -0.6152  0.0145  0.3130
  818MOL0     C10335   2.759  12.211   9.637  0.2151 -0.2127  0.1973
  818MOL0     C10336   2.761  12.263   9.789 -0.2090  0.1483  0.0879
  818MOL0     C10337   2.724  12.410   9.779 -0.2505  0.5934  0.9591
  818MOL0     C10338   2.758  12.475   9.916  0.6878 -0.3982  0.1221
  818MOL0     C10339   2.721  12.630   9.929  0.6790 -0.2447 -0.2711
  818MOL0    Cl10340   2.555  12.673   9.994  0.2849 -0.1008 -0.1291
  818MOL0     C10341   2.344  12.052   9.546  0.1014  0.6838  0.1978
  818MOL0     C10342   2.220  12.031   9.499 -0.4361  0.6079  0.9574
  818MOL0     O10343   2.003  11.947   9.303 -0.3261 -0.8234  1.1837
  818MOL0     C10344   1.725  11.943   9.352 -0.3041 -1.0040  0.1084
  818MOL0     C10345   1.591  11.914   9.352  0.4645 -0.5508 -0.1905
  818MOL0     N10346   1.196  11.633   8.811 -0.8525  0.2957 -0.3300
  818MOL0     N10347   1.097  11.556   8.773  0.5998 -0.1912  1.0758
  818MOL0     C10348   0.535  10.934   8.204 -0.5271  0.2326  0.4731
  818MOL0     C10349   0.526  10.885   8.070  0.1955 -0.1689 -0.7532
  818MOL0     C10350   0.544  10.677   7.692  1.3317 -0.2303 -0.2548
  818MOL0     C10351   0.417  10.707   7.614 -0.9068 -0.1648  0.9125
  818MOL0     C10352   0.413  10.677   7.480 -0.5816 -0.2622 -0.2589
  818MOL0     C10353   0.531  10.633   7.407 -0.1683  1.2153 -0.7569
  818MOL0     O10354   0.530  10.595   7.277  0.0562 -0.0374  0.1960
  818MOL0     C10355   0.409  10.617   7.199  0.0540 -0.4271 -0.1208
  818MOL0     C10356   0.410  10.534   7.063 -0.9012  0.2944 -1.0105
  818MOL0     C10357   0.287  10.563   6.969  0.2508 -0.2207 -0.8937
  818MOL0     C10358   0.280  10.705   6.906  0.1802 -0.1531  0.1011
  818MOL0     C10359   0.241  10.701   6.767 -0.7737  0.7835  0.2013
  818MOL0     C10360   0.213  10.696   6.643  0.6853  0.7607 -0.7735
  818MOL0     C10361   0.646  10.619   7.481  0.1315 -0.5727 -0.1828
  818MOL0     C10362   0.656  10.639   7.616  0.8191  0.3933  0.3776
  818MOL0     H10363   0.295  10.639   8.105 -0.8493 -1.0688  1.1127
  818MOL0     H10364   0.291  10.741   8.343  0.8024  1.3625  1.2257
  818MOL0     H10365   0.300  11.055   8.373 -3.8390 -2.1832 -0.0861
  818MOL0     H10366   0.253  10.923   8.486 -0.8768  0.4876  1.2504
  818MOL0     H10367   0.274  11.155   8.591 -1.7915 -1.1504 -1.2695
  818MOL0     H10368   0.341  11.028   8.686  2.4747  2.0655  2.0170
  818MOL0     H10369   0.564  11.098   8.615  1.1633  2.8452  1.1468
  818MOL0     H10370   0.491  11.213   8.493  3.6313 -0.8957  0.9881
  818MOL0     H10371   0.402  11.338   8.693  0.7297  0.3986 -0.9162
  818MOL0     H10372   0.458  11.218   8.787  1.6443  0.0194  0.5106
  818MOL0     H10373   0.699  11.281   8.723  2.9967  1.9262 -1.0120
  818MOL0     H10374   0.645  11.408   8.614  1.7726  1.9387  2.3454
  818MOL0     H10375   0.544  11.534   8.817  0.4334  0.5803  0.5078
  818MOL0     H10376   0.578  11.400   8.909 -1.4094 -0.2068 -1.2010
  818MOL0     H10377   0.744  11.566   8.961 -0.9809 -1.2897  0.7998
  818MOL0     H10378   0.819  11.418   8.904 -0.4131 -0.1288 -0.4803
  818MOL0     H10379   0.796  11.676   8.732  1.2646  0.3930 -1.9738
  818MOL0     H10380   0.858  11.524   8.667  3.0091 -1.5130  0.9575
  818MOL0     H10381   0.957  11.812   8.911  1.2392  1.8658 -0.8388
  818MOL0     H10382   1.323  11.871   8.886 -0.2115  0.6572  0.6097
  818MOL0     H10383   1.163  11.960   8.877 -1.3498  0.4203 -0.9469
  818MOL0     H10384   1.106  11.855   9.090  0.2049  0.5199  2.2545
  818MOL0     H10385   1.235  11.988   9.075  1.9285 -0.4853 -0.3571
  818MOL0     H10386   1.409  11.829   9.100 -0.0189 -1.7767 -1.5002
  818MOL0     H10387   1.308  11.691   9.121 -0.5225  0.2905 -2.0260
  818MOL0     H10388   1.209  11.805   9.328 -0.4723 -1.5771  1.1950
  818MOL0     H10389   1.331  11.928   9.298 -0.9087 -0.6815  1.8736
  818MOL0     H10390   1.604  11.583   9.407  3.6476 -0.8432  4.2479
  818MOL0     H10391   1.962  11.647   9.439 -0.0792  0.5079  2.0257
  818MOL0     H10392   1.848  11.549   9.530  0.9615  1.5795  1.8787
  818MOL0     H10393   1.849  11.536   9.358  0.3136  1.9600 -2.2395
  818MOL0     H10394   2.179  11.707   9.589  2.3941 -0.8153 -1.9824
  818MOL0     H10395   2.416  11.756   9.694  1.7568  1.1244  1.1273
  818MOL0     H10396   2.606  11.816   9.723 -1.6154  0.5698  0.7577
  818MOL0     H10397   2.657  11.869   9.559 -1.6441 -0.5275 -0.3444
  818MOL0     H10398   2.736  11.987   9.814 -4.9113 -1.0069 -1.2371
  818MOL0     H10399   2.856  11.887   9.712  1.6546  1.8633 -1.9806
  818MOL0     H10400   2.866  12.037   9.540 -1.7909 -2.4756  0.9028
  818MOL0     H10401   2.941  12.098   9.684 -0.1067 -0.5141 -0.5088
  818MOL0     H10402   2.802  12.283   9.567  0.4621  0.1780  0.7416
  818MOL0     H10403   2.656  12.196   9.605  0.8682  0.5972 -2.5788
  818MOL0     H10404   2.860  12.259   9.836 -0.8225  0.3154  1.4306
  818MOL0     H10405   2.695  12.220   9.864  0.2927 -1.4203 -0.3240
  818MOL0     H10406   2.785  12.468   9.709  0.5554  2.1780  2.8945
  818MOL0     H10407   2.622  12.423   9.743  0.4568  0.5678 -1.1995
  818MOL0     H10408   2.866  12.465   9.932  0.7897 -0.6999 -0.6898
  818MOL0     H10409   2.696  12.443  10.001 -3.7327  1.5380 -2.0446
  818MOL0     H10410   2.743  12.675   9.832  0.8034 -1.9680 -1.0915
  818MOL0     H10411   2.783  12.662  10.013  0.5603 -2.8123  0.8959
  818MOL0     H10412   2.392  12.145   9.517  0.5425 -0.7274 -4.4451
  818MOL0     H10413   2.177  12.102   9.429  3.6820  1.1049 -1.3884
  818MOL0     H10414   1.759  12.043   9.327  2.8789 -1.5894  1.6438
  818MOL0     H10415   1.531  11.999   9.321  0.2684 -1.0461 -1.2386
  818MOL0     H10416   0.598  11.020   8.222 -0.4814 -0.1432  2.2627
  818MOL0     H10417   0.592  10.931   7.996  0.2350  0.7810 -0.1396
  818MOL0     H10418   0.327  10.744   7.661 -0.9945  1.5542 -0.4951
  818MOL0     H10419   0.318  10.692   7.430 -1.1023 -0.0018  0.7822
  818MOL0     H10420   0.317  10.591   7.252  0.3776  2.0878  1.8673
  818MOL0     H10421   0.397  10.725   7.184  1.9154  0.3790  3.2251
  818MOL0     H10422   0.405  10.429   7.092 -1.2339  1.1069  2.1797
  818MOL0     H10423   0.504  10.541   7.008  0.8864 -1.8207  1.5637
  818MOL0     H10424   0.189  10.550   7.015 -1.2753  0.5935 -3.6580
  818MOL0     H10425   0.286  10.495   6.884  1.1395 -0.3187 -0.8396
  818MOL0     H10426   0.380  10.748   6.921  1.6176 -3.1023 -0.0926
  818MOL0     H10427   0.209  10.763   6.965  0.4885  1.4478 -1.0361
  818MOL0     H10428   0.174  10.680   6.545  2.8705 -2.5509 -1.2566
  818MOL0     H10429   0.728  10.584   7.420  0.0673 -2.9088  0.9872
  818MOL0     H10430   0.750  10.624   7.669  0.2685  1.1606  1.6273
  819MOL0     O10431   0.075   6.708   3.411  0.1183  0.2376  0.9235
  819MOL0     C10432  -0.039   6.740   3.440  0.3154  0.9345  0.0855
  819MOL0     O10433  -0.116   6.818   3.376  0.6512 -0.8658  1.2559
  819MOL0     C10434  -0.082   6.885   3.263  0.6410  0.0681  0.0965
  819MOL0     C10435   0.015   6.845   3.176 -0.2187  0.7744 -0.3618
  819MOL0     C10436   0.064   6.938   3.076  1.5871 -0.1016  0.3345
  819MOL0     C10437   0.016   7.066   3.065  0.8876 -0.1392 -0.1424
  819MOL0     O10438   0.056   7.163   2.974  0.4349  0.6547 -0.4023
  819MOL0     C10439   0.045   7.131   2.832 -0.8333  0.1746 -0.7350
  819MOL0     C10440  -0.074   7.209   2.769 -0.4063  0.2502  0.6695
  819MOL0     C10441  -0.210   7.164   2.817  0.8951  0.7077  0.6253
  819MOL0     C10442  -0.233   7.002   2.818  0.2577  0.2269 -0.5092
  819MOL0     C10443  -0.379   6.956   2.816 -0.3272 -0.8451  0.1985
  819MOL0     C10444  -0.443   6.976   2.946  1.0672 -1.0531 -0.8265
  819MOL0     C10445  -0.581   6.910   2.946  0.6599  0.1350 -0.0036
  819MOL0     C10446  -0.574   6.766   2.998  0.0037  0.9967  0.4477
  819MOL0     N10447  -0.703   6.696   3.009 -0.1587  0.1049 -0.7956
  819MOL0     C10448  -0.826   6.736   2.966 -0.1524  0.9225 -0.7811
  819MOL0     C10449  -0.914   6.642   2.998  0.1966  1.0270 -1.1615
  819MOL0     C10450  -1.067   6.646   2.979 -1.0783  0.3643  0.6846
  819MOL0     C10451  -1.094   6.637   2.838  0.0288  0.0160  0.1507
  819MOL0     C10452  -1.108   6.494   2.771 -1.0413 -0.1048  0.4487
  819MOL0     C10453  -1.241   6.483   2.698  0.0242  0.5212 -0.7381
  819MOL0     O10454  -1.223   6.363   2.618 -0.1038 -0.0466 -0.7380
  819MOL0     C10455  -1.342   6.302   2.621 -1.2717 -0.6191  0.0429
  819MOL0     C10456  -1.441   6.310   2.518  0.0453  0.0355 -0.8771
  819MOL0     C10457  -1.558   6.244   2.527 -0.1999 -0.0218 -0.5076
  819MOL0     C10458  -1.654   6.264   2.427  0.1304  0.0381  0.1486
  819MOL0     C10459  -1.588   6.168   2.646  0.4986  0.5208  0.7973
  819MOL0     C10460  -1.716   6.092   2.671  0.3004 -0.5010 -0.4702
  819MOL0     O10461  -1.752   6.097   2.804  0.2031 -0.9662  0.0657
  819MOL0     C10462  -1.847   6.010   2.852 -0.1974 -1.0614 -0.0332
  819MOL0     C10463  -1.842   5.879   2.833 -0.1549 -0.0012  0.2167
  819MOL0     C10464  -1.953   5.794   2.855 -0.1137 -0.6941  0.1167
  819MOL0     C10465  -2.074   5.844   2.900  0.2212 -0.6217  0.5361
  819MOL0     O10466  -2.196   5.778   2.927  0.4585 -0.2736 -0.4658
  819MOL0     C10467  -2.200   5.638   2.886 -0.9999  0.5245 -0.2196
  819MOL0     C10468  -2.343   5.582   2.894 -0.2877  0.4179 -0.0852
  819MOL0     C10469  -2.379   5.568   3.046  0.4824  0.3571 -0.4912
  819MOL0     C10470  -2.532   5.529   3.061  0.1257 -0.1068 -0.4014
  819MOL0     C10471  -2.570   5.390   2.981 -0.1542 -0.7255 -0.2194
  819MOL0     C10472  -2.716   5.364   3.001  0.6829 -0.0806 -0.1353
  819MOL0     C10473  -2.731   5.262   3.113  0.0830 -0.7712  0.3347
  819MOL0     C10474  -2.875   5.226   3.140  0.2513 -0.3700 -0.4635
  819MOL0    Cl10475  -2.955   5.200   2.980  0.0837  0.1854 -0.2321
  819MOL0     C10476  -2.088   5.978   2.930 -0.7087  0.2398  0.3285
  819MOL0     C10477  -1.977   6.066   2.900 -0.1914  0.7622 -0.2861
  819MOL0     O10478  -1.770   6.023   2.579  0.7327 -0.2055 -0.1098
  819MOL0     C10479  -1.489   6.162   2.736  0.1997 -0.1858 -0.6722
  819MOL0     C10480  -1.367   6.215   2.720  0.3961 -0.3042 -0.1606
  819MOL0     N10481  -0.839   6.533   3.051  0.2568 -0.2578  0.1814
  819MOL0     N10482  -0.713   6.563   3.045  0.8218  0.2189  0.5110
  819MOL0     C10483  -0.085   7.104   3.154  0.3732  0.1673 -0.7212
  819MOL0     C10484  -0.127   7.016   3.257  0.2329  0.0202 -0.6375
  819MOL0     C10485  -0.113   6.668   3.553 -0.3504  0.0315 -0.4998
  819MOL0     C10486  -0.043   6.584   3.634  0.4126  0.5727  0.7045
  819MOL0     C10487  -0.108   6.519   3.738 -0.5047  0.0538 -0.3901
  819MOL0     C10488  -0.246   6.534   3.762 -0.0573  0.5253 -0.8650
  819MOL0     O10489  -0.310   6.457   3.855 -0.2052 -0.4357 -1.0875
  819MOL0     C10490  -0.242   6.391   3.957 -0.8570  1.0360 -0.1779
  819MOL0     C10491  -0.334   6.303   4.049 -0.7357 -0.6941  0.4159
  819MOL0     C10492  -0.238   6.239   4.150  0.3704 -0.1170  0.5255
  819MOL0     C10493  -0.185   6.346   4.255  0.0225 -1.1466 -0.3609
  819MOL0     C10494  -0.153   6.264   4.377 -0.1139  1.3251  0.1034
  819MOL0     C10495  -0.111   6.191   4.468 -0.4820 -0.0866  0.1226
  819MOL0     C10496  -0.318   6.611   3.676  0.3668 -0.6763  0.3509
  819MOL0     C10497  -0.248   6.688   3.579  0.2963  0.1413  1.0291
  819MOL0     H10498   0.062   6.748   3.185  1.8318  1.6754 -0.6335
  819MOL0     H10499   0.118   6.897   2.991  1.5392  1.9248 -0.7154
  819MOL0     H10500   0.135   7.168   2.782  2.3397 -4.1189  1.2018
  819MOL0     H10501   0.047   7.026   2.804 -1.2517 -0.0498  0.0486
  819MOL0     H10502  -0.061   7.314   2.797 -3.0000  0.5957  0.8333
  819MOL0     H10503  -0.073   7.197   2.661  0.7747  1.9745  0.4500
  819MOL0     H10504  -0.234   7.208   2.914 -3.7103 -0.6141  0.3150
  819MOL0     H10505  -0.293   7.202   2.757  0.4202 -0.1221  0.7288
  819MOL0     H10506  -0.195   6.955   2.727  2.2182  1.3812 -0.3387
  819MOL0     H10507  -0.184   6.952   2.902  0.3869  2.0489  0.5341
  819MOL0     H10508  -0.434   7.002   2.733  2.4595  1.6790 -0.3755
  819MOL0     H10509  -0.376   6.847   2.811 -1.4503 -0.9661  1.5294
  819MOL0     H10510  -0.390   6.925   3.027 -2.7858 -2.7321  0.9088
  819MOL0     H10511  -0.452   7.084   2.961  1.5512 -0.6155 -3.2681
  819MOL0     H10512  -0.645   6.969   3.014  0.7898  0.7819 -0.4368
  819MOL0     H10513  -0.631   6.907   2.849 -0.7135  0.2174  0.6748
  819MOL0     H10514  -0.521   6.759   3.094  1.6833 -0.7613 -0.5267
  819MOL0     H10515  -0.507   6.705   2.936 -0.7924  0.3552  0.2031
  819MOL0     H10516  -0.848   6.825   2.908  2.7323  1.5895 -1.0206
  819MOL0     H10517  -1.113   6.565   3.036 -0.9123 -0.6014 -0.5371
  819MOL0     H10518  -1.107   6.743   3.012 -2.9216 -0.5501  1.3061
  819MOL0     H10519  -1.008   6.676   2.783  0.1260 -2.9715 -2.0664
  819MOL0     H10520  -1.180   6.700   2.816 -2.2049 -2.0967  2.2083
  819MOL0     H10521  -1.092   6.418   2.848 -0.3001 -1.6175 -1.1256
  819MOL0     H10522  -1.030   6.461   2.701 -2.1678 -1.4384 -0.2345
  819MOL0     H10523  -1.248   6.567   2.628 -2.3565 -0.6409 -2.0411
  819MOL0     H10524  -1.327   6.470   2.765  0.8819 -1.0469  0.1177
  819MOL0     H10525  -1.422   6.379   2.437  0.6611 -0.6084 -1.2913
  819MOL0     H10526  -1.736   6.329   2.459  0.5270  0.5848  0.0723
  819MOL0     H10527  -1.609   6.315   2.342  0.9318  0.8675  1.0435
  819MOL0     H10528  -1.705   6.173   2.393 -1.1446  0.3060  1.2457
  819MOL0     H10529  -1.749   5.831   2.804  2.1416  2.7630  2.3886
  819MOL0     H10530  -1.936   5.687   2.847 -0.3384 -0.6061 -2.1568
  819MOL0     H10531  -2.157   5.627   2.786 -1.1795 -0.3530 -0.2070
  819MOL0     H10532  -2.138   5.575   2.949  1.7346  2.5525 -0.7334
  819MOL0     H10533  -2.412   5.649   2.843 -2.9237 -1.8341  0.3147
  819MOL0     H10534  -2.359   5.486   2.843 -1.4381 -0.4649  1.8476
  819MOL0     H10535  -2.361   5.658   3.106  1.6898 -0.9587  1.2214
  819MOL0     H10536  -2.318   5.483   3.078  0.7912 -0.1753 -2.3766
  819MOL0     H10537  -2.555   5.515   3.167 -1.1447 -1.2274 -0.7998
  819MOL0     H10538  -2.596   5.601   3.009 -0.0912  0.0726  0.1067
  819MOL0     H10539  -2.509   5.312   3.028  0.4991 -0.2013 -0.1859
  819MOL0     H10540  -2.544   5.406   2.876 -1.0639 -2.3382 -0.7208
  819MOL0     H10541  -2.781   5.452   3.014 -1.2223 -1.5444  0.7741
  819MOL0     H10542  -2.749   5.313   2.910 -1.1034 -1.2796  1.1035
  819MOL0     H10543  -2.698   5.305   3.208 -1.6283 -2.2348  1.6856
  819MOL0     H10544  -2.680   5.167   3.095  3.5488 -0.6758  6.7430
  819MOL0     H10545  -2.929   5.310   3.184  4.2746  1.4723  1.5297
  819MOL0     H10546  -2.890   5.141   3.207 -2.6335 -1.1808 -1.9845
  819MOL0     H10547  -2.176   6.013   2.983 -1.7540 -1.8865  0.0986
  819MOL0     H10548  -1.990   6.173   2.911  0.4329  0.6536  2.1138
  819MOL0     H10549  -1.502   6.102   2.826 -1.4746  2.5081  1.0027
  819MOL0     H10550  -1.283   6.185   2.782 -0.7783 -3.0247  0.2392
  819MOL0     H10551  -0.136   7.199   3.162  1.5488  0.6725  2.3492
  819MOL0     H10552  -0.195   7.030   3.340 -0.4127 -3.5336 -0.4258
  819MOL0     H10553   0.063   6.566   3.616 -0.0538  0.1103 -1.8280
  819MOL0     H10554  -0.039   6.471   3.806 -1.7021  1.1143  1.6786
  819MOL0     H10555  -0.156   6.333   3.923 -0.1402  1.3254  1.0701
  819MOL0     H10556  -0.203   6.472   4.019 -0.1714 -0.5969  1.6346
  819MOL0     H10557  -0.396   6.228   3.999 -1.3865  1.1332 -1.6799
  819MOL0     H10558  -0.395   6.370   4.111 -2.0650 -0.9955 -0.5269
  819MOL0     H10559  -0.150   6.193   4.103  0.4327  1.1065 -0.6270
  819MOL0     H10560  -0.299   6.165   4.203  0.5180 -1.2642 -0.8472
  819MOL0     H10561  -0.261   6.415   4.293  1.3690  0.2436 -0.1052
  819MOL0     H10562  -0.098   6.397   4.214  1.4466 -0.4674  3.1673
  819MOL0     H10563  -0.095   6.117   4.543 -2.3076  0.3001  0.9316
  819MOL0     H10564  -0.426   6.622   3.687  0.4432 -0.9454  1.5163
  819MOL0     H10565  -0.311   6.748   3.515 -1.9719  1.0992  3.9585
  820MOL0     O10566   1.277  10.346   3.204 -0.1694 -0.1824 -0.2921
  820MOL0     C10567   1.318  10.454   3.171 -1.0715  0.3221  0.0964
  820MOL0     O10568   1.441  10.507   3.206  1.0350  0.4999  0.3812
  820MOL0     C10569   1.487  10.471   3.321 -0.4055  0.2328 -0.3084
  820MOL0     C10570   1.616  10.406   3.324 -0.7897 -0.0142 -0.1040
  820MOL0     C10571   1.667  10.350   3.440 -0.4877 -0.5457 -0.4882
  820MOL0     C10572   1.594  10.371   3.564 -1.0359  0.7382 -0.0838
  820MOL0     O10573   1.637  10.322   3.689 -0.3709 -0.3785  0.2076
  820MOL0     C10574   1.763  10.266   3.701 -0.3119  0.1493 -0.5689
  820MOL0     C10575   1.795  10.237   3.850 -0.1159  0.7398 -0.9999
  820MOL0     C10576   1.707  10.144   3.919 -0.5353 -0.6892 -0.7293
  820MOL0     C10577   1.790  10.049   4.009  0.3208 -0.2732 -0.7162
  820MOL0     C10578   1.725   9.992   4.136 -1.4555  0.1601  0.0939
  820MOL0     C10579   1.616   9.896   4.088  0.1185  0.7436 -0.5115
  820MOL0     C10580   1.547   9.844   4.212 -0.3531  0.1786 -0.5755
  820MOL0     C10581   1.583   9.710   4.270 -0.6543 -0.3527  0.4288
  820MOL0     N10582   1.728   9.685   4.285  0.2149  1.0690  0.1365
  820MOL0     C10583   1.783   9.681   4.405 -0.1422 -0.3703  0.3616
  820MOL0     C10584   1.902   9.630   4.368 -0.2874 -0.1284 -0.2124
  820MOL0     C10585   2.007   9.596   4.473 -0.4297 -0.2917  0.0053
  820MOL0     C10586   2.023   9.436   4.484  0.1064 -0.3389 -0.7263
  820MOL0     C10587   1.879   9.379   4.501  0.1111  0.6070 -0.0882
  820MOL0     C10588   1.868   9.223   4.510  0.0220 -0.1229  0.3156
  820MOL0     O10589   1.734   9.174   4.494  0.1870  0.1773 -0.3315
  820MOL0     C10590   1.644   9.213   4.594  0.4841 -0.6866 -0.3931
  820MOL0     C10591   1.681   9.247   4.723 -0.2493 -0.5727  0.0184
  820MOL0     C10592   1.594   9.298   4.819 -0.6503  0.0844  0.9061
  820MOL0     C10593   1.662   9.358   4.941 -0.1410  1.4718  0.4347
  820MOL0     C10594   1.453   9.292   4.791  0.1009  0.0183  0.0768
  820MOL0     C10595   1.353   9.327   4.891 -0.0564  0.5711  0.4961
  820MOL0     O10596   1.228   9.269   4.886  0.0112 -0.9657  0.2959
  820MOL0     C10597   1.120   9.305   4.965 -0.7427  0.1883 -0.2294
  820MOL0     C10598   1.105   9.433   5.035  0.5039 -1.0091  0.8989
  820MOL0     C10599   0.985   9.466   5.099 -0.0131 -1.4010 -0.7110
  820MOL0     C10600   0.880   9.374   5.104  0.1852  0.3124 -0.3393
  820MOL0     O10601   0.764   9.373   5.189  0.3560  0.0382  0.2500
  820MOL0     C10602   0.703   9.495   5.239 -0.6130  0.0028  0.7130
  820MOL0     C10603   0.715   9.516   5.390 -0.5887 -0.2822 -0.0643
  820MOL0     C10604   0.860   9.500   5.438 -0.1655 -0.2798 -0.6359
  820MOL0     C10605   0.863   9.527   5.593 -0.6536 -0.2219 -0.2002
  820MOL0     C10606   1.010   9.500   5.645  0.3203 -0.4845 -0.4000
  820MOL0     C10607   1.059   9.360   5.647  0.4901 -0.4449 -0.6313
  820MOL0     C10608   1.173   9.336   5.740  1.0006 -0.2563 -0.3993
  820MOL0     C10609   1.251   9.202   5.729 -0.3322  0.1278 -0.5349
  820MOL0    Cl10610   1.146   9.085   5.780 -0.1990 -0.4414  0.7131
  820MOL0     C10611   0.907   9.243   5.050 -0.1355 -1.3870 -0.5378
  820MOL0     C10612   1.018   9.209   4.978  0.3101  0.0075  0.7194
  820MOL0     O10613   1.390   9.413   4.974  0.0183 -0.0326  0.0440
  820MOL0     C10614   1.412   9.240   4.669  0.4079  1.3343 -0.3254
  820MOL0     C10615   1.502   9.195   4.576  0.3089 -0.1341 -0.3350
  820MOL0     N10616   1.907   9.599   4.239  0.0558  0.3106  0.8885
  820MOL0     N10617   1.803   9.644   4.186 -0.7431  1.0248  0.8166
  820MOL0     C10618   1.470  10.426   3.561 -0.7387 -0.2422  1.0140
  820MOL0     C10619   1.425  10.491   3.446 -0.9396 -0.6078 -0.5495
  820MOL0     C10620   1.228  10.542   3.092 -0.6176 -0.4892 -0.1933
  820MOL0     C10621   1.282  10.637   3.006 -0.3171 -0.0295  0.1025
  820MOL0     C10622   1.188  10.728   2.945 -0.5526  0.0530 -0.7777
  820MOL0     C10623   1.049  10.716   2.969  0.2039  0.2761  0.1461
  820MOL0     O10624   0.975  10.815   2.902  0.5863  0.9022 -0.0294
  820MOL0     C10625   0.836  10.787   2.894 -0.1304 -1.4189 -0.1563
  820MOL0     C10626   0.769  10.873   2.780 -0.5033  0.2554  0.6529
  820MOL0     C10627   0.811  10.807   2.644  0.3993 -0.0388 -0.0745
  820MOL0     C10628   0.727  10.884   2.538 -0.4940  0.0618  0.7875
  820MOL0     C10629   0.769  10.841   2.402 -0.2139 -0.3017  0.5127
  820MOL0     C10630   0.795  10.841   2.281  0.6359  0.7260  0.7369
  820MOL0     C10631   1.005  10.615   3.047 -0.0453  0.1290  0.6130
  820MOL0     C10632   1.086  10.532   3.113 -0.1516 -0.3979  0.0259
  820MOL0     H10633   1.658  10.390   3.225  2.8987  1.3005  1.0571
  820MOL0     H10634   1.757  10.289   3.441 -0.2812 -0.2418 -0.7234
  820MOL0     H10635   1.765  10.166   3.657  0.5498 -1.0916  2.0272
  820MOL0     H10636   1.847  10.329   3.669  2.0714 -2.5301  0.0430
  820MOL0     H10637   1.895  10.193   3.855 -0.0428  0.9881 -0.1104
  820MOL0     H10638   1.798  10.330   3.907  1.9393 -1.3940  2.7673
  820MOL0     H10639   1.636  10.206   3.974 -0.2177 -2.2441  1.6025
  820MOL0     H10640   1.651  10.088   3.844 -1.3532 -3.7973  1.9486
  820MOL0     H10641   1.816   9.963   3.948 -5.1649 -1.1953 -2.2694
  820MOL0     H10642   1.880  10.104   4.041 -0.1274  0.6590 -1.0098
  820MOL0     H10643   1.793   9.932   4.197 -2.5785 -0.2250  0.9907
  820MOL0     H10644   1.686  10.070   4.202  2.4816  1.5790  1.0085
  820MOL0     H10645   1.550   9.945   4.016  0.6273  3.6586  0.8883
  820MOL0     H10646   1.656   9.807   4.038  1.1836  0.7484  0.3092
  820MOL0     H10647   1.544   9.914   4.296  3.3982 -1.7540  1.4288
  820MOL0     H10648   1.439   9.842   4.193 -1.8746  1.1226  5.7344
  820MOL0     H10649   1.552   9.627   4.205 -2.0409 -3.1269  4.3104
  820MOL0     H10650   1.537   9.695   4.367 -0.6246 -3.0936  0.0811
  820MOL0     H10651   1.738   9.698   4.502  0.6387 -2.8710  1.2450
  820MOL0     H10652   2.106   9.641   4.461  0.6893 -2.5428  0.2972
  820MOL0     H10653   1.966   9.630   4.569 -4.1288  0.3292 -1.6572
  820MOL0     H10654   2.080   9.406   4.572 -0.1777 -0.1489 -0.4734
  820MOL0     H10655   2.070   9.401   4.392 -0.9144 -1.6978 -0.7673
  820MOL0     H10656   1.831   9.393   4.404 -1.2128 -0.1278  0.4276
  820MOL0     H10657   1.822   9.430   4.580 -2.6221  1.6482 -2.5621
  820MOL0     H10658   1.929   9.190   4.596 -1.8689  0.1331  1.8148
  820MOL0     H10659   1.913   9.169   4.426 -1.5042  1.3673 -1.5412
  820MOL0     H10660   1.787   9.257   4.742 -0.2053 -2.7157  1.2788
  820MOL0     H10661   1.630   9.305   5.031  1.9686  0.3453  0.5659
  820MOL0     H10662   1.771   9.361   4.930 -0.0743 -1.4927 -0.4116
  820MOL0     H10663   1.623   9.459   4.961 -4.3563  0.3710 -1.0627
  820MOL0     H10664   1.180   9.512   5.033  0.4149 -0.9182  1.2394
  820MOL0     H10665   0.967   9.557   5.155  1.2181 -1.5742 -0.0073
  820MOL0     H10666   0.736   9.573   5.171 -1.3330 -0.7055 -0.4802
  820MOL0     H10667   0.597   9.481   5.216  0.2754 -4.8559 -1.7097
  820MOL0     H10668   0.680   9.619   5.404  2.9864  1.1171 -0.3053
  820MOL0     H10669   0.660   9.438   5.443  0.2662 -1.9466 -1.5510
  820MOL0     H10670   0.926   9.579   5.402  1.7826 -0.9198  1.2974
  820MOL0     H10671   0.896   9.398   5.422 -0.1273 -0.4695  0.5424
  820MOL0     H10672   0.840   9.633   5.608  0.1275 -0.0698 -0.0607
  820MOL0     H10673   0.797   9.457   5.645  0.7601 -0.2354  1.6706
  820MOL0     H10674   1.014   9.545   5.745 -1.2429 -0.4678 -0.3237
  820MOL0     H10675   1.085   9.554   5.587  0.3988  0.4959  0.5839
  820MOL0     H10676   0.981   9.285   5.657  0.5170 -0.5853 -1.3555
  820MOL0     H10677   1.089   9.349   5.542  0.3184  2.7448 -1.1339
  820MOL0     H10678   1.125   9.342   5.838  1.4489  0.0631 -0.1934
  820MOL0     H10679   1.243   9.420   5.732  1.8080 -0.7396  1.2457
  820MOL0     H10680   1.332   9.222   5.801 -2.6463  1.4801  1.8752
  820MOL0     H10681   1.283   9.196   5.625 -0.5638 -1.1022 -0.5513
  820MOL0     H10682   0.830   9.167   5.057 -4.2031  2.4461  0.3977
  820MOL0     H10683   1.040   9.104   4.962 -2.4609 -0.2772 -2.0874
  820MOL0     H10684   1.309   9.224   4.638  0.0539 -0.6296  1.6452
  820MOL0     H10685   1.465   9.171   4.477 -0.7481  3.6725 -1.0235
  820MOL0     H10686   1.401  10.432   3.645 -1.0155  0.9265  0.7233
  820MOL0     H10687   1.326  10.533   3.461 -0.8632 -1.4095  2.9355
  820MOL0     H10688   1.388  10.634   2.984  1.0131 -2.8101  5.4087
  820MOL0     H10689   1.229  10.775   2.857  1.0576 -0.7914 -0.5261
  820MOL0     H10690   0.805  10.682   2.884  1.0292 -1.7850 -0.0600
  820MOL0     H10691   0.789  10.818   2.987  0.9143  1.9110 -0.6319
  820MOL0     H10692   0.791  10.979   2.791 -1.3514  0.3515  1.6371
  820MOL0     H10693   0.660  10.874   2.797 -1.5609  2.2854 -4.5046
  820MOL0     H10694   0.781  10.703   2.656 -1.5627  0.6263  1.2608
  820MOL0     H10695   0.916  10.820   2.619 -0.2193  2.4896 -1.7855
  820MOL0     H10696   0.754  10.990   2.546  1.3357 -0.4947  3.4075
  820MOL0     H10697   0.622  10.856   2.540 -0.3155 -0.8223  3.6137
  820MOL0     H10698   0.829  10.833   2.180  3.8660  0.3299  1.7524
  820MOL0     H10699   0.897  10.608   3.056 -0.6841  3.4902 -2.1300
  820MOL0     H10700   1.037  10.455   3.173  0.2333  1.2827  2.6848
  821MOL0     O10701   2.580  11.044   9.714 -0.2016 -0.1885  0.7886
  821MOL0     C10702   2.643  11.126   9.780 -1.3819 -0.1227  0.4730
  821MOL0     O10703   2.741  11.215   9.740 -0.1688  0.6869 -0.0591
  821MOL0     C10704   2.801  11.184   9.621 -0.8769 -1.0069  0.3157
  821MOL0     C10705   2.933  11.116   9.618  0.3889 -0.5349  0.6544
  821MOL0     C10706   3.012  11.127   9.507  0.2058  0.2982 -0.6063
  821MOL0     C10707   2.972  11.197   9.397  0.3172 -0.5975 -1.0019
  821MOL0     O10708   3.057  11.204   9.290  0.7684 -0.2664 -0.5147
  821MOL0     C10709   3.118  11.090   9.229  0.5224  0.0808  0.8389
  821MOL0     C10710   3.179  11.117   9.088 -0.3389 -0.1727 -0.7595
  821MOL0     C10711   3.068  11.165   9.002  0.7749  0.7733 -0.6867
  821MOL0     C10712   3.118  11.193   8.863  0.7910 -0.3731 -0.1801
  821MOL0     C10713   3.011  11.262   8.778  0.0427 -0.3368 -0.2541
  821MOL0     C10714   2.900  11.168   8.729 -0.3494  0.1266 -0.0411
  821MOL0     C10715   2.813  11.247   8.621 -0.3608 -0.4335  0.0208
  821MOL0     C10716   2.898  11.297   8.505  0.3263 -0.2872  0.3046
  821MOL0     N10717   2.826  11.361   8.395  0.4247 -0.2588  0.4900
  821MOL0     C10718   2.809  11.312   8.269  0.0009 -0.1270  0.0984
  821MOL0     C10719   2.721  11.401   8.212  0.4714 -0.0213 -0.0988
  821MOL0     C10720   2.647  11.405   8.085 -0.4413  0.2326  0.0979
  821MOL0     C10721   2.607  11.554   8.040  0.0041 -0.3132  0.2664
  821MOL0     C10722   2.525  11.573   7.909 -0.0431  0.7675 -0.1906
  821MOL0     C10723   2.576  11.490   7.787 -0.4338  0.4357  0.2511
  821MOL0     O10724   2.539  11.558   7.667 -0.1186 -0.3352 -0.2527
  821MOL0     C10725   2.549  11.482   7.561 -0.2657  0.7253  0.4568
  821MOL0     C10726   2.487  11.530   7.444 -0.1963  0.2335 -0.0181
  821MOL0     C10727   2.514  11.490   7.314  0.0689  0.0712 -0.0320
  821MOL0     C10728   2.444  11.572   7.202  0.1257 -0.4919 -0.1878
  821MOL0     C10729   2.600  11.376   7.297  0.2617  0.2027  0.3084
  821MOL0     C10730   2.623  11.308   7.160 -0.1393  0.5711  0.6695
  821MOL0     O10731   2.722  11.211   7.154  0.3642 -0.8358  0.4784
  821MOL0     C10732   2.736  11.131   7.043  0.5497 -0.2949 -0.8994
  821MOL0     C10733   2.863  11.102   7.005 -0.1809  0.7548  0.4349
  821MOL0     C10734   2.888  11.020   6.890 -0.0145 -1.2206  0.6215
  821MOL0     C10735   2.783  10.967   6.812  0.4911  0.3570  0.0395
  821MOL0     O10736   2.784  10.881   6.700  0.2776  0.7394  0.0225
  821MOL0     C10737   2.749  10.917   6.570  0.7789 -1.4367  0.4879
  821MOL0     C10738   2.773  10.794   6.487  0.8837  0.1037  0.4346
  821MOL0     C10739   2.654  10.702   6.454 -0.8539 -0.1074 -0.3244
  821MOL0     C10740   2.623  10.634   6.592  0.2233  0.4532 -0.4173
  821MOL0     C10741   2.494  10.561   6.588  0.0213  1.2518  0.2478
  821MOL0     C10742   2.489  10.428   6.520 -0.3125 -0.0900 -0.1775
  821MOL0     C10743   2.339  10.391   6.500  0.7444  0.2220  0.4251
  821MOL0     C10744   2.313  10.269   6.417  0.9353  0.9180 -1.0166
  821MOL0    Cl10745   2.430  10.129   6.423  0.1583 -0.1238 -0.2113
  821MOL0     C10746   2.647  10.996   6.861  0.6580 -0.4208 -0.0901
  821MOL0     C10747   2.625  11.079   6.967 -0.3054 -0.8030  0.4426
  821MOL0     O10748   2.560  11.336   7.063  0.4165 -0.3060 -0.1645
  821MOL0     C10749   2.655  11.324   7.411 -0.1086  0.2940  0.4611
  821MOL0     C10750   2.626  11.367   7.541 -0.4189 -0.1369 -0.0508
  821MOL0     N10751   2.691  11.502   8.298  0.1492 -0.1252  0.7545
  821MOL0     N10752   2.758  11.478   8.405  0.5546 -0.4771 -0.3576
  821MOL0     C10753   2.841  11.244   9.392 -0.0615 -0.4408 -0.1257
  821MOL0     C10754   2.758  11.249   9.505 -0.1051 -0.3141 -0.6119
  821MOL0     C10755   2.602  11.133   9.923 -0.6195 -0.2399  1.3544
  821MOL0     C10756   2.505  11.047   9.976 -0.5461  0.4022 -0.7109
  821MOL0     C10757   2.456  11.064  10.108 -0.0347 -0.5078  0.2471
  821MOL0     C10758   2.509  11.168  10.187  0.7328  0.5568  1.0581
  821MOL0     O10759   2.472  11.184  10.319  0.1806 -0.1779 -0.1109
  821MOL0     C10760   2.342  11.151  10.364 -1.1118 -1.1610  0.0525
  821MOL0     C10761   2.321  11.223  10.505  0.6480 -0.0470  0.5786
  821MOL0     C10762   2.324  11.376  10.488  0.1367 -0.7774  0.4066
  821MOL0     C10763   2.224  11.431  10.589  1.0173 -0.0203 -1.1330
  821MOL0     C10764   2.230  11.574  10.604 -0.3771 -0.6577  0.1189
  821MOL0     C10765   2.238  11.696  10.610  0.0664 -0.0597  1.1119
  821MOL0     C10766   2.606  11.249  10.130 -0.7459  0.1182  0.3919
  821MOL0     C10767   2.659  11.234  10.004 -0.1589  0.7681 -0.8585
  821MOL0     H10768   2.970  11.059   9.703  0.8666 -1.9452 -0.4517
  821MOL0     H10769   3.110  11.082   9.517  0.7257  1.5688  0.3705
  821MOL0     H10770   3.189  11.048   9.302  1.1426  1.6280  1.1724
  821MOL0     H10771   3.043  11.013   9.215 -0.5111  1.3489 -0.9727
  821MOL0     H10772   3.258  11.193   9.091  0.7385 -1.2521  2.9205
  821MOL0     H10773   3.230  11.025   9.059  0.9535  0.7635 -1.5862
  821MOL0     H10774   2.984  11.095   8.991  1.1070  0.2263  0.1299
  821MOL0     H10775   3.023  11.256   9.042 -3.0460 -0.9835 -0.5855
  821MOL0     H10776   3.208  11.254   8.872  2.8047 -3.0282 -1.1025
  821MOL0     H10777   3.123  11.099   8.808 -3.9127 -2.4317  2.3383
  821MOL0     H10778   2.963  11.341   8.837 -0.5480 -1.3359  0.6382
  821MOL0     H10779   3.075  11.315   8.707  1.0264  1.2327  1.7008
  821MOL0     H10780   2.945  11.082   8.679  1.7736  0.7543  0.6526
  821MOL0     H10781   2.837  11.133   8.811 -0.8391  0.7343 -0.1479
  821MOL0     H10782   2.725  11.193   8.586 -0.2483  1.5931 -4.0551
  821MOL0     H10783   2.774  11.332   8.676 -0.4535 -0.0985 -0.5511
  821MOL0     H10784   2.966  11.219   8.469  1.5416  0.9557 -0.1935
  821MOL0     H10785   2.946  11.385   8.549 -3.1812  1.0944  1.6948
  821MOL0     H10786   2.847  11.221   8.225  2.6536 -1.3911  4.4319
  821MOL0     H10787   2.720  11.369   8.012  0.8690 -2.3874  2.5330
  821MOL0     H10788   2.562  11.337   8.094  0.5925 -0.8518  2.3670
  821MOL0     H10789   2.696  11.616   8.033 -0.4785  0.2184 -2.3123
  821MOL0     H10790   2.555  11.613   8.117 -2.1514  0.4646 -1.6650
  821MOL0     H10791   2.530  11.675   7.871  3.8750  0.5135 -0.8335
  821MOL0     H10792   2.421  11.561   7.939 -0.0381 -1.0656 -0.7354
  821MOL0     H10793   2.537  11.387   7.785 -0.7131  0.5514 -0.5780
  821MOL0     H10794   2.685  11.480   7.786  0.0278  3.3926  2.9263
  821MOL0     H10795   2.430  11.622   7.460 -1.2217 -0.5921  1.3230
  821MOL0     H10796   2.376  11.491   7.173  3.6360 -2.6850 -3.2378
  821MOL0     H10797   2.402  11.672   7.217  3.5312  0.9167  0.9993
  821MOL0     H10798   2.519  11.586   7.123  2.3934 -1.0620  1.7488
  821MOL0     H10799   2.952  11.145   7.048  1.0729 -2.2180  1.0873
  821MOL0     H10800   2.994  11.013   6.866 -0.6993  0.5375 -4.0101
  821MOL0     H10801   2.645  10.952   6.568  1.3241  0.2622 -1.0752
  821MOL0     H10802   2.800  11.009   6.539  0.9985 -2.7450 -3.6256
  821MOL0     H10803   2.817  10.831   6.393  1.7758 -2.9248 -0.4397
  821MOL0     H10804   2.860  10.735   6.518  2.8488  1.4072 -2.1647
  821MOL0     H10805   2.685  10.623   6.385 -1.4609 -1.1640  0.5590
  821MOL0     H10806   2.572  10.763   6.413  0.3915  0.1655 -2.5577
  821MOL0     H10807   2.698  10.558   6.616 -1.3305 -1.0795 -0.1712
  821MOL0     H10808   2.630  10.699   6.680  1.4337 -0.8778  0.5143
  821MOL0     H10809   2.424  10.629   6.538  3.0497  4.4820  0.0629
  821MOL0     H10810   2.467  10.530   6.689  3.7598  0.7314  1.2378
  821MOL0     H10811   2.533  10.437   6.420 -1.2429  1.9050 -0.4493
  821MOL0     H10812   2.546  10.356   6.580  0.5342  1.8793  1.4931
  821MOL0     H10813   2.282  10.467   6.447  0.3059 -1.3942 -1.5162
  821MOL0     H10814   2.296  10.378   6.600  0.2571 -1.6545  0.0119
  821MOL0     H10815   2.324  10.312   6.317 -1.6248  0.4991 -1.5427
  821MOL0     H10816   2.208  10.239   6.420 -0.2904  4.3627 -3.2210
  821MOL0     H10817   2.568  10.970   6.791  1.5622 -1.0020 -0.9238
  821MOL0     H10818   2.520  11.086   6.996 -0.3288  0.1492  0.1628
  821MOL0     H10819   2.715  11.234   7.404  0.5493  0.6106  1.8557
  821MOL0     H10820   2.675  11.313   7.621 -1.1336  2.2937  2.1716
  821MOL0     H10821   2.810  11.275   9.294  4.3396  0.1159 -1.5876
  821MOL0     H10822   2.658  11.291   9.501 -0.2589 -0.5236  0.5910
  821MOL0     H10823   2.472  10.968   9.909 -1.9416  0.4580 -0.1040
  821MOL0     H10824   2.386  10.989  10.143  0.1298 -0.6586  0.2556
  821MOL0     H10825   2.279  11.181  10.279  1.5091  0.4781 -1.4467
  821MOL0     H10826   2.338  11.043  10.381  1.0113 -1.5773 -1.5933
  821MOL0     H10827   2.389  11.198  10.588 -0.8321  2.6474  2.7917
  821MOL0     H10828   2.222  11.196  10.544  1.3044 -0.6525  1.8764
  821MOL0     H10829   2.308  11.404  10.383  1.3234  2.7441  1.0208
  821MOL0     H10830   2.424  11.414  10.513 -0.8599  0.5264  2.7203
  821MOL0     H10831   2.236  11.387  10.688  0.7878 -0.6526 -1.3886
  821MOL0     H10832   2.123  11.409  10.554 -1.0353  1.6633  3.0335
  821MOL0     H10833   2.263  11.797  10.636  3.5107 -0.7342  0.9395
  821MOL0     H10834   2.646  11.331  10.189  3.2755 -0.7434 -0.8064
  821MOL0     H10835   2.751  11.275   9.962  2.2590 -4.2071 -1.0465
  822MOL0     O10836   5.040   5.053  10.735  0.5589 -0.0985  0.2994
  822MOL0     C10837   5.147   4.998  10.745 -0.2120  0.1976 -0.7095
  822MOL0     O10838   5.177   4.892  10.826  0.7324  0.1084  0.2343
  822MOL0     C10839   5.075   4.819  10.878 -0.0253 -0.6274  0.5090
  822MOL0     C10840   5.056   4.686  10.837 -0.4848  0.7104  0.4512
  822MOL0     C10841   4.965   4.598  10.897 -0.0923  0.6837 -0.3099
  822MOL0     C10842   4.892   4.649  11.002 -0.1060  0.2599 -0.2059
  822MOL0     O10843   4.820   4.566  11.071  0.6473 -0.1996  0.1257
  822MOL0     C10844   4.712   4.520  10.993  0.1789  0.8091  0.7010
  822MOL0     C10845   4.622   4.439  11.083  0.3155 -0.8833 -0.3591
  822MOL0     C10846   4.495   4.399  11.018  0.5540  0.8510  0.1453
  822MOL0     C10847   4.375   4.496  11.038 -1.1562  0.5518  0.3219
  822MOL0     C10848   4.324   4.487  11.178  0.9427 -0.1135 -0.6732
  822MOL0     C10849   4.175   4.529  11.186 -0.4269 -0.4558 -0.2012
  822MOL0     C10850   4.159   4.683  11.176  0.9351  0.1095 -0.5769
  822MOL0     C10851   4.004   4.702  11.200 -0.3918  0.8242  0.7548
  822MOL0     N10852   3.964   4.843  11.163 -0.7172  0.5252  0.2399
  822MOL0     C10853   4.031   4.954  11.210 -0.0148  0.4957  0.3558
  822MOL0     C10854   3.967   5.059  11.160 -0.7453 -0.9447  0.4343
  822MOL0     C10855   4.003   5.206  11.173  0.0148  0.1868 -0.8526
  822MOL0     C10856   3.883   5.295  11.115 -0.2676  0.1754 -0.1488
  822MOL0     C10857   3.751   5.263  11.196  0.2637 -0.8880  0.6629
  822MOL0     C10858   3.659   5.385  11.218  0.7980  0.2128 -0.7837
  822MOL0     O10859   3.733   5.495  11.276  0.0907 -0.2798  0.2532
  822MOL0     C10860   3.660   5.604  11.304  0.3376 -0.4240  1.2852
  822MOL0     C10861   3.701   5.727  11.258  0.5365  0.1307  0.0851
  822MOL0     C10862   3.626   5.847  11.279 -0.1752 -0.1555 -1.1438
  822MOL0     C10863   3.686   5.978  11.227 -0.1236 -0.1514 -0.0090
  822MOL0     C10864   3.501   5.839  11.350  0.7699 -0.4739  0.4650
  822MOL0     C10865   3.414   5.962  11.364  0.7979  0.3800  0.5215
  822MOL0     O10866   3.468   6.085  11.345  0.0082  0.0837 -0.4160
  822MOL0     C10867   3.412   6.197  11.404  0.7030  0.2282  0.9045
  822MOL0     C10868   3.308   6.204  11.504  1.0312  0.4049 -0.0869
  822MOL0     C10869   3.259   6.325  11.548  0.0745  0.9141  0.7700
  822MOL0     C10870   3.300   6.445  11.493 -1.1758  0.8588  0.1813
  822MOL0     O10871   3.242   6.566  11.528 -0.6145  0.2324 -0.3497
  822MOL0     C10872   3.290   6.621  11.660 -0.2908  0.7042 -0.0603
  822MOL0     C10873   3.422   6.694  11.636  0.4196  0.0339 -0.2185
  822MOL0     C10874   3.455   6.760  11.763  0.4163  0.1795 -0.3793
  822MOL0     C10875   3.362   6.879  11.795  0.0127  0.8074 -1.0889
  822MOL0     C10876   3.435   6.975  11.894  0.7375  0.2644 -0.7676
  822MOL0     C10877   3.447   6.906  12.022  0.6974  0.1202  0.7327
  822MOL0     C10878   3.478   6.997  12.143  0.4596 -0.2103 -0.7627
  822MOL0     C10879   3.352   7.050  12.227  0.1288  0.9548  0.5040
  822MOL0    Cl10880   3.255   7.169  12.120  0.0134  0.8361 -0.3241
  822MOL0     C10881   3.409   6.448  11.405 -0.1683  1.5660 -0.1397
  822MOL0     C10882   3.458   6.319  11.359 -0.2494 -0.5439  0.8372
  822MOL0     O10883   3.292   5.936  11.379 -0.3620 -0.4440  0.2643
  822MOL0     C10884   3.440   5.713  11.385 -0.9517  0.9466  1.3760
  822MOL0     C10885   3.529   5.601  11.369 -0.3383  0.8026 -0.4181
  822MOL0     N10886   3.870   5.012  11.070 -0.4520 -0.0000  0.9061
  822MOL0     N10887   3.871   4.886  11.078 -0.1292  1.0920 -0.0179
  822MOL0     C10888   4.912   4.773  11.058 -0.6469 -0.1633 -0.9213
  822MOL0     C10889   4.994   4.860  10.990  0.3548 -0.2107  0.2468
  822MOL0     C10890   5.267   5.055  10.671  0.0495 -0.3476 -0.7630
  822MOL0     C10891   5.271   5.186  10.611  0.1132  0.0825  0.6801
  822MOL0     C10892   5.382   5.231  10.542  0.1651  0.1494  0.1536
  822MOL0     C10893   5.496   5.165  10.533  0.6130 -0.5969 -0.3197
  822MOL0     O10894   5.601   5.232  10.470 -0.4479  0.8177 -0.1806
  822MOL0     C10895   5.724   5.163  10.448  0.1428 -0.0039  0.7291
  822MOL0     C10896   5.856   5.251  10.462 -0.5234 -0.0537 -0.6647
  822MOL0     C10897   5.876   5.313  10.321 -0.3424 -0.3208  1.1318
  822MOL0     C10898   5.951   5.447  10.345  0.1791  0.1188  0.7004
  822MOL0     C10899   6.020   5.503  10.226 -0.1091  0.4096  0.2267
  822MOL0     C10900   6.085   5.554  10.128 -0.4161 -0.5656  0.0025
  822MOL0     C10901   5.497   5.038  10.594  0.0930 -0.5376  0.0469
  822MOL0     C10902   5.386   4.977  10.658  0.8733  0.4350  1.0193
  822MOL0     H10903   5.101   4.660  10.742 -2.7474  2.9038 -1.3509
  822MOL0     H10904   4.960   4.499  10.855  0.2958  0.3068  0.5000
  822MOL0     H10905   4.648   4.606  10.971  0.1744  1.6492  3.5196
  822MOL0     H10906   4.741   4.454  10.911 -0.7274  2.3210 -0.8921
  822MOL0     H10907   4.683   4.361  11.127  1.2293  1.6269  3.2180
  822MOL0     H10908   4.607   4.511  11.164  0.9769 -0.8552 -0.2600
  822MOL0     H10909   4.509   4.372  10.913 -2.7613 -1.3864  0.1093
  822MOL0     H10910   4.476   4.304  11.069  3.6774  0.0415 -0.0370
  822MOL0     H10911   4.413   4.599  11.029  1.9851 -0.4782  0.4903
  822MOL0     H10912   4.297   4.475  10.965 -0.7201  2.1045 -0.6365
  822MOL0     H10913   4.317   4.381  11.205 -0.2117  0.0572 -0.2635
  822MOL0     H10914   4.375   4.543  11.256  0.8463 -3.0797  1.7018
  822MOL0     H10915   4.114   4.487  11.106 -0.4225 -0.5398 -0.1606
  822MOL0     H10916   4.132   4.503  11.284 -0.2915  1.7192  0.4783
  822MOL0     H10917   4.218   4.721  11.260  5.2220 -6.2051 -0.0646
  822MOL0     H10918   4.193   4.715  11.077  0.6857 -0.6239 -0.8996
  822MOL0     H10919   3.990   4.696  11.308 -1.6435  0.5247  0.5884
  822MOL0     H10920   3.952   4.621  11.148 -2.4484  1.6280  1.4633
  822MOL0     H10921   4.099   4.948  11.294 -1.7698  1.1031  1.8903
  822MOL0     H10922   4.020   5.224  11.280 -1.1149 -1.9649 -0.2513
  822MOL0     H10923   4.097   5.224  11.120 -0.8693  1.0974 -2.1927
  822MOL0     H10924   3.866   5.255  11.015  1.7014  3.5598 -1.9957
  822MOL0     H10925   3.916   5.399  11.117  0.2339  0.0370  2.1719
  822MOL0     H10926   3.780   5.228  11.295  1.4657 -0.7157  0.3931
  822MOL0     H10927   3.699   5.180  11.149 -2.9995  0.9624  0.7056
  822MOL0     H10928   3.575   5.367  11.285 -1.9569  1.9208 -3.5118
  822MOL0     H10929   3.593   5.407  11.133 -0.4369  1.0762  0.3483
  822MOL0     H10930   3.801   5.715  11.217  0.1572 -1.8570 -0.3920
  822MOL0     H10931   3.629   6.033  11.151 -1.5097 -1.0263  0.3714
  822MOL0     H10932   3.699   6.037  11.318  0.5881  0.6575 -0.6091
  822MOL0     H10933   3.786   5.959  11.187 -1.0483  0.3078 -2.7570
  822MOL0     H10934   3.268   6.113  11.549  1.1183 -0.4433 -1.6770
  822MOL0     H10935   3.190   6.316  11.630  1.4240 -0.4261  1.8004
  822MOL0     H10936   3.224   6.703  11.689  0.2689  0.5549  1.7540
  822MOL0     H10937   3.302   6.541  11.734  0.9755  1.2440  0.3427
  822MOL0     H10938   3.503   6.624  11.615  0.4304 -0.1002  0.2531
  822MOL0     H10939   3.409   6.760  11.550  0.9184  0.5091  0.0624
  822MOL0     H10940   3.555   6.798  11.737  1.6816 -2.2980  0.5970
  822MOL0     H10941   3.458   6.690  11.846 -1.1813 -1.3044 -1.5186
  822MOL0     H10942   3.331   6.935  11.707 -0.9596  1.2607 -0.4768
  822MOL0     H10943   3.271   6.835  11.837  2.5471 -2.4938  1.5632
  822MOL0     H10944   3.380   7.070  11.898  0.4577  0.2101 -2.5463
  822MOL0     H10945   3.532   7.010  11.859  0.5894  0.0470 -1.4164
  822MOL0     H10946   3.351   6.866  12.055 -0.2053  0.4572 -1.3682
  822MOL0     H10947   3.519   6.823  12.021 -1.7652 -2.1444  0.7200
  822MOL0     H10948   3.535   7.083  12.106 -0.2665  0.8440  0.4953
  822MOL0     H10949   3.542   6.943  12.213 -2.3982 -2.2486  0.5074
  822MOL0     H10950   3.386   7.089  12.323 -2.5959 -2.2946  3.0235
  822MOL0     H10951   3.279   6.970  12.242  0.5377  0.2410 -1.1021
  822MOL0     H10952   3.441   6.537  11.351 -0.9032  3.0128  1.6662
  822MOL0     H10953   3.530   6.321  11.278  0.4711  1.3601  1.4680
  822MOL0     H10954   3.346   5.702  11.438 -1.3051 -0.3228  0.5430
  822MOL0     H10955   3.497   5.503  11.401  1.8550  1.0495  3.0812
  822MOL0     H10956   4.840   4.801  11.135  0.7002  4.0181 -0.9750
  822MOL0     H10957   5.012   4.957  11.035  2.4361 -0.4664  0.0746
  822MOL0     H10958   5.190   5.256  10.626  1.0677  1.4417 -0.2867
  822MOL0     H10959   5.381   5.329  10.496 -4.0038  1.5671  2.7310
  822MOL0     H10960   5.747   5.085  10.521 -1.7329 -1.0690  0.2247
  822MOL0     H10961   5.711   5.109  10.354 -0.1568 -0.3726  0.9807
  822MOL0     H10962   5.955   5.207  10.479  0.5882  2.4198 -0.2914
  822MOL0     H10963   5.847   5.327  10.541 -1.4786 -1.2774  0.4522
  822MOL0     H10964   5.793   5.336  10.253 -1.4070 -2.6821  1.5085
  822MOL0     H10965   5.950   5.255  10.264  0.7970  3.1631 -1.2423
  822MOL0     H10966   6.036   5.435  10.413  0.0774  1.8726  1.1887
  822MOL0     H10967   5.890   5.530  10.381  2.5365  3.0514 -1.6141
  822MOL0     H10968   6.139   5.594  10.044 -1.3625  0.2155 -0.2506
  822MOL0     H10969   5.581   4.971  10.585  0.0413 -0.3645 -2.4324
  822MOL0     H10970   5.402   4.880  10.705  3.6239  0.2530 -0.0868
  823MOL0     O10971   7.253   3.295   3.931  0.5159 -0.2046  0.6361
  823MOL0     C10972   7.182   3.371   3.867  0.7459 -0.1296 -0.7421
  823MOL0     O10973   7.146   3.362   3.738  0.1820  0.2000  0.5055
  823MOL0     C10974   7.140   3.256   3.658 -0.0634 -0.2774  0.5904
  823MOL0     C10975   7.141   3.263   3.516 -0.3390  0.0909  0.0025
  823MOL0     C10976   7.094   3.158   3.436 -0.3477 -0.1316 -0.5067
  823MOL0     C10977   7.079   3.031   3.482  0.3479 -0.3540  0.8629
  823MOL0     O10978   7.049   2.907   3.421 -0.3991 -1.3929 -0.4396
  823MOL0     C10979   7.009   2.919   3.281 -0.0106  0.6816 -0.0775
  823MOL0     C10980   7.113   2.896   3.165  0.5094 -0.2609 -0.6488
  823MOL0     C10981   7.060   2.892   3.023  0.7404 -0.2173 -0.2007
  823MOL0     C10982   6.978   2.766   2.998 -0.6690 -0.5661 -0.6605
  823MOL0     C10983   6.909   2.766   2.862 -0.1625  0.4159  0.2108
  823MOL0     C10984   6.808   2.651   2.846  0.0124  0.3984 -0.4925
  823MOL0     C10985   6.863   2.565   2.745 -0.6434  1.0586  0.7884
  823MOL0     C10986   6.786   2.427   2.724  1.2220 -0.0429 -0.2292
  823MOL0     N10987   6.650   2.451   2.674 -0.7148  0.0476 -0.1325
  823MOL0     C10988   6.537   2.436   2.753 -1.2785  0.3592 -0.7839
  823MOL0     C10989   6.435   2.483   2.674  0.1501  0.4556  0.9245
  823MOL0     C10990   6.278   2.488   2.706 -0.4791 -0.2213  0.1861
  823MOL0     C10991   6.204   2.378   2.621 -1.0672  0.1927 -0.9991
  823MOL0     C10992   6.046   2.408   2.635  0.2124  0.4452  0.1366
  823MOL0     C10993   6.020   2.388   2.784  0.0819 -0.9145  0.5918
  823MOL0     O10994   5.894   2.313   2.810 -0.0405 -0.5222  0.4158
  823MOL0     C10995   5.894   2.204   2.884  0.5037 -0.6685  0.3791
  823MOL0     C10996   5.950   2.212   3.006  0.1502  0.6857 -0.1070
  823MOL0     C10997   5.929   2.098   3.092  0.1407  0.3610  0.2873
  823MOL0     C10998   5.999   2.106   3.222  0.0288 -0.2064  0.4659
  823MOL0     C10999   5.838   1.993   3.055  0.5631  1.2044  0.2698
  823MOL0     C11000   5.825   1.863   3.133 -0.3774 -0.3431 -0.5584
  823MOL0     O11001   5.701   1.802   3.142  0.1567  0.7128 -0.6426
  823MOL0     C11002   5.694   1.671   3.195 -0.0939  1.0317 -0.2555
  823MOL0     C11003   5.595   1.638   3.280  0.1409 -0.5770 -0.9495
  823MOL0     C11004   5.568   1.499   3.314 -0.6328 -0.2138 -0.3701
  823MOL0     C11005   5.650   1.401   3.269 -0.4759 -0.2586 -0.0566
  823MOL0     O11006   5.635   1.268   3.297 -0.5016 -0.0094  0.2126
  823MOL0     C11007   5.577   1.188   3.197  0.2075 -0.6026  0.4249
  823MOL0     C11008   5.548   1.046   3.235 -0.9394  0.2195 -0.4675
  823MOL0     C11009   5.668   0.941   3.239 -0.5272 -0.3979  0.4409
  823MOL0     C11010   5.645   0.827   3.334  0.8910  0.2514  0.7952
  823MOL0     C11011   5.643   0.870   3.481 -0.3962  0.2080 -0.4264
  823MOL0     C11012   5.619   0.747   3.565  0.2334 -0.6823  0.6705
  823MOL0     C11013   5.613   0.771   3.715  0.8199 -0.2365 -0.0442
  823MOL0     C11014   5.464   0.772   3.771 -1.1942  0.6663  0.5611
  823MOL0    Cl11015   5.384   0.909   3.694 -0.0373 -0.0426 -0.1877
  823MOL0     C11016   5.755   1.438   3.176 -0.8419  0.9519  0.3123
  823MOL0     C11017   5.767   1.573   3.133 -0.7658 -0.3467 -0.8527
  823MOL0     O11018   5.929   1.823   3.186 -0.0597  0.0881 -0.7412
  823MOL0     C11019   5.777   2.001   2.932 -0.8472  0.9991  0.4395
  823MOL0     C11020   5.796   2.109   2.851  0.7155  0.1002 -0.2364
  823MOL0     N11021   6.495   2.523   2.556  0.0634 -0.4152  0.1669
  823MOL0     N11022   6.620   2.492   2.549  0.3309  0.3710 -0.1082
  823MOL0     C11023   7.085   3.018   3.622 -0.2728 -0.1547 -0.2091
  823MOL0     C11024   7.117   3.126   3.711  0.0852 -1.2799  0.4694
  823MOL0     C11025   7.144   3.494   3.935  0.2573 -0.5941 -1.2169
  823MOL0     C11026   7.225   3.550   4.042  0.3198 -0.9952  0.1012
  823MOL0     C11027   7.179   3.664   4.107 -0.2483 -0.7683  0.0271
  823MOL0     C11028   7.045   3.714   4.086 -0.1881  0.4637  0.2579
  823MOL0     O11029   7.016   3.827   4.147  0.5109 -0.5218 -0.1268
  823MOL0     C11030   7.022   3.835   4.289  0.5077 -0.2829 -0.1748
  823MOL0     C11031   6.877   3.827   4.341  0.0948 -0.1259  0.5279
  823MOL0     C11032   6.792   3.705   4.300 -0.1484 -0.9163  0.4013
  823MOL0     C11033   6.640   3.736   4.294 -0.1473 -0.3083 -0.6656
  823MOL0     C11034   6.558   3.615   4.324 -0.0620  1.1676 -1.5809
  823MOL0     C11035   6.501   3.516   4.349  0.5121 -0.0484 -1.1163
  823MOL0     C11036   6.969   3.665   3.977  0.6027 -0.1405  0.6094
  823MOL0     C11037   7.025   3.565   3.896 -0.3809  0.7615  0.3567
  823MOL0     H11038   7.161   3.359   3.468  0.3273 -2.2622 -5.1507
  823MOL0     H11039   7.094   3.174   3.328 -1.1614  0.7869 -0.3798
  823MOL0     H11040   6.927   2.849   3.262  2.5822 -2.8224  0.5642
  823MOL0     H11041   6.964   3.019   3.278  0.8429  1.2429  2.8263
  823MOL0     H11042   7.193   2.970   3.169  0.2032  0.0118  1.7528
  823MOL0     H11043   7.167   2.803   3.184  2.4375  1.1762  1.3472
  823MOL0     H11044   7.002   2.985   3.014 -1.0215 -0.5502  4.7888
  823MOL0     H11045   7.144   2.904   2.954 -0.0462  2.6656 -0.7978
  823MOL0     H11046   7.037   2.674   3.002 -1.1575 -0.8762 -0.3868
  823MOL0     H11047   6.904   2.747   3.077  2.1301 -2.1552  1.7519
  823MOL0     H11048   6.860   2.863   2.848  0.3629  0.4766 -1.3956
  823MOL0     H11049   6.978   2.764   2.777 -1.7056 -1.1299 -1.0743
  823MOL0     H11050   6.807   2.590   2.937  2.6492  1.8343  0.6197
  823MOL0     H11051   6.706   2.678   2.816 -0.6591 -0.8258  0.5792
  823MOL0     H11052   6.883   2.607   2.646  1.8799 -1.5601  0.0373
  823MOL0     H11053   6.960   2.529   2.782 -2.1297 -1.8734  2.2523
  823MOL0     H11054   6.794   2.361   2.811  2.0389  1.5978  0.9759
  823MOL0     H11055   6.831   2.372   2.640  2.2623 -0.7557  0.7772
  823MOL0     H11056   6.518   2.411   2.857  0.1554 -0.6365 -0.7370
  823MOL0     H11057   6.270   2.460   2.811  0.4619  0.1459  0.3715
  823MOL0     H11058   6.240   2.588   2.685 -0.8189 -0.3749  0.0689
  823MOL0     H11059   6.241   2.281   2.654  2.4186  2.0264  1.1944
  823MOL0     H11060   6.242   2.390   2.519  0.4085  0.1963 -0.4792
  823MOL0     H11061   5.995   2.324   2.586 -1.4067  0.4385  1.7720
  823MOL0     H11062   6.013   2.504   2.596 -4.0517 -0.6156  0.6491
  823MOL0     H11063   6.017   2.482   2.840  0.4662  1.2942 -2.8503
  823MOL0     H11064   6.102   2.331   2.830 -0.0510  0.5707  2.8405
  823MOL0     H11065   5.999   2.299   3.048  0.7948 -0.2372  1.1262
  823MOL0     H11066   5.933   2.059   3.296 -0.2586 -1.1102 -0.3398
  823MOL0     H11067   6.096   2.056   3.226  1.2617  1.6830 -2.5462
  823MOL0     H11068   6.015   2.207   3.262  0.0393  0.1292 -0.3723
  823MOL0     H11069   5.538   1.724   3.313  0.5679 -0.4938 -0.4229
  823MOL0     H11070   5.499   1.458   3.387 -1.2557  0.3508 -0.6256
  823MOL0     H11071   5.480   1.235   3.177  1.0663  0.7009 -0.8653
  823MOL0     H11072   5.635   1.179   3.105 -2.1327 -0.2572 -1.1817
  823MOL0     H11073   5.495   1.043   3.331  2.8154  1.9941  1.9061
  823MOL0     H11074   5.478   1.018   3.156 -1.0771 -0.5957 -0.0777
  823MOL0     H11075   5.757   0.996   3.269 -0.7078 -0.4464  1.0809
  823MOL0     H11076   5.682   0.892   3.142  2.4447 -0.5544  0.8689
  823MOL0     H11077   5.540   0.808   3.306  1.1924  1.5058 -1.4003
  823MOL0     H11078   5.714   0.745   3.313  1.2909  0.9554 -0.8316
  823MOL0     H11079   5.577   0.956   3.495 -0.2456  0.5167 -1.5568
  823MOL0     H11080   5.741   0.916   3.501 -0.4814  0.1523  0.1429
  823MOL0     H11081   5.519   0.722   3.527 -1.2716  0.8978  3.2689
  823MOL0     H11082   5.687   0.664   3.544 -1.0834 -1.8392  0.8445
  823MOL0     H11083   5.667   0.861   3.744  0.6041 -0.9762  3.0231
  823MOL0     H11084   5.664   0.690   3.768 -1.0195 -0.1471  1.9712
  823MOL0     H11085   5.455   0.780   3.880 -0.9289  0.7746  0.5732
  823MOL0     H11086   5.416   0.679   3.738 -0.9271  0.9796 -0.7548
  823MOL0     H11087   5.822   1.366   3.131 -1.0079  0.2945  1.0776
  823MOL0     H11088   5.840   1.598   3.057  3.7088  1.7340  3.5083
  823MOL0     H11089   5.713   1.916   2.906  1.2303 -0.4963 -0.0274
  823MOL0     H11090   5.725   2.115   2.769 -1.9881 -0.7885  1.8782
  823MOL0     H11091   7.038   2.927   3.656  1.7117 -1.5311 -0.9371
  823MOL0     H11092   7.109   3.123   3.819  0.5045  1.2218  0.6267
  823MOL0     H11093   7.319   3.505   4.071  0.0711 -0.3048  2.1595
  823MOL0     H11094   7.241   3.712   4.181  1.0988 -0.3023 -1.3547
  823MOL0     H11095   7.083   3.754   4.331  1.4537  1.4721  2.0228
  823MOL0     H11096   7.080   3.923   4.315 -0.5876  0.7422 -1.0709
  823MOL0     H11097   6.821   3.921   4.336 -1.0608 -0.3495  5.0217
  823MOL0     H11098   6.892   3.806   4.447 -0.5947 -1.1131  0.4426
  823MOL0     H11099   6.804   3.625   4.373 -1.5374 -1.5698 -0.0474
  823MOL0     H11100   6.811   3.665   4.200  0.9587 -3.0361  1.4118
  823MOL0     H11101   6.599   3.779   4.203 -2.0188  0.5144  0.5156
  823MOL0     H11102   6.616   3.818   4.362 -0.4635 -0.2775 -0.8110
  823MOL0     H11103   6.457   3.421   4.370  2.6687 -1.2822 -1.8048
  823MOL0     H11104   6.881   3.710   3.932  2.1616  0.7627 -1.7506
  823MOL0     H11105   6.970   3.522   3.813  0.5153 -0.2306  0.2517
  824MOL0     O11106   5.996   4.313   8.097 -0.1041  0.4155 -0.2016
  824MOL0     C11107   5.888   4.305   8.163 -0.5342  0.4430  0.2666
  824MOL0     O11108   5.773   4.286   8.106 -0.1127 -1.1251  0.2384
  824MOL0     C11109   5.760   4.256   7.975  0.2160  0.6671 -0.3381
  824MOL0     C11110   5.835   4.154   7.914  0.1271  0.3347  0.2301
  824MOL0     C11111   5.819   4.119   7.774 -0.4955  0.0908 -0.7665
  824MOL0     C11112   5.729   4.195   7.696 -0.3256 -0.2988 -0.2909
  824MOL0     O11113   5.723   4.174   7.560  0.2089  0.3361 -0.0609
  824MOL0     C11114   5.642   4.250   7.473  0.1695  0.8616  1.3644
  824MOL0     C11115   5.487   4.209   7.479  0.3447  0.3565  0.4290
  824MOL0     C11116   5.457   4.075   7.414 -1.1784  0.7094 -0.1602
  824MOL0     C11117   5.311   4.027   7.431 -0.1594  0.3150  0.0905
  824MOL0     C11118   5.304   3.895   7.366  0.3956  0.4079  0.0198
  824MOL0     C11119   5.196   3.807   7.425  0.3567 -0.5007 -0.0928
  824MOL0     C11120   5.055   3.873   7.407 -1.5145 -0.2298 -0.7099
  824MOL0     C11121   4.935   3.802   7.460 -0.6839  0.0274 -0.3251
  824MOL0     N11122   4.892   3.706   7.352 -0.1517  0.4835  0.6197
  824MOL0     C11123   4.940   3.572   7.328 -0.2665  0.0709  0.1628
  824MOL0     C11124   4.854   3.532   7.234  0.0314  0.5864 -0.2509
  824MOL0     C11125   4.869   3.405   7.144  0.3327 -1.1458  0.7781
  824MOL0     C11126   4.987   3.408   7.039  0.9930 -0.3271 -0.4461
  824MOL0     C11127   5.114   3.344   7.081 -0.1860 -0.1771 -0.0444
  824MOL0     C11128   5.226   3.345   6.980  0.1525 -0.5219 -0.0819
  824MOL0     O11129   5.241   3.220   6.907  0.2874 -0.2569 -0.8330
  824MOL0     C11130   5.283   3.224   6.772 -0.7457 -0.4907 -0.0877
  824MOL0     C11131   5.256   3.333   6.682  0.1484  0.2647 -0.4840
  824MOL0     C11132   5.302   3.322   6.553 -0.8820 -0.4223 -0.1775
  824MOL0     C11133   5.281   3.433   6.455  0.3392  0.8511 -0.1515
  824MOL0     C11134   5.375   3.202   6.509  0.1784 -0.3047 -0.9138
  824MOL0     C11135   5.433   3.190   6.371 -0.3246 -0.2642 -0.1292
  824MOL0     O11136   5.566   3.182   6.372  0.9190 -0.3431 -0.2027
  824MOL0     C11137   5.642   3.202   6.262 -0.3399  0.1231  0.3271
  824MOL0     C11138   5.745   3.118   6.240 -0.2427  0.5473  0.2062
  824MOL0     C11139   5.823   3.141   6.127  0.2424  0.3771 -0.0123
  824MOL0     C11140   5.795   3.242   6.038 -0.2242  0.1078  0.2869
  824MOL0     O11141   5.874   3.258   5.925  0.2871 -0.5832  0.1782
  824MOL0     C11142   6.011   3.209   5.917  0.9765  0.1774 -0.0703
  824MOL0     C11143   6.115   3.297   6.003  0.7162 -0.0564  0.8516
  824MOL0     C11144   6.102   3.441   5.951 -0.0246 -0.3424 -0.0962
  824MOL0     C11145   6.177   3.565   6.029  0.7237  0.1354 -0.6997
  824MOL0     C11146   6.160   3.576   6.182  1.1192  0.4897  0.0336
  824MOL0     C11147   6.038   3.645   6.230 -0.3027 -0.1664  0.1418
  824MOL0     C11148   5.912   3.561   6.232  0.4916  0.3473 -0.2534
  824MOL0     C11149   5.825   3.621   6.343 -0.4187 -0.0259 -0.5576
  824MOL0    Cl11150   5.882   3.580   6.507 -0.0898 -0.3291 -0.2670
  824MOL0     C11151   5.701   3.327   6.065  0.0868  0.1253  0.5537
  824MOL0     C11152   5.612   3.303   6.172 -0.6613 -1.3029  0.2561
  824MOL0     O11153   5.364   3.200   6.269 -0.1384  0.3709 -0.3318
  824MOL0     C11154   5.391   3.093   6.602  0.7172  0.7870  0.0199
  824MOL0     C11155   5.347   3.107   6.731 -0.3217  0.3932  0.1552
  824MOL0     N11156   4.772   3.634   7.199 -0.1734 -0.7601 -0.2568
  824MOL0     N11157   4.793   3.733   7.271  0.1689 -0.1025 -0.8296
  824MOL0     C11158   5.668   4.309   7.765  0.6726  0.3251 -0.5244
  824MOL0     C11159   5.674   4.339   7.900  0.5760 -0.6982  0.7661
  824MOL0     C11160   5.891   4.374   8.299 -0.2546  1.5647 -0.5710
  824MOL0     C11161   6.016   4.416   8.356  0.6627 -0.5883 -0.1103
  824MOL0     C11162   6.022   4.480   8.483 -0.4866 -0.0323 -0.4492
  824MOL0     C11163   5.907   4.488   8.562  0.1042  0.2231  0.8645
  824MOL0     O11164   5.900   4.549   8.686  0.8437  0.2730  0.1735
  824MOL0     C11165   6.025   4.595   8.731 -1.0890 -0.4361 -0.7417
  824MOL0     C11166   6.012   4.641   8.880  1.0383 -0.4234  0.3998
  824MOL0     C11167   5.976   4.525   8.969 -0.4350 -0.2697  1.0837
  824MOL0     C11168   6.085   4.505   9.085 -0.3614 -0.2500 -0.1242
  824MOL0     C11169   6.219   4.502   9.030  0.6456  0.0581 -0.0327
  824MOL0     C11170   6.326   4.489   8.989 -0.4703 -1.0387 -0.8512
  824MOL0     C11171   5.786   4.431   8.510 -0.7320 -0.4099  0.4547
  824MOL0     C11172   5.772   4.381   8.376  0.2059  0.2064  0.0888
  824MOL0     H11173   5.925   4.110   7.957  2.9808  4.0450 -1.3191
  824MOL0     H11174   5.878   4.044   7.723 -0.1892 -0.4948  0.4026
  824MOL0     H11175   5.664   4.354   7.498  1.3546  0.7228  0.9677
  824MOL0     H11176   5.676   4.234   7.370  0.6782 -0.6831  1.7438
  824MOL0     H11177   5.442   4.211   7.579 -0.3152  0.8942  0.1317
  824MOL0     H11178   5.439   4.298   7.436  3.6423  1.6947 -0.8547
  824MOL0     H11179   5.500   4.077   7.314 -0.8771 -3.8160 -0.3396
  824MOL0     H11180   5.523   4.001   7.460  2.5961  4.3455  0.8689
  824MOL0     H11181   5.281   4.020   7.536 -1.4885  0.4255 -0.2629
  824MOL0     H11182   5.236   4.092   7.383 -2.9832  0.7697  4.5500
  824MOL0     H11183   5.297   3.921   7.260 -0.9530 -0.8803 -0.2428
  824MOL0     H11184   5.396   3.851   7.405  0.9334  4.0379  3.3516
  824MOL0     H11185   5.210   3.712   7.371  0.7327  1.1168 -3.0268
  824MOL0     H11186   5.212   3.782   7.530  2.6894 -0.1540 -0.3143
  824MOL0     H11187   5.059   3.975   7.447  0.6688 -0.4009 -0.3475
  824MOL0     H11188   5.038   3.882   7.299  0.9510  0.3484 -1.0986
  824MOL0     H11189   4.852   3.872   7.477 -3.1210 -2.4992 -1.1135
  824MOL0     H11190   4.958   3.743   7.549 -0.1450  0.3852 -0.2201
  824MOL0     H11191   5.024   3.524   7.377 -1.2867 -0.7126  1.1911
  824MOL0     H11192   4.880   3.320   7.211  0.4291  0.8070  3.3711
  824MOL0     H11193   4.785   3.388   7.077  1.3307  1.6998 -1.4114
  824MOL0     H11194   5.005   3.513   7.015 -1.0828  1.0985  3.3659
  824MOL0     H11195   4.953   3.356   6.949 -2.2749  0.3701  0.2524
  824MOL0     H11196   5.095   3.241   7.114 -2.1290 -1.5547 -4.7210
  824MOL0     H11197   5.147   3.402   7.169 -1.8477  0.8585 -0.0655
  824MOL0     H11198   5.317   3.363   7.038 -0.3541 -1.3247  1.0059
  824MOL0     H11199   5.221   3.433   6.915  2.5991 -0.4769 -0.3250
  824MOL0     H11200   5.213   3.430   6.703  2.1839  1.2157 -0.4908
  824MOL0     H11201   5.205   3.405   6.382 -0.3024 -1.0521  1.1616
  824MOL0     H11202   5.242   3.520   6.508 -0.0572  1.1065 -0.8557
  824MOL0     H11203   5.378   3.455   6.407  1.5408  0.0495  1.7817
  824MOL0     H11204   5.770   3.036   6.306 -0.1205 -0.6094 -1.2385
  824MOL0     H11205   5.905   3.079   6.092  0.2814  2.1681 -3.4679
  824MOL0     H11206   6.025   3.110   5.959  1.2913  0.1084 -0.3334
  824MOL0     H11207   6.040   3.213   5.811  2.3536  1.5222  0.3137
  824MOL0     H11208   6.086   3.308   6.108 -0.3340 -0.9426  0.6659
  824MOL0     H11209   6.213   3.248   5.996  0.8738  0.0789  1.8894
  824MOL0     H11210   5.997   3.468   5.946  0.5656  2.1956  0.1278
  824MOL0     H11211   6.133   3.435   5.846  1.1640 -2.1451  0.3053
  824MOL0     H11212   6.285   3.558   6.014  0.9757  0.0471  0.9928
  824MOL0     H11213   6.147   3.658   5.980 -0.2791  2.3996  3.6680
  824MOL0     H11214   6.243   3.633   6.223  2.4679 -0.8631 -0.6789
  824MOL0     H11215   6.158   3.475   6.225 -2.1878  0.8044  0.9026
  824MOL0     H11216   6.060   3.674   6.333 -2.6096  0.5079  0.5005
  824MOL0     H11217   6.015   3.730   6.165 -0.8819  0.5943  1.3055
  824MOL0     H11218   5.932   3.456   6.254 -0.6683 -0.2102 -1.7344
  824MOL0     H11219   5.862   3.564   6.135  4.3193  1.5246 -2.4461
  824MOL0     H11220   5.718   3.601   6.335 -0.5788 -1.0029  2.7544
  824MOL0     H11221   5.826   3.729   6.332  1.6875  0.2074  1.3349
  824MOL0     H11222   5.672   3.414   6.008  2.2073  1.2574  1.1076
  824MOL0     H11223   5.533   3.375   6.194  0.8600  0.4673  0.2152
  824MOL0     H11224   5.440   3.002   6.571 -2.3246 -1.1351  0.3799
  824MOL0     H11225   5.377   3.026   6.796 -1.0813 -2.4947 -2.8551
  824MOL0     H11226   5.609   4.372   7.700 -0.6201 -1.5645 -1.2622
  824MOL0     H11227   5.630   4.428   7.943  1.4725  1.1249 -1.8052
  824MOL0     H11228   6.110   4.402   8.304  0.6998 -1.7937  0.2475
  824MOL0     H11229   6.124   4.514   8.500 -1.8394  2.8719  3.3881
  824MOL0     H11230   6.111   4.530   8.715 -0.2788  0.9680 -2.5084
  824MOL0     H11231   6.054   4.681   8.669  0.6929 -0.2164  0.3124
  824MOL0     H11232   5.938   4.721   8.893  2.1576  0.3352  2.7703
  824MOL0     H11233   6.099   4.704   8.902 -0.7006  2.0806  0.5887
  824MOL0     H11234   5.971   4.439   8.901 -0.3476  1.1468 -0.7967
  824MOL0     H11235   5.883   4.546   9.023 -0.4591 -1.8216  1.6983
  824MOL0     H11236   6.076   4.405   9.129  1.6745  0.2228  1.4893
  824MOL0     H11237   6.083   4.586   9.158  1.8851  0.1865 -0.4955
  824MOL0     H11238   6.430   4.488   8.963  1.0832 -1.0658  4.3089
  824MOL0     H11239   5.695   4.442   8.568 -1.6846  0.4473 -1.1432
  824MOL0     H11240   5.681   4.362   8.319 -0.6903  0.7884  1.2698
  825MOL0     O11241   5.141   4.223   6.032  0.5347  0.3140 -0.4012
  825MOL0     C11242   5.066   4.154   6.108  0.3002 -0.2204  0.4387
  825MOL0     O11243   5.031   4.027   6.075 -0.9971  0.3631  0.3068
  825MOL0     C11244   5.087   3.958   5.963 -0.8640 -0.7054  0.3730
  825MOL0     C11245   5.215   3.917   5.947 -0.7244 -0.1532 -0.3503
  825MOL0     C11246   5.250   3.840   5.835 -0.3049 -1.0675  0.4012
  825MOL0     C11247   5.161   3.793   5.742  0.3460  0.0194 -0.2332
  825MOL0     O11248   5.194   3.723   5.630 -0.2569 -0.5490  0.4447
  825MOL0     C11249   5.311   3.651   5.647 -0.0714  0.1123 -0.0436
  825MOL0     C11250   5.332   3.581   5.510 -0.2185  0.2598 -0.1641
  825MOL0     C11251   5.392   3.675   5.402  0.0567  0.0785 -0.0459
  825MOL0     C11252   5.419   3.586   5.278  0.1010 -0.1853 -0.4148
  825MOL0     C11253   5.460   3.658   5.152 -0.2860 -1.1180 -0.2019
  825MOL0     C11254   5.607   3.712   5.140 -0.4804  0.5617  0.0521
  825MOL0     C11255   5.653   3.730   4.993  0.1749  0.1180 -0.9019
  825MOL0     C11256   5.694   3.588   4.944  0.8140 -0.3633  0.3401
  825MOL0     N11257   5.738   3.576   4.807  0.0965  0.6195  0.8276
  825MOL0     C11258   5.819   3.658   4.747  0.0584  0.5476  0.3539
  825MOL0     C11259   5.842   3.603   4.626  0.2933  1.7880  0.7088
  825MOL0     C11260   5.920   3.642   4.516 -0.8437  0.0671 -0.2260
  825MOL0     C11261   6.064   3.650   4.562  0.0856  1.1176  1.2600
  825MOL0     C11262   6.154   3.696   4.434  1.0000 -0.8215 -0.4733
  825MOL0     C11263   6.108   3.835   4.372  0.3870 -1.0758  0.1627
  825MOL0     O11264   6.205   3.891   4.285 -0.1569 -0.3316  0.5136
  825MOL0     C11265   6.303   3.974   4.334  0.2298 -0.2952  0.5875
  825MOL0     C11266   6.399   4.006   4.238 -0.1123 -0.4149 -0.1740
  825MOL0     C11267   6.505   4.097   4.254  0.5752  0.2604  0.4854
  825MOL0     C11268   6.594   4.138   4.130  0.3610  0.9422  0.0947
  825MOL0     C11269   6.523   4.146   4.386 -0.6021 -0.5114 -1.0266
  825MOL0     C11270   6.640   4.237   4.427 -0.3325  0.3800 -0.2207
  825MOL0     O11271   6.711   4.311   4.334 -0.0527  1.3556  0.3045
  825MOL0     C11272   6.818   4.383   4.390 -1.1241  0.1558 -0.2159
  825MOL0     C11273   6.801   4.511   4.451 -0.6149  0.6425 -0.2925
  825MOL0     C11274   6.903   4.574   4.517  0.0778  0.2160 -0.3525
  825MOL0     C11275   7.024   4.503   4.537  0.1499 -0.1857  0.7030
  825MOL0     O11276   7.121   4.549   4.619  0.5637  0.7504  0.3624
  825MOL0     C11277   7.202   4.650   4.563 -0.8680 -0.1166  1.0095
  825MOL0     C11278   7.231   4.759   4.661 -0.8184 -0.7850  0.4550
  825MOL0     C11279   7.290   4.702   4.782  0.7013 -0.8039  1.0142
  825MOL0     C11280   7.319   4.808   4.891 -0.4614 -0.1284  0.1434
  825MOL0     C11281   7.424   4.907   4.835  0.2510  0.5894 -0.6428
  825MOL0     C11282   7.481   5.001   4.934 -0.2957  0.5485 -0.1672
  825MOL0     C11283   7.555   5.117   4.858 -0.9291 -0.3940 -0.5355
  825MOL0     C11284   7.621   5.200   4.964  0.1094  0.0464 -0.6274
  825MOL0    Cl11285   7.521   5.294   5.080 -0.1325 -0.5919  0.2938
  825MOL0     C11286   7.044   4.392   4.460 -0.2398 -0.6169  0.5420
  825MOL0     C11287   6.947   4.329   4.382 -0.2485 -0.1528  0.2536
  825MOL0     O11288   6.674   4.223   4.546  0.0137 -0.5351 -0.1882
  825MOL0     C11289   6.433   4.110   4.482  0.5165 -1.0641 -0.9647
  825MOL0     C11290   6.322   4.029   4.465  0.2878 -0.4530 -0.5908
  825MOL0     N11291   5.777   3.475   4.624 -0.6804 -0.5878  0.9049
  825MOL0     N11292   5.711   3.463   4.734 -0.1629  0.5778 -0.5805
  825MOL0     C11293   5.029   3.818   5.771 -0.0709 -0.7125  0.2480
  825MOL0     C11294   4.994   3.915   5.874 -0.6864  0.4861  0.5462
  825MOL0     C11295   5.030   4.212   6.236  0.1892  0.0306  1.1598
  825MOL0     C11296   4.945   4.146   6.321  0.0207 -0.1334  1.2258
  825MOL0     C11297   4.892   4.211   6.430 -1.2969  0.0907 -0.0060
  825MOL0     C11298   4.944   4.328   6.475 -0.5410 -1.3355 -0.8687
  825MOL0     O11299   4.918   4.391   6.591 -0.2226  0.4361  0.0871
  825MOL0     C11300   4.863   4.321   6.698 -0.3334 -0.2020 -0.3718
  825MOL0     C11301   4.967   4.231   6.766 -0.2339  0.7633 -0.0926
  825MOL0     C11302   4.957   4.222   6.913  0.8208 -0.1060  0.3110
  825MOL0     C11303   5.035   4.332   6.983 -0.0645  0.2270 -0.4360
  825MOL0     C11304   5.171   4.294   6.995 -0.5442  0.5301 -0.0872
  825MOL0     C11305   5.283   4.265   7.035  0.2863  0.7517 -0.1394
  825MOL0     C11306   5.020   4.405   6.379  0.0767 -0.1336 -0.2191
  825MOL0     C11307   5.053   4.346   6.261 -0.2044  0.3802 -0.0298
  825MOL0     H11308   5.277   3.952   6.029 -2.6115 -1.4177  1.7269
  825MOL0     H11309   5.358   3.849   5.833 -0.2304 -1.5581 -2.4502
  825MOL0     H11310   5.393   3.723   5.661 -1.6215  2.4115 -1.8147
  825MOL0     H11311   5.305   3.584   5.733  2.3473 -1.7343 -1.1971
  825MOL0     H11312   5.397   3.494   5.523  0.3403  0.9673  2.3618
  825MOL0     H11313   5.238   3.546   5.466 -0.8493  2.4047 -0.6159
  825MOL0     H11314   5.311   3.746   5.383 -0.4937 -1.0544 -2.3413
  825MOL0     H11315   5.484   3.726   5.434 -0.8798  0.3379  2.3823
  825MOL0     H11316   5.500   3.514   5.290 -0.4342 -0.6115  0.7599
  825MOL0     H11317   5.327   3.530   5.259 -0.3395 -0.1927  1.4814
  825MOL0     H11318   5.461   3.578   5.077  2.9545 -2.1496  0.7531
  825MOL0     H11319   5.397   3.739   5.114  0.8204 -1.1424 -2.2806
  825MOL0     H11320   5.602   3.815   5.179 -0.7901 -0.5598  3.3194
  825MOL0     H11321   5.685   3.655   5.191 -0.2118  2.7008  2.2183
  825MOL0     H11322   5.563   3.756   4.938 -0.9683  1.3476  1.4121
  825MOL0     H11323   5.739   3.797   4.983  0.1301  0.2410 -0.4658
  825MOL0     H11324   5.607   3.522   4.955 -0.2823  1.1611  1.1884
  825MOL0     H11325   5.776   3.557   5.010 -0.9891 -1.4112  2.1914
  825MOL0     H11326   5.863   3.755   4.768  0.3664  0.7125 -0.9320
  825MOL0     H11327   5.907   3.580   4.427  1.1205 -1.0280  0.1847
  825MOL0     H11328   5.880   3.744   4.509 -3.2182 -0.6370  1.7535
  825MOL0     H11329   6.111   3.554   4.585  0.1962  0.5070 -1.1841
  825MOL0     H11330   6.082   3.718   4.645  1.8746  0.7310  1.2444
  825MOL0     H11331   6.151   3.618   4.357  0.3138 -1.7829  0.4827
  825MOL0     H11332   6.255   3.708   4.474  0.3246 -1.8770  1.6916
  825MOL0     H11333   6.081   3.906   4.451  0.9050 -0.0941 -0.5141
  825MOL0     H11334   6.012   3.820   4.323 -0.1129 -0.0829  0.7892
  825MOL0     H11335   6.387   3.965   4.138 -0.6751 -0.6801  0.0023
  825MOL0     H11336   6.540   4.109   4.040  0.6848  3.6491 -1.0730
  825MOL0     H11337   6.607   4.246   4.122  4.1042  0.4957 -3.2883
  825MOL0     H11338   6.697   4.100   4.134 -0.6232 -1.8829  1.3667
  825MOL0     H11339   6.702   4.554   4.457 -1.2582 -0.8390  0.2107
  825MOL0     H11340   6.886   4.662   4.578 -0.0363  1.4476 -2.1161
  825MOL0     H11341   7.294   4.611   4.519 -0.0088  3.7887 -1.1098
  825MOL0     H11342   7.155   4.702   4.479 -0.7448  1.7528  2.0546
  825MOL0     H11343   7.304   4.830   4.621 -0.9276 -0.7102  0.3899
  825MOL0     H11344   7.136   4.804   4.691 -1.1272 -1.5110  0.5827
  825MOL0     H11345   7.378   4.641   4.758 -0.1721 -1.3702 -0.8892
  825MOL0     H11346   7.229   4.627   4.833 -2.1544  0.6631 -0.0358
  825MOL0     H11347   7.223   4.854   4.916  0.1907 -0.1348  2.9422
  825MOL0     H11348   7.365   4.755   4.975 -0.5339 -1.7742 -0.8016
  825MOL0     H11349   7.374   4.968   4.760 -2.7417  0.8117  1.3723
  825MOL0     H11350   7.506   4.849   4.792 -2.2518 -2.8412 -1.1754
  825MOL0     H11351   7.409   5.034   5.009  1.6097 -1.3107  2.6672
  825MOL0     H11352   7.568   4.954   4.982  1.4945  1.1433 -2.6457
  825MOL0     H11353   7.489   5.177   4.794 -1.0900 -1.2229 -1.1586
  825MOL0     H11354   7.632   5.083   4.789  1.5602  2.6852  0.4948
  825MOL0     H11355   7.689   5.268   4.912  2.6871 -2.0771 -0.2684
  825MOL0     H11356   7.694   5.133   5.010  0.9876  0.2420 -1.6949
  825MOL0     H11357   7.138   4.338   4.467  0.4633  0.1437 -1.9957
  825MOL0     H11358   6.974   4.246   4.318 -0.1796  2.4084 -3.3188
  825MOL0     H11359   6.454   4.148   4.581 -0.2932 -4.3207  0.5656
  825MOL0     H11360   6.245   4.012   4.540 -2.9085 -3.2765 -4.0493
  825MOL0     H11361   4.950   3.773   5.712 -1.3280  0.7558  0.7457
  825MOL0     H11362   4.889   3.939   5.888 -0.1633  3.4884  0.0136
  825MOL0     H11363   4.902   4.048   6.301  0.2795 -0.2178  1.0744
  825MOL0     H11364   4.821   4.150   6.485 -1.5868 -0.1695 -0.6561
  825MOL0     H11365   4.827   4.396   6.770  2.7759  0.4293  0.6962
  825MOL0     H11366   4.776   4.262   6.668 -0.9373 -0.1418  1.1687
  825MOL0     H11367   5.071   4.259   6.747  0.1809 -1.4351 -1.5188
  825MOL0     H11368   4.962   4.125   6.737  0.0458  0.4119  1.0837
  825MOL0     H11369   4.966   4.118   6.945 -0.5845 -0.2206  0.4202
  825MOL0     H11370   4.851   4.239   6.937  0.1844 -0.4230 -1.9548
  825MOL0     H11371   4.993   4.335   7.084  1.7395 -0.5879  0.3720
  825MOL0     H11372   5.020   4.434   6.946  2.0911  1.1427  1.0288
  825MOL0     H11373   5.382   4.238   7.063 -0.3081 -0.7327  0.6402
  825MOL0     H11374   5.047   4.510   6.388 -1.3671  0.6449 -3.5169
  825MOL0     H11375   5.108   4.400   6.185 -0.8330 -0.1729 -0.8945
  826MOL0     O11376  10.022  10.992   0.369  0.3423  0.2737 -0.1892
  826MOL0     C11377  10.114  11.002   0.289 -0.2467 -0.6641  0.7193
  826MOL0     O11378  10.227  10.926   0.280  0.2772  0.0433  0.1495
  826MOL0     C11379  10.234  10.818   0.358 -0.7581 -0.5779 -0.9338
  826MOL0     C11380  10.240  10.697   0.297  0.3508  0.3618  0.3252
  826MOL0     C11381  10.259  10.578   0.364 -0.1248 -0.0458 -0.6612
  826MOL0     C11382  10.277  10.589   0.508  0.2455  0.2957  0.2787
  826MOL0     O11383  10.298  10.477   0.583  0.7411  0.5256  0.1579
  826MOL0     C11384  10.381  10.374   0.529 -0.2846 -0.0301  0.3320
  826MOL0     C11385  10.516  10.424   0.451  0.7341  0.2025  0.6243
  826MOL0     C11386  10.594  10.290   0.415 -0.1987  0.7819 -0.1738
  826MOL0     C11387  10.735  10.313   0.459 -0.5508  0.0551 -0.3084
  826MOL0     C11388  10.824  10.188   0.460  0.3705  0.1428  0.0542
  826MOL0     C11389  10.952  10.187   0.543 -0.0580 -0.4037  0.0483
  826MOL0     C11390  10.990  10.031   0.551 -0.3915 -0.0725  0.4879
  826MOL0     C11391  11.120  10.022   0.631  0.7119  0.5351  0.4344
  826MOL0     N11392  11.173   9.891   0.645 -0.4707 -0.1520 -0.9612
  826MOL0     C11393  11.239   9.815   0.540  0.4890  0.5549  0.2890
  826MOL0     C11394  11.260   9.696   0.596 -0.7478  0.2508 -0.4588
  826MOL0     C11395  11.323   9.575   0.536  0.5713  0.0507  0.5680
  826MOL0     C11396  11.477   9.598   0.525 -0.3562 -0.9110 -0.0309
  826MOL0     C11397  11.571   9.482   0.489  0.3242  0.0665 -1.2779
  826MOL0     C11398  11.510   9.344   0.536  0.2271 -0.4986 -0.6505
  826MOL0     O11399  11.507   9.313   0.677 -0.1230 -0.3179  0.6295
  826MOL0     C11400  11.619   9.323   0.753 -1.4766 -0.4795  0.4249
  826MOL0     C11401  11.751   9.283   0.709 -0.6005  0.2735 -0.9081
  826MOL0     C11402  11.869   9.314   0.785  0.1364  0.4205  0.0500
  826MOL0     C11403  12.008   9.287   0.722  0.0118 -0.6671  0.2747
  826MOL0     C11404  11.846   9.353   0.920 -0.2883  0.7521 -0.5761
  826MOL0     C11405  11.959   9.384   1.024  0.1224 -0.4132  0.3796
  826MOL0     O11406  11.919   9.418   1.157 -0.2712  0.7255 -0.0704
  826MOL0     C11407  12.016   9.443   1.248 -0.0021  0.2101  1.1027
  826MOL0     C11408  12.076   9.571   1.263 -0.2798 -0.4979 -0.4313
  826MOL0     C11409  12.182   9.591   1.358  0.7909  0.6300 -0.1330
  826MOL0     C11410  12.226   9.479   1.436  0.5409  0.3244  0.3122
  826MOL0     O11411  12.327   9.520   1.524 -0.2913  0.1630 -0.2029
  826MOL0     C11412  12.386   9.424   1.604  0.6789 -0.0201 -0.6659
  826MOL0     C11413  12.465   9.478   1.715 -0.0981  0.0121  0.0280
  826MOL0     C11414  12.527   9.379   1.817 -0.3339  0.7464  0.1061
  826MOL0     C11415  12.652   9.437   1.881 -0.0456 -0.0489 -0.0796
  826MOL0     C11416  12.716   9.347   1.983  0.0363  0.5836 -0.6611
  826MOL0     C11417  12.833   9.416   2.060 -0.7364 -1.1192  0.8274
  826MOL0     C11418  12.925   9.313   2.130  0.6253 -0.1898 -1.5883
  826MOL0     C11419  12.981   9.201   2.045 -0.4598 -0.6900  0.4159
  826MOL0    Cl11420  13.059   9.070   2.143 -0.5938 -0.3687 -0.0158
  826MOL0     C11421  12.161   9.354   1.416 -0.2129 -0.5799  0.0911
  826MOL0     C11422  12.058   9.333   1.330  0.6857 -0.7421 -0.0928
  826MOL0     O11423  12.077   9.370   0.992 -0.8805 -0.0662  0.7967
  826MOL0     C11424  11.712   9.391   0.967 -0.4332  0.4291 -0.1642
  826MOL0     C11425  11.603   9.367   0.880 -0.1812 -1.6435 -0.6884
  826MOL0     N11426  11.229   9.703   0.731  0.0440 -1.0036  0.4900
  826MOL0     N11427  11.175   9.811   0.760  0.1486  0.2610 -0.0009
  826MOL0     C11428  10.278  10.714   0.570  0.8220 -0.1639 -0.1989
  826MOL0     C11429  10.257  10.830   0.499  0.3762 -0.7743 -0.7826
  826MOL0     C11430  10.116  11.114   0.191 -0.1814 -0.1795 -0.4710
  826MOL0     C11431  10.012  11.208   0.201  0.2817 -0.3899 -0.3072
  826MOL0     C11432  10.009  11.322   0.118  0.2106 -0.0703 -0.0709
  826MOL0     C11433  10.122  11.354   0.032  0.3657 -0.0224  0.5458
  826MOL0     O11434  10.116  11.457  -0.057  0.1722 -1.0644 -0.2100
  826MOL0     C11435  10.240  11.511  -0.102 -0.4178 -0.3110  0.1858
  826MOL0     C11436  10.333  11.569   0.014  0.1793  0.5644 -0.3007
  826MOL0     C11437  10.461  11.641  -0.016 -0.6293 -0.8278 -0.2323
  826MOL0     C11438  10.564  11.550  -0.095 -0.0882 -0.7065 -1.1020
  826MOL0     C11439  10.541  11.579  -0.233 -0.1942 -0.3417  0.2045
  826MOL0     C11440  10.514  11.610  -0.344  0.0111 -0.5368  0.1075
  826MOL0     C11441  10.232  11.264   0.032 -0.3450  0.5660  0.1501
  826MOL0     C11442  10.232  11.142   0.109 -0.4486  0.2869 -0.2945
  826MOL0     H11443  10.228  10.685   0.190 -1.2192 -0.7246  0.5885
  826MOL0     H11444  10.276  10.490   0.302 -0.2817  0.0275 -0.8086
  826MOL0     H11445  10.418  10.317   0.614  2.0081 -1.7119 -1.6435
  826MOL0     H11446  10.325  10.320   0.451  0.3775  1.1407 -0.9989
  826MOL0     H11447  10.515  10.478   0.356  0.8942  1.0523  1.0941
  826MOL0     H11448  10.572  10.487   0.521 -0.5824  0.5649  1.3700
  826MOL0     H11449  10.558  10.197   0.460 -0.7869  2.4388  3.0522
  826MOL0     H11450  10.602  10.283   0.306  4.2162 -1.0582  0.0789
  826MOL0     H11451  10.779  10.388   0.392  1.2483 -2.1192 -1.6889
  826MOL0     H11452  10.742  10.346   0.563 -3.5468  0.8904 -0.2835
  826MOL0     H11453  10.763  10.109   0.504  0.4724  0.8855  1.6083
  826MOL0     H11454  10.844  10.160   0.357  1.3535 -1.9653  0.7628
  826MOL0     H11455  11.030  10.244   0.491  1.3521 -0.6038  1.8465
  826MOL0     H11456  10.939  10.229   0.644  1.7700 -3.1288  1.5431
  826MOL0     H11457  10.916   9.967   0.600 -0.4898 -0.0015  0.4312
  826MOL0     H11458  11.020  10.013   0.447 -0.2540  0.2252  0.4719
  826MOL0     H11459  11.120  10.056   0.735 -0.0589 -0.4338  0.7711
  826MOL0     H11460  11.200  10.073   0.577  1.4376 -2.1983 -1.3081
  826MOL0     H11461  11.263   9.842   0.438  5.5352  0.7342  1.2529
  826MOL0     H11462  11.295   9.494   0.603 -2.6379 -0.5202 -1.2740
  826MOL0     H11463  11.281   9.558   0.436 -2.7568 -0.8900  2.0066
  826MOL0     H11464  11.514   9.634   0.621 -1.7118  2.0101 -0.4845
  826MOL0     H11465  11.506   9.670   0.447  0.6223  0.5412  1.6015
  826MOL0     H11466  11.663   9.495   0.547 -0.6090  1.9653 -0.1436
  826MOL0     H11467  11.601   9.476   0.384  1.4097  2.1688 -1.1342
  826MOL0     H11468  11.549   9.257   0.483 -1.9003 -2.3389  0.6050
  826MOL0     H11469  11.406   9.334   0.502 -0.5560 -0.9513  1.7003
  826MOL0     H11470  11.757   9.255   0.604 -1.9188 -2.2391 -0.3744
  826MOL0     H11471  12.064   9.381   0.724  0.7371 -1.0967  1.7063
  826MOL0     H11472  12.067   9.210   0.772 -0.1053 -1.1174 -0.2633
  826MOL0     H11473  12.004   9.254   0.618  4.6506  0.6955 -0.5925
  826MOL0     H11474  12.069   9.646   1.186  0.3636  0.9766  0.8872
  826MOL0     H11475  12.216   9.694   1.367  0.4384  0.6348  1.4818
  826MOL0     H11476  12.314   9.348   1.637  2.2319 -2.5035 -2.5961
  826MOL0     H11477  12.458   9.366   1.545 -0.5104 -0.5624 -1.6202
  826MOL0     H11478  12.542   9.546   1.678  0.1960 -1.2644 -1.8988
  826MOL0     H11479  12.401   9.548   1.770  0.1156  0.6368 -0.5051
  826MOL0     H11480  12.557   9.289   1.763  1.1902  0.6092  1.1340
  826MOL0     H11481  12.460   9.362   1.902 -1.4012  3.6189 -0.0279
  826MOL0     H11482  12.722   9.471   1.805  0.0678 -0.8474 -0.3374
  826MOL0     H11483  12.614   9.529   1.928  0.5494 -0.7716  1.9097
  826MOL0     H11484  12.762   9.264   1.930  3.3268  0.3237  2.2075
  826MOL0     H11485  12.640   9.298   2.045 -0.2171 -1.7293 -2.6723
  826MOL0     H11486  12.892   9.468   1.985  0.1035 -0.7152  1.7485
  826MOL0     H11487  12.794   9.495   2.125  3.1857 -1.5360  4.0809
  826MOL0     H11488  12.863   9.262   2.203  2.1578 -0.7041 -0.6111
  826MOL0     H11489  13.005   9.369   2.178  0.9623 -0.3824 -1.9225
  826MOL0     H11490  13.047   9.247   1.970  0.2073 -1.1413  0.7113
  826MOL0     H11491  12.903   9.148   1.990  1.7945 -3.0229 -0.7848
  826MOL0     H11492  12.190   9.268   1.476  2.2446 -1.4059 -2.0790
  826MOL0     H11493  12.006   9.239   1.321 -3.9799  1.4633  0.8584
  826MOL0     H11494  11.692   9.418   1.070 -2.1451  0.4584 -0.4731
  826MOL0     H11495  11.507   9.391   0.924  0.1920 -1.3600  0.0030
  826MOL0     H11496  10.292  10.718   0.677 -0.1409  0.7045 -0.0896
  826MOL0     H11497  10.251  10.927   0.548 -0.6332 -0.7629 -0.9012
  826MOL0     H11498   9.925  11.185   0.262  0.2865  0.1020 -0.1147
  826MOL0     H11499   9.918  11.380   0.134 -0.1745 -0.8487  0.6502
  826MOL0     H11500  10.301  11.450  -0.168  2.6847  3.4743 -0.8413
  826MOL0     H11501  10.216  11.601  -0.159  1.7493 -0.8790 -1.7570
  826MOL0     H11502  10.344  11.494   0.094  2.5694  0.3130 -0.7862
  826MOL0     H11503  10.279  11.649   0.065 -0.3846  3.1232 -4.4713
  826MOL0     H11504  10.500  11.670   0.082 -1.5384 -0.7494  0.1145
  826MOL0     H11505  10.432  11.730  -0.072  1.0929  1.3866  2.0809
  826MOL0     H11506  10.563  11.444  -0.067  0.0828 -0.7852 -1.3866
  826MOL0     H11507  10.660  11.570  -0.047 -0.4353 -4.4865  1.6736
  826MOL0     H11508  10.492  11.640  -0.445 -1.6360 -1.7776  0.0683
  826MOL0     H11509  10.327  11.274  -0.019  0.5806 -1.6856  1.2869
  826MOL0     H11510  10.317  11.075   0.096  1.1759  2.1294  0.3604
  827MOL0     O11511   7.720   8.398   5.335  0.0277 -0.3726  1.5587
  827MOL0     C11512   7.727   8.354   5.221 -0.4654  0.6573 -0.6314
  827MOL0     O11513   7.839   8.368   5.142 -0.4106  0.0705 -0.2452
  827MOL0     C11514   7.961   8.422   5.182  0.7286  0.9535  0.3333
  827MOL0     C11515   7.959   8.540   5.244  0.3020  0.3590  0.0687
  827MOL0     C11516   8.073   8.596   5.299 -0.0736 -0.1560 -0.3670
  827MOL0     C11517   8.199   8.545   5.266 -0.0572  0.1538 -1.2573
  827MOL0     O11518   8.315   8.609   5.314  0.3312 -0.1228  0.0144
  827MOL0     C11519   8.411   8.519   5.366  0.4711 -0.4474 -0.1239
  827MOL0     C11520   8.487   8.604   5.455 -0.4277 -0.3031 -0.5451
  827MOL0     C11521   8.595   8.536   5.545 -0.2101  0.0788 -0.1887
  827MOL0     C11522   8.538   8.432   5.655 -0.0715 -0.1532 -0.2188
  827MOL0     C11523   8.467   8.489   5.770  0.4364 -0.9657 -0.1099
  827MOL0     C11524   8.564   8.555   5.871 -0.6368  0.3365  0.4999
  827MOL0     C11525   8.583   8.707   5.857 -0.9486  0.1547  0.7758
  827MOL0     C11526   8.704   8.778   5.928  0.2967  0.4346 -0.6431
  827MOL0     N11527   8.840   8.734   5.882  0.0536 -0.3808  0.3086
  827MOL0     C11528   8.921   8.823   5.810 -0.0253 -0.1687  0.6081
  827MOL0     C11529   9.028   8.754   5.767 -0.5727  0.1612 -1.0678
  827MOL0     C11530   9.133   8.793   5.671 -0.4983  0.2675 -0.1256
  827MOL0     C11531   9.255   8.698   5.685  0.3336  0.2554 -0.6269
  827MOL0     C11532   9.379   8.738   5.595  0.1712 -0.6310 -0.3055
  827MOL0     C11533   9.509   8.662   5.640  0.4571 -0.1425  1.1316
  827MOL0     O11534   9.613   8.713   5.559 -0.6576  0.1044 -0.0404
  827MOL0     C11535   9.734   8.743   5.624  0.1354  0.4572  0.2590
  827MOL0     C11536   9.747   8.870   5.668 -0.1215  0.0124 -0.7124
  827MOL0     C11537   9.874   8.917   5.710 -1.2835 -0.4977  0.4867
  827MOL0     C11538   9.897   9.065   5.719 -0.1973  0.2466  0.2265
  827MOL0     C11539   9.981   8.819   5.715  0.1536 -0.5541  0.1615
  827MOL0     C11540  10.115   8.854   5.768 -0.5933  0.3983 -1.1510
  827MOL0     O11541  10.156   8.760   5.867  0.4300 -0.4348 -0.5958
  827MOL0     C11542  10.260   8.787   5.953  0.7195 -0.4780  0.2749
  827MOL0     C11543  10.326   8.905   5.980 -0.2160  0.1546 -0.0931
  827MOL0     C11544  10.427   8.916   6.073  0.1835  0.9369  0.0995
  827MOL0     C11545  10.465   8.794   6.140  0.4639  1.1272  0.1484
  827MOL0     O11546  10.570   8.789   6.227  0.6165 -0.8336  0.1167
  827MOL0     C11547  10.667   8.702   6.178  0.3118  0.3167  0.2615
  827MOL0     C11548  10.802   8.732   6.239  0.1835  0.4567  0.3943
  827MOL0     C11549  10.903   8.619   6.236  0.7024  0.0425 -0.2062
  827MOL0     C11550  11.007   8.624   6.354  0.2759 -0.2852 -0.1815
  827MOL0     C11551  11.084   8.493   6.367 -0.2952 -0.6949  0.0278
  827MOL0     C11552  11.012   8.387   6.440  1.0514  0.5790  1.4448
  827MOL0     C11553  11.098   8.263   6.468  0.8589  0.7123 -1.3660
  827MOL0     C11554  11.012   8.144   6.451  1.2518  0.0553 -0.1749
  827MOL0    Cl11555  11.096   8.001   6.505  0.3650 -0.0465  0.5332
  827MOL0     C11556  10.396   8.672   6.113  0.0602  0.4551 -0.4693
  827MOL0     C11557  10.297   8.672   6.019  1.0149 -0.7662  0.2671
  827MOL0     O11558  10.173   8.949   5.724 -0.0855 -0.8839  0.1891
  827MOL0     C11559   9.954   8.686   5.687 -0.8920 -0.5546  0.3938
  827MOL0     C11560   9.835   8.645   5.631  0.3146 -0.6167 -0.1044
  827MOL0     N11561   9.016   8.621   5.817  0.2538 -0.5193 -0.1334
  827MOL0     N11562   8.899   8.606   5.884 -0.3017 -0.3430  0.6048
  827MOL0     C11563   8.196   8.424   5.185 -1.5349  0.0096  0.6795
  827MOL0     C11564   8.080   8.361   5.150  0.6315 -0.3137  0.2571
  827MOL0     C11565   7.598   8.327   5.153 -0.5740  0.8443 -0.1020
  827MOL0     C11566   7.471   8.356   5.206 -0.5653  0.6766  0.4766
  827MOL0     C11567   7.359   8.320   5.128 -1.0410  0.1289  0.3938
  827MOL0     C11568   7.373   8.249   5.011 -0.1218 -0.0566 -0.2600
  827MOL0     O11569   7.249   8.201   4.963  0.1222  0.6864  0.8846
  827MOL0     C11570   7.245   8.137   4.829  0.0954 -0.3259  0.1434
  827MOL0     C11571   7.258   8.226   4.703  0.1231  0.7705 -1.3270
  827MOL0     C11572   7.157   8.344   4.712  0.1162  1.8527  0.5802
  827MOL0     C11573   7.191   8.453   4.606  0.1529  0.6123 -0.1927
  827MOL0     C11574   7.252   8.579   4.666  0.2331  0.0519 -0.4383
  827MOL0     C11575   7.288   8.689   4.700 -1.2776 -0.0824 -0.2613
  827MOL0     C11576   7.498   8.238   4.955 -1.1297  0.3033 -0.1696
  827MOL0     C11577   7.610   8.275   5.022 -0.1972  0.3564 -0.1372
  827MOL0     H11578   7.864   8.592   5.246  0.1957  0.2056 -0.5920
  827MOL0     H11579   8.073   8.681   5.367 -0.6775 -1.2649  1.0647
  827MOL0     H11580   8.373   8.433   5.423  1.1474  0.3256  1.5723
  827MOL0     H11581   8.489   8.484   5.299 -1.6321  1.4037 -3.8888
  827MOL0     H11582   8.537   8.686   5.403  0.4420 -1.1091 -0.9962
  827MOL0     H11583   8.422   8.647   5.532  0.5444 -1.6899  1.1440
  827MOL0     H11584   8.654   8.471   5.479  2.2023 -0.6648  2.5058
  827MOL0     H11585   8.660   8.607   5.596  1.1279 -0.4372 -1.1267
  827MOL0     H11586   8.474   8.362   5.600 -1.3928 -1.3178  2.5969
  827MOL0     H11587   8.628   8.377   5.682  1.4394  0.4998 -3.4673
  827MOL0     H11588   8.404   8.568   5.730  0.5078 -0.9339 -0.1594
  827MOL0     H11589   8.405   8.410   5.814  0.1519 -1.0671 -0.6937
  827MOL0     H11590   8.524   8.544   5.972  2.0952 -0.9394  1.5599
  827MOL0     H11591   8.654   8.493   5.866 -2.2930 -2.3147  1.6676
  827MOL0     H11592   8.597   8.743   5.755  2.4792 -2.4672  0.1387
  827MOL0     H11593   8.505   8.759   5.914  1.1974  0.3689  3.8302
  827MOL0     H11594   8.688   8.742   6.030  1.0559 -0.4749 -0.8331
  827MOL0     H11595   8.689   8.886   5.925 -2.3512  0.1165 -2.0723
  827MOL0     H11596   8.914   8.929   5.788  0.7585  0.0840  1.4827
  827MOL0     H11597   9.095   8.774   5.570  0.2809 -1.1660 -0.1801
  827MOL0     H11598   9.164   8.896   5.687  1.9499 -0.6383  1.4170
  827MOL0     H11599   9.223   8.600   5.648 -1.8430  0.7218 -0.1157
  827MOL0     H11600   9.285   8.701   5.790 -0.2189 -0.4249 -0.4418
  827MOL0     H11601   9.410   8.841   5.618  0.6288 -0.0898 -3.0295
  827MOL0     H11602   9.361   8.737   5.487 -2.1030  0.1839  0.0086
  827MOL0     H11603   9.507   8.555   5.620  2.4618  0.4639 -3.4898
  827MOL0     H11604   9.514   8.681   5.748 -6.0060 -1.2619  2.0502
  827MOL0     H11605   9.668   8.944   5.664  0.7174  1.3330  3.0802
  827MOL0     H11606   9.961   9.098   5.800  0.4365  2.4454 -1.0677
  827MOL0     H11607   9.953   9.094   5.630  2.3361 -2.8424  0.6587
  827MOL0     H11608   9.797   9.109   5.729 -2.6495 -3.9354 -2.9094
  827MOL0     H11609  10.297   8.986   5.914 -2.8041  0.4753  1.2848
  827MOL0     H11610  10.473   9.015   6.081  3.3274 -0.2649 -1.3281
  827MOL0     H11611  10.636   8.597   6.186  0.6175  0.2907  1.2258
  827MOL0     H11612  10.685   8.712   6.070 -1.1306 -2.7232 -0.3617
  827MOL0     H11613  10.844   8.820   6.189  1.1803 -0.3086 -0.1329
  827MOL0     H11614  10.795   8.772   6.341  3.6614  2.0203  0.1728
  827MOL0     H11615  10.972   8.635   6.152  1.3898 -1.3200  0.0698
  827MOL0     H11616  10.850   8.525   6.221 -0.8088  0.8414 -0.0106
  827MOL0     H11617  11.077   8.705   6.329  0.2370 -0.6983 -1.7761
  827MOL0     H11618  10.962   8.651   6.450 -0.4272  0.9311 -0.8231
  827MOL0     H11619  11.160   8.522   6.440 -2.6917 -0.0920  2.4397
  827MOL0     H11620  11.118   8.456   6.270  0.3874  0.5337 -0.2194
  827MOL0     H11621  10.977   8.426   6.536 -0.5624  0.2328  1.0414
  827MOL0     H11622  10.928   8.356   6.377  0.1037  1.4322  2.2400
  827MOL0     H11623  11.122   8.262   6.575 -0.7529 -1.8864 -0.9343
  827MOL0     H11624  11.189   8.255   6.408  2.3887  0.9043  0.7788
  827MOL0     H11625  10.993   8.136   6.344 -2.2176 -1.6072  0.4090
  827MOL0     H11626  10.916   8.152   6.503  0.7903  0.1247 -1.0186
  827MOL0     H11627  10.416   8.582   6.171  3.0785  2.0997  1.3015
  827MOL0     H11628  10.251   8.578   5.993  3.0205 -1.1232 -2.4597
  827MOL0     H11629  10.027   8.607   5.697 -1.9526 -2.1251 -2.6876
  827MOL0     H11630   9.827   8.544   5.593  1.9620 -1.2573  1.1384
  827MOL0     H11631   8.288   8.371   5.164 -1.6765  0.5706 -1.5541
  827MOL0     H11632   8.070   8.268   5.096 -2.0040  1.0825 -1.9226
  827MOL0     H11633   7.474   8.412   5.300  2.7546 -2.3222  2.3745
  827MOL0     H11634   7.260   8.350   5.161 -0.0902  1.7080  1.9831
  827MOL0     H11635   7.331   8.069   4.826  2.7124  2.7424 -0.1990
  827MOL0     H11636   7.153   8.080   4.815 -1.4979  1.9012  0.8943
  827MOL0     H11637   7.242   8.160   4.617  0.6365 -1.0773 -0.0518
  827MOL0     H11638   7.361   8.264   4.704  0.3890  0.8775  4.7974
  827MOL0     H11639   7.155   8.392   4.810  2.4973  0.1520  1.5706
  827MOL0     H11640   7.055   8.308   4.692  0.3061  1.2008  0.7452
  827MOL0     H11641   7.099   8.473   4.550  0.3669  0.8752 -0.4479
  827MOL0     H11642   7.262   8.411   4.534  0.4925  0.2806  0.3315
  827MOL0     H11643   7.305   8.787   4.739  1.2208 -1.3209  2.1645
  827MOL0     H11644   7.507   8.200   4.854 -2.6993  0.1432 -0.2688
  827MOL0     H11645   7.708   8.263   4.976 -1.8611  1.7457 -4.5463
  828MOL0     O11646   6.522   5.761  10.937 -0.1055  0.3322  0.3113
  828MOL0     C11647   6.592   5.745  11.037  0.2869  0.6461 -0.1556
  828MOL0     O11648   6.580   5.639  11.134 -0.1263  0.5273  0.0579
  828MOL0     C11649   6.473   5.560  11.124  0.8642 -0.4438  0.0548
  828MOL0     C11650   6.482   5.427  11.168  0.2920  0.1721  1.3494
  828MOL0     C11651   6.381   5.334  11.170  0.1505 -0.1723 -0.0873
  828MOL0     C11652   6.252   5.374  11.128  0.7957  1.0938 -0.6156
  828MOL0     O11653   6.143   5.283  11.119 -0.0063  0.1059 -0.4261
  828MOL0     C11654   6.146   5.159  11.191 -0.1011 -0.5914  0.5002
  828MOL0     C11655   6.022   5.072  11.165  1.6129  0.5116  0.3429
  828MOL0     C11656   6.038   4.941  11.253  0.0487 -0.6537 -1.4434
  828MOL0     C11657   5.907   4.899  11.313 -0.8022  0.4712 -0.5901
  828MOL0     C11658   5.906   4.765  11.389  0.1769  0.1109  0.5804
  828MOL0     C11659   5.770   4.729  11.453 -0.3185  0.5392  0.3435
  828MOL0     C11660   5.771   4.566  11.493  0.5488 -0.0692 -0.3018
  828MOL0     C11661   5.727   4.473  11.366 -0.4075  0.9255  0.6970
  828MOL0     N11662   5.716   4.340  11.413 -0.2391 -0.0208 -0.2497
  828MOL0     C11663   5.643   4.297  11.530 -0.3553 -0.2931  0.5508
  828MOL0     C11664   5.677   4.170  11.537  0.2779  0.1397 -0.6460
  828MOL0     C11665   5.641   4.060  11.638  0.5913 -0.6814 -0.0689
  828MOL0     C11666   5.480   4.042  11.637  0.1307  0.0896  0.3224
  828MOL0     C11667   5.421   3.996  11.503 -0.0339  0.5630 -0.0904
  828MOL0     C11668   5.291   3.916  11.520 -1.0913  0.4489 -0.2670
  828MOL0     O11669   5.205   3.989  11.608 -0.2731  0.5266 -0.2682
  828MOL0     C11670   5.081   4.029  11.574 -0.0408  0.1753 -0.4275
  828MOL0     C11671   5.009   4.018  11.453 -0.4962 -0.1118  0.0959
  828MOL0     C11672   4.872   4.043  11.427 -0.0200 -0.0837  1.0780
  828MOL0     C11673   4.801   3.980  11.300 -0.0628  0.0394  0.0600
  828MOL0     C11674   4.815   4.128  11.515  0.3539  1.0293  0.4735
  828MOL0     C11675   4.673   4.181  11.493  0.5160  0.6635  0.8137
  828MOL0     O11676   4.594   4.217  11.605 -0.2593 -0.3712  0.5243
  828MOL0     C11677   4.482   4.297  11.601  0.3072 -0.0524 -0.8536
  828MOL0     C11678   4.399   4.286  11.718 -0.1031  0.3667 -0.0927
  828MOL0     C11679   4.278   4.359  11.731  0.3258 -0.3346  0.4990
  828MOL0     C11680   4.241   4.442  11.620 -0.8618  0.7528 -1.0300
  828MOL0     O11681   4.118   4.496  11.616 -0.2429  0.3598 -0.2411
  828MOL0     C11682   4.017   4.475  11.714  0.0346 -0.3635 -0.3585
  828MOL0     C11683   3.891   4.567  11.681 -0.7223  0.6340 -0.3808
  828MOL0     C11684   3.935   4.718  11.691 -0.8968  0.5122 -0.0062
  828MOL0     C11685   3.819   4.805  11.640  0.0931  1.2097 -0.7769
  828MOL0     C11686   3.824   4.947  11.707  1.3412  0.7976  0.0807
  828MOL0     C11687   3.689   5.021  11.694 -0.0624  0.5761 -0.1032
  828MOL0     C11688   3.573   4.945  11.767 -1.4147  0.6941 -0.4751
  828MOL0     C11689   3.466   5.047  11.833  0.3262 -0.3222  0.1602
  828MOL0    Cl11690   3.563   5.154  11.947  0.0319  0.0127 -0.0875
  828MOL0     C11691   4.327   4.466  11.508  0.1612 -0.0584 -1.3850
  828MOL0     C11692   4.450   4.390  11.506  0.4606  0.0387  0.3044
  828MOL0     O11693   4.635   4.201  11.380 -0.2119 -0.4562  0.0029
  828MOL0     C11694   4.875   4.155  11.637 -0.7559 -0.1817  0.1428
  828MOL0     C11695   5.006   4.103  11.664  0.1721  0.4801 -0.1692
  828MOL0     N11696   5.770   4.143  11.445 -0.1740 -0.2713 -0.2074
  828MOL0     N11697   5.786   4.243  11.358 -0.5255  1.3772  0.0711
  828MOL0     C11698   6.233   5.506  11.086  0.4133 -0.0843 -0.1136
  828MOL0     C11699   6.343   5.599  11.086 -0.8856  0.3008 -0.3312
  828MOL0     C11700   6.701   5.842  11.052  0.5990 -0.1145 -0.7304
  828MOL0     C11701   6.805   5.822  11.142  0.1321  0.8321 -0.5096
  828MOL0     C11702   6.907   5.922  11.172 -0.0175  0.7719 -0.6667
  828MOL0     C11703   6.884   6.049  11.107 -0.0818  0.4937 -0.5765
  828MOL0     O11704   6.959   6.165  11.119 -0.4874  0.7575 -0.0313
  828MOL0     C11705   7.057   6.163  11.228  0.1416  0.3742  0.3964
  828MOL0     C11706   7.108   6.314  11.238  1.1004 -0.3797 -1.0568
  828MOL0     C11707   7.019   6.416  11.304  0.2801  0.7697  0.7099
  828MOL0     C11708   6.913   6.482  11.210  0.5693  0.6792  0.0921
  828MOL0     C11709   6.967   6.552  11.086 -0.3324  0.1117  0.5148
  828MOL0     C11710   7.000   6.595  10.978 -0.2604  0.2021  0.2169
  828MOL0     C11711   6.784   6.067  11.012 -0.5197 -0.0249 -0.1193
  828MOL0     C11712   6.696   5.968  10.979 -0.7845  0.7719  0.3425
  828MOL0     H11713   6.582   5.397  11.198  0.0159  0.2980  2.4297
  828MOL0     H11714   6.401   5.235  11.209  1.2653  0.8018  1.9607
  828MOL0     H11715   6.234   5.102  11.162 -0.0945  0.1428 -1.0401
  828MOL0     H11716   6.149   5.179  11.298  0.4595 -2.3106  0.8404
  828MOL0     H11717   5.932   5.130  11.188  1.0340  0.4391 -1.6004
  828MOL0     H11718   6.012   5.041  11.061  0.8609 -2.1765  1.1140
  828MOL0     H11719   6.086   4.869  11.186  0.5596 -2.5275  0.8118
  828MOL0     H11720   6.103   4.952  11.340 -2.3046 -0.0976  0.3415
  828MOL0     H11721   5.863   4.973  11.381  1.3330  0.8699  0.4366
  828MOL0     H11722   5.837   4.892  11.229  0.6865  1.3650 -1.9574
  828MOL0     H11723   5.918   4.685  11.315 -1.3908 -1.1576  1.6283
  828MOL0     H11724   5.990   4.763  11.459  0.3557 -1.3095  0.3638
  828MOL0     H11725   5.762   4.794  11.540 -0.8226 -0.1340  0.8085
  828MOL0     H11726   5.687   4.741  11.383 -1.5275 -0.5490  1.5383
  828MOL0     H11727   5.862   4.526  11.538  0.7309 -0.6138 -1.1291
  828MOL0     H11728   5.699   4.562  11.576  1.7830 -3.6960  0.8079
  828MOL0     H11729   5.798   4.463  11.284 -1.1449  2.0205 -0.1081
  828MOL0     H11730   5.641   4.519  11.317  0.8314  0.6776 -1.8501
  828MOL0     H11731   5.577   4.362  11.586 -1.2072 -0.1655 -0.5452
  828MOL0     H11732   5.691   3.967  11.612 -0.2000 -1.4084  0.9204
  828MOL0     H11733   5.663   4.077  11.744 -1.1449  1.2149  0.0627
  828MOL0     H11734   5.445   4.142  11.664 -2.5788 -1.2739  2.3370
  828MOL0     H11735   5.451   3.976  11.720  0.2171 -0.3498  0.0060
  828MOL0     H11736   5.476   3.919  11.449  0.3710  0.5610  0.3180
  828MOL0     H11737   5.402   4.082  11.439  1.2120 -0.0520 -1.3485
  828MOL0     H11738   5.287   3.818  11.569 -1.2592  0.6442  0.1204
  828MOL0     H11739   5.244   3.886  11.426 -1.2042 -3.1718  0.7783
  828MOL0     H11740   5.069   3.980  11.371  0.2377 -1.1512  1.0761
  828MOL0     H11741   4.788   4.056  11.222 -2.2454 -1.8660 -1.5790
  828MOL0     H11742   4.861   3.893  11.272  0.8499  0.5933  0.2532
  828MOL0     H11743   4.701   3.952  11.334  1.1136 -1.2008  2.7894
  828MOL0     H11744   4.434   4.234  11.807 -0.2523 -1.7592 -1.2144
  828MOL0     H11745   4.209   4.344  11.814  1.6247 -0.8874  1.5178
  828MOL0     H11746   3.978   4.373  11.706 -4.5273  1.2983 -3.7461
  828MOL0     H11747   4.048   4.492  11.818  0.6080  2.8778 -0.9707
  828MOL0     H11748   3.849   4.554  11.580  0.9559  4.9733 -1.8696
  828MOL0     H11749   3.819   4.538  11.758  0.1936  1.4585  0.8023
  828MOL0     H11750   4.012   4.747  11.618 -2.2292  1.3640 -1.1196
  828MOL0     H11751   3.961   4.743  11.794 -4.2686  1.8059  0.6414
  828MOL0     H11752   3.817   4.828  11.534  1.0408  0.5880 -0.9406
  828MOL0     H11753   3.723   4.758  11.663  0.1927 -0.7958 -3.8983
  828MOL0     H11754   3.899   5.002  11.649  0.9747 -0.4453 -1.6691
  828MOL0     H11755   3.853   4.940  11.812 -0.6598 -0.7702  0.5772
  828MOL0     H11756   3.687   5.124  11.731 -2.3297  0.7372 -0.5135
  828MOL0     H11757   3.657   5.015  11.590 -0.3116 -1.7213  0.0466
  828MOL0     H11758   3.606   4.876  11.845 -3.2838 -1.5530 -1.5731
  828MOL0     H11759   3.521   4.881  11.696  0.8121 -1.8556  0.0167
  828MOL0     H11760   3.386   4.991  11.883  1.4359 -1.5003  0.6829
  828MOL0     H11761   3.421   5.108  11.754  1.3140 -1.7388 -1.5956
  828MOL0     H11762   4.287   4.539  11.439 -0.5041  3.7843  2.5984
  828MOL0     H11763   4.510   4.405  11.417 -0.2754 -6.9208 -1.9859
  828MOL0     H11764   4.830   4.207  11.721  2.8255  1.6808  1.0877
  828MOL0     H11765   5.062   4.132  11.752  0.9021  0.8608 -0.7413
  828MOL0     H11766   6.131   5.534  11.060  0.3243  1.5901  1.8007
  828MOL0     H11767   6.331   5.698  11.044 -1.5251 -0.2729 -1.5702
  828MOL0     H11768   6.813   5.736  11.208 -1.7819  1.3079  0.4218
  828MOL0     H11769   6.980   5.895  11.248 -3.8625  2.1006  4.0319
  828MOL0     H11770   7.003   6.131  11.317  1.1899 -0.8284  0.6231
  828MOL0     H11771   7.139   6.099  11.196 -0.0974  0.6775 -0.8723
  828MOL0     H11772   7.152   6.344  11.143 -0.4018  1.1860 -1.3072
  828MOL0     H11773   7.189   6.287  11.307 -1.3703 -1.4774  1.6687
  828MOL0     H11774   7.080   6.492  11.354  0.6097  1.7833 -1.1481
  828MOL0     H11775   6.962   6.357  11.377 -1.9768  0.0791 -1.4737
  828MOL0     H11776   6.880   6.553  11.286  0.7646 -1.1526  1.9929
  828MOL0     H11777   6.843   6.401  11.184  1.4509  0.4507 -1.7217
  828MOL0     H11778   7.032   6.628  10.881 -1.3892 -3.5517 -1.6060
  828MOL0     H11779   6.755   6.161  10.966 -2.9458  0.0684  1.4203
  828MOL0     H11780   6.624   5.974  10.898  1.2615 -0.2111 -1.6713
  829MOL0     O11781   7.101   9.943   0.820  0.3414 -0.4791  0.1993
  829MOL0     C11782   7.193   9.998   0.749  0.5103  0.2309  0.0062
  829MOL0     O11783   7.325   9.979   0.761  0.3107 -0.8747  0.3780
  829MOL0     C11784   7.376   9.926   0.879 -0.0135 -0.5088  0.4389
  829MOL0     C11785   7.484   9.848   0.850  0.3221  0.8897  0.3203
  829MOL0     C11786   7.555   9.794   0.962  0.6529 -0.0735 -0.1393
  829MOL0     C11787   7.521   9.825   1.093 -0.3171 -0.7847  0.5639
  829MOL0     O11788   7.583   9.758   1.192  0.0628 -0.1821 -1.0181
  829MOL0     C11789   7.534   9.753   1.322 -0.1748  0.2234 -0.1284
  829MOL0     C11790   7.583   9.625   1.388 -0.5082  0.3619  0.3416
  829MOL0     C11791   7.736   9.616   1.409 -0.3240  0.8259 -0.1604
  829MOL0     C11792   7.792   9.697   1.531 -0.6412  0.9477 -0.0448
  829MOL0     C11793   7.944   9.700   1.520 -0.5030  0.0227  0.9439
  829MOL0     C11794   8.007   9.784   1.629  0.1114  0.1941  0.7776
  829MOL0     C11795   8.164   9.776   1.629  0.3097 -0.7945  1.6876
  829MOL0     C11796   8.230   9.830   1.506 -0.0068 -0.5113  0.0231
  829MOL0     N11797   8.198   9.967   1.461 -0.2094  0.0017  0.4345
  829MOL0     C11798   8.227  10.085   1.532  0.0461  0.7246 -0.0254
  829MOL0     C11799   8.160  10.178   1.483  0.3541 -0.3938  0.2175
  829MOL0     C11800   8.152  10.312   1.539 -0.6197  0.2522 -0.8582
  829MOL0     C11801   8.272  10.401   1.498 -0.0314 -0.0550 -0.5388
  829MOL0     C11802   8.272  10.523   1.592  0.1164 -0.4260 -0.4494
  829MOL0     C11803   8.402  10.609   1.590  0.3716 -0.1320 -0.6352
  829MOL0     O11804   8.504  10.523   1.643  0.1530 -0.3681 -0.1399
  829MOL0     C11805   8.553  10.528   1.775  0.4236 -0.5891  0.7107
  829MOL0     C11806   8.476  10.584   1.886 -0.2131  0.6116  0.6249
  829MOL0     C11807   8.528  10.576   2.011 -0.2988 -0.3554  0.4135
  829MOL0     C11808   8.463  10.643   2.123  0.2814 -0.7854  0.0782
  829MOL0     C11809   8.659  10.520   2.036  0.1219  0.2989  0.6308
  829MOL0     C11810   8.718  10.524   2.169  0.1243 -0.6009 -0.1136
  829MOL0     O11811   8.772  10.412   2.222  0.7896  0.7181 -0.1273
  829MOL0     C11812   8.848  10.421   2.340 -0.2810  0.2737  0.5207
  829MOL0     C11813   8.977  10.391   2.338 -0.3918  0.1379 -0.1631
  829MOL0     C11814   9.057  10.390   2.457 -0.4603 -0.2500 -0.0795
  829MOL0     C11815   8.998  10.435   2.587 -0.6780 -0.3339 -0.8704
  829MOL0     O11816   9.073  10.456   2.703 -0.2785  0.6365  1.6603
  829MOL0     C11817   9.215  10.476   2.688  0.6924 -0.7012  0.1972
  829MOL0     C11818   9.271  10.511   2.822 -0.3106 -0.1581  0.0428
  829MOL0     C11819   9.406  10.563   2.809 -0.3309  1.4098 -0.5632
  829MOL0     C11820   9.474  10.576   2.934 -1.1478 -0.3323 -1.1586
  829MOL0     C11821   9.597  10.666   2.911 -0.0666  0.4162  0.6755
  829MOL0     C11822   9.687  10.699   3.030 -0.4429 -0.7006  0.3023
  829MOL0     C11823   9.748  10.572   3.098 -0.8301 -1.3291 -0.0128
  829MOL0     C11824   9.845  10.498   3.007 -0.1098  0.7344 -0.1023
  829MOL0    Cl11825   9.984  10.608   2.972 -0.2167  0.0427 -0.1298
  829MOL0     C11826   8.872  10.486   2.573  0.1139 -0.8873  0.3364
  829MOL0     C11827   8.793  10.470   2.458  0.3600  0.1135  0.4386
  829MOL0     O11828   8.730  10.634   2.223 -0.4316  0.3798  0.2896
  829MOL0     C11829   8.725  10.475   1.927 -0.9302 -0.3243 -0.2161
  829MOL0     C11830   8.673  10.479   1.802  0.6788 -0.4248 -0.0541
  829MOL0     N11831   8.081  10.136   1.382 -0.1453 -0.5706 -0.7011
  829MOL0     N11832   8.103  10.006   1.370 -0.1870  0.3934 -0.4921
  829MOL0     C11833   7.406   9.911   1.116 -0.1924 -0.4273 -0.3092
  829MOL0     C11834   7.327   9.952   1.010 -0.9220  0.1448  0.4614
  829MOL0     C11835   7.147  10.053   0.616  0.0076  0.3582  0.3561
  829MOL0     C11836   7.019  10.007   0.559 -0.1447  0.7510  0.0258
  829MOL0     C11837   6.980  10.052   0.436 -0.8301 -0.2030  0.7114
  829MOL0     C11838   7.056  10.151   0.364 -1.1938 -0.0730  0.6372
  829MOL0     O11839   7.021  10.223   0.248 -0.1422  0.2601  0.1551
  829MOL0     C11840   6.884  10.227   0.198  0.0706  0.7739  0.3221
  829MOL0     C11841   6.841  10.119   0.100 -0.6477  0.3956 -0.0728
  829MOL0     C11842   6.693  10.132   0.035 -0.2596 -0.0942 -0.6041
  829MOL0     C11843   6.669  10.245  -0.052  0.3841 -0.0892  1.0936
  829MOL0     C11844   6.544  10.221  -0.115 -0.6671 -0.1690 -0.1261
  829MOL0     C11845   6.440  10.214  -0.168 -0.2245 -0.0813 -0.6558
  829MOL0     C11846   7.180  10.184   0.412 -0.3845  0.2640  0.9267
  829MOL0     C11847   7.228  10.139   0.536  0.0859  0.7595 -0.2794
  829MOL0     H11848   7.529   9.842   0.751 -0.5145 -0.4244 -0.0062
  829MOL0     H11849   7.641   9.732   0.939 -0.4643 -1.2519 -1.3387
  829MOL0     H11850   7.586   9.833   1.375 -0.4608  0.3554 -0.0469
  829MOL0     H11851   7.425   9.755   1.331 -0.2106 -0.1188 -0.4604
  829MOL0     H11852   7.532   9.612   1.483 -1.2243  1.7248  0.1769
  829MOL0     H11853   7.552   9.539   1.329 -0.7688  0.9744 -0.4422
  829MOL0     H11854   7.752   9.508   1.414 -1.9127  0.5775  0.2186
  829MOL0     H11855   7.778   9.659   1.318 -0.6965  0.7354 -0.3762
  829MOL0     H11856   7.741   9.793   1.538 -2.3053  0.0725  0.4294
  829MOL0     H11857   7.768   9.654   1.629 -0.0756  3.1377  1.1282
  829MOL0     H11858   7.983   9.598   1.526  0.3446  0.2810  0.0278
  829MOL0     H11859   7.977   9.745   1.426  0.4611  2.2591  2.2789
  829MOL0     H11860   7.978   9.889   1.624 -1.2510 -0.2120 -1.8519
  829MOL0     H11861   7.982   9.728   1.719 -3.1861  0.0939 -0.0889
  829MOL0     H11862   8.210   9.834   1.710  2.9180 -1.5725  0.8675
  829MOL0     H11863   8.198   9.676   1.659  4.1419 -0.2218 -0.0601
  829MOL0     H11864   8.219   9.765   1.419  2.9426 -0.3408 -0.5863
  829MOL0     H11865   8.338   9.819   1.519  0.4927  1.3003 -2.0119
  829MOL0     H11866   8.301  10.086   1.612  2.7201  1.4859 -2.3818
  829MOL0     H11867   8.061  10.357   1.498 -0.5089  2.3425  1.0252
  829MOL0     H11868   8.135  10.311   1.647  1.0195 -0.0786 -0.5717
  829MOL0     H11869   8.244  10.431   1.396  0.8098 -1.2242 -1.1363
  829MOL0     H11870   8.359  10.335   1.492 -0.5052 -0.9466  1.5794
  829MOL0     H11871   8.274  10.482   1.694 -1.6234  1.0142  0.1979
  829MOL0     H11872   8.179  10.578   1.584 -0.3334 -1.3314 -1.9041
  829MOL0     H11873   8.392  10.698   1.653  1.3913  0.2250 -0.9586
  829MOL0     H11874   8.438  10.648   1.495  1.4071  0.0429 -0.1890
  829MOL0     H11875   8.377  10.628   1.874 -1.5044 -2.5321 -1.7776
  829MOL0     H11876   8.362  10.676   2.096 -0.7994 -1.0507  3.3260
  829MOL0     H11877   8.450  10.582   2.213  1.5191 -0.0807  0.7642
  829MOL0     H11878   8.515  10.733   2.155  0.4927 -2.1423  4.0987
  829MOL0     H11879   9.019  10.364   2.242 -0.8892 -2.6297  0.2958
  829MOL0     H11880   9.165  10.376   2.459 -0.5380 -1.1066 -0.9858
  829MOL0     H11881   9.264  10.388   2.644 -0.0957 -0.6387 -0.8721
  829MOL0     H11882   9.215  10.557   2.614  1.3059 -2.4364 -1.8264
  829MOL0     H11883   9.215  10.592   2.870  0.7840  0.5403  0.1713
  829MOL0     H11884   9.270  10.423   2.887 -0.0074 -0.4645 -0.3595
  829MOL0     H11885   9.376  10.660   2.769 -4.5495 -0.3605 -2.3392
  829MOL0     H11886   9.472  10.527   2.730  0.0770 -2.1533  1.1931
  829MOL0     H11887   9.410  10.612   3.014 -0.4356 -1.9333  0.1899
  829MOL0     H11888   9.501  10.471   2.951 -1.8216 -0.5136 -1.1851
  829MOL0     H11889   9.554  10.762   2.880 -0.4739  1.2486  3.5806
  829MOL0     H11890   9.657  10.622   2.831 -3.7536 -0.4839 -1.8402
  829MOL0     H11891   9.768  10.766   2.999 -0.1633 -0.1560  2.0938
  829MOL0     H11892   9.634  10.756   3.107  0.8367  0.0294  0.6763
  829MOL0     H11893   9.675  10.498   3.132 -0.2700 -1.0470  1.9267
  829MOL0     H11894   9.813  10.603   3.180  0.8600 -4.1448 -0.1411
  829MOL0     H11895   9.797  10.467   2.914 -0.4224  0.8660  0.0131
  829MOL0     H11896   9.882  10.409   3.057 -2.3279  0.4283  1.1121
  829MOL0     H11897   8.812  10.543   2.644 -1.3666 -2.0162  0.0415
  829MOL0     H11898   8.690  10.502   2.470  0.5193  1.0449 -0.5490
  829MOL0     H11899   8.827  10.441   1.946  0.1891  2.6469 -0.3378
  829MOL0     H11900   8.734  10.439   1.721 -0.7844  1.0067 -1.9559
  829MOL0     H11901   7.386   9.924   1.222  3.3395  0.6458  0.3740
  829MOL0     H11902   7.230   9.999   1.024 -1.6457 -1.1737  0.0875
  829MOL0     H11903   6.953   9.937   0.610 -0.8919  2.0991  0.9831
  829MOL0     H11904   6.885  10.014   0.400 -1.1671  3.0964 -2.4506
  829MOL0     H11905   6.813  10.233   0.281 -2.7377  5.0574 -2.0010
  829MOL0     H11906   6.876  10.321   0.142  3.5677  1.3880  0.5700
  829MOL0     H11907   6.851  10.019   0.143 -1.3014  0.3221 -0.0840
  829MOL0     H11908   6.893  10.122   0.003 -1.8002  1.4403 -0.6903
  829MOL0     H11909   6.612  10.102   0.102  2.3885  0.4318  3.1952
  829MOL0     H11910   6.699  10.044  -0.029  0.9533  0.1702 -0.8894
  829MOL0     H11911   6.742  10.256  -0.132 -1.1569  0.5195 -0.2995
  829MOL0     H11912   6.680  10.336   0.008  4.0110  0.2149  0.2020
  829MOL0     H11913   6.358  10.189  -0.233  0.8618 -0.6141 -1.8558
  829MOL0     H11914   7.232  10.254   0.347 -1.1758  1.4783  1.5648
  829MOL0     H11915   7.329  10.158   0.571  1.5268 -2.6337 -2.0412
  830MOL0     O11916   3.192  11.275   4.853 -1.2194  0.8355 -0.2616
  830MOL0     C11917   3.200  11.379   4.779  0.8765 -0.0206 -0.9152
  830MOL0     O11918   3.317  11.433   4.732 -0.3372  0.9796  0.1427
  830MOL0     C11919   3.423  11.365   4.777 -0.1762  0.7902 -0.0590
  830MOL0     C11920   3.483  11.272   4.695 -0.1679 -0.0351 -0.6534
  830MOL0     C11921   3.606  11.225   4.723  0.5521 -0.1156 -0.4836
  830MOL0     C11922   3.670  11.253   4.832  0.8040 -0.5293  0.1726
  830MOL0     O11923   3.791  11.191   4.850  0.0518  0.3673  0.5692
  830MOL0     C11924   3.877  11.236   4.953 -0.4235  0.4669  0.1002
  830MOL0     C11925   3.971  11.115   4.984 -0.4064  0.0042 -0.4968
  830MOL0     C11926   4.090  11.143   5.078  0.6311 -0.2343 -0.3411
  830MOL0     C11927   4.191  11.022   5.087 -1.0822 -0.0710  0.3509
  830MOL0     C11928   4.337  11.056   5.137  0.5963 -0.3603 -0.8623
  830MOL0     C11929   4.328  11.103   5.288 -0.5767  0.1826  0.5422
  830MOL0     C11930   4.445  11.189   5.333  0.4119  0.2362 -0.4034
  830MOL0     C11931   4.576  11.107   5.312 -0.2689 -0.0534  0.0631
  830MOL0     N11932   4.689  11.192   5.345  0.2646 -0.3452  0.0611
  830MOL0     C11933   4.757  11.202   5.459  0.5940 -0.3608 -0.2619
  830MOL0     C11934   4.861  11.288   5.436 -0.1714 -0.4647  0.0070
  830MOL0     C11935   4.963  11.328   5.541 -0.1849 -0.1577 -0.1213
  830MOL0     C11936   4.898  11.372   5.665  0.4156  0.0815  0.1239
  830MOL0     C11937   4.803  11.484   5.648  0.8165 -0.4870  0.8031
  830MOL0     C11938   4.746  11.561   5.770 -0.4513 -0.3897 -0.4298
  830MOL0     O11939   4.657  11.663   5.724  0.9786 -0.2072  0.2188
  830MOL0     C11940   4.582  11.741   5.804  0.9699 -0.1725 -0.3870
  830MOL0     C11941   4.589  11.730   5.941 -0.4614  0.7482  0.3091
  830MOL0     C11942   4.494  11.792   6.030 -0.7272 -0.2975 -0.7818
  830MOL0     C11943   4.509  11.766   6.180 -0.5699 -0.3908  0.0032
  830MOL0     C11944   4.397  11.875   5.971  0.1045  0.6118  0.1035
  830MOL0     C11945   4.280  11.932   6.043 -0.3898  0.2886  0.7412
  830MOL0     O11946   4.165  11.928   5.988 -0.4727 -0.0585 -0.2807
  830MOL0     C11947   4.078  12.012   6.044 -0.2861  0.3331 -0.5532
  830MOL0     C11948   4.101  12.152   6.049  0.2463  0.5204 -0.3293
  830MOL0     C11949   4.012  12.239   6.112 -0.7097  0.1742  0.7477
  830MOL0     C11950   3.883  12.205   6.136 -1.0088  0.2543 -0.2601
  830MOL0     O11951   3.789  12.303   6.177  0.3030 -0.7250  0.1625
  830MOL0     C11952   3.649  12.261   6.171  0.4142 -1.3610 -0.6144
  830MOL0     C11953   3.562  12.380   6.153  0.3181 -0.2985 -0.3867
  830MOL0     C11954   3.519  12.436   6.280 -0.4590  1.3238  0.1545
  830MOL0     C11955   3.444  12.565   6.259  0.3729 -0.1247  0.0870
  830MOL0     C11956   3.392  12.605   6.396 -0.2783 -0.1096 -0.4744
  830MOL0     C11957   3.493  12.648   6.499 -0.5256 -0.7019  0.8258
  830MOL0     C11958   3.432  12.737   6.611  0.4348  0.1089 -0.9742
  830MOL0     C11959   3.527  12.739   6.738  0.2936 -0.2454 -0.3694
  830MOL0    Cl11960   3.505  12.576   6.803  0.3618 -0.1712 -0.2783
  830MOL0     C11961   3.864  12.066   6.132 -0.0058  0.2608 -0.0056
  830MOL0     C11962   3.954  11.971   6.089  0.0553  0.6697 -0.0410
  830MOL0     O11963   4.303  11.978   6.155 -0.3885 -0.2319  1.1529
  830MOL0     C11964   4.397  11.888   5.834 -0.5896 -1.0108 -0.0610
  830MOL0     C11965   4.486  11.825   5.750 -0.2728  0.3037  0.5652
  830MOL0     N11966   4.852  11.319   5.303  0.8658 -0.6114  0.1688
  830MOL0     N11967   4.747  11.278   5.252  0.9725 -0.2897 -0.8862
  830MOL0     C11968   3.606  11.341   4.923  0.0040 -0.2093  0.4337
  830MOL0     C11969   3.485  11.398   4.893 -0.4600 -0.7555 -0.0972
  830MOL0     C11970   3.080  11.458   4.724  0.3272  0.8022 -0.1652
  830MOL0     C11971   3.087  11.512   4.595 -0.7144 -1.0786  0.5209
  830MOL0     C11972   2.976  11.552   4.522  0.3502  0.2741 -0.1508
  830MOL0     C11973   2.849  11.524   4.583 -0.0975  0.5671 -0.1664
  830MOL0     O11974   2.734  11.569   4.518 -0.6480  0.4173  0.3069
  830MOL0     C11975   2.707  11.696   4.555 -0.2839  0.3019 -1.2418
  830MOL0     C11976   2.607  11.756   4.466  0.0676 -0.4824  0.2390
  830MOL0     C11977   2.466  11.675   4.464 -0.5833  0.4837  0.9348
  830MOL0     C11978   2.421  11.605   4.589 -0.8802  0.4247  0.6939
  830MOL0     C11979   2.425  11.709   4.691  0.0538 -0.7013 -0.4636
  830MOL0     C11980   2.412  11.786   4.778 -0.1761 -0.0076 -0.4397
  830MOL0     C11981   2.835  11.463   4.706 -0.5426 -0.2540 -0.0161
  830MOL0     C11982   2.952  11.432   4.776  0.8236  0.0558  0.5306
  830MOL0     H11983   3.423  11.241   4.611 -0.4540 -4.8342  1.0085
  830MOL0     H11984   3.656  11.158   4.653  1.9358 -2.2196  2.3256
  830MOL0     H11985   3.922  11.332   4.926  0.4881  0.3052  1.0146
  830MOL0     H11986   3.823  11.254   5.046  1.0614 -3.4838  1.9734
  830MOL0     H11987   3.916  11.033   5.032 -2.0241  1.3633  0.0852
  830MOL0     H11988   3.996  11.081   4.883  0.0691  3.2494 -1.5858
  830MOL0     H11989   4.132  11.236   5.040 -2.0699  1.4373  0.5110
  830MOL0     H11990   4.064  11.172   5.180 -3.6980  1.6300 -1.7581
  830MOL0     H11991   4.140  10.954   5.156 -1.5187  0.9461  1.0423
  830MOL0     H11992   4.210  10.972   4.991 -0.4246  1.2621 -0.2299
  830MOL0     H11993   4.400  10.968   5.120  2.5231  1.1388 -1.9369
  830MOL0     H11994   4.374  11.137   5.073  1.3499  0.0247  0.0319
  830MOL0     H11995   4.241  11.165   5.312 -1.3376 -0.7582  0.2452
  830MOL0     H11996   4.315  11.008   5.340 -0.9493 -1.5228 -2.4431
  830MOL0     H11997   4.441  11.279   5.272 -1.3633 -0.3423 -1.2054
  830MOL0     H11998   4.435  11.216   5.438  3.0982  1.3138 -0.3432
  830MOL0     H11999   4.585  11.067   5.211 -1.7277 -0.6107  0.1206
  830MOL0     H12000   4.572  11.023   5.382 -3.1879 -1.1401 -1.2106
  830MOL0     H12001   4.730  11.149   5.550  2.1690 -0.3031  0.2624
  830MOL0     H12002   5.036  11.248   5.558  1.1158  0.7567 -1.1514
  830MOL0     H12003   5.030  11.409   5.509 -0.4167  0.8666  1.8362
  830MOL0     H12004   4.967  11.424   5.732  0.6023 -0.7709  0.6117
  830MOL0     H12005   4.842  11.294   5.717  0.1408  0.7044  0.7661
  830MOL0     H12006   4.710  11.457   5.598 -0.8104  3.6263  1.1358
  830MOL0     H12007   4.857  11.553   5.582  1.6041 -2.8853 -1.2292
  830MOL0     H12008   4.824  11.621   5.819 -2.9102  2.9122 -0.1622
  830MOL0     H12009   4.712  11.487   5.843  0.1076 -2.3399 -2.0690
  830MOL0     H12010   4.658  11.661   5.989  0.2820  2.8431  2.4613
  830MOL0     H12011   4.553  11.666   6.183  0.7118 -0.0212 -3.1732
  830MOL0     H12012   4.559  11.836   6.248  1.5719 -2.6542  0.8951
  830MOL0     H12013   4.407  11.750   6.216 -0.8600  0.5663 -0.3546
  830MOL0     H12014   4.195  12.191   6.011  0.2981 -2.5114 -3.8925
  830MOL0     H12015   4.029  12.346   6.115  0.7000 -0.0446  2.4264
  830MOL0     H12016   3.632  12.187   6.092 -0.3910 -3.5148  1.4237
  830MOL0     H12017   3.628  12.211   6.266 -4.7042  0.9137 -0.2566
  830MOL0     H12018   3.612  12.454   6.089 -1.7870  0.5457 -1.1353
  830MOL0     H12019   3.478  12.341   6.096 -0.0491 -1.1469  0.7058
  830MOL0     H12020   3.609  12.440   6.342 -1.0369  0.8581  1.0502
  830MOL0     H12021   3.452  12.364   6.329 -2.1633  2.7636  0.0147
  830MOL0     H12022   3.501  12.643   6.207 -2.0450  2.8506  1.5762
  830MOL0     H12023   3.346  12.545   6.215  0.2638  4.0118 -2.0530
  830MOL0     H12024   3.335  12.523   6.440 -3.5874  2.2504  0.0689
  830MOL0     H12025   3.336  12.699   6.390 -0.9288 -0.4827 -0.2526
  830MOL0     H12026   3.533  12.552   6.534  1.0209 -1.6029 -2.9382
  830MOL0     H12027   3.574  12.716   6.469 -2.6043  2.7639  2.4906
  830MOL0     H12028   3.340  12.690   6.646  0.3356  1.0090  0.0372
  830MOL0     H12029   3.411  12.836   6.569  0.0960  0.9478  1.0378
  830MOL0     H12030   3.493  12.807   6.817  1.5917  0.3044 -0.2506
  830MOL0     H12031   3.631  12.761   6.712 -0.1837 -1.7419 -4.0467
  830MOL0     H12032   3.766  12.026   6.156  0.3385 -1.2883 -1.0571
  830MOL0     H12033   3.927  11.866   6.083 -2.8382  1.3366 -0.1000
  830MOL0     H12034   4.324  11.953   5.786  1.9045  0.0169 -2.7873
  830MOL0     H12035   4.475  11.835   5.643 -1.9853 -3.1883  0.2726
  830MOL0     H12036   3.652  11.372   5.017  4.8169  2.7275 -2.4598
  830MOL0     H12037   3.442  11.462   4.969 -0.0016  1.5361 -1.6692
  830MOL0     H12038   3.182  11.529   4.545 -1.5167  3.8353  0.1373
  830MOL0     H12039   2.985  11.601   4.425  0.1084 -1.6064 -1.1656
  830MOL0     H12040   2.685  11.704   4.662 -0.3367  0.1679 -1.2432
  830MOL0     H12041   2.798  11.757   4.547 -1.4208  2.1724 -0.6814
  830MOL0     H12042   2.656  11.763   4.368 -0.2767 -3.2404 -0.2108
  830MOL0     H12043   2.587  11.859   4.497  2.3327 -0.9020  3.7908
  830MOL0     H12044   2.473  11.598   4.386  1.6250  0.7866  0.7789
  830MOL0     H12045   2.391  11.744   4.424  0.8835  0.9470 -1.1743
  830MOL0     H12046   2.488  11.524   4.620 -0.6788 -0.0461 -0.8873
  830MOL0     H12047   2.327  11.554   4.566 -0.2768 -1.5661  2.3275
  830MOL0     H12048   2.413  11.839   4.871  4.4972 -2.8059  1.4727
  830MOL0     H12049   2.736  11.427   4.735 -1.1291  0.8311 -0.6414
  830MOL0     H12050   2.946  11.375   4.868  1.9275 -1.1402 -0.0982
  831MOL0     O12051   4.151   8.736   3.625 -0.1362  0.4890  0.6589
  831MOL0     C12052   4.121   8.793   3.724 -0.0135  0.2621 -0.6727
  831MOL0     O12053   4.081   8.734   3.844 -0.2102 -0.6477  0.4378
  831MOL0     C12054   4.062   8.598   3.853  0.3008 -0.0499 -0.4273
  831MOL0     C12055   4.018   8.506   3.753 -0.1815 -0.8084  0.7276
  831MOL0     C12056   3.975   8.378   3.772  0.6998  0.1415  0.4496
  831MOL0     C12057   3.975   8.333   3.905 -0.1397  0.4646 -0.8196
  831MOL0     O12058   3.935   8.205   3.931 -0.2284 -0.1948  0.2681
  831MOL0     C12059   4.042   8.119   3.964 -0.9148 -0.2632  0.2194
  831MOL0     C12060   4.000   7.978   3.938  1.2713  0.4794  0.1789
  831MOL0     C12061   3.946   7.966   3.793  0.1892 -0.5996  0.4442
  831MOL0     C12062   3.933   7.820   3.763  0.2377  0.3043 -0.3365
  831MOL0     C12063   4.006   7.789   3.633  0.0394 -0.2653 -0.5744
  831MOL0     C12064   3.955   7.662   3.575  0.7270 -0.2614  0.5841
  831MOL0     C12065   4.035   7.638   3.446  0.0913 -0.3646  1.1933
  831MOL0     C12066   4.006   7.739   3.339  0.5894 -0.1717 -0.8465
  831MOL0     N12067   4.000   7.678   3.210  0.1788  0.1795 -0.1642
  831MOL0     C12068   3.894   7.686   3.127  0.0779 -0.1839  0.6376
  831MOL0     C12069   3.944   7.659   3.010  0.4783 -0.5733 -0.4140
  831MOL0     C12070   3.865   7.684   2.878 -0.0687  0.1370  0.1404
  831MOL0     C12071   3.915   7.800   2.784 -0.7536  0.4403  0.8168
  831MOL0     C12072   3.793   7.877   2.713 -0.6543 -1.2711 -0.0246
  831MOL0     C12073   3.836   7.971   2.591  0.4540  0.0114 -0.8623
  831MOL0     O12074   3.714   8.034   2.542  0.5031  0.4476  0.3024
  831MOL0     C12075   3.663   7.978   2.421 -0.3070  0.3314 -0.1753
  831MOL0     C12076   3.596   8.071   2.346  1.2978  0.4041 -0.0363
  831MOL0     C12077   3.525   8.036   2.224  0.4506  0.0589 -0.0972
  831MOL0     C12078   3.457   8.145   2.144  1.2424 -0.7876 -0.4402
  831MOL0     C12079   3.527   7.906   2.176 -0.2457  0.4151  0.3601
  831MOL0     C12080   3.453   7.848   2.053 -0.2315  0.3878 -1.3302
  831MOL0     O12081   3.380   7.932   1.979 -0.3016  0.0239 -0.1508
  831MOL0     C12082   3.311   7.867   1.881 -0.1072  0.3055  0.4960
  831MOL0     C12083   3.184   7.809   1.903 -0.5423  1.6362 -0.6245
  831MOL0     C12084   3.116   7.745   1.790  0.7486  0.2205 -0.3678
  831MOL0     C12085   3.163   7.752   1.660  0.8556 -0.2921 -0.1288
  831MOL0     O12086   3.087   7.680   1.564  0.1277 -0.1567 -0.5148
  831MOL0     C12087   3.161   7.574   1.506 -0.5969 -0.2238 -0.5914
  831MOL0     C12088   3.163   7.616   1.359  0.3051 -0.4279  0.2647
  831MOL0     C12089   3.257   7.513   1.278  0.1814  0.4578 -0.0840
  831MOL0     C12090   3.208   7.487   1.134 -0.5775 -0.4258 -0.2107
  831MOL0     C12091   3.294   7.406   1.032 -0.3342 -0.6613  1.4190
  831MOL0     C12092   3.351   7.271   1.094 -0.3505 -0.8717  0.9984
  831MOL0     C12093   3.244   7.160   1.113 -0.2721  0.1499 -0.1971
  831MOL0     C12094   3.283   7.079   1.236  0.3424 -0.0183  0.0632
  831MOL0    Cl12095   3.419   6.975   1.199 -0.2137  0.1827  0.5209
  831MOL0     C12096   3.289   7.804   1.641  1.2037 -0.8817  0.4067
  831MOL0     C12097   3.365   7.854   1.750 -0.0615 -1.0754  0.3746
  831MOL0     O12098   3.481   7.732   2.024  0.7675  0.6216 -1.1473
  831MOL0     C12099   3.609   7.814   2.247  0.0481  0.2349  0.1241
  831MOL0     C12100   3.682   7.852   2.362 -0.2612 -0.4373 -0.6586
  831MOL0     N12101   4.074   7.612   3.022 -0.4781 -1.3989  0.3286
  831MOL0     N12102   4.106   7.639   3.146 -1.1673  0.8382  0.2152
  831MOL0     C12103   4.016   8.421   4.015 -0.2457  0.9905  0.2052
  831MOL0     C12104   4.061   8.552   3.981  1.1369  0.2915  0.2017
  831MOL0     C12105   4.159   8.940   3.738  0.1852  0.2881 -0.4715
  831MOL0     C12106   4.296   8.979   3.771 -0.1668  0.9318  0.1759
  831MOL0     C12107   4.334   9.111   3.762  0.0709 -0.6188 -0.6700
  831MOL0     C12108   4.248   9.214   3.721 -0.3076 -0.9587 -0.6029
  831MOL0     O12109   4.292   9.347   3.684 -0.7246  0.3207  0.1464
  831MOL0     C12110   4.203   9.439   3.631  0.4179  0.1236 -0.3526
  831MOL0     C12111   4.292   9.553   3.573  1.1140 -0.2752 -0.2266
  831MOL0     C12112   4.405   9.515   3.469  0.8138 -0.0851 -0.2566
  831MOL0     C12113   4.432   9.618   3.365 -1.5642 -0.0649  0.1946
  831MOL0     C12114   4.351   9.588   3.245  0.3838  0.0902 -0.3506
  831MOL0     C12115   4.285   9.601   3.146  0.3078  0.3143  0.0630
  831MOL0     C12116   4.113   9.178   3.704 -0.3595  0.8432  0.5591
  831MOL0     C12117   4.075   9.043   3.698 -0.2284  0.3929  0.4442
  831MOL0     H12118   4.025   8.529   3.647 -0.0042  1.2209  1.1459
  831MOL0     H12119   3.930   8.325   3.688 -0.6302 -2.9158  2.9154
  831MOL0     H12120   4.126   8.137   3.895 -0.9903 -2.3392 -0.4972
  831MOL0     H12121   4.064   8.134   4.070  0.8121 -4.5432  0.6745
  831MOL0     H12122   4.084   7.908   3.949  2.1334  1.5649  0.7126
  831MOL0     H12123   3.920   7.947   4.006  0.4495 -3.6197 -2.3060
  831MOL0     H12124   3.848   8.011   3.775 -1.7155 -4.4202  0.3319
  831MOL0     H12125   4.015   8.018   3.725  1.2033  0.8376  2.4867
  831MOL0     H12126   3.983   7.760   3.839 -0.0030  3.4316  2.5130
  831MOL0     H12127   3.831   7.783   3.752  1.3864 -2.6954 -1.8126
  831MOL0     H12128   3.995   7.876   3.568  0.3498  2.1662  2.4170
  831MOL0     H12129   4.114   7.784   3.652  0.0677  0.2468 -0.5783
  831MOL0     H12130   3.949   7.577   3.643 -0.5752 -0.1272  0.6617
  831MOL0     H12131   3.852   7.687   3.547  0.0513  0.7556  3.5842
  831MOL0     H12132   4.141   7.628   3.471  0.0251  0.5921  1.9016
  831MOL0     H12133   3.996   7.541   3.414 -1.4496 -0.1742  2.3909
  831MOL0     H12134   4.094   7.804   3.341 -1.9743  3.5650 -0.4534
  831MOL0     H12135   3.920   7.800   3.366  1.9373  0.6116  2.1466
  831MOL0     H12136   3.792   7.723   3.134 -0.3999 -1.4390  0.4599
  831MOL0     H12137   3.870   7.585   2.831 -0.8396 -0.3670  1.1029
  831MOL0     H12138   3.761   7.711   2.898 -0.0872 -0.2074  0.5028
  831MOL0     H12139   3.989   7.760   2.714 -1.9254  0.3061 -0.3701
  831MOL0     H12140   3.979   7.869   2.841 -2.1495  2.5645 -0.0505
  831MOL0     H12141   3.750   7.943   2.788  3.4898  0.2501  1.3219
  831MOL0     H12142   3.731   7.797   2.672 -0.5157 -0.8871 -1.0210
  831MOL0     H12143   3.897   7.919   2.517  1.0717 -1.9140  0.8972
  831MOL0     H12144   3.881   8.060   2.635 -1.4020  0.1326  0.9428
  831MOL0     H12145   3.591   8.172   2.385  1.1965 -0.0785  1.2521
  831MOL0     H12146   3.507   8.159   2.048  1.1901  0.7521 -0.2682
  831MOL0     H12147   3.350   8.126   2.138  0.1172  3.0973  2.7198
  831MOL0     H12148   3.474   8.245   2.186 -1.8302  0.0646 -0.9768
  831MOL0     H12149   3.130   7.826   1.996  0.5563  0.2188  0.3125
  831MOL0     H12150   3.017   7.708   1.812  0.6789  0.0558 -0.9355
  831MOL0     H12151   3.260   7.563   1.550  1.9710  0.5862 -5.4091
  831MOL0     H12152   3.117   7.474   1.513  0.0155 -0.4719 -0.2703
  831MOL0     H12153   3.062   7.600   1.318 -0.8659 -3.5513  3.7930
  831MOL0     H12154   3.195   7.720   1.352  0.1752 -0.2576  1.8078
  831MOL0     H12155   3.262   7.416   1.330  0.9988  0.0591 -0.8811
  831MOL0     H12156   3.359   7.552   1.270  1.0352 -1.7900 -1.1938
  831MOL0     H12157   3.106   7.448   1.136 -1.1082  0.1964 -4.5766
  831MOL0     H12158   3.197   7.588   1.094 -2.1980  0.4936  2.2908
  831MOL0     H12159   3.385   7.465   1.016  0.2960 -0.9159  3.7385
  831MOL0     H12160   3.244   7.375   0.940  0.0246  4.5039 -0.8768
  831MOL0     H12161   3.424   7.226   1.025  0.3657  1.6679 -0.0390
  831MOL0     H12162   3.407   7.294   1.185 -0.4488  1.5439  0.5252
  831MOL0     H12163   3.244   7.095   1.025  3.3152 -2.0906  1.2334
  831MOL0     H12164   3.146   7.209   1.123 -2.0200 -2.1143 -4.0210
  831MOL0     H12165   3.204   7.022   1.287 -0.7124 -0.5869 -2.0659
  831MOL0     H12166   3.314   7.143   1.319 -1.7231 -0.9990  1.7096
  831MOL0     H12167   3.336   7.794   1.544 -0.9820 -1.2635 -0.6923
  831MOL0     H12168   3.461   7.896   1.719  0.5469 -3.4797 -1.2222
  831MOL0     H12169   3.624   7.713   2.210  2.1193  0.4281  0.2995
  831MOL0     H12170   3.737   7.778   2.420  1.5924  1.8907  0.7352
  831MOL0     H12171   4.027   8.381   4.115 -0.8058 -2.2208 -0.9195
  831MOL0     H12172   4.101   8.610   4.064 -0.7713  2.9197 -0.5640
  831MOL0     H12173   4.358   8.894   3.793  0.0482  0.5978 -1.5307
  831MOL0     H12174   4.440   9.127   3.775 -0.2238  2.7478 -1.4295
  831MOL0     H12175   4.140   9.407   3.548 -0.6615  3.7069 -1.0701
  831MOL0     H12176   4.139   9.476   3.712  0.5061  1.3719 -0.8298
  831MOL0     H12177   4.326   9.607   3.662 -0.9392 -0.5085  0.7691
  831MOL0     H12178   4.219   9.614   3.519 -0.4214 -3.1774 -1.6334
  831MOL0     H12179   4.379   9.421   3.420 -1.3571  0.1200  0.4199
  831MOL0     H12180   4.501   9.502   3.519  1.5420  1.0349 -1.2699
  831MOL0     H12181   4.537   9.609   3.335 -1.8937 -1.8626 -0.5782
  831MOL0     H12182   4.416   9.720   3.400  1.2896  0.4970  0.1384
  831MOL0     H12183   4.249   9.603   3.045  0.6513 -1.4874 -0.1335
  831MOL0     H12184   4.029   9.238   3.671  0.2309  0.8426 -1.0501
  831MOL0     H12185   3.971   9.026   3.674  0.5315  0.0040 -3.2715
  832MOL0     O12186   5.564   2.126   4.535 -0.1298 -0.0853 -0.4074
  832MOL0     C12187   5.608   2.210   4.613  0.4073  0.1130 -0.0679
  832MOL0     O12188   5.735   2.208   4.672 -0.0242 -0.6190  0.2001
  832MOL0     C12189   5.808   2.094   4.648  0.2044 -0.0775  0.2060
  832MOL0     C12190   5.853   2.073   4.521 -0.4514 -0.2656 -0.5874
  832MOL0     C12191   5.920   1.953   4.490  0.4324  0.7602  0.6196
  832MOL0     C12192   5.948   1.862   4.591  0.3166  0.3758 -0.6377
  832MOL0     O12193   6.009   1.751   4.541 -0.2493 -0.0803  0.2848
  832MOL0     C12194   5.990   1.636   4.627 -0.4578  0.6576 -0.3757
  832MOL0     C12195   6.034   1.513   4.543 -0.6454 -0.2259  0.0796
  832MOL0     C12196   6.185   1.537   4.493  0.5078  0.2186 -0.0744
  832MOL0     C12197   6.225   1.418   4.398 -0.8217  0.3274 -0.3871
  832MOL0     C12198   6.346   1.441   4.298 -0.0288  0.0696  0.5810
  832MOL0     C12199   6.474   1.485   4.375  0.0746 -1.0339 -0.2243
  832MOL0     C12200   6.597   1.457   4.296 -0.4880 -0.2162  0.6264
  832MOL0     C12201   6.718   1.511   4.341 -0.1205 -0.7632 -0.6627
  832MOL0     N12202   6.723   1.657   4.330  0.0071 -0.0576  0.2715
  832MOL0     C12203   6.785   1.719   4.226 -0.1525 -0.6807  0.1930
  832MOL0     C12204   6.793   1.850   4.260  0.0761 -0.2739 -0.5940
  832MOL0     C12205   6.869   1.959   4.186 -0.0840  1.0812 -1.2561
  832MOL0     C12206   6.950   2.063   4.263  0.4841 -0.0434  0.4563
  832MOL0     C12207   7.059   1.999   4.340 -0.3505 -0.5985 -0.7020
  832MOL0     C12208   7.164   1.925   4.257 -0.5280  0.0097  0.3226
  832MOL0     O12209   7.274   1.875   4.329 -0.0471 -0.2417 -0.1835
  832MOL0     C12210   7.253   1.777   4.424 -0.4378  0.0839 -0.4974
  832MOL0     C12211   7.345   1.770   4.529 -0.9116  0.0723 -0.4649
  832MOL0     C12212   7.347   1.670   4.625  0.7567  1.2482 -0.2367
  832MOL0     C12213   7.434   1.682   4.751 -1.1406 -0.5563 -0.2436
  832MOL0     C12214   7.247   1.572   4.615 -0.0756 -0.8985  0.8062
  832MOL0     C12215   7.250   1.450   4.698 -0.8682  0.2981 -0.2853
  832MOL0     O12216   7.233   1.335   4.642 -0.5708  0.0905  1.3572
  832MOL0     C12217   7.295   1.215   4.675 -0.6021  0.6167  0.7480
  832MOL0     C12218   7.242   1.076   4.653 -0.1543 -0.2302 -0.5363
  832MOL0     C12219   7.318   0.957   4.688 -0.0020  0.4739 -0.3555
  832MOL0     C12220   7.451   0.976   4.740  0.2178 -0.1665  0.1249
  832MOL0     O12221   7.522   0.865   4.777  0.1018  0.0082 -0.9414
  832MOL0     C12222   7.651   0.843   4.732  0.1707 -1.2361 -0.1435
  832MOL0     C12223   7.728   0.729   4.814  0.3484 -0.1263  0.5352
  832MOL0     C12224   7.704   0.750   4.966  0.1847 -0.4238  0.2366
  832MOL0     C12225   7.784   0.864   5.018  0.3431 -0.5298  0.6136
  832MOL0     C12226   7.770   0.864   5.170 -0.2027 -0.2478  0.0899
  832MOL0     C12227   7.848   0.971   5.245  0.0125 -0.1141 -0.4108
  832MOL0     C12228   7.862   1.107   5.179  0.4752 -0.5813 -0.4934
  832MOL0     C12229   7.924   1.220   5.272 -0.0615 -0.2336  0.2853
  832MOL0    Cl12230   7.917   1.379   5.186  0.5122 -0.0879  0.1336
  832MOL0     C12231   7.501   1.108   4.764  0.3137 -0.7211  0.6459
  832MOL0     C12232   7.424   1.225   4.731 -0.2427 -0.3625  0.1902
  832MOL0     O12233   7.266   1.465   4.824  0.0433 -0.4105  0.2423
  832MOL0     C12234   7.155   1.574   4.518 -0.1126 -0.8249 -1.1457
  832MOL0     C12235   7.157   1.677   4.424 -0.3074 -0.5950 -0.2005
  832MOL0     N12236   6.744   1.866   4.384  0.7028 -0.1971 -0.6887
  832MOL0     N12237   6.707   1.749   4.431 -0.1312  1.0332  0.7038
  832MOL0     C12238   5.907   1.885   4.724  0.0397  0.0290  0.1016
  832MOL0     C12239   5.834   2.004   4.748 -0.5746  0.4084  0.4692
  832MOL0     C12240   5.510   2.310   4.667  0.4872  0.5435  0.4461
  832MOL0     C12241   5.369   2.279   4.660  0.2117 -0.1493 -0.2351
  832MOL0     C12242   5.287   2.361   4.731 -0.3054 -0.2340 -0.1755
  832MOL0     C12243   5.326   2.474   4.789 -0.5243  0.7274 -0.1677
  832MOL0     O12244   5.234   2.557   4.849  0.3931  0.6971 -0.3731
  832MOL0     C12245   5.193   2.505   4.984 -0.0166 -0.4115  0.1988
  832MOL0     C12246   5.042   2.526   4.995 -0.5387  0.7526  0.0620
  832MOL0     C12247   4.997   2.671   4.993 -0.1756 -0.5166 -0.2882
  832MOL0     C12248   4.848   2.690   4.991 -0.1461  1.6714 -0.3383
  832MOL0     C12249   4.778   2.663   5.115 -0.6234  0.3104 -0.5057
  832MOL0     C12250   4.694   2.639   5.199  0.1445  0.3725  0.7672
  832MOL0     C12251   5.456   2.517   4.782  0.4483 -0.5512  0.3446
  832MOL0     C12252   5.549   2.431   4.725 -0.2650 -0.3405 -0.1040
  832MOL0     H12253   5.856   2.163   4.461  0.1028 -1.3499 -2.2433
  832MOL0     H12254   5.970   1.937   4.395  3.2884  1.3038  1.9066
  832MOL0     H12255   6.039   1.650   4.724 -0.1129 -1.0622 -0.2756
  832MOL0     H12256   5.882   1.632   4.646 -0.8974  2.7724 -1.9893
  832MOL0     H12257   6.039   1.422   4.604  0.8730 -0.1819  0.0677
  832MOL0     H12258   5.969   1.495   4.456 -1.5576 -0.0180  0.7053
  832MOL0     H12259   6.174   1.631   4.439 -0.4794  0.7434  1.0001
  832MOL0     H12260   6.250   1.542   4.581  3.4030  1.6340 -2.1115
  832MOL0     H12261   6.265   1.342   4.467 -0.2280  0.6191 -0.4032
  832MOL0     H12262   6.138   1.381   4.344 -1.8772  4.5401 -1.9326
  832MOL0     H12263   6.360   1.348   4.242  2.9957  0.6879  0.1495
  832MOL0     H12264   6.316   1.516   4.224 -1.7859  0.1495  1.3141
  832MOL0     H12265   6.471   1.590   4.408  0.1870 -1.6108  1.7264
  832MOL0     H12266   6.476   1.427   4.468 -0.4172  2.8301  2.4717
  832MOL0     H12267   6.610   1.349   4.283 -2.3538 -0.2977 -1.0228
  832MOL0     H12268   6.599   1.500   4.196  5.2148  0.2022  0.5660
  832MOL0     H12269   6.813   1.492   4.291 -0.7328  0.2248 -2.2707
  832MOL0     H12270   6.731   1.492   4.448  1.3994  1.0380 -0.4683
  832MOL0     H12271   6.827   1.664   4.142  1.2770 -2.0851  1.7420
  832MOL0     H12272   6.926   1.917   4.103  0.2553  3.7047 -2.4377
  832MOL0     H12273   6.797   2.023   4.135  2.1778  2.8996 -2.3547
  832MOL0     H12274   6.888   2.114   4.338 -1.3416 -0.8218 -0.4606
  832MOL0     H12275   6.991   2.148   4.207  2.1800 -1.5615 -0.7213
  832MOL0     H12276   7.009   1.931   4.410  1.9758 -1.6537  0.0147
  832MOL0     H12277   7.109   2.082   4.390 -1.4344 -2.0111  3.0638
  832MOL0     H12278   7.210   1.994   4.186 -1.7264 -0.4106 -0.9146
  832MOL0     H12279   7.120   1.834   4.214  3.1682 -1.9964  0.3938
  832MOL0     H12280   7.430   1.837   4.539 -0.8831 -0.0351  0.0492
  832MOL0     H12281   7.506   1.761   4.728 -1.0518 -0.0838  1.4755
  832MOL0     H12282   7.375   1.691   4.843  1.7175  2.1511  1.5287
  832MOL0     H12283   7.488   1.588   4.766 -0.0038  0.0945 -0.1315
  832MOL0     H12284   7.139   1.064   4.624 -0.2518 -4.3651  0.8572
  832MOL0     H12285   7.281   0.856   4.681 -0.0958  0.5408 -0.8840
  832MOL0     H12286   7.663   0.816   4.627  0.4905  1.3061 -0.8445
  832MOL0     H12287   7.708   0.934   4.754 -0.3257 -0.9257 -0.0983
  832MOL0     H12288   7.692   0.630   4.784  4.6951 -1.8085  0.1714
  832MOL0     H12289   7.832   0.727   4.781 -1.1468 -0.9651 -5.4628
  832MOL0     H12290   7.751   0.660   5.008  1.8073 -0.4799 -1.5367
  832MOL0     H12291   7.605   0.763   5.010  0.5027  0.0589  0.8099
  832MOL0     H12292   7.890   0.853   4.992 -0.1430 -0.8807 -1.3506
  832MOL0     H12293   7.760   0.966   4.986  1.1894 -0.2849  0.7378
  832MOL0     H12294   7.812   0.767   5.199 -0.2709  0.1218  1.4749
  832MOL0     H12295   7.663   0.880   5.187 -0.0858 -0.3038  0.9185
  832MOL0     H12296   7.793   1.003   5.335 -0.9284 -4.2169  0.6712
  832MOL0     H12297   7.949   0.940   5.271  0.5036  0.7284 -1.2582
  832MOL0     H12298   7.768   1.146   5.139  0.5679 -1.4946 -1.6372
  832MOL0     H12299   7.929   1.097   5.094  0.5754  0.5305 -0.5594
  832MOL0     H12300   8.029   1.188   5.281 -1.0346 -4.7864 -1.5998
  832MOL0     H12301   7.877   1.224   5.371 -1.3740 -0.4362 -0.3131
  832MOL0     H12302   7.604   1.119   4.798 -0.0354  0.8199  1.2980
  832MOL0     H12303   7.470   1.323   4.741  0.8153 -0.8533  0.2332
  832MOL0     H12304   7.075   1.507   4.487 -2.3860  1.2099  0.0066
  832MOL0     H12305   7.090   1.679   4.338 -0.4756 -1.1532 -0.0890
  832MOL0     H12306   5.914   1.817   4.808  2.0310  0.5800  0.4264
  832MOL0     H12307   5.781   2.027   4.840  1.5788  0.2939  1.8048
  832MOL0     H12308   5.332   2.192   4.606 -1.6957 -0.2736  1.1548
  832MOL0     H12309   5.182   2.332   4.730 -1.0396  2.2075 -0.9271
  832MOL0     H12310   5.220   2.402   5.010 -1.6928 -1.0535 -0.5016
  832MOL0     H12311   5.239   2.561   5.066 -1.2982 -0.2614  0.8275
  832MOL0     H12312   5.001   2.489   5.090 -1.5013  1.3837 -0.0975
  832MOL0     H12313   5.008   2.471   4.907  2.7337 -0.0160 -0.8847
  832MOL0     H12314   5.048   2.729   4.915 -2.5412  1.7454 -0.2869
  832MOL0     H12315   5.024   2.711   5.091 -0.3546 -2.8392  0.7813
  832MOL0     H12316   4.806   2.620   4.918  2.4423  1.8849 -2.2091
  832MOL0     H12317   4.820   2.791   4.960 -1.7188  2.2033  2.4912
  832MOL0     H12318   4.622   2.602   5.269  1.0062  0.2519  1.6001
  832MOL0     H12319   5.491   2.600   4.843 -2.0421 -0.8906  2.3941
  832MOL0     H12320   5.651   2.469   4.721 -0.7866  1.0433 -0.9309
  833MOL0     O12321  11.194  11.025  11.455 -0.3223  0.6377  0.0766
  833MOL0     C12322  11.120  10.924  11.467 -0.2663 -0.2246  0.0277
  833MOL0     O12323  11.145  10.813  11.557 -0.2694 -0.0650  0.5176
  833MOL0     C12324  11.256  10.802  11.635  1.2905  0.5304 -0.8566
  833MOL0     C12325  11.357  10.890  11.670 -0.3689  0.0104  0.3626
  833MOL0     C12326  11.452  10.864  11.772  0.0594  0.9578  0.5963
  833MOL0     C12327  11.451  10.740  11.834 -0.4895 -1.0518  0.5720
  833MOL0     O12328  11.547  10.709  11.936 -0.2689 -0.4522 -0.1484
  833MOL0     C12329  11.633  10.601  11.905 -0.1364 -0.1546 -0.7256
  833MOL0     C12330  11.777  10.655  11.888 -0.4226  0.9664 -0.5511
  833MOL0     C12331  11.796  10.759  11.776  0.5712  0.6520  1.0370
  833MOL0     C12332  11.744  10.710  11.637  0.1410 -0.1061  0.6233
  833MOL0     C12333  11.748  10.820  11.534  0.6849  0.7285 -0.6810
  833MOL0     C12334  11.885  10.876  11.493  0.6624 -1.1018  0.6344
  833MOL0     C12335  11.883  10.962  11.352  0.0034 -0.2042  0.1893
  833MOL0     C12336  12.007  11.045  11.343 -1.1253  0.1120  0.1328
  833MOL0     N12337  12.131  10.966  11.323  0.6250 -0.1655 -0.5349
  833MOL0     C12338  12.168  10.911  11.210  0.7440 -0.6329 -0.1607
  833MOL0     C12339  12.299  10.890  11.218 -0.0796  0.1342 -0.2535
  833MOL0     C12340  12.389  10.814  11.122  0.4440  0.4178 -0.4981
  833MOL0     C12341  12.374  10.660  11.145 -0.5252  0.3084  0.6769
  833MOL0     C12342  12.399  10.586  11.020  1.3204 -0.4479  0.7959
  833MOL0     C12343  12.529  10.620  10.943 -0.8668  0.1697  0.5081
  833MOL0     O12344  12.517  10.516  10.848 -0.3289  0.0106  0.4249
  833MOL0     C12345  12.614  10.501  10.755  0.0486 -0.7102  0.0508
  833MOL0     C12346  12.596  10.398  10.669  0.0493  1.4786 -0.1818
  833MOL0     C12347  12.688  10.359  10.570 -0.1453 -0.1569 -1.1734
  833MOL0     C12348  12.647  10.251  10.471 -0.5786  0.2536 -0.8157
  833MOL0     C12349  12.813  10.429  10.563 -0.7064 -0.3843  0.3247
  833MOL0     C12350  12.918  10.403  10.468  0.4968  0.0106 -0.1067
  833MOL0     O12351  12.881  10.366  10.348 -0.5357  0.1221  0.6176
  833MOL0     C12352  12.972  10.312  10.256 -0.4169 -0.6979  0.8656
  833MOL0     C12353  12.924  10.316  10.130 -1.2037 -0.3257  0.9112
  833MOL0     C12354  12.995  10.247  10.032  0.0578  0.3737 -0.7683
  833MOL0     C12355  13.102  10.163  10.066 -0.4383  0.5599 -0.8516
  833MOL0     O12356  13.186  10.096   9.985  0.3005  0.4461 -0.8908
  833MOL0     C12357  13.147  10.064   9.846 -0.1568 -0.3601 -0.1463
  833MOL0     C12358  13.064   9.937   9.840 -0.0503  0.1400 -0.0117
  833MOL0     C12359  13.023   9.916   9.696 -0.4037  0.4478  0.5744
  833MOL0     C12360  12.933   9.793   9.677  0.0227  0.3426 -0.3618
  833MOL0     C12361  12.907   9.753   9.539  0.8978  0.7726  0.3446
  833MOL0     C12362  12.837   9.616   9.523  0.1535  0.7886  0.3680
  833MOL0     C12363  12.775   9.597   9.378  0.4915 -0.8098  0.5434
  833MOL0     C12364  12.881   9.586   9.273  0.8426  0.6240  0.6616
  833MOL0    Cl12365  12.812   9.627   9.112  0.0120  0.2639 -0.2100
  833MOL0     C12366  13.149  10.166  10.194  0.1028 -0.3255  0.1695
  833MOL0     C12367  13.089  10.253  10.284 -0.8213  0.3283  0.1663
  833MOL0     O12368  13.037  10.409  10.508  0.2098  0.0368 -0.3310
  833MOL0     C12369  12.838  10.534  10.660  0.1193 -0.1977  0.3346
  833MOL0     C12370  12.737  10.569  10.752  0.0412 -0.4200  0.1617
  833MOL0     N12371  12.334  10.936  11.347  0.5270 -0.1388 -0.1329
  833MOL0     N12372  12.232  10.970  11.408  0.1601 -0.0891 -0.4932
  833MOL0     C12373  11.357  10.645  11.794 -0.5877 -0.0224  0.7494
  833MOL0     C12374  11.262  10.674  11.697  0.3558 -0.0407  0.2981
  833MOL0     C12375  10.993  10.917  11.381  0.4246  0.0297 -0.7837
  833MOL0     C12376  10.971  11.023  11.287  0.3055  0.3615  0.0211
  833MOL0     C12377  10.848  11.016  11.216 -0.4105 -0.6460  0.8164
  833MOL0     C12378  10.764  10.904  11.218 -0.7133 -0.9381 -0.4205
  833MOL0     O12379  10.656  10.903  11.135 -1.2383 -0.6141  0.6463
  833MOL0     C12380  10.571  10.781  11.136 -0.3735  0.7339 -0.4436
  833MOL0     C12381  10.451  10.790  11.045 -0.2768  0.6909  0.5034
  833MOL0     C12382  10.479  10.807  10.892 -1.0416  0.6082  0.1011
  833MOL0     C12383  10.352  10.778  10.804 -0.6989 -0.5294 -0.2783
  833MOL0     C12384  10.223  10.819  10.852  0.3567  0.3350 -0.4762
  833MOL0     C12385  10.115  10.863  10.885 -0.1150 -0.3424  0.0279
  833MOL0     C12386  10.792  10.802  11.320  0.2235 -0.7400 -0.5801
  833MOL0     C12387  10.907  10.811  11.402  0.3747  0.8126 -0.7790
  833MOL0     H12388  11.358  10.990  11.627 -2.9705 -0.4925 -1.1228
  833MOL0     H12389  11.527  10.938  11.799  2.4934 -0.2593 -2.3124
  833MOL0     H12390  11.631  10.524  11.983  1.1316  4.4617  4.4851
  833MOL0     H12391  11.598  10.555  11.811  1.4177 -1.5074 -0.6894
  833MOL0     H12392  11.812  10.695  11.983 -0.8600  0.2355 -0.0706
  833MOL0     H12393  11.831  10.561  11.868 -0.3732  1.0664 -0.8908
  833MOL0     H12394  11.761  10.862  11.790 -0.8832  0.1058  1.6788
  833MOL0     H12395  11.903  10.772  11.762  0.7149 -1.1551  0.2251
  833MOL0     H12396  11.798  10.625  11.594 -0.4125  0.4744 -1.3638
  833MOL0     H12397  11.643  10.670  11.650  0.6819 -1.3685  1.0313
  833MOL0     H12398  11.715  10.769  11.443  0.0195 -1.9122  0.9268
  833MOL0     H12399  11.687  10.907  11.560 -1.2616 -0.5216 -0.8898
  833MOL0     H12400  11.920  10.941  11.574  1.1229 -2.0638  1.2373
  833MOL0     H12401  11.962  10.799  11.484 -0.9328 -2.5934 -0.8882
  833MOL0     H12402  11.890  10.886  11.273  0.2205 -1.9149  1.7862
  833MOL0     H12403  11.802  11.033  11.334  2.5318  2.3414 -2.1987
  833MOL0     H12404  12.004  11.107  11.433 -3.5509  2.8006 -1.5959
  833MOL0     H12405  12.006  11.116  11.259 -1.1230  1.6910  1.4139
  833MOL0     H12406  12.109  10.897  11.119 -0.9746 -0.1841  0.8460
  833MOL0     H12407  12.344  10.842  11.027 -0.2991 -2.3232 -1.0298
  833MOL0     H12408  12.493  10.841  11.143  0.0783  0.1645  1.9413
  833MOL0     H12409  12.270  10.636  11.168 -1.2075  4.3824  2.7037
  833MOL0     H12410  12.443  10.637  11.227  0.5420  4.3215  1.1286
  833MOL0     H12411  12.313  10.609  10.956 -0.3840 -3.8531  1.5869
  833MOL0     H12412  12.385  10.478  11.033  0.2224 -0.5744 -1.1592
  833MOL0     H12413  12.610  10.598  11.013  0.4378  0.0386 -0.9976
  833MOL0     H12414  12.536  10.724  10.910 -0.9306  0.1639  0.4752
  833MOL0     H12415  12.508  10.334  10.673  2.6009 -2.3801  0.2533
  833MOL0     H12416  12.713  10.164  10.478 -1.1671 -0.6248 -4.3938
  833MOL0     H12417  12.542  10.220  10.482 -1.0620  1.0506 -2.8408
  833MOL0     H12418  12.655  10.281  10.366  3.1987 -0.6905 -0.9284
  833MOL0     H12419  12.827  10.355  10.100 -0.4543  2.7560  2.1289
  833MOL0     H12420  12.959  10.241   9.930 -0.8266 -1.6663 -0.3920
  833MOL0     H12421  13.106  10.150   9.792  1.2549 -0.4973 -1.5057
  833MOL0     H12422  13.247  10.061   9.802  0.7833 -0.3955  1.8433
  833MOL0     H12423  13.128   9.855   9.875  0.0484 -0.2807 -1.1357
  833MOL0     H12424  12.967   9.950   9.889  1.1080  0.6561  2.2519
  833MOL0     H12425  13.111   9.909   9.632 -3.3379 -2.4479 -3.7398
  833MOL0     H12426  12.972  10.006   9.659  1.3694  0.9012 -0.9070
  833MOL0     H12427  12.978   9.706   9.726 -0.5202  1.7415  2.7894
  833MOL0     H12428  12.834   9.811   9.719  0.5328  1.9113  0.2141
  833MOL0     H12429  13.004   9.737   9.492  1.0501  1.4104  0.4382
  833MOL0     H12430  12.861   9.833   9.481 -0.3408  0.5480  0.9696
  833MOL0     H12431  12.906   9.532   9.535 -2.3048 -1.8036 -2.1389
  833MOL0     H12432  12.763   9.600   9.602 -1.5128 -0.3613 -1.3459
  833MOL0     H12433  12.712   9.678   9.339  1.0964 -0.6433 -0.0991
  833MOL0     H12434  12.721   9.502   9.381 -0.4583 -0.3317 -0.5259
  833MOL0     H12435  12.922   9.486   9.260 -1.3070 -0.1208 -1.0231
  833MOL0     H12436  12.958   9.657   9.302  0.0082  1.8627 -0.0500
  833MOL0     H12437  13.239  10.110  10.221 -1.8163 -4.2958 -0.8532
  833MOL0     H12438  13.133  10.257  10.383 -0.2075  5.5002 -0.0562
  833MOL0     H12439  12.931  10.589  10.660 -1.4223  2.6299  1.7258
  833MOL0     H12440  12.755  10.636  10.835  2.0016  1.6313 -1.7706
  833MOL0     H12441  11.350  10.542  11.829  0.0235 -0.5900 -0.7286
  833MOL0     H12442  11.196  10.595  11.663  0.5881 -0.4451  0.7804
  833MOL0     H12443  11.044  11.102  11.272  1.5648 -0.8563 -0.4853
  833MOL0     H12444  10.833  11.100  11.149  3.7833 -1.1645 -1.1195
  833MOL0     H12445  10.629  10.693  11.105  0.2811  1.4617 -1.3543
  833MOL0     H12446  10.534  10.777  11.239 -0.1844 -0.8169 -0.4065
  833MOL0     H12447  10.394  10.872  11.089 -2.0190 -1.4649  2.5787
  833MOL0     H12448  10.396  10.696  11.061 -0.0628  0.5997  0.7216
  833MOL0     H12449  10.564  10.747  10.858 -0.2496  2.8346 -2.1771
  833MOL0     H12450  10.510  10.911  10.877 -1.4842  0.4836 -1.9981
  833MOL0     H12451  10.344  10.671  10.784 -0.6109 -0.4202 -0.9171
  833MOL0     H12452  10.360  10.815  10.701  0.9485 -1.0339 -0.3568
  833MOL0     H12453  10.025  10.913  10.915  0.0754 -1.7173  3.3875
  833MOL0     H12454  10.723  10.718  11.315  0.9438 -2.0238  4.9862
  833MOL0     H12455  10.925  10.722  11.460 -2.3198  1.4610  1.2638
  834MOL0     O12456   9.078  10.331   2.014 -0.1750  0.4532 -0.2048
  834MOL0     C12457   9.190  10.384   2.009  0.0596  0.9794 -0.1287
  834MOL0     O12458   9.212  10.513   1.955  0.0171 -0.5996 -0.5115
  834MOL0     C12459   9.102  10.586   1.928  0.1747 -0.3880  0.3025
  834MOL0     C12460   9.083  10.614   1.795 -0.4315  0.2594 -0.5972
  834MOL0     C12461   8.981  10.699   1.763 -0.4836 -0.9192 -0.3769
  834MOL0     C12462   8.906  10.782   1.859 -0.4188  0.1348  0.8997
  834MOL0     O12463   8.801  10.868   1.843 -0.7730 -0.2723  0.0180
  834MOL0     C12464   8.737  10.882   1.722  0.9477 -0.5282  0.7358
  834MOL0     C12465   8.642  11.001   1.731 -0.0830  0.0841  0.5238
  834MOL0     C12466   8.663  11.100   1.613  0.8686  0.6636 -0.3070
  834MOL0     C12467   8.809  11.161   1.629 -0.7414 -0.2350  0.4013
  834MOL0     C12468   8.857  11.225   1.497  0.3268 -0.2397  0.3578
  834MOL0     C12469   8.914  11.131   1.393  0.2342  0.0244 -0.8544
  834MOL0     C12470   9.015  11.186   1.294 -0.7096 -0.1206 -0.2454
  834MOL0     C12471   9.143  11.223   1.367  0.1352 -0.4838 -0.1300
  834MOL0     N12472   9.249  11.255   1.260 -0.9501 -0.1185  0.2383
  834MOL0     C12473   9.255  11.377   1.191 -0.8820  0.0771  0.5292
  834MOL0     C12474   9.371  11.367   1.113  0.5903 -0.2768  0.5263
  834MOL0     C12475   9.428  11.483   1.033 -0.2733 -0.1055 -0.0629
  834MOL0     C12476   9.408  11.625   1.086 -0.7574  0.0683  0.4987
  834MOL0     C12477   9.530  11.717   1.035 -0.0765  0.1339 -0.0904
  834MOL0     C12478   9.528  11.862   1.096 -0.2046 -0.1905  0.3102
  834MOL0     O12479   9.559  11.852   1.233  0.3088  0.1704  0.2580
  834MOL0     C12480   9.696  11.851   1.261  1.7210 -0.2377 -0.1314
  834MOL0     C12481   9.729  11.804   1.395  0.9818 -0.1740 -0.0054
  834MOL0     C12482   9.861  11.806   1.446 -0.0502  0.5994 -0.2865
  834MOL0     C12483   9.881  11.776   1.589 -0.0177 -0.0279 -0.6381
  834MOL0     C12484   9.964  11.838   1.361 -0.0538  0.7503  0.3146
  834MOL0     C12485  10.109  11.834   1.393 -0.2849  1.0806 -0.5711
  834MOL0     O12486  10.194  11.903   1.311  0.6622 -0.4262 -0.3660
  834MOL0     C12487  10.322  11.865   1.284  0.2879 -0.1694 -0.6178
  834MOL0     C12488  10.366  11.789   1.177 -0.6794 -0.3572  0.8468
  834MOL0     C12489  10.506  11.792   1.149  0.2149 -0.1332 -0.9492
  834MOL0     C12490  10.594  11.875   1.220 -0.4898  0.7429 -0.0012
  834MOL0     O12491  10.737  11.869   1.202  0.6788  0.8815 -0.4641
  834MOL0     C12492  10.777  11.734   1.224  0.7414  0.5038 -0.3895
  834MOL0     C12493  10.927  11.736   1.200  0.0851  0.1932 -1.1540
  834MOL0     C12494  10.997  11.608   1.256 -0.3349 -0.5207 -0.4124
  834MOL0     C12495  11.131  11.580   1.191  0.3835 -0.5033  0.1957
  834MOL0     C12496  11.218  11.707   1.171  0.1441  0.3421 -0.1676
  834MOL0     C12497  11.366  11.676   1.145 -0.3626  0.4804  0.0139
  834MOL0     C12498  11.445  11.799   1.110  0.1427 -0.2652  0.6034
  834MOL0     C12499  11.393  11.857   0.974  0.4671  0.6409  0.0294
  834MOL0    Cl12500  11.431  11.756   0.825  0.2192 -0.2111 -0.6821
  834MOL0     C12501  10.548  11.951   1.323  0.1281  0.5680  0.3052
  834MOL0     C12502  10.415  11.943   1.353 -0.6351 -1.1266 -0.4780
  834MOL0     O12503  10.143  11.766   1.483 -0.1422  0.0930 -0.5003
  834MOL0     C12504   9.933  11.882   1.229  0.9484  0.4731 -0.3128
  834MOL0     C12505   9.803  11.898   1.182 -0.3065 -0.3667  0.1958
  834MOL0     N12506   9.425  11.248   1.136 -0.3913 -0.5880  0.1004
  834MOL0     N12507   9.353  11.179   1.213 -0.4347  0.2754 -0.1946
  834MOL0     C12508   8.926  10.753   1.995  0.0290 -0.3643  0.3015
  834MOL0     C12509   9.018  10.649   2.024  0.3703 -0.2515 -0.1914
  834MOL0     C12510   9.306  10.308   2.065 -0.5165 -0.1576 -0.3171
  834MOL0     C12511   9.437  10.365   2.037  0.5416 -0.1697 -0.1320
  834MOL0     C12512   9.547  10.311   2.094 -0.0689  0.0126 -0.2666
  834MOL0     C12513   9.538  10.197   2.172  0.2824 -0.6127 -1.2727
  834MOL0     O12514   9.653  10.166   2.240  0.1935  0.8421 -0.0012
  834MOL0     C12515   9.668  10.040   2.309 -0.2011 -0.7003  0.8537
  834MOL0     C12516   9.689   9.946   2.201  0.4581  1.3915  1.1169
  834MOL0     C12517   9.779   9.977   2.084 -0.7476  0.0479 -0.3990
  834MOL0     C12518   9.918  10.008   2.116 -1.1848 -1.0566 -0.0569
  834MOL0     C12519  10.008   9.992   1.996 -0.5304 -0.3821  0.1769
  834MOL0     C12520  10.084   9.985   1.895 -1.1067  0.1590 -0.4669
  834MOL0     C12521   9.408  10.140   2.191  0.7525  0.3264 -1.0085
  834MOL0     C12522   9.292  10.191   2.131 -0.2659 -0.4939  0.7509
  834MOL0     H12523   9.152  10.572   1.723  2.7745  1.3621  1.5976
  834MOL0     H12524   8.970  10.740   1.663 -1.9424  0.7875  0.4286
  834MOL0     H12525   8.802  10.885   1.634  1.1715 -0.9193  0.8835
  834MOL0     H12526   8.679  10.792   1.698  0.4631  0.8657 -4.4205
  834MOL0     H12527   8.539  10.966   1.746 -0.2359  0.0184 -0.6518
  834MOL0     H12528   8.655  11.045   1.830  4.2952  0.4956 -0.0577
  834MOL0     H12529   8.655  11.056   1.513  2.9546  0.6878 -0.5334
  834MOL0     H12530   8.593  11.183   1.618  1.1018  0.8686 -0.4712
  834MOL0     H12531   8.823  11.234   1.709  2.1312 -2.2197  1.8835
  834MOL0     H12532   8.877  11.076   1.639 -1.9957 -1.9325 -3.3841
  834MOL0     H12533   8.772  11.277   1.452  2.7187  2.8961 -0.9236
  834MOL0     H12534   8.926  11.307   1.520 -0.4805  0.1871  1.3608
  834MOL0     H12535   8.965  11.050   1.445  1.1070  1.4900  0.6879
  834MOL0     H12536   8.831  11.096   1.330  0.4321  4.0906 -3.7924
  834MOL0     H12537   9.024  11.101   1.227 -1.4252  0.6428 -1.3347
  834MOL0     H12538   8.971  11.262   1.230 -1.8967 -1.3844 -0.9792
  834MOL0     H12539   9.176  11.139   1.428 -0.4774 -0.4940  0.1945
  834MOL0     H12540   9.121  11.315   1.422 -1.8102  0.7093 -2.6917
  834MOL0     H12541   9.174  11.449   1.199 -1.8223 -0.6576 -1.5362
  834MOL0     H12542   9.535  11.462   1.026 -0.3819 -1.2828  1.4667
  834MOL0     H12543   9.394  11.471   0.929  0.1734  2.7045 -0.6251
  834MOL0     H12544   9.414  11.620   1.195 -0.7168  1.5013  0.5870
  834MOL0     H12545   9.309  11.655   1.050 -2.5254 -2.3934  2.9263
  834MOL0     H12546   9.542  11.726   0.927 -0.0161  0.0314 -0.0923
  834MOL0     H12547   9.614  11.662   1.079 -0.1155  0.1047 -0.0522
  834MOL0     H12548   9.428  11.904   1.091 -0.5556 -0.3563  3.9276
  834MOL0     H12549   9.599  11.933   1.052 -0.2212  1.5452  2.8822
  834MOL0     H12550   9.637  11.780   1.448  0.2761  2.6475  0.2016
  834MOL0     H12551   9.921  11.678   1.615  1.5595  1.1272  1.6542
  834MOL0     H12552   9.953  11.850   1.625  2.5828 -1.7517 -2.0462
  834MOL0     H12553   9.795  11.782   1.656  0.9417 -0.4324  0.6637
  834MOL0     H12554  10.303  11.746   1.100 -1.1519 -0.7052  1.4234
  834MOL0     H12555  10.557  11.742   1.066  2.2388 -2.4389  1.5039
  834MOL0     H12556  10.757  11.704   1.327 -1.3121 -0.4217 -1.0190
  834MOL0     H12557  10.731  11.659   1.159  0.4860  0.4673 -0.1671
  834MOL0     H12558  10.939  11.762   1.095  2.7795  0.7476 -0.7843
  834MOL0     H12559  10.970  11.825   1.246  2.0882 -0.5529 -1.5117
  834MOL0     H12560  10.928  11.523   1.261 -2.4051  1.0801  3.6052
  834MOL0     H12561  11.025  11.635   1.359  3.8947 -2.0120 -0.9792
  834MOL0     H12562  11.182  11.508   1.255  2.0802 -0.5034 -1.0962
  834MOL0     H12563  11.121  11.531   1.094 -0.7441 -1.1297  0.6115
  834MOL0     H12564  11.214  11.764   1.265  0.4386 -1.4008  0.9342
  834MOL0     H12565  11.172  11.776   1.100  0.5119 -0.5382 -1.2948
  834MOL0     H12566  11.405  11.642   1.241 -0.7629  2.0191  0.7593
  834MOL0     H12567  11.381  11.604   1.064 -2.3832  0.0875 -0.0471
  834MOL0     H12568  11.552  11.775   1.119  0.6312  1.5561  0.0770
  834MOL0     H12569  11.424  11.881   1.180 -0.6147  0.4789 -0.4684
  834MOL0     H12570  11.439  11.954   0.957 -1.2106  1.1660 -1.8761
  834MOL0     H12571  11.285  11.875   0.978  0.5238  0.8376  1.0825
  834MOL0     H12572  10.617  12.008   1.386  1.8225 -0.6052 -0.4049
  834MOL0     H12573  10.378  12.006   1.433  2.0733  2.3010 -1.6690
  834MOL0     H12574  10.010  11.917   1.161  1.9386 -1.8709 -0.4840
  834MOL0     H12575   9.795  11.958   1.092 -0.9159  0.5881  0.8623
  834MOL0     H12576   8.870  10.797   2.077 -0.6568  0.1735 -0.4495
  834MOL0     H12577   9.045  10.629   2.127  1.7047  2.3418  0.0513
  834MOL0     H12578   9.456  10.455   1.978 -2.3797 -0.7135 -2.1223
  834MOL0     H12579   9.640  10.364   2.076  0.5115 -0.0113  2.2893
  834MOL0     H12580   9.758  10.035   2.371 -0.4005  2.4511  1.5567
  834MOL0     H12581   9.575  10.027   2.367 -0.9334  1.2453  0.2082
  834MOL0     H12582   9.592   9.920   2.157  1.6133 -0.0067 -0.7704
  834MOL0     H12583   9.732   9.859   2.251  0.0435  0.4368 -0.1485
  834MOL0     H12584   9.739  10.048   2.011 -0.5622  0.1543 -0.3961
  834MOL0     H12585   9.789   9.888   2.021  2.7700 -0.6664  0.9697
  834MOL0     H12586   9.955   9.947   2.199  2.2776 -1.0354 -1.4257
  834MOL0     H12587   9.920  10.109   2.159  2.6091 -0.0741 -2.1269
  834MOL0     H12588  10.143   9.990   1.806 -3.1545  0.3675 -1.8938
  834MOL0     H12589   9.410  10.042   2.237  0.0333  0.9222  0.3433
  834MOL0     H12590   9.188  10.162   2.139 -0.6813  1.1017  1.6898
  835MOL0     O12591  11.026   4.687   0.409  1.1031  0.0013  0.2587
  835MOL0     C12592  11.092   4.674   0.307  0.3405  0.9402 -0.9842
  835MOL0     O12593  11.153   4.551   0.284  0.1484 -0.7913 -0.0695
  835MOL0     C12594  11.164   4.446   0.372 -0.1727 -0.8815  0.2989
  835MOL0     C12595  11.056   4.387   0.432 -0.1695  0.3442  0.1491
  835MOL0     C12596  11.087   4.290   0.530  0.4985  0.4724  0.5111
  835MOL0     C12597  11.217   4.240   0.553  0.0013  0.2911 -0.5411
  835MOL0     O12598  11.230   4.154   0.658 -0.1650 -0.3921  0.5669
  835MOL0     C12599  11.186   4.019   0.626 -0.0194 -0.0705  0.1732
  835MOL0     C12600  11.295   3.939   0.548 -0.3837 -0.6823 -0.0344
  835MOL0     C12601  11.431   3.952   0.616 -0.1694 -0.1167 -0.1255
  835MOL0     C12602  11.543   3.859   0.580 -0.4441  0.6104 -0.0799
  835MOL0     C12603  11.577   3.864   0.428  0.7454  0.9335  0.5948
  835MOL0     C12604  11.659   3.750   0.366  0.2080  0.0255  0.7105
  835MOL0     C12605  11.798   3.787   0.321 -1.9066 -0.3154 -0.5061
  835MOL0     C12606  11.894   3.663   0.303 -0.0836 -1.9703  0.8205
  835MOL0     N12607  11.876   3.603   0.167 -0.2247 -0.2183 -0.1283
  835MOL0     C12608  11.891   3.663   0.050 -0.4349  0.0196  1.0865
  835MOL0     C12609  11.855   3.563  -0.043 -0.2296 -0.3353 -0.0370
  835MOL0     C12610  11.865   3.583  -0.192 -0.8416  0.8410  0.7313
  835MOL0     C12611  11.998   3.548  -0.249  0.1557  0.6456  0.4833
  835MOL0     C12612  11.989   3.561  -0.405 -0.4258 -0.7010  0.1503
  835MOL0     C12613  12.114   3.531  -0.488  0.3877  0.3293  0.1193
  835MOL0     O12614  12.093   3.564  -0.625 -0.2101 -0.0953  0.0617
  835MOL0     C12615  12.166   3.512  -0.727 -0.1163  0.8980 -0.2891
  835MOL0     C12616  12.126   3.536  -0.861  0.5183 -0.7922  0.2502
  835MOL0     C12617  12.203   3.527  -0.973  0.1585 -0.9590  0.3613
  835MOL0     C12618  12.144   3.559  -1.109  0.2374  0.6504 -0.2290
  835MOL0     C12619  12.330   3.466  -0.950 -0.6094 -0.3781  0.1658
  835MOL0     C12620  12.432   3.451  -1.057  0.6782  0.3012  0.5059
  835MOL0     O12621  12.555   3.389  -1.024 -0.3041  0.8444 -0.4594
  835MOL0     C12622  12.639   3.360  -1.130 -0.9015 -0.3719  0.7444
  835MOL0     C12623  12.659   3.236  -1.200  0.2640  0.0172 -0.4048
  835MOL0     C12624  12.754   3.209  -1.297 -0.0185  0.3471 -0.3912
  835MOL0     C12625  12.825   3.321  -1.336 -0.7198 -0.3442  0.4372
  835MOL0     O12626  12.907   3.302  -1.446  0.6133  0.4709 -0.3828
  835MOL0     C12627  13.032   3.377  -1.459  0.5470 -0.1473 -0.3783
  835MOL0     C12628  13.083   3.338  -1.606  0.6959  0.4263 -0.5514
  835MOL0     C12629  13.218   3.371  -1.623  0.1949 -0.2692  0.6897
  835MOL0     C12630  13.246   3.352  -1.765  0.4281 -0.2942 -0.7181
  835MOL0     C12631  13.401   3.357  -1.797  0.3359  1.1255 -0.1327
  835MOL0     C12632  13.416   3.389  -1.940 -0.6480  0.1070 -0.1795
  835MOL0     C12633  13.562   3.376  -1.985 -0.6358  0.5689 -0.0454
  835MOL0     C12634  13.632   3.502  -1.942  0.4042 -0.0975  0.1455
  835MOL0    Cl12635  13.802   3.484  -1.999 -0.0373  0.2951  0.0883
  835MOL0     C12636  12.803   3.447  -1.279  0.4280 -0.3130 -0.7194
  835MOL0     C12637  12.698   3.464  -1.192 -0.7603 -0.1325 -0.3903
  835MOL0     O12638  12.394   3.460  -1.172 -0.5290  0.7506  0.3107
  835MOL0     C12639  12.367   3.422  -0.819  0.7187 -0.1879 -0.4402
  835MOL0     C12640  12.289   3.450  -0.708  0.2040 -0.4698 -0.5196
  835MOL0     N12641  11.836   3.444   0.023  0.4506  0.0900 -0.3317
  835MOL0     N12642  11.838   3.472   0.152 -0.1609 -0.2467  0.4140
  835MOL0     C12643  11.314   4.303   0.489 -0.7635 -0.2998  0.1342
  835MOL0     C12644  11.293   4.407   0.404  0.0631 -0.1727 -0.1645
  835MOL0     C12645  11.105   4.779   0.205  0.1452  0.0400 -0.3721
  835MOL0     C12646  11.061   4.919   0.218 -0.5097 -0.6014 -0.2508
  835MOL0     C12647  11.098   5.007   0.117  0.0938  0.6847 -0.2175
  835MOL0     C12648  11.145   4.967  -0.009 -0.4722  0.4692 -1.2039
  835MOL0     O12649  11.160   5.068  -0.097  0.5451 -0.0490  0.0718
  835MOL0     C12650  11.122   5.052  -0.241 -0.1662 -1.2146  0.3011
  835MOL0     C12651  10.981   4.992  -0.264  0.7840  0.2671  0.1809
  835MOL0     C12652  10.883   5.079  -0.181  0.7502  0.7722 -0.1196
  835MOL0     C12653  10.747   5.021  -0.196  0.9052 -0.0672  0.7302
  835MOL0     C12654  10.671   5.068  -0.312  0.1814 -0.3032 -0.1114
  835MOL0     C12655  10.599   5.122  -0.399 -0.5090 -0.3436 -0.4464
  835MOL0     C12656  11.181   4.833  -0.027 -0.8739 -0.7599 -0.5915
  835MOL0     C12657  11.160   4.742   0.078 -1.2715 -0.3303  0.1463
  835MOL0     H12658  10.956   4.430   0.424  0.0006  0.8660  0.7807
  835MOL0     H12659  11.008   4.261   0.598 -0.2923 -2.1029 -1.3672
  835MOL0     H12660  11.177   3.958   0.717  3.9319 -0.2124  0.6816
  835MOL0     H12661  11.097   4.017   0.564 -0.0942  1.2797  0.2250
  835MOL0     H12662  11.267   3.834   0.535 -0.3414 -0.7491  0.3895
  835MOL0     H12663  11.322   3.981   0.452  2.0865 -2.3136 -0.1257
  835MOL0     H12664  11.457   4.056   0.592 -1.8941  0.4019  0.1290
  835MOL0     H12665  11.400   3.926   0.718 -1.8159  0.3282 -0.4869
  835MOL0     H12666  11.626   3.899   0.639 -0.1488  3.3123 -2.1173
  835MOL0     H12667  11.519   3.760   0.621 -0.9425 -0.1472 -2.1109
  835MOL0     H12668  11.490   3.878   0.363 -0.2655 -4.0588  0.4535
  835MOL0     H12669  11.637   3.954   0.409 -0.8498  1.8808 -0.1343
  835MOL0     H12670  11.665   3.671   0.441 -0.0930  1.2281  2.0371
  835MOL0     H12671  11.608   3.710   0.278 -1.9418  2.3518  0.7902
  835MOL0     H12672  11.806   3.848   0.231  1.3327 -1.2511 -0.9925
  835MOL0     H12673  11.849   3.837   0.404 -1.3986 -1.0525 -0.3589
  835MOL0     H12674  11.873   3.599   0.389 -3.3949 -0.3217  1.4173
  835MOL0     H12675  11.995   3.704   0.306 -1.2608  1.2205  0.2646
  835MOL0     H12676  11.943   3.754   0.023 -0.0336 -0.0147  1.7266
  835MOL0     H12677  11.808   3.506  -0.245 -0.1017  0.1193  0.9633
  835MOL0     H12678  11.832   3.683  -0.222 -2.7643  0.5571  1.7548
  835MOL0     H12679  12.030   3.447  -0.220 -2.4372 -0.5319 -0.4545
  835MOL0     H12680  12.059   3.631  -0.210 -1.2791  2.2741 -0.6158
  835MOL0     H12681  11.950   3.661  -0.427  0.6654 -0.4228 -0.5803
  835MOL0     H12682  11.924   3.479  -0.436  1.5687 -2.0314 -0.6810
  835MOL0     H12683  12.126   3.423  -0.495  0.5055  0.4504 -1.9083
  835MOL0     H12684  12.209   3.566  -0.446  1.8885 -1.3016 -1.7371
  835MOL0     H12685  12.029   3.582  -0.872  1.3604  0.5802 -2.2896
  835MOL0     H12686  12.196   3.644  -1.154 -1.4996  2.8361  1.6126
  835MOL0     H12687  12.145   3.477  -1.181 -0.7547  0.9162 -0.5674
  835MOL0     H12688  12.039   3.585  -1.097 -0.6661 -2.1926 -1.2954
  835MOL0     H12689  12.598   3.155  -1.162  2.1607 -0.4328  1.9410
  835MOL0     H12690  12.758   3.106  -1.329 -0.5186 -0.7821  2.8744
  835MOL0     H12691  13.018   3.484  -1.443 -0.8173 -0.5492  1.3381
  835MOL0     H12692  13.113   3.344  -1.394 -0.0279  1.5791  1.2868
  835MOL0     H12693  13.078   3.229  -1.617 -5.1462  0.2955  0.4719
  835MOL0     H12694  13.016   3.374  -1.684 -2.4602 -2.0568  0.8129
  835MOL0     H12695  13.275   3.313  -1.549  1.5254  1.4130  1.0624
  835MOL0     H12696  13.227   3.475  -1.588 -1.4847 -0.2577  1.1602
  835MOL0     H12697  13.215   3.252  -1.797  0.2396 -0.5030  0.1052
  835MOL0     H12698  13.194   3.433  -1.817 -0.9055  0.6724  1.9347
  835MOL0     H12699  13.442   3.257  -1.776  0.0474 -0.0955 -4.3965
  835MOL0     H12700  13.446   3.433  -1.733  1.4186  0.7606 -0.4253
  835MOL0     H12701  13.379   3.310  -2.006  2.0167 -2.3872  1.0437
  835MOL0     H12702  13.385   3.490  -1.969 -0.5903 -0.8434 -4.1085
  835MOL0     H12703  13.561   3.361  -2.094  2.2361 -0.4268 -0.0157
  835MOL0     H12704  13.612   3.285  -1.951  0.3603  0.1782 -2.3344
  835MOL0     H12705  13.618   3.513  -1.834  0.4823 -4.7368  0.8154
  835MOL0     H12706  13.576   3.588  -1.981  2.3738  1.5343  0.7279
  835MOL0     H12707  12.851   3.536  -1.318  0.4037  0.9858  1.9469
  835MOL0     H12708  12.686   3.571  -1.179 -0.0138  0.2400 -2.4512
  835MOL0     H12709  12.457   3.364  -0.798 -0.1352 -0.6795  2.2053
  835MOL0     H12710  12.308   3.427  -0.604  2.0290  2.1714 -0.1829
  835MOL0     H12711  11.416   4.283   0.519 -1.6747 -3.6417  1.3948
  835MOL0     H12712  11.373   4.461   0.355 -0.9363 -1.1584 -3.0758
  835MOL0     H12713  10.999   4.955   0.299  1.5553 -0.4701  1.3627
  835MOL0     H12714  11.076   5.109   0.146 -1.3986 -0.0339  1.3014
  835MOL0     H12715  11.123   5.154  -0.279  0.7203 -1.7291 -1.1396
  835MOL0     H12716  11.195   4.993  -0.297  2.5558  2.4209 -0.3320
  835MOL0     H12717  10.975   4.889  -0.226 -1.0499 -1.3176 -3.8478
  835MOL0     H12718  10.948   4.993  -0.368  0.1104 -3.5826  0.2085
  835MOL0     H12719  10.879   5.185  -0.208 -1.6630  0.9328  0.6432
  835MOL0     H12720  10.923   5.083  -0.079  2.4728 -4.1619 -0.3029
  835MOL0     H12721  10.680   5.045  -0.113 -0.2923 -1.7082  0.2844
  835MOL0     H12722  10.751   4.912  -0.204  0.1180 -0.3267  3.0304
  835MOL0     H12723  10.535   5.166  -0.473  1.3682 -0.8216 -2.5010
  835MOL0     H12724  11.225   4.805  -0.123 -0.3804  0.3881 -0.7228
  835MOL0     H12725  11.192   4.641   0.058  2.6310  0.5172  1.2811
  836MOL0     O12726  11.101  10.183   6.698  0.2498 -0.2929 -0.1244
  836MOL0     C12727  10.996  10.123   6.703  0.9159 -0.3369  0.8561
  836MOL0     O12728  10.881  10.143   6.629 -0.8063  0.6692 -0.1095
  836MOL0     C12729  10.872  10.255   6.558 -0.5707 -0.4950  0.8199
  836MOL0     C12730  10.978  10.329   6.494 -0.2868  0.1439 -0.1329
  836MOL0     C12731  10.957  10.428   6.398  0.3935  0.5744 -0.9559
  836MOL0     C12732  10.820  10.469   6.386  0.6876  0.9366  0.3250
  836MOL0     O12733  10.785  10.551   6.288 -0.4110 -0.1045 -0.0143
  836MOL0     C12734  10.861  10.672   6.287 -0.3380 -0.4967 -0.0571
  836MOL0     C12735  10.801  10.776   6.188  0.5786  0.3313  0.3477
  836MOL0     C12736  10.657  10.744   6.166  0.4282 -0.4088 -0.1041
  836MOL0     C12737  10.589  10.857   6.093 -0.8758 -1.0491  0.0721
  836MOL0     C12738  10.438  10.815   6.072 -0.9617 -1.1606 -0.2685
  836MOL0     C12739  10.341  10.918   6.117 -1.1304  0.6621  0.4759
  836MOL0     C12740  10.356  11.059   6.049 -0.0326 -0.2707  0.1768
  836MOL0     C12741  10.263  11.152   6.116  0.2933 -0.5310 -0.1857
  836MOL0     N12742  10.122  11.103   6.116 -0.2230  0.4521 -0.0570
  836MOL0     C12743  10.020  11.145   6.034  0.3259 -0.2161 -0.4047
  836MOL0     C12744   9.913  11.123   6.122  0.0454 -0.6062  0.7783
  836MOL0     C12745   9.775  11.145   6.084  0.2509  0.1241 -0.2278
  836MOL0     C12746   9.704  11.271   6.143 -1.0001 -0.9634  0.2900
  836MOL0     C12747   9.556  11.284   6.100 -0.5203 -0.1909 -0.1207
  836MOL0     C12748   9.461  11.361   6.190  0.3776  0.2244  0.4280
  836MOL0     O12749   9.476  11.500   6.173  0.1238  0.4096  0.3436
  836MOL0     C12750   9.411  11.589   6.256 -0.1843 -0.4243 -0.2270
  836MOL0     C12751   9.437  11.724   6.231 -0.3118  0.5232  0.7066
  836MOL0     C12752   9.374  11.824   6.311 -0.4102  0.0518 -0.3832
  836MOL0     C12753   9.408  11.964   6.273 -0.3148  0.2506  0.5476
  836MOL0     C12754   9.309  11.796   6.437 -0.2659 -0.3143  0.1139
  836MOL0     C12755   9.257  11.891   6.546 -0.2756  0.0745 -1.5791
  836MOL0     O12756   9.171  11.826   6.633 -0.8034 -0.8542  0.0447
  836MOL0     C12757   9.093  11.898   6.713  1.1292 -0.6426  0.1561
  836MOL0     C12758   9.102  11.885   6.857 -0.3553 -0.4573  0.6698
  836MOL0     C12759   8.997  11.948   6.935 -0.2097  0.2999  0.7889
  836MOL0     C12760   8.895  12.027   6.867 -0.2886 -0.6093  0.0903
  836MOL0     O12761   8.799  12.097   6.940  0.2068 -0.0864 -0.2083
  836MOL0     C12762   8.767  12.080   7.081 -0.7793 -0.7974 -0.5862
  836MOL0     C12763   8.710  11.937   7.123 -0.1317  0.1637  0.0845
  836MOL0     C12764   8.586  11.904   7.029  1.0864 -0.5936 -0.7639
  836MOL0     C12765   8.456  11.895   7.118 -0.1000  0.3285  0.4818
  836MOL0     C12766   8.394  12.029   7.161  0.7171  0.7967  0.0120
  836MOL0     C12767   8.343  12.106   7.045  1.3309 -0.5121  0.4637
  836MOL0     C12768   8.343  12.252   7.046 -0.1232  0.0269  0.1642
  836MOL0     C12769   8.264  12.317   7.164 -0.2030  0.6450  0.9070
  836MOL0    Cl12770   8.093  12.277   7.130  0.1755 -0.0320 -0.4156
  836MOL0     C12771   8.896  12.036   6.730  0.4539 -0.3724  0.3523
  836MOL0     C12772   8.997  11.978   6.657  0.6580  0.1560 -0.1030
  836MOL0     O12773   9.286  12.010   6.550 -0.4325 -0.5130 -0.1718
  836MOL0     C12774   9.263  11.663   6.441  1.0238  0.2056 -0.6299
  836MOL0     C12775   9.321  11.561   6.362  0.3319 -0.6835  0.2398
  836MOL0     N12776   9.950  11.072   6.240  0.0979 -0.6566 -0.5509
  836MOL0     N12777  10.079  11.059   6.237 -0.2862 -0.1943  0.0641
  836MOL0     C12778  10.717  10.404   6.446  0.4075  0.4614 -0.6201
  836MOL0     C12779  10.741  10.304   6.537 -0.2935 -0.3365 -0.4193
  836MOL0     C12780  10.976  10.018   6.807  0.8190  0.5678 -1.0246
  836MOL0     C12781  11.079   9.972   6.885  0.3275 -0.6111 -0.0468
  836MOL0     C12782  11.058   9.888   6.993  0.3172  0.3049 -0.0754
  836MOL0     C12783  10.934   9.827   7.018  0.2191  0.4489  0.7499
  836MOL0     O12784  10.927   9.733   7.117  0.1341 -0.2694 -0.3189
  836MOL0     C12785  10.802   9.655   7.120 -0.6191 -0.1282  0.4972
  836MOL0     C12786  10.806   9.520   7.201  1.0362 -0.1881  1.3571
  836MOL0     C12787  10.862   9.542   7.343  0.5388  0.4181  0.2251
  836MOL0     C12788  10.901   9.403   7.398 -0.7623  0.1700 -0.0013
  836MOL0     C12789  10.789   9.327   7.440  0.0006  0.1063  0.2690
  836MOL0     C12790  10.695   9.256   7.465 -0.3524  0.8178  0.0828
  836MOL0     C12791  10.829   9.873   6.937 -0.0610  0.4298 -0.5688
  836MOL0     C12792  10.849   9.964   6.838  0.8980  0.1677 -0.5264
  836MOL0     H12793  11.076  10.283   6.500 -0.4103 -0.0152  0.8367
  836MOL0     H12794  11.038  10.473   6.342  0.5232  3.2194  1.1089
  836MOL0     H12795  10.848  10.732   6.378 -0.7192 -0.2493 -0.2722
  836MOL0     H12796  10.967  10.664   6.261 -0.4964 -1.2111 -0.4906
  836MOL0     H12797  10.801  10.875   6.235 -0.6446  1.0456 -1.0491
  836MOL0     H12798  10.865  10.777   6.099 -2.2711 -1.6938 -1.9260
  836MOL0     H12799  10.635  10.648   6.119 -2.6310  0.5683 -0.9040
  836MOL0     H12800  10.609  10.751   6.264  2.7866  2.2331  1.0136
  836MOL0     H12801  10.604  10.952   6.146 -0.0871 -1.3048  0.3232
  836MOL0     H12802  10.644  10.867   5.999  2.4283  0.8653  1.9978
  836MOL0     H12803  10.436  10.801   5.964  0.1202  0.9632 -0.6008
  836MOL0     H12804  10.411  10.719   6.119 -0.1930 -0.6292  1.3474
  836MOL0     H12805  10.239  10.885   6.097 -0.5715 -0.4348 -0.6040
  836MOL0     H12806  10.357  10.933   6.225  0.8140  0.1348  0.2781
  836MOL0     H12807  10.454  11.104   6.067 -0.9436  1.1223  2.0315
  836MOL0     H12808  10.343  11.066   5.940  3.7614  1.7827 -0.3177
  836MOL0     H12809  10.253  11.245   6.058  0.5416  0.3064  1.0867
  836MOL0     H12810  10.310  11.176   6.211  1.4138 -0.5970 -0.7101
  836MOL0     H12811  10.024  11.182   5.932  1.6298  0.7867 -0.0161
  836MOL0     H12812   9.775  11.154   5.974  1.1876 -0.2954 -0.2699
  836MOL0     H12813   9.727  11.057   6.126 -0.6759  0.8260  0.2121
  836MOL0     H12814   9.755  11.359   6.103 -1.0494 -0.6625  0.8756
  836MOL0     H12815   9.712  11.268   6.253 -1.1345  2.6001  0.5010
  836MOL0     H12816   9.522  11.181   6.086  1.1216 -0.6453 -0.9044
  836MOL0     H12817   9.550  11.326   6.000 -0.2012 -1.2333 -0.5918
  836MOL0     H12818   9.480  11.345   6.297  0.5090  3.1339  0.9192
  836MOL0     H12819   9.355  11.350   6.168  0.0271  3.3689  0.0865
  836MOL0     H12820   9.499  11.754   6.147  0.8032  2.5473  2.1666
  836MOL0     H12821   9.390  12.046   6.343  1.9067  3.3694 -2.1958
  836MOL0     H12822   9.510  11.979   6.237 -0.7703 -0.2658 -1.0507
  836MOL0     H12823   9.344  11.997   6.190 -1.7269  1.0788  1.9038
  836MOL0     H12824   9.173  11.831   6.920 -0.6028 -0.1539  1.2203
  836MOL0     H12825   8.996  11.948   7.044  2.4046 -0.4160  0.8738
  836MOL0     H12826   8.863  12.096   7.132 -0.0430  1.4431 -2.5136
  836MOL0     H12827   8.701  12.164   7.106  1.4066  1.5709 -2.3177
  836MOL0     H12828   8.793  11.865   7.123  1.6280  2.0471 -1.9897
  836MOL0     H12829   8.683  11.956   7.227  2.5043  0.3147  0.8260
  836MOL0     H12830   8.603  11.804   6.989 -1.6642 -0.5976 -2.0951
  836MOL0     H12831   8.564  11.968   6.944 -0.2013  0.0104 -0.0091
  836MOL0     H12832   8.385  11.836   7.060 -0.7917  1.4488  0.1454
  836MOL0     H12833   8.483  11.841   7.209  1.2112 -1.1929 -0.7744
  836MOL0     H12834   8.462  12.083   7.228  0.9487  1.6798 -0.9194
  836MOL0     H12835   8.303  12.011   7.219 -2.5314  1.5857 -4.3105
  836MOL0     H12836   8.405  12.092   6.955 -2.6221 -2.7609 -2.2420
  836MOL0     H12837   8.245  12.065   7.020  0.2269  1.4357  1.4602
  836MOL0     H12838   8.298  12.300   6.959 -1.2081  2.0023  1.7097
  836MOL0     H12839   8.449  12.276   7.038  0.2925 -1.2705  1.3723
  836MOL0     H12840   8.282  12.425   7.167 -1.3939  0.9279 -0.7320
  836MOL0     H12841   8.288  12.274   7.262 -2.5810 -2.3050  0.3732
  836MOL0     H12842   8.824  12.107   6.689  1.7201  0.4543 -0.5441
  836MOL0     H12843   9.004  12.010   6.554  1.2865  0.2724 -0.0261
  836MOL0     H12844   9.186  11.616   6.502 -1.1031  4.2132  0.1057
  836MOL0     H12845   9.289  11.459   6.381  0.1593 -0.3327  2.0214
  836MOL0     H12846  10.613  10.432   6.431 -0.6291 -1.8378  1.4483
  836MOL0     H12847  10.651  10.265   6.585 -1.9191  0.6486 -2.4699
  836MOL0     H12848  11.174  10.021   6.864  0.3569 -0.6832 -0.0829
  836MOL0     H12849  11.132   9.867   7.069 -2.1975  1.5990  2.9509
  836MOL0     H12850  10.719   9.711   7.164  0.4141  0.0329  2.3485
  836MOL0     H12851  10.773   9.633   7.017  0.1871  1.7774 -0.1767
  836MOL0     H12852  10.859   9.442   7.146  2.4312  0.1656  2.1536
  836MOL0     H12853  10.701   9.488   7.201  1.0082 -0.3326 -1.2730
  836MOL0     H12854  10.789   9.598   7.402 -0.7155  2.2026 -2.8335
  836MOL0     H12855  10.950   9.607   7.331  1.4197 -0.6203  0.8534
  836MOL0     H12856  10.967   9.410   7.485  0.3808  1.7124 -0.9305
  836MOL0     H12857  10.947   9.351   7.314  2.6698  1.6994  0.7467
  836MOL0     H12858  10.616   9.185   7.452 -0.4920  0.0168  3.9592
  836MOL0     H12859  10.726   9.850   6.961  0.3599 -0.9717  0.0007
  836MOL0     H12860  10.759  10.009   6.795  1.3414  1.8958  0.2395
  837MOL0     O12861   2.826  10.865   6.154  0.5582  0.3681  0.9118
  837MOL0     C12862   2.801  10.983   6.127 -0.1541  0.4119  1.3872
  837MOL0     O12863   2.862  11.093   6.188  0.2465  0.8754 -0.8089
  837MOL0     C12864   3.004  11.094   6.207  0.1798 -1.5845 -1.0826
  837MOL0     C12865   3.087  11.030   6.123 -0.3491  0.3409  0.5880
  837MOL0     C12866   3.229  11.027   6.140 -0.3451 -0.4618 -0.0402
  837MOL0     C12867   3.289  11.089   6.254 -0.3852 -0.3663 -0.4922
  837MOL0     O12868   3.420  11.083   6.293  0.2018  0.3327  0.1433
  837MOL0     C12869   3.502  10.973   6.246 -0.4404  0.3842  0.7229
  837MOL0     C12870   3.633  10.984   6.323  0.4938 -0.0372 -0.3772
  837MOL0     C12871   3.711  11.105   6.285 -0.4107  0.3097 -0.4315
  837MOL0     C12872   3.789  11.076   6.160  0.3513  0.0066  1.4039
  837MOL0     C12873   3.878  11.195   6.124 -0.7494  0.2043  0.2795
  837MOL0     C12874   3.991  11.145   6.031 -0.1093 -0.6076  0.2949
  837MOL0     C12875   3.938  11.118   5.884  0.0056 -0.6837  0.4249
  837MOL0     C12876   4.055  11.131   5.792 -1.4070 -0.6314  0.6453
  837MOL0     N12877   4.067  11.031   5.682  0.3028  0.4490 -0.4939
  837MOL0     C12878   4.083  10.892   5.699 -0.3538 -0.5002  0.4599
  837MOL0     C12879   4.105  10.850   5.566  0.2431 -1.2926  0.2553
  837MOL0     C12880   4.147  10.720   5.510 -0.2408  0.3336 -0.0998
  837MOL0     C12881   4.054  10.639   5.417 -0.8764 -0.5768  0.2810
  837MOL0     C12882   3.926  10.606   5.492 -0.4353 -0.5164 -0.8097
  837MOL0     C12883   3.860  10.483   5.426  0.2335 -0.0959  1.3307
  837MOL0     O12884   3.842  10.493   5.282 -0.6764 -0.0364  0.9833
  837MOL0     C12885   3.836  10.373   5.204 -0.9906 -0.8874 -0.5721
  837MOL0     C12886   3.840  10.387   5.065  1.1111 -0.6998 -0.1634
  837MOL0     C12887   3.822  10.274   4.977 -2.0723 -0.4889 -1.0594
  837MOL0     C12888   3.806  10.293   4.826 -0.0417 -0.5878 -0.0653
  837MOL0     C12889   3.812  10.142   5.032  0.2844  0.0180  0.4866
  837MOL0     C12890   3.788  10.021   4.947 -0.3762  0.7891 -0.4775
  837MOL0     O12891   3.879   9.913   4.969 -0.1006 -0.5456  0.0873
  837MOL0     C12892   3.824   9.790   4.984  0.0844 -0.6416  0.3213
  837MOL0     C12893   3.697   9.759   5.026 -0.0397  0.2626 -2.0465
  837MOL0     C12894   3.649   9.624   5.042 -0.4380  1.0955  1.0466
  837MOL0     C12895   3.736   9.516   5.026 -0.3252 -0.9918 -0.4228
  837MOL0     O12896   3.680   9.390   5.050  0.1580 -0.0548  1.0085
  837MOL0     C12897   3.778   9.279   5.064 -0.1044 -0.2767  1.2318
  837MOL0     C12898   3.807   9.216   4.919  0.5709  1.5326 -0.9330
  837MOL0     C12899   3.725   9.093   4.870 -0.1113  0.7560  0.7432
  837MOL0     C12900   3.586   9.152   4.852  0.2447  0.0499 -0.6144
  837MOL0     C12901   3.505   9.036   4.816 -0.5404 -0.0505  0.3640
  837MOL0     C12902   3.357   9.076   4.803 -1.0140  0.5867  0.6129
  837MOL0     C12903   3.266   8.957   4.784 -1.4831 -0.4181 -0.0307
  837MOL0     C12904   3.123   8.966   4.834 -0.6482 -0.3448  0.3992
  837MOL0    Cl12905   3.043   8.806   4.810 -0.5504 -0.0115 -0.5272
  837MOL0     C12906   3.866   9.546   4.982 -0.9049 -0.1880  0.6280
  837MOL0     C12907   3.902   9.682   4.967 -0.1691 -0.2918  0.6720
  837MOL0     O12908   3.694  10.029   4.872  0.5760 -0.2299  0.6917
  837MOL0     C12909   3.811  10.120   5.172 -0.1671 -1.6397  0.2590
  837MOL0     C12910   3.829  10.238   5.255 -0.0843 -0.5657  0.2793
  837MOL0     N12911   4.105  10.958   5.478  0.4757  0.9206 -0.2954
  837MOL0     N12912   4.075  11.063   5.549  0.6885 -0.1807  0.0907
  837MOL0     C12913   3.204  11.156   6.345 -0.4195 -0.0283 -0.4094
  837MOL0     C12914   3.068  11.164   6.316  0.8011  0.0209  0.2629
  837MOL0     C12915   2.705  11.005   6.018 -0.1700 -0.2259  0.2904
  837MOL0     C12916   2.655  10.912   5.933 -0.0949  0.4158  0.5391
  837MOL0     C12917   2.562  10.943   5.833  0.4978  0.0068 -0.5242
  837MOL0     C12918   2.519  11.074   5.821  0.2822  0.7484 -0.2457
  837MOL0     O12919   2.431  11.105   5.722 -0.2189 -0.9022  0.0524
  837MOL0     C12920   2.491  11.131   5.591  0.2847 -0.0228 -1.0431
  837MOL0     C12921   2.398  11.086   5.473 -0.1793 -0.1459 -0.5739
  837MOL0     C12922   2.246  11.129   5.487 -0.4015 -0.6373 -0.3564
  837MOL0     C12923   2.234  11.282   5.454  0.1532  1.4120  1.4300
  837MOL0     C12924   2.241  11.297   5.302  0.6528  0.4157 -0.3149
  837MOL0     C12925   2.269  11.310   5.183 -0.5776  0.4255 -0.4832
  837MOL0     C12926   2.576  11.176   5.898  1.2603 -0.9361  0.7293
  837MOL0     C12927   2.666  11.135   6.000  0.1434  0.0733 -0.4474
  837MOL0     H12928   3.054  10.969   6.040  2.0670  1.2054 -1.1164
  837MOL0     H12929   3.288  10.977   6.063 -0.6726 -1.5601  0.3991
  837MOL0     H12930   3.453  10.878   6.266 -0.2422  0.1130 -0.0732
  837MOL0     H12931   3.527  10.994   6.142  2.3635  4.4238  1.9547
  837MOL0     H12932   3.611  10.978   6.430  2.7652  0.1337  0.1577
  837MOL0     H12933   3.693  10.896   6.301  0.5130  0.4420 -2.4153
  837MOL0     H12934   3.645  11.190   6.265  0.6974  1.2659 -0.1716
  837MOL0     H12935   3.777  11.135   6.367 -2.1527  4.4045 -0.2810
  837MOL0     H12936   3.847  10.984   6.169 -1.7601 -1.6870 -0.7879
  837MOL0     H12937   3.728  11.067   6.070  1.8218  0.4820  0.3103
  837MOL0     H12938   3.828  11.275   6.069  0.9510  0.0352 -1.6469
  837MOL0     H12939   3.925  11.234   6.214 -1.0834 -1.0454  1.0187
  837MOL0     H12940   4.081  11.206   6.037 -0.2692 -0.5259  2.6254
  837MOL0     H12941   4.012  11.045   6.069  0.8610 -1.0288 -1.2624
  837MOL0     H12942   3.897  11.017   5.876  3.4163 -2.1066 -1.0083
  837MOL0     H12943   3.864  11.196   5.868  1.6262  0.8645  0.2087
  837MOL0     H12944   4.139  11.121   5.862 -0.3990  4.2106  0.4848
  837MOL0     H12945   4.060  11.234   5.755  2.5399 -0.3584  1.4228
  837MOL0     H12946   4.089  10.833   5.790 -1.4018 -2.6828 -0.8000
  837MOL0     H12947   4.244  10.742   5.465 -0.4354  2.2480  0.3198
  837MOL0     H12948   4.170  10.649   5.590  2.6199  0.8310 -0.3682
  837MOL0     H12949   4.094  10.538   5.409 -1.9104 -1.1775  2.0158
  837MOL0     H12950   4.034  10.694   5.325  0.4648  1.0926  0.9343
  837MOL0     H12951   3.855  10.690   5.491 -1.0336 -1.0034 -0.3902
  837MOL0     H12952   3.966  10.584   5.591  1.0361  1.1340 -0.9991
  837MOL0     H12953   3.766  10.468   5.480 -1.0631  1.1880 -0.4803
  837MOL0     H12954   3.925  10.398   5.451  2.4744  1.2981  0.5864
  837MOL0     H12955   3.835  10.489   5.029  0.6757 -0.9496 -0.8233
  837MOL0     H12956   3.702  10.303   4.793  0.3218 -0.3189 -1.2044
  837MOL0     H12957   3.861  10.386   4.806 -2.2207  0.4726 -1.7019
  837MOL0     H12958   3.842  10.208   4.767 -0.6351 -0.2953 -0.8693
  837MOL0     H12959   3.618   9.834   5.022  0.9834  1.3567 -2.2986
  837MOL0     H12960   3.543   9.604   5.052 -0.5194 -1.2388 -2.5169
  837MOL0     H12961   3.874   9.318   5.099  0.0516 -1.0532  1.6848
  837MOL0     H12962   3.753   9.204   5.140 -3.4523  1.1754  1.7645
  837MOL0     H12963   3.815   9.304   4.854  3.6357  0.3672 -2.3247
  837MOL0     H12964   3.904   9.165   4.925 -1.6451 -3.1667  3.8132
  837MOL0     H12965   3.742   9.004   4.932  2.5254  1.4228  1.0994
  837MOL0     H12966   3.765   9.075   4.769 -1.9706  1.6855 -0.2137
  837MOL0     H12967   3.537   9.207   4.933  0.4610  0.3157 -0.6616
  837MOL0     H12968   3.607   9.223   4.771  0.9012 -0.2183 -0.6842
  837MOL0     H12969   3.524   8.967   4.898  4.5083  1.5295  0.8821
  837MOL0     H12970   3.539   8.988   4.723 -0.6731  1.5713 -0.5540
  837MOL0     H12971   3.325   9.129   4.894 -0.9559 -2.3812  2.5059
  837MOL0     H12972   3.334   9.144   4.721  1.6953  0.4466 -0.3568
  837MOL0     H12973   3.303   8.860   4.819 -2.4566 -1.8428 -2.6664
  837MOL0     H12974   3.266   8.933   4.677  1.7333  2.2095 -0.8178
  837MOL0     H12975   3.082   9.044   4.769 -1.2602 -4.0003 -4.1791
  837MOL0     H12976   3.119   8.999   4.938  1.1717  0.2055  0.3251
  837MOL0     H12977   3.932   9.462   4.962  1.7202  1.2745  2.4456
  837MOL0     H12978   4.003   9.709   4.938 -0.8674  3.5091  1.1996
  837MOL0     H12979   3.810  10.019   5.212  0.1598 -1.1880  1.4365
  837MOL0     H12980   3.836  10.215   5.361  1.1094  1.5527  0.7305
  837MOL0     H12981   3.255  11.192   6.435 -0.6673 -1.6542  0.4254
  837MOL0     H12982   2.996  11.202   6.388 -1.9183 -3.9922  0.0294
  837MOL0     H12983   2.691  10.811   5.950 -1.3460  0.2470  2.5022
  837MOL0     H12984   2.543  10.864   5.761 -1.0926  1.9148 -2.3747
  837MOL0     H12985   2.501  11.240   5.588  1.9416 -0.1703 -1.4293
  837MOL0     H12986   2.592  11.093   5.573 -0.4234 -1.7184 -1.5998
  837MOL0     H12987   2.395  10.977   5.473 -1.3760 -0.1198 -1.0666
  837MOL0     H12988   2.439  11.128   5.380  1.0974  2.1437  0.9236
  837MOL0     H12989   2.203  11.110   5.586 -2.1841  1.9844 -0.5232
  837MOL0     H12990   2.185  11.077   5.413 -0.4381  1.9704 -2.3125
  837MOL0     H12991   2.319  11.326   5.506  0.3604 -2.4446  4.9223
  837MOL0     H12992   2.140  11.324   5.491 -0.7863 -0.9520  1.9433
  837MOL0     H12993   2.300  11.320   5.081  1.2026  0.9683  0.0654
  837MOL0     H12994   2.555  11.283   5.888 -1.2037 -1.3820  0.4681
  837MOL0     H12995   2.717  11.217   6.049 -0.1770  1.1897 -1.9334
  838MOL0     O12996   9.471   9.358   2.128  0.2096  0.5805  0.0763
  838MOL0     C12997   9.448   9.464   2.175  0.4423 -0.7641  0.3968
  838MOL0     O12998   9.330   9.528   2.168  0.0242  0.5756 -0.1286
  838MOL0     C12999   9.240   9.493   2.074  0.1309  1.4106  0.1544
  838MOL0     C13000   9.108   9.505   2.122  0.5145  0.2874  0.9402
  838MOL0     C13001   9.001   9.479   2.036 -0.2564 -0.1793 -0.3479
  838MOL0     C13002   9.027   9.444   1.901 -0.5364  1.2364 -0.2697
  838MOL0     O13003   8.921   9.414   1.816 -0.3589  0.2480 -0.7195
  838MOL0     C13004   8.885   9.274   1.811 -0.6511 -0.4004 -0.0261
  838MOL0     C13005   8.906   9.194   1.682 -0.2483  0.2916  0.0010
  838MOL0     C13006   8.826   9.056   1.660 -0.7621  0.8779  0.4980
  838MOL0     C13007   8.683   9.095   1.635  0.4161 -0.5431  0.3327
  838MOL0     C13008   8.634   9.014   1.516  0.3410 -0.1116  0.8121
  838MOL0     C13009   8.684   9.080   1.380  0.0889  0.2697  0.5921
  838MOL0     C13010   8.675   8.991   1.260 -0.0741  0.4749 -0.4658
  838MOL0     C13011   8.717   9.050   1.125 -0.2876 -0.1306 -0.3061
  838MOL0     N13012   8.733   8.940   1.037  0.2272  0.9470 -0.7493
  838MOL0     C13013   8.634   8.839   1.008 -0.6784 -1.3551  0.0638
  838MOL0     C13014   8.691   8.750   0.926 -1.3771  1.0217 -0.2366
  838MOL0     C13015   8.632   8.620   0.880 -0.4253  0.2346  0.3093
  838MOL0     C13016   8.573   8.645   0.735  0.3085 -0.2148  0.5877
  838MOL0     C13017   8.474   8.544   0.681 -0.4194  0.3927 -0.3076
  838MOL0     C13018   8.410   8.566   0.541 -0.0623  0.1995 -0.7856
  838MOL0     O13019   8.506   8.608   0.436 -0.0170 -0.1549  0.0854
  838MOL0     C13020   8.567   8.523   0.349 -0.6474  1.3022 -0.4437
  838MOL0     C13021   8.577   8.385   0.373  0.2829  0.1352 -0.1488
  838MOL0     C13022   8.624   8.301   0.270 -0.7783  1.2149 -1.4377
  838MOL0     C13023   8.618   8.149   0.301 -0.2066  0.6228  0.2285
  838MOL0     C13024   8.668   8.352   0.151  0.8112  0.6946  0.5807
  838MOL0     C13025   8.758   8.279   0.041 -0.4835 -0.0082 -1.1596
  838MOL0     O13026   8.809   8.154   0.075  0.6497 -0.1558 -1.5538
  838MOL0     C13027   8.897   8.080   0.005 -0.2511  0.1785  0.1744
  838MOL0     C13028   8.950   7.964   0.069 -0.1132  0.6254  0.6621
  838MOL0     C13029   9.050   7.890   0.003  0.2118  0.8251 -0.3261
  838MOL0     C13030   9.106   7.928  -0.124 -0.8974  0.2511  0.7204
  838MOL0     O13031   9.208   7.846  -0.180 -0.0289  0.0341 -0.5009
  838MOL0     C13032   9.256   7.878  -0.311  0.0093 -0.1670  0.0415
  838MOL0     C13033   9.175   7.832  -0.424  0.1988 -0.1803 -0.9242
  838MOL0     C13034   9.242   7.846  -0.565  0.0408 -0.7638  0.2444
  838MOL0     C13035   9.140   7.855  -0.680  0.4371 -0.3344 -1.1287
  838MOL0     C13036   9.068   7.723  -0.720  0.2575 -0.7155 -0.9357
  838MOL0     C13037   9.151   7.615  -0.795 -0.7053 -0.1379 -0.1645
  838MOL0     C13038   9.255   7.679  -0.895  1.3532 -0.1090 -0.5949
  838MOL0     C13039   9.321   7.569  -0.967 -0.3366  0.6690 -0.0332
  838MOL0    Cl13040   9.475   7.615  -1.045 -0.2756 -0.3284 -0.0985
  838MOL0     C13041   9.061   8.046  -0.184 -0.2032 -0.2817  0.3523
  838MOL0     C13042   8.953   8.116  -0.123 -0.5597  0.1626 -0.4721
  838MOL0     O13043   8.780   8.343  -0.062  0.3100 -0.7984  0.2936
  838MOL0     C13044   8.655   8.492   0.126 -0.4346  0.8816  0.6424
  838MOL0     C13045   8.604   8.572   0.225  0.8415 -0.3578 -0.7714
  838MOL0     N13046   8.829   8.784   0.914  0.3109  0.1781 -1.1365
  838MOL0     N13047   8.845   8.899   0.979 -0.1602 -0.1717  0.5458
  838MOL0     C13048   9.161   9.442   1.856  0.3445  0.6013  0.4208
  838MOL0     C13049   9.269   9.466   1.940  0.9820 -0.0062 -0.3625
  838MOL0     C13050   9.550   9.522   2.259  0.6633 -0.0496 -0.4592
  838MOL0     C13051   9.673   9.456   2.255  0.1565 -0.1487 -0.3539
  838MOL0     C13052   9.752   9.472   2.366 -0.6294 -0.2361  0.1998
  838MOL0     C13053   9.733   9.575   2.461 -0.2716 -0.8267  0.5176
  838MOL0     O13054   9.826   9.617   2.553  0.1875 -0.5511 -0.9177
  838MOL0     C13055   9.947   9.544   2.578  0.6171 -0.0631 -0.5105
  838MOL0     C13056  10.056   9.582   2.477  0.0833 -0.4121  1.0198
  838MOL0     C13057  10.102   9.727   2.470 -0.4887  0.0421 -0.0602
  838MOL0     C13058  10.137   9.761   2.333  0.3194  0.1046  0.4695
  838MOL0     C13059  10.181   9.902   2.337  0.2045 -0.4885  0.7291
  838MOL0     C13060  10.224  10.014   2.328  0.3480  0.7869 -0.3126
  838MOL0     C13061   9.622   9.659   2.441  0.2447 -0.1961 -0.5848
  838MOL0     C13062   9.523   9.628   2.345  0.1586 -0.1003  1.2959
  838MOL0     H13063   9.073   9.550   2.215 -3.4473  0.8251 -0.5790
  838MOL0     H13064   8.899   9.472   2.071 -0.1943  1.8824  0.3441
  838MOL0     H13065   8.906   9.217   1.903 -0.5182  0.1296  0.2744
  838MOL0     H13066   8.776   9.280   1.817 -0.6386 -0.3611  0.2096
  838MOL0     H13067   8.891   9.263   1.598 -1.8491 -2.8624 -2.5627
  838MOL0     H13068   9.009   9.157   1.676  0.1645  1.5853 -2.0424
  838MOL0     H13069   8.872   9.009   1.572 -0.1642 -0.5318  1.5256
  838MOL0     H13070   8.835   8.998   1.752  1.0737  1.9705  1.0397
  838MOL0     H13071   8.620   9.095   1.724 -3.8158 -0.2592 -2.4026
  838MOL0     H13072   8.674   9.202   1.613  0.0024 -0.1505  2.1856
  838MOL0     H13073   8.686   8.918   1.517  5.8442  2.4749  1.3294
  838MOL0     H13074   8.525   9.007   1.517  0.1930  1.7518  1.2361
  838MOL0     H13075   8.626   9.166   1.346 -0.9551 -1.0699 -1.1674
  838MOL0     H13076   8.788   9.111   1.392  0.0147  1.0424 -0.5888
  838MOL0     H13077   8.739   8.905   1.283 -2.5944 -1.1096  1.1700
  838MOL0     H13078   8.575   8.952   1.243  0.7400 -1.1288 -1.8159
  838MOL0     H13079   8.806   9.113   1.120 -0.3367 -0.1425 -1.7713
  838MOL0     H13080   8.634   9.111   1.086 -1.0828 -1.1101 -0.1962
  838MOL0     H13081   8.530   8.832   1.038 -1.0636  0.2735 -0.8231
  838MOL0     H13082   8.698   8.533   0.878 -0.3088  0.3200  0.4185
  838MOL0     H13083   8.547   8.594   0.944 -0.6736  0.6657  0.1662
  838MOL0     H13084   8.657   8.633   0.665 -0.9994 -0.7328 -0.9524
  838MOL0     H13085   8.538   8.747   0.720 -2.7491 -0.9477  2.1131
  838MOL0     H13086   8.397   8.532   0.758 -0.6076 -1.3924 -0.7382
  838MOL0     H13087   8.534   8.453   0.685  0.2641  0.5872 -3.6616
  838MOL0     H13088   8.326   8.635   0.549 -2.2961 -2.5119  1.7807
  838MOL0     H13089   8.364   8.471   0.512  2.2391 -1.3496  0.3003
  838MOL0     H13090   8.546   8.347   0.470 -2.2578  1.1901 -0.4593
  838MOL0     H13091   8.538   8.122   0.370 -0.9446 -2.5849 -1.7193
  838MOL0     H13092   8.601   8.091   0.210 -0.8903 -1.0756  1.3880
  838MOL0     H13093   8.717   8.124   0.339  1.0063  2.6109 -1.3710
  838MOL0     H13094   8.903   7.942   0.164  0.1510 -0.4204  0.5588
  838MOL0     H13095   9.096   7.798   0.037 -1.7540  0.2466  0.9126
  838MOL0     H13096   9.279   7.985  -0.315  0.1079 -0.1221  1.3253
  838MOL0     H13097   9.356   7.839  -0.331  0.1789  0.5353 -0.5312
  838MOL0     H13098   9.131   7.732  -0.415 -0.5064  0.2382  0.6449
  838MOL0     H13099   9.080   7.886  -0.430  0.2644 -0.0075 -0.3687
  838MOL0     H13100   9.308   7.762  -0.591 -0.0533  0.1197 -3.3248
  838MOL0     H13101   9.306   7.934  -0.574  1.1222 -1.6571 -1.4108
  838MOL0     H13102   9.067   7.928  -0.644 -0.1014 -1.5642  0.4092
  838MOL0     H13103   9.195   7.893  -0.766  1.3229  1.7074  0.2706
  838MOL0     H13104   8.976   7.748  -0.773 -0.0268 -0.1698 -0.2089
  838MOL0     H13105   9.038   7.682  -0.623  1.9970  1.2695  0.5486
  838MOL0     H13106   9.212   7.558  -0.725 -3.2162 -0.9947  1.4517
  838MOL0     H13107   9.080   7.557  -0.855 -0.6674 -1.4596  1.0355
  838MOL0     H13108   9.331   7.737  -0.842  0.3684  0.8729 -0.2239
  838MOL0     H13109   9.206   7.752  -0.958  1.0669  1.6930  1.5813
  838MOL0     H13110   9.253   7.528  -1.043  0.3685 -0.9737  0.1900
  838MOL0     H13111   9.352   7.489  -0.900  1.9644  0.1007 -1.6481
  838MOL0     H13112   9.114   8.079  -0.273  4.1885 -0.4050  2.6595
  838MOL0     H13113   8.919   8.206  -0.173 -1.9258  0.5599  1.0734
  838MOL0     H13114   8.681   8.546   0.035 -4.0808  3.2396  0.8012
  838MOL0     H13115   8.602   8.680   0.214 -1.1155 -0.2766 -0.0465
  838MOL0     H13116   9.171   9.416   1.751  2.7572 -0.5707  0.8673
  838MOL0     H13117   9.370   9.468   1.899 -0.1937 -1.0243 -3.6870
  838MOL0     H13118   9.699   9.379   2.183 -0.8327 -3.2142  2.3311
  838MOL0     H13119   9.844   9.417   2.383  1.5976  2.3535 -2.3062
  838MOL0     H13120   9.971   9.583   2.677 -2.6951  0.8527  0.0795
  838MOL0     H13121   9.922   9.438   2.587  0.4411  0.1227  5.6505
  838MOL0     H13122  10.026   9.542   2.380 -1.0019  1.5567  0.5129
  838MOL0     H13123  10.149   9.530   2.505  3.5401  4.0905 -0.8105
  838MOL0     H13124  10.194   9.731   2.530 -1.1578  0.2451  0.9658
  838MOL0     H13125  10.017   9.785   2.505 -3.1209 -2.1108 -2.4269
  838MOL0     H13126  10.054   9.749   2.262 -0.5087 -1.1582  1.6096
  838MOL0     H13127  10.219   9.699   2.296 -1.7380 -2.6316  0.2080
  838MOL0     H13128  10.280  10.102   2.305  0.0964  0.8833 -0.5547
  838MOL0     H13129   9.608   9.745   2.507 -0.6493 -0.8931  0.1515
  838MOL0     H13130   9.428   9.681   2.339  0.5816  0.6472 -4.7485
  839MOL0     O13131   7.614   2.719   3.391 -0.1633 -0.4853  0.0692
  839MOL0     C13132   7.544   2.778   3.317 -0.4658  0.0088  0.6827
  839MOL0     O13133   7.499   2.910   3.325 -0.9934  0.4536 -0.2967
  839MOL0     C13134   7.533   2.972   3.437 -0.8855 -0.2715  0.1473
  839MOL0     C13135   7.657   3.039   3.452 -0.3699  0.4249  0.5233
  839MOL0     C13136   7.691   3.109   3.567 -0.1540  1.5337 -0.8355
  839MOL0     C13137   7.602   3.096   3.673  0.1554 -0.3656 -1.1650
  839MOL0     O13138   7.641   3.152   3.791  1.1895 -0.7142 -0.7606
  839MOL0     C13139   7.548   3.186   3.904 -0.6037  0.6045  0.9961
  839MOL0     C13140   7.630   3.264   4.010 -0.1763  0.5628 -0.7443
  839MOL0     C13141   7.559   3.318   4.138 -0.1898 -0.4940  0.2697
  839MOL0     C13142   7.598   3.470   4.170  1.1877  0.3368 -0.3971
  839MOL0     C13143   7.572   3.477   4.324  0.2885 -0.2376 -0.7161
  839MOL0     C13144   7.614   3.609   4.394 -1.0898  0.2156 -0.2717
  839MOL0     C13145   7.529   3.729   4.358  1.0553 -0.2461 -0.3791
  839MOL0     C13146   7.588   3.859   4.417  0.4005 -1.3888 -0.1209
  839MOL0     N13147   7.492   3.976   4.393 -0.2717  0.1876  0.1971
  839MOL0     C13148   7.498   4.078   4.295 -0.2899 -0.1838 -0.6484
  839MOL0     C13149   7.375   4.138   4.298 -0.8352  0.2692 -1.1789
  839MOL0     C13150   7.321   4.213   4.180  0.4690  0.6029  0.3090
  839MOL0     C13151   7.400   4.342   4.155  0.5385  0.7813 -0.1534
  839MOL0     C13152   7.419   4.433   4.278  0.4912  0.0184  0.1653
  839MOL0     C13153   7.500   4.558   4.211  0.6407 -0.4345 -0.6527
  839MOL0     O13154   7.522   4.657   4.312  0.1666 -1.1547 -0.1043
  839MOL0     C13155   7.589   4.773   4.272  0.7310  0.8841  0.1972
  839MOL0     C13156   7.616   4.882   4.357  0.8812 -0.4547  0.0281
  839MOL0     C13157   7.684   4.993   4.315 -0.1234 -0.0017 -0.9834
  839MOL0     C13158   7.712   5.102   4.423  0.0326 -0.1294  0.4817
  839MOL0     C13159   7.740   5.004   4.187 -0.3592 -0.3120 -0.0962
  839MOL0     C13160   7.821   5.119   4.135 -0.1138 -0.0237 -0.2370
  839MOL0     O13161   7.827   5.137   4.002 -0.4460  0.3734 -0.4586
  839MOL0     C13162   7.893   5.248   3.970  0.0413 -1.3635 -0.0332
  839MOL0     C13163   7.822   5.373   3.978 -0.3135  0.3799 -1.2225
  839MOL0     C13164   7.875   5.491   3.927  0.4338  0.0189 -0.4460
  839MOL0     C13165   7.992   5.493   3.854 -0.8118  0.3277  0.5580
  839MOL0     O13166   8.041   5.615   3.810  0.3135  0.0123  0.0771
  839MOL0     C13167   8.181   5.622   3.784  0.5817  0.4899  0.6588
  839MOL0     C13168   8.230   5.607   3.632 -0.1133 -0.0861  0.0468
  839MOL0     C13169   8.203   5.724   3.547  0.0642  0.5658  0.7110
  839MOL0     C13170   8.269   5.715   3.415  0.5444 -0.2020 -0.0746
  839MOL0     C13171   8.232   5.842   3.346 -0.1469  0.7477 -0.7721
  839MOL0     C13172   8.248   5.840   3.193  0.0209  0.6043 -0.0664
  839MOL0     C13173   8.214   5.975   3.130  0.1674 -0.5009  0.3073
  839MOL0     C13174   8.211   5.960   2.981 -0.8688  1.0909  0.7262
  839MOL0    Cl13175   8.212   6.125   2.887 -0.0827  0.3195  0.1264
  839MOL0     C13176   8.056   5.365   3.830 -0.0822 -0.5234 -0.4450
  839MOL0     C13177   8.008   5.247   3.898 -0.0995 -0.7870 -0.1643
  839MOL0     O13178   7.886   5.184   4.212 -0.1278  0.1966 -0.1672
  839MOL0     C13179   7.710   4.901   4.098 -0.7373  0.8900  0.1363
  839MOL0     C13180   7.635   4.792   4.135  0.5606 -0.7556  0.3795
  839MOL0     N13181   7.306   4.079   4.402  0.2844  0.3484 -0.9503
  839MOL0     N13182   7.372   3.979   4.453  0.1467 -1.0302  0.3590
  839MOL0     C13183   7.481   3.033   3.666 -0.1076 -0.5486 -0.0788
  839MOL0     C13184   7.446   2.978   3.541  0.1935 -0.4914  0.4478
  839MOL0     C13185   7.496   2.710   3.187  0.0122  0.4595  0.4115
  839MOL0     C13186   7.527   2.569   3.168 -0.2176 -0.0810  1.0583
  839MOL0     C13187   7.497   2.510   3.038 -0.2428 -0.0477 -0.0336
  839MOL0     C13188   7.433   2.592   2.938  0.4744 -0.7457 -0.9432
  839MOL0     O13189   7.393   2.526   2.829 -0.8326  0.0153 -0.1290
  839MOL0     C13190   7.309   2.588   2.731  0.4333  0.5177 -0.6985
  839MOL0     C13191   7.268   2.485   2.626  0.2011 -0.4610 -0.4605
  839MOL0     C13192   7.192   2.355   2.666 -0.4630 -0.5401 -0.1177
  839MOL0     C13193   7.153   2.267   2.543 -0.3185 -1.7269 -1.2491
  839MOL0     C13194   7.067   2.337   2.451  0.6299 -0.8472 -0.3083
  839MOL0     C13195   6.977   2.401   2.403  0.3917 -0.5643  1.3712
  839MOL0     C13196   7.390   2.724   2.980  0.2097  0.0868  1.0440
  839MOL0     C13197   7.419   2.776   3.095  0.3365 -0.4990 -1.0928
  839MOL0     H13198   7.721   3.037   3.364 -1.0920  0.8648 -0.0205
  839MOL0     H13199   7.781   3.169   3.568  1.3477 -0.6108  0.6411
  839MOL0     H13200   7.462   3.234   3.857 -0.3748  1.0737  1.0477
  839MOL0     H13201   7.513   3.094   3.950 -1.0933 -0.2946 -1.0584
  839MOL0     H13202   7.713   3.195   4.030  1.5646  2.3968 -1.3664
  839MOL0     H13203   7.674   3.346   3.953 -0.3209  1.4036  0.3405
  839MOL0     H13204   7.452   3.306   4.119  0.0561  0.8454 -2.4743
  839MOL0     H13205   7.584   3.257   4.225 -1.9236  0.0467  1.1938
  839MOL0     H13206   7.702   3.492   4.143  1.3289  0.9184  0.5646
  839MOL0     H13207   7.538   3.545   4.116  0.0044 -0.5703 -0.3744
  839MOL0     H13208   7.466   3.463   4.347  0.4330  0.0829  0.1757
  839MOL0     H13209   7.612   3.390   4.377 -3.7139 -2.6138 -1.1497
  839MOL0     H13210   7.590   3.598   4.501 -3.2568  0.5241 -0.6854
  839MOL0     H13211   7.722   3.621   4.385 -0.5410 -0.4650  3.4447
  839MOL0     H13212   7.514   3.745   4.251 -2.2187 -0.8886 -0.1341
  839MOL0     H13213   7.427   3.703   4.388  1.2464 -3.1872 -1.8507
  839MOL0     H13214   7.682   3.878   4.365 -0.4588 -1.2304 -1.6681
  839MOL0     H13215   7.608   3.849   4.524  1.6751  3.4864  0.3708
  839MOL0     H13216   7.586   4.085   4.231 -0.0690 -1.1991 -0.4828
  839MOL0     H13217   7.333   4.152   4.089 -1.1122 -1.3058  1.2978
  839MOL0     H13218   7.215   4.236   4.195  0.2054 -0.2280 -0.1687
  839MOL0     H13219   7.336   4.404   4.092 -1.3944 -2.3626 -1.5400
  839MOL0     H13220   7.487   4.319   4.093 -0.0665 -2.5657  0.0218
  839MOL0     H13221   7.493   4.380   4.339  2.4759  0.1178 -1.9839
  839MOL0     H13222   7.328   4.451   4.336 -0.4662  0.9060 -1.5239
  839MOL0     H13223   7.444   4.596   4.126  0.9272 -1.2846 -1.2274
  839MOL0     H13224   7.587   4.524   4.154  0.1942 -0.7229 -1.1610
  839MOL0     H13225   7.580   4.860   4.457 -0.4781  1.0725 -0.0977
  839MOL0     H13226   7.624   5.128   4.481 -2.0727 -1.0149 -2.0797
  839MOL0     H13227   7.794   5.077   4.491  2.0506  2.3523 -0.8812
  839MOL0     H13228   7.746   5.200   4.389  5.1744 -1.3554  1.1654
  839MOL0     H13229   7.728   5.371   4.033  0.2802 -1.2215 -0.1624
  839MOL0     H13230   7.810   5.576   3.944 -1.5415 -1.7802  1.6508
  839MOL0     H13231   8.223   5.718   3.814  1.4938  0.1847  0.3836
  839MOL0     H13232   8.243   5.551   3.840  3.1660  1.8794 -0.2774
  839MOL0     H13233   8.337   5.587   3.635 -0.3511 -2.1309 -2.2108
  839MOL0     H13234   8.187   5.516   3.590 -0.2040  0.2611 -0.6476
  839MOL0     H13235   8.242   5.808   3.605 -0.4171  0.1937  1.5994
  839MOL0     H13236   8.096   5.730   3.529  0.4491  2.6888 -1.1908
  839MOL0     H13237   8.376   5.700   3.426  0.4551 -0.4088  0.5547
  839MOL0     H13238   8.214   5.636   3.362  2.2079 -2.6327  1.6077
  839MOL0     H13239   8.299   5.916   3.390  1.9487 -1.6159  0.3018
  839MOL0     H13240   8.128   5.868   3.368 -0.0301  2.2421 -1.8860
  839MOL0     H13241   8.353   5.818   3.173  0.3475 -0.6667  2.6713
  839MOL0     H13242   8.187   5.763   3.146  2.7884 -1.3397 -0.7308
  839MOL0     H13243   8.292   6.047   3.157 -2.9342  2.9165  1.0268
  839MOL0     H13244   8.119   6.009   3.173 -0.5765 -1.3018 -0.6542
  839MOL0     H13245   8.114   5.914   2.958 -0.6381  2.1636 -3.2045
  839MOL0     H13246   8.299   5.902   2.950  0.5064  2.2387  2.3674
  839MOL0     H13247   8.147   5.354   3.773 -0.2548  1.6235 -1.2419
  839MOL0     H13248   8.065   5.154   3.896  3.3773  1.1888 -1.2328
  839MOL0     H13249   7.739   4.912   3.993 -1.3305  1.3134  0.0120
  839MOL0     H13250   7.626   4.728   4.048  0.3764 -0.9164  0.5128
  839MOL0     H13251   7.420   3.021   3.755 -2.0930  0.3810 -1.2397
  839MOL0     H13252   7.352   2.926   3.530 -0.4140  1.0934 -2.9871
  839MOL0     H13253   7.583   2.508   3.238  0.2267 -1.2470 -0.2745
  839MOL0     H13254   7.518   2.405   3.025  0.3414  0.1533 -0.7730
  839MOL0     H13255   7.214   2.618   2.777  0.6773 -0.0637  0.2241
  839MOL0     H13256   7.363   2.674   2.690 -3.6668  2.3630 -2.7930
  839MOL0     H13257   7.349   2.457   2.558 -2.2772 -1.8306 -3.0868
  839MOL0     H13258   7.217   2.542   2.547  2.0527 -0.8886 -2.0538
  839MOL0     H13259   7.096   2.367   2.718  0.0979  1.1517  0.6241
  839MOL0     H13260   7.265   2.294   2.720 -0.7280 -0.5694  0.2123
  839MOL0     H13261   7.092   2.184   2.581 -3.8190  1.3367  0.5457
  839MOL0     H13262   7.252   2.243   2.504  0.7078  1.5424 -0.9576
  839MOL0     H13263   6.888   2.435   2.354 -0.4136 -1.4284  2.1939
  839MOL0     H13264   7.341   2.781   2.902 -0.2403 -1.6572 -0.0059
  839MOL0     H13265   7.379   2.873   3.122 -3.6585 -2.2776  0.0915
  840MOL0     O13266   3.203   9.335   3.654  0.1073  0.0257  1.1411
  840MOL0     C13267   3.160   9.447   3.606 -1.6423  0.0051 -0.0504
  840MOL0     O13268   3.220   9.502   3.497 -0.4749 -0.6796  0.3588
  840MOL0     C13269   3.308   9.432   3.416  0.4654  0.0987 -0.2162
  840MOL0     C13270   3.258   9.346   3.312  0.8964 -0.5919  0.0956
  840MOL0     C13271   3.339   9.288   3.225 -1.3684 -0.1627  0.4004
  840MOL0     C13272   3.484   9.294   3.240 -1.1451  0.1935 -0.8309
  840MOL0     O13273   3.569   9.224   3.164 -0.5863  0.0122 -0.6188
  840MOL0     C13274   3.552   9.239   3.022  0.1386 -0.0531 -0.2060
  840MOL0     C13275   3.692   9.242   2.964 -0.0146  0.2195 -0.4061
  840MOL0     C13276   3.679   9.267   2.815 -0.3844 -1.4215 -0.4318
  840MOL0     C13277   3.818   9.270   2.741 -0.8313 -0.0677 -0.1526
  840MOL0     C13278   3.914   9.381   2.775 -0.2517  0.0148  0.3157
  840MOL0     C13279   3.867   9.516   2.703 -0.7276 -0.0117 -0.3477
  840MOL0     C13280   3.939   9.640   2.761  0.0776 -1.2360 -1.2870
  840MOL0     C13281   3.935   9.656   2.914  0.7532 -0.3817 -0.6224
  840MOL0     N13282   3.797   9.639   2.966 -0.7772  1.1416 -0.3863
  840MOL0     C13283   3.684   9.683   2.907  0.8673  0.2391 -0.1237
  840MOL0     C13284   3.585   9.627   2.984  0.1982  1.1444  0.3553
  840MOL0     C13285   3.442   9.633   2.956 -0.4934  0.0516 -0.1842
  840MOL0     C13286   3.341   9.634   3.074 -0.3860 -0.1926 -0.3977
  840MOL0     C13287   3.359   9.766   3.160 -0.6759  0.4063  0.4000
  840MOL0     C13288   3.243   9.804   3.241 -0.3290  0.8636 -0.8316
  840MOL0     O13289   3.126   9.830   3.164  0.0330 -0.1172 -0.1460
  840MOL0     C13290   3.017   9.849   3.245 -0.8101  0.1264 -0.6165
  840MOL0     C13291   2.947   9.739   3.285  0.3996 -0.1871  0.3496
  840MOL0     C13292   2.827   9.755   3.350 -1.5783  0.1760 -1.1276
  840MOL0     C13293   2.749   9.631   3.381  0.4325 -0.1635 -0.0767
  840MOL0     C13294   2.792   9.883   3.394  0.4207 -0.6320 -0.5400
  840MOL0     C13295   2.689   9.915   3.497  0.0627  0.0050 -0.1866
  840MOL0     O13296   2.689  10.045   3.537 -0.1851  0.0430  0.1620
  840MOL0     C13297   2.600  10.078   3.641  0.5975  0.1824  1.2143
  840MOL0     C13298   2.605  10.026   3.775  0.2346  0.2395  2.1183
  840MOL0     C13299   2.506  10.060   3.871 -0.8863 -0.7070 -0.1639
  840MOL0     C13300   2.415  10.163   3.845  0.4379  0.6421  0.2226
  840MOL0     O13301   2.354  10.198   3.965 -0.8327  0.3170  0.4184
  840MOL0     C13302   2.241  10.296   3.960  0.5725 -1.0281  0.4425
  840MOL0     C13303   2.151  10.280   4.083  0.3250 -0.5543 -0.4942
  840MOL0     C13304   2.201  10.353   4.212  0.2565 -0.5440  0.1177
  840MOL0     C13305   2.106  10.335   4.330  0.2713 -0.5999 -0.4078
  840MOL0     C13306   2.152  10.402   4.465 -0.0555  0.7314 -1.1777
  840MOL0     C13307   2.223  10.538   4.464  0.2545  0.3865  0.2699
  840MOL0     C13308   2.370  10.499   4.440  0.4499  0.5001  0.9078
  840MOL0     C13309   2.458  10.620   4.415 -0.6534 -0.2603 -0.0654
  840MOL0    Cl13310   2.449  10.737   4.560 -0.1043  0.0601  0.1504
  840MOL0     C13311   2.403  10.220   3.712  0.0196 -0.7816 -0.8335
  840MOL0     C13312   2.500  10.179   3.615  0.1471 -0.0083  0.3778
  840MOL0     O13313   2.609   9.831   3.543 -0.7248  0.6266 -0.4463
  840MOL0     C13314   2.868   9.996   3.348  1.0297 -0.8730  0.1972
  840MOL0     C13315   2.973   9.982   3.260  0.5943  0.2222  1.4556
  840MOL0     N13316   3.646   9.573   3.096 -0.0691  0.6670  0.0632
  840MOL0     N13317   3.775   9.563   3.074 -0.0403  0.3117  0.3936
  840MOL0     C13318   3.532   9.370   3.349  0.2167 -0.0089 -0.2827
  840MOL0     C13319   3.440   9.435   3.434 -0.4484 -0.1184 -0.5052
  840MOL0     C13320   3.062   9.519   3.682  0.0421 -0.7125  1.1873
  840MOL0     C13321   3.008   9.633   3.615  0.1580 -0.3238 -0.8815
  840MOL0     C13322   2.904   9.692   3.678 -0.5829 -0.4656 -0.2766
  840MOL0     C13323   2.852   9.653   3.807 -0.2786  0.5571 -0.0772
  840MOL0     O13324   2.754   9.732   3.865  0.4809 -0.8197 -0.0527
  840MOL0     C13325   2.713   9.717   4.005 -0.3265 -0.1705  0.1045
  840MOL0     C13326   2.801   9.756   4.122 -0.3006 -0.3618  0.5932
  840MOL0     C13327   2.830   9.907   4.144  0.0668  0.4635 -1.0414
  840MOL0     C13328   2.891   9.919   4.275 -0.7845  0.0136 -0.7208
  840MOL0     C13329   3.038   9.901   4.257 -0.8274  0.2162 -1.2314
  840MOL0     C13330   3.161   9.901   4.250 -0.2800  0.5080 -0.4768
  840MOL0     C13331   2.917   9.548   3.870  0.5648  0.5678  0.3277
  840MOL0     C13332   3.015   9.477   3.800 -0.3636  0.5339 -0.0463
  840MOL0     H13333   3.150   9.346   3.298  0.6658  1.5465  1.3176
  840MOL0     H13334   3.297   9.227   3.145  4.6443 -2.3927 -1.6045
  840MOL0     H13335   3.508   9.151   2.974 -1.0843  0.8626 -0.8199
  840MOL0     H13336   3.494   9.327   2.992  0.9270  0.6783  0.3456
  840MOL0     H13337   3.745   9.323   3.016  1.7381 -0.5876 -0.8409
  840MOL0     H13338   3.740   9.148   2.993  0.1805  0.1793 -0.8542
  840MOL0     H13339   3.627   9.183   2.770 -0.3812 -1.3337 -0.5992
  840MOL0     H13340   3.629   9.364   2.800  1.4484  0.2516  2.9953
  840MOL0     H13341   3.870   9.177   2.763  0.2022  0.5986  0.3261
  840MOL0     H13342   3.809   9.256   2.633  4.0777 -1.0271 -0.6742
  840MOL0     H13343   3.937   9.386   2.882  0.3096  0.1188  0.1951
  840MOL0     H13344   4.012   9.354   2.733 -1.3023 -0.3268 -2.0864
  840MOL0     H13345   3.886   9.519   2.595 -1.1801  3.0617 -0.4433
  840MOL0     H13346   3.759   9.528   2.717 -0.2275  1.5787  3.5642
  840MOL0     H13347   4.046   9.634   2.737  1.1945  3.0488  1.4214
  840MOL0     H13348   3.897   9.728   2.712 -3.3058 -1.2249  1.2780
  840MOL0     H13349   3.982   9.752   2.937  3.7396 -1.2630 -2.4405
  840MOL0     H13350   3.998   9.578   2.957  0.9446  0.2944  0.3442
  840MOL0     H13351   3.676   9.746   2.818  2.5416  0.4990 -0.1215
  840MOL0     H13352   3.432   9.727   2.901 -1.1578  3.8737  5.6311
  840MOL0     H13353   3.424   9.552   2.884  1.0595  1.8014 -2.7043
  840MOL0     H13354   3.357   9.553   3.146 -1.5539  0.1928  0.3150
  840MOL0     H13355   3.243   9.626   3.026  0.0710 -1.3779 -1.1691
  840MOL0     H13356   3.383   9.841   3.085  0.0558  2.5248  2.6188
  840MOL0     H13357   3.450   9.766   3.222  0.0431 -2.6445 -0.4967
  840MOL0     H13358   3.257   9.888   3.310  1.1347 -0.8362  1.0991
  840MOL0     H13359   3.233   9.723   3.315  0.6706  3.3726  2.2775
  840MOL0     H13360   2.989   9.646   3.250 -0.7286 -0.0467 -1.4637
  840MOL0     H13361   2.651   9.635   3.332  0.2619  3.7141  0.2329
  840MOL0     H13362   2.808   9.549   3.341  3.0546  1.0936  0.9529
  840MOL0     H13363   2.734   9.612   3.488 -4.9260  0.0139 -0.5027
  840MOL0     H13364   2.676   9.947   3.798  3.3590  1.5869 -1.6059
  840MOL0     H13365   2.514  10.033   3.976 -0.8068 -1.5122 -0.3711
  840MOL0     H13366   2.275  10.400   3.952  0.9522 -1.0458  1.6186
  840MOL0     H13367   2.170  10.262   3.884  0.4534 -1.8394  0.9083
  840MOL0     H13368   2.048  10.308   4.062  0.6998 -0.8080 -3.0502
  840MOL0     H13369   2.154  10.172   4.103 -0.2997 -0.5331 -0.2808
  840MOL0     H13370   2.213  10.462   4.207  0.8314 -0.6622 -1.8360
  840MOL0     H13371   2.300  10.312   4.232  0.9624  0.8622 -0.2983
  840MOL0     H13372   2.009  10.371   4.295  1.1280 -0.4622 -2.8234
  840MOL0     H13373   2.096  10.227   4.342  0.0211 -0.9726 -3.3455
  840MOL0     H13374   2.213  10.325   4.514 -1.2150  2.0475  2.6628
  840MOL0     H13375   2.065  10.419   4.530  0.8638 -1.5589  0.7996
  840MOL0     H13376   2.179  10.596   4.382  1.9758 -0.0416 -1.0151
  840MOL0     H13377   2.221  10.605   4.551 -0.4166  0.9870 -0.2013
  840MOL0     H13378   2.393  10.421   4.367 -1.7466  1.4569 -0.9089
  840MOL0     H13379   2.397  10.455   4.536 -1.7137  1.1033  1.8440
  840MOL0     H13380   2.425  10.674   4.326 -2.0778  3.3579  2.4269
  840MOL0     H13381   2.557  10.575   4.401  0.5503  2.8405 -2.6765
  840MOL0     H13382   2.318  10.287   3.703 -0.1004 -0.5909  1.3295
  840MOL0     H13383   2.500  10.234   3.522 -1.1476 -1.2765 -0.3927
  840MOL0     H13384   2.860  10.101   3.374 -3.4851 -0.6265 -1.2567
  840MOL0     H13385   3.022  10.063   3.208 -0.0170  0.6599  1.5531
  840MOL0     H13386   3.636   9.397   3.359 -0.2888  1.4185  1.4655
  840MOL0     H13387   3.468   9.481   3.528 -0.6758  2.8942 -1.8009
  840MOL0     H13388   3.054   9.682   3.530 -0.9110  3.0460  0.2946
  840MOL0     H13389   2.860   9.784   3.640 -0.7661 -0.1530  0.6562
  840MOL0     H13390   2.629   9.786   4.016  0.3881  0.8208 -0.5223
  840MOL0     H13391   2.689   9.610   4.009  1.8439 -0.7449 -1.0046
  840MOL0     H13392   2.900   9.711   4.111 -0.9533 -1.8144  0.4012
  840MOL0     H13393   2.758   9.711   4.212 -0.9992 -0.9147  0.0002
  840MOL0     H13394   2.736   9.962   4.158 -0.7864 -1.0281 -0.6893
  840MOL0     H13395   2.894   9.945   4.064  1.1282 -3.4307 -2.2665
  840MOL0     H13396   2.848   9.850   4.348  3.1714 -0.6015  1.3245
  840MOL0     H13397   2.891  10.025   4.303 -0.3157 -0.1278 -0.1675
  840MOL0     H13398   3.265   9.908   4.272  0.0861 -3.6665 -0.0680
  840MOL0     H13399   2.875   9.514   3.964 -0.6790  0.5043 -0.2363
  840MOL0     H13400   3.074   9.400   3.847  0.4142  2.3278  2.1304
  841MOL0     O13401   5.313   0.974   2.978  0.3277  0.3310 -0.5825
  841MOL0     C13402   5.235   0.986   3.083 -0.2904 -0.3867  0.1481
  841MOL0     O13403   5.172   1.096   3.123  0.3480 -0.3731  0.1237
  841MOL0     C13404   5.203   1.219   3.067  0.6860 -0.3989  0.3867
  841MOL0     C13405   5.218   1.324   3.154 -0.4575  0.9230 -0.0820
  841MOL0     C13406   5.238   1.453   3.100 -0.1021 -0.0242 -0.4016
  841MOL0     C13407   5.259   1.485   2.968 -0.7015  0.8646 -0.4511
  841MOL0     O13408   5.288   1.606   2.907 -0.3155 -0.5037  0.3514
  841MOL0     C13409   5.359   1.705   2.987  0.5663  0.1442  0.7474
  841MOL0     C13410   5.403   1.812   2.887  0.0704 -0.0307 -0.0652
  841MOL0     C13411   5.288   1.903   2.838 -0.6459  0.4950  0.3846
  841MOL0     C13412   5.332   2.038   2.771  0.6041  0.1079 -0.5301
  841MOL0     C13413   5.214   2.131   2.724  0.8370  0.0925  0.6675
  841MOL0     C13414   5.262   2.272   2.678  0.4251  0.6296 -0.3550
  841MOL0     C13415   5.387   2.287   2.580 -0.0718  0.6244 -0.2684
  841MOL0     C13416   5.400   2.436   2.548  0.1172  0.8141 -0.9337
  841MOL0     N13417   5.536   2.464   2.514  0.2660  0.0386  0.2592
  841MOL0     C13418   5.577   2.456   2.380 -0.6031  0.4237 -0.5399
  841MOL0     C13419   5.708   2.489   2.391 -1.4668  0.1453  1.1969
  841MOL0     C13420   5.816   2.500   2.278  0.4626  0.7998  0.0596
  841MOL0     C13421   5.916   2.619   2.285 -0.7912 -0.3108  0.8162
  841MOL0     C13422   6.050   2.617   2.212  0.2829  0.6147  0.1390
  841MOL0     C13423   6.175   2.670   2.297  1.2420  0.8848 -0.1958
  841MOL0     O13424   6.144   2.804   2.331  0.2105  1.1198 -0.0502
  841MOL0     C13425   6.247   2.879   2.381  0.0502 -0.0654  0.6613
  841MOL0     C13426   6.371   2.836   2.417 -0.0151 -0.8634  0.0123
  841MOL0     C13427   6.467   2.913   2.482 -1.4857  0.3458  0.7381
  841MOL0     C13428   6.607   2.858   2.495 -0.5447 -2.0730 -0.0741
  841MOL0     C13429   6.431   3.037   2.542 -0.1779  0.1495 -0.6174
  841MOL0     C13430   6.504   3.118   2.642 -1.0208 -0.0509 -0.0022
  841MOL0     O13431   6.563   3.042   2.743 -0.0678 -0.0072 -0.0099
  841MOL0     C13432   6.639   3.115   2.836 -0.0409  0.4606 -0.0818
  841MOL0     C13433   6.604   3.120   2.967  0.4413  0.1116 -0.5643
  841MOL0     C13434   6.684   3.196   3.052 -0.1573 -0.3009 -0.5654
  841MOL0     C13435   6.804   3.247   3.014  0.3391 -0.3008 -0.7241
  841MOL0     O13436   6.890   3.322   3.101 -0.8852 -0.7451  1.7617
  841MOL0     C13437   6.831   3.432   3.169  0.1075 -0.0569 -0.3625
  841MOL0     C13438   6.946   3.505   3.254  0.4155 -0.9360 -0.2773
  841MOL0     C13439   6.911   3.651   3.300  0.0557 -0.1722  0.6443
  841MOL0     C13440   7.019   3.689   3.395 -0.4326 -0.3116  0.0915
  841MOL0     C13441   6.976   3.817   3.470  0.6894  0.4704 -0.9201
  841MOL0     C13442   7.103   3.873   3.533 -0.1863  0.0228  0.8411
  841MOL0     C13443   7.065   3.987   3.634  0.6142  0.0919  0.5331
  841MOL0     C13444   7.167   4.085   3.649  0.0388  0.6690  0.0156
  841MOL0    Cl13445   7.332   4.031   3.644  0.4412  0.7846 -0.2971
  841MOL0     C13446   6.851   3.232   2.885 -0.1244 -0.6041  0.0225
  841MOL0     C13447   6.763   3.164   2.790  0.8711 -0.1824 -0.5385
  841MOL0     O13448   6.494   3.241   2.645 -0.3486  0.0608 -0.0788
  841MOL0     C13449   6.309   3.089   2.497 -0.7353  0.2757 -0.5122
  841MOL0     C13450   6.222   3.018   2.414  1.0619  0.3668 -0.0163
  841MOL0     N13451   5.753   2.498   2.523 -0.1673  0.3114  0.4701
  841MOL0     N13452   5.650   2.484   2.593  0.5417 -0.0231  1.2412
  841MOL0     C13453   5.232   1.378   2.880  0.0835  0.0528  0.0306
  841MOL0     C13454   5.209   1.246   2.926  0.1558  0.1535  0.7147
  841MOL0     C13455   5.190   0.868   3.161  0.2732 -0.5964 -0.6470
  841MOL0     C13456   5.167   0.747   3.092 -0.1551 -0.4800  0.0289
  841MOL0     C13457   5.120   0.637   3.156 -0.1471 -0.7227  0.4490
  841MOL0     C13458   5.084   0.644   3.295 -0.2783  0.7307  0.0559
  841MOL0     O13459   5.019   0.537   3.360 -0.3107 -0.2470  0.3155
  841MOL0     C13460   4.983   0.415   3.300 -0.2245 -0.5118 -0.2364
  841MOL0     C13461   4.871   0.352   3.374  1.5263 -0.1308  0.6144
  841MOL0     C13462   4.743   0.431   3.340 -0.2536  0.6169 -0.0957
  841MOL0     C13463   4.631   0.377   3.417  0.4175  0.2642 -0.0508
  841MOL0     C13464   4.512   0.455   3.407  0.9828  0.0414  0.9186
  841MOL0     C13465   4.422   0.525   3.367  0.4693 -0.1254 -0.2630
  841MOL0     C13466   5.099   0.758   3.369 -0.6020 -0.1398  0.3619
  841MOL0     C13467   5.162   0.876   3.300 -0.0285 -0.3840  0.2290
  841MOL0     H13468   5.186   1.322   3.258  2.4834 -0.3513  0.8780
  841MOL0     H13469   5.233   1.536   3.170 -0.3029  2.5789 -3.3244
  841MOL0     H13470   5.290   1.742   3.065 -0.8643  0.4343 -0.6090
  841MOL0     H13471   5.448   1.662   3.033 -0.4032 -0.5594  2.0486
  841MOL0     H13472   5.484   1.874   2.926  1.0564 -0.5084 -1.2859
  841MOL0     H13473   5.462   1.756   2.814  2.2482 -0.3326  1.8142
  841MOL0     H13474   5.234   1.843   2.765  2.7291 -0.9579 -1.1530
  841MOL0     H13475   5.225   1.918   2.927 -3.3220 -0.8276 -1.1707
  841MOL0     H13476   5.392   2.091   2.846 -0.2309 -1.7100  1.5449
  841MOL0     H13477   5.394   2.019   2.683 -1.0096 -2.4264 -1.2231
  841MOL0     H13478   5.154   2.086   2.645  0.0361  0.0369  1.2895
  841MOL0     H13479   5.148   2.145   2.810  0.0707 -2.7141  0.6204
  841MOL0     H13480   5.181   2.331   2.635  0.5629  1.9660  1.1105
  841MOL0     H13481   5.289   2.320   2.772 -0.6753 -0.1535  0.3811
  841MOL0     H13482   5.471   2.238   2.632 -1.1515 -0.3785  0.5881
  841MOL0     H13483   5.378   2.243   2.481  2.9850  3.5472 -2.0492
  841MOL0     H13484   5.365   2.505   2.625 -1.6850 -2.2874  1.2641
  841MOL0     H13485   5.340   2.464   2.461 -0.2191  2.0945 -0.3104
  841MOL0     H13486   5.518   2.431   2.292 -0.4729 -1.9788 -0.0075
  841MOL0     H13487   5.865   2.402   2.280 -1.3121 -0.1080  1.6127
  841MOL0     H13488   5.762   2.502   2.182 -0.4328 -0.5840  0.5046
  841MOL0     H13489   5.930   2.630   2.393  0.3457  3.0331  0.4240
  841MOL0     H13490   5.857   2.709   2.266  0.1912  0.1653 -0.0252
  841MOL0     H13491   6.046   2.683   2.126 -1.6778  0.8225  0.3443
  841MOL0     H13492   6.057   2.519   2.164  0.8273  1.7064 -2.1375
  841MOL0     H13493   6.263   2.654   2.234  0.5887 -1.1357 -0.6752
  841MOL0     H13494   6.186   2.618   2.393  1.6496  1.9172  0.3309
  841MOL0     H13495   6.403   2.734   2.399 -1.4588 -1.4702  0.6951
  841MOL0     H13496   6.631   2.766   2.442 -3.2205 -2.3179 -1.0318
  841MOL0     H13497   6.678   2.935   2.463 -1.6942 -0.0588  1.8891
  841MOL0     H13498   6.631   2.844   2.601 -1.9137  1.5340  0.8906
  841MOL0     H13499   6.510   3.071   2.991  0.8030 -0.1183  0.3927
  841MOL0     H13500   6.668   3.204   3.160  1.5135  2.3924 -0.4190
  841MOL0     H13501   6.779   3.495   3.096 -5.6201  1.7525  4.4509
  841MOL0     H13502   6.748   3.410   3.237 -0.8010  2.0644 -0.7148
  841MOL0     H13503   6.984   3.444   3.337  2.3374  0.8831  0.2711
  841MOL0     H13504   7.031   3.520   3.188  0.9228  3.6623  1.0347
  841MOL0     H13505   6.810   3.662   3.340  0.8195 -0.8600  2.9304
  841MOL0     H13506   6.903   3.720   3.215 -2.2502  1.9735  2.4731
  841MOL0     H13507   7.045   3.616   3.473 -0.4264  1.7018  2.0693
  841MOL0     H13508   7.112   3.693   3.338 -0.3696 -0.3883  0.1874
  841MOL0     H13509   6.916   3.798   3.559 -0.4527  2.0455 -1.3134
  841MOL0     H13510   6.918   3.882   3.404 -3.8140 -1.8717  0.3286
  841MOL0     H13511   7.151   3.797   3.595  0.0440 -0.4091  0.1503
  841MOL0     H13512   7.178   3.896   3.456  0.8624  3.0006  2.5732
  841MOL0     H13513   7.044   3.939   3.730 -3.0439 -2.0941 -1.1501
  841MOL0     H13514   6.970   4.031   3.605 -0.3120 -0.2840  2.8391
  841MOL0     H13515   7.148   4.141   3.742 -1.7495 -2.9489  2.0745
  841MOL0     H13516   7.158   4.156   3.566  0.5235  2.1004  1.1377
  841MOL0     H13517   6.948   3.275   2.861  0.2919 -1.3261  0.3945
  841MOL0     H13518   6.802   3.159   2.689  0.3992  1.1697 -0.8078
  841MOL0     H13519   6.281   3.190   2.525  0.0142 -0.0155  1.4484
  841MOL0     H13520   6.126   3.067   2.396  0.9153  0.8133  1.8098
  841MOL0     H13521   5.252   1.382   2.774 -1.4141  1.9377 -0.2329
  841MOL0     H13522   5.201   1.160   2.860 -1.5631  0.5700  0.3437
  841MOL0     H13523   5.195   0.738   2.987 -2.6421  0.1753 -0.7490
  841MOL0     H13524   5.089   0.553   3.096 -3.5041  0.6615 -0.0292
  841MOL0     H13525   4.948   0.429   3.197 -1.5837 -3.3358 -0.2555
  841MOL0     H13526   5.066   0.344   3.296 -1.2566 -1.8772  1.4303
  841MOL0     H13527   4.888   0.339   3.481  0.8019  0.9676  0.8834
  841MOL0     H13528   4.861   0.253   3.330 -2.5032  0.8364 -1.0750
  841MOL0     H13529   4.711   0.414   3.237  0.8203 -0.3312 -0.2881
  841MOL0     H13530   4.746   0.537   3.368 -0.3257  0.2814  1.2461
  841MOL0     H13531   4.663   0.372   3.521  0.6418 -0.1428 -0.1334
  841MOL0     H13532   4.605   0.274   3.389 -1.8602  0.8427 -0.2544
  841MOL0     H13533   4.352   0.596   3.327 -0.8839  0.8225  3.3474
  841MOL0     H13534   5.064   0.755   3.472 -3.2969  1.4684 -0.3923
  841MOL0     H13535   5.166   0.958   3.371  1.2681 -0.6537  0.5062
  842MOL0     O13536   6.924   4.481   0.589 -0.2104 -0.1811 -0.8020
  842MOL0     C13537   6.945   4.484   0.714 -0.0787 -0.3951 -0.5733
  842MOL0     O13538   7.056   4.431   0.786 -0.3384 -0.0122  0.6343
  842MOL0     C13539   7.174   4.424   0.713 -0.2230 -0.9378 -0.8426
  842MOL0     C13540   7.199   4.404   0.578 -0.8418  0.3218  0.5271
  842MOL0     C13541   7.322   4.373   0.538 -0.4389 -0.0538 -1.6634
  842MOL0     C13542   7.432   4.376   0.620 -0.7260  1.0969 -0.1418
  842MOL0     O13543   7.546   4.335   0.564 -0.8077  0.0148  0.7735
  842MOL0     C13544   7.677   4.389   0.603 -0.5188  1.0283 -0.2874
  842MOL0     C13545   7.751   4.419   0.472 -0.0369  0.2991 -0.5056
  842MOL0     C13546   7.708   4.545   0.396 -0.5216 -0.8784 -0.2188
  842MOL0     C13547   7.824   4.627   0.338 -0.6843 -0.9674  0.3651
  842MOL0     C13548   7.798   4.777   0.307  0.7644  0.4356 -0.1150
  842MOL0     C13549   7.930   4.869   0.299 -0.1393 -0.1789 -0.3547
  842MOL0     C13550   8.018   4.831   0.182  0.1178  0.7613  0.2687
  842MOL0     C13551   7.968   4.872   0.040 -0.8425 -0.4913  0.5267
  842MOL0     N13552   7.919   5.014   0.025  0.5263  0.1602 -0.4021
  842MOL0     C13553   7.784   5.068   0.049 -0.3655  0.0232  0.8294
  842MOL0     C13554   7.803   5.209   0.049 -0.0358  0.9103  0.0398
  842MOL0     C13555   7.692   5.303   0.035  0.1787 -0.0819 -0.1963
  842MOL0     C13556   7.697   5.394  -0.087  0.2706 -0.4018 -0.2508
  842MOL0     C13557   7.596   5.350  -0.193  0.1234  0.3315  0.1950
  842MOL0     C13558   7.611   5.424  -0.321  0.6941  1.0357  0.2510
  842MOL0     O13559   7.545   5.346  -0.421  0.6791  0.0764 -0.6194
  842MOL0     C13560   7.585   5.353  -0.549 -0.4023  1.1994 -0.5496
  842MOL0     C13561   7.564   5.246  -0.635  0.6063 -0.2591 -0.1376
  842MOL0     C13562   7.614   5.231  -0.762 -0.4442  0.3572 -0.8492
  842MOL0     C13563   7.576   5.114  -0.854  0.3665 -0.4391 -0.8900
  842MOL0     C13564   7.686   5.341  -0.809  0.4601  0.5116 -0.0565
  842MOL0     C13565   7.769   5.347  -0.931 -0.7300 -0.7727  0.0963
  842MOL0     O13566   7.808   5.230  -0.981 -0.0850 -0.0235 -0.1915
  842MOL0     C13567   7.908   5.222  -1.068 -0.6745 -0.7280 -0.2890
  842MOL0     C13568   8.041   5.258  -1.035  0.3239  0.1265 -0.2636
  842MOL0     C13569   8.137   5.259  -1.132 -0.3802  0.2908  0.8163
  842MOL0     C13570   8.106   5.192  -1.247 -0.4893 -0.3054  0.4896
  842MOL0     O13571   8.202   5.174  -1.348 -0.0036  0.0863 -0.5170
  842MOL0     C13572   8.330   5.236  -1.351  0.0603 -0.0974  0.2203
  842MOL0     C13573   8.386   5.212  -1.494  0.5125  0.2040  0.7927
  842MOL0     C13574   8.540   5.227  -1.494  0.4396 -0.5307  0.2785
  842MOL0     C13575   8.604   5.129  -1.590 -0.1208 -0.8249 -0.4061
  842MOL0     C13576   8.754   5.097  -1.574  0.1526  0.1734 -0.1660
  842MOL0     C13577   8.841   5.207  -1.529  0.7717  0.2636 -0.7828
  842MOL0     C13578   8.990   5.183  -1.531 -0.1583 -0.3829  0.9435
  842MOL0     C13579   9.043   5.059  -1.467  0.3190 -0.1421 -0.2260
  842MOL0    Cl13580   9.050   5.086  -1.288 -0.1276  0.2771  0.1582
  842MOL0     C13581   7.980   5.144  -1.281 -0.3317 -0.8875  0.1723
  842MOL0     C13582   7.880   5.155  -1.189 -0.8189 -0.8698  0.2638
  842MOL0     O13583   7.797   5.456  -0.970 -0.6545  0.0708  0.4962
  842MOL0     C13584   7.707   5.458  -0.729 -0.1222  0.1371  0.1602
  842MOL0     C13585   7.650   5.465  -0.598  0.6802  0.1760  0.2538
  842MOL0     N13586   7.938   5.239   0.040  0.4449 -0.6974 -0.9728
  842MOL0     N13587   8.002   5.129   0.031  0.3439  0.2064  0.3895
  842MOL0     C13588   7.416   4.403   0.752 -0.1060 -0.1639 -0.1642
  842MOL0     C13589   7.286   4.425   0.795  0.1455  0.5806 -0.0803
  842MOL0     C13590   6.836   4.521   0.804  0.2801 -0.4477 -0.2017
  842MOL0     C13591   6.720   4.573   0.754 -0.4278 -0.6866 -0.5862
  842MOL0     C13592   6.629   4.639   0.839  0.1099  0.5508  0.0827
  842MOL0     C13593   6.649   4.651   0.979  0.0612 -0.4443  0.6861
  842MOL0     O13594   6.562   4.715   1.063  0.0773 -0.0458  0.4367
  842MOL0     C13595   6.486   4.819   1.014 -0.1207  0.6918 -0.5084
  842MOL0     C13596   6.431   4.892   1.131 -0.2764  0.2512 -1.2370
  842MOL0     C13597   6.546   4.977   1.208 -0.5448 -1.1347  0.1707
  842MOL0     C13598   6.494   5.054   1.329  0.4158 -0.0181 -0.4253
  842MOL0     C13599   6.443   4.958   1.433  0.0735 -0.3488  0.7412
  842MOL0     C13600   6.395   4.873   1.508 -0.1031  0.6237 -0.4074
  842MOL0     C13601   6.761   4.601   1.035  0.5438  0.9150 -0.1484
  842MOL0     C13602   6.848   4.536   0.948 -0.2871  0.9334 -0.4898
  842MOL0     H13603   7.118   4.397   0.507 -0.8054 -1.4506  0.6229
  842MOL0     H13604   7.351   4.368   0.434  1.2235 -1.5965 -1.1943
  842MOL0     H13605   7.661   4.480   0.661 -2.2750 -0.2319  1.3511
  842MOL0     H13606   7.732   4.320   0.668 -0.5474  0.6676 -0.6473
  842MOL0     H13607   7.857   4.425   0.500  0.1556  1.3203 -1.3996
  842MOL0     H13608   7.736   4.337   0.402 -1.1085 -1.5401  1.7494
  842MOL0     H13609   7.641   4.519   0.314 -0.6241 -2.7412  0.4186
  842MOL0     H13610   7.649   4.611   0.459  1.6937  0.4426  0.5873
  842MOL0     H13611   7.921   4.610   0.386 -0.9336 -0.4994  1.0519
  842MOL0     H13612   7.864   4.603   0.240  5.2785  0.5991  1.9931
  842MOL0     H13613   7.741   4.784   0.214  1.2665  1.0820 -0.3853
  842MOL0     H13614   7.739   4.814   0.391  1.5553  2.3404 -0.3411
  842MOL0     H13615   7.907   4.976   0.294  1.7180  0.2677 -0.1474
  842MOL0     H13616   7.982   4.861   0.395 -3.7961  3.8987  2.3410
  842MOL0     H13617   8.114   4.880   0.198 -0.5055  1.8869  0.6875
  842MOL0     H13618   8.035   4.723   0.175  2.3192  1.0795  0.1369
  842MOL0     H13619   7.886   4.801   0.023 -1.5431  0.4056  0.0791
  842MOL0     H13620   8.046   4.862  -0.036 -2.6333  3.6985 -2.2281
  842MOL0     H13621   7.681   5.036   0.039  0.0475 -0.6081 -3.4927
  842MOL0     H13622   7.598   5.255   0.065  0.5723  0.6965  2.4578
  842MOL0     H13623   7.705   5.378   0.114  1.4488  3.4029 -3.3877
  842MOL0     H13624   7.800   5.392  -0.123  0.9187  2.0613  1.1922
  842MOL0     H13625   7.686   5.499  -0.056  1.6638 -0.9271  2.2637
  842MOL0     H13626   7.495   5.370  -0.154 -0.5928  0.6795 -1.7290
  842MOL0     H13627   7.599   5.244  -0.221 -4.2429 -0.3457  1.4076
  842MOL0     H13628   7.719   5.438  -0.335  1.1775 -2.6364 -0.5543
  842MOL0     H13629   7.568   5.524  -0.308 -1.4919  0.1569  0.2446
  842MOL0     H13630   7.506   5.161  -0.600  1.8015 -1.3471 -0.7065
  842MOL0     H13631   7.487   5.064  -0.815  0.0448  0.4806 -0.4305
  842MOL0     H13632   7.551   5.160  -0.950  1.3110 -0.0339 -0.9611
  842MOL0     H13633   7.662   5.046  -0.862  1.4117  1.0391 -3.0384
  842MOL0     H13634   8.075   5.275  -0.933  0.6195 -1.0581 -0.1502
  842MOL0     H13635   8.231   5.314  -1.125  0.2094  0.2562 -3.7950
  842MOL0     H13636   8.326   5.344  -1.335 -2.9766 -0.3590  2.2221
  842MOL0     H13637   8.388   5.185  -1.273 -0.9425 -0.4278  0.7715
  842MOL0     H13638   8.364   5.107  -1.515  3.1839 -0.1263 -0.8945
  842MOL0     H13639   8.338   5.266  -1.576  0.9440 -0.9547 -0.2625
  842MOL0     H13640   8.587   5.218  -1.396  1.2589 -1.3417 -0.1828
  842MOL0     H13641   8.550   5.329  -1.532 -2.0135 -0.5326 -0.5837
  842MOL0     H13642   8.545   5.037  -1.593  0.1555 -1.0287  0.2624
  842MOL0     H13643   8.588   5.172  -1.690 -1.1327  1.2496  0.5797
  842MOL0     H13644   8.787   5.043  -1.663  1.1812 -0.8114  0.7774
  842MOL0     H13645   8.761   5.023  -1.494  2.3647  1.9845  1.4669
  842MOL0     H13646   8.822   5.296  -1.589  1.1460  1.1565  0.3697
  842MOL0     H13647   8.802   5.231  -1.429 -0.7185 -0.9194 -1.0297
  842MOL0     H13648   9.048   5.256  -1.475 -0.6887 -2.4596  4.4917
  842MOL0     H13649   9.023   5.182  -1.636  1.1822  1.7779  1.2879
  842MOL0     H13650   9.140   5.020  -1.501 -0.3861 -4.6938  2.1577
  842MOL0     H13651   8.977   4.974  -1.482 -1.1557  0.0761  3.8296
  842MOL0     H13652   7.950   5.121  -1.383 -3.0463 -2.4696  1.2114
  842MOL0     H13653   7.776   5.133  -1.214 -0.8999 -0.9255  0.6395
  842MOL0     H13654   7.773   5.541  -0.753 -0.7968  0.3444 -1.0576
  842MOL0     H13655   7.657   5.549  -0.529  0.0514 -1.5569  2.5871
  842MOL0     H13656   7.496   4.433   0.818  1.1315  0.4341 -1.8833
  842MOL0     H13657   7.270   4.451   0.899 -0.6821  0.9498 -0.2958
  842MOL0     H13658   6.694   4.573   0.649  0.4817  0.1451 -0.8271
  842MOL0     H13659   6.553   4.689   0.780  1.2054  0.5077 -1.4134
  842MOL0     H13660   6.559   4.882   0.963  0.5528  0.6305  0.3641
  842MOL0     H13661   6.406   4.788   0.946 -1.2698 -3.9733  2.4842
  842MOL0     H13662   6.391   4.809   1.189 -1.6536  4.5120  4.9646
  842MOL0     H13663   6.343   4.952   1.106 -2.3849 -1.7236  1.0020
  842MOL0     H13664   6.576   5.053   1.135 -3.8041 -1.3180 -1.5127
  842MOL0     H13665   6.639   4.925   1.234  0.0680  0.7541  2.0397
  842MOL0     H13666   6.415   5.122   1.297  0.4940 -0.8537 -2.5305
  842MOL0     H13667   6.570   5.113   1.380 -2.1458  1.0331  2.4983
  842MOL0     H13668   6.336   4.818   1.579  2.3408  2.1542  3.0772
  842MOL0     H13669   6.776   4.609   1.142 -2.2419  0.3355  0.3392
  842MOL0     H13670   6.942   4.505   0.992 -1.1871 -1.3094  0.0038
  843MOL0     O13671   5.184   4.890   7.736  0.0474  0.3445  0.9314
  843MOL0     C13672   5.063   4.894   7.754 -0.3464 -0.2339 -0.7480
  843MOL0     O13673   4.998   4.958   7.864  0.3823  0.4509  0.1868
  843MOL0     C13674   5.056   5.027   7.966 -0.3249 -0.3254 -0.0919
  843MOL0     C13675   5.190   5.005   8.010 -0.6137 -0.1184 -0.3844
  843MOL0     C13676   5.237   5.054   8.130  0.8181  0.4499  0.5501
  843MOL0     C13677   5.154   5.151   8.195  0.0982 -0.3058 -1.5632
  843MOL0     O13678   5.172   5.216   8.316 -0.4702  0.4573 -0.3577
  843MOL0     C13679   5.210   5.133   8.428 -0.0655  0.1393 -0.0244
  843MOL0     C13680   5.077   5.092   8.492  0.2787  0.9782 -0.8819
  843MOL0     C13681   5.019   5.221   8.575  0.2970 -0.9670 -0.2620
  843MOL0     C13682   4.869   5.197   8.621 -0.1871 -0.2912 -0.3049
  843MOL0     C13683   4.819   5.327   8.684 -0.1940  0.9232  0.4184
  843MOL0     C13684   4.669   5.303   8.729  0.7507 -0.4037 -0.3262
  843MOL0     C13685   4.596   5.437   8.760 -0.0480  0.9291  0.6752
  843MOL0     C13686   4.627   5.474   8.906  0.0929  0.0548  1.1184
  843MOL0     N13687   4.516   5.552   8.966 -0.7190  0.6263  0.2013
  843MOL0     C13688   4.462   5.666   8.923 -0.2350 -0.3100 -0.2217
  843MOL0     C13689   4.347   5.685   8.985  0.7868  0.3832 -0.7995
  843MOL0     C13690   4.241   5.790   8.968  0.3728  1.4858 -0.4167
  843MOL0     C13691   4.218   5.825   8.816  0.2627 -0.4111  0.7910
  843MOL0     C13692   4.080   5.886   8.786  0.6499  0.5089 -0.5439
  843MOL0     C13693   4.081   5.928   8.641  1.9769 -0.2323  0.6682
  843MOL0     O13694   4.169   6.031   8.611 -0.2251  0.0889 -0.5096
  843MOL0     C13695   4.193   6.055   8.481 -0.1552 -0.4428 -0.6562
  843MOL0     C13696   4.142   6.001   8.372  0.9178 -0.8831  0.4584
  843MOL0     C13697   4.160   6.063   8.244  0.5223  0.0282  0.6476
  843MOL0     C13698   4.098   5.995   8.124  0.7904 -0.6634  0.3249
  843MOL0     C13699   4.240   6.178   8.230  0.0898 -0.0001 -1.0478
  843MOL0     C13700   4.296   6.235   8.099  0.2046  1.8421  0.1155
  843MOL0     O13701   4.236   6.187   7.978  0.3376 -0.4922  0.1561
  843MOL0     C13702   4.277   6.238   7.858  1.0233 -0.2803  0.4230
  843MOL0     C13703   4.413   6.259   7.825  0.0301 -0.2890 -0.1951
  843MOL0     C13704   4.440   6.286   7.693  0.8547 -0.1781 -0.4785
  843MOL0     C13705   4.343   6.301   7.595 -0.1296 -0.9238  1.1036
  843MOL0     O13706   4.368   6.324   7.459  0.4573  0.6572 -0.2336
  843MOL0     C13707   4.454   6.225   7.406  0.0607 -1.1374  0.3239
  843MOL0     C13708   4.440   6.222   7.248 -0.1050 -0.2515  0.0185
  843MOL0     C13709   4.463   6.360   7.170  0.9338 -0.4332 -0.3306
  843MOL0     C13710   4.601   6.429   7.177  0.5554  0.4311 -1.3943
  843MOL0     C13711   4.605   6.570   7.143 -0.0308  0.2959 -0.1281
  843MOL0     C13712   4.579   6.587   6.993 -0.4437  0.2855  0.2792
  843MOL0     C13713   4.603   6.732   6.953 -0.7605 -0.2772 -0.0757
  843MOL0     C13714   4.630   6.729   6.802 -0.7323 -0.9173  0.1852
  843MOL0    Cl13715   4.626   6.882   6.721 -0.5582 -0.0422  0.4704
  843MOL0     C13716   4.212   6.280   7.627 -0.5568 -0.1266 -0.0705
  843MOL0     C13717   4.178   6.250   7.756  0.0660 -0.6607 -0.2962
  843MOL0     O13718   4.387   6.316   8.106 -0.9587  0.9777  0.7677
  843MOL0     C13719   4.295   6.226   8.341 -0.5987 -0.5078 -0.2783
  843MOL0     C13720   4.268   6.173   8.467 -0.0615 -0.4047 -0.5022
  843MOL0     N13721   4.334   5.585   9.079  0.0332 -0.1792 -0.9256
  843MOL0     N13722   4.439   5.509   9.070  0.0120 -0.0668  0.1612
  843MOL0     C13723   5.031   5.188   8.146  0.9988 -0.4529 -0.1043
  843MOL0     C13724   4.975   5.118   8.039 -0.9150  0.4889  0.2640
  843MOL0     C13725   4.968   4.839   7.655  0.1689 -0.7512  0.1682
  843MOL0     C13726   5.001   4.747   7.554  0.5368  1.4114 -0.4099
  843MOL0     C13727   4.906   4.709   7.459 -0.1371 -0.2173 -0.1924
  843MOL0     C13728   4.772   4.749   7.466 -0.1323 -0.5468 -1.2401
  843MOL0     O13729   4.671   4.731   7.384 -0.7026 -0.0631 -0.2428
  843MOL0     C13730   4.688   4.641   7.274 -0.6732  0.5391  0.3561
  843MOL0     C13731   4.547   4.605   7.238 -0.7183 -0.5050 -0.8231
  843MOL0     C13732   4.539   4.486   7.134 -0.1553 -0.1966 -0.0079
  843MOL0     C13733   4.516   4.506   6.984  0.2608 -0.5049 -0.0936
  843MOL0     C13734   4.408   4.606   6.962  0.2965 -0.0962  0.4626
  843MOL0     C13735   4.315   4.687   6.932 -0.4650 -0.5256  0.3499
  843MOL0     C13736   4.739   4.827   7.578  0.6500 -0.2344  0.3689
  843MOL0     C13737   4.834   4.888   7.670 -0.2903 -0.0878  0.6929
  843MOL0     H13738   5.262   4.946   7.953 -1.4923 -0.1844 -1.4604
  843MOL0     H13739   5.335   5.026   8.166  1.7603 -0.5134 -2.4646
  843MOL0     H13740   5.261   5.042   8.393 -0.5491  0.1537 -0.7748
  843MOL0     H13741   5.270   5.188   8.501  1.1843 -0.9504 -0.1882
  843MOL0     H13742   5.005   5.046   8.423 -0.9717  3.6981 -1.5008
  843MOL0     H13743   5.099   5.029   8.579 -0.5576 -0.8794 -1.9369
  843MOL0     H13744   5.083   5.246   8.660 -1.3594 -1.9517  1.3520
  843MOL0     H13745   5.010   5.306   8.506 -1.5370  0.3746  1.5280
  843MOL0     H13746   4.812   5.159   8.536 -1.4027  1.0344 -0.1012
  843MOL0     H13747   4.875   5.120   8.699 -0.0923  1.6653  1.7182
  843MOL0     H13748   4.870   5.369   8.772  0.3012 -0.4526  0.8224
  843MOL0     H13749   4.812   5.400   8.603  0.7477 -0.2396 -0.7531
  843MOL0     H13750   4.608   5.248   8.656 -3.4178  2.5959  0.5120
  843MOL0     H13751   4.672   5.233   8.813 -0.2403 -1.6667 -1.2894
  843MOL0     H13752   4.625   5.510   8.685 -2.9546 -0.7731 -2.3825
  843MOL0     H13753   4.492   5.408   8.743  0.8638 -2.5964  0.2585
  843MOL0     H13754   4.724   5.525   8.904  0.5788 -0.8473 -0.7810
  843MOL0     H13755   4.634   5.377   8.957  1.7843 -0.7068 -0.4669
  843MOL0     H13756   4.512   5.739   8.860  0.7370  0.6883  1.6233
  843MOL0     H13757   4.147   5.749   9.004  0.4213  1.4187 -0.3668
  843MOL0     H13758   4.265   5.876   9.031  0.6798  1.4249 -0.4490
  843MOL0     H13759   4.219   5.736   8.754  0.6684 -1.7416  2.6234
  843MOL0     H13760   4.306   5.885   8.791 -0.0993 -0.5154 -0.8416
  843MOL0     H13761   4.063   5.979   8.840  0.1881  0.4527 -0.5918
  843MOL0     H13762   3.998   5.815   8.802 -0.3636  1.6846 -0.4229
  843MOL0     H13763   3.977   5.949   8.614  1.8206 -1.4270  0.2845
  843MOL0     H13764   4.118   5.843   8.583  3.4282 -0.3365  1.6903
  843MOL0     H13765   4.069   5.922   8.389 -0.3011  0.0582 -0.2162
  843MOL0     H13766   4.164   5.959   8.044 -0.7798 -3.8176  0.2941
  843MOL0     H13767   4.035   5.916   8.165 -2.8681  1.4342 -0.7228
  843MOL0     H13768   4.017   6.056   8.082  0.6138 -1.5330 -0.6285
  843MOL0     H13769   4.499   6.240   7.888 -0.4033 -0.9199  0.2189
  843MOL0     H13770   4.542   6.311   7.667 -0.0516  2.6631 -1.7099
  843MOL0     H13771   4.556   6.252   7.433  0.7722 -3.2007 -0.0573
  843MOL0     H13772   4.441   6.121   7.437  0.5308 -1.8500 -1.6762
  843MOL0     H13773   4.513   6.151   7.209  1.3870  0.1741  1.8832
  843MOL0     H13774   4.337   6.195   7.224 -0.0460  0.9296 -1.8050
  843MOL0     H13775   4.388   6.421   7.221  1.1949 -0.5996  0.2623
  843MOL0     H13776   4.438   6.342   7.065  2.5856 -0.7513 -0.6868
  843MOL0     H13777   4.623   6.420   7.284  1.5995 -3.8050 -1.7851
  843MOL0     H13778   4.690   6.382   7.135  2.4091  0.3131  2.2810
  843MOL0     H13779   4.704   6.610   7.165  0.5090 -1.1384  0.1515
  843MOL0     H13780   4.533   6.637   7.192 -0.6915 -0.4507 -0.0527
  843MOL0     H13781   4.642   6.520   6.934  0.8104  0.7389  1.0778
  843MOL0     H13782   4.476   6.559   6.966 -0.8859  1.9691  0.1060
  843MOL0     H13783   4.681   6.769   7.019  2.2952 -0.8329 -3.0918
  843MOL0     H13784   4.515   6.794   6.974 -0.9210 -0.7037  0.5036
  843MOL0     H13785   4.553   6.666   6.757 -0.5009  0.4340 -2.2291
  843MOL0     H13786   4.720   6.671   6.785 -0.1099 -0.4118  1.5530
  843MOL0     H13787   4.142   6.283   7.543  0.5599  1.4799 -1.0058
  843MOL0     H13788   4.075   6.224   7.777 -0.1794  0.2335 -0.3603
  843MOL0     H13789   4.362   6.311   8.331 -0.8702 -0.4281 -1.5416
  843MOL0     H13790   4.300   6.217   8.561  3.2022 -3.4286 -0.0187
  843MOL0     H13791   4.966   5.265   8.186 -1.7324  0.1180 -4.8490
  843MOL0     H13792   4.878   5.156   8.009 -0.5906  1.7691  0.8127
  843MOL0     H13793   5.104   4.714   7.541 -0.1548 -0.7491 -0.6793
  843MOL0     H13794   4.936   4.656   7.369 -1.6164 -1.1726 -0.1696
  843MOL0     H13795   4.747   4.677   7.189  0.3041 -0.1580  0.7104
  843MOL0     H13796   4.744   4.552   7.305 -1.3008  0.6342  1.8355
  843MOL0     H13797   4.500   4.694   7.195  0.3725  0.2024 -0.6028
  843MOL0     H13798   4.498   4.577   7.331  2.6922 -0.5468  1.1288
  843MOL0     H13799   4.463   4.415   7.166 -1.0821  0.7697  0.0006
  843MOL0     H13800   4.631   4.428   7.139 -0.2299 -0.3621 -0.4992
  843MOL0     H13801   4.483   4.419   6.925 -2.0429  0.7419 -0.7563
  843MOL0     H13802   4.605   4.540   6.932  1.5750 -0.5959  1.9712
  843MOL0     H13803   4.239   4.761   6.919  0.9566  0.5500 -2.5894
  843MOL0     H13804   4.640   4.870   7.584  1.3885  1.5867  0.2561
  843MOL0     H13805   4.805   4.980   7.719  0.8395  1.2497 -1.0318
  844MOL0     O13806  11.451   1.480   7.290 -0.6966 -0.2972 -0.3099
  844MOL0     C13807  11.482   1.367   7.318  0.1483 -0.4300  0.1175
  844MOL0     O13808  11.395   1.265   7.341  0.6928 -0.0132 -0.2611
  844MOL0     C13809  11.263   1.306   7.324  0.3537  0.3427  0.3891
  844MOL0     C13810  11.205   1.278   7.201 -1.1133  0.3394  0.4807
  844MOL0     C13811  11.071   1.306   7.181 -0.5542 -0.2684  0.4306
  844MOL0     C13812  11.000   1.372   7.282  0.1999  1.2054 -0.1634
  844MOL0     O13813  10.871   1.413   7.244  0.6400 -0.2447 -0.1146
  844MOL0     C13814  10.781   1.313   7.182  0.2806  0.0598 -0.7630
  844MOL0     C13815  10.636   1.363   7.196 -0.6115 -0.3428 -0.9333
  844MOL0     C13816  10.528   1.273   7.138  0.4817  0.4881 -0.9671
  844MOL0     C13817  10.556   1.223   6.990  0.1869 -0.5442  0.6412
  844MOL0     C13818  10.437   1.140   6.943 -0.4548  0.3723  0.2665
  844MOL0     C13819  10.296   1.206   6.944 -1.2590  0.0811 -1.1247
  844MOL0     C13820  10.287   1.338   6.881  0.5465  1.0945  0.3293
  844MOL0     C13821  10.334   1.342   6.734 -0.8377 -0.4182 -1.0852
  844MOL0     N13822  10.387   1.475   6.697 -0.6154 -1.0890  0.3350
  844MOL0     C13823  10.530   1.494   6.692 -0.1282 -0.4624 -0.3479
  844MOL0     C13824  10.554   1.623   6.666  0.4225 -0.1855  0.8045
  844MOL0     C13825  10.692   1.675   6.674 -0.7695 -0.1451 -0.4284
  844MOL0     C13826  10.716   1.753   6.798 -0.1231  0.3338 -0.2350
  844MOL0     C13827  10.730   1.658   6.922  0.3083  0.2836  0.7040
  844MOL0     C13828  10.798   1.735   7.047 -0.3076  0.4888  1.2330
  844MOL0     O13829  10.713   1.829   7.107 -0.5954 -0.5233 -0.0425
  844MOL0     C13830  10.760   1.907   7.214 -0.5580 -1.0271  0.5840
  844MOL0     C13831  10.816   1.843   7.329  0.2734  0.0060  0.1608
  844MOL0     C13832  10.870   1.916   7.433  0.3180  0.6371 -0.0958
  844MOL0     C13833  10.929   1.826   7.542 -0.5972  0.2648 -0.0790
  844MOL0     C13834  10.872   2.057   7.435 -0.6950 -0.4876 -0.5761
  844MOL0     C13835  10.919   2.137   7.550 -0.0206 -0.0742 -0.0639
  844MOL0     O13836  10.984   2.077   7.645  0.1009 -0.3295 -1.2662
  844MOL0     C13837  11.035   2.164   7.742  0.0535  0.3148  0.4342
  844MOL0     C13838  10.956   2.240   7.827 -0.1098 -0.1514  0.2308
  844MOL0     C13839  11.022   2.328   7.918  1.4604 -0.2393 -0.3337
  844MOL0     C13840  11.162   2.338   7.932  0.2152  0.1772  0.1127
  844MOL0     O13841  11.228   2.397   8.039 -0.4769  0.0635 -0.5816
  844MOL0     C13842  11.163   2.485   8.124  0.1617 -0.9581  0.3061
  844MOL0     C13843  11.148   2.622   8.071 -0.1134  0.2193  0.4861
  844MOL0     C13844  11.273   2.684   8.010 -0.7585 -0.2660 -0.8422
  844MOL0     C13845  11.394   2.688   8.097 -0.2551 -0.0384  0.1625
  844MOL0     C13846  11.370   2.767   8.231  0.0077  0.5285 -0.2296
  844MOL0     C13847  11.493   2.827   8.284 -0.3734 -1.9691  0.2973
  844MOL0     C13848  11.614   2.733   8.307  0.0647  0.3829 -0.2729
  844MOL0     C13849  11.739   2.818   8.335  0.6737  0.9507 -0.1242
  844MOL0    Cl13850  11.792   2.930   8.202  0.2461 -0.1333  0.1274
  844MOL0     C13851  11.241   2.252   7.852 -0.2371 -0.0936  0.2229
  844MOL0     C13852  11.177   2.167   7.757  0.2117 -0.2263 -0.4594
  844MOL0     O13853  10.882   2.255   7.543  0.4665  0.2660 -0.3208
  844MOL0     C13854  10.827   2.124   7.316 -0.0338  0.8559  0.8419
  844MOL0     C13855  10.773   2.049   7.212 -0.2351 -1.6644 -1.0396
  844MOL0     N13856  10.428   1.682   6.651 -0.1624  1.1121  0.4198
  844MOL0     N13857  10.336   1.591   6.669 -0.1409 -0.8682 -0.4079
  844MOL0     C13858  11.055   1.393   7.398  0.2828 -0.1023 -0.7167
  844MOL0     C13859  11.195   1.367   7.427 -0.6317  0.2297  0.0904
  844MOL0     C13860  11.620   1.346   7.335  0.5303  0.3300 -0.2031
  844MOL0     C13861  11.717   1.449   7.365 -0.0023  0.8898 -0.3065
  844MOL0     C13862  11.852   1.421   7.354 -0.8999  0.2955  1.2016
  844MOL0     C13863  11.908   1.298   7.327  0.6649  0.4638  1.1371
  844MOL0     O13864  12.044   1.286   7.324 -0.0582  0.0636 -0.1967
  844MOL0     C13865  12.118   1.162   7.328  0.1327 -0.5472  0.4946
  844MOL0     C13866  12.270   1.182   7.327  0.3244 -0.0075 -0.1993
  844MOL0     C13867  12.346   1.055   7.282  0.6283  0.1592  0.3303
  844MOL0     C13868  12.347   1.015   7.138 -0.2385  1.0138 -0.5121
  844MOL0     C13869  12.397   1.123   7.053  0.3229  1.0847  0.2068
  844MOL0     C13870  12.440   1.230   7.011 -0.2608 -0.1281 -0.3461
  844MOL0     C13871  11.812   1.193   7.303 -0.7784 -0.9151 -1.2415
  844MOL0     C13872  11.678   1.214   7.315  0.1862 -0.3274 -0.5066
  844MOL0     H13873  11.266   1.233   7.124 -1.5129  0.5633  0.0225
  844MOL0     H13874  11.026   1.281   7.085 -0.1468 -0.2581  0.2351
  844MOL0     H13875  10.805   1.306   7.076  0.1526  0.5257 -0.8294
  844MOL0     H13876  10.789   1.214   7.227  1.4189  0.6671  0.4366
  844MOL0     H13877  10.608   1.386   7.300  0.5364 -1.8026 -0.2574
  844MOL0     H13878  10.627   1.458   7.143 -0.3973  1.0520  1.3880
  844MOL0     H13879  10.518   1.186   7.204  2.2363  1.6173  0.8780
  844MOL0     H13880  10.432   1.325   7.141 -1.0278 -2.1422 -0.2749
  844MOL0     H13881  10.583   1.311   6.932  3.2190 -1.3895  0.5778
  844MOL0     H13882  10.635   1.148   6.985 -1.6213 -2.7819  2.7633
  844MOL0     H13883  10.467   1.108   6.842  0.3323 -0.8866  0.8743
  844MOL0     H13884  10.417   1.050   7.002 -3.2369  0.3735 -0.5520
  844MOL0     H13885  10.230   1.137   6.890 -2.6815  0.6121 -0.0995
  844MOL0     H13886  10.253   1.212   7.044  2.8204 -0.0429  0.8254
  844MOL0     H13887  10.184   1.375   6.884  0.8598  2.1388 -0.7278
  844MOL0     H13888  10.356   1.402   6.938  1.2044  2.6754 -2.0746
  844MOL0     H13889  10.249   1.318   6.670 -2.3587 -1.4443  1.1703
  844MOL0     H13890  10.421   1.277   6.724  1.4994  2.4480 -0.9558
  844MOL0     H13891  10.600   1.422   6.735 -0.8694  0.4322  2.5633
  844MOL0     H13892  10.775   1.604   6.668  0.2186  0.7701  1.4825
  844MOL0     H13893  10.698   1.739   6.586  0.7884 -1.2347 -1.1660
  844MOL0     H13894  10.630   1.820   6.813 -2.1010 -1.9692 -0.6063
  844MOL0     H13895  10.802   1.820   6.790 -0.3378  0.5635 -0.6697
  844MOL0     H13896  10.804   1.583   6.892  3.0296  4.0157 -3.3155
  844MOL0     H13897  10.626   1.633   6.945  0.5040 -0.2580  0.9988
  844MOL0     H13898  10.885   1.777   6.996  1.0319 -1.9567  1.3710
  844MOL0     H13899  10.832   1.660   7.119  1.4683 -0.7102 -0.7317
  844MOL0     H13900  10.825   1.735   7.334 -0.0847 -0.0032  0.7216
  844MOL0     H13901  10.891   1.872   7.634 -2.1506  2.4340 -1.7056
  844MOL0     H13902  10.906   1.719   7.549  0.8725 -0.0771 -0.2311
  844MOL0     H13903  11.038   1.824   7.530 -0.5063  0.3987  0.6781
  844MOL0     H13904  10.848   2.240   7.834 -0.3181  1.0742 -2.2121
  844MOL0     H13905  10.956   2.385   7.982  1.8674 -0.2720  0.1185
  844MOL0     H13906  11.065   2.451   8.159  0.2285 -0.0469  1.4481
  844MOL0     H13907  11.231   2.481   8.210 -0.0167 -1.0393  0.4456
  844MOL0     H13908  11.077   2.603   7.990  1.6887  1.6349 -1.5747
  844MOL0     H13909  11.103   2.678   8.153 -1.8965  0.8343 -0.8574
  844MOL0     H13910  11.243   2.784   7.976 -0.4887  0.1870  0.1990
  844MOL0     H13911  11.304   2.627   7.922  1.5609 -0.0957 -0.1894
  844MOL0     H13912  11.417   2.585   8.124 -0.3506 -0.5277 -1.5063
  844MOL0     H13913  11.479   2.727   8.040  1.3236 -2.2235  0.8702
  844MOL0     H13914  11.315   2.711   8.306 -0.5064 -0.8938 -1.6126
  844MOL0     H13915  11.310   2.857   8.214 -2.2020 -1.2918 -3.0282
  844MOL0     H13916  11.522   2.898   8.206 -3.6399 -0.5343  0.2258
  844MOL0     H13917  11.485   2.892   8.372  1.5437 -3.1774  1.4285
  844MOL0     H13918  11.626   2.660   8.226 -1.1465 -1.3232  1.0041
  844MOL0     H13919  11.600   2.665   8.392 -2.9413 -1.1311 -1.8134
  844MOL0     H13920  11.822   2.755   8.369 -0.7753  0.1082  2.0725
  844MOL0     H13921  11.718   2.883   8.420  0.4944  4.2968 -2.5185
  844MOL0     H13922  11.349   2.253   7.859 -0.1518  1.6397 -0.7469
  844MOL0     H13923  11.231   2.104   7.687  2.4821  3.5667 -2.3940
  844MOL0     H13924  10.828   2.232   7.308  1.2117  0.7702 -0.6465
  844MOL0     H13925  10.736   2.104   7.125  4.0382  2.2097 -0.7954
  844MOL0     H13926  11.003   1.446   7.477  1.7837 -1.8893  1.5818
  844MOL0     H13927  11.241   1.392   7.522 -2.2685 -0.3434  1.0699
  844MOL0     H13928  11.682   1.547   7.398 -3.0678 -0.2372  0.1292
  844MOL0     H13929  11.924   1.499   7.375 -0.7212  0.6536 -0.5818
  844MOL0     H13930  12.090   1.099   7.413 -1.3221  0.9287  1.1742
  844MOL0     H13931  12.093   1.102   7.240  3.5127  0.8566 -1.6014
  844MOL0     H13932  12.303   1.206   7.429 -1.4229  1.3595  0.0923
  844MOL0     H13933  12.306   1.265   7.265 -1.1291  1.6285  1.0308
  844MOL0     H13934  12.293   0.972   7.330 -0.6493 -0.6735 -2.3361
  844MOL0     H13935  12.453   1.061   7.303  0.7658 -0.3258 -0.1937
  844MOL0     H13936  12.252   0.965   7.116 -1.5569  1.6139  3.2250
  844MOL0     H13937  12.422   0.936   7.125 -0.4558  1.1337 -3.1915
  844MOL0     H13938  12.506   1.311   6.986  3.6183 -2.5078  1.1189
  844MOL0     H13939  11.841   1.088   7.301  0.0837 -0.7787  1.1304
  844MOL0     H13940  11.603   1.136   7.307  0.9288 -0.9298 -1.9332
  845MOL0     O13941   7.454   0.487   1.764  0.9536 -0.1504  0.0799
  845MOL0     C13942   7.468   0.599   1.706  0.0599  1.3267  0.8864
  845MOL0     O13943   7.403   0.717   1.743  0.6398 -0.3044 -0.5573
  845MOL0     C13944   7.296   0.716   1.838 -0.8192 -0.9187 -0.5893
  845MOL0     C13945   7.213   0.829   1.837 -0.4453 -0.6415  0.0832
  845MOL0     C13946   7.090   0.829   1.911 -0.1701  0.5704  1.2123
  845MOL0     C13947   7.069   0.729   2.001  0.2308 -0.3213 -0.2453
  845MOL0     O13948   6.973   0.746   2.102  0.6724 -0.4409  0.2854
  845MOL0     C13949   6.831   0.718   2.070  1.4043  0.5940 -0.4930
  845MOL0     C13950   6.762   0.692   2.211  0.0226  0.5525  0.7629
  845MOL0     C13951   6.784   0.551   2.265 -0.4340 -0.0985  0.6491
  845MOL0     C13952   6.674   0.510   2.365 -0.3692 -0.4929 -0.2466
  845MOL0     C13953   6.556   0.438   2.312  0.1754  0.4245  0.7866
  845MOL0     C13954   6.455   0.417   2.423  0.4365 -0.2943 -0.5117
  845MOL0     C13955   6.310   0.444   2.363 -0.3905 -0.0890  1.0580
  845MOL0     C13956   6.206   0.412   2.475 -0.4443 -0.0778  0.0404
  845MOL0     N13957   6.091   0.494   2.434 -0.0468 -0.6783  0.5242
  845MOL0     C13958   6.036   0.511   2.308  0.5795  0.3787  0.6572
  845MOL0     C13959   5.909   0.553   2.324 -0.5281 -1.4487  0.0498
  845MOL0     C13960   5.811   0.586   2.225  0.0906  0.5872  0.2445
  845MOL0     C13961   5.809   0.485   2.115  0.9546 -0.2863 -0.3068
  845MOL0     C13962   5.744   0.352   2.164  0.1366  0.6702  0.6090
  845MOL0     C13963   5.609   0.367   2.232 -0.1016 -0.5596 -0.1023
  845MOL0     O13964   5.508   0.447   2.157 -0.0720 -0.4891 -0.6576
  845MOL0     C13965   5.450   0.396   2.037 -0.3581  1.5063 -1.1120
  845MOL0     C13966   5.467   0.263   1.995  0.0512  0.3541 -0.0864
  845MOL0     C13967   5.413   0.217   1.870  0.7745 -0.3132 -0.5859
  845MOL0     C13968   5.454   0.084   1.828  0.5062 -0.2992  1.1451
  845MOL0     C13969   5.319   0.296   1.799  0.5825 -1.2563 -0.1167
  845MOL0     C13970   5.252   0.272   1.670  0.5505  0.4715 -0.1495
  845MOL0     O13971   5.151   0.357   1.642  0.2521 -0.2421 -0.1704
  845MOL0     C13972   5.089   0.344   1.521 -0.5585  0.7302  0.2582
  845MOL0     C13973   5.156   0.370   1.410 -0.0959  0.4665  0.0399
  845MOL0     C13974   5.108   0.325   1.284 -0.9108 -0.0600  0.2900
  845MOL0     C13975   4.985   0.268   1.266 -0.5164 -0.1931  0.3297
  845MOL0     O13976   4.951   0.263   1.138 -0.9829  0.5016 -0.0439
  845MOL0     C13977   4.817   0.268   1.106  0.0379 -0.0005 -0.3558
  845MOL0     C13978   4.815   0.279   0.957 -0.1307 -0.2768  0.2255
  845MOL0     C13979   4.911   0.372   0.888  0.2351  1.0865 -0.7136
  845MOL0     C13980   4.886   0.393   0.741 -0.7855  0.2811  0.1045
  845MOL0     C13981   5.009   0.418   0.656 -0.5565 -0.7464  1.5591
  845MOL0     C13982   5.093   0.543   0.694  0.7807 -0.0358 -0.7238
  845MOL0     C13983   5.028   0.664   0.622  0.2192  0.3423  0.0950
  845MOL0     C13984   5.113   0.788   0.629 -0.9203  0.9855  0.7628
  845MOL0    Cl13985   5.277   0.749   0.595 -0.2217  0.2286 -0.1626
  845MOL0     C13986   4.902   0.259   1.382 -1.3517 -2.1384  0.9072
  845MOL0     C13987   4.959   0.304   1.504 -0.2653  0.2743  0.5020
  845MOL0     O13988   5.288   0.176   1.600  0.4390 -0.2665 -0.0030
  845MOL0     C13989   5.288   0.418   1.859  0.8163  0.6859 -0.4002
  845MOL0     C13990   5.359   0.468   1.970  0.9032 -0.6266  0.3965
  845MOL0     N13991   5.890   0.577   2.460 -0.6313  0.0814 -0.3559
  845MOL0     N13992   5.998   0.541   2.513  0.3901 -0.2781 -0.2939
  845MOL0     C13993   7.140   0.620   2.001 -0.0591 -0.7747  0.9240
  845MOL0     C13994   7.251   0.607   1.920  0.5773  0.0363  0.1471
  845MOL0     C13995   7.571   0.608   1.611  0.2585 -0.0268  0.9449
  845MOL0     C13996   7.660   0.718   1.619 -0.4183  0.1633 -0.3099
  845MOL0     C13997   7.747   0.741   1.518 -0.0399 -0.3449  1.0732
  845MOL0     C13998   7.762   0.654   1.412  0.1560  0.3442 -0.1020
  845MOL0     O13999   7.848   0.681   1.314  0.5556 -0.6510  0.2308
  845MOL0     C14000   7.916   0.582   1.240 -0.4916 -0.1934 -0.2265
  845MOL0     C14001   8.027   0.640   1.142 -0.1148  0.8960 -0.6357
  845MOL0     C14002   8.129   0.719   1.216 -0.1675  0.3090 -0.0588
  845MOL0     C14003   8.246   0.746   1.121  0.5573 -0.5533  0.2445
  845MOL0     C14004   8.216   0.826   0.995  0.1138  0.7130 -0.2232
  845MOL0     C14005   8.216   0.891   0.900 -0.3927  0.3190  0.6967
  845MOL0     C14006   7.677   0.546   1.406 -0.4672 -0.2308 -0.5788
  845MOL0     C14007   7.572   0.525   1.497  0.0848 -0.6497 -0.0204
  845MOL0     H14008   7.245   0.913   1.777  2.0544  2.3591  4.9199
  845MOL0     H14009   7.029   0.917   1.923 -1.5650 -0.4267  1.6839
  845MOL0     H14010   6.779   0.800   2.019  2.0577  0.1109 -2.0124
  845MOL0     H14011   6.823   0.629   2.007  1.1830  1.8930 -2.4087
  845MOL0     H14012   6.802   0.762   2.285  1.5224 -0.4125  0.9142
  845MOL0     H14013   6.655   0.713   2.213 -0.0693  0.5765 -1.4580
  845MOL0     H14014   6.780   0.479   2.182 -0.1668 -2.5616  2.6406
  845MOL0     H14015   6.885   0.548   2.307 -0.3513 -1.2624  0.4117
  845MOL0     H14016   6.723   0.435   2.428 -2.8249 -2.9097 -1.0106
  845MOL0     H14017   6.649   0.592   2.433  0.9269 -0.4142  0.1622
  845MOL0     H14018   6.520   0.494   2.224 -1.1394 -2.7242 -0.8592
  845MOL0     H14019   6.585   0.341   2.270 -2.9568 -0.4431  0.3257
  845MOL0     H14020   6.457   0.313   2.455  0.7588  0.5109  2.3938
  845MOL0     H14021   6.477   0.480   2.510 -2.3869 -2.4778  1.9930
  845MOL0     H14022   6.312   0.549   2.334 -0.0524  0.5791  3.3019
  845MOL0     H14023   6.281   0.383   2.277  0.8288 -0.9508  1.2381
  845MOL0     H14024   6.248   0.439   2.572  0.8152  0.8860 -0.7260
  845MOL0     H14025   6.176   0.308   2.488 -1.3862  0.5522  4.0802
  845MOL0     H14026   6.084   0.495   2.211  1.5628  2.2535  0.7757
  845MOL0     H14027   5.719   0.604   2.280  1.5502  2.4134  2.2837
  845MOL0     H14028   5.831   0.687   2.187 -1.0656  1.6190  2.2269
  845MOL0     H14029   5.909   0.477   2.071  0.8574  1.2721 -0.8649
  845MOL0     H14030   5.740   0.529   2.044  0.9896 -1.4558 -1.0871
  845MOL0     H14031   5.819   0.295   2.220 -0.9782 -3.3200 -1.5399
  845MOL0     H14032   5.726   0.287   2.078  0.8981  1.4791 -0.1706
  845MOL0     H14033   5.628   0.418   2.327 -0.1201  0.9969 -0.9082
  845MOL0     H14034   5.551   0.278   2.255 -0.3178 -0.6203 -0.8411
  845MOL0     H14035   5.527   0.194   2.054  1.7844 -0.6836 -2.8845
  845MOL0     H14036   5.530   0.054   1.900  1.1787  1.1906  1.0975
  845MOL0     H14037   5.365   0.020   1.826 -0.1635  0.6251 -1.1381
  845MOL0     H14038   5.496   0.098   1.729 -3.2137  0.7289 -0.4801
  845MOL0     H14039   5.253   0.417   1.420 -0.0666  0.2598  0.7634
  845MOL0     H14040   5.174   0.344   1.200 -0.8062 -0.7733  0.1984
  845MOL0     H14041   4.766   0.175   1.132 -0.2078  1.2510  4.5258
  845MOL0     H14042   4.780   0.358   1.156 -0.5738 -0.3109 -0.2447
  845MOL0     H14043   4.848   0.179   0.925 -0.8174 -0.8450  1.2319
  845MOL0     H14044   4.714   0.304   0.924  0.7023 -0.0678 -2.3587
  845MOL0     H14045   5.016   0.346   0.907 -0.5105 -0.0286  2.3738
  845MOL0     H14046   4.888   0.465   0.941 -0.7052 -0.4830  1.7912
  845MOL0     H14047   4.840   0.301   0.704 -1.6063  0.5407  0.4503
  845MOL0     H14048   4.808   0.468   0.729 -0.1202  0.8953 -0.4783
  845MOL0     H14049   4.980   0.420   0.550  3.7210 -1.9535  0.1860
  845MOL0     H14050   5.077   0.333   0.653  3.3480  2.1058 -0.5656
  845MOL0     H14051   5.106   0.552   0.802  2.3308 -0.3220 -0.8678
  845MOL0     H14052   5.189   0.504   0.660  0.7499 -5.0229  3.5801
  845MOL0     H14053   4.933   0.674   0.674  0.5627  2.1447  0.4372
  845MOL0     H14054   4.995   0.642   0.519  2.6946 -0.3881 -0.6286
  845MOL0     H14055   5.106   0.832   0.729  4.4768  2.0199  0.9927
  845MOL0     H14056   5.064   0.852   0.555 -0.1088 -1.1238 -1.7514
  845MOL0     H14057   4.798   0.230   1.392 -3.2309  3.1484  0.0708
  845MOL0     H14058   4.912   0.286   1.599 -2.9127 -2.8778 -1.1797
  845MOL0     H14059   5.229   0.492   1.805 -0.0234 -0.1788 -0.6844
  845MOL0     H14060   5.358   0.567   2.013  1.9135 -1.0055  1.3267
  845MOL0     H14061   7.125   0.544   2.077  0.4663  0.0716  1.9030
  845MOL0     H14062   7.310   0.517   1.936  0.8374 -0.1575 -1.7036
  845MOL0     H14063   7.649   0.786   1.702 -0.7409 -0.6540  0.3273
  845MOL0     H14064   7.799   0.836   1.514 -0.4013 -0.1655  0.5186
  845MOL0     H14065   7.947   0.497   1.302  4.0455  1.2452 -0.1979
  845MOL0     H14066   7.841   0.541   1.171 -0.9774 -0.9430  0.7099
  845MOL0     H14067   7.964   0.699   1.075 -0.8628  2.2694  1.1916
  845MOL0     H14068   8.062   0.558   1.079  0.3840  0.1110  0.6333
  845MOL0     H14069   8.150   0.657   1.304 -2.0048  3.6713  3.0374
  845MOL0     H14070   8.070   0.807   1.241  0.5150  0.3896  1.3756
  845MOL0     H14071   8.281   0.645   1.101  0.3319 -1.0156  2.0534
  845MOL0     H14072   8.319   0.805   1.177  0.6475  0.0690 -0.5052
  845MOL0     H14073   8.219   0.950   0.811  3.5736 -2.4030 -1.2142
  845MOL0     H14074   7.681   0.473   1.326 -1.3523 -3.0983  1.8213
  845MOL0     H14075   7.499   0.448   1.474  0.1626 -0.8142  0.2752
  846MOL0     O14076   4.005   1.014   1.186  0.2626 -0.3908 -0.4572
  846MOL0     C14077   4.044   0.897   1.186  0.1425 -0.0026 -0.0265
  846MOL0     O14078   4.116   0.838   1.084 -0.1945 -0.2650  0.2012
  846MOL0     C14079   4.092   0.857   0.948  0.0478 -0.3514  0.0959
  846MOL0     C14080   3.981   0.935   0.907 -0.4389  0.5404  0.1161
  846MOL0     C14081   3.968   0.959   0.771  1.4197  0.7432 -0.2917
  846MOL0     C14082   4.050   0.899   0.680  0.5927  0.0827 -0.2010
  846MOL0     O14083   4.018   0.886   0.549 -0.1878  0.4791 -0.6941
  846MOL0     C14084   3.885   0.926   0.494  0.7219  0.2350 -1.0277
  846MOL0     C14085   3.847   0.840   0.377 -1.1331 -0.0957  0.8861
  846MOL0     C14086   3.845   0.689   0.421  0.4455 -0.9233 -0.4927
  846MOL0     C14087   3.856   0.580   0.311  0.2223  0.2753 -0.1309
  846MOL0     C14088   3.822   0.431   0.354 -0.0581 -1.2318  0.4356
  846MOL0     C14089   3.910   0.369   0.459  0.1797  0.8775  0.2532
  846MOL0     C14090   4.058   0.354   0.415 -1.1485  0.4522  0.1162
  846MOL0     C14091   4.156   0.443   0.490  0.0793  0.1401  1.0264
  846MOL0     N14092   4.296   0.385   0.479 -0.1508  0.4843  1.2270
  846MOL0     C14093   4.357   0.350   0.358  0.8055 -0.0161 -0.0450
  846MOL0     C14094   4.472   0.282   0.389  0.3812 -0.4770  0.7679
  846MOL0     C14095   4.559   0.219   0.292 -0.6596  0.0151 -0.2119
  846MOL0     C14096   4.668   0.139   0.365 -0.0258 -0.0987 -0.9007
  846MOL0     C14097   4.780   0.091   0.274  0.4068  0.0711 -0.1007
  846MOL0     C14098   4.876   0.194   0.220 -0.5780  0.5087  0.0427
  846MOL0     O14099   4.888   0.303   0.313 -0.9180  0.0509  0.1864
  846MOL0     C14100   4.978   0.399   0.283 -0.5075  0.6836  0.3951
  846MOL0     C14101   5.115   0.387   0.309 -0.7098 -0.1015  0.4107
  846MOL0     C14102   5.209   0.496   0.289  1.3758  0.5655  0.9538
  846MOL0     C14103   5.354   0.462   0.316 -0.6707 -0.0905  0.6794
  846MOL0     C14104   5.156   0.618   0.236  0.4101  0.4538 -0.0559
  846MOL0     C14105   5.238   0.748   0.234 -0.0701  0.1983  0.0416
  846MOL0     O14106   5.188   0.849   0.149 -0.9299  0.2750 -0.6169
  846MOL0     C14107   5.227   0.980   0.171  0.4111  0.0767 -0.1168
  846MOL0     C14108   5.256   1.019   0.307 -0.1782 -0.6111  0.6583
  846MOL0     C14109   5.308   1.148   0.328 -0.5418  0.8315 -0.3859
  846MOL0     C14110   5.347   1.223   0.219 -0.0786 -0.1125  0.5348
  846MOL0     O14111   5.397   1.353   0.234 -0.3147 -0.0382 -0.3549
  846MOL0     C14112   5.308   1.461   0.217  0.9283  0.2453  1.0602
  846MOL0     C14113   5.368   1.596   0.221  0.1971 -0.3743 -0.7726
  846MOL0     C14114   5.470   1.629   0.103 -0.5564 -0.3013 -1.2614
  846MOL0     C14115   5.536   1.766   0.120  0.0956  0.2603 -0.6978
  846MOL0     C14116   5.607   1.804  -0.012 -0.4851 -0.3369 -0.7868
  846MOL0     C14117   5.662   1.943  -0.018  0.2339 -0.0832  0.2000
  846MOL0     C14118   5.748   1.963  -0.135  0.0472 -0.5310 -1.0746
  846MOL0     C14119   5.851   2.072  -0.091  0.1007 -0.3516 -0.6406
  846MOL0    Cl14120   5.970   1.992   0.010  0.1946  0.2552  0.4306
  846MOL0     C14121   5.333   1.181   0.084 -0.1280  0.2851  0.2439
  846MOL0     C14122   5.267   1.055   0.060  0.5540 -0.2400 -0.5960
  846MOL0     O14123   5.346   0.756   0.296  0.0843 -0.4176 -0.4879
  846MOL0     C14124   5.005   0.628   0.225 -0.6091  0.6060 -0.3383
  846MOL0     C14125   4.920   0.517   0.246 -0.6774  0.5508  0.8225
  846MOL0     N14126   4.482   0.290   0.528  0.4895  0.9386 -0.5722
  846MOL0     N14127   4.377   0.334   0.576  0.5338 -0.0264  0.2561
  846MOL0     C14128   4.161   0.816   0.717 -0.9528 -0.1421  0.3300
  846MOL0     C14129   4.175   0.797   0.856 -0.5734  0.3418  0.0173
  846MOL0     C14130   4.024   0.820   1.314 -0.7858  0.3891 -0.2333
  846MOL0     C14131   3.922   0.837   1.401 -0.6623 -0.0200  1.0846
  846MOL0     C14132   3.898   0.759   1.509 -0.0812  0.1027  0.0933
  846MOL0     C14133   3.990   0.655   1.532 -0.5086 -0.4174  0.7960
  846MOL0     O14134   3.967   0.590   1.646  0.7495  0.3525  0.2146
  846MOL0     C14135   4.037   0.473   1.690 -0.3018  0.6791 -0.5538
  846MOL0     C14136   4.025   0.337   1.621  0.2244 -0.7987  0.3496
  846MOL0     C14137   3.883   0.298   1.593  0.7161  0.7200  1.0231
  846MOL0     C14138   3.876   0.151   1.580 -0.7445  0.8779  0.5347
  846MOL0     C14139   3.856   0.084   1.711  0.4643 -0.3437 -0.7084
  846MOL0     C14140   3.823   0.026   1.805  0.4694  0.4588 -0.0159
  846MOL0     C14141   4.095   0.631   1.450  0.9720  0.7785  0.8567
  846MOL0     C14142   4.107   0.719   1.344 -0.3655  1.0203  0.2850
  846MOL0     H14143   3.909   0.972   0.979 -2.8072  1.3540 -2.4976
  846MOL0     H14144   3.872   1.007   0.755  0.7461 -0.1335  0.9510
  846MOL0     H14145   3.803   0.913   0.564  2.3469  1.0719  1.1413
  846MOL0     H14146   3.874   1.023   0.444 -2.5610  1.0840  1.0522
  846MOL0     H14147   3.751   0.869   0.336 -1.1376 -0.7251  0.4426
  846MOL0     H14148   3.924   0.858   0.301  2.1438 -1.2124  3.6755
  846MOL0     H14149   3.930   0.675   0.488  2.2373  1.7841 -2.0060
  846MOL0     H14150   3.751   0.658   0.468 -3.4622  2.5287 -4.9149
  846MOL0     H14151   3.779   0.609   0.239 -1.7246  1.4931  2.3006
  846MOL0     H14152   3.949   0.587   0.254 -0.4506  0.7335 -1.2083
  846MOL0     H14153   3.725   0.440   0.404  0.3690 -1.2660  1.3068
  846MOL0     H14154   3.820   0.374   0.261 -0.9195  0.9291 -0.9191
  846MOL0     H14155   3.895   0.418   0.556  1.8091  0.9041  0.5238
  846MOL0     H14156   3.874   0.267   0.475  1.4497  0.5424  1.1861
  846MOL0     H14157   4.091   0.252   0.435  0.4736  0.2877 -2.8494
  846MOL0     H14158   4.063   0.377   0.308 -3.4661 -1.4513 -0.4864
  846MOL0     H14159   4.139   0.446   0.598  2.0225  0.4703  1.3578
  846MOL0     H14160   4.139   0.543   0.449  0.3592  0.1560  0.9513
  846MOL0     H14161   4.337   0.365   0.252 -0.1055 -0.7209  0.0194
  846MOL0     H14162   4.497   0.142   0.245 -0.0602 -1.5878  1.4867
  846MOL0     H14163   4.610   0.290   0.226  3.6867 -0.4381  2.2672
  846MOL0     H14164   4.625   0.041   0.390 -0.6431 -0.8028 -4.1717
  846MOL0     H14165   4.704   0.195   0.451 -0.3748  3.4389 -2.8883
  846MOL0     H14166   4.734   0.031   0.195 -0.2844 -0.4939  0.7100
  846MOL0     H14167   4.851   0.035   0.336 -0.4783 -0.6722  0.2719
  846MOL0     H14168   4.847   0.230   0.121 -2.2641  1.3770  0.8262
  846MOL0     H14169   4.970   0.140   0.205 -0.4256  1.0103 -0.9223
  846MOL0     H14170   5.151   0.297   0.357 -3.9096 -1.2463  0.8859
  846MOL0     H14171   5.396   0.527   0.393 -1.3816 -1.7934  2.6008
  846MOL0     H14172   5.363   0.366   0.367 -0.5787 -0.0994  0.6476
  846MOL0     H14173   5.429   0.458   0.236 -1.2068 -1.6665  0.2266
  846MOL0     H14174   5.251   0.960   0.398 -1.9384  2.2254  2.5578
  846MOL0     H14175   5.338   1.196   0.421 -0.5947 -3.4912  2.1798
  846MOL0     H14176   5.260   1.451   0.119  1.3961  1.4432  0.6883
  846MOL0     H14177   5.238   1.460   0.301  0.0743  3.3356  0.5116
  846MOL0     H14178   5.297   1.679   0.233  0.8579 -0.0049  0.7778
  846MOL0     H14179   5.421   1.587   0.316 -2.5493 -3.4407  0.6884
  846MOL0     H14180   5.409   1.627   0.012 -2.1928  3.8413 -0.4559
  846MOL0     H14181   5.540   1.545   0.092  0.6808  0.6657 -1.0205
  846MOL0     H14182   5.457   1.838   0.145  0.0232  0.4628 -1.4883
  846MOL0     H14183   5.611   1.761   0.199 -2.1588  0.5735  1.6070
  846MOL0     H14184   5.537   1.810  -0.096  0.8881  4.5776 -1.9243
  846MOL0     H14185   5.678   1.723  -0.030  0.9100  0.2277  1.6903
  846MOL0     H14186   5.580   2.016  -0.019  2.7955  2.9910 -0.9279
  846MOL0     H14187   5.717   1.964   0.074 -1.1589  0.0803  1.0188
  846MOL0     H14188   5.688   2.002  -0.218  0.7570  0.9307 -0.9298
  846MOL0     H14189   5.803   1.873  -0.162  1.0056  0.5193 -2.7586
  846MOL0     H14190   5.805   2.158  -0.043 -0.0617 -0.1658 -1.1189
  846MOL0     H14191   5.912   2.104  -0.176 -0.5267 -3.4341 -2.4342
  846MOL0     H14192   5.358   1.237  -0.006  1.0598 -2.3493 -1.2069
  846MOL0     H14193   5.259   1.026  -0.044  1.9031  1.1948 -1.1472
  846MOL0     H14194   4.973   0.727   0.193 -1.1006  0.5665  0.0173
  846MOL0     H14195   4.816   0.543   0.228 -0.3499  2.4614  1.4519
  846MOL0     H14196   4.228   0.775   0.642  0.1330  0.5907  0.8732
  846MOL0     H14197   4.261   0.747   0.898  0.5814  2.4360  0.3164
  846MOL0     H14198   3.864   0.926   1.378 -0.3884 -0.6841 -2.9964
  846MOL0     H14199   3.811   0.796   1.562 -0.0906  1.7879 -0.9970
  846MOL0     H14200   4.143   0.501   1.690 -0.7919  3.1665 -3.8938
  846MOL0     H14201   4.001   0.450   1.791 -0.4747 -0.5927 -0.8953
  846MOL0     H14202   4.077   0.260   1.679 -0.3248 -1.1449  0.3809
  846MOL0     H14203   4.080   0.332   1.526  0.9449 -0.8232  0.7575
  846MOL0     H14204   3.842   0.348   1.504 -1.8470 -1.6959  0.7007
  846MOL0     H14205   3.816   0.321   1.677  1.6140 -0.2522  2.0288
  846MOL0     H14206   3.970   0.108   1.544 -1.4116  1.6381 -2.4647
  846MOL0     H14207   3.807   0.125   1.498  1.8545  1.4203 -1.9795
  846MOL0     H14208   3.804  -0.052   1.876  1.6344 -1.7682 -2.0454
  846MOL0     H14209   4.165   0.548   1.455  0.4489  0.0540 -2.1798
  846MOL0     H14210   4.187   0.689   1.277 -0.1642 -0.2349  1.0425
  847MOL0     O14211   8.737   1.661   9.875  0.7090 -0.3617 -0.0643
  847MOL0     C14212   8.780   1.645   9.758 -0.5377 -0.9441 -0.2728
  847MOL0     O14213   8.734   1.555   9.677 -0.6119 -0.2703 -0.2369
  847MOL0     C14214   8.678   1.443   9.738  0.9997 -1.0604 -0.1369
  847MOL0     C14215   8.767   1.338   9.762 -1.0459  0.3311  0.2195
  847MOL0     C14216   8.712   1.218   9.824 -0.8161  0.5088 -0.0720
  847MOL0     C14217   8.576   1.207   9.848  0.0281 -0.0614  0.1693
  847MOL0     O14218   8.528   1.088   9.897  0.1910  1.2817  0.1803
  847MOL0     C14219   8.456   1.092  10.024  0.0570  0.0243 -0.3390
  847MOL0     C14220   8.326   1.015  10.016  0.0914 -0.2735  1.2479
  847MOL0     C14221   8.212   1.099   9.985 -0.0682 -0.5881 -0.0472
  847MOL0     C14222   8.083   1.020   9.960 -0.5772 -0.0657  0.0126
  847MOL0     C14223   8.040   0.994   9.820  0.0320  0.7789  1.2248
  847MOL0     C14224   8.035   1.126   9.742 -0.5650 -0.3686  0.6357
  847MOL0     C14225   7.926   1.132   9.636  0.1864  0.7948 -0.2413
  847MOL0     C14226   7.955   1.050   9.512 -0.3252  0.6960  0.0601
  847MOL0     N14227   8.088   1.059   9.460  0.5001 -0.2207 -0.1263
  847MOL0     C14228   8.153   1.179   9.439 -1.0303 -0.3874  0.0928
  847MOL0     C14229   8.277   1.140   9.395  0.1742 -0.0579  0.3090
  847MOL0     C14230   8.387   1.232   9.341  0.7493  0.0163 -0.6239
  847MOL0     C14231   8.493   1.266   9.455 -0.3553 -0.1623  0.4698
  847MOL0     C14232   8.613   1.345   9.398  0.0028 -0.2564  0.1980
  847MOL0     C14233   8.697   1.276   9.287 -0.5844 -0.4243  0.0942
  847MOL0     O14234   8.845   1.300   9.283  0.1604  0.5925  0.0942
  847MOL0     C14235   8.932   1.231   9.361 -0.1004  0.2788  0.3769
  847MOL0     C14236   8.904   1.131   9.455  0.1262 -1.0945 -1.3275
  847MOL0     C14237   8.992   1.079   9.538  0.5290 -0.1489  0.2801
  847MOL0     C14238   8.954   0.975   9.638  0.7047 -0.3802 -1.3849
  847MOL0     C14239   9.122   1.128   9.540 -0.7806 -1.1972  0.7464
  847MOL0     C14240   9.232   1.091   9.623 -0.2851  0.4604 -0.0058
  847MOL0     O14241   9.318   1.191   9.662  0.0085 -0.4813 -0.2121
  847MOL0     C14242   9.445   1.151   9.691 -0.1700  0.1224 -0.3570
  847MOL0     C14243   9.537   1.172   9.587 -0.1818 -0.9892 -0.7441
  847MOL0     C14244   9.668   1.124   9.596 -0.6243 -0.6232  0.5142
  847MOL0     C14245   9.702   1.060   9.718  0.1637  0.7887  0.5587
  847MOL0     O14246   9.830   1.032   9.734 -0.7931 -0.2882 -0.2817
  847MOL0     C14247   9.920   1.127   9.798 -0.3352 -0.4224  0.0201
  847MOL0     C14248   9.975   1.223   9.696  0.0831 -0.4012  0.7537
  847MOL0     C14249  10.084   1.305   9.774 -0.8809  0.2449 -0.8353
  847MOL0     C14250  10.223   1.231   9.797  0.2441 -1.3491  0.6384
  847MOL0     C14251  10.340   1.336   9.799  0.5274 -0.3394 -0.2353
  847MOL0     C14252  10.476   1.288   9.831 -0.5013  0.4205 -0.3675
  847MOL0     C14253  10.589   1.395   9.846  0.8033  0.3598  0.4628
  847MOL0     C14254  10.726   1.370   9.781 -0.3024  0.1464 -0.1797
  847MOL0    Cl14255  10.713   1.332   9.609  0.5628 -0.3114 -0.2921
  847MOL0     C14256   9.610   1.043   9.823 -0.5973 -0.6017 -0.3014
  847MOL0     C14257   9.479   1.089   9.814 -0.2269  0.1397 -0.2105
  847MOL0     O14258   9.241   0.971   9.652  0.2360  0.4814  0.0003
  847MOL0     C14259   9.154   1.243   9.459  0.4871  0.4944 -0.3511
  847MOL0     C14260   9.061   1.287   9.370  0.0593 -0.3107  0.5666
  847MOL0     N14261   8.287   1.007   9.385 -0.4603  0.2756 -0.7497
  847MOL0     N14262   8.175   0.961   9.434 -0.3798 -1.1742  1.0429
  847MOL0     C14263   8.495   1.321   9.829 -0.4570 -0.0896  0.0716
  847MOL0     C14264   8.544   1.441   9.782  0.8339 -0.1808 -0.5580
  847MOL0     C14265   8.896   1.724   9.701  0.1198 -0.0590 -1.7632
  847MOL0     C14266   8.958   1.681   9.581  0.2979  0.0297  0.8656
  847MOL0     C14267   9.078   1.739   9.533  0.8001 -0.5849 -0.3595
  847MOL0     C14268   9.148   1.837   9.611  0.3365 -0.4377  0.3343
  847MOL0     O14269   9.271   1.882   9.568 -0.1314 -0.0833  0.1001
  847MOL0     C14270   9.296   2.024   9.592  0.1225 -0.2390  0.1840
  847MOL0     C14271   9.429   2.062   9.529 -0.6122 -0.0663  0.0476
  847MOL0     C14272   9.454   1.989   9.387  1.0628  0.2824  0.1125
  847MOL0     C14273   9.597   2.000   9.339  0.8525 -0.2133 -0.6000
  847MOL0     C14274   9.627   2.140   9.305 -0.1703 -1.1530  0.4187
  847MOL0     C14275   9.661   2.255   9.280  1.0332  0.0377  1.1673
  847MOL0     C14276   9.082   1.881   9.730 -0.2722  0.7651  0.5123
  847MOL0     C14277   8.965   1.826   9.772  0.2471  1.4082  0.1243
  847MOL0     H14278   8.870   1.340   9.727  0.0140 -0.6272  3.0288
  847MOL0     H14279   8.770   1.129   9.845 -0.1045  0.5442 -1.7334
  847MOL0     H14280   8.513   1.046  10.105 -2.7142 -1.6041  0.8201
  847MOL0     H14281   8.432   1.194  10.053  0.2409 -0.4714  1.7313
  847MOL0     H14282   8.334   0.935   9.941 -0.7801 -0.0997  0.9520
  847MOL0     H14283   8.314   0.959  10.109  1.3805 -1.0527  0.9606
  847MOL0     H14284   8.184   1.149  10.079 -0.7382  0.8671 -0.9945
  847MOL0     H14285   8.228   1.191   9.929  1.1824  1.2020  3.0233
  847MOL0     H14286   8.078   0.921  10.006 -1.6610  0.6152  1.4518
  847MOL0     H14287   8.000   1.077  10.004 -0.0843  0.1018  0.7294
  847MOL0     H14288   8.115   0.932   9.769 -1.3703 -1.6477  1.9211
  847MOL0     H14289   7.943   0.945   9.805  0.8519 -0.5524 -0.0893
  847MOL0     H14290   8.022   1.212   9.808 -0.5686  0.8346 -0.8825
  847MOL0     H14291   8.131   1.143   9.693 -0.7917 -3.8375 -1.3737
  847MOL0     H14292   7.829   1.092   9.667  0.5301 -0.7675 -1.1167
  847MOL0     H14293   7.914   1.233   9.595 -0.1726  1.3619  1.1962
  847MOL0     H14294   7.882   1.083   9.438 -1.5807 -0.4874  0.7312
  847MOL0     H14295   7.940   0.942   9.520  2.5969  0.2309  0.4157
  847MOL0     H14296   8.109   1.277   9.458 -0.4662  0.0174 -0.6096
  847MOL0     H14297   8.443   1.178   9.263  0.5950 -2.7342  1.0211
  847MOL0     H14298   8.341   1.325   9.307  0.7363  1.9346  3.9596
  847MOL0     H14299   8.530   1.171   9.493 -3.4460 -1.8711 -0.4981
  847MOL0     H14300   8.450   1.311   9.545 -1.7285  0.4201 -0.4383
  847MOL0     H14301   8.687   1.355   9.478 -0.2398 -1.2316  0.5594
  847MOL0     H14302   8.577   1.442   9.362 -0.5515 -1.8054 -4.0520
  847MOL0     H14303   8.647   1.293   9.191  1.8670  0.4626 -1.0900
  847MOL0     H14304   8.685   1.167   9.298 -2.1542 -0.2538  0.2928
  847MOL0     H14305   8.807   1.082   9.454 -0.5367 -0.1536  2.3688
  847MOL0     H14306   8.954   1.026   9.735  1.2800 -2.0283 -0.4831
  847MOL0     H14307   8.850   0.942   9.632  0.2559  0.9278 -1.0699
  847MOL0     H14308   9.021   0.888   9.635 -0.2857 -1.2974  0.7878
  847MOL0     H14309   9.496   1.228   9.504 -0.3072 -0.4827 -0.3472
  847MOL0     H14310   9.739   1.158   9.521  0.6000 -1.8916  1.0507
  847MOL0     H14311   9.872   1.185   9.877 -0.5972  0.6791 -0.9009
  847MOL0     H14312   9.995   1.070   9.852 -0.5907 -0.7594  0.0178
  847MOL0     H14313  10.028   1.175   9.613  2.6308  1.4226  1.1910
  847MOL0     H14314   9.894   1.286   9.658  0.9030  1.0036  1.2348
  847MOL0     H14315  10.059   1.321   9.880  0.1127 -0.2527 -0.5089
  847MOL0     H14316  10.096   1.406   9.736  1.1839  1.8497  3.3901
  847MOL0     H14317  10.221   1.183   9.896 -2.1501 -0.3058  1.1551
  847MOL0     H14318  10.234   1.164   9.711 -2.7791 -1.2236  0.0690
  847MOL0     H14319  10.311   1.409   9.876 -0.5010 -4.9121  4.2038
  847MOL0     H14320  10.340   1.379   9.698  1.8003 -2.0561 -1.0259
  847MOL0     H14321  10.478   1.220   9.916 -0.5383  0.6623 -0.1737
  847MOL0     H14322  10.507   1.224   9.747 -0.5689 -1.8166  1.2175
  847MOL0     H14323  10.609   1.406   9.953 -2.7065  1.2065  1.1562
  847MOL0     H14324  10.554   1.492   9.811 -3.3596  0.9140  4.9578
  847MOL0     H14325  10.773   1.285   9.831  1.9573  2.2340  1.4726
  847MOL0     H14326  10.783   1.461   9.802  0.4576  0.2670 -2.4937
  847MOL0     H14327   9.639   1.006   9.921 -0.5714  0.7215  0.2116
  847MOL0     H14328   9.415   1.078   9.901  1.5518  2.1065  1.4781
  847MOL0     H14329   9.243   1.304   9.476 -1.3265  2.6796  2.4452
  847MOL0     H14330   9.100   1.365   9.305 -2.1317 -0.8533 -1.5270
  847MOL0     H14331   8.388   1.313   9.844 -1.6573  2.3415 -5.1537
  847MOL0     H14332   8.483   1.531   9.779 -0.4591 -0.8819  2.0764
  847MOL0     H14333   8.914   1.602   9.521 -2.6865  2.7073 -0.7894
  847MOL0     H14334   9.132   1.689   9.452  1.0777 -0.0535 -0.5066
  847MOL0     H14335   9.225   2.098   9.554  2.2215  2.5631  1.4197
  847MOL0     H14336   9.314   2.027   9.700 -1.1617 -2.5242  0.5282
  847MOL0     H14337   9.505   2.034   9.602 -3.3550 -4.3289  1.6941
  847MOL0     H14338   9.422   2.169   9.507  2.5885 -0.0541 -1.4629
  847MOL0     H14339   9.385   2.032   9.314 -0.0441  0.8527  1.4575
  847MOL0     H14340   9.422   1.885   9.396 -0.9244  1.0253  3.1361
  847MOL0     H14341   9.606   1.932   9.254 -1.7451 -2.6929  0.9321
  847MOL0     H14342   9.673   1.966   9.410  0.1287 -0.2922  0.1458
  847MOL0     H14343   9.719   2.340   9.252  4.1759 -0.7781  4.3960
  847MOL0     H14344   9.127   1.957   9.794 -1.3097 -0.4025  2.7676
  847MOL0     H14345   8.919   1.855   9.866 -2.2240  1.2534 -0.9644
  848MOL0     O14346  10.428   5.406   3.694  0.4028  0.6677  0.6059
  848MOL0     C14347  10.414   5.451   3.580 -0.5378 -0.0069  0.3160
  848MOL0     O14348  10.401   5.572   3.553 -1.2550 -0.1044 -0.3467
  848MOL0     C14349  10.422   5.669   3.660  0.2769  0.5850  0.3159
  848MOL0     C14350  10.555   5.711   3.691  0.8546  0.8521  0.9633
  848MOL0     C14351  10.575   5.792   3.801 -0.2301  0.4937  0.0350
  848MOL0     C14352  10.473   5.812   3.898 -0.2087  0.2796  0.1624
  848MOL0     O14353  10.490   5.885   4.011 -0.2832 -0.4867 -0.1279
  848MOL0     C14354  10.624   5.905   4.058  0.3030  0.8227  0.0240
  848MOL0     C14355  10.623   5.998   4.181 -0.3055 -0.3153  0.6805
  848MOL0     C14356  10.764   6.049   4.213  1.5863  0.4981  0.2672
  848MOL0     C14357  10.860   5.933   4.259  0.1195 -0.3299 -0.7207
  848MOL0     C14358  10.997   5.998   4.306  0.1221 -0.3431 -0.8920
  848MOL0     C14359  11.099   5.891   4.346 -0.0850 -0.3623 -0.3799
  848MOL0     C14360  11.227   5.930   4.419  0.2966 -0.3846  0.5944
  848MOL0     C14361  11.309   5.801   4.449 -0.5093  0.0430 -0.7981
  848MOL0     N14362  11.410   5.827   4.549  0.0660 -0.3059 -0.0243
  848MOL0     C14363  11.541   5.783   4.542 -0.2451  0.4282 -0.1819
  848MOL0     C14364  11.610   5.819   4.650  0.3799  0.7880 -0.0881
  848MOL0     C14365  11.756   5.776   4.674  0.3053 -0.5742  0.7768
  848MOL0     C14366  11.778   5.627   4.702 -0.1851  0.8255 -0.5968
  848MOL0     C14367  11.766   5.603   4.858  0.8328 -0.1763  0.4814
  848MOL0     C14368  11.730   5.452   4.874  0.3461 -0.3208 -0.1412
  848MOL0     O14369  11.601   5.412   4.817 -0.7613  0.2110 -0.4546
  848MOL0     C14370  11.497   5.442   4.898 -1.2193 -0.6486 -0.1634
  848MOL0     C14371  11.406   5.539   4.855  0.0275  0.0291 -0.3233
  848MOL0     C14372  11.319   5.595   4.946  0.3904  0.5848 -0.3786
  848MOL0     C14373  11.244   5.708   4.885  0.6984  0.7853  0.4000
  848MOL0     C14374  11.315   5.545   5.082  0.1070 -0.2577 -0.6142
  848MOL0     C14375  11.226   5.595   5.197  1.1076 -0.0207  0.1726
  848MOL0     O14376  11.240   5.531   5.322 -0.2009  0.2541 -0.3781
  848MOL0     C14377  11.171   5.560   5.442  0.0761  0.6125 -0.9196
  848MOL0     C14378  11.105   5.685   5.471 -0.4343  0.6451  0.6253
  848MOL0     C14379  11.037   5.697   5.587  0.4892  0.0603  0.3623
  848MOL0     C14380  11.036   5.592   5.690 -0.0274 -0.1618  0.7684
  848MOL0     O14381  10.980   5.601   5.813  0.3893  0.1194  0.3936
  848MOL0     C14382  10.928   5.733   5.848 -0.2435 -0.9846 -0.7836
  848MOL0     C14383  10.870   5.731   5.981  0.0865  0.6344 -0.3685
  848MOL0     C14384  10.821   5.870   6.025  1.0537 -1.0704  0.1175
  848MOL0     C14385  10.781   5.860   6.173  0.6680 -0.8281 -0.2173
  848MOL0     C14386  10.719   5.997   6.214  0.2094  0.4776 -0.7242
  848MOL0     C14387  10.643   5.968   6.348 -0.0954 -0.4865  0.5604
  848MOL0     C14388  10.559   6.090   6.376 -0.1543 -0.1864  1.2535
  848MOL0     C14389  10.637   6.202   6.440  0.0632  0.1377 -0.2875
  848MOL0    Cl14390  10.526   6.329   6.503 -0.0346 -0.0876  0.1997
  848MOL0     C14391  11.096   5.462   5.661 -0.9063  0.0618 -0.2946
  848MOL0     C14392  11.175   5.460   5.540  1.1087 -0.9899 -0.8094
  848MOL0     O14393  11.149   5.688   5.175  0.8437 -0.3150 -0.4602
  848MOL0     C14394  11.398   5.436   5.109 -0.1339  0.8949 -0.0013
  848MOL0     C14395  11.491   5.381   5.021  0.2347  0.1232 -0.0860
  848MOL0     N14396  11.511   5.884   4.721  0.3666 -0.7246  0.8623
  848MOL0     N14397  11.393   5.893   4.661  0.3620  0.1181  0.4088
  848MOL0     C14398  10.340   5.770   3.860  0.2775 -0.0154 -0.2692
  848MOL0     C14399  10.311   5.702   3.741 -0.2768  0.4588  0.6263
  848MOL0     C14400  10.398   5.356   3.466  0.4502  0.7831 -0.5450
  848MOL0     C14401  10.366   5.219   3.484  1.5102  0.0825  0.5773
  848MOL0     C14402  10.306   5.153   3.382  0.1801  0.7927  0.3044
  848MOL0     C14403  10.305   5.202   3.255 -0.7814  0.4439 -0.0892
  848MOL0     O14404  10.252   5.140   3.148 -0.8949 -0.4224 -0.0851
  848MOL0     C14405  10.153   5.215   3.086  0.7388  0.1237  0.0288
  848MOL0     C14406  10.070   5.119   2.997 -0.4606  0.8359 -0.6020
  848MOL0     C14407   9.997   4.997   3.068 -0.6323 -0.3387  0.2587
  848MOL0     C14408   9.861   5.054   3.113 -0.3250 -0.7384  0.7710
  848MOL0     C14409   9.819   4.958   3.218  2.0665  0.0233  0.5207
  848MOL0     C14410   9.777   4.889   3.309 -0.4534  0.6228  0.0086
  848MOL0     C14411  10.358   5.327   3.230  0.1785 -0.3512 -0.0075
  848MOL0     C14412  10.404   5.407   3.332 -0.4391  0.2227 -0.0185
  848MOL0     H14413  10.636   5.675   3.628  0.1477 -0.7731  0.9331
  848MOL0     H14414  10.674   5.835   3.819 -1.6248  2.7909  3.1420
  848MOL0     H14415  10.663   5.806   4.084  0.0502  0.7247  0.0316
  848MOL0     H14416  10.687   5.945   3.978 -0.4842  3.3083  0.5639
  848MOL0     H14417  10.567   6.088   4.156 -1.0603 -1.5348 -2.5731
  848MOL0     H14418  10.579   5.940   4.262  0.7097 -2.4283 -0.1839
  848MOL0     H14419  10.801   6.114   4.133  0.8902  1.3595  0.6259
  848MOL0     H14420  10.761   6.113   4.302  0.5077  1.2559 -0.2815
  848MOL0     H14421  10.825   5.890   4.353  1.8133  4.2209  2.3630
  848MOL0     H14422  10.884   5.857   4.185 -0.6638 -1.0196 -0.2751
  848MOL0     H14423  11.039   6.062   4.228 -1.0253  1.6366  0.0134
  848MOL0     H14424  10.968   6.062   4.390 -2.2889  2.4466 -3.6089
  848MOL0     H14425  11.043   5.814   4.401  0.2517  1.5370  2.9127
  848MOL0     H14426  11.130   5.854   4.248 -1.9365  1.1280 -1.5835
  848MOL0     H14427  11.287   5.995   4.355  0.2130 -0.0789  0.8233
  848MOL0     H14428  11.200   5.974   4.515  1.8728  1.3931  0.2719
  848MOL0     H14429  11.353   5.755   4.360 -0.8162 -1.0949 -0.3806
  848MOL0     H14430  11.246   5.725   4.496 -0.3008 -0.4268 -1.2708
  848MOL0     H14431  11.586   5.725   4.462 -2.6478 -1.3642 -0.3537
  848MOL0     H14432  11.820   5.796   4.588  0.5853 -3.5780  0.1709
  848MOL0     H14433  11.789   5.826   4.765 -0.7563  0.5671  0.5657
  848MOL0     H14434  11.880   5.590   4.685 -1.5431 -3.7600  0.1809
  848MOL0     H14435  11.702   5.581   4.638  1.0616  1.8675 -3.0013
  848MOL0     H14436  11.676   5.652   4.894 -0.5224 -2.0153 -0.2338
  848MOL0     H14437  11.857   5.636   4.909  1.1585  0.4698 -0.4698
  848MOL0     H14438  11.730   5.442   4.983  0.1678  1.3424  0.0410
  848MOL0     H14439  11.813   5.384   4.853  2.1490  1.9620 -0.9156
  848MOL0     H14440  11.431   5.595   4.765  0.8066 -0.4107 -0.3909
  848MOL0     H14441  11.224   5.686   4.780 -0.2103 -0.4641  0.8182
  848MOL0     H14442  11.143   5.723   4.924  0.0015 -1.3401 -0.4503
  848MOL0     H14443  11.296   5.804   4.894 -0.3787  1.5119 -0.7793
  848MOL0     H14444  11.109   5.768   5.401 -4.2891 -2.5109 -4.0062
  848MOL0     H14445  10.981   5.790   5.595  0.4999  0.0047  1.1556
  848MOL0     H14446  11.000   5.816   5.848 -1.6627  0.3713  2.0656
  848MOL0     H14447  10.852   5.752   5.772  3.5000 -0.8945 -4.9750
  848MOL0     H14448  10.791   5.656   5.976  0.1799  0.5937 -2.5235
  848MOL0     H14449  10.943   5.703   6.057 -2.1156 -0.6249  1.3745
  848MOL0     H14450  10.729   5.900   5.974  1.6602  0.6529 -0.0450
  848MOL0     H14451  10.900   5.946   6.024  0.0441  0.2858  4.3448
  848MOL0     H14452  10.702   5.785   6.186 -1.4019  0.9961 -1.4872
  848MOL0     H14453  10.864   5.837   6.241  1.1935  2.7720  0.5672
  848MOL0     H14454  10.649   6.029   6.136  0.0867 -3.7593 -2.6498
  848MOL0     H14455  10.791   6.079   6.209  0.2483  0.4112 -1.3623
  848MOL0     H14456  10.581   5.878   6.336  0.8770 -0.9234 -1.7766
  848MOL0     H14457  10.717   5.946   6.425 -0.7868  1.5262  1.8893
  848MOL0     H14458  10.489   6.047   6.448 -0.0242 -0.4372  1.2325
  848MOL0     H14459  10.509   6.120   6.283  2.2034 -1.1756 -0.4308
  848MOL0     H14460  10.714   6.242   6.373 -1.4696 -0.0774 -2.2747
  848MOL0     H14461  10.688   6.173   6.532 -2.2153 -2.3275  0.3181
  848MOL0     H14462  11.097   5.371   5.720  2.1028 -2.1772 -3.4246
  848MOL0     H14463  11.246   5.382   5.514  2.7973 -0.0246  0.6741
  848MOL0     H14464  11.382   5.384   5.203  1.8046  1.5699  0.7442
  848MOL0     H14465  11.560   5.307   5.060  2.0457 -0.3957 -3.8256
  848MOL0     H14466  10.259   5.801   3.926  0.2260  1.8172 -1.1463
  848MOL0     H14467  10.212   5.666   3.714  0.8096 -2.7611  0.4918
  848MOL0     H14468  10.358   5.180   3.586 -0.8330  3.2575  1.7621
  848MOL0     H14469  10.266   5.054   3.404 -1.5794  0.3815 -3.7933
  848MOL0     H14470  10.087   5.265   3.156  3.0356  2.3393  0.7613
  848MOL0     H14471  10.199   5.290   3.021  0.6789 -0.3568 -0.5825
  848MOL0     H14472  10.135   5.072   2.923  0.3589  0.0072  0.6201
  848MOL0     H14473   9.992   5.169   2.938 -2.6150  0.5102  1.8001
  848MOL0     H14474  10.055   4.970   3.157 -1.5932 -3.7165 -0.0088
  848MOL0     H14475   9.988   4.915   2.997  0.4101 -1.9781  1.9244
  848MOL0     H14476   9.785   5.054   3.035  1.2937 -2.0069 -0.8817
  848MOL0     H14477   9.869   5.160   3.142  0.8847 -0.7197  0.3884
  848MOL0     H14478   9.754   4.810   3.377  0.1752  0.0691 -0.4072
  848MOL0     H14479  10.360   5.364   3.128 -0.6738 -0.2570  0.0020
  848MOL0     H14480  10.434   5.509   3.315  0.5532 -0.1317 -0.4522
  849MOL0     O14481   9.579   4.929   2.875 -0.1621 -0.6756 -0.3546
  849MOL0     C14482   9.525   4.894   2.981 -0.0173  0.0603 -1.0635
  849MOL0     O14483   9.535   4.763   3.022  0.3737  0.6498 -0.2041
  849MOL0     C14484   9.581   4.676   2.928 -0.6566 -0.9852 -1.3124
  849MOL0     C14485   9.521   4.652   2.807 -0.3389  0.3628 -0.5807
  849MOL0     C14486   9.575   4.557   2.706  1.1964  0.2144 -0.5977
  849MOL0     C14487   9.685   4.479   2.734 -0.1056 -0.8839  1.1377
  849MOL0     O14488   9.745   4.385   2.655 -0.1306  0.2376 -0.6941
  849MOL0     C14489   9.673   4.324   2.540 -0.3095 -0.0091  0.6568
  849MOL0     C14490   9.610   4.193   2.579  0.7498 -0.3078  0.1606
  849MOL0     C14491   9.520   4.135   2.462  0.5726 -0.4453 -0.0369
  849MOL0     C14492   9.423   4.035   2.502  0.5598  0.0215 -0.2192
  849MOL0     C14493   9.370   3.959   2.380 -1.0289 -0.4698  0.1846
  849MOL0     C14494   9.279   4.049   2.292 -0.6462 -0.0254 -0.9422
  849MOL0     C14495   9.244   3.958   2.176  0.5451 -0.4044  0.8116
  849MOL0     C14496   9.145   4.015   2.079  0.9196  0.3461  0.6889
  849MOL0     N14497   9.114   3.937   1.958  0.8308  0.0694  0.1474
  849MOL0     C14498   9.060   3.813   1.948  0.5119 -0.0911 -0.4418
  849MOL0     C14499   9.076   3.771   1.816  0.4781  0.0712 -0.2144
  849MOL0     C14500   9.030   3.635   1.749 -0.0859  0.3634  0.1847
  849MOL0     C14501   9.113   3.515   1.799 -0.3711  0.2294 -0.2792
  849MOL0     C14502   9.259   3.537   1.762 -0.8833  0.3795  0.8459
  849MOL0     C14503   9.346   3.411   1.738  0.3790  1.2140 -0.0624
  849MOL0     O14504   9.354   3.326   1.859 -0.2349  0.6060 -0.0614
  849MOL0     C14505   9.419   3.204   1.852 -0.1451  0.2872 -0.1871
  849MOL0     C14506   9.435   3.129   1.970  0.2348 -0.1102  0.0196
  849MOL0     C14507   9.514   3.014   1.963 -0.1033  0.8925 -0.1978
  849MOL0     C14508   9.519   2.929   2.093 -0.9740  0.7410 -0.2230
  849MOL0     C14509   9.554   2.960   1.832 -0.4653  0.6151 -0.1720
  849MOL0     C14510   9.625   2.828   1.815 -0.9848 -1.1015 -0.4165
  849MOL0     O14511   9.699   2.774   1.920  0.0539  1.0523  0.4155
  849MOL0     C14512   9.762   2.652   1.899  0.7262  0.6951 -0.5128
  849MOL0     C14513   9.899   2.654   1.887 -1.0948 -0.2570 -0.2370
  849MOL0     C14514   9.967   2.542   1.844  0.2427 -0.2343  0.7316
  849MOL0     C14515   9.904   2.416   1.849 -0.3413 -0.0788 -0.2274
  849MOL0     O14516   9.978   2.299   1.850 -0.3702  0.8177  0.9716
  849MOL0     C14517   9.923   2.203   1.758 -0.2985 -0.7381  0.1004
  849MOL0     C14518  10.008   2.070   1.748 -0.3922  1.6712 -0.0128
  849MOL0     C14519  10.140   2.080   1.669  0.2301 -0.3058 -0.0662
  849MOL0     C14520  10.181   1.936   1.618 -0.1365 -0.5434 -0.0349
  849MOL0     C14521  10.311   1.935   1.537  0.8415 -0.1571 -1.1743
  849MOL0     C14522  10.323   1.807   1.452 -0.9315  0.4677 -0.7989
  849MOL0     C14523  10.470   1.781   1.411  0.8367  0.6553  0.6343
  849MOL0     C14524  10.505   1.848   1.276 -0.5194 -0.5461  0.3894
  849MOL0    Cl14525  10.504   2.029   1.295  0.0594  0.3322 -0.0691
  849MOL0     C14526   9.767   2.416   1.873 -0.5715 -0.8828 -1.8740
  849MOL0     C14527   9.696   2.534   1.895  1.0206  0.2427 -0.5892
  849MOL0     O14528   9.628   2.783   1.698 -0.7872  0.4021 -0.2054
  849MOL0     C14529   9.525   3.031   1.713  0.6176  0.5822 -0.5604
  849MOL0     C14530   9.470   3.155   1.729  0.6828 -0.4126  0.8616
  849MOL0     N14531   9.132   3.877   1.753  0.2449 -0.6439 -0.4083
  849MOL0     N14532   9.154   3.975   1.832 -0.3546  0.5602 -0.2261
  849MOL0     C14533   9.755   4.514   2.850  0.0945 -0.1269 -0.1370
  849MOL0     C14534   9.704   4.603   2.946  0.3478 -0.8851  0.2750
  849MOL0     C14535   9.481   4.997   3.071  0.0751 -0.0091 -0.0617
  849MOL0     C14536   9.442   4.971   3.204  0.4774 -0.6429  0.2047
  849MOL0     C14537   9.412   5.075   3.293 -0.1049  0.2813  0.0811
  849MOL0     C14538   9.430   5.213   3.258 -0.2674 -0.1461 -0.1598
  849MOL0     O14539   9.428   5.323   3.344 -0.2392  0.7872  0.0549
  849MOL0     C14540   9.366   5.305   3.473 -0.0287  0.4872  0.3665
  849MOL0     C14541   9.311   5.434   3.520  0.0695 -0.3084  0.0110
  849MOL0     C14542   9.279   5.445   3.669 -0.6010 -0.4097 -0.2176
  849MOL0     C14543   9.405   5.462   3.765 -0.6719  0.3149 -0.5802
  849MOL0     C14544   9.460   5.594   3.775 -0.4888 -0.0443  0.1720
  849MOL0     C14545   9.503   5.709   3.779 -0.0425  0.0487 -0.7782
  849MOL0     C14546   9.449   5.234   3.117  0.1230  0.4185  0.8582
  849MOL0     C14547   9.484   5.130   3.034 -0.8283 -0.4936  0.1531
  849MOL0     H14548   9.427   4.704   2.791  0.0660  1.3020  0.0140
  849MOL0     H14549   9.527   4.545   2.609  3.8053 -0.4973 -1.9026
  849MOL0     H14550   9.587   4.382   2.508 -1.0810 -1.0045  0.8772
  849MOL0     H14551   9.736   4.307   2.452 -0.7501 -0.4424  0.4223
  849MOL0     H14552   9.682   4.119   2.617 -1.3770 -2.6363 -0.1107
  849MOL0     H14553   9.547   4.219   2.665  2.9027  0.8567  1.5051
  849MOL0     H14554   9.456   4.209   2.413  1.2397  0.2359  0.1051
  849MOL0     H14555   9.599   4.095   2.397  0.9213 -1.9102  1.2501
  849MOL0     H14556   9.484   3.971   2.565 -2.8825 -3.8212 -0.3493
  849MOL0     H14557   9.346   4.059   2.576  1.5712  0.5131  0.6826
  849MOL0     H14558   9.459   3.918   2.332 -0.2233 -1.7599  2.5781
  849MOL0     H14559   9.303   3.880   2.414 -0.3711  0.1799  3.2637
  849MOL0     H14560   9.190   4.078   2.349  1.5497  0.7417  2.3315
  849MOL0     H14561   9.325   4.139   2.253 -2.0116  0.7366 -0.8716
  849MOL0     H14562   9.336   3.945   2.119  1.3056  2.7673  1.1340
  849MOL0     H14563   9.199   3.862   2.204  0.8934 -1.5260 -2.0823
  849MOL0     H14564   9.174   4.117   2.054 -1.5093  0.8176 -0.5042
  849MOL0     H14565   9.047   4.028   2.126  0.6250 -2.0097  0.8657
  849MOL0     H14566   9.023   3.758   2.034  1.9277 -0.7468 -0.2239
  849MOL0     H14567   8.923   3.626   1.770 -0.0518  2.8441  1.7449
  849MOL0     H14568   9.032   3.651   1.641 -0.0308 -2.1516 -0.2651
  849MOL0     H14569   9.087   3.428   1.737  0.7518 -0.8097  0.6463
  849MOL0     H14570   9.093   3.495   1.904 -1.9477 -0.7608 -0.7330
  849MOL0     H14571   9.299   3.590   1.849  0.4852  1.1900 -0.2248
  849MOL0     H14572   9.268   3.609   1.680 -1.4710  0.6487  1.0142
  849MOL0     H14573   9.445   3.446   1.708  1.5114 -1.2432  0.4957
  849MOL0     H14574   9.303   3.345   1.662 -1.0430 -1.4088  2.8099
  849MOL0     H14575   9.387   3.146   2.066 -0.2048 -3.2196  0.4636
  849MOL0     H14576   9.476   2.985   2.177 -3.9962  0.8591 -1.7224
  849MOL0     H14577   9.461   2.837   2.081  1.1182 -0.4494 -1.8886
  849MOL0     H14578   9.620   2.905   2.128 -2.2110 -0.8070  2.6777
  849MOL0     H14579   9.947   2.750   1.903 -0.8312 -0.6274  1.3540
  849MOL0     H14580  10.074   2.536   1.860  0.3603  0.4072  0.2300
  849MOL0     H14581   9.828   2.170   1.800 -1.0381 -1.2836 -1.8949
  849MOL0     H14582   9.906   2.247   1.659  0.5567  0.7098  0.5596
  849MOL0     H14583  10.046   2.039   1.846 -1.4164  0.7896  0.1260
  849MOL0     H14584   9.960   1.983   1.703 -0.0645  1.8027 -0.6316
  849MOL0     H14585  10.223   2.100   1.738  4.2909 -0.7241 -4.3389
  849MOL0     H14586  10.132   2.166   1.602  2.5195  1.0662  1.2870
  849MOL0     H14587  10.183   1.871   1.705 -0.0675 -0.2258  0.1999
  849MOL0     H14588  10.105   1.914   1.541 -1.8005 -3.3231  2.2019
  849MOL0     H14589  10.391   1.953   1.610  1.2715 -3.0206 -0.8326
  849MOL0     H14590  10.315   2.020   1.467 -3.0718  0.2219 -1.1412
  849MOL0     H14591  10.290   1.720   1.510 -0.3840  1.2867  0.7829
  849MOL0     H14592  10.254   1.801   1.367  1.1223 -1.2743 -2.4768
  849MOL0     H14593  10.472   1.675   1.385 -2.1006  1.1623 -2.2901
  849MOL0     H14594  10.546   1.798   1.489  0.6922  0.5604  0.7965
  849MOL0     H14595  10.426   1.824   1.205  0.0892  0.9735 -0.8516
  849MOL0     H14596  10.600   1.806   1.244 -1.5559 -0.7392 -2.7310
  849MOL0     H14597   9.715   2.322   1.861 -0.6545 -1.0257 -0.5494
  849MOL0     H14598   9.591   2.518   1.916  1.4557  0.0020  1.5523
  849MOL0     H14599   9.553   3.004   1.611  0.0161 -0.1922 -0.5303
  849MOL0     H14600   9.453   3.206   1.635 -0.4043  3.0939  2.7837
  849MOL0     H14601   9.848   4.462   2.873 -0.2647 -0.0747  1.5240
  849MOL0     H14602   9.753   4.610   3.043 -0.8517 -1.4600  0.9383
  849MOL0     H14603   9.423   4.869   3.238  1.2224 -1.4331 -1.6384
  849MOL0     H14604   9.392   5.046   3.395 -0.6187  1.5692  0.3690
  849MOL0     H14605   9.293   5.224   3.478  0.7565 -0.1524  3.7317
  849MOL0     H14606   9.446   5.282   3.544 -0.0428 -0.5568  0.0558
  849MOL0     H14607   9.222   5.446   3.458 -0.1033 -0.8970  0.1331
  849MOL0     H14608   9.377   5.516   3.491  0.5274  0.0899  2.0078
  849MOL0     H14609   9.226   5.352   3.692  0.8665 -0.6609  2.6901
  849MOL0     H14610   9.214   5.530   3.689  1.3518  0.2445  4.9006
  849MOL0     H14611   9.469   5.375   3.742 -0.7404 -0.3423  1.5118
  849MOL0     H14612   9.367   5.444   3.866 -0.5327  1.6047 -0.2836
  849MOL0     H14613   9.531   5.812   3.791  1.5522 -0.4139 -0.2379
  849MOL0     H14614   9.452   5.332   3.071  1.0742  0.0748  0.1475
  849MOL0     H14615   9.496   5.156   2.930 -3.5279  1.6772  0.2702
  850MOL0     O14616   2.541   3.808   5.984 -0.5368  0.0281 -0.3235
  850MOL0     C14617   2.576   3.694   6.017 -0.9717  0.0921  0.7541
  850MOL0     O14618   2.529   3.578   5.965 -0.0813  0.7390  0.0137
  850MOL0     C14619   2.419   3.577   5.884  0.4568  0.5082 -0.1385
  850MOL0     C14620   2.300   3.590   5.946  0.6756 -1.4213 -0.1756
  850MOL0     C14621   2.183   3.587   5.875 -0.1003 -0.8650 -1.4416
  850MOL0     C14622   2.190   3.563   5.737  0.4808 -0.3965 -0.1673
  850MOL0     O14623   2.066   3.544   5.680  0.3721 -0.2539  0.3775
  850MOL0     C14624   2.024   3.632   5.580  1.2023  0.7364 -0.1438
  850MOL0     C14625   1.870   3.645   5.605  0.8874  0.4251  0.2996
  850MOL0     C14626   1.790   3.757   5.521  0.5106 -0.5083  0.4863
  850MOL0     C14627   1.667   3.791   5.596  0.8472 -0.2131  0.3408
  850MOL0     C14628   1.584   3.902   5.540  0.6010  0.8132 -0.7584
  850MOL0     C14629   1.494   3.873   5.421  0.3810 -0.8031  0.6030
  850MOL0     C14630   1.410   3.749   5.446 -0.2351 -0.3121  0.1648
  850MOL0     C14631   1.290   3.745   5.349 -0.1852 -0.5058  0.0657
  850MOL0     N14632   1.192   3.856   5.378 -0.3282 -0.3226 -0.2146
  850MOL0     C14633   1.184   3.983   5.324 -0.2935 -0.2153 -0.7034
  850MOL0     C14634   1.093   4.056   5.393  0.0823  0.4678  0.1765
  850MOL0     C14635   1.079   4.204   5.384 -0.9814  0.1489 -0.0030
  850MOL0     C14636   1.044   4.263   5.522  0.4595 -0.7629 -0.4442
  850MOL0     C14637   0.989   4.399   5.518  0.4824 -0.8572 -0.1244
  850MOL0     C14638   0.946   4.436   5.660  0.3218 -0.8800  0.6244
  850MOL0     O14639   1.049   4.412   5.752  0.3247  0.3592  1.2321
  850MOL0     C14640   1.011   4.379   5.874  0.2573  0.6715  0.2961
  850MOL0     C14641   1.114   4.316   5.938 -0.9396  0.2413  0.2091
  850MOL0     C14642   1.107   4.300   6.080 -1.0410 -0.0138  0.4885
  850MOL0     C14643   1.217   4.228   6.142  0.0022 -0.1368 -0.9138
  850MOL0     C14644   0.992   4.348   6.153  0.2117  1.0216 -0.2812
  850MOL0     C14645   0.976   4.349   6.300  0.0901 -0.0337 -0.8872
  850MOL0     O14646   0.848   4.367   6.349 -0.6417  0.3246 -0.4285
  850MOL0     C14647   0.824   4.353   6.488 -0.0399  0.2270 -0.3894
  850MOL0     C14648   0.720   4.430   6.536  0.5570 -0.9464 -0.2072
  850MOL0     C14649   0.666   4.415   6.672 -0.0857  0.1880  0.9761
  850MOL0     C14650   0.726   4.321   6.758  0.5237 -0.3875 -0.4479
  850MOL0     O14651   0.672   4.308   6.889 -0.2616  0.3801 -0.4993
  850MOL0     C14652   0.716   4.196   6.977 -0.9583 -0.1446 -0.7015
  850MOL0     C14653   0.677   4.230   7.122  0.1200  0.5004  0.1242
  850MOL0     C14654   0.712   4.125   7.214 -0.1876  0.1887 -0.6043
  850MOL0     C14655   0.629   4.123   7.346 -1.0705  0.2016  0.3225
  850MOL0     C14656   0.642   4.250   7.436 -0.6116  0.4827 -0.2339
  850MOL0     C14657   0.759   4.238   7.508 -0.5064  0.0606  0.0003
  850MOL0     C14658   0.781   4.347   7.624  1.3952 -0.4309  0.9963
  850MOL0     C14659   0.895   4.291   7.709  0.0237 -0.2265 -0.8793
  850MOL0    Cl14660   0.951   4.438   7.804  0.2738  0.1833 -0.1678
  850MOL0     C14661   0.834   4.243   6.705 -0.7028  0.9587 -0.1933
  850MOL0     C14662   0.883   4.260   6.577  0.1109  1.0184  0.0790
  850MOL0     O14663   1.080   4.351   6.370 -0.4941  0.6020 -0.3255
  850MOL0     C14664   0.895   4.414   6.079  0.3646 -0.1722 -0.3420
  850MOL0     C14665   0.896   4.432   5.940 -0.9007 -0.0731 -0.9709
  850MOL0     N14666   1.024   3.968   5.475 -0.0132  0.4089  0.3020
  850MOL0     N14667   1.084   3.860   5.464  0.4656  0.7341  0.2044
  850MOL0     C14668   2.310   3.576   5.665 -0.0862 -0.5289 -0.9107
  850MOL0     C14669   2.427   3.575   5.748 -0.5291  0.4354 -0.5751
  850MOL0     C14670   2.679   3.679   6.114 -0.1872  0.7020 -0.6051
  850MOL0     C14671   2.710   3.549   6.158 -0.4361 -0.2233  0.4754
  850MOL0     C14672   2.813   3.522   6.247 -0.1468  0.5617  0.0343
  850MOL0     C14673   2.892   3.615   6.302 -1.0016 -0.2549  0.1752
  850MOL0     O14674   2.992   3.579   6.395 -0.2725  1.0829  0.3258
  850MOL0     C14675   3.070   3.682   6.445 -1.8635 -0.1115  0.6442
  850MOL0     C14676   3.179   3.734   6.344 -0.0114  0.0226 -0.8766
  850MOL0     C14677   3.241   3.626   6.263 -0.9443  0.4807  0.4828
  850MOL0     C14678   3.337   3.550   6.348 -0.2307 -0.6419 -0.1871
  850MOL0     C14679   3.390   3.450   6.265  0.3725 -0.2865  0.7453
  850MOL0     C14680   3.443   3.384   6.186 -0.1524 -0.1332 -0.8943
  850MOL0     C14681   2.858   3.753   6.271 -0.0804  0.4552  0.3073
  850MOL0     C14682   2.753   3.780   6.176  0.4534 -0.0277 -0.4705
  850MOL0     H14683   2.306   3.597   6.054  0.8332 -2.3765 -0.1095
  850MOL0     H14684   2.095   3.572   5.937  0.5478  0.7472 -0.0278
  850MOL0     H14685   2.070   3.729   5.599  2.8119 -0.3026  1.6272
  850MOL0     H14686   2.039   3.600   5.476 -0.3078 -0.6526  0.0162
  850MOL0     H14687   1.831   3.544   5.584 -1.0875  1.8234 -3.7306
  850MOL0     H14688   1.866   3.668   5.712 -0.8376  1.4982  0.0469
  850MOL0     H14689   1.852   3.846   5.510  1.3583 -1.2944 -1.8338
  850MOL0     H14690   1.768   3.730   5.417 -2.5658 -0.5468  1.0614
  850MOL0     H14691   1.607   3.699   5.591  0.0175  0.3760 -0.8838
  850MOL0     H14692   1.689   3.814   5.701  0.8924 -1.2904  0.5814
  850MOL0     H14693   1.529   3.946   5.624  2.7626  3.7268 -0.7009
  850MOL0     H14694   1.658   3.975   5.507  2.3838 -1.0178 -0.9698
  850MOL0     H14695   1.439   3.958   5.380 -1.0845 -3.1097 -2.6054
  850MOL0     H14696   1.561   3.845   5.339  1.1938  2.2802  0.0882
  850MOL0     H14697   1.472   3.662   5.421  0.5185 -0.1934  1.5405
  850MOL0     H14698   1.379   3.732   5.550  0.1088 -0.0494  0.3110
  850MOL0     H14699   1.235   3.653   5.368 -1.3126  0.2898  0.7965
  850MOL0     H14700   1.330   3.751   5.247  0.8005  1.2757  0.5210
  850MOL0     H14701   1.250   4.016   5.243  0.0432 -1.0389 -0.7698
  850MOL0     H14702   1.173   4.237   5.339 -1.0679 -1.5204 -1.4969
  850MOL0     H14703   1.010   4.233   5.305 -0.0172 -0.4715 -1.0987
  850MOL0     H14704   1.134   4.264   5.584  0.0723 -0.4709  0.1125
  850MOL0     H14705   0.967   4.205   5.573 -0.1253  0.6123  0.2792
  850MOL0     H14706   0.893   4.387   5.466 -0.0709  0.6398  0.4757
  850MOL0     H14707   1.054   4.476   5.475 -1.6909 -0.1014 -2.3019
  850MOL0     H14708   0.851   4.392   5.690  0.1415 -1.8056 -1.1759
  850MOL0     H14709   0.922   4.543   5.655 -0.8258 -1.0529  1.9869
  850MOL0     H14710   1.203   4.279   5.887 -0.6421 -2.2497  2.3769
  850MOL0     H14711   1.285   4.183   6.069 -1.2936 -0.2846 -2.0846
  850MOL0     H14712   1.268   4.290   6.216  0.2001 -1.5039  0.1307
  850MOL0     H14713   1.183   4.144   6.203  0.3917  0.3742  0.0270
  850MOL0     H14714   0.664   4.500   6.475  3.2282  1.9599  0.4615
  850MOL0     H14715   0.581   4.474   6.707 -0.3525 -1.0946  2.6091
  850MOL0     H14716   0.673   4.099   6.950  0.4161 -1.1484  0.4967
  850MOL0     H14717   0.824   4.177   6.975 -1.0794 -1.2525  1.0409
  850MOL0     H14718   0.715   4.327   7.154 -0.9650  0.6798  0.9397
  850MOL0     H14719   0.569   4.249   7.131  0.2635  1.0596  0.7458
  850MOL0     H14720   0.817   4.138   7.243 -0.0850 -2.3569  0.5111
  850MOL0     H14721   0.705   4.025   7.170  2.0445 -0.1689 -0.2664
  850MOL0     H14722   0.525   4.099   7.321 -1.8540  1.7833  1.8529
  850MOL0     H14723   0.674   4.042   7.404 -1.2252  0.3324  0.6291
  850MOL0     H14724   0.555   4.264   7.500 -0.7243  1.3105 -0.5527
  850MOL0     H14725   0.649   4.338   7.372  0.3478 -0.8682 -2.1068
  850MOL0     H14726   0.762   4.144   7.563  0.4928  0.1165  0.0654
  850MOL0     H14727   0.844   4.249   7.440 -0.2111 -0.4617  0.2809
  850MOL0     H14728   0.690   4.353   7.684  2.3296 -2.5345  2.7551
  850MOL0     H14729   0.807   4.447   7.588 -0.9361  0.9112  2.8152
  850MOL0     H14730   0.970   4.256   7.638  2.5926  3.8802 -0.5618
  850MOL0     H14731   0.862   4.205   7.769 -4.1249  2.5700  1.3429
  850MOL0     H14732   0.890   4.174   6.766 -2.0308  1.8358  2.1363
  850MOL0     H14733   0.957   4.187   6.543  0.0919  0.7174  0.6739
  850MOL0     H14734   0.816   4.454   6.142 -0.4519  1.0478 -2.0514
  850MOL0     H14735   0.816   4.493   5.898  0.1955  1.6007 -0.6891
  850MOL0     H14736   2.318   3.573   5.557  2.0237  1.5694 -0.8942
  850MOL0     H14737   2.519   3.549   5.697  0.5645  1.7367  0.6390
  850MOL0     H14738   2.650   3.466   6.122  1.5582 -2.1159  1.2640
  850MOL0     H14739   2.825   3.421   6.287 -1.8868  1.2825  2.6610
  850MOL0     H14740   3.017   3.763   6.496  1.5502  0.8391  3.1143
  850MOL0     H14741   3.122   3.635   6.529  3.1407 -0.6382 -2.3134
  850MOL0     H14742   3.250   3.789   6.407 -1.2236 -1.0670  1.5676
  850MOL0     H14743   3.135   3.806   6.275  1.3089  3.7512  1.8020
  850MOL0     H14744   3.292   3.662   6.173 -2.5026 -2.1465 -1.5845
  850MOL0     H14745   3.164   3.557   6.227  0.7610  0.5298 -3.8976
  850MOL0     H14746   3.286   3.505   6.433 -1.2421 -0.2840 -0.5844
  850MOL0     H14747   3.417   3.615   6.384 -2.4846  2.2436 -0.0159
  850MOL0     H14748   3.476   3.310   6.115 -0.1544  0.0537 -1.0910
  850MOL0     H14749   2.892   3.839   6.328 -0.6079  1.2870 -0.6018
  850MOL0     H14750   2.721   3.880   6.150 -1.0958  0.0328  1.4462
  851MOL0     O14751   3.762   4.683   4.275  0.7051  0.5547 -0.1675
  851MOL0     C14752   3.654   4.710   4.307 -0.2219 -0.0135 -0.1842
  851MOL0     O14753   3.610   4.680   4.433 -0.1148  0.7378 -0.8675
  851MOL0     C14754   3.692   4.642   4.536 -0.4110  0.6127  0.1231
  851MOL0     C14755   3.646   4.548   4.636 -0.3797 -0.4358 -0.4047
  851MOL0     C14756   3.728   4.504   4.745  0.0389 -0.1780  0.0274
  851MOL0     C14757   3.845   4.583   4.768 -0.6549 -0.7312  1.0642
  851MOL0     O14758   3.939   4.545   4.869 -0.2526  0.4549  0.4286
  851MOL0     C14759   3.884   4.477   4.984 -0.4906  0.3766 -1.0767
  851MOL0     C14760   3.786   4.558   5.073 -0.6774 -0.0558  0.4473
  851MOL0     C14761   3.842   4.690   5.135  0.1004  0.1188  0.2951
  851MOL0     C14762   3.782   4.818   5.097  0.2466 -0.4227 -0.0039
  851MOL0     C14763   3.834   4.939   5.170  0.3391 -0.8818 -0.6578
  851MOL0     C14764   3.775   5.068   5.125 -0.0017 -0.2208  0.7115
  851MOL0     C14765   3.863   5.188   5.161 -0.6261  0.1058  0.1561
  851MOL0     C14766   3.806   5.308   5.087 -0.4682  0.3287 -1.0251
  851MOL0     N14767   3.835   5.433   5.169 -0.6702  0.0480  0.4399
  851MOL0     C14768   3.953   5.510   5.140  0.6608  0.5047 -0.2424
  851MOL0     C14769   3.932   5.616   5.212  0.6611 -0.1014  0.1070
  851MOL0     C14770   4.013   5.737   5.228  0.3356  0.1488 -0.8355
  851MOL0     C14771   3.988   5.842   5.118  0.2160 -0.4551  0.6094
  851MOL0     C14772   3.862   5.919   5.153  0.3484 -1.0145  0.1698
  851MOL0     C14773   3.849   6.037   5.045 -0.5859 -0.3563 -0.3066
  851MOL0     O14774   3.727   6.112   5.065  0.0634  0.1271 -0.8223
  851MOL0     C14775   3.618   6.090   4.990  0.7690  0.4140  0.2110
  851MOL0     C14776   3.530   6.193   4.966  0.5020 -1.3421  0.6963
  851MOL0     C14777   3.407   6.190   4.895  0.5171  0.0866 -0.6789
  851MOL0     C14778   3.306   6.302   4.910  0.1132 -0.3656 -0.6854
  851MOL0     C14779   3.380   6.069   4.815  0.1737 -0.5517  0.0949
  851MOL0     C14780   3.263   6.047   4.728 -0.0916  0.4654 -1.8719
  851MOL0     O14781   3.281   5.940   4.642  0.4589  0.1250  0.4700
  851MOL0     C14782   3.197   5.907   4.533  0.2444  0.1263 -0.0960
  851MOL0     C14783   3.249   5.818   4.440  0.3640 -0.6263  0.1772
  851MOL0     C14784   3.170   5.764   4.334 -0.0385  0.3974 -0.7627
  851MOL0     C14785   3.033   5.789   4.337 -1.0918 -0.5244  1.4872
  851MOL0     O14786   2.939   5.744   4.246 -0.5421  0.5379 -0.8014
  851MOL0     C14787   2.977   5.704   4.114  0.3235  1.3361  1.1803
  851MOL0     C14788   2.864   5.745   4.023  0.7072 -1.0091  0.3405
  851MOL0     C14789   2.740   5.672   4.051  0.1686  0.4476  0.6235
  851MOL0     C14790   2.631   5.697   3.951  0.5613  0.6440 -0.0359
  851MOL0     C14791   2.657   5.641   3.812 -1.0652  0.6332 -0.2451
  851MOL0     C14792   2.671   5.489   3.791 -0.8658 -0.1185 -0.5032
  851MOL0     C14793   2.678   5.453   3.637  0.1765 -0.1092  0.8028
  851MOL0     C14794   2.742   5.313   3.622 -0.5687 -0.0813  0.3443
  851MOL0    Cl14795   2.672   5.181   3.719  0.0672  0.3902  0.3207
  851MOL0     C14796   2.984   5.877   4.430  0.8845  0.0266  0.7593
  851MOL0     C14797   3.062   5.947   4.515  0.6311  0.1146  0.1016
  851MOL0     O14798   3.179   6.126   4.728  0.6421 -0.5779  0.0203
  851MOL0     C14799   3.471   5.960   4.843  0.4208  0.0235  0.4868
  851MOL0     C14800   3.585   5.971   4.926 -1.0147 -1.3720  0.1967
  851MOL0     N14801   3.817   5.595   5.298 -0.1212 -0.5838 -0.1789
  851MOL0     N14802   3.771   5.473   5.282  0.0197  0.1540  0.3261
  851MOL0     C14803   3.879   4.683   4.678 -0.0345 -0.4386  0.1878
  851MOL0     C14804   3.809   4.713   4.568  0.7789  0.0834  0.3059
  851MOL0     C14805   3.559   4.761   4.199  0.0629  0.5369  0.4142
  851MOL0     C14806   3.422   4.794   4.223 -0.4112  0.2345  0.1179
  851MOL0     C14807   3.332   4.817   4.123  0.6869  0.4133  0.0646
  851MOL0     C14808   3.375   4.818   3.990  0.2330 -0.6474 -0.5849
  851MOL0     O14809   3.273   4.840   3.905  0.9838  0.2795  0.1499
  851MOL0     C14810   3.292   4.833   3.763  0.9993 -0.5334  0.7116
  851MOL0     C14811   3.176   4.787   3.682  0.5579  0.2978 -0.6906
  851MOL0     C14812   3.058   4.894   3.671  0.0898 -0.7167  0.0215
  851MOL0     C14813   3.093   5.030   3.592 -0.3204 -0.2588  0.5297
  851MOL0     C14814   3.154   5.022   3.452 -0.2659 -1.4044 -0.4906
  851MOL0     C14815   3.193   5.028   3.338  1.0331  1.1978  0.7042
  851MOL0     C14816   3.508   4.799   3.958  0.6895  1.4177 -0.8497
  851MOL0     C14817   3.603   4.764   4.059 -0.8100 -0.0432  0.0511
  851MOL0     H14818   3.552   4.494   4.628 -0.4246 -0.7529  1.7745
  851MOL0     H14819   3.680   4.438   4.816 -3.2458  1.0179 -0.9071
  851MOL0     H14820   3.830   4.386   4.957 -0.3302 -1.1919  3.1965
  851MOL0     H14821   3.960   4.442   5.054 -2.6601  0.3642  1.4653
  851MOL0     H14822   3.704   4.587   5.006  0.4370  0.6213 -0.6867
  851MOL0     H14823   3.757   4.499   5.160 -2.3863  0.2301  0.1010
  851MOL0     H14824   3.837   4.685   5.244  0.5983 -0.7252  0.2880
  851MOL0     H14825   3.947   4.707   5.111  0.2300  4.2411  2.7257
  851MOL0     H14826   3.790   4.826   4.988 -2.4838 -2.4856 -0.4616
  851MOL0     H14827   3.675   4.803   5.117  0.7189 -2.5360  1.2382
  851MOL0     H14828   3.816   4.919   5.276  0.3456 -0.9861 -0.6751
  851MOL0     H14829   3.940   4.936   5.144 -0.4494 -0.8921 -4.3485
  851MOL0     H14830   3.763   5.063   5.017 -3.0545  2.3889  0.7861
  851MOL0     H14831   3.674   5.076   5.167 -0.3521  0.2244 -0.1880
  851MOL0     H14832   3.859   5.194   5.271 -1.9863 -0.8398  0.1807
  851MOL0     H14833   3.964   5.191   5.120 -1.2074  1.6373 -1.2561
  851MOL0     H14834   3.699   5.291   5.070 -0.1614 -2.3289 -0.5890
  851MOL0     H14835   3.860   5.304   4.992  2.4254  0.9913  0.4777
  851MOL0     H14836   4.039   5.489   5.077  1.5428  4.2638 -0.5236
  851MOL0     H14837   4.007   5.784   5.326  0.8292  0.6829 -1.0582
  851MOL0     H14838   4.117   5.704   5.218  0.0160 -2.1899  2.1855
  851MOL0     H14839   3.960   5.792   5.025 -2.2466 -1.0679  1.6054
  851MOL0     H14840   4.066   5.918   5.108  1.7541 -2.1175 -0.4617
  851MOL0     H14841   3.864   5.972   5.249 -1.1945  3.8366 -2.1398
  851MOL0     H14842   3.774   5.855   5.142 -0.5815  0.1523  0.6125
  851MOL0     H14843   3.870   6.000   4.944  2.4000 -0.6347  0.3424
  851MOL0     H14844   3.925   6.103   5.087 -1.4480 -0.2215  1.1109
  851MOL0     H14845   3.542   6.284   5.024 -2.6090  0.1559 -0.7904
  851MOL0     H14846   3.362   6.375   4.968  0.1842 -0.8813 -0.0935
  851MOL0     H14847   3.281   6.330   4.807 -1.4722  2.0856  0.3040
  851MOL0     H14848   3.216   6.269   4.963  1.0107 -6.1661 -1.9991
  851MOL0     H14849   3.352   5.784   4.447  0.5303 -0.3886 -0.9555
  851MOL0     H14850   3.202   5.683   4.269 -2.1369 -2.1692  1.1938
  851MOL0     H14851   3.065   5.757   4.077  2.0370 -0.5464  2.3445
  851MOL0     H14852   2.987   5.596   4.104 -2.3105  1.2078 -1.6343
  851MOL0     H14853   2.841   5.851   4.032  3.1955 -0.1937 -1.6432
  851MOL0     H14854   2.888   5.719   3.919 -0.3288 -1.1640  0.1316
  851MOL0     H14855   2.710   5.704   4.151  1.8880 -1.4352  1.8275
  851MOL0     H14856   2.774   5.569   4.063  1.2986  0.8534  1.0220
  851MOL0     H14857   2.545   5.652   4.002  0.6108 -1.7454 -1.8803
  851MOL0     H14858   2.611   5.804   3.951 -2.2731  0.2863 -2.8154
  851MOL0     H14859   2.742   5.695   3.769 -1.8956  2.9662  0.9309
  851MOL0     H14860   2.574   5.676   3.750 -0.1095  0.6628 -1.5713
  851MOL0     H14861   2.761   5.442   3.831 -1.2154  0.4211  0.9689
  851MOL0     H14862   2.582   5.445   3.835 -1.0612  0.7777  0.0116
  851MOL0     H14863   2.747   5.527   3.595 -0.7286  0.1171 -0.3497
  851MOL0     H14864   2.581   5.460   3.587  1.9515  0.0873 -2.9626
  851MOL0     H14865   2.843   5.318   3.663 -1.5206 -2.4582  3.3540
  851MOL0     H14866   2.734   5.285   3.517  0.5026  1.5674 -0.2184
  851MOL0     H14867   2.879   5.905   4.420  1.2215  2.9509  3.8872
  851MOL0     H14868   3.024   6.015   4.591 -1.3709 -2.3499  1.5144
  851MOL0     H14869   3.463   5.862   4.797  1.9719  0.4871 -0.8623
  851MOL0     H14870   3.646   5.885   4.952  1.1986  0.2235  0.4925
  851MOL0     H14871   3.971   4.740   4.672  0.6678 -1.6531 -1.5827
  851MOL0     H14872   3.842   4.794   4.503  0.9520  0.3190  0.6844
  851MOL0     H14873   3.388   4.805   4.325 -0.1375 -1.8622  0.4776
  851MOL0     H14874   3.231   4.851   4.140  0.7789  0.9030 -0.3652
  851MOL0     H14875   3.309   4.938   3.737 -1.1077  0.4973  3.0728
  851MOL0     H14876   3.373   4.770   3.725  0.8382  1.2132 -3.0138
  851MOL0     H14877   3.144   4.699   3.739 -1.0929 -0.3587 -2.5388
  851MOL0     H14878   3.203   4.755   3.581  1.7249  0.4714 -0.4433
  851MOL0     H14879   3.031   4.927   3.771 -2.1712 -1.2022 -0.3744
  851MOL0     H14880   2.971   4.855   3.618 -1.4414  2.3582  0.0388
  851MOL0     H14881   3.145   5.098   3.660 -3.5252 -0.3234  3.2917
  851MOL0     H14882   2.999   5.084   3.575 -0.1821 -0.1527  0.0682
  851MOL0     H14883   3.225   5.039   3.236  0.3777 -0.0674  0.3524
  851MOL0     H14884   3.552   4.810   3.860  1.8660 -0.6352 -0.6076
  851MOL0     H14885   3.705   4.751   4.024 -1.2605  0.8985 -1.7485
  852MOL0     O14886   5.160   5.597   9.656 -0.0464  0.2141 -0.4386
  852MOL0     C14887   5.266   5.559   9.693 -0.2193 -0.4863  0.5112
  852MOL0     O14888   5.293   5.442   9.755 -0.2238  0.6217 -0.4727
  852MOL0     C14889   5.204   5.343   9.797  0.0496  0.2114 -0.2471
  852MOL0     C14890   5.259   5.223   9.861 -0.1113 -0.9489 -0.7698
  852MOL0     C14891   5.177   5.138   9.925  0.1993  0.3438  0.2185
  852MOL0     C14892   5.035   5.164   9.930  0.3637  1.5769  1.1625
  852MOL0     O14893   4.950   5.076   9.989 -0.3060  0.3655  0.3631
  852MOL0     C14894   4.918   5.102  10.128  0.4585 -0.4004 -0.9916
  852MOL0     C14895   4.783   5.040  10.159 -0.2285 -0.6201 -0.7283
  852MOL0     C14896   4.672   5.064  10.042 -0.1937 -0.0042  0.8522
  852MOL0     C14897   4.540   5.034  10.103 -0.3977 -0.3351 -0.3625
  852MOL0     C14898   4.431   5.113  10.022 -0.0256 -0.4548  0.2909
  852MOL0     C14899   4.288   5.068  10.044  0.7748  0.5538 -0.4595
  852MOL0     C14900   4.201   5.166   9.968  0.2030 -0.6496 -1.0591
  852MOL0     C14901   4.056   5.116   9.951 -0.5819  0.6342  0.2989
  852MOL0     N14902   3.943   5.208   9.944 -0.3879 -0.4956  0.1451
  852MOL0     C14903   3.812   5.172   9.943 -0.1332 -0.4019 -0.5345
  852MOL0     C14904   3.743   5.288   9.894 -0.4277  0.0132  1.0744
  852MOL0     C14905   3.603   5.315   9.868 -0.7253  0.0731 -0.4058
  852MOL0     C14906   3.553   5.433   9.947  0.0013  0.0931  0.4217
  852MOL0     C14907   3.399   5.441   9.911  0.4753 -0.1161 -0.2190
  852MOL0     C14908   3.348   5.575   9.981  1.3695 -0.4223  0.1366
  852MOL0     O14909   3.315   5.572  10.116  0.3053  0.4664  0.4636
  852MOL0     C14910   3.258   5.682  10.168  0.1044 -0.0276  0.3362
  852MOL0     C14911   3.288   5.693  10.308 -0.0385  0.1875  0.6395
  852MOL0     C14912   3.253   5.801  10.381  0.3335 -0.6867 -0.4609
  852MOL0     C14913   3.302   5.834  10.528 -0.7280  0.8058  0.4313
  852MOL0     C14914   3.167   5.904  10.333 -0.2050 -0.1213 -0.2306
  852MOL0     C14915   3.131   6.032  10.393  0.2734  0.6839  0.4777
  852MOL0     O14916   2.998   6.053  10.397 -0.1618 -0.1960 -0.0064
  852MOL0     C14917   2.943   6.161  10.461 -0.2872 -1.0820 -0.2455
  852MOL0     C14918   3.009   6.282  10.500 -0.4363  1.4389 -1.2986
  852MOL0     C14919   2.931   6.372  10.575  0.3588 -0.3057  0.4697
  852MOL0     C14920   2.803   6.345  10.627 -0.3428  0.0591  0.1794
  852MOL0     O14921   2.742   6.437  10.710  0.7338  1.1310  0.4107
  852MOL0     C14922   2.610   6.427  10.758 -0.3776 -0.3692 -0.4720
  852MOL0     C14923   2.573   6.537  10.865 -0.3969  0.1127  0.8693
  852MOL0     C14924   2.657   6.524  10.993  0.2377  0.3620  0.5370
  852MOL0     C14925   2.593   6.575  11.115 -0.1788  0.0659 -0.4508
  852MOL0     C14926   2.667   6.542  11.240 -1.0100  0.6817  0.5755
  852MOL0     C14927   2.637   6.643  11.354  0.7373  0.7688 -0.3198
  852MOL0     C14928   2.491   6.610  11.406  0.2873  0.0288 -0.2846
  852MOL0     C14929   2.453   6.722  11.506 -0.5957 -0.4399 -0.1844
  852MOL0    Cl14930   2.556   6.735  11.654  0.0155 -0.0876 -0.4316
  852MOL0     C14931   2.742   6.231  10.572  0.5871 -0.9331  0.6111
  852MOL0     C14932   2.810   6.146  10.482  0.1083 -0.8211 -0.1681
  852MOL0     O14933   3.227   6.100  10.436 -0.2653  0.6703 -0.5788
  852MOL0     C14934   3.136   5.896  10.199 -0.4989  0.7075  0.2258
  852MOL0     C14935   3.180   5.788  10.117 -0.4356 -0.6287  0.4393
  852MOL0     N14936   3.842   5.381   9.859 -0.0382  0.1393 -0.1331
  852MOL0     N14937   3.955   5.335   9.893 -0.4325 -0.4675  0.1847
  852MOL0     C14938   4.981   5.276   9.861  0.4330 -0.7041 -0.9718
  852MOL0     C14939   5.067   5.364   9.801  0.5104 -0.0454  0.5339
  852MOL0     C14940   5.374   5.648   9.664  0.2699 -1.3777 -0.0790
  852MOL0     C14941   5.509   5.609   9.669  0.2189 -0.6576 -0.3966
  852MOL0     C14942   5.604   5.659   9.584  0.2113 -0.3154 -0.4590
  852MOL0     C14943   5.581   5.774   9.514 -0.4335 -0.3716 -0.7430
  852MOL0     O14944   5.666   5.799   9.415  0.1837  0.0036  0.2518
  852MOL0     C14945   5.641   5.897   9.318 -0.3937 -1.2170 -0.7522
  852MOL0     C14946   5.768   5.942   9.250 -0.0496  1.1785  0.0203
  852MOL0     C14947   5.826   5.842   9.148 -0.0094 -0.3323 -0.1391
  852MOL0     C14948   5.964   5.895   9.098  0.2397  1.2408 -0.0247
  852MOL0     C14949   5.950   6.005   9.003 -0.1585  0.2142 -0.0153
  852MOL0     C14950   5.940   6.102   8.928  0.4798 -0.5898  0.2478
  852MOL0     C14951   5.449   5.829   9.521  0.1270  0.0549  0.3064
  852MOL0     C14952   5.342   5.762   9.592  0.0592 -0.0307 -1.3192
  852MOL0     H14953   5.366   5.234   9.879 -0.1857 -0.1563 -0.7966
  852MOL0     H14954   5.233   5.058   9.972  3.1446  1.8859 -0.4120
  852MOL0     H14955   5.005   5.070  10.186  1.2992  2.3102 -0.6287
  852MOL0     H14956   4.888   5.205  10.148  0.0020 -1.2975  4.4852
  852MOL0     H14957   4.785   4.932  10.175 -2.7705 -0.5654  0.5304
  852MOL0     H14958   4.737   5.072  10.253  2.2265  0.4146  0.2271
  852MOL0     H14959   4.682   5.171  10.018  2.8203 -0.4103 -0.1773
  852MOL0     H14960   4.687   5.013   9.946 -1.8837  0.0547  0.5215
  852MOL0     H14961   4.526   4.925  10.103 -1.7009 -0.4019  4.5729
  852MOL0     H14962   4.530   5.056  10.209  0.4470  1.6182 -0.6454
  852MOL0     H14963   4.434   5.213  10.066  0.0676 -1.1629  1.9639
  852MOL0     H14964   4.460   5.116   9.916  2.7634 -1.8710  0.9008
  852MOL0     H14965   4.267   4.962  10.022 -1.6872  1.1096 -1.0979
  852MOL0     H14966   4.261   5.080  10.149  0.2444 -3.7393  0.1114
  852MOL0     H14967   4.193   5.248  10.039 -1.9282 -0.8279 -1.0180
  852MOL0     H14968   4.255   5.196   9.878  4.9976 -0.1325  1.6587
  852MOL0     H14969   4.043   5.046  10.034 -0.6907 -0.1724 -0.3864
  852MOL0     H14970   4.058   5.048   9.866  3.1325 -1.6067  1.8878
  852MOL0     H14971   3.772   5.083   9.990  0.2568  0.3039  1.2167
  852MOL0     H14972   3.590   5.329   9.760 -0.8728 -0.4149 -0.4522
  852MOL0     H14973   3.546   5.230   9.908  0.0334  0.6615  2.1209
  852MOL0     H14974   3.597   5.530   9.920  1.9720 -0.6636  0.7660
  852MOL0     H14975   3.555   5.413  10.054  3.5901 -0.7806  0.3258
  852MOL0     H14976   3.346   5.360   9.961  1.2015 -0.5151 -0.0887
  852MOL0     H14977   3.383   5.445   9.803 -2.8593  0.3152  0.1769
  852MOL0     H14978   3.256   5.611   9.934 -0.2753  2.0978  4.6900
  852MOL0     H14979   3.417   5.659   9.968 -1.3976  1.6883 -2.1920
  852MOL0     H14980   3.354   5.621  10.356  0.7489 -0.8839 -1.8704
  852MOL0     H14981   3.374   5.913  10.504  0.4240 -0.3589 -0.0830
  852MOL0     H14982   3.226   5.875  10.596 -1.2967 -1.4011  1.1931
  852MOL0     H14983   3.357   5.751  10.573  0.4358  0.6396 -1.2285
  852MOL0     H14984   3.113   6.309  10.484  0.9406 -0.8808  2.4756
  852MOL0     H14985   2.966   6.467  10.615  0.3285 -0.1089  0.0386
  852MOL0     H14986   2.544   6.448  10.674 -1.3116  1.2548  0.6045
  852MOL0     H14987   2.600   6.324  10.794 -0.5713 -1.0150 -2.2736
  852MOL0     H14988   2.591   6.638  10.826 -0.4605  0.7832  2.5098
  852MOL0     H14989   2.467   6.532  10.890 -1.1576  1.8236 -1.6003
  852MOL0     H14990   2.758   6.562  10.973 -1.2420  2.6923 -4.0212
  852MOL0     H14991   2.672   6.417  11.005  4.0449  0.7948  0.8081
  852MOL0     H14992   2.613   6.680  11.093 -1.4138  0.2466 -0.7861
  852MOL0     H14993   2.484   6.564  11.122 -0.1370 -1.2537 -1.3422
  852MOL0     H14994   2.774   6.555  11.220 -1.2076  1.6800  0.1245
  852MOL0     H14995   2.637   6.442  11.273 -0.3974  0.3706  0.2277
  852MOL0     H14996   2.708   6.635  11.436 -2.4030 -3.7354  2.4005
  852MOL0     H14997   2.654   6.743  11.313  1.6587 -0.0043 -1.9222
  852MOL0     H14998   2.469   6.510  11.445 -2.3339 -0.2644 -2.2165
  852MOL0     H14999   2.420   6.622  11.322 -0.0332  0.8495  0.0987
  852MOL0     H15000   2.348   6.710  11.534 -0.6872 -0.4503 -0.5338
  852MOL0     H15001   2.457   6.817  11.454  3.3135  0.8711  2.1094
  852MOL0     H15002   2.636   6.214  10.586  0.2244 -0.1974 -1.0343
  852MOL0     H15003   2.773   6.056  10.434  0.9740 -0.8435 -0.8032
  852MOL0     H15004   3.097   5.978  10.140  2.7085  0.6341 -2.2662
  852MOL0     H15005   3.155   5.806  10.013  0.2917 -1.0553  0.1798
  852MOL0     H15006   4.876   5.302   9.870  0.0363 -1.9530 -1.7387
  852MOL0     H15007   5.021   5.459   9.773 -0.9914 -1.4395 -2.0765
  852MOL0     H15008   5.540   5.522   9.725  0.4028 -1.6718 -2.0365
  852MOL0     H15009   5.694   5.600   9.574  1.1922  0.9727  0.5445
  852MOL0     H15010   5.577   5.853   9.241 -2.0493 -2.2836  1.1228
  852MOL0     H15011   5.592   5.985   9.361  0.6367 -1.1407  0.3067
  852MOL0     H15012   5.831   5.966   9.336  0.7559  3.8448 -1.2042
  852MOL0     H15013   5.746   6.035   9.197 -0.2755  2.7443  2.6766
  852MOL0     H15014   5.760   5.829   9.061 -0.2115 -0.9471  0.0975
  852MOL0     H15015   5.839   5.745   9.197  2.4545 -0.9346 -1.8006
  852MOL0     H15016   6.006   5.818   9.033 -3.1295  1.3978 -2.5895
  852MOL0     H15017   6.026   5.934   9.179  1.2089  3.5418 -1.7724
  852MOL0     H15018   5.956   6.182   8.858 -1.5391  0.7703  1.2477
  852MOL0     H15019   5.414   5.909   9.456 -0.0025  0.7573  1.2209
  852MOL0     H15020   5.237   5.790   9.589 -1.0448 -3.2781  1.0219
  853MOL0     O15021   1.708   1.451   1.502 -0.3334 -0.1362  0.1972
  853MOL0     C15022   1.797   1.372   1.540 -0.2731  0.0619 -0.5970
  853MOL0     O15023   1.774   1.253   1.593 -0.2524  0.4296  0.1111
  853MOL0     C15024   1.649   1.195   1.591  0.1664  0.3654  0.0134
  853MOL0     C15025   1.531   1.255   1.638  0.2867  0.6443  0.5666
  853MOL0     C15026   1.417   1.173   1.655  0.9898 -0.0862 -0.3554
  853MOL0     C15027   1.419   1.036   1.632  0.2159  0.4399 -0.4670
  853MOL0     O15028   1.324   0.944   1.666 -0.4323 -0.7507 -0.2413
  853MOL0     C15029   1.211   0.977   1.741  0.4676 -0.9260 -0.2151
  853MOL0     C15030   1.118   0.854   1.770 -0.0769  0.0166  0.8373
  853MOL0     C15031   1.000   0.887   1.862  0.6522  0.6488  0.3220
  853MOL0     C15032   1.037   0.950   1.996 -0.1809  0.7053 -1.4332
  853MOL0     C15033   0.912   0.976   2.079  0.9146 -0.8817 -1.1049
  853MOL0     C15034   0.933   1.074   2.205 -0.1846 -0.2208 -0.1002
  853MOL0     C15035   0.799   1.069   2.291  0.3403  0.2744 -0.0162
  853MOL0     C15036   0.744   1.202   2.334 -0.5822 -0.2738  1.0368
  853MOL0     N15037   0.613   1.187   2.395 -0.4506  0.2458  0.0938
  853MOL0     C15038   0.582   1.228   2.521  0.6177 -1.2079 -0.1086
  853MOL0     C15039   0.449   1.203   2.539  0.2516 -0.1094  0.2812
  853MOL0     C15040   0.370   1.235   2.659  0.1959 -0.4324 -0.1379
  853MOL0     C15041   0.252   1.143   2.663  0.4716 -1.1728  0.3559
  853MOL0     C15042   0.298   1.005   2.698  0.3102  0.0434 -1.4783
  853MOL0     C15043   0.214   0.920   2.786  0.8364 -0.5074  0.7176
  853MOL0     O15044   0.077   0.940   2.734 -0.2801 -0.7696 -0.9199
  853MOL0     C15045   0.035   0.842   2.643  0.3639  0.2240 -0.1684
  853MOL0     C15046   0.004   0.877   2.515  0.9625 -0.4735  0.6119
  853MOL0     C15047  -0.051   0.786   2.420 -0.2943 -1.2252  0.1949
  853MOL0     C15048  -0.089   0.848   2.294  0.1384 -0.1306  0.7544
  853MOL0     C15049  -0.065   0.661   2.460  0.0667  0.7683  0.0282
  853MOL0     C15050  -0.124   0.555   2.381 -0.1261  0.1850  0.5825
  853MOL0     O15051  -0.206   0.469   2.444  0.4554  0.2427  0.1973
  853MOL0     C15052  -0.317   0.430   2.386  0.9201 -0.0697 -0.3503
  853MOL0     C15053  -0.442   0.448   2.447  0.1522 -0.1162 -0.4658
  853MOL0     C15054  -0.560   0.422   2.385  0.2427  0.0850  0.5810
  853MOL0     C15055  -0.568   0.355   2.258 -0.0462 -0.2443 -1.2784
  853MOL0     O15056  -0.684   0.309   2.200  0.1266 -0.1590 -1.6412
  853MOL0     C15057  -0.758   0.220   2.304  0.0348 -0.2542  0.7488
  853MOL0     C15058  -0.866   0.136   2.237 -0.1903  0.7652  0.2087
  853MOL0     C15059  -0.983   0.114   2.347 -0.7611 -0.3706  0.9409
  853MOL0     C15060  -0.944   0.001   2.443 -1.1357  0.0444 -1.3769
  853MOL0     C15061  -1.066  -0.030   2.530 -0.2677  0.0503  0.4589
  853MOL0     C15062  -1.079  -0.156   2.612  0.0827 -0.3648  0.5473
  853MOL0     C15063  -1.010  -0.290   2.574  0.2048 -0.9375 -0.1304
  853MOL0     C15064  -1.038  -0.400   2.670  0.0673 -0.8774 -0.4157
  853MOL0    Cl15065  -1.005  -0.352   2.841 -0.3769 -0.1722 -0.3724
  853MOL0     C15066  -0.448   0.345   2.187  0.1650 -0.0526  0.2445
  853MOL0     C15067  -0.323   0.373   2.252 -0.4049  0.3380 -0.4648
  853MOL0     O15068  -0.078   0.536   2.268  0.4375  0.1717 -0.3388
  853MOL0     C15069  -0.026   0.620   2.593  0.4088  0.1294 -0.4139
  853MOL0     C15070   0.020   0.710   2.686 -0.6299  0.4042 -0.6907
  853MOL0     N15071   0.404   1.139   2.421 -0.4453  1.1088  0.0405
  853MOL0     N15072   0.497   1.135   2.330 -0.3012 -0.4950  0.3565
  853MOL0     C15073   1.534   0.977   1.568  0.5413  0.3077  0.1728
  853MOL0     C15074   1.653   1.059   1.555 -0.1118  1.1276  0.3122
  853MOL0     C15075   1.936   1.420   1.531  0.0926  0.1786  0.7931
  853MOL0     C15076   2.050   1.340   1.562 -0.0894 -0.1837  0.6847
  853MOL0     C15077   2.175   1.390   1.531 -0.5235  0.1516  0.4805
  853MOL0     C15078   2.194   1.517   1.473 -0.4367  0.6971 -0.0799
  853MOL0     O15079   2.311   1.566   1.433  0.8508  1.0630  0.0415
  853MOL0     C15080   2.430   1.519   1.487  0.3744  0.3608  0.2834
  853MOL0     C15081   2.547   1.608   1.468  0.2732 -0.6177 -0.0783
  853MOL0     C15082   2.538   1.730   1.560  0.2989 -0.1786 -0.4047
  853MOL0     C15083   2.650   1.825   1.513 -0.3547  0.4334  0.1828
  853MOL0     C15084   2.666   1.931   1.605 -0.4362 -0.7435  0.4060
  853MOL0     C15085   2.700   2.033   1.668  0.4927  0.0976  0.1511
  853MOL0     C15086   2.090   1.597   1.450  0.2065 -0.0917 -0.6540
  853MOL0     C15087   1.958   1.544   1.472  0.4120  1.4277  0.7819
  853MOL0     H15088   1.533   1.351   1.690  1.2037  0.2378  1.2971
  853MOL0     H15089   1.330   1.213   1.705  1.6653 -0.2860  1.0258
  853MOL0     H15090   1.231   1.023   1.838 -0.0848  3.2287 -1.8812
  853MOL0     H15091   1.157   1.051   1.682  1.9087 -0.5637 -1.1195
  853MOL0     H15092   1.086   0.831   1.668  0.6469  1.0234  0.3625
  853MOL0     H15093   1.180   0.769   1.801  0.6400 -0.4644 -1.7002
  853MOL0     H15094   0.925   0.942   1.805  1.9361 -0.1335 -2.2614
  853MOL0     H15095   0.947   0.792   1.873  0.3106  0.5303 -1.8893
  853MOL0     H15096   1.086   0.866   2.045 -3.2110 -0.8844 -0.8836
  853MOL0     H15097   1.084   1.049   1.993  0.4675  0.6103  1.6678
  853MOL0     H15098   0.829   1.020   2.023 -0.0814 -2.1523 -0.6823
  853MOL0     H15099   0.876   0.883   2.125  1.6085 -1.1773 -1.1442
  853MOL0     H15100   1.019   1.043   2.265  0.9405  3.4987  0.4284
  853MOL0     H15101   0.966   1.169   2.163 -0.5714 -0.9247 -2.0937
  853MOL0     H15102   0.720   1.035   2.223  2.0582  0.0621 -2.0137
  853MOL0     H15103   0.808   0.999   2.375  2.0888 -0.3976 -0.7205
  853MOL0     H15104   0.741   1.264   2.244 -1.8460 -1.5105  0.1812
  853MOL0     H15105   0.810   1.250   2.407 -2.4635  1.9143  1.3991
  853MOL0     H15106   0.639   1.282   2.597  0.1234  2.9207 -2.3716
  853MOL0     H15107   0.416   1.241   2.758 -3.3824 -0.1291  1.6619
  853MOL0     H15108   0.343   1.338   2.633 -0.8967 -0.3752  1.0845
  853MOL0     H15109   0.202   1.134   2.567  2.7693  1.1834 -1.1913
  853MOL0     H15110   0.186   1.169   2.747  1.2386 -2.6194  1.4436
  853MOL0     H15111   0.386   1.009   2.762 -0.3397  0.7056 -0.6113
  853MOL0     H15112   0.332   0.947   2.611 -1.7346 -2.6176 -0.6599
  853MOL0     H15113   0.212   0.961   2.887 -1.6760  2.4327 -0.3636
  853MOL0     H15114   0.242   0.815   2.785 -1.0948 -1.0708 -1.7736
  853MOL0     H15115   0.004   0.981   2.485  0.2293 -1.0819 -1.7662
  853MOL0     H15116  -0.174   0.915   2.312  1.0511  1.0806  0.7573
  853MOL0     H15117  -0.013   0.910   2.245 -0.3744 -1.6224 -2.1324
  853MOL0     H15118  -0.125   0.775   2.221  1.0939  0.5145 -0.4143
  853MOL0     H15119  -0.447   0.477   2.551 -2.2917 -1.4870 -0.1546
  853MOL0     H15120  -0.659   0.430   2.430 -1.1259  0.7559 -2.2968
  853MOL0     H15121  -0.697   0.152   2.365 -3.8780 -4.0096  0.9495
  853MOL0     H15122  -0.813   0.282   2.375 -2.6260 -1.0006 -0.5244
  853MOL0     H15123  -0.903   0.181   2.144 -4.6033 -0.6681  1.0065
  853MOL0     H15124  -0.825   0.037   2.217 -0.2591  0.1518  2.8172
  853MOL0     H15125  -1.076   0.090   2.293  0.8213 -2.2231 -1.1568
  853MOL0     H15126  -0.994   0.206   2.405 -0.0609  2.1133 -2.5811
  853MOL0     H15127  -0.927  -0.092   2.389  2.7229 -0.2871  0.0714
  853MOL0     H15128  -0.856   0.022   2.505 -3.2530 -1.0869  2.4009
  853MOL0     H15129  -1.151  -0.034   2.461  1.7099 -0.6636 -2.0942
  853MOL0     H15130  -1.085   0.049   2.603 -4.7995  1.3884 -1.8355
  853MOL0     H15131  -1.023  -0.144   2.705  0.8004 -3.7610  0.7054
  853MOL0     H15132  -1.187  -0.159   2.630 -0.0674  4.3462  1.6057
  853MOL0     H15133  -0.901  -0.282   2.568  0.1121  0.9137 -0.0767
  853MOL0     H15134  -1.065  -0.325   2.486  0.1552 -0.0939 -0.4435
  853MOL0     H15135  -0.986  -0.492   2.642  2.9058  1.2696 -2.7448
  853MOL0     H15136  -1.146  -0.418   2.666 -0.2985  0.6823  1.2301
  853MOL0     H15137  -0.458   0.285   2.097 -2.1378  1.2542 -0.4635
  853MOL0     H15138  -0.228   0.356   2.204  0.0521 -2.0714  1.0777
  853MOL0     H15139  -0.028   0.516   2.624  1.0557 -0.3556 -1.9277
  853MOL0     H15140   0.039   0.681   2.789  0.3039  1.3138 -0.5980
  853MOL0     H15141   1.519   0.878   1.528 -1.6129  1.9107 -3.4465
  853MOL0     H15142   1.738   1.014   1.505 -1.2973 -2.8369  1.5241
  853MOL0     H15143   2.030   1.238   1.593 -0.2469 -1.4710 -3.0906
  853MOL0     H15144   2.255   1.316   1.534  0.7401  1.4641  0.5811
  853MOL0     H15145   2.415   1.502   1.594  3.5426 -0.6215  0.6643
  853MOL0     H15146   2.457   1.422   1.444 -0.8560  0.1172  0.0239
  853MOL0     H15147   2.551   1.645   1.365 -0.3031 -0.2330  0.0288
  853MOL0     H15148   2.640   1.557   1.493  0.1246 -0.6174  0.4889
  853MOL0     H15149   2.558   1.698   1.662  0.0076 -0.6323 -0.4870
  853MOL0     H15150   2.443   1.781   1.545  0.1711  0.1879  1.4554
  853MOL0     H15151   2.641   1.863   1.411  0.4717 -0.1845 -0.1376
  853MOL0     H15152   2.741   1.765   1.519 -1.6621 -1.5672  1.4122
  853MOL0     H15153   2.729   2.120   1.722 -3.4406  1.2620  0.7402
  853MOL0     H15154   2.115   1.698   1.419 -2.5703  1.4325  1.5688
  853MOL0     H15155   1.873   1.609   1.453  0.7021  1.8634  0.9773
  854MOL0     O15156   7.940   8.547   7.079 -1.6297 -0.6511 -0.6216
  854MOL0     C15157   7.959   8.632   6.994 -0.5322  0.0496  0.6151
  854MOL0     O15158   8.022   8.618   6.869  0.3310 -0.0936 -0.4119
  854MOL0     C15159   8.075   8.499   6.834 -1.0544 -0.9501  0.1988
  854MOL0     C15160   8.075   8.489   6.689  0.2384  0.4161 -0.5172
  854MOL0     C15161   8.140   8.375   6.632  0.2546 -0.0067  0.0690
  854MOL0     C15162   8.183   8.268   6.709  1.0806  0.1794  0.2622
  854MOL0     O15163   8.234   8.148   6.665  0.0508  0.8438  0.8975
  854MOL0     C15164   8.213   8.116   6.523 -0.2856  0.6994 -0.3636
  854MOL0     C15165   8.229   7.965   6.511 -0.1310  0.1807 -0.1675
  854MOL0     C15166   8.130   7.887   6.602 -0.7055  0.7193  0.5262
  854MOL0     C15167   8.155   7.735   6.597  0.0978  0.8563  0.3459
  854MOL0     C15168   8.059   7.678   6.707 -0.1182  0.1700  0.0134
  854MOL0     C15169   8.031   7.525   6.688  0.1676 -0.1303 -0.1765
  854MOL0     C15170   8.157   7.452   6.715  1.4029  0.2120 -1.0159
  854MOL0     C15171   8.145   7.299   6.711  0.0456  0.0040 -0.6339
  854MOL0     N15172   8.267   7.229   6.741 -0.0312  0.1231 -0.0517
  854MOL0     C15173   8.305   7.180   6.865 -0.4935  0.4536  0.5016
  854MOL0     C15174   8.421   7.118   6.840 -0.6066 -0.2675  0.1756
  854MOL0     C15175   8.515   7.055   6.940 -0.1666 -0.0212  0.0854
  854MOL0     C15176   8.642   7.124   6.984 -0.6376 -0.4081 -0.2617
  854MOL0     C15177   8.636   7.254   7.066 -0.1564  0.0176  0.7585
  854MOL0     C15178   8.746   7.349   7.032 -0.0343 -1.1392 -0.6223
  854MOL0     O15179   8.706   7.487   7.031  0.0320  0.0975 -0.1672
  854MOL0     C15180   8.805   7.575   6.996  0.8279  0.0369  0.2799
  854MOL0     C15181   8.776   7.716   7.006  0.2847  0.3198 -0.6163
  854MOL0     C15182   8.868   7.813   6.966 -0.4813  0.2121 -0.8765
  854MOL0     C15183   8.811   7.958   6.967  0.2599  0.4862 -0.3521
  854MOL0     C15184   9.003   7.778   6.927  0.3023 -0.5525  0.1498
  854MOL0     C15185   9.118   7.876   6.922  0.1007 -0.1766 -0.5685
  854MOL0     O15186   9.237   7.817   6.913  0.1251  0.0754  0.3403
  854MOL0     C15187   9.341   7.902   6.893  0.3778  1.1251  0.1239
  854MOL0     C15188   9.420   7.917   7.006  0.3261 -0.0296 -0.3249
  854MOL0     C15189   9.530   7.990   6.997 -0.1793  0.6593 -0.3341
  854MOL0     C15190   9.579   8.035   6.872 -0.1123 -0.2558  0.3568
  854MOL0     O15191   9.697   8.105   6.865  0.4086  0.6728  0.3620
  854MOL0     C15192   9.810   8.074   6.948  0.4853 -0.3211 -0.1376
  854MOL0     C15193   9.903   7.968   6.891  0.5817  0.3847  0.3059
  854MOL0     C15194   9.854   7.822   6.895  0.1122  0.3760 -0.1242
  854MOL0     C15195   9.964   7.723   6.894 -0.8115  0.7456 -0.0835
  854MOL0     C15196  10.030   7.693   7.030  0.2612  0.0455 -0.2508
  854MOL0     C15197  10.127   7.571   7.001  0.0334 -0.3383 -0.6467
  854MOL0     C15198  10.167   7.490   7.129 -0.1887  0.3794 -0.5643
  854MOL0     C15199  10.073   7.373   7.172  0.0797  0.4008  0.3270
  854MOL0    Cl15200  10.093   7.314   7.342  0.1166  0.0803  0.3060
  854MOL0     C15201   9.507   8.011   6.755  0.1805  0.4002 -0.1291
  854MOL0     C15202   9.381   7.948   6.770 -0.0487  0.0558  0.2073
  854MOL0     O15203   9.090   7.993   6.924 -1.1754 -0.3195 -0.0536
  854MOL0     C15204   9.027   7.646   6.919  0.3590 -0.1546  1.0869
  854MOL0     C15205   8.937   7.545   6.957 -0.0202  0.7814 -1.3386
  854MOL0     N15206   8.451   7.113   6.707  0.8464  0.4934 -0.2776
  854MOL0     N15207   8.355   7.171   6.649  0.4638 -0.4692 -0.1897
  854MOL0     C15208   8.186   8.286   6.852  0.1882  0.2094  1.3582
  854MOL0     C15209   8.144   8.401   6.914  1.9524 -0.4199 -0.5796
  854MOL0     C15210   7.928   8.770   7.028  0.1413  0.0426 -0.5971
  854MOL0     C15211   8.004   8.874   6.979 -0.8027  0.1086  0.5416
  854MOL0     C15212   8.010   9.005   7.036 -0.2642 -0.8544  0.1802
  854MOL0     C15213   7.930   9.034   7.144 -0.3255 -0.5639 -0.2555
  854MOL0     O15214   7.921   9.141   7.220 -0.0873 -0.5056 -0.2147
  854MOL0     C15215   8.005   9.258   7.199  1.6683 -0.4177 -0.1834
  854MOL0     C15216   7.943   9.382   7.265  0.1480  0.5656  1.1206
  854MOL0     C15217   7.804   9.409   7.224  0.4841  0.5965 -0.3635
  854MOL0     C15218   7.770   9.557   7.248 -0.1441  0.4714  1.4547
  854MOL0     C15219   7.822   9.633   7.131 -0.3891  0.3964  0.2107
  854MOL0     C15220   7.862   9.710   7.037 -0.4415  0.9427 -0.1492
  854MOL0     C15221   7.844   8.939   7.187 -0.7314 -0.0784 -0.0375
  854MOL0     C15222   7.830   8.808   7.126 -1.0619  0.6543 -0.2572
  854MOL0     H15223   8.036   8.568   6.625 -0.2852 -0.0453 -0.7804
  854MOL0     H15224   8.145   8.376   6.523 -1.2705 -0.6939 -0.0360
  854MOL0     H15225   8.121   8.156   6.481 -0.9938 -1.6819 -1.2544
  854MOL0     H15226   8.289   8.164   6.461  1.2022  0.3143  1.0701
  854MOL0     H15227   8.195   7.935   6.412 -1.3371  0.9884 -0.0088
  854MOL0     H15228   8.335   7.936   6.520 -0.7000 -1.9746  0.2980
  854MOL0     H15229   8.138   7.913   6.708  0.8741 -0.1559  0.6541
  854MOL0     H15230   8.029   7.914   6.569 -1.5722 -0.9853  1.6868
  854MOL0     H15231   8.113   7.698   6.503 -0.0791  0.8759  0.4156
  854MOL0     H15232   8.257   7.701   6.615 -0.4242 -0.7977  0.3464
  854MOL0     H15233   8.107   7.699   6.803  0.2105  0.7093 -0.2665
  854MOL0     H15234   7.958   7.716   6.725 -0.5863 -0.6976 -0.7117
  854MOL0     H15235   7.946   7.492   6.749  0.1899 -0.4997 -0.3430
  854MOL0     H15236   7.999   7.513   6.584  0.9197  1.6511 -0.6428
  854MOL0     H15237   8.229   7.474   6.636  1.3817  0.4023 -0.9831
  854MOL0     H15238   8.203   7.486   6.809  3.0819  0.2864 -1.8261
  854MOL0     H15239   8.115   7.265   6.611  2.9275 -0.2210 -1.4958
  854MOL0     H15240   8.061   7.259   6.769  0.4443  2.3624  1.7391
  854MOL0     H15241   8.265   7.202   6.963  0.7506  2.3782  0.6213
  854MOL0     H15242   8.449   7.050   7.027 -2.6410  0.3591 -1.6444
  854MOL0     H15243   8.535   6.951   6.913  0.2984 -0.0559  0.5528
  854MOL0     H15244   8.698   7.140   6.891 -2.5933 -1.8162 -1.7919
  854MOL0     H15245   8.697   7.061   7.054  0.7807  2.0639  0.9916
  854MOL0     H15246   8.622   7.247   7.174 -0.4555 -2.2988  0.6006
  854MOL0     H15247   8.545   7.295   7.021 -0.4967 -0.1606  1.2703
  854MOL0     H15248   8.790   7.319   6.936 -0.6485  0.6688 -1.5231
  854MOL0     H15249   8.827   7.342   7.105 -0.5770 -2.9460 -0.1453
  854MOL0     H15250   8.680   7.755   7.040 -0.6184  0.1140 -2.7580
  854MOL0     H15251   8.711   7.943   7.010 -0.4348 -0.5647 -2.1997
  854MOL0     H15252   8.860   8.038   7.023  0.8321 -1.0145  1.3677
  854MOL0     H15253   8.783   7.986   6.865 -2.1816  2.6790  0.8005
  854MOL0     H15254   9.393   7.879   7.104  0.1240 -0.2847 -0.4788
  854MOL0     H15255   9.585   8.007   7.089 -0.5801  0.9324 -0.1459
  854MOL0     H15256   9.869   8.165   6.960  0.2467  0.2626 -2.9032
  854MOL0     H15257   9.788   8.061   7.055 -0.3322  1.0582 -0.1223
  854MOL0     H15258   9.913   7.992   6.784 -0.2866  3.5591  0.8424
  854MOL0     H15259   9.993   7.976   6.952  1.6103 -1.7284 -0.8054
  854MOL0     H15260   9.776   7.808   6.820  0.3623  1.5661 -0.6218
  854MOL0     H15261   9.786   7.793   6.976  1.4521 -0.3543  0.7824
  854MOL0     H15262   9.918   7.630   6.859 -0.9335 -0.8213  3.7687
  854MOL0     H15263  10.041   7.751   6.822  1.1967 -1.7852  0.9155
  854MOL0     H15264   9.957   7.680   7.111 -0.6845  2.5040 -0.6112
  854MOL0     H15265  10.086   7.783   7.057 -1.0825  1.0570 -0.7430
  854MOL0     H15266  10.080   7.509   6.925 -1.5695  0.6033 -0.4680
  854MOL0     H15267  10.220   7.614   6.961 -0.0598 -1.5318 -2.2080
  854MOL0     H15268  10.155   7.557   7.214 -1.8834 -4.0723  3.1358
  854MOL0     H15269  10.268   7.449   7.123  0.0816  1.2665 -3.0820
  854MOL0     H15270  10.102   7.294   7.102  1.3426 -0.1083  1.3830
  854MOL0     H15271   9.967   7.398   7.162  0.0510 -0.6453 -3.5909
  854MOL0     H15272   9.538   8.036   6.654 -0.4354 -0.3257 -0.5105
  854MOL0     H15273   9.310   7.938   6.688 -0.0200  0.2467  0.1594
  854MOL0     H15274   9.126   7.610   6.894  0.3059  0.2427  0.2416
  854MOL0     H15275   8.978   7.445   6.954 -1.9835 -0.0540 -1.2320
  854MOL0     H15276   8.211   8.198   6.911 -1.5113 -1.5646 -0.4111
  854MOL0     H15277   8.137   8.413   7.021 -5.7987 -1.5637 -0.3702
  854MOL0     H15278   8.067   8.856   6.892  0.4314 -0.6422  1.5504
  854MOL0     H15279   8.088   9.073   7.003 -1.2240  0.6143  0.8319
  854MOL0     H15280   8.101   9.243   7.250  1.6423 -0.9740 -0.2930
  854MOL0     H15281   8.011   9.277   7.092 -1.5648 -1.6563 -0.6900
  854MOL0     H15282   8.019   9.460   7.249  2.2089 -0.9243  2.9187
  854MOL0     H15283   7.957   9.371   7.373  0.9754 -1.7152  0.8284
  854MOL0     H15284   7.731   9.344   7.273 -1.4702  2.7884 -0.1557
  854MOL0     H15285   7.787   9.382   7.119 -1.4213  1.1537 -0.2367
  854MOL0     H15286   7.799   9.599   7.345  0.1504  3.3695  0.2208
  854MOL0     H15287   7.661   9.571   7.238 -0.0034  1.5067  1.2143
  854MOL0     H15288   7.880   9.765   6.947  0.9351 -1.5363 -1.4918
  854MOL0     H15289   7.788   8.968   7.275  0.9414 -1.1257  1.4330
  854MOL0     H15290   7.749   8.743   7.159 -1.9655  1.6387 -0.4684
  855MOL0     O15291   3.501   2.979   2.355  0.4529  0.0755 -0.0780
  855MOL0     C15292   3.552   2.869   2.337 -0.0711  0.1864  0.4414
  855MOL0     O15293   3.484   2.756   2.355  0.2352 -0.1527 -0.0379
  855MOL0     C15294   3.376   2.754   2.450 -0.3041  0.1187  0.6418
  855MOL0     C15295   3.371   2.836   2.560  0.7619 -0.1264 -0.2332
  855MOL0     C15296   3.258   2.839   2.643 -1.0146  0.8803 -0.2896
  855MOL0     C15297   3.162   2.750   2.617 -0.1704 -0.6561  0.3014
  855MOL0     O15298   3.044   2.749   2.694  1.1474 -0.1660 -0.1017
  855MOL0     C15299   3.023   2.846   2.796  0.0955 -0.0152 -0.3130
  855MOL0     C15300   2.894   2.844   2.873  0.2574 -1.0540  0.5508
  855MOL0     C15301   2.772   2.875   2.799 -0.0946  0.4716  0.5329
  855MOL0     C15302   2.722   2.779   2.690  0.5299  0.0658  0.4816
  855MOL0     C15303   2.682   2.641   2.748 -0.3063  1.0202  0.3288
  855MOL0     C15304   2.582   2.565   2.655 -0.2656 -0.2340  0.5615
  855MOL0     C15305   2.632   2.493   2.528  1.2010  0.5347  0.0467
  855MOL0     C15306   2.769   2.413   2.545  1.3761 -0.6837 -0.5571
  855MOL0     N15307   2.797   2.338   2.428 -0.1000 -0.4627  0.6862
  855MOL0     C15308   2.797   2.380   2.296  0.6781 -0.7571 -0.2274
  855MOL0     C15309   2.780   2.265   2.224  0.4932  0.1256 -0.7618
  855MOL0     C15310   2.778   2.240   2.076 -0.0286  0.6696  0.4032
  855MOL0     C15311   2.924   2.246   2.023 -0.5345  0.3739 -0.7497
  855MOL0     C15312   2.988   2.391   2.027 -0.2114  0.9304  0.4994
  855MOL0     C15313   3.121   2.386   1.952  1.0156 -0.3302  0.8360
  855MOL0     O15314   3.206   2.490   1.986  0.3845 -0.7920  0.1482
  855MOL0     C15315   3.334   2.488   1.946 -0.6411 -0.1270  0.2803
  855MOL0     C15316   3.384   2.403   1.852 -0.2482  0.8185 -0.3736
  855MOL0     C15317   3.519   2.382   1.825 -0.2876  0.5447  0.2695
  855MOL0     C15318   3.557   2.289   1.704  0.0095  0.2859 -0.3742
  855MOL0     C15319   3.615   2.462   1.894  0.0493 -0.0101  0.0694
  855MOL0     C15320   3.764   2.453   1.873  0.7014  0.2730 -0.4315
  855MOL0     O15321   3.821   2.337   1.829 -1.3522  0.1856  0.2542
  855MOL0     C15322   3.962   2.337   1.850  0.3808  0.7369 -0.4677
  855MOL0     C15323   4.017   2.309   1.974  1.3923 -0.2759 -0.0638
  855MOL0     C15324   4.154   2.289   1.981 -0.3287  0.2943 -0.7742
  855MOL0     C15325   4.235   2.307   1.871 -0.1616 -1.2204  0.7204
  855MOL0     O15326   4.367   2.271   1.889  1.0409  1.6006  0.0378
  855MOL0     C15327   4.437   2.219   1.774 -0.6557 -0.2566  0.5413
  855MOL0     C15328   4.586   2.160   1.799 -0.4976  0.2012  0.2443
  855MOL0     C15329   4.667   2.254   1.887  0.2207  0.2619 -0.0177
  855MOL0     C15330   4.701   2.386   1.817  0.0664  0.0294  0.3176
  855MOL0     C15331   4.801   2.471   1.884 -0.7996  0.2764  0.1930
  855MOL0     C15332   4.835   2.602   1.806 -0.5695  0.1343 -0.6339
  855MOL0     C15333   4.977   2.654   1.866 -0.7832 -0.0364  0.4810
  855MOL0     C15334   5.009   2.800   1.813 -0.3784  0.8749 -0.3195
  855MOL0    Cl15335   5.179   2.849   1.859 -0.0442  0.4129 -0.2612
  855MOL0     C15336   4.183   2.351   1.746 -0.6428 -0.2907 -0.4125
  855MOL0     C15337   4.053   2.376   1.747 -0.5216  0.1792 -0.0482
  855MOL0     O15338   3.821   2.561   1.891  0.3545  0.4271  0.5225
  855MOL0     C15339   3.568   2.557   1.988 -0.6036  0.1600 -1.7489
  855MOL0     C15340   3.433   2.566   2.015  0.3720 -0.6970  0.4374
  855MOL0     N15341   2.792   2.155   2.306 -0.3350 -0.0085 -0.9150
  855MOL0     N15342   2.805   2.202   2.428  0.5039  0.6097  0.0151
  855MOL0     C15343   3.161   2.666   2.506  0.3222 -1.2425  0.3350
  855MOL0     C15344   3.272   2.665   2.419  0.6046 -0.0275 -0.0942
  855MOL0     C15345   3.689   2.844   2.286 -0.9310  0.1688  0.3042
  855MOL0     C15346   3.758   2.719   2.302 -0.7927  0.1537 -0.0656
  855MOL0     C15347   3.887   2.701   2.243  0.4743 -0.0978 -0.5305
  855MOL0     C15348   3.946   2.801   2.166  0.6316  1.1793 -0.2124
  855MOL0     O15349   4.046   2.782   2.081 -0.0773  0.0859  0.4125
  855MOL0     C15350   4.106   2.656   2.050  0.9315  0.4833 -0.9114
  855MOL0     C15351   4.204   2.628   2.167 -0.3432  0.0388 -0.3932
  855MOL0     C15352   4.334   2.721   2.155 -0.0509 -0.0664  0.4702
  855MOL0     C15353   4.385   2.780   2.293  0.5906  0.0736  0.2666
  855MOL0     C15354   4.505   2.862   2.284 -0.4196  0.2797 -0.9752
  855MOL0     C15355   4.619   2.915   2.295  0.0043  0.6350  0.4859
  855MOL0     C15356   3.879   2.923   2.156 -0.5531  0.9106 -0.3083
  855MOL0     C15357   3.744   2.941   2.202 -0.9156 -0.3566 -0.4354
  855MOL0     H15358   3.454   2.897   2.596  0.1827  1.4111 -1.3752
  855MOL0     H15359   3.257   2.913   2.722  0.0721  1.0998 -0.4610
  855MOL0     H15360   3.102   2.835   2.870 -1.3986 -1.8262  1.1235
  855MOL0     H15361   3.022   2.945   2.749  1.5553 -1.0835 -2.8305
  855MOL0     H15362   2.881   2.748   2.922 -0.3038 -0.9506  0.6054
  855MOL0     H15363   2.912   2.926   2.944  1.0060 -1.5912  0.9971
  855MOL0     H15364   2.690   2.882   2.872 -1.3011 -0.4291 -0.6827
  855MOL0     H15365   2.774   2.971   2.747  0.4497 -0.9093 -2.1901
  855MOL0     H15366   2.630   2.819   2.645 -1.5740 -4.0344  0.6521
  855MOL0     H15367   2.803   2.762   2.619  1.7809  0.6445  1.7078
  855MOL0     H15368   2.764   2.576   2.780  0.2315 -0.0478 -2.8115
  855MOL0     H15369   2.624   2.663   2.838 -1.0391 -0.9315  0.3568
  855MOL0     H15370   2.532   2.481   2.703 -2.5283 -1.5374 -3.5366
  855MOL0     H15371   2.500   2.631   2.625  1.3636  1.1588 -1.1291
  855MOL0     H15372   2.545   2.436   2.496  0.1605  0.3354  2.8831
  855MOL0     H15373   2.647   2.568   2.450 -0.0680 -0.0361 -0.7737
  855MOL0     H15374   2.761   2.338   2.625 -0.0703  0.9896  0.9599
  855MOL0     H15375   2.842   2.493   2.557  0.6726  0.2078 -1.9775
  855MOL0     H15376   2.773   2.475   2.249  0.6620 -0.6047  0.0819
  855MOL0     H15377   2.747   2.135   2.065  0.4061  0.4125  1.5180
  855MOL0     H15378   2.712   2.309   2.023 -0.1650  0.4469  0.2814
  855MOL0     H15379   2.922   2.206   1.922  0.6022  0.5170 -0.8386
  855MOL0     H15380   2.989   2.179   2.080 -0.5400  1.3506  0.4694
  855MOL0     H15381   3.000   2.429   2.129  1.4750  1.8009  0.0223
  855MOL0     H15382   2.925   2.467   1.980 -1.0086 -0.2534 -0.4108
  855MOL0     H15383   3.098   2.387   1.845 -0.4823  0.8605  1.1403
  855MOL0     H15384   3.161   2.286   1.972  1.0137 -0.7969 -1.2499
  855MOL0     H15385   3.304   2.355   1.796 -2.4053  2.8411  0.7862
  855MOL0     H15386   3.618   2.206   1.741  1.9777  3.0738  3.2369
  855MOL0     H15387   3.468   2.258   1.648 -1.0733  3.8947 -0.9127
  855MOL0     H15388   3.617   2.336   1.625  0.0712  2.4408  0.8900
  855MOL0     H15389   3.958   2.289   2.063  2.0644  4.3452  1.7303
  855MOL0     H15390   4.209   2.261   2.071 -0.7306 -1.7000 -1.0911
  855MOL0     H15391   4.382   2.151   1.708  1.6768 -0.1507 -1.6712
  855MOL0     H15392   4.458   2.308   1.714  2.1152 -0.9022  0.4246
  855MOL0     H15393   4.591   2.057   1.832  2.6292  1.0099  2.7784
  855MOL0     H15394   4.625   2.156   1.696  1.8142 -0.9259  1.0874
  855MOL0     H15395   4.760   2.199   1.905 -1.6605 -3.1675  0.2103
  855MOL0     H15396   4.616   2.277   1.981 -1.5501 -0.0247 -0.8654
  855MOL0     H15397   4.741   2.356   1.719  2.9081 -0.9986  1.6976
  855MOL0     H15398   4.612   2.442   1.787  0.0265 -0.2572 -0.1095
  855MOL0     H15399   4.892   2.410   1.888 -2.3767 -2.3247 -1.1307
  855MOL0     H15400   4.779   2.491   1.990 -1.0586 -0.2506  0.2420
  855MOL0     H15401   4.840   2.588   1.698 -1.4993 -1.7167 -0.4724
  855MOL0     H15402   4.759   2.672   1.842 -0.4394 -1.1044  2.3144
  855MOL0     H15403   5.053   2.582   1.836 -1.3308 -1.3688  2.1028
  855MOL0     H15404   4.968   2.650   1.975 -1.4639  0.4335  0.4532
  855MOL0     H15405   4.936   2.863   1.866  2.4145  0.6247  4.4142
  855MOL0     H15406   4.996   2.798   1.705  2.3126 -2.6256 -0.7435
  855MOL0     H15407   4.228   2.355   1.648 -0.5188  2.0296 -0.3293
  855MOL0     H15408   3.998   2.415   1.662 -0.9815  0.1106  0.2136
  855MOL0     H15409   3.633   2.623   2.044 -2.6409 -0.6216  1.7810
  855MOL0     H15410   3.401   2.638   2.090 -2.1103 -1.9744  0.7072
  855MOL0     H15411   3.079   2.598   2.485  0.7599 -1.2977 -1.4228
  855MOL0     H15412   3.283   2.599   2.334 -1.0242  1.2123 -1.3349
  855MOL0     H15413   3.718   2.633   2.354  0.1871 -1.1594 -1.3981
  855MOL0     H15414   3.948   2.611   2.251  2.6315  1.4585  2.4379
  855MOL0     H15415   4.030   2.578   2.052  3.1441 -1.8290  1.4534
  855MOL0     H15416   4.159   2.655   1.955  0.9631  1.1564 -0.9072
  855MOL0     H15417   4.248   2.529   2.155  2.0779  1.0485 -0.3914
  855MOL0     H15418   4.160   2.635   2.267  2.5692 -1.0589  1.0696
  855MOL0     H15419   4.322   2.811   2.094  0.8104 -0.7247 -0.6908
  855MOL0     H15420   4.418   2.661   2.120  0.1009  0.6013 -0.3368
  855MOL0     H15421   4.418   2.706   2.367 -0.5405  0.5476  1.2684
  855MOL0     H15422   4.310   2.828   2.356  1.4553  1.8859 -0.0196
  855MOL0     H15423   4.715   2.960   2.312  2.3316 -2.5841 -2.5843
  855MOL0     H15424   3.927   2.995   2.089 -2.0858 -0.6481 -3.2815
  855MOL0     H15425   3.696   3.036   2.185 -0.7927 -0.6445 -2.8130
  856MOL0     O15426   1.904  10.346   9.671  0.3738 -0.3974 -0.0100
  856MOL0     C15427   1.908  10.316   9.790 -0.0694  0.3523  0.2975
  856MOL0     O15428   1.954  10.196   9.841 -0.3644 -0.5963 -1.3351
  856MOL0     C15429   2.000  10.095   9.754 -0.3966  0.0918  0.0876
  856MOL0     C15430   1.925  10.033   9.652 -0.9462  0.5367 -0.4268
  856MOL0     C15431   1.972   9.918   9.588  0.0346  1.0110  0.0677
  856MOL0     C15432   2.094   9.856   9.629  0.8831 -0.7314 -0.4626
  856MOL0     O15433   2.123   9.747   9.557 -0.2291  0.0253  0.7141
  856MOL0     C15434   2.228   9.655   9.599 -0.4888 -0.5718 -0.4931
  856MOL0     C15435   2.226   9.527   9.517 -0.5644  0.9417  0.4759
  856MOL0     C15436   2.088   9.447   9.542  0.2363 -1.0693  0.5260
  856MOL0     C15437   2.113   9.301   9.509  0.2531 -0.1790  0.2293
  856MOL0     C15438   1.989   9.215   9.523  0.0357  0.3988 -0.5244
  856MOL0     C15439   2.024   9.061   9.496 -0.3161  0.1030 -0.3049
  856MOL0     C15440   2.111   9.010   9.612 -0.0950 -0.7440  0.2327
  856MOL0     C15441   2.111   8.859   9.630  0.1679  0.0169 -0.3069
  856MOL0     N15442   2.195   8.820   9.740  0.1934 -1.2569 -0.4288
  856MOL0     C15443   2.332   8.814   9.746  0.7934 -0.5132  0.0628
  856MOL0     C15444   2.357   8.754   9.864  0.0303  0.1057 -0.3160
  856MOL0     C15445   2.491   8.728   9.930  0.0267 -0.0232 -0.6723
  856MOL0     C15446   2.575   8.846   9.985  0.4248  0.0751 -0.3867
  856MOL0     C15447   2.499   8.912  10.099 -0.1397  0.0935 -0.1462
  856MOL0     C15448   2.581   9.028  10.160  0.2537 -0.4279 -0.9477
  856MOL0     O15449   2.548   9.070  10.300 -0.3233 -0.3524  0.0689
  856MOL0     C15450   2.608   9.174  10.358 -0.1455  0.0555 -0.1053
  856MOL0     C15451   2.569   9.218  10.481 -0.9494  0.1012  0.0928
  856MOL0     C15452   2.628   9.324  10.550 -1.2670  0.4975 -0.0555
  856MOL0     C15453   2.571   9.358  10.687  0.7964 -0.0815 -0.0086
  856MOL0     C15454   2.755   9.373  10.507  0.1195 -0.1394  0.0690
  856MOL0     C15455   2.843   9.455  10.592 -0.0519 -0.5276 -0.2250
  856MOL0     O15456   2.952   9.499  10.524  0.0078  0.5992  0.1718
  856MOL0     C15457   3.068   9.515  10.593 -1.3605  0.3590 -0.5693
  856MOL0     C15458   3.127   9.425  10.679 -0.2744 -0.3314 -0.5770
  856MOL0     C15459   3.256   9.453  10.744 -0.9891  0.9494  0.1465
  856MOL0     C15460   3.324   9.576  10.709 -0.3160 -0.2722 -0.4560
  856MOL0     O15461   3.448   9.613  10.759  0.4285  1.0834  0.2607
  856MOL0     C15462   3.534   9.503  10.796  0.2100 -0.2195  0.0791
  856MOL0     C15463   3.673   9.563  10.821  0.3700  0.6678 -0.1039
  856MOL0     C15464   3.729   9.651  10.703 -0.1150  0.2292 -0.3054
  856MOL0     C15465   3.872   9.706  10.736 -0.2436  0.3677 -0.6294
  856MOL0     C15466   3.917   9.812  10.642  1.1153  1.6307  0.3298
  856MOL0     C15467   3.847   9.948  10.663 -0.2923  1.2873  0.1583
  856MOL0     C15468   3.943  10.068  10.647  0.5317  0.2100 -0.2486
  856MOL0     C15469   4.032  10.058  10.521 -1.0225 -0.2174 -0.3701
  856MOL0    Cl15470   3.938  10.014  10.377 -0.1758 -0.8753 -0.1358
  856MOL0     C15471   3.255   9.658  10.624 -0.1924 -0.0198 -0.5453
  856MOL0     C15472   3.135   9.632  10.562 -0.3073 -0.6718 -0.1351
  856MOL0     O15473   2.821   9.486  10.712 -0.0029 -0.0672  0.3893
  856MOL0     C15474   2.805   9.327  10.378 -0.3576  0.1270  0.9235
  856MOL0     C15475   2.727   9.230  10.305  0.0765 -0.2677  0.3005
  856MOL0     N15476   2.235   8.741   9.934 -0.1136 -0.5063 -0.1931
  856MOL0     N15477   2.136   8.782   9.859 -0.4657 -0.7692 -0.0684
  856MOL0     C15478   2.171   9.919   9.729 -0.4186 -1.3969 -1.0247
  856MOL0     C15479   2.126  10.042   9.789 -0.1950 -0.2411  0.9480
  856MOL0     C15480   1.852  10.419   9.881 -0.9438 -0.2797  0.5251
  856MOL0     C15481   1.787  10.529   9.829  0.1657 -0.5213  0.0746
  856MOL0     C15482   1.725  10.621   9.914 -0.7969  0.7057  0.1094
  856MOL0     C15483   1.722  10.615  10.051  0.0965  0.8199 -0.1550
  856MOL0     O15484   1.665  10.715  10.121  0.1015 -0.7874  0.5426
  856MOL0     C15485   1.639  10.695  10.264 -0.3125 -0.0132  0.0070
  856MOL0     C15486   1.508  10.781  10.274  0.2951 -0.2812 -0.1041
  856MOL0     C15487   1.437  10.772  10.407 -0.1582  0.2434  0.0543
  856MOL0     C15488   1.330  10.871  10.426 -0.2503 -0.3445 -0.0376
  856MOL0     C15489   1.302  10.895  10.569  0.1817  1.0843 -1.1969
  856MOL0     C15490   1.268  10.911  10.686 -0.1889  0.0767  0.6839
  856MOL0     C15491   1.788  10.502  10.104 -0.6877 -1.2448  0.3877
  856MOL0     C15492   1.839  10.402  10.018 -1.9332  0.6858 -0.2446
  856MOL0     H15493   1.845  10.097   9.616 -0.3582  0.9763 -0.9832
  856MOL0     H15494   1.924   9.883   9.497 -1.6804  2.9905  0.1361
  856MOL0     H15495   2.315   9.709   9.560 -2.1275 -0.5216 -4.5501
  856MOL0     H15496   2.225   9.640   9.707 -1.4707 -0.2402 -0.4696
  856MOL0     H15497   2.241   9.544   9.410  1.0685 -0.3972  0.4453
  856MOL0     H15498   2.308   9.460   9.547 -2.6734 -1.1258  1.9647
  856MOL0     H15499   2.062   9.469   9.646 -0.4991 -0.1243  0.1591
  856MOL0     H15500   2.000   9.482   9.487  0.8263  1.3061  0.9688
  856MOL0     H15501   2.140   9.302   9.403 -0.3879 -1.0689  0.0452
  856MOL0     H15502   2.205   9.263   9.556 -1.1901 -0.7065  2.8253
  856MOL0     H15503   1.955   9.235   9.625  0.2977  0.5314 -0.4603
  856MOL0     H15504   1.907   9.241   9.456 -0.2222 -2.5081 -1.4788
  856MOL0     H15505   1.933   9.002   9.486  0.6020 -1.2062 -1.1604
  856MOL0     H15506   2.079   9.051   9.402 -4.0310 -3.0605 -2.4271
  856MOL0     H15507   2.211   9.054   9.619 -0.6921  0.8242 -0.6438
  856MOL0     H15508   2.067   9.041   9.708  0.5219 -1.3541  0.7246
  856MOL0     H15509   2.139   8.817   9.533 -4.0907  1.3477 -2.3598
  856MOL0     H15510   2.008   8.824   9.643  0.3753 -0.3814  0.2802
  856MOL0     H15511   2.403   8.856   9.675 -0.1893  0.2978 -0.4592
  856MOL0     H15512   2.484   8.658  10.014  0.2460  0.9050  0.1395
  856MOL0     H15513   2.550   8.676   9.854  0.4030 -0.9206  0.2004
  856MOL0     H15514   2.601   8.918   9.907  3.7746 -0.1324  0.3812
  856MOL0     H15515   2.669   8.806  10.022 -0.0657 -2.1422 -1.4208
  856MOL0     H15516   2.477   8.848  10.185  1.6936  1.4479  1.4293
  856MOL0     H15517   2.405   8.947  10.053 -0.5820 -0.1117  0.5783
  856MOL0     H15518   2.555   9.113  10.095  0.0399  0.3485  0.1322
  856MOL0     H15519   2.687   9.004  10.152  1.2746  2.6109  1.5512
  856MOL0     H15520   2.490   9.164  10.532  0.7162 -1.4963  1.1358
  856MOL0     H15521   2.472   9.314  10.706  1.2783 -1.7611 -1.1798
  856MOL0     H15522   2.642   9.326  10.764 -1.1407  0.1206  1.9678
  856MOL0     H15523   2.568   9.465  10.709  2.5565 -0.8211  4.9910
  856MOL0     H15524   3.072   9.337  10.709 -0.9303  0.3563  0.2834
  856MOL0     H15525   3.302   9.379  10.809  0.4601  0.2683 -1.5700
  856MOL0     H15526   3.497   9.450  10.884  1.0254 -2.2603 -0.7564
  856MOL0     H15527   3.549   9.433  10.713  0.1932 -0.9013  0.6412
  856MOL0     H15528   3.667   9.618  10.916 -0.4075 -1.4814  1.1855
  856MOL0     H15529   3.748   9.484  10.834  1.4855  1.8153  0.6677
  856MOL0     H15530   3.660   9.734  10.686  0.1754  0.6492  0.4840
  856MOL0     H15531   3.743   9.585  10.617 -0.9751 -1.0824  0.5243
  856MOL0     H15532   3.875   9.743  10.839  0.0796 -0.7487 -0.2296
  856MOL0     H15533   3.939   9.620  10.733  2.7100  2.5350 -3.4935
  856MOL0     H15534   3.907   9.769  10.542  1.5099  3.1457 -0.4024
  856MOL0     H15535   4.024   9.825  10.660  1.7689 -3.2665  1.3570
  856MOL0     H15536   3.765   9.964  10.592  1.4842  1.4594 -1.9694
  856MOL0     H15537   3.816   9.955  10.767  3.2671 -3.9308  1.9853
  856MOL0     H15538   4.010  10.076  10.733 -0.5090  0.8031  0.5429
  856MOL0     H15539   3.883  10.159  10.642 -2.2661 -1.2897  2.1644
  856MOL0     H15540   4.119   9.992  10.527 -0.0849  1.1205  1.4052
  856MOL0     H15541   4.076  10.156  10.502 -0.4440 -0.1494  1.2566
  856MOL0     H15542   3.302   9.751  10.593 -1.1776  2.1681  3.7409
  856MOL0     H15543   3.093   9.701  10.491  1.0531  0.3817  0.0413
  856MOL0     H15544   2.893   9.367  10.329 -0.6937 -0.7431 -0.4091
  856MOL0     H15545   2.758   9.205  10.204  0.6091  2.3581 -0.2657
  856MOL0     H15546   2.269   9.892   9.767 -0.1612  0.9812  0.2014
  856MOL0     H15547   2.174  10.072   9.882  2.0413 -0.5641 -0.0474
  856MOL0     H15548   1.791  10.561   9.725 -2.2825  2.6086  0.7720
  856MOL0     H15549   1.680  10.708   9.867  1.1552  1.6651 -0.0751
  856MOL0     H15550   1.614  10.593  10.295 -1.0053  0.4482  1.0245
  856MOL0     H15551   1.722  10.727  10.327  2.1658 -1.6210 -2.2600
  856MOL0     H15552   1.441  10.754  10.191  1.8526  0.8929 -1.8437
  856MOL0     H15553   1.551  10.881  10.263  0.8726 -0.2044  2.4326
  856MOL0     H15554   1.493  10.774  10.502 -4.1176 -2.1839  2.7463
  856MOL0     H15555   1.389  10.674  10.397 -0.9791  0.4077  1.9060
  856MOL0     H15556   1.246  10.840  10.363 -0.7050  1.3097 -0.2724
  856MOL0     H15557   1.370  10.961  10.379  0.7220 -1.6496 -1.8269
  856MOL0     H15558   1.240  10.926  10.788 -0.3998  1.1057  0.4858
  856MOL0     H15559   1.799  10.492  10.211 -2.2987 -0.9715  0.6060
  856MOL0     H15560   1.885  10.314  10.063 -0.3787  2.2632  1.4590
  857MOL0     O15561   7.627   8.002   0.758  0.6531  0.3686  0.0833
  857MOL0     C15562   7.575   8.021   0.648  0.3186  0.8096  0.3507
  857MOL0     O15563   7.518   7.920   0.573 -0.0692 -0.1643 -0.1214
  857MOL0     C15564   7.529   7.785   0.624 -0.7360 -0.2275 -0.5280
  857MOL0     C15565   7.428   7.733   0.711  0.0414  0.5007 -0.4304
  857MOL0     C15566   7.450   7.606   0.781 -0.1907 -0.5354  0.7165
  857MOL0     C15567   7.566   7.528   0.752  0.0899  0.0984 -0.6440
  857MOL0     O15568   7.594   7.402   0.804 -0.4043  0.2069 -0.6212
  857MOL0     C15569   7.489   7.308   0.795  0.0421  0.3171 -0.1431
  857MOL0     C15570   7.528   7.180   0.877 -0.1139 -0.0980  0.4152
  857MOL0     C15571   7.631   7.106   0.804 -0.3052  0.6356  0.1240
  857MOL0     C15572   7.778   7.112   0.849 -1.4614  0.1745  0.6871
  857MOL0     C15573   7.850   7.018   0.755 -0.1988  0.4738 -0.3539
  857MOL0     C15574   7.997   7.008   0.795 -0.7777 -1.0061 -0.0887
  857MOL0     C15575   8.085   7.112   0.734  0.2507  0.2801 -0.6812
  857MOL0     C15576   8.087   7.099   0.589 -0.0212 -0.7431  0.4893
  857MOL0     N15577   8.205   7.138   0.514  0.0577 -0.9041  0.7198
  857MOL0     C15578   8.334   7.145   0.557 -0.0325 -0.1603  0.0191
  857MOL0     C15579   8.405   7.192   0.447  0.4638 -0.2347 -0.2173
  857MOL0     C15580   8.555   7.193   0.419 -0.1101 -1.0326 -0.0222
  857MOL0     C15581   8.640   7.322   0.446 -0.9014 -0.4143  0.3086
  857MOL0     C15582   8.639   7.420   0.314  0.6023  0.0760 -0.2908
  857MOL0     C15583   8.700   7.360   0.181  0.4654  0.5415 -0.1524
  857MOL0     O15584   8.838   7.325   0.192  0.7875 -0.6845  0.4002
  857MOL0     C15585   8.906   7.276   0.087 -0.1100 -0.4778  0.7713
  857MOL0     C15586   9.043   7.264   0.108  0.3268  0.5940 -0.3915
  857MOL0     C15587   9.133   7.198   0.027 -1.2583  0.4242 -0.6084
  857MOL0     C15588   9.284   7.184   0.084  0.1187 -0.4303 -0.1081
  857MOL0     C15589   9.094   7.152  -0.098  0.2177  0.5227 -0.0322
  857MOL0     C15590   9.189   7.112  -0.207  0.3090  0.4431 -0.7789
  857MOL0     O15591   9.316   7.074  -0.175  0.1296 -0.3566 -0.6767
  857MOL0     C15592   9.414   7.067  -0.275  0.3677  0.2502  0.7179
  857MOL0     C15593   9.415   6.997  -0.402  0.6453 -0.2639 -0.0530
  857MOL0     C15594   9.535   7.003  -0.474  0.6349 -0.4398 -0.1585
  857MOL0     C15595   9.652   7.069  -0.422  0.3836  0.1169 -0.3025
  857MOL0     O15596   9.770   7.069  -0.497  0.2674 -0.0952  0.0564
  857MOL0     C15597   9.758   7.142  -0.615 -0.1341 -0.2758  0.5877
  857MOL0     C15598   9.897   7.149  -0.691  0.1574 -0.4794 -0.2478
  857MOL0     C15599   9.881   7.214  -0.823 -0.1481 -0.1945  0.3507
  857MOL0     C15600   9.894   7.368  -0.799  0.0430  0.5267 -0.1633
  857MOL0     C15601   9.839   7.442  -0.917 -0.0373  0.6390 -0.1585
  857MOL0     C15602   9.840   7.595  -0.902  0.8715 -0.4452 -0.1621
  857MOL0     C15603   9.731   7.630  -0.790  1.1197  1.2140 -0.6988
  857MOL0     C15604   9.678   7.767  -0.780 -0.7020  0.8745 -0.4309
  857MOL0    Cl15605   9.589   7.767  -0.630  0.6338  0.3384 -0.2740
  857MOL0     C15606   9.652   7.135  -0.306 -0.2638 -0.0759  0.1437
  857MOL0     C15607   9.533   7.132  -0.233 -0.2932 -1.5275  1.1158
  857MOL0     O15608   9.150   7.118  -0.322  0.3079 -0.7061 -0.4447
  857MOL0     C15609   8.957   7.159  -0.127  0.3169 -0.5902  0.1104
  857MOL0     C15610   8.859   7.218  -0.040 -0.4309 -0.5849  0.0261
  857MOL0     N15611   8.317   7.217   0.347  0.0080  0.7245  0.6043
  857MOL0     N15612   8.200   7.176   0.385 -0.4249 -0.1554 -0.1338
  857MOL0     C15613   7.664   7.582   0.670  0.5901 -1.0998 -0.2645
  857MOL0     C15614   7.647   7.712   0.600 -0.3181 -0.2858  0.4394
  857MOL0     C15615   7.572   8.156   0.600  0.0391  0.6114 -0.1493
  857MOL0     C15616   7.520   8.177   0.467  1.1699 -0.4377 -0.2690
  857MOL0     C15617   7.486   8.303   0.424  0.0285  0.2018  0.0602
  857MOL0     C15618   7.511   8.421   0.506 -0.2790  1.0604  0.0921
  857MOL0     O15619   7.457   8.545   0.467  0.2256 -0.0279 -0.0400
  857MOL0     C15620   7.416   8.631   0.570  0.0012 -0.5154  0.0317
  857MOL0     C15621   7.325   8.741   0.511  1.0613 -0.2966  0.7313
  857MOL0     C15622   7.390   8.846   0.429 -0.0658  0.2159  0.3655
  857MOL0     C15623   7.294   8.966   0.415 -0.0141  0.7425  0.3275
  857MOL0     C15624   7.344   9.068   0.314 -0.0942  0.1344  0.0371
  857MOL0     C15625   7.391   9.158   0.237 -0.1713 -0.7260 -0.9383
  857MOL0     C15626   7.578   8.393   0.630 -0.5184 -0.5279 -0.2497
  857MOL0     C15627   7.605   8.266   0.678 -0.0328 -0.0671  0.0707
  857MOL0     H15628   7.342   7.784   0.753  0.0934 -0.5287  0.9821
  857MOL0     H15629   7.365   7.575   0.841 -1.5694 -0.8757 -1.3329
  857MOL0     H15630   7.400   7.360   0.831 -1.0253  0.2949 -2.5688
  857MOL0     H15631   7.461   7.280   0.693  4.3780  0.8651 -1.7228
  857MOL0     H15632   7.568   7.216   0.972  1.0070 -0.0373 -0.0672
  857MOL0     H15633   7.432   7.127   0.884 -1.1625  1.6015 -0.4330
  857MOL0     H15634   7.606   7.001   0.790  2.3347  0.0981 -1.2040
  857MOL0     H15635   7.616   7.132   0.699  0.7234 -2.5508 -0.9094
  857MOL0     H15636   7.825   7.211   0.841  0.1281 -0.6747 -1.2171
  857MOL0     H15637   7.802   7.085   0.953  1.7401 -0.6994 -0.1584
  857MOL0     H15638   7.800   6.921   0.761 -0.7574  0.8413  3.8238
  857MOL0     H15639   7.853   7.057   0.652 -0.7082 -2.9119 -1.7707
  857MOL0     H15640   8.007   7.034   0.901  0.3053 -2.0252  0.0708
  857MOL0     H15641   8.043   6.912   0.771 -0.1622 -0.2185 -2.3126
  857MOL0     H15642   8.047   7.211   0.760  2.1824  0.9368 -0.2202
  857MOL0     H15643   8.181   7.095   0.783 -1.2431 -0.0065  2.4511
  857MOL0     H15644   8.000   7.144   0.540 -0.0480 -0.8219  0.4631
  857MOL0     H15645   8.083   6.993   0.563 -3.2352 -0.8194  0.9310
  857MOL0     H15646   8.362   7.128   0.661 -1.7285  0.2401  0.5690
  857MOL0     H15647   8.610   7.120   0.478  1.9650  2.2738  2.4557
  857MOL0     H15648   8.566   7.159   0.315 -3.1633  1.7773 -1.4627
  857MOL0     H15649   8.743   7.293   0.468 -1.4213 -1.1888  1.8170
  857MOL0     H15650   8.605   7.376   0.534 -0.0064  1.5110 -0.4575
  857MOL0     H15651   8.692   7.510   0.346  2.5121 -1.3644  0.8075
  857MOL0     H15652   8.538   7.449   0.283  1.4328  2.0257 -1.3407
  857MOL0     H15653   8.686   7.423   0.093 -4.6464  1.2056  0.8277
  857MOL0     H15654   8.652   7.272   0.140  5.5634 -3.2503  0.9952
  857MOL0     H15655   9.082   7.305   0.201 -0.8145  0.1605  0.2923
  857MOL0     H15656   9.339   7.232   0.003  0.7929 -2.2634 -0.7968
  857MOL0     H15657   9.281   7.238   0.179 -0.6568  0.5131 -0.6532
  857MOL0     H15658   9.335   7.087   0.091  1.9405  0.5778  1.6305
  857MOL0     H15659   9.332   6.936  -0.438 -2.1692  2.5843  1.0870
  857MOL0     H15660   9.549   6.934  -0.556 -1.2240 -1.0771  0.0034
  857MOL0     H15661   9.687   7.098  -0.685 -1.8630  2.9839  0.0923
  857MOL0     H15662   9.718   7.241  -0.593  2.0599  1.4822 -2.5568
  857MOL0     H15663   9.980   7.200  -0.641 -1.2490 -0.3757  2.1494
  857MOL0     H15664   9.923   7.045  -0.712 -0.2449 -0.9271  1.3624
  857MOL0     H15665   9.792   7.179  -0.877 -1.1593 -2.2829  3.1669
  857MOL0     H15666   9.954   7.180  -0.897 -2.2646  0.6475 -2.3093
  857MOL0     H15667   9.819   7.387  -0.721 -2.7970 -2.6573 -1.8106
  857MOL0     H15668   9.997   7.396  -0.774  0.9177 -1.5756 -1.1756
  857MOL0     H15669   9.736   7.414  -0.937  0.2179 -0.9450  0.5538
  857MOL0     H15670   9.899   7.411  -1.003 -0.5080 -1.2873  0.1646
  857MOL0     H15671   9.937   7.635  -0.871  0.4675  0.8287 -0.4818
  857MOL0     H15672   9.819   7.646  -0.997  1.4655 -1.2978 -0.7632
  857MOL0     H15673   9.775   7.607  -0.693  2.3944  1.1087 -1.2838
  857MOL0     H15674   9.645   7.564  -0.800  1.1662  1.1784 -0.8631
  857MOL0     H15675   9.617   7.795  -0.866 -1.1818 -0.1305 -0.4259
  857MOL0     H15676   9.749   7.849  -0.762 -1.6002  2.0921 -2.1678
  857MOL0     H15677   9.740   7.189  -0.275  1.7287 -1.2211 -3.0314
  857MOL0     H15678   9.532   7.176  -0.134  1.5369 -2.9779  1.8480
  857MOL0     H15679   8.927   7.128  -0.227  0.6312 -0.8558  0.0943
  857MOL0     H15680   8.753   7.217  -0.068  0.5530 -1.2407 -4.5487
  857MOL0     H15681   7.756   7.524   0.670  1.0320 -0.4459  0.9182
  857MOL0     H15682   7.728   7.768   0.553 -1.7641  2.4704  1.0213
  857MOL0     H15683   7.491   8.095   0.403 -1.6285  1.3773 -1.5296
  857MOL0     H15684   7.443   8.312   0.325  0.7105 -2.5423 -0.5817
  857MOL0     H15685   7.358   8.591   0.654  4.7413 -0.8836  3.5125
  857MOL0     H15686   7.506   8.669   0.619  0.9627 -2.4794 -0.1324
  857MOL0     H15687   7.279   8.798   0.593 -0.0738  1.7068 -1.2161
  857MOL0     H15688   7.246   8.687   0.458  1.4375  0.8855 -1.1345
  857MOL0     H15689   7.396   8.812   0.325 -1.1305  1.0706  0.0047
  857MOL0     H15690   7.483   8.887   0.470  0.0366 -0.5797  0.9481
  857MOL0     H15691   7.293   9.011   0.514  0.7693  0.9195  0.2658
  857MOL0     H15692   7.197   8.926   0.383 -0.4937  2.3441 -0.3349
  857MOL0     H15693   7.444   9.237   0.190  1.3991 -1.2228 -0.0608
  857MOL0     H15694   7.599   8.475   0.698  1.5964 -2.1911  1.2372
  857MOL0     H15695   7.664   8.249   0.768  0.4091 -2.7807 -0.6150
  858MOL0     O15696   6.698   5.068   3.576  0.6792 -0.4527 -0.5162
  858MOL0     C15697   6.736   5.047   3.457 -1.6016  0.2907 -0.5581
  858MOL0     O15698   6.656   5.030   3.352  0.7424 -0.0649  0.3871
  858MOL0     C15699   6.532   5.091   3.364 -0.0034  0.1267  1.3255
  858MOL0     C15700   6.519   5.231   3.345  0.3849 -0.7131 -0.2183
  858MOL0     C15701   6.394   5.291   3.356  0.6370 -0.8169 -0.4612
  858MOL0     C15702   6.274   5.207   3.365  0.8341  0.9721  0.4013
  858MOL0     O15703   6.145   5.257   3.375  0.0150 -0.0138 -0.7030
  858MOL0     C15704   6.107   5.370   3.303 -1.0970  0.3958 -0.1286
  858MOL0     C15705   5.965   5.362   3.252 -0.3590 -0.3624 -0.6635
  858MOL0     C15706   5.937   5.233   3.170 -1.0261  0.9175 -0.3786
  858MOL0     C15707   5.796   5.242   3.120  0.3348  0.5476 -0.3099
  858MOL0     C15708   5.723   5.107   3.139 -0.1353  0.8571 -0.6635
  858MOL0     C15709   5.606   5.100   3.043  0.1760 -0.1257  0.6860
  858MOL0     C15710   5.523   4.962   3.055 -0.5000 -0.2593  0.8801
  858MOL0     C15711   5.483   4.927   3.197  0.1068 -0.0408 -0.4218
  858MOL0     N15712   5.389   4.807   3.205 -1.5531 -0.4478  0.3468
  858MOL0     C15713   5.422   4.677   3.224  1.2886  0.2789  0.3200
  858MOL0     C15714   5.302   4.611   3.224 -0.5619 -0.1227 -0.0655
  858MOL0     C15715   5.273   4.466   3.249  0.3052 -0.1787 -0.0865
  858MOL0     C15716   5.205   4.414   3.123  0.3580 -0.3654  0.6821
  858MOL0     C15717   5.301   4.346   3.023  0.3440  0.9547  0.0864
  858MOL0     C15718   5.410   4.436   2.963  0.7797  0.5296 -0.5301
  858MOL0     O15719   5.442   4.397   2.823  0.2179 -0.0618  0.9586
  858MOL0     C15720   5.430   4.498   2.731  0.0240  0.1618 -0.6802
  858MOL0     C15721   5.497   4.622   2.731 -0.0221  1.1032  1.0580
  858MOL0     C15722   5.473   4.710   2.633  0.9133  0.5919 -0.1889
  858MOL0     C15723   5.551   4.835   2.646 -0.0334 -0.3065  0.0287
  858MOL0     C15724   5.381   4.683   2.524 -0.2006  0.4126 -1.5437
  858MOL0     C15725   5.341   4.780   2.414  0.3992  0.4556 -0.3474
  858MOL0     O15726   5.228   4.746   2.342 -0.6913  0.2845  0.3468
  858MOL0     C15727   5.211   4.811   2.229  0.4939 -0.2259  0.1163
  858MOL0     C15728   5.269   4.774   2.103  0.5318  0.4647 -0.9302
  858MOL0     C15729   5.252   4.855   1.992  0.2398 -0.4860  0.4981
  858MOL0     C15730   5.184   4.974   2.000 -0.4102 -0.3154  0.1213
  858MOL0     O15731   5.170   5.075   1.911  0.4455  0.1268  0.4899
  858MOL0     C15732   5.209   5.046   1.779  0.3533  0.9122 -0.0436
  858MOL0     C15733   5.132   5.133   1.687 -0.4646  0.2707 -0.0932
  858MOL0     C15734   4.985   5.135   1.708  0.7532  0.1447 -0.3431
  858MOL0     C15735   4.901   5.155   1.580  0.6414  0.0325  0.8605
  858MOL0     C15736   4.748   5.172   1.604  0.3309 -0.1936  1.1879
  858MOL0     C15737   4.718   5.315   1.658  0.7905  0.9964  1.4134
  858MOL0     C15738   4.745   5.430   1.555  0.3696 -0.8951  0.2027
  858MOL0     C15739   4.671   5.557   1.593 -0.4825  0.9709  0.9649
  858MOL0    Cl15740   4.663   5.649   1.441 -0.5390 -0.1174  0.1687
  858MOL0     C15741   5.136   5.013   2.120  0.9503  0.4237 -0.5401
  858MOL0     C15742   5.138   4.932   2.234 -0.6885 -0.9084 -1.1304
  858MOL0     O15743   5.408   4.885   2.412 -0.0375 -0.6077 -0.2738
  858MOL0     C15744   5.321   4.553   2.524 -0.8867 -0.2349  0.0610
  858MOL0     C15745   5.353   4.467   2.624  0.8621  0.7766  0.6993
  858MOL0     N15746   5.202   4.711   3.219  0.6826 -0.0628  0.4485
  858MOL0     N15747   5.258   4.819   3.178 -0.7161 -0.6650  0.2750
  858MOL0     C15748   6.287   5.065   3.369 -0.8473  0.1521  0.1345
  858MOL0     C15749   6.419   5.015   3.366 -0.7112  0.4057  0.3768
  858MOL0     C15750   6.880   5.024   3.433  0.3489  0.2224 -0.6098
  858MOL0     C15751   6.933   4.994   3.307 -0.5700  0.5863  0.8471
  858MOL0     C15752   7.071   4.993   3.279  0.5296 -0.1690  0.1830
  858MOL0     C15753   7.158   5.015   3.386 -0.0641 -0.6163  0.4041
  858MOL0     O15754   7.300   5.007   3.363  1.3033  0.5074  0.0513
  858MOL0     C15755   7.340   5.064   3.234  0.0206  0.2569 -0.6032
  858MOL0     C15756   7.493   5.110   3.241 -0.0908 -0.3375 -0.2966
  858MOL0     C15757   7.591   4.994   3.213  0.5141  0.0278 -0.3182
  858MOL0     C15758   7.584   4.949   3.056  0.1496 -0.5696 -0.3925
  858MOL0     C15759   7.682   4.871   2.996 -0.5726 -0.1680  0.4001
  858MOL0     C15760   7.766   4.786   2.964  0.4236 -0.2563  0.6137
  858MOL0     C15761   7.111   5.037   3.515 -0.2411 -0.3800  0.0382
  858MOL0     C15762   6.975   5.050   3.536 -0.4948  0.9489  0.3999
  858MOL0     H15763   6.612   5.288   3.350  0.7110 -1.3607  1.9202
  858MOL0     H15764   6.377   5.398   3.355  2.8526 -0.3663  1.6377
  858MOL0     H15765   6.116   5.466   3.354  1.2089  0.6877 -0.9670
  858MOL0     H15766   6.170   5.364   3.214 -0.8800  0.5527  0.0133
  858MOL0     H15767   5.896   5.371   3.337 -0.6540  0.3965 -0.9733
  858MOL0     H15768   5.952   5.449   3.187  3.0728  0.9722  0.2260
  858MOL0     H15769   6.008   5.225   3.087 -0.9636 -2.3857 -0.1269
  858MOL0     H15770   5.945   5.143   3.230 -1.9963  0.9249 -0.2241
  858MOL0     H15771   5.738   5.320   3.170 -2.7988 -2.2675  0.8567
  858MOL0     H15772   5.784   5.262   3.013 -1.5556 -2.4357 -0.7718
  858MOL0     H15773   5.795   5.029   3.114  1.9343  0.9247  4.0370
  858MOL0     H15774   5.695   5.099   3.244  2.2718  2.8323  0.2237
  858MOL0     H15775   5.540   5.181   3.074 -2.2453 -2.3034  1.5534
  858MOL0     H15776   5.642   5.123   2.942  3.0552 -1.2019  1.3667
  858MOL0     H15777   5.436   4.974   2.990  0.7649 -2.2003 -1.3298
  858MOL0     H15778   5.575   4.883   3.000 -0.2776 -0.5268  1.4691
  858MOL0     H15779   5.422   5.007   3.241  1.8293  0.7168  0.7009
  858MOL0     H15780   5.567   4.902   3.261 -0.2559  1.7333  0.8332
  858MOL0     H15781   5.524   4.641   3.234  0.8036 -1.5173 -0.7219
  858MOL0     H15782   5.364   4.408   3.268  2.5678  3.6653  2.1649
  858MOL0     H15783   5.222   4.447   3.345  0.3937 -1.1792 -0.2260
  858MOL0     H15784   5.149   4.496   3.076 -0.3740  0.3950  2.7293
  858MOL0     H15785   5.135   4.336   3.154 -0.4402 -0.6123 -1.6026
  858MOL0     H15786   5.251   4.296   2.940 -0.5766  0.1013  1.1203
  858MOL0     H15787   5.356   4.264   3.069  2.3384  0.5737 -2.7425
  858MOL0     H15788   5.493   4.434   3.034 -0.5730  2.9104  1.2943
  858MOL0     H15789   5.379   4.541   2.960 -1.2986 -0.0304 -0.5014
  858MOL0     H15790   5.565   4.646   2.813 -0.5337  2.7134  1.0384
  858MOL0     H15791   5.617   4.837   2.559 -2.2683  0.2962 -1.7599
  858MOL0     H15792   5.479   4.918   2.655 -2.6335 -2.3936 -0.1800
  858MOL0     H15793   5.616   4.840   2.734 -1.4572 -1.1758  1.1727
  858MOL0     H15794   5.326   4.683   2.092  0.7263  0.6716 -1.7275
  858MOL0     H15795   5.293   4.816   1.899 -0.1065  1.4197 -0.5169
  858MOL0     H15796   5.315   5.060   1.757  0.5984 -1.3911 -0.5783
  858MOL0     H15797   5.197   4.940   1.753  3.7512  0.8907 -2.1838
  858MOL0     H15798   5.169   5.236   1.695  1.4411 -0.3383 -0.7037
  858MOL0     H15799   5.150   5.091   1.588  0.9426  1.3090 -0.3103
  858MOL0     H15800   4.951   5.223   1.762  0.6180 -0.8072  1.1760
  858MOL0     H15801   4.936   5.054   1.763 -1.2238  1.6900  0.3044
  858MOL0     H15802   4.939   5.248   1.537  3.1821 -1.0226  0.5974
  858MOL0     H15803   4.933   5.091   1.497  1.8029  1.7412 -0.0695
  858MOL0     H15804   4.704   5.097   1.669  0.5112 -2.1259 -0.8078
  858MOL0     H15805   4.686   5.160   1.515  0.4060 -1.0116  1.2464
  858MOL0     H15806   4.615   5.308   1.695  0.4131 -1.3028  0.1393
  858MOL0     H15807   4.780   5.346   1.742  2.6419 -0.7058  0.7632
  858MOL0     H15808   4.703   5.402   1.458  0.4984 -0.5760  0.0529
  858MOL0     H15809   4.849   5.465   1.550 -0.0847  0.5494  0.3933
  858MOL0     H15810   4.730   5.609   1.669  2.0745 -4.6205  3.3897
  858MOL0     H15811   4.573   5.526   1.629 -1.6789  2.9472 -0.4471
  858MOL0     H15812   5.106   5.114   2.147  3.1968  0.0873  4.3125
  858MOL0     H15813   5.090   4.973   2.322 -0.9574  0.1510 -1.7400
  858MOL0     H15814   5.268   4.521   2.435 -1.8019 -1.0691  0.8813
  858MOL0     H15815   5.311   4.367   2.623 -1.9910  1.6474 -4.7323
  858MOL0     H15816   6.205   4.998   3.395  0.7360 -1.9991 -0.1425
  858MOL0     H15817   6.439   4.908   3.361  1.2151  0.5811  2.5160
  858MOL0     H15818   6.862   4.972   3.228 -2.1048 -0.9971  2.5723
  858MOL0     H15819   7.109   4.976   3.179 -0.7000 -0.1855 -0.2956
  858MOL0     H15820   7.332   4.992   3.152 -0.7223  0.1881 -0.4738
  858MOL0     H15821   7.289   5.160   3.225  0.5229  0.7966  1.6253
  858MOL0     H15822   7.527   5.148   3.337  2.0512  1.2124 -1.5851
  858MOL0     H15823   7.514   5.194   3.175  3.6657  0.3213  1.4757
  858MOL0     H15824   7.547   4.920   3.281 -2.9980  0.7347 -1.5805
  858MOL0     H15825   7.691   5.028   3.242 -0.3047  0.9741  1.5794
  858MOL0     H15826   7.576   5.043   3.002 -3.2592 -1.3966 -1.6152
  858MOL0     H15827   7.489   4.899   3.036 -0.1964 -1.2227  2.4255
  858MOL0     H15828   7.827   4.700   2.943 -0.1623 -0.1905 -1.6002
  858MOL0     H15829   7.183   5.052   3.595 -1.3499 -1.1119  1.2180
  858MOL0     H15830   6.943   5.102   3.626 -0.8917 -0.0798  0.8795
  859MOL0     O15831   5.040   2.175   4.931 -0.1799  0.0535 -0.1655
  859MOL0     C15832   5.065   2.071   4.980 -0.8489  1.2822  0.0809
  859MOL0     O15833   5.009   2.029   5.099  0.4734  0.7804 -0.5523
  859MOL0     C15834   4.933   2.105   5.178 -1.5248 -0.4802 -0.0822
  859MOL0     C15835   4.809   2.165   5.126 -0.1584  0.8025  0.7598
  859MOL0     C15836   4.726   2.244   5.206  0.4718  0.6783  0.6272
  859MOL0     C15837   4.763   2.271   5.344  0.1020  1.3963  0.7067
  859MOL0     O15838   4.670   2.347   5.416 -0.0774  0.1390 -0.6958
  859MOL0     C15839   4.698   2.377   5.560 -0.4192 -0.5463 -0.6760
  859MOL0     C15840   4.629   2.494   5.614 -0.5068  0.2980  0.6521
  859MOL0     C15841   4.480   2.470   5.648  0.1001  0.5358  0.4853
  859MOL0     C15842   4.426   2.589   5.717 -0.0051  0.2944 -0.3303
  859MOL0     C15843   4.274   2.573   5.751  0.6083 -0.1424  0.0935
  859MOL0     C15844   4.229   2.536   5.895  0.6136 -0.4477 -0.7695
  859MOL0     C15845   4.285   2.630   6.002  0.2722  0.0849 -0.3640
  859MOL0     C15846   4.213   2.767   5.996  0.4609 -0.0024  0.2697
  859MOL0     N15847   4.078   2.751   6.047 -0.0598 -0.3190  0.3080
  859MOL0     C15848   4.039   2.756   6.186 -1.0965 -0.9054  0.4384
  859MOL0     C15849   3.910   2.722   6.198  0.2128  0.1677  0.1124
  859MOL0     C15850   3.830   2.680   6.325  0.4829  1.3572  0.2348
  859MOL0     C15851   3.909   2.570   6.397  0.5470  0.4805  0.3489
  859MOL0     C15852   3.900   2.446   6.319  0.5169  0.5434 -0.2637
  859MOL0     C15853   3.969   2.330   6.389 -0.7897 -1.1045 -0.6744
  859MOL0     O15854   4.098   2.362   6.439 -0.0831  0.5628 -0.9571
  859MOL0     C15855   4.215   2.374   6.368 -0.1632  0.3918 -0.4370
  859MOL0     C15856   4.326   2.412   6.437 -0.4823  0.1737 -0.3890
  859MOL0     C15857   4.454   2.422   6.379 -0.3340 -0.2707  0.7913
  859MOL0     C15858   4.566   2.442   6.478 -1.2279  0.5401  0.0067
  859MOL0     C15859   4.469   2.391   6.241  0.2443  1.0269 -0.0622
  859MOL0     C15860   4.607   2.375   6.175  0.2795  0.6726  0.2456
  859MOL0     O15861   4.593   2.366   6.042 -0.4464 -0.2091  0.2331
  859MOL0     C15862   4.714   2.343   5.968 -0.0242  0.3957  0.2286
  859MOL0     C15863   4.723   2.232   5.887 -0.5690  0.1511 -0.5257
  859MOL0     C15864   4.837   2.187   5.830  0.2263 -0.1955 -1.6154
  859MOL0     C15865   4.945   2.268   5.832 -0.8099 -0.5108 -0.4718
  859MOL0     O15866   5.060   2.222   5.766 -0.1836 -0.4230 -0.1258
  859MOL0     C15867   5.180   2.284   5.792  0.0059 -1.2751  0.3614
  859MOL0     C15868   5.279   2.228   5.680  0.5444 -0.2623  0.6269
  859MOL0     C15869   5.282   2.310   5.552 -0.8380 -0.0039 -0.3266
  859MOL0     C15870   5.356   2.243   5.436 -0.6344 -0.2318 -0.1124
  859MOL0     C15871   5.386   2.333   5.310 -0.5730  0.7448 -0.8263
  859MOL0     C15872   5.441   2.268   5.185 -0.0468  1.0739  0.0560
  859MOL0     C15873   5.518   2.371   5.107 -0.2535  0.3748 -0.2210
  859MOL0     C15874   5.664   2.373   5.129 -0.3526  0.9352 -0.6398
  859MOL0    Cl15875   5.737   2.243   5.034 -0.1599 -0.3549  0.0040
  859MOL0     C15876   4.936   2.394   5.902 -0.2309  0.6519  0.4526
  859MOL0     C15877   4.823   2.422   5.972  1.0240 -0.3389 -0.1035
  859MOL0     O15878   4.715   2.378   6.242  0.1429  0.3565 -0.6392
  859MOL0     C15879   4.353   2.348   6.171 -0.6979  0.2632  0.9997
  859MOL0     C15880   4.228   2.358   6.231 -0.2383  1.1130 -0.0203
  859MOL0     N15881   3.868   2.711   6.066 -0.8993  0.1673 -0.5809
  859MOL0     N15882   3.959   2.734   5.978 -0.1587  0.6673  0.3215
  859MOL0     C15883   4.875   2.198   5.390 -1.1758 -0.1329 -0.3521
  859MOL0     C15884   4.955   2.120   5.309  0.3401 -0.0802 -0.1453
  859MOL0     C15885   5.167   1.984   4.913 -0.6088  0.5146  0.1461
  859MOL0     C15886   5.307   2.024   4.884  0.2006  0.5121 -0.4594
  859MOL0     C15887   5.389   1.924   4.846 -0.6264  0.2886  0.2383
  859MOL0     C15888   5.354   1.790   4.813  0.2985  0.3672 -0.7351
  859MOL0     O15889   5.437   1.687   4.769  0.3117 -0.6778  0.5085
  859MOL0     C15890   5.556   1.731   4.702 -0.6350  0.2544 -1.0772
  859MOL0     C15891   5.542   1.804   4.568 -0.2108  0.1070 -0.1469
  859MOL0     C15892   5.482   1.721   4.471 -0.5941 -0.3898  0.0797
  859MOL0     C15893   5.487   1.793   4.334  0.9886 -0.4259  0.4270
  859MOL0     C15894   5.414   1.719   4.234  0.1162  0.8112  0.5711
  859MOL0     C15895   5.354   1.672   4.137 -0.0497  0.3936  0.2490
  859MOL0     C15896   5.221   1.762   4.830  1.3388  0.4593 -0.1361
  859MOL0     C15897   5.129   1.852   4.880  0.0679 -0.4287 -0.0829
  859MOL0     H15898   4.797   2.144   5.020  0.8144  1.5780  0.4867
  859MOL0     H15899   4.635   2.292   5.171  0.1145  0.0308  0.6576
  859MOL0     H15900   4.682   2.299   5.635 -2.2085  2.1676  2.0530
  859MOL0     H15901   4.804   2.390   5.582 -0.9179 -1.9667  3.4172
  859MOL0     H15902   4.684   2.531   5.701  0.3170 -0.4179  0.4471
  859MOL0     H15903   4.631   2.573   5.538 -0.3359  1.5834  1.9312
  859MOL0     H15904   4.423   2.444   5.558 -0.2512  0.6559  0.6696
  859MOL0     H15905   4.477   2.380   5.710  1.0214 -0.0469 -0.2926
  859MOL0     H15906   4.479   2.601   5.812 -3.9897  1.5932  1.9714
  859MOL0     H15907   4.440   2.674   5.648 -0.2946  0.0078 -0.7471
  859MOL0     H15908   4.220   2.660   5.712  1.6804 -0.1301 -1.4923
  859MOL0     H15909   4.231   2.505   5.677  2.4344 -2.6712  1.2194
  859MOL0     H15910   4.123   2.515   5.911  0.6599 -1.3462 -1.4944
  859MOL0     H15911   4.268   2.437   5.919 -0.4442 -1.3344 -2.5183
  859MOL0     H15912   4.265   2.591   6.103  0.6592 -1.5592 -0.8862
  859MOL0     H15913   4.394   2.632   5.993  0.1661 -1.7289 -2.7818
  859MOL0     H15914   4.208   2.812   5.896 -2.1792 -1.7326 -0.4675
  859MOL0     H15915   4.269   2.834   6.063  3.4411 -2.5682  0.5904
  859MOL0     H15916   4.111   2.765   6.267 -0.9041 -1.6814  0.3622
  859MOL0     H15917   3.817   2.760   6.399  0.8610  0.7981  0.9165
  859MOL0     H15918   3.736   2.634   6.295  1.6364 -1.8922  1.2303
  859MOL0     H15919   3.866   2.553   6.496  0.0766  1.8857  0.4025
  859MOL0     H15920   4.014   2.592   6.417  1.1677 -0.5285 -1.5248
  859MOL0     H15921   3.952   2.462   6.225  0.0074  1.1248 -0.4534
  859MOL0     H15922   3.805   2.419   6.273  1.0613  1.0475 -1.7412
  859MOL0     H15923   3.981   2.242   6.325  0.8409  0.5621 -2.7998
  859MOL0     H15924   3.901   2.292   6.466  1.6017  0.2745  2.3641
  859MOL0     H15925   4.303   2.433   6.540 -2.3925  2.7121 -1.2303
  859MOL0     H15926   4.587   2.355   6.541 -2.0722  2.3454  3.0198
  859MOL0     H15927   4.662   2.481   6.441 -0.0952 -0.8936  1.3087
  859MOL0     H15928   4.537   2.517   6.553 -0.1474  0.7417  0.2493
  859MOL0     H15929   4.635   2.169   5.880 -1.4330  1.2166  0.4233
  859MOL0     H15930   4.847   2.097   5.770  0.2017  0.3860 -2.5112
  859MOL0     H15931   5.168   2.393   5.794 -0.2446 -1.2621  3.2063
  859MOL0     H15932   5.223   2.266   5.891  4.4117  4.1147 -0.0704
  859MOL0     H15933   5.382   2.223   5.715  0.1904 -1.9093  1.5366
  859MOL0     H15934   5.261   2.126   5.646  1.2244 -0.7568  1.7158
  859MOL0     H15935   5.325   2.407   5.576 -2.8755  1.1903 -1.2469
  859MOL0     H15936   5.178   2.326   5.523 -0.7749  2.3420  0.5432
  859MOL0     H15937   5.451   2.210   5.479  1.1052  1.1745 -2.5926
  859MOL0     H15938   5.296   2.163   5.391  2.7404 -2.7170 -0.5400
  859MOL0     H15939   5.463   2.403   5.346 -0.4985  0.0342  0.4310
  859MOL0     H15940   5.295   2.383   5.277 -0.8140  0.1471 -1.0722
  859MOL0     H15941   5.513   2.194   5.220 -0.1428  0.6732 -0.5622
  859MOL0     H15942   5.363   2.222   5.123  1.0677 -0.4962 -0.2494
  859MOL0     H15943   5.473   2.467   5.133  0.9314  0.3741  2.1228
  859MOL0     H15944   5.507   2.365   4.999  0.8327 -1.1294 -0.2751
  859MOL0     H15945   5.699   2.354   5.230  0.7289 -1.1535 -1.3553
  859MOL0     H15946   5.699   2.473   5.099  2.5250 -0.2490 -1.6026
  859MOL0     H15947   5.012   2.471   5.905 -0.3483  0.7463  3.5443
  859MOL0     H15948   4.829   2.516   6.026  1.6381  0.1519 -0.9986
  859MOL0     H15949   4.365   2.323   6.066 -2.8332  1.3542  0.4494
  859MOL0     H15950   4.150   2.328   6.162  3.1294 -3.2765 -2.4107
  859MOL0     H15951   4.902   2.194   5.495 -0.4438 -1.6767 -0.5739
  859MOL0     H15952   5.040   2.061   5.341 -0.7965 -2.5784 -1.3891
  859MOL0     H15953   5.348   2.122   4.903  0.1544  0.6396 -0.9862
  859MOL0     H15954   5.496   1.933   4.866 -0.8622  0.9993  1.2366
  859MOL0     H15955   5.629   1.794   4.755 -1.7352  3.0818 -2.7252
  859MOL0     H15956   5.604   1.636   4.678  0.7789  0.1334  1.7377
  859MOL0     H15957   5.645   1.833   4.542  0.1846 -1.2027 -0.0939
  859MOL0     H15958   5.485   1.895   4.590  0.5340  1.0295 -1.7756
  859MOL0     H15959   5.383   1.685   4.503  0.5929 -1.2934  3.0850
  859MOL0     H15960   5.551   1.637   4.456 -1.5710 -1.2558  0.2718
  859MOL0     H15961   5.591   1.811   4.303  0.9504 -1.4779 -0.3523
  859MOL0     H15962   5.434   1.889   4.339  0.6652 -0.6532  1.6992
  859MOL0     H15963   5.326   1.625   4.045 -1.7534  2.3795 -0.3384
  859MOL0     H15964   5.182   1.663   4.805  2.1648 -0.1671  0.9483
  859MOL0     H15965   5.023   1.835   4.898 -0.2414 -2.5645 -3.0173
  860MOL0     O15966  10.847  11.526   3.303 -0.2653 -0.2856  0.0089
  860MOL0     C15967  10.910  11.620   3.360 -0.0810 -0.0412  0.8275
  860MOL0     O15968  10.870  11.755   3.353  0.0643 -0.2890 -0.3848
  860MOL0     C15969  10.741  11.785   3.318 -1.4080  0.5088  0.4399
  860MOL0     C15970  10.629  11.719   3.361  0.3544  0.5803 -0.3943
  860MOL0     C15971  10.494  11.751   3.313  0.0534  0.9643 -0.2257
  860MOL0     C15972  10.466  11.846   3.220 -0.2710  0.7012 -0.9220
  860MOL0     O15973  10.340  11.865   3.178 -0.1047 -0.5979 -0.0162
  860MOL0     C15974  10.304  11.995   3.124  0.3405  1.0946 -0.3354
  860MOL0     C15975  10.275  12.085   3.246  1.3693 -0.7292 -1.0154
  860MOL0     C15976  10.203  12.206   3.195 -0.1560  0.5691  0.1034
  860MOL0     C15977  10.060  12.186   3.167  0.2789 -0.9342 -0.3907
  860MOL0     C15978  10.002  12.324   3.122  0.0771  0.3462  0.4159
  860MOL0     C15979   9.953  12.412   3.230  0.9969 -0.6688 -0.0635
  860MOL0     C15980   9.872  12.538   3.181 -0.6402  0.4042 -0.2549
  860MOL0     C15981   9.906  12.666   3.253 -0.7857 -0.1938 -0.2023
  860MOL0     N15982   9.868  12.654   3.397  0.2732  0.1794 -0.3072
  860MOL0     C15983   9.763  12.598   3.451 -0.2428  0.2372  0.2543
  860MOL0     C15984   9.792  12.572   3.577  0.2087  0.0155  0.2339
  860MOL0     C15985   9.704  12.512   3.686  0.4759 -0.2063  0.1012
  860MOL0     C15986   9.658  12.610   3.787  0.2845  0.0092  0.6055
  860MOL0     C15987   9.536  12.554   3.870 -0.8301 -0.3262 -0.3277
  860MOL0     C15988   9.583  12.431   3.953  0.7041 -0.9427  0.2647
  860MOL0     O15989   9.652  12.492   4.065  0.2589  0.3726 -0.1002
  860MOL0     C15990   9.661  12.423   4.184  0.7082 -0.9355 -0.3344
  860MOL0     C15991   9.704  12.493   4.301 -0.1083  0.0460  0.0305
  860MOL0     C15992   9.707  12.439   4.433 -1.0814  0.5845  0.8553
  860MOL0     C15993   9.751  12.526   4.546  0.4343 -0.3223 -1.0107
  860MOL0     C15994   9.671  12.300   4.449 -0.9623 -0.1007 -0.5515
  860MOL0     C15995   9.636  12.239   4.579 -0.1685  0.5555  1.2903
  860MOL0     O15996   9.603  12.315   4.689 -0.2009 -0.3187 -0.3611
  860MOL0     C15997   9.604  12.256   4.813 -0.1050 -0.4479 -1.3822
  860MOL0     C15998   9.513  12.159   4.852 -1.0113 -0.0023  0.3425
  860MOL0     C15999   9.521  12.106   4.979  0.4231 -0.1564  0.1438
  860MOL0     C16000   9.615  12.164   5.071  0.0747  0.4423 -1.6506
  860MOL0     O16001   9.629  12.103   5.200  0.1282 -0.0319  0.9681
  860MOL0     C16002   9.587  11.969   5.225 -0.5104  0.1837  0.4234
  860MOL0     C16003   9.662  11.911   5.348 -0.2032 -0.4600 -0.0212
  860MOL0     C16004   9.578  11.904   5.477 -0.5685 -0.5771  0.1308
  860MOL0     C16005   9.563  12.048   5.532 -0.0562 -1.2633 -0.8362
  860MOL0     C16006   9.526  12.045   5.683 -0.3576  0.0330 -0.4823
  860MOL0     C16007   9.471  12.174   5.749  0.2072  0.0227 -0.0506
  860MOL0     C16008   9.472  12.145   5.906 -0.4858 -0.9836 -0.3720
  860MOL0     C16009   9.397  12.247   5.993 -0.0859 -1.0986 -0.6719
  860MOL0    Cl16010   9.214  12.238   5.979 -0.5398 -0.5349  0.0998
  860MOL0     C16011   9.702  12.266   5.038 -0.7382 -0.0087 -0.2494
  860MOL0     C16012   9.699  12.319   4.907  0.3789 -0.6162  0.3359
  860MOL0     O16013   9.649  12.116   4.581 -0.5152 -0.9980 -0.0680
  860MOL0     C16014   9.643  12.229   4.328 -0.3160  0.3586 -0.9669
  860MOL0     C16015   9.639  12.289   4.203 -1.1678 -0.3767 -0.7716
  860MOL0     N16016   9.913  12.635   3.605  0.2926  0.3725 -0.8350
  860MOL0     N16017   9.957  12.668   3.492  0.0119 -0.4161 -0.0779
  860MOL0     C16018  10.576  11.919   3.186  0.3173 -0.8796 -0.6393
  860MOL0     C16019  10.705  11.889   3.238 -0.1469 -0.6445  0.0721
  860MOL0     C16020  11.022  11.563   3.440  0.0455 -0.9346  0.1132
  860MOL0     C16021  11.086  11.443   3.426  0.0685  0.3720  0.3142
  860MOL0     C16022  11.189  11.396   3.514  0.0406  0.8309  0.0428
  860MOL0     C16023  11.236  11.472   3.617 -0.5731 -0.5513 -0.3000
  860MOL0     O16024  11.329  11.418   3.699  0.1553  0.2834 -0.1156
  860MOL0     C16025  11.350  11.467   3.827 -0.2889  1.1162  0.2476
  860MOL0     C16026  11.464  11.380   3.900 -0.0516  0.0160 -0.1865
  860MOL0     C16027  11.609  11.364   3.820 -0.3346 -0.5204  0.5896
  860MOL0     C16028  11.699  11.253   3.877  0.4699 -0.0925 -0.1151
  860MOL0     C16029  11.629  11.125   3.875 -0.3101 -1.2081 -0.2395
  860MOL0     C16030  11.564  11.021   3.873  0.0543  0.2658  0.5195
  860MOL0     C16031  11.185  11.601   3.624 -0.5688 -0.2763  0.0533
  860MOL0     C16032  11.079  11.642   3.538 -0.6205 -0.1641  0.2128
  860MOL0     H16033  10.639  11.632   3.426 -0.6246  1.3968  0.8778
  860MOL0     H16034  10.408  11.698   3.351 -0.8419  1.2275 -1.7964
  860MOL0     H16035  10.377  12.034   3.052  1.0934  0.3557  0.0210
  860MOL0     H16036  10.209  11.973   3.074 -0.4891  1.0173  1.2217
  860MOL0     H16037  10.200  12.037   3.310  2.5590 -0.2215  0.8459
  860MOL0     H16038  10.366  12.112   3.300  2.0145  0.6285 -2.7213
  860MOL0     H16039  10.211  12.280   3.275  1.1061 -0.0246  0.5423
  860MOL0     H16040  10.258  12.248   3.110  4.1762 -2.6497  0.9696
  860MOL0     H16041  10.063  12.112   3.087 -0.7128 -1.7162  0.2620
  860MOL0     H16042   9.997  12.148   3.249 -2.8149  1.1190 -1.6340
  860MOL0     H16043  10.073  12.379   3.060  1.8270  0.8322  2.6997
  860MOL0     H16044   9.922  12.303   3.051 -1.7690  1.0005  2.1895
  860MOL0     H16045   9.889  12.351   3.294 -0.6079 -1.0433 -1.9322
  860MOL0     H16046  10.047  12.442   3.277  1.5072 -0.6210 -1.0912
  860MOL0     H16047   9.881  12.547   3.073  0.7554 -0.2539 -0.2241
  860MOL0     H16048   9.767  12.509   3.192 -1.0701 -0.0833 -4.1680
  860MOL0     H16049   9.862  12.753   3.202  0.7074  1.9172  1.8746
  860MOL0     H16050  10.014  12.684   3.257 -0.0468 -4.1112  1.4696
  860MOL0     H16051   9.664  12.596   3.406  0.3944 -0.4306 -1.1722
  860MOL0     H16052   9.616  12.474   3.633  0.7467  2.3671 -2.4255
  860MOL0     H16053   9.761  12.429   3.729  4.4932  1.6912 -1.0785
  860MOL0     H16054   9.622  12.692   3.724 -0.9975 -0.6761  0.4101
  860MOL0     H16055   9.740  12.650   3.847 -1.2386  2.5396  1.1878
  860MOL0     H16056   9.453  12.534   3.802 -2.1194 -0.9926  1.3746
  860MOL0     H16057   9.493  12.624   3.941 -0.1589  0.9736 -1.1602
  860MOL0     H16058   9.646  12.364   3.894 -0.8579 -2.5170  0.3083
  860MOL0     H16059   9.492  12.380   3.984 -0.6389 -0.1196 -2.0162
  860MOL0     H16060   9.732  12.596   4.282  0.4490 -0.2003 -0.5063
  860MOL0     H16061   9.797  12.469   4.627  2.9356  1.6140 -0.9196
  860MOL0     H16062   9.823  12.601   4.512 -0.6682  0.2245 -2.2320
  860MOL0     H16063   9.661  12.571   4.588 -2.4123 -4.2847 -2.2509
  860MOL0     H16064   9.446  12.127   4.774 -0.0463  1.1149 -0.9938
  860MOL0     H16065   9.456  12.027   5.015 -0.0819  0.8458  1.4879
  860MOL0     H16066   9.481  11.967   5.252 -0.4734  1.0501  0.6416
  860MOL0     H16067   9.612  11.902   5.142 -0.0837  2.2079 -1.1582
  860MOL0     H16068   9.688  11.810   5.317 -1.1180 -0.2384 -1.6047
  860MOL0     H16069   9.759  11.959   5.364  0.5978 -1.2700 -2.1321
  860MOL0     H16070   9.628  11.844   5.554 -0.3624  1.6345  1.8314
  860MOL0     H16071   9.486  11.851   5.453  0.6825 -2.3000 -1.1698
  860MOL0     H16072   9.656  12.103   5.515 -1.3878  1.1235 -0.7213
  860MOL0     H16073   9.476  12.097   5.488 -1.2698  1.1735  3.6510
  860MOL0     H16074   9.609  12.011   5.746 -2.6135 -1.8202  1.6946
  860MOL0     H16075   9.450  11.966   5.682  1.9331 -2.4075 -3.6814
  860MOL0     H16076   9.543  12.251   5.721  0.8878 -1.1496 -1.7231
  860MOL0     H16077   9.369  12.207   5.728 -1.2719 -2.0094  3.0908
  860MOL0     H16078   9.576  12.144   5.942 -0.8202  1.5758  0.8631
  860MOL0     H16079   9.439  12.042   5.921  3.3494 -2.8370 -2.8602
  860MOL0     H16080   9.434  12.344   5.958  2.2101 -2.2466 -1.6211
  860MOL0     H16081   9.426  12.238   6.098 -3.3715 -1.8287  0.2870
  860MOL0     H16082   9.768  12.302   5.117  3.7961 -6.0168 -0.6263
  860MOL0     H16083   9.753  12.405   4.868 -1.1909  1.0775  1.6918
  860MOL0     H16084   9.625  12.122   4.333 -3.3552  0.8274  0.9203
  860MOL0     H16085   9.630  12.218   4.122  0.4774 -2.0464  0.3994
  860MOL0     H16086  10.570  11.994   3.107 -2.6393 -0.3571 -0.0430
  860MOL0     H16087  10.783  11.943   3.185  3.4165 -5.7139 -0.5618
  860MOL0     H16088  11.058  11.381   3.341 -0.1447  1.9456 -0.8008
  860MOL0     H16089  11.222  11.293   3.509 -1.1395  0.1920  3.2443
  860MOL0     H16090  11.377  11.572   3.813 -0.1029  0.9528 -0.6640
  860MOL0     H16091  11.254  11.455   3.878 -0.6062 -3.7997 -0.9935
  860MOL0     H16092  11.415  11.283   3.909  2.6032 -1.2621  2.8441
  860MOL0     H16093  11.487  11.426   3.997 -1.9734  0.0498  0.2845
  860MOL0     H16094  11.666  11.457   3.828  2.2279 -1.7529 -1.8794
  860MOL0     H16095  11.590  11.349   3.713  3.0056  1.8807 -0.5080
  860MOL0     H16096  11.730  11.279   3.979 -0.0820 -0.7702  0.2300
  860MOL0     H16097  11.788  11.257   3.813  0.8707  1.8766  0.4924
  860MOL0     H16098  11.489  10.946   3.886 -0.6434  0.7558 -0.5088
  860MOL0     H16099  11.241  11.669   3.687  1.6866 -2.6436  0.7735
  860MOL0     H16100  11.042  11.738   3.573  3.0251 -0.1016  4.9678
  861MOL0     O16101   6.321   2.982   6.140 -0.1873  0.2336  0.3635
  861MOL0     C16102   6.425   2.916   6.102 -0.1381  0.6186  0.8709
  861MOL0     O16103   6.507   2.943   5.997 -0.8089 -0.1040 -0.5935
  861MOL0     C16104   6.503   3.069   5.933 -0.2329  0.3329  0.0892
  861MOL0     C16105   6.506   3.074   5.789  0.2895 -0.0773 -0.5054
  861MOL0     C16106   6.504   3.197   5.729  0.2702 -0.3570 -0.2151
  861MOL0     C16107   6.484   3.318   5.800 -0.5032  0.5210  0.0092
  861MOL0     O16108   6.484   3.438   5.728  0.5339  0.3784  0.4076
  861MOL0     C16109   6.545   3.550   5.793  0.6462 -0.3478  0.0860
  861MOL0     C16110   6.553   3.669   5.700 -0.4089 -0.3968  0.3981
  861MOL0     C16111   6.618   3.783   5.770  0.7287 -0.6776 -0.1521
  861MOL0     C16112   6.769   3.764   5.773  0.2981 -0.3194 -0.6204
  861MOL0     C16113   6.839   3.807   5.901  1.4338  0.6431 -0.3471
  861MOL0     C16114   6.988   3.792   5.885 -0.5160 -0.2996 -0.6844
  861MOL0     C16115   7.047   3.780   6.016  0.1646  0.6226  0.0864
  861MOL0     C16116   7.063   3.906   6.087  0.4345  0.0733  0.1871
  861MOL0     N16117   7.139   3.890   6.209 -0.1271  0.2072  0.2921
  861MOL0     C16118   7.267   3.946   6.234  0.4032 -0.0869 -0.3196
  861MOL0     C16119   7.289   3.910   6.358  0.4545  0.2520 -0.5647
  861MOL0     C16120   7.422   3.936   6.438  0.5823 -0.5708  0.4806
  861MOL0     C16121   7.541   3.855   6.382  0.7390 -0.2067  0.5229
  861MOL0     C16122   7.510   3.703   6.376 -0.2425  0.4625  0.3508
  861MOL0     C16123   7.447   3.648   6.500 -0.0280  0.0120 -0.5630
  861MOL0     O16124   7.524   3.684   6.616 -0.2820 -0.0176 -0.1985
  861MOL0     C16125   7.445   3.712   6.725 -0.6036 -1.3361  0.3357
  861MOL0     C16126   7.350   3.629   6.774 -0.7427 -1.2198  0.1768
  861MOL0     C16127   7.279   3.656   6.896 -0.3544 -0.5256 -0.2197
  861MOL0     C16128   7.199   3.533   6.955 -0.5563  1.0816  0.5401
  861MOL0     C16129   7.311   3.776   6.964  0.9089 -0.6168 -0.7820
  861MOL0     C16130   7.254   3.807   7.094  0.4266  0.3001  0.4699
  861MOL0     O16131   7.246   3.717   7.189  0.1536 -0.3548 -0.2867
  861MOL0     C16132   7.232   3.759   7.321  0.5597  0.2898  0.5817
  861MOL0     C16133   7.318   3.853   7.379  0.0390 -0.7578 -0.4527
  861MOL0     C16134   7.302   3.901   7.515  0.2137  0.3051  0.3291
  861MOL0     C16135   7.199   3.852   7.597 -0.8968 -0.4608  0.7368
  861MOL0     O16136   7.168   3.903   7.719 -0.4734  0.4665  0.2063
  861MOL0     C16137   7.273   3.987   7.780  0.0930 -0.7373  0.4322
  861MOL0     C16138   7.215   3.996   7.916 -0.5656  0.1192 -0.6875
  861MOL0     C16139   7.212   3.866   7.989  0.7560 -0.1774  0.1896
  861MOL0     C16140   7.126   3.866   8.111  0.0767 -0.9038  0.4108
  861MOL0     C16141   7.129   3.725   8.182 -0.4366 -0.8063  0.8136
  861MOL0     C16142   7.017   3.644   8.131  0.5384  0.1756  0.0474
  861MOL0     C16143   6.884   3.696   8.179  0.0600 -0.5901 -0.3736
  861MOL0     C16144   6.856   3.733   8.326  0.2508 -0.4725 -0.1216
  861MOL0    Cl16145   6.912   3.613   8.454  0.0704  0.1432 -0.0277
  861MOL0     C16146   7.107   3.773   7.529  0.3942  0.5337 -0.3305
  861MOL0     C16147   7.125   3.722   7.395 -0.3716  0.1381 -0.1594
  861MOL0     O16148   7.208   3.919   7.095 -0.5634 -0.4467 -0.6434
  861MOL0     C16149   7.413   3.860   6.916 -0.9132 -0.6171  0.0297
  861MOL0     C16150   7.476   3.825   6.803  0.3734 -0.1082 -0.0014
  861MOL0     N16151   7.175   3.843   6.414 -0.0069 -0.2593  0.1868
  861MOL0     N16152   7.091   3.842   6.326  0.4418  0.3800 -0.1110
  861MOL0     C16153   6.484   3.320   5.942  1.2771  0.5648  1.2110
  861MOL0     C16154   6.502   3.193   6.009 -0.5126  0.2874 -0.2894
  861MOL0     C16155   6.461   2.792   6.175 -0.0604  0.2792 -0.6862
  861MOL0     C16156   6.383   2.763   6.286 -0.7921  0.2700 -0.3862
  861MOL0     C16157   6.426   2.651   6.359  0.3046 -0.0776 -0.6269
  861MOL0     C16158   6.535   2.570   6.327  0.3635 -0.2699  0.3840
  861MOL0     O16159   6.564   2.460   6.413 -0.4230  0.4616 -0.0551
  861MOL0     C16160   6.703   2.417   6.403  0.5936 -0.4320  0.1033
  861MOL0     C16161   6.750   2.310   6.503  0.2679 -0.1783  0.4941
  861MOL0     C16162   6.708   2.336   6.646 -0.1105 -0.1534 -0.8574
  861MOL0     C16163   6.818   2.375   6.738 -0.1934 -0.4519  0.3981
  861MOL0     C16164   6.760   2.437   6.859  0.5564 -0.5560 -0.0889
  861MOL0     C16165   6.700   2.490   6.957 -0.6237  0.3700  0.7382
  861MOL0     C16166   6.615   2.609   6.218 -0.1373 -0.3146  0.3666
  861MOL0     C16167   6.576   2.716   6.145 -0.7864 -0.2602  0.0781
  861MOL0     H16168   6.504   2.981   5.732 -0.3225 -0.5609  0.2910
  861MOL0     H16169   6.496   3.217   5.622  1.9366  7.3435  0.5056
  861MOL0     H16170   6.492   3.583   5.882  3.6442  0.7197  1.6217
  861MOL0     H16171   6.639   3.525   5.843  0.5287  2.8030  2.1333
  861MOL0     H16172   6.612   3.648   5.611  0.1112 -0.4195  0.7483
  861MOL0     H16173   6.452   3.701   5.670 -0.7893  0.1435  2.1196
  861MOL0     H16174   6.591   3.876   5.719  0.5885 -0.6606 -0.0471
  861MOL0     H16175   6.584   3.807   5.871  0.1473 -0.8935 -0.2940
  861MOL0     H16176   6.803   3.660   5.777  0.1721 -0.3416  2.8475
  861MOL0     H16177   6.813   3.813   5.685 -0.7702  0.1176 -0.9174
  861MOL0     H16178   6.812   3.909   5.930  1.9337  1.1936 -1.7533
  861MOL0     H16179   6.795   3.740   5.976 -1.5758  1.1917 -1.5092
  861MOL0     H16180   7.016   3.700   5.833 -0.0501 -0.6633  0.1836
  861MOL0     H16181   7.029   3.878   5.830  1.9329  1.0464  2.8789
  861MOL0     H16182   6.988   3.711   6.077  2.3662 -2.2814 -0.8168
  861MOL0     H16183   7.143   3.727   6.011  0.1422  0.4369  1.3106
  861MOL0     H16184   6.962   3.940   6.113  0.5047 -0.7463  1.6882
  861MOL0     H16185   7.114   3.989   6.037  1.8252 -0.6528  0.3391
  861MOL0     H16186   7.335   3.996   6.166  1.6873 -0.6288  0.5365
  861MOL0     H16187   7.436   4.044   6.427  3.2284 -0.7662  1.3028
  861MOL0     H16188   7.399   3.915   6.543  1.2732  0.9654  0.9634
  861MOL0     H16189   7.626   3.873   6.449 -0.4272 -0.2705  2.0769
  861MOL0     H16190   7.576   3.889   6.285 -0.3619  0.9963  0.5143
  861MOL0     H16191   7.600   3.650   6.344 -0.0502  0.5602  0.7165
  861MOL0     H16192   7.427   3.703   6.304 -0.1889  1.0863  0.2805
  861MOL0     H16193   7.438   3.539   6.504  0.3698 -0.1846  5.9352
  861MOL0     H16194   7.341   3.678   6.505 -0.3990 -1.0070 -1.7305
  861MOL0     H16195   7.336   3.538   6.717 -0.9382 -0.3539 -1.1912
  861MOL0     H16196   7.107   3.575   6.997  0.7496  2.3150  2.3162
  861MOL0     H16197   7.171   3.465   6.875  3.7690 -0.0590 -0.2757
  861MOL0     H16198   7.251   3.480   7.035 -1.5137 -0.3655  0.2450
  861MOL0     H16199   7.409   3.892   7.334  0.6354  0.2055  1.4417
  861MOL0     H16200   7.373   3.974   7.553 -0.0186  0.2629  0.8470
  861MOL0     H16201   7.372   3.942   7.793  0.7114  1.2819  3.6604
  861MOL0     H16202   7.287   4.082   7.728 -0.4729 -0.2944  1.0845
  861MOL0     H16203   7.261   4.075   7.977  0.5889  0.2851 -1.7278
  861MOL0     H16204   7.111   4.028   7.908 -0.4333  0.6925 -0.2137
  861MOL0     H16205   7.315   3.852   8.025  1.4764  5.2986  1.0126
  861MOL0     H16206   7.171   3.788   7.925 -2.9650 -0.5373  2.7038
  861MOL0     H16207   7.146   3.950   8.178 -0.7039  1.4486 -2.1584
  861MOL0     H16208   7.024   3.889   8.082  0.8264  2.5465  0.0597
  861MOL0     H16209   7.129   3.749   8.289 -2.2735 -0.3519  0.7341
  861MOL0     H16210   7.221   3.671   8.155 -0.0716 -0.0886  0.5968
  861MOL0     H16211   7.020   3.659   8.022  4.2514 -0.9847 -0.1185
  861MOL0     H16212   7.040   3.538   8.144 -1.0006 -0.5997 -2.6102
  861MOL0     H16213   6.822   3.607   8.166 -0.1219 -0.5462  0.2079
  861MOL0     H16214   6.854   3.781   8.117  0.1362 -0.6098 -0.4375
  861MOL0     H16215   6.747   3.736   8.340 -0.2496  1.7434 -3.3457
  861MOL0     H16216   6.893   3.832   8.355  0.1428 -1.0632  2.2245
  861MOL0     H16217   7.027   3.733   7.591  0.6524  0.3453 -0.1193
  861MOL0     H16218   7.056   3.647   7.357 -0.8087  1.2369 -1.5721
  861MOL0     H16219   7.428   3.951   6.973 -1.8370  0.9389 -2.0821
  861MOL0     H16220   7.541   3.900   6.758  1.2885  0.3095  1.9266
  861MOL0     H16221   6.465   3.409   6.001 -2.3141  2.8328 -2.8186
  861MOL0     H16222   6.513   3.192   6.117  3.8112 -2.5143 -0.5001
  861MOL0     H16223   6.302   2.817   6.333 -0.8612  0.9295 -1.2327
  861MOL0     H16224   6.370   2.631   6.451 -0.2672  4.7772  0.3392
  861MOL0     H16225   6.717   2.363   6.309  3.0139 -2.5537  1.5720
  861MOL0     H16226   6.763   2.509   6.406  0.0785 -0.1202  1.7419
  861MOL0     H16227   6.858   2.307   6.486  1.0383  0.7285  4.3924
  861MOL0     H16228   6.694   2.227   6.460 -0.0746  1.0239 -1.5404
  861MOL0     H16229   6.650   2.252   6.686  0.2355  0.3882  0.8964
  861MOL0     H16230   6.645   2.425   6.644  1.3089  0.8794 -2.3441
  861MOL0     H16231   6.875   2.451   6.685 -0.8740  1.2253  1.9685
  861MOL0     H16232   6.890   2.296   6.765  1.2937  0.0253 -1.9312
  861MOL0     H16233   6.670   2.548   7.042  1.4989 -0.7868  2.3814
  861MOL0     H16234   6.701   2.548   6.194  0.7059  0.7165  0.7339
  861MOL0     H16235   6.625   2.750   6.054  1.5380 -0.6510  1.1112
  862MOL0     O16236   5.965   5.631   1.324 -0.0388 -0.7649 -0.4410
  862MOL0     C16237   6.004   5.613   1.207  1.1347 -1.1288 -0.3608
  862MOL0     O16238   6.050   5.509   1.148  0.0596 -0.3985  1.0475
  862MOL0     C16239   6.031   5.386   1.205 -0.4353  0.1218 -0.8714
  862MOL0     C16240   6.126   5.288   1.189  0.3601  0.6174 -0.6341
  862MOL0     C16241   6.110   5.156   1.245 -0.0536 -0.5053 -0.8905
  862MOL0     C16242   5.986   5.124   1.298 -0.2500 -0.2821 -0.4435
  862MOL0     O16243   5.971   4.997   1.363 -0.2985 -0.1859  0.6429
  862MOL0     C16244   6.083   4.952   1.447  0.8277 -0.6995  1.3372
  862MOL0     C16245   6.036   4.822   1.515  1.0684  0.0947  0.9535
  862MOL0     C16246   6.054   4.689   1.427 -0.9936 -0.7079 -0.7846
  862MOL0     C16247   6.006   4.577   1.508  0.0256 -0.0217  0.0367
  862MOL0     C16248   5.989   4.445   1.435  0.1569  0.2587  0.1938
  862MOL0     C16249   5.923   4.331   1.515 -0.3071 -0.0619  0.4607
  862MOL0     C16250   5.916   4.191   1.447  0.3296 -0.3784  0.8193
  862MOL0     C16251   6.033   4.109   1.397 -0.1952 -1.0640  0.2217
  862MOL0     N16252   6.003   3.975   1.334  0.1718  0.3800 -0.2532
  862MOL0     C16253   5.881   3.942   1.293 -0.4128 -0.2432  0.1842
  862MOL0     C16254   5.887   3.810   1.252  0.9883  0.2508 -0.3257
  862MOL0     C16255   5.786   3.726   1.187 -1.1430 -0.2831  0.3448
  862MOL0     C16256   5.754   3.753   1.029 -0.7187  0.1135  0.9072
  862MOL0     C16257   5.664   3.875   0.991  0.1363  0.6215 -0.1048
  862MOL0     C16258   5.633   3.885   0.838  0.6613 -0.1949 -0.3280
  862MOL0     O16259   5.536   3.976   0.800  0.4124 -0.6073 -1.5083
  862MOL0     C16260   5.565   4.119   0.797  1.0870 -0.2669 -0.1732
  862MOL0     C16261   5.467   4.207   0.813 -0.4584 -0.0859 -1.1842
  862MOL0     C16262   5.489   4.350   0.826 -0.1682  0.4733  0.4526
  862MOL0     C16263   5.384   4.442   0.870  0.0001 -0.1389 -0.5672
  862MOL0     C16264   5.613   4.404   0.792  0.6329  0.5852  0.1957
  862MOL0     C16265   5.649   4.543   0.788  1.2422 -0.2216 -0.9737
  862MOL0     O16266   5.606   4.623   0.685  0.0628  0.6195 -0.5920
  862MOL0     C16267   5.683   4.726   0.636 -0.5353  0.5928  0.4276
  862MOL0     C16268   5.697   4.724   0.503 -0.4385  0.0070  0.7746
  862MOL0     C16269   5.763   4.830   0.441 -0.4072  0.2854  0.2846
  862MOL0     C16270   5.803   4.943   0.510 -0.5828  0.1623 -0.7370
  862MOL0     O16271   5.864   5.040   0.430  0.3402 -0.3885  0.7252
  862MOL0     C16272   5.924   5.155   0.483  0.2612 -0.2665 -0.3888
  862MOL0     C16273   6.036   5.211   0.401  0.1787 -0.5694 -0.0483
  862MOL0     C16274   6.123   5.328   0.464  0.0102  0.5432  0.7181
  862MOL0     C16275   6.281   5.321   0.443  1.9496 -0.1614  0.6831
  862MOL0     C16276   6.352   5.456   0.452 -0.4413  0.0906  0.8372
  862MOL0     C16277   6.384   5.501   0.600 -0.0792 -0.1903 -0.1123
  862MOL0     C16278   6.517   5.452   0.662 -0.2522 -0.8795 -0.1532
  862MOL0     C16279   6.508   5.350   0.777  0.0560  0.0947  0.5966
  862MOL0    Cl16280   6.422   5.409   0.926 -0.3071  0.2598 -0.3557
  862MOL0     C16281   5.779   4.953   0.646 -0.1013 -0.5803 -0.6018
  862MOL0     C16282   5.713   4.846   0.703  0.2210  0.4977  0.6185
  862MOL0     O16283   5.729   4.581   0.874 -1.3786 -0.5029  0.2090
  862MOL0     C16284   5.715   4.315   0.783  0.4662 -0.5206  0.7169
  862MOL0     C16285   5.692   4.173   0.771 -0.3974 -0.6915 -1.0175
  862MOL0     N16286   6.014   3.765   1.288  0.3877 -0.9430 -0.0589
  862MOL0     N16287   6.083   3.867   1.337 -0.8257  0.3337  0.1345
  862MOL0     C16288   5.877   5.214   1.293 -0.9458  0.6074  0.0770
  862MOL0     C16289   5.896   5.344   1.255  0.2008  0.0662  0.1766
  862MOL0     C16290   5.988   5.725   1.122 -0.5221  0.1440  0.4036
  862MOL0     C16291   5.988   5.860   1.166 -0.4758  0.0177 -0.4654
  862MOL0     C16292   5.969   5.964   1.080  0.1070  0.3283  0.7880
  862MOL0     C16293   5.947   5.944   0.936  0.5035 -0.9459 -0.3291
  862MOL0     O16294   5.916   6.046   0.847  0.3755 -0.4011 -0.2033
  862MOL0     C16295   5.956   6.178   0.885 -0.4567 -0.1253  0.1947
  862MOL0     C16296   5.944   6.272   0.757 -0.3242 -0.4766  0.5857
  862MOL0     C16297   5.799   6.292   0.717  0.6143 -0.3841  0.1550
  862MOL0     C16298   5.781   6.370   0.583 -0.6066 -0.3125 -0.7406
  862MOL0     C16299   5.836   6.503   0.587 -0.3672 -0.0453 -0.0307
  862MOL0     C16300   5.885   6.618   0.566  0.1475  0.3357 -0.7744
  862MOL0     C16301   5.960   5.811   0.893  0.9651  0.1231 -0.3454
  862MOL0     C16302   5.983   5.707   0.983 -0.0819 -0.2893 -0.2802
  862MOL0     H16303   6.212   5.307   1.125 -0.1868  3.7219 -0.6218
  862MOL0     H16304   6.184   5.078   1.230  0.5558  0.0651 -0.9046
  862MOL0     H16305   6.158   4.916   1.377 -2.6468 -3.1036 -1.5222
  862MOL0     H16306   6.117   5.032   1.514 -1.1505  2.3886 -1.0581
  862MOL0     H16307   6.096   4.817   1.606  1.8827 -0.0019  0.4273
  862MOL0     H16308   5.931   4.826   1.544  1.2272  0.0141  1.5489
  862MOL0     H16309   5.989   4.690   1.339  0.5719 -2.0490 -2.0165
  862MOL0     H16310   6.150   4.668   1.378 -1.5115 -0.0996 -2.1162
  862MOL0     H16311   6.085   4.564   1.582  2.4887  1.6883 -2.0786
  862MOL0     H16312   5.909   4.593   1.555  0.4542  0.4337  0.7907
  862MOL0     H16313   5.935   4.471   1.343 -0.6994  0.4254  0.7297
  862MOL0     H16314   6.087   4.407   1.405 -0.7293 -3.9225  1.9395
  862MOL0     H16315   5.984   4.320   1.606 -1.1188  0.3984  1.0702
  862MOL0     H16316   5.832   4.368   1.562 -0.9709 -2.1003  0.8602
  862MOL0     H16317   5.873   4.119   1.518  0.3993 -1.6480 -0.3815
  862MOL0     H16318   5.841   4.208   1.370  0.3800 -0.4779  0.7487
  862MOL0     H16319   6.112   4.087   1.470  1.4836 -0.8227 -1.4435
  862MOL0     H16320   6.071   4.181   1.324  0.1295  1.2863  2.5409
  862MOL0     H16321   5.794   4.007   1.290 -1.3248 -1.0233 -7.2152
  862MOL0     H16322   5.833   3.628   1.200  2.3263  0.8229 -2.0843
  862MOL0     H16323   5.704   3.712   1.258 -1.3110 -4.8588 -0.4437
  862MOL0     H16324   5.728   3.668   0.966  2.3147  0.4995 -1.0708
  862MOL0     H16325   5.851   3.778   0.984 -2.7289  1.5752 -3.1003
  862MOL0     H16326   5.702   3.975   1.016 -0.0700  0.4492  0.9719
  862MOL0     H16327   5.574   3.849   1.046  0.0498 -2.2754 -1.4449
  862MOL0     H16328   5.605   3.785   0.800 -0.1365 -0.7981  1.7222
  862MOL0     H16329   5.730   3.903   0.792  1.2045  0.1065  0.9148
  862MOL0     H16330   5.374   4.160   0.840  0.9053 -1.5678  1.2662
  862MOL0     H16331   5.306   4.391   0.928  1.7814 -0.8856  1.2940
  862MOL0     H16332   5.412   4.516   0.945 -0.3949 -0.6219  0.0669
  862MOL0     H16333   5.336   4.496   0.788 -4.1152 -0.8614  1.0844
  862MOL0     H16334   5.664   4.638   0.447  0.4114  0.6335 -0.7349
  862MOL0     H16335   5.773   4.810   0.335  1.2641 -1.7107  0.7516
  862MOL0     H16336   5.852   5.237   0.484  0.1458 -0.3201  1.8513
  862MOL0     H16337   5.959   5.141   0.586 -0.6538 -0.6164 -0.1125
  862MOL0     H16338   6.117   5.140   0.380 -0.6000 -1.7720  0.8562
  862MOL0     H16339   5.999   5.260   0.311  0.5299 -0.0271  0.1004
  862MOL0     H16340   6.093   5.335   0.569 -5.1073  0.7587 -0.4951
  862MOL0     H16341   6.088   5.417   0.410  2.3735 -0.2119 -2.2954
  862MOL0     H16342   6.319   5.251   0.518  2.1145 -3.3862 -2.1517
  862MOL0     H16343   6.311   5.286   0.344 -0.2431  1.7731 -0.7846
  862MOL0     H16344   6.297   5.533   0.397 -2.0512  0.9254  3.4137
  862MOL0     H16345   6.451   5.446   0.406 -0.7679  1.0744 -0.1256
  862MOL0     H16346   6.386   5.610   0.609  1.0519 -0.4081  4.7904
  862MOL0     H16347   6.300   5.467   0.662  1.1995 -1.3344  1.0286
  862MOL0     H16348   6.574   5.536   0.702  1.4787 -2.5331  1.0860
  862MOL0     H16349   6.579   5.405   0.585  1.9317  1.0770  0.3279
  862MOL0     H16350   6.612   5.322   0.801 -0.4767 -1.2663  1.4391
  862MOL0     H16351   6.466   5.254   0.746 -3.4370  1.4670  0.7394
  862MOL0     H16352   5.791   5.040   0.709  0.4797 -2.4558  2.0789
  862MOL0     H16353   5.681   4.857   0.806 -1.9254 -1.7985  0.3159
  862MOL0     H16354   5.819   4.344   0.790  0.9789 -2.2585  0.6744
  862MOL0     H16355   5.776   4.107   0.752  1.2983  0.6002  1.4707
  862MOL0     H16356   5.781   5.172   1.322  0.2135 -2.2295  0.1212
  862MOL0     H16357   5.807   5.406   1.252 -2.9208 -3.8953  1.6475
  862MOL0     H16358   6.009   5.880   1.271 -1.2414 -0.6876 -0.1747
  862MOL0     H16359   5.974   6.064   1.121  0.3157 -0.0294  1.6554
  862MOL0     H16360   5.899   6.220   0.968 -0.2537 -0.4819  0.5172
  862MOL0     H16361   6.062   6.157   0.905 -0.4055 -1.7829 -1.5073
  862MOL0     H16362   6.006   6.240   0.673  0.9260 -1.9595  1.9958
  862MOL0     H16363   5.982   6.368   0.792  0.2901 -0.5208  0.0562
  862MOL0     H16364   5.744   6.335   0.801  1.2292  0.6321  0.0621
  862MOL0     H16365   5.776   6.187   0.700  1.5828 -0.5885  0.0489
  862MOL0     H16366   5.675   6.378   0.557 -0.9496  0.7819  0.9002
  862MOL0     H16367   5.832   6.306   0.509 -2.6531 -3.7808  0.5774
  862MOL0     H16368   5.920   6.716   0.542  0.7600  0.3547  0.1190
  862MOL0     H16369   5.946   5.795   0.787 -2.0052 -1.6320  0.1774
  862MOL0     H16370   6.004   5.612   0.935  1.8485 -0.5478  0.9817
  863MOL0     O16371   7.457   7.411   7.892 -0.6762 -0.2790 -0.5431
  863MOL0     C16372   7.345   7.443   7.938  0.0655  0.3550 -0.0387
  863MOL0     O16373   7.316   7.554   8.014 -0.0023 -0.6302  0.3276
  863MOL0     C16374   7.404   7.654   8.032  0.7449  0.3776 -0.1228
  863MOL0     C16375   7.502   7.698   7.946 -0.4031  0.6505  1.0066
  863MOL0     C16376   7.569   7.818   7.959  0.3556  0.5767 -1.4076
  863MOL0     C16377   7.530   7.907   8.057  0.4229 -0.5180 -0.5963
  863MOL0     O16378   7.576   8.034   8.069 -0.0647  0.5859  0.1498
  863MOL0     C16379   7.616   8.090   7.948 -0.1856 -0.0268  0.0214
  863MOL0     C16380   7.600   8.246   7.963  0.4060  0.0454 -0.2475
  863MOL0     C16381   7.670   8.327   7.850 -0.6131  1.2913 -0.8243
  863MOL0     C16382   7.819   8.319   7.849  0.3774 -0.5230 -0.3331
  863MOL0     C16383   7.872   8.447   7.787 -0.6852 -0.5134 -0.1329
  863MOL0     C16384   7.859   8.443   7.632 -0.3417  0.8762 -0.6756
  863MOL0     C16385   7.898   8.575   7.566 -0.4115 -0.4032  0.1866
  863MOL0     C16386   7.834   8.699   7.624  0.7060 -0.0316 -0.2554
  863MOL0     N16387   7.688   8.690   7.608  0.2115 -0.5641  0.0397
  863MOL0     C16388   7.602   8.680   7.717 -0.6547  0.9665 -0.2388
  863MOL0     C16389   7.485   8.675   7.656  0.5272 -0.2557 -1.2209
  863MOL0     C16390   7.354   8.658   7.730 -0.6323 -0.1037 -0.5288
  863MOL0     C16391   7.341   8.749   7.855  0.0805 -0.0683  0.2743
  863MOL0     C16392   7.325   8.903   7.843  0.9652  0.9208  0.0799
  863MOL0     C16393   7.201   8.942   7.763  0.1141 -0.7851 -0.7870
  863MOL0     O16394   7.187   9.083   7.790 -0.0436  0.2793  0.2536
  863MOL0     C16395   7.276   9.172   7.729  0.7912  0.4013 -0.1246
  863MOL0     C16396   7.331   9.152   7.605  0.1040 -0.0392 -0.1358
  863MOL0     C16397   7.439   9.239   7.559 -0.6326  0.6661 -0.8248
  863MOL0     C16398   7.500   9.200   7.429 -0.2049  0.3227 -0.0770
  863MOL0     C16399   7.484   9.351   7.640  0.6441 -1.1653 -0.1394
  863MOL0     C16400   7.580   9.461   7.599 -0.6484 -0.0591  0.5313
  863MOL0     O16401   7.663   9.499   7.695 -0.0603 -0.5747  0.3586
  863MOL0     C16402   7.704   9.632   7.687  1.3672 -0.4943  0.3047
  863MOL0     C16403   7.834   9.671   7.710 -1.0945  0.3069  1.2924
  863MOL0     C16404   7.877   9.805   7.694 -0.8789  0.2691 -0.7797
  863MOL0     C16405   7.790   9.902   7.672 -0.9871  0.1498  0.2944
  863MOL0     O16406   7.845  10.028   7.661 -0.0780  0.4457 -0.6098
  863MOL0     C16407   7.768  10.139   7.693 -0.1630  0.4767 -0.6610
  863MOL0     C16408   7.752  10.148   7.845  0.1012  0.0810  0.5221
  863MOL0     C16409   7.889  10.147   7.924  0.3788 -0.3486  0.3709
  863MOL0     C16410   7.971  10.280   7.903 -1.2352 -0.9472 -0.6688
  863MOL0     C16411   8.105  10.276   7.994 -0.2372 -1.1758 -0.8436
  863MOL0     C16412   8.201  10.384   7.935 -0.3306 -0.7847 -1.2197
  863MOL0     C16413   8.173  10.520   8.006  0.0037 -0.8857  0.7204
  863MOL0     C16414   8.296  10.586   8.062  0.4322 -0.0999  0.0076
  863MOL0    Cl16415   8.426  10.640   7.940  0.4983  0.6149 -0.2980
  863MOL0     C16416   7.655   9.872   7.666 -0.4250 -0.8277  0.0847
  863MOL0     C16417   7.608   9.745   7.666 -0.3160 -0.6645  0.4301
  863MOL0     O16418   7.593   9.487   7.478 -0.4052 -0.4061 -0.0387
  863MOL0     C16419   7.409   9.379   7.765 -0.5404  0.1694  1.2816
  863MOL0     C16420   7.316   9.283   7.803  0.7935 -0.5412  0.0488
  863MOL0     N16421   7.493   8.681   7.515 -0.3210 -0.5383  0.0433
  863MOL0     N16422   7.613   8.688   7.494 -0.7847 -0.7266 -0.2627
  863MOL0     C16423   7.415   7.882   8.130  0.7531  0.6179 -0.7924
  863MOL0     C16424   7.358   7.755   8.124 -0.0350 -0.2209  0.8825
  863MOL0     C16425   7.234   7.353   7.909  0.1737 -0.3946  0.0479
  863MOL0     C16426   7.238   7.255   7.800  0.0358  0.6082  0.2966
  863MOL0     C16427   7.135   7.172   7.779  0.1708 -0.1869 -0.5301
  863MOL0     C16428   7.017   7.176   7.859 -0.3750 -0.2396 -0.0110
  863MOL0     O16429   6.918   7.082   7.841  0.4741 -0.2956 -0.5733
  863MOL0     C16430   6.924   6.960   7.914 -0.7521  0.3704  0.3487
  863MOL0     C16431   6.827   6.841   7.883  0.3185  0.2227  0.4161
  863MOL0     C16432   6.683   6.886   7.883  0.2826 -0.7011  0.3793
  863MOL0     C16433   6.581   6.801   7.809  0.3373 -0.3605  0.5812
  863MOL0     C16434   6.558   6.673   7.878 -0.7610  0.0622 -0.4365
  863MOL0     C16435   6.515   6.569   7.931 -0.5042  0.0677 -0.9356
  863MOL0     C16436   7.015   7.268   7.965 -0.5147 -0.6319  0.3943
  863MOL0     C16437   7.120   7.361   7.982  0.0131  0.8226 -0.5145
  863MOL0     H16438   7.524   7.634   7.861  2.7602  2.0776  0.6142
  863MOL0     H16439   7.650   7.845   7.892 -0.1043  2.2137 -1.3552
  863MOL0     H16440   7.720   8.055   7.946 -0.3176 -0.5995  1.4636
  863MOL0     H16441   7.551   8.064   7.865 -1.8576  0.9117  0.9856
  863MOL0     H16442   7.493   8.269   7.962  0.6625  1.3909  0.7924
  863MOL0     H16443   7.642   8.258   8.063  2.5028  0.0588 -1.0713
  863MOL0     H16444   7.633   8.283   7.757  1.0220 -2.7155  0.2211
  863MOL0     H16445   7.645   8.433   7.858 -0.9838  1.1236  0.5565
  863MOL0     H16446   7.843   8.323   7.956  1.5704  0.0371 -0.6073
  863MOL0     H16447   7.855   8.229   7.797 -1.9258 -0.9000 -1.4010
  863MOL0     H16448   7.815   8.535   7.820  1.0528  1.7340 -2.7050
  863MOL0     H16449   7.979   8.465   7.801 -1.0993  3.0932 -0.6435
  863MOL0     H16450   7.931   8.370   7.592 -0.1352  0.9603 -0.4630
  863MOL0     H16451   7.759   8.422   7.595 -0.4973  2.7804 -1.4401
  863MOL0     H16452   8.006   8.594   7.563 -0.2006 -1.3049 -3.9211
  863MOL0     H16453   7.897   8.564   7.457 -1.9713  0.7333  0.0475
  863MOL0     H16454   7.863   8.796   7.583 -1.7263  2.0624  2.4604
  863MOL0     H16455   7.847   8.707   7.733 -0.5684 -4.6987  0.4590
  863MOL0     H16456   7.626   8.692   7.822 -1.6986 -0.4380  0.1838
  863MOL0     H16457   7.280   8.696   7.659  1.0173  3.6059 -0.4945
  863MOL0     H16458   7.329   8.552   7.742 -0.0422 -0.0452  1.5954
  863MOL0     H16459   7.432   8.738   7.914 -0.2251 -5.0495  0.3004
  863MOL0     H16460   7.262   8.710   7.919  2.8763 -2.6136  2.4566
  863MOL0     H16461   7.413   8.950   7.798  0.1485  1.5587 -0.8954
  863MOL0     H16462   7.298   8.941   7.941  0.0817 -0.3095  0.3389
  863MOL0     H16463   7.108   8.903   7.805 -1.5545  1.8094 -1.7827
  863MOL0     H16464   7.202   8.913   7.657 -3.9413 -0.6402 -1.0400
  863MOL0     H16465   7.286   9.084   7.534 -0.0408 -0.9761  0.8250
  863MOL0     H16466   7.484   9.093   7.412  2.8840 -0.1611 -0.4251
  863MOL0     H16467   7.453   9.257   7.348 -1.0252  2.4034  1.7792
  863MOL0     H16468   7.608   9.210   7.414  0.1250 -1.3612  0.9624
  863MOL0     H16469   7.920   9.607   7.722 -0.5653  1.0659  1.6114
  863MOL0     H16470   7.978   9.840   7.711 -0.1603 -0.8217 -2.4704
  863MOL0     H16471   7.821  10.225   7.651  1.9586  0.1409  1.1497
  863MOL0     H16472   7.671  10.126   7.643  1.3421 -4.0710 -2.9828
  863MOL0     H16473   7.698  10.236   7.880  0.4633 -0.2054  1.8767
  863MOL0     H16474   7.693  10.061   7.874 -2.8789  1.3132 -1.4518
  863MOL0     H16475   7.936  10.052   7.897 -0.1333 -1.3746  2.7951
  863MOL0     H16476   7.867  10.129   8.030  1.1238 -2.0986  0.2589
  863MOL0     H16477   8.011  10.291   7.802  1.5142  0.3593  0.4521
  863MOL0     H16478   7.909  10.368   7.920  0.4225 -0.1266  1.8058
  863MOL0     H16479   8.165  10.185   7.988  3.9963  1.1954  0.9618
  863MOL0     H16480   8.088  10.288   8.101  3.4336  0.4052 -0.2865
  863MOL0     H16481   8.302  10.354   7.963 -0.7246 -1.3810 -0.4244
  863MOL0     H16482   8.187  10.400   7.827 -1.5683  1.4832 -0.7992
  863MOL0     H16483   8.098  10.499   8.083  0.4746 -0.0847  1.4124
  863MOL0     H16484   8.114  10.592   7.948 -0.6213 -1.0838  1.1002
  863MOL0     H16485   8.335  10.510   8.129  0.0301  0.2674  0.6708
  863MOL0     H16486   8.264  10.675   8.117 -3.1194 -0.7790 -0.7071
  863MOL0     H16487   7.578   9.949   7.664  0.1708 -0.1746 -3.1724
  863MOL0     H16488   7.500   9.735   7.662 -0.0710 -5.0123 -1.3117
  863MOL0     H16489   7.433   9.460   7.833  0.2082  0.7661  0.3322
  863MOL0     H16490   7.264   9.301   7.897  0.3217  1.5093 -0.5441
  863MOL0     H16491   7.372   7.952   8.202  0.7732 -1.4063  1.2744
  863MOL0     H16492   7.272   7.726   8.183 -1.5642  1.6419 -0.2824
  863MOL0     H16493   7.324   7.252   7.733  2.3323  1.5062  2.9961
  863MOL0     H16494   7.149   7.093   7.706  0.1240 -4.5701  3.6518
  863MOL0     H16495   7.027   6.943   7.880 -1.4250  0.9134 -2.1730
  863MOL0     H16496   6.918   6.984   8.020  1.4347  1.5285  0.2772
  863MOL0     H16497   6.834   6.755   7.950 -1.1233 -0.8667 -0.7689
  863MOL0     H16498   6.858   6.813   7.782 -2.1408 -0.2289 -0.2697
  863MOL0     H16499   6.665   6.986   7.843 -0.7520  0.1053  2.6434
  863MOL0     H16500   6.656   6.893   7.989  0.4193 -2.5092  0.5713
  863MOL0     H16501   6.610   6.779   7.706  4.1710  0.5569  1.2993
  863MOL0     H16502   6.490   6.857   7.788 -0.5002 -1.8453  0.1256
  863MOL0     H16503   6.472   6.480   7.971  1.7688 -0.3032  0.8964
  863MOL0     H16504   6.929   7.270   8.031 -1.6574 -1.3176 -1.0133
  863MOL0     H16505   7.122   7.418   8.074 -1.6840  0.2423 -0.0761
  864MOL0     O16506   6.790   5.070   6.507  0.6763 -0.1772 -1.0753
  864MOL0     C16507   6.899   5.137   6.528  0.2400  0.9819 -0.2602
  864MOL0     O16508   7.001   5.149   6.438 -0.7192 -1.3198 -0.5431
  864MOL0     C16509   6.995   5.133   6.306  0.5659  1.2592  0.1921
  864MOL0     C16510   6.865   5.138   6.245 -0.0905  0.6736  1.0206
  864MOL0     C16511   6.866   5.123   6.104 -0.3869 -0.8121 -1.3323
  864MOL0     C16512   6.985   5.113   6.028 -0.5404  0.6083  0.6102
  864MOL0     O16513   6.978   5.083   5.894  0.4152  0.2259  0.2903
  864MOL0     C16514   7.099   5.092   5.818 -0.2397  0.8312  0.4634
  864MOL0     C16515   7.173   4.961   5.791  0.0459 -0.2618 -0.5042
  864MOL0     C16516   7.094   4.849   5.736  0.3658 -0.1800 -0.3135
  864MOL0     C16517   7.163   4.744   5.652  0.4308 -0.1418 -0.0347
  864MOL0     C16518   7.064   4.658   5.573  0.2114 -0.2204 -1.0235
  864MOL0     C16519   6.953   4.600   5.652  1.4124 -0.1982 -0.3033
  864MOL0     C16520   6.862   4.508   5.568 -0.4482  0.5321  0.7882
  864MOL0     C16521   6.794   4.578   5.458  0.2994 -0.4094  0.9503
  864MOL0     N16522   6.670   4.516   5.409  0.5844 -0.7923 -0.2190
  864MOL0     C16523   6.568   4.446   5.478  0.0362 -0.1390  0.1079
  864MOL0     C16524   6.483   4.405   5.379  0.5072  0.2953 -0.2168
  864MOL0     C16525   6.342   4.360   5.400 -0.5984  0.8968  0.9142
  864MOL0     C16526   6.242   4.483   5.401 -1.1561  0.6474  0.6759
  864MOL0     C16527   6.262   4.569   5.262  0.6411  0.3320 -0.9219
  864MOL0     C16528   6.338   4.699   5.287 -0.1656  0.8430  0.2998
  864MOL0     O16529   6.251   4.792   5.352  0.5494 -0.0655 -0.5215
  864MOL0     C16530   6.301   4.929   5.369  0.9997  0.8063  0.2539
  864MOL0     C16531   6.355   5.001   5.265 -0.2713 -0.1090 -0.7593
  864MOL0     C16532   6.390   5.142   5.292 -0.1137  0.0808 -1.1947
  864MOL0     C16533   6.438   5.217   5.175 -0.5455  0.4692 -0.6228
  864MOL0     C16534   6.379   5.209   5.420 -0.1535 -0.3615  0.6616
  864MOL0     C16535   6.413   5.351   5.452  0.6268 -0.2137 -0.2355
  864MOL0     O16536   6.529   5.409   5.401 -0.2826  0.6388  0.1325
  864MOL0     C16537   6.555   5.539   5.442  0.4072 -0.0622  0.3123
  864MOL0     C16538   6.570   5.574   5.577  0.0502  0.5011  0.2396
  864MOL0     C16539   6.616   5.704   5.617 -0.1879 -0.4328  0.0832
  864MOL0     C16540   6.658   5.796   5.525  0.2948 -0.4821  0.5356
  864MOL0     O16541   6.710   5.917   5.558 -0.1503  0.3851  0.8054
  864MOL0     C16542   6.671   5.994   5.676  0.1749  0.2304 -0.0089
  864MOL0     C16543   6.774   6.111   5.698  0.5276 -0.4845 -0.3072
  864MOL0     C16544   6.740   6.162   5.842 -0.4764  0.0716 -0.2074
  864MOL0     C16545   6.807   6.291   5.870  0.4410 -0.0037  0.4379
  864MOL0     C16546   6.779   6.349   6.016  0.4419  0.1805  0.1306
  864MOL0     C16547   6.631   6.392   6.034 -0.5462  0.6488 -0.4014
  864MOL0     C16548   6.600   6.444   6.185 -0.6583  0.7223  0.6609
  864MOL0     C16549   6.470   6.499   6.206 -0.2471  0.6400  0.0851
  864MOL0    Cl16550   6.486   6.579   6.365 -0.2109  0.2001 -0.3016
  864MOL0     C16551   6.657   5.757   5.387  1.2819 -0.1858  0.8371
  864MOL0     C16552   6.616   5.623   5.352  0.6296 -1.4245  0.5337
  864MOL0     O16553   6.322   5.426   5.489 -0.8108 -0.2589 -0.4122
  864MOL0     C16554   6.313   5.123   5.518  0.2985  0.3100  0.4115
  864MOL0     C16555   6.288   4.990   5.493 -0.3531 -0.1834 -0.6131
  864MOL0     N16556   6.539   4.445   5.261 -1.5197 -0.5298 -0.4909
  864MOL0     N16557   6.645   4.513   5.281  0.3622  0.5213 -0.0012
  864MOL0     C16558   7.109   5.123   6.092  1.2485 -0.3185  0.4221
  864MOL0     C16559   7.111   5.130   6.229  0.7603  0.2512  0.4482
  864MOL0     C16560   6.895   5.209   6.657  0.7319 -0.0593  0.1355
  864MOL0     C16561   6.789   5.194   6.753  0.7404 -0.0631 -0.7511
  864MOL0     C16562   6.791   5.261   6.876 -0.4469  1.1653  0.1572
  864MOL0     C16563   6.896   5.335   6.906 -0.2875  0.1595 -0.9095
  864MOL0     O16564   6.911   5.399   7.034 -0.7017  0.2658 -0.3207
  864MOL0     C16565   6.826   5.512   7.050  0.3967 -0.0305  0.6854
  864MOL0     C16566   6.829   5.558   7.199 -0.6578 -0.2989 -0.9351
  864MOL0     C16567   6.794   5.443   7.295  0.2532  0.4248  0.3453
  864MOL0     C16568   6.715   5.510   7.414  0.9133  0.2074 -0.5453
  864MOL0     C16569   6.615   5.422   7.464  0.5339  0.4907 -0.2331
  864MOL0     C16570   6.533   5.350   7.523  0.2882  0.4080  0.2165
  864MOL0     C16571   7.001   5.347   6.817 -0.0315  0.3957  0.5853
  864MOL0     C16572   7.005   5.278   6.697  0.8052  0.3279  0.3733
  864MOL0     H16573   6.767   5.144   6.293  0.4562 -0.7072  2.3870
  864MOL0     H16574   6.770   5.101   6.059 -0.3701 -2.6073 -0.5628
  864MOL0     H16575   7.084   5.134   5.718  1.0932 -0.6962 -0.4185
  864MOL0     H16576   7.165   5.169   5.859  0.1752  0.4186  0.5858
  864MOL0     H16577   7.251   4.972   5.715 -0.0294 -3.5340 -1.1780
  864MOL0     H16578   7.223   4.924   5.881  0.5983  0.9600 -0.2856
  864MOL0     H16579   7.043   4.799   5.819 -1.2302  2.3128  0.3123
  864MOL0     H16580   7.020   4.907   5.681  1.1201 -1.4955 -2.8280
  864MOL0     H16581   7.229   4.798   5.584  0.2181  1.6274  1.0741
  864MOL0     H16582   7.221   4.680   5.719  3.8757  2.4514 -0.2493
  864MOL0     H16583   7.021   4.716   5.491 -0.0128 -2.0601 -2.2505
  864MOL0     H16584   7.123   4.577   5.531  1.8206  0.4547 -0.1391
  864MOL0     H16585   6.985   4.555   5.746 -0.9456  1.2305  1.2990
  864MOL0     H16586   6.885   4.679   5.685 -1.2511 -2.6632  0.6157
  864MOL0     H16587   6.910   4.427   5.511  1.3692  2.6023 -0.8068
  864MOL0     H16588   6.780   4.475   5.632 -0.0361 -0.5465  0.7932
  864MOL0     H16589   6.861   4.596   5.373 -1.9641  1.3975 -0.6114
  864MOL0     H16590   6.767   4.681   5.483  0.5979  0.3404 -1.5298
  864MOL0     H16591   6.540   4.455   5.583 -0.9772 -1.9452  0.0327
  864MOL0     H16592   6.322   4.292   5.317 -3.3357  2.5970  0.0624
  864MOL0     H16593   6.327   4.313   5.498  1.3017 -0.2139  0.7165
  864MOL0     H16594   6.260   4.554   5.482 -2.0386  0.0201  1.4382
  864MOL0     H16595   6.143   4.438   5.408  0.4928 -3.7719 -0.8770
  864MOL0     H16596   6.161   4.589   5.223  1.6325  1.5034 -3.0538
  864MOL0     H16597   6.309   4.510   5.183  0.7959  0.6922 -1.0964
  864MOL0     H16598   6.365   4.738   5.188 -2.2398  3.2846  0.5908
  864MOL0     H16599   6.421   4.687   5.357 -0.6385 -1.2987  0.5605
  864MOL0     H16600   6.344   4.976   5.160  1.3806  1.0368 -1.2434
  864MOL0     H16601   6.355   5.285   5.154 -3.0320 -1.1698  2.9139
  864MOL0     H16602   6.524   5.280   5.199  1.7681 -2.7432  0.1323
  864MOL0     H16603   6.456   5.161   5.083  0.6449  0.1280 -0.1986
  864MOL0     H16604   6.529   5.505   5.650  0.4943  0.5877  0.5803
  864MOL0     H16605   6.625   5.719   5.724  3.1211 -0.3724 -0.1077
  864MOL0     H16606   6.571   6.034   5.657  0.3391  0.4512 -0.4127
  864MOL0     H16607   6.687   5.924   5.759 -0.0330  0.3508  0.1360
  864MOL0     H16608   6.880   6.088   5.700  1.9468  4.4402 -2.6389
  864MOL0     H16609   6.769   6.191   5.623 -1.3704  2.8405  2.9742
  864MOL0     H16610   6.747   6.090   5.925 -1.6618  0.0637 -0.1059
  864MOL0     H16611   6.633   6.182   5.838 -0.8188 -0.9951  2.0106
  864MOL0     H16612   6.913   6.302   5.846  0.1120  1.4116 -0.4652
  864MOL0     H16613   6.758   6.358   5.799  2.3897 -0.2620 -1.2595
  864MOL0     H16614   6.850   6.427   6.046  0.1266 -0.2767  2.2444
  864MOL0     H16615   6.800   6.268   6.087  0.6069  0.3171  0.2384
  864MOL0     H16616   6.612   6.481   5.973 -0.2252  0.4615 -0.7824
  864MOL0     H16617   6.561   6.308   6.025  1.3418 -0.9722 -0.8567
  864MOL0     H16618   6.672   6.524   6.207 -1.5840  1.0950  2.4703
  864MOL0     H16619   6.619   6.358   6.250 -1.6067 -0.0898 -0.1089
  864MOL0     H16620   6.393   6.421   6.215  0.7066 -0.5198 -1.3341
  864MOL0     H16621   6.454   6.562   6.118  1.2834 -0.0324 -0.7123
  864MOL0     H16622   6.712   5.813   5.312  1.7407 -4.3549 -2.2946
  864MOL0     H16623   6.635   5.600   5.247  0.3204  1.8463 -0.3526
  864MOL0     H16624   6.278   5.161   5.613 -1.5044 -0.2532  0.0070
  864MOL0     H16625   6.244   4.923   5.566 -1.2397  0.7916 -0.2154
  864MOL0     H16626   7.209   5.125   6.051  1.6487  1.7169  1.3581
  864MOL0     H16627   7.205   5.126   6.284  1.3864  2.4475 -0.3800
  864MOL0     H16628   6.703   5.132   6.731  1.3530 -2.0771  1.9446
  864MOL0     H16629   6.715   5.239   6.951 -1.8817  0.0338 -1.5670
  864MOL0     H16630   6.875   5.593   6.995  2.8981 -1.8291  0.0949
  864MOL0     H16631   6.724   5.502   7.012  1.3871  1.6184 -2.7905
  864MOL0     H16632   6.770   5.650   7.196  1.6258  1.2234 -1.4897
  864MOL0     H16633   6.919   5.602   7.242 -1.8931  0.2261  1.2714
  864MOL0     H16634   6.887   5.405   7.337  1.1271  2.8588  0.8121
  864MOL0     H16635   6.730   5.371   7.244  0.3420  2.0681 -2.2599
  864MOL0     H16636   6.664   5.602   7.381 -2.6543 -1.8069 -1.1840
  864MOL0     H16637   6.780   5.540   7.496  0.4837 -1.7126  0.5539
  864MOL0     H16638   6.448   5.297   7.561 -0.0663  2.1652  1.9843
  864MOL0     H16639   7.089   5.407   6.834  0.4441  0.2465 -1.1165
  864MOL0     H16640   7.093   5.271   6.635 -0.7740  0.5855 -2.0126
  865MOL0     O16641   8.882   7.435   4.553  0.0520 -0.4958 -0.2387
  865MOL0     C16642   8.832   7.475   4.448 -0.0272 -0.6295  0.2499
  865MOL0     O16643   8.876   7.450   4.315 -0.2289 -0.1914 -0.6074
  865MOL0     C16644   8.996   7.386   4.304 -1.1474 -0.5605  0.7352
  865MOL0     C16645   9.112   7.412   4.380  0.3807 -1.0377  0.1766
  865MOL0     C16646   9.231   7.349   4.363  0.7381  0.4258  0.1425
  865MOL0     C16647   9.233   7.253   4.257  0.2125  0.3344 -1.2587
  865MOL0     O16648   9.351   7.182   4.225  0.3815  0.7296  0.1583
  865MOL0     C16649   9.473   7.198   4.291 -0.1931  0.0387 -0.3571
  865MOL0     C16650   9.600   7.130   4.229  0.8904  0.1186 -0.5484
  865MOL0     C16651   9.604   7.141   4.081  0.7751 -0.7542  0.1527
  865MOL0     C16652   9.727   7.087   4.009 -0.0731  0.1526 -0.8110
  865MOL0     C16653   9.836   7.195   3.974 -0.5342  0.5515  0.4771
  865MOL0     C16654   9.937   7.113   3.891  0.7128  0.2922 -0.9102
  865MOL0     C16655  10.033   7.218   3.836 -0.3192  0.4945 -0.1662
  865MOL0     C16656  10.155   7.158   3.768  0.7818 -0.1742 -0.8398
  865MOL0     N16657  10.133   7.110   3.637 -0.2479 -0.4096  0.5103
  865MOL0     C16658  10.153   6.985   3.585  0.1569 -0.7726 -0.2874
  865MOL0     C16659  10.152   6.988   3.453  0.5033 -0.8811 -0.6240
  865MOL0     C16660  10.148   6.869   3.363 -0.3381  0.2378 -0.0342
  865MOL0     C16661  10.033   6.882   3.272  0.2022 -0.0833 -0.4549
  865MOL0     C16662  10.078   6.822   3.140  0.0129  0.5186 -0.6269
  865MOL0     C16663  10.092   6.673   3.131  0.0401 -0.4137  0.1908
  865MOL0     O16664  10.160   6.642   3.010 -0.0322 -0.0737 -0.1451
  865MOL0     C16665  10.082   6.643   2.904 -0.3090  0.3390  0.3317
  865MOL0     C16666   9.978   6.557   2.898  0.7686  0.8949 -0.6194
  865MOL0     C16667   9.898   6.546   2.780 -0.7342 -0.5184  0.2036
  865MOL0     C16668   9.791   6.446   2.786 -0.3220  1.0975 -0.4220
  865MOL0     C16669   9.923   6.640   2.669 -0.1847 -0.5761 -0.4377
  865MOL0     C16670   9.847   6.641   2.544  0.2315  0.0826  0.0449
  865MOL0     O16671   9.877   6.729   2.444  0.0000 -0.7863  0.0955
  865MOL0     C16672   9.817   6.708   2.318 -0.4937 -0.5572  0.8135
  865MOL0     C16673   9.850   6.605   2.219  0.1339  0.4193 -0.3032
  865MOL0     C16674   9.764   6.596   2.093  0.3320 -0.8940  0.5738
  865MOL0     C16675   9.671   6.695   2.067 -0.1483 -0.4093 -0.3680
  865MOL0     O16676   9.576   6.703   1.959 -0.4572  0.0053 -0.1398
  865MOL0     C16677   9.619   6.625   1.844  0.3763  0.6845 -1.0002
  865MOL0     C16678   9.553   6.693   1.728  0.0470  0.0508 -0.2736
  865MOL0     C16679   9.608   6.840   1.708  0.1413 -0.0993  0.3983
  865MOL0     C16680   9.556   6.924   1.592 -0.3830  0.2631 -0.1586
  865MOL0     C16681   9.620   7.060   1.587 -0.0226 -0.2985  0.2398
  865MOL0     C16682   9.576   7.137   1.461  0.6070  0.4318  0.1345
  865MOL0     C16683   9.667   7.237   1.399  0.4145  0.5212 -0.8907
  865MOL0     C16684   9.603   7.298   1.277 -0.0269  0.0819  0.5412
  865MOL0    Cl16685   9.731   7.336   1.168 -0.0193  0.1567 -0.0746
  865MOL0     C16686   9.655   6.792   2.169  0.0760  0.2450  0.6102
  865MOL0     C16687   9.724   6.796   2.279  0.1044 -0.1069 -0.6892
  865MOL0     O16688   9.753   6.568   2.534  0.9148 -0.2301  0.1778
  865MOL0     C16689  10.020   6.738   2.687 -0.2548  1.4897 -0.2673
  865MOL0     C16690  10.108   6.730   2.789  1.2841  0.6057  0.9629
  865MOL0     N16691  10.124   7.119   3.413 -0.3481 -0.5247  0.4275
  865MOL0     N16692  10.120   7.191   3.521 -0.1992 -0.3249  0.7086
  865MOL0     C16693   9.123   7.235   4.185  0.0976 -0.3814  0.4985
  865MOL0     C16694   9.005   7.304   4.193  0.4065 -0.8030  0.5097
  865MOL0     C16695   8.696   7.539   4.455 -0.2518 -0.4901  0.6167
  865MOL0     C16696   8.627   7.578   4.342 -0.1014 -0.1863  1.0128
  865MOL0     C16697   8.502   7.641   4.353  0.9998 -2.0501 -0.7073
  865MOL0     C16698   8.445   7.672   4.480  0.0964 -0.1274  0.6768
  865MOL0     O16699   8.328   7.741   4.483 -0.9335 -0.7098  0.0096
  865MOL0     C16700   8.295   7.785   4.612 -0.4170  0.7644 -0.1341
  865MOL0     C16701   8.146   7.831   4.626  0.7116 -0.1027 -0.0433
  865MOL0     C16702   8.092   7.912   4.514  0.4552 -0.2945 -0.4702
  865MOL0     C16703   7.939   7.885   4.503  0.5937 -1.2107  0.3553
  865MOL0     C16704   7.881   7.989   4.417 -0.2236  0.4047  0.6364
  865MOL0     C16705   7.832   8.076   4.351  0.5243 -0.6134 -0.6141
  865MOL0     C16706   8.518   7.637   4.591  0.4659 -0.2367  0.1695
  865MOL0     C16707   8.639   7.576   4.570  0.2782 -0.4860  0.0675
  865MOL0     H16708   9.104   7.484   4.461 -1.7027  0.3993 -1.2044
  865MOL0     H16709   9.320   7.341   4.425  1.6306 -1.7249 -1.3175
  865MOL0     H16710   9.491   7.306   4.300 -1.5474  0.1415  1.6538
  865MOL0     H16711   9.469   7.152   4.390 -0.2728  1.8357  0.5302
  865MOL0     H16712   9.694   7.159   4.277 -0.7128  1.9278  1.7237
  865MOL0     H16713   9.596   7.022   4.248  1.0807  0.1042 -0.5906
  865MOL0     H16714   9.510   7.091   4.055  1.7003 -3.0423  0.9516
  865MOL0     H16715   9.587   7.240   4.038  1.5796 -1.2435 -1.3585
  865MOL0     H16716   9.774   6.999   4.054 -0.1049  0.6359  0.2104
  865MOL0     H16717   9.687   7.043   3.917  0.1207  0.5697 -1.0988
  865MOL0     H16718   9.787   7.273   3.914 -2.3921 -2.3862 -2.1948
  865MOL0     H16719   9.890   7.236   4.060  3.6906 -1.0752 -1.1544
  865MOL0     H16720   9.989   7.043   3.958 -1.3467  1.3922  2.0512
  865MOL0     H16721   9.891   7.045   3.819 -0.0900 -0.1544 -0.0040
  865MOL0     H16722   9.988   7.290   3.768  0.6583  1.2783 -0.0156
  865MOL0     H16723  10.070   7.281   3.917 -0.5084  0.9116 -0.4068
  865MOL0     H16724  10.191   7.072   3.824  1.8546  0.5475 -0.3874
  865MOL0     H16725  10.223   7.243   3.757 -3.2381  3.2547 -1.6498
  865MOL0     H16726  10.160   6.892   3.641 -0.8928 -0.2304  0.7979
  865MOL0     H16727  10.247   6.863   3.318 -1.5024  1.6532 -3.1360
  865MOL0     H16728  10.131   6.782   3.427  1.7334  0.4687  0.9023
  865MOL0     H16729   9.986   6.980   3.264 -0.3064 -0.2884 -0.0433
  865MOL0     H16730   9.951   6.819   3.308 -2.5317  4.2702  1.7214
  865MOL0     H16731  10.179   6.856   3.116  0.3647 -1.7087 -2.6740
  865MOL0     H16732  10.015   6.857   3.057 -2.5115  0.3030  1.1012
  865MOL0     H16733   9.994   6.625   3.127  1.0826 -2.6699 -3.3216
  865MOL0     H16734  10.141   6.633   3.221  0.1797  2.4582  1.4899
  865MOL0     H16735   9.976   6.484   2.978  3.5545  1.8348  0.4200
  865MOL0     H16736   9.695   6.492   2.763  0.8778  2.9057 -2.2365
  865MOL0     H16737   9.804   6.362   2.718  0.4891  0.8172  0.0589
  865MOL0     H16738   9.785   6.400   2.885  1.2949 -1.5375 -1.4482
  865MOL0     H16739   9.928   6.531   2.230  2.1208  1.8150 -3.5919
  865MOL0     H16740   9.784   6.512   2.027 -1.3957 -1.8051  1.1642
  865MOL0     H16741   9.725   6.630   1.819  0.4864  1.2481 -0.4595
  865MOL0     H16742   9.577   6.524   1.847 -1.4674  1.3840 -1.9599
  865MOL0     H16743   9.573   6.639   1.635 -0.0855 -3.4090  1.5457
  865MOL0     H16744   9.446   6.687   1.750  0.3727 -0.6530  1.2088
  865MOL0     H16745   9.717   6.831   1.700 -0.0917 -1.8938 -1.7556
  865MOL0     H16746   9.579   6.892   1.800 -0.6572 -1.6405  1.0550
  865MOL0     H16747   9.583   6.877   1.497 -2.4559  1.4592 -1.4234
  865MOL0     H16748   9.447   6.925   1.591 -0.3950  1.1425  0.4362
  865MOL0     H16749   9.729   7.055   1.591  0.1883  2.9202  3.2162
  865MOL0     H16750   9.597   7.113   1.680 -1.5287 -1.7158  0.7312
  865MOL0     H16751   9.540   7.061   1.392  0.9725 -0.3347  0.7668
  865MOL0     H16752   9.493   7.197   1.499  0.6282  0.5470  0.0003
  865MOL0     H16753   9.766   7.197   1.375 -0.0990 -1.7089  0.4042
  865MOL0     H16754   9.673   7.319   1.470  2.2893 -0.1987 -0.1372
  865MOL0     H16755   9.535   7.383   1.289  1.0940  0.8350  1.8882
  865MOL0     H16756   9.543   7.226   1.221 -1.9833  2.6183 -0.8023
  865MOL0     H16757   9.589   6.874   2.145  1.8725  1.6510  0.2018
  865MOL0     H16758   9.704   6.884   2.339  1.8710  0.8824 -1.4633
  865MOL0     H16759  10.048   6.808   2.608  3.4383 -1.2270 -1.6126
  865MOL0     H16760  10.185   6.807   2.782 -0.0738  1.9335 -0.1073
  865MOL0     H16761   9.134   7.158   4.109 -2.1310  0.2961 -0.5791
  865MOL0     H16762   8.913   7.311   4.136  0.1909  4.2126  1.0158
  865MOL0     H16763   8.677   7.561   4.247 -0.5703 -2.0272  1.0604
  865MOL0     H16764   8.448   7.668   4.264  1.4858  2.5278  0.1227
  865MOL0     H16765   8.301   7.710   4.691 -0.9126  1.4278  0.5406
  865MOL0     H16766   8.363   7.868   4.633 -1.4158  2.3699 -2.7402
  865MOL0     H16767   8.123   7.883   4.719  1.2369  0.3344 -0.1556
  865MOL0     H16768   8.090   7.737   4.624 -1.0344  0.8769  0.7427
  865MOL0     H16769   8.127   7.879   4.415  1.9986 -2.2924  0.6744
  865MOL0     H16770   8.111   8.018   4.529  1.0675 -0.3523 -0.7804
  865MOL0     H16771   7.878   7.883   4.594 -0.7297 -0.0482 -0.4895
  865MOL0     H16772   7.933   7.789   4.451  3.3520 -0.7567 -0.9950
  865MOL0     H16773   7.778   8.142   4.287  1.8208  1.3636  0.2506
  865MOL0     H16774   8.497   7.674   4.691 -1.2763 -1.0774  0.1719
  865MOL0     H16775   8.692   7.577   4.664 -1.5461 -0.6962  1.1276
  866MOL0     O16776   9.063   2.086  10.330  0.5335  0.1235  0.8900
  866MOL0     C16777   9.173   2.054  10.361 -0.5955  0.5238 -0.9679
  866MOL0     O16778   9.209   1.943  10.438  0.6345  0.1467 -0.0690
  866MOL0     C16779   9.106   1.879  10.504  0.0582  0.2085 -0.0909
  866MOL0     C16780   9.002   1.957  10.566 -0.7527 -0.1468 -0.7203
  866MOL0     C16781   8.889   1.888  10.617  0.2067  0.3318 -0.2377
  866MOL0     C16782   8.878   1.749  10.621 -0.1675  0.2291  0.2353
  866MOL0     O16783   8.777   1.674  10.690  0.0990  0.1511 -0.1567
  866MOL0     C16784   8.650   1.737  10.712  0.7621 -0.4552  0.2352
  866MOL0     C16785   8.554   1.640  10.760  0.9100 -0.0313 -0.6160
  866MOL0     C16786   8.505   1.563  10.643  0.0095 -0.1005 -0.7401
  866MOL0     C16787   8.361   1.517  10.689  1.1121 -0.3963 -1.0126
  866MOL0     C16788   8.318   1.395  10.606  0.1588 -0.0754  0.4915
  866MOL0     C16789   8.166   1.368  10.605 -0.3226  0.1774 -1.0764
  866MOL0     C16790   8.060   1.482  10.566 -0.4126 -1.1159  0.2183
  866MOL0     C16791   7.983   1.445  10.434  0.3414 -1.3410  0.5148
  866MOL0     N16792   8.090   1.451  10.333 -0.4774 -0.1066 -0.2051
  866MOL0     C16793   8.130   1.560  10.248  0.4813  0.0671  0.2785
  866MOL0     C16794   8.233   1.512  10.172 -0.5267  0.6802  0.3047
  866MOL0     C16795   8.310   1.582  10.061  0.3132  0.9420  0.4459
  866MOL0     C16796   8.323   1.730  10.075 -0.4366 -0.7113 -0.5220
  866MOL0     C16797   8.431   1.795   9.983 -0.2829  1.1462  0.1631
  866MOL0     C16798   8.414   1.948   9.998 -0.8314 -0.7348 -0.3567
  866MOL0     O16799   8.458   2.033   9.886 -1.3765 -0.2630 -0.0345
  866MOL0     C16800   8.588   2.085   9.898 -0.2385  0.1308  0.2431
  866MOL0     C16801   8.612   2.207   9.837 -0.5102  0.3968  0.2966
  866MOL0     C16802   8.745   2.271   9.840 -0.0172 -0.5596 -0.8852
  866MOL0     C16803   8.781   2.387   9.744 -0.4176  0.2771  0.0114
  866MOL0     C16804   8.847   2.211   9.922  0.3469 -0.9266  0.0186
  866MOL0     C16805   8.983   2.257   9.929  0.8355  0.3491 -0.4846
  866MOL0     O16806   9.087   2.181   9.895  0.1717  1.1850 -0.2520
  866MOL0     C16807   9.206   2.247   9.853  0.6860  0.3942 -0.5821
  866MOL0     C16808   9.214   2.343   9.752  0.2965 -0.1666 -1.2288
  866MOL0     C16809   9.330   2.414   9.726 -0.4622  0.4459  0.1087
  866MOL0     C16810   9.446   2.360   9.771 -0.1776  0.1936 -0.1542
  866MOL0     O16811   9.546   2.430   9.717 -0.1690 -0.3842 -0.1849
  866MOL0     C16812   9.680   2.404   9.747 -0.0856  0.6065 -0.1568
  866MOL0     C16813   9.737   2.296   9.652  0.8995 -0.2468 -0.5929
  866MOL0     C16814   9.892   2.265   9.671  0.7507  1.0830 -0.2113
  866MOL0     C16815   9.952   2.144   9.589  0.0390 -0.7980 -0.5101
  866MOL0     C16816   9.907   2.007   9.646  0.4791  0.0476 -0.1720
  866MOL0     C16817  10.006   1.958   9.750 -0.1513 -0.3627 -1.5472
  866MOL0     C16818  10.124   1.873   9.691 -0.5581  0.0809 -0.7804
  866MOL0     C16819  10.110   1.728   9.715  0.2162  0.2095 -0.4359
  866MOL0    Cl16820  10.279   1.670   9.665 -0.5461  0.7692 -0.3856
  866MOL0     C16821   9.449   2.254   9.859  0.5543 -0.0169 -0.4475
  866MOL0     C16822   9.326   2.201   9.907  0.9232  0.0255  1.0563
  866MOL0     O16823   8.996   2.377   9.943  0.3306 -0.6999  0.1075
  866MOL0     C16824   8.818   2.084   9.975  0.2665 -0.7705 -1.2327
  866MOL0     C16825   8.695   2.018   9.958  0.5875 -0.6005 -0.3323
  866MOL0     N16826   8.258   1.384  10.205 -0.1082 -0.5797  0.2018
  866MOL0     N16827   8.178   1.344  10.300  0.3168 -0.3475  1.0854
  866MOL0     C16828   8.979   1.672  10.561 -0.1319 -0.6697  0.0346
  866MOL0     C16829   9.096   1.734  10.504  0.7885 -0.1927  1.4075
  866MOL0     C16830   9.285   2.144  10.303 -1.0717 -0.1340  0.2761
  866MOL0     C16831   9.422   2.123  10.349 -0.2146  0.4938 -0.0792
  866MOL0     C16832   9.529   2.211  10.311  1.3272  0.0517  0.3535
  866MOL0     C16833   9.503   2.324  10.230  0.8553 -0.6995 -0.8538
  866MOL0     O16834   9.610   2.405  10.213 -1.1729 -0.2233  0.0958
  866MOL0     C16835   9.602   2.524  10.142  0.2761 -0.7373 -0.3779
  866MOL0     C16836   9.517   2.643  10.204  0.2243  0.6999  0.0648
  866MOL0     C16837   9.500   2.768  10.119  0.1320 -0.9371  0.3064
  866MOL0     C16838   9.408   2.754   9.990 -0.4193  0.0280  0.3230
  866MOL0     C16839   9.266   2.724  10.013 -0.3911  1.3571 -0.3272
  866MOL0     C16840   9.148   2.699  10.024  0.7372  0.1646  0.1885
  866MOL0     C16841   9.374   2.334  10.177 -1.0320 -0.1576  0.3145
  866MOL0     C16842   9.263   2.246  10.210 -0.1616 -0.6314 -0.3415
  866MOL0     H16843   9.013   2.063  10.582  0.5010 -0.5520  1.5787
  866MOL0     H16844   8.811   1.945  10.667 -0.9507 -0.3701 -1.2011
  866MOL0     H16845   8.652   1.813  10.791 -0.4678 -0.1283 -0.0221
  866MOL0     H16846   8.609   1.777  10.619 -1.7583 -0.9964  1.0407
  866MOL0     H16847   8.609   1.568  10.821  2.6325  0.6930 -1.2458
  866MOL0     H16848   8.478   1.687  10.822  1.8659 -2.5860  2.8122
  866MOL0     H16849   8.502   1.615  10.547  3.4244  0.6028 -0.6225
  866MOL0     H16850   8.572   1.477  10.631 -1.2723 -1.2127 -0.0723
  866MOL0     H16851   8.344   1.492  10.794 -0.4777  3.1570 -0.2618
  866MOL0     H16852   8.298   1.603  10.664  2.7154  0.9004 -0.7744
  866MOL0     H16853   8.357   1.409  10.505 -2.5496  2.3382 -0.3579
  866MOL0     H16854   8.376   1.318  10.658 -0.4882  0.0893  1.4925
  866MOL0     H16855   8.131   1.273  10.564 -0.2541 -0.8146  1.0580
  866MOL0     H16856   8.159   1.351  10.712  0.7388  1.4802 -0.7663
  866MOL0     H16857   7.983   1.472  10.643  1.0167 -1.7807  1.6223
  866MOL0     H16858   8.093   1.585  10.556 -2.0488 -0.5722  0.1335
  866MOL0     H16859   7.919   1.529  10.406  2.8815  0.9789  1.1739
  866MOL0     H16860   7.930   1.350  10.435 -1.2529 -0.5052 -0.5677
  866MOL0     H16861   8.098   1.663  10.258  0.4817 -0.0815  2.0685
  866MOL0     H16862   8.406   1.531  10.074  0.5139  1.9020  3.7816
  866MOL0     H16863   8.267   1.549   9.966  0.0840  0.6156  0.6607
  866MOL0     H16864   8.362   1.743  10.177 -1.1317  2.1970 -0.5226
  866MOL0     H16865   8.226   1.780  10.077 -0.3945 -0.6643  0.8517
  866MOL0     H16866   8.414   1.779   9.876 -0.6385 -1.7610  0.5791
  866MOL0     H16867   8.534   1.771  10.010 -0.4930  0.1304  0.1029
  866MOL0     H16868   8.450   1.977  10.097 -1.6828 -1.1543  0.0890
  866MOL0     H16869   8.307   1.975   9.998 -0.7612 -0.2032  2.2403
  866MOL0     H16870   8.535   2.244   9.771 -0.7289 -2.9156 -1.5138
  866MOL0     H16871   8.699   2.444   9.699 -3.5944 -1.9758  2.4874
  866MOL0     H16872   8.844   2.463   9.793 -0.9055 -0.0704  1.2199
  866MOL0     H16873   8.848   2.339   9.673 -2.5759 -2.0904 -0.5596
  866MOL0     H16874   9.127   2.388   9.705 -0.7978  1.0718  1.7457
  866MOL0     H16875   9.327   2.498   9.657  0.6152 -1.1792 -2.0064
  866MOL0     H16876   9.743   2.493   9.741 -0.8033  1.2381  1.2226
  866MOL0     H16877   9.686   2.371   9.851 -0.0304 -0.8914 -0.6121
  866MOL0     H16878   9.679   2.204   9.661 -0.9521  1.1239  4.4881
  866MOL0     H16879   9.713   2.328   9.550 -2.6027 -0.9300 -0.1106
  866MOL0     H16880   9.911   2.240   9.775 -0.9049  1.9414  0.3363
  866MOL0     H16881   9.936   2.361   9.642  1.2491  1.3502  1.3228
  866MOL0     H16882   9.913   2.145   9.487 -0.9209 -0.2280 -0.1416
  866MOL0     H16883  10.061   2.154   9.582 -0.2627  2.7877 -2.7889
  866MOL0     H16884   9.909   1.945   9.555  0.1645 -0.7785  0.3684
  866MOL0     H16885   9.803   2.007   9.681  0.2060  0.6887 -0.9484
  866MOL0     H16886  10.053   2.042   9.801  4.1166 -0.6487 -4.4415
  866MOL0     H16887   9.956   1.911   9.835  4.5545  0.4824  2.1314
  866MOL0     H16888  10.211   1.898   9.752 -1.4099  3.1995 -0.6600
  866MOL0     H16889  10.136   1.896   9.585 -2.1407 -0.5760 -1.1334
  866MOL0     H16890  10.031   1.693   9.648  1.8612 -1.0667 -1.8077
  866MOL0     H16891  10.093   1.714   9.822 -2.7413  1.5455 -0.6196
  866MOL0     H16892   9.540   2.221   9.908  1.2450 -0.7367 -2.1571
  866MOL0     H16893   9.323   2.114   9.972 -0.3299 -1.5866 -1.0100
  866MOL0     H16894   8.896   2.020  10.014  1.1406  0.5625 -0.6976
  866MOL0     H16895   8.679   1.928  10.016  1.9953 -0.4810  0.2916
  866MOL0     H16896   8.954   1.567  10.552 -0.3349 -0.7708  1.6030
  866MOL0     H16897   9.171   1.689  10.440 -0.5514 -1.5320  0.7079
  866MOL0     H16898   9.446   2.041  10.416  1.8325  2.9172  2.4397
  866MOL0     H16899   9.624   2.182  10.353  1.0250 -2.5716 -0.5838
  866MOL0     H16900   9.706   2.557  10.127  0.1921  0.4441  1.3018
  866MOL0     H16901   9.560   2.511  10.042  0.6677  0.8273 -0.7866
  866MOL0     H16902   9.581   2.671  10.289 -1.0738 -1.5507  1.9058
  866MOL0     H16903   9.420   2.619  10.248  0.6997 -0.8370  0.3562
  866MOL0     H16904   9.602   2.790  10.086 -0.6352  1.0752 -0.8870
  866MOL0     H16905   9.459   2.854  10.174 -0.0975 -1.2547  0.6335
  866MOL0     H16906   9.452   2.686   9.917 -1.0667  0.9234 -0.9372
  866MOL0     H16907   9.405   2.853   9.942  0.3466 -0.5691 -1.0117
  866MOL0     H16908   9.049   2.663  10.044  0.1613 -0.0701 -2.6972
  866MOL0     H16909   9.360   2.411  10.101  0.0137  0.6760  0.9404
  866MOL0     H16910   9.164   2.282  10.184 -0.0385  0.9880  1.2513
  867MOL0     O16911   2.324   1.379  11.027 -0.9317 -0.1791 -0.3669
  867MOL0     C16912   2.378   1.347  10.920 -0.4517  1.3800  0.7732
  867MOL0     O16913   2.413   1.216  10.880 -0.1413  0.1270 -0.5009
  867MOL0     C16914   2.370   1.107  10.963 -0.2887 -0.0905  0.2091
  867MOL0     C16915   2.465   0.998  10.968 -0.3528 -0.9526 -0.6513
  867MOL0     C16916   2.425   0.884  11.038 -0.1928  0.5248  0.1018
  867MOL0     C16917   2.299   0.877  11.091  0.2655 -0.0854 -0.3951
  867MOL0     O16918   2.252   0.761  11.148  0.6384  0.2841  0.2413
  867MOL0     C16919   2.132   0.773  11.241 -0.0930 -0.4686  0.1098
  867MOL0     C16920   2.132   0.666  11.353  0.0111  0.2707 -0.2987
  867MOL0     C16921   1.973   0.662  11.385 -0.8473 -0.4028  0.1744
  867MOL0     C16922   1.946   0.564  11.500 -0.8820 -0.6257  0.1515
  867MOL0     C16923   1.986   0.636  11.632  0.6645 -0.0228  0.5286
  867MOL0     C16924   1.985   0.521  11.742 -0.0241 -0.4492  0.5650
  867MOL0     C16925   2.128   0.462  11.769  0.1224  0.8502  0.1008
  867MOL0     C16926   2.223   0.559  11.847 -0.1864  0.0679  0.0450
  867MOL0     N16927   2.349   0.570  11.761  0.1698  0.6570  0.6052
  867MOL0     C16928   2.369   0.667  11.666 -0.6496  0.0953 -0.4955
  867MOL0     C16929   2.493   0.654  11.616  1.2795 -0.0471 -0.4079
  867MOL0     C16930   2.559   0.726  11.505  0.4866  0.1930 -0.3403
  867MOL0     C16931   2.498   0.733  11.361 -0.3541 -0.1603 -0.0586
  867MOL0     C16932   2.463   0.596  11.309  0.4693  0.5689 -1.1000
  867MOL0     C16933   2.566   0.487  11.299  0.2605 -0.9690  0.3922
  867MOL0     O16934   2.511   0.360  11.261  0.0309  0.0394  0.1452
  867MOL0     C16935   2.588   0.258  11.216  0.2339 -0.1360 -0.4378
  867MOL0     C16936   2.515   0.160  11.158  0.0656 -0.1585  0.1085
  867MOL0     C16937   2.571   0.046  11.094  0.0729 -1.5077 -0.4000
  867MOL0     C16938   2.475  -0.044  11.015  0.7918  0.7691  0.0182
  867MOL0     C16939   2.714   0.024  11.114  1.0629  0.6732  0.0595
  867MOL0     C16940   2.782  -0.086  11.030  0.4805 -1.0601 -0.4309
  867MOL0     O16941   2.759  -0.101  10.899  0.3007  0.9707 -0.6788
  867MOL0     C16942   2.777  -0.216  10.831  0.4462  0.1995 -0.8385
  867MOL0     C16943   2.810  -0.338  10.876  0.1017  0.0161 -0.7708
  867MOL0     C16944   2.840  -0.445  10.793  0.6946 -0.6129  0.0605
  867MOL0     C16945   2.826  -0.426  10.654 -0.1740  0.4339  0.1428
  867MOL0     O16946   2.824  -0.543  10.582  0.0482  0.0305  0.1391
  867MOL0     C16947   2.769  -0.549  10.447 -0.2666  0.0678  0.2282
  867MOL0     C16948   2.809  -0.689  10.377 -0.8593 -0.0838  0.2780
  867MOL0     C16949   2.763  -0.695  10.228 -0.3419 -0.6951 -0.5432
  867MOL0     C16950   2.839  -0.597  10.144  0.2933 -0.2619 -0.5824
  867MOL0     C16951   2.953  -0.673  10.082  0.4717  0.3522 -0.1079
  867MOL0     C16952   3.035  -0.591   9.980 -0.2488 -0.1933  0.2291
  867MOL0     C16953   3.110  -0.469  10.032  0.5633  0.1589  0.4164
  867MOL0     C16954   3.227  -0.484  10.125 -1.1650  0.8137 -1.1585
  867MOL0    Cl16955   3.369  -0.556  10.045  0.3677 -0.1878  0.0854
  867MOL0     C16956   2.773  -0.308  10.605 -0.7253  0.1214  0.0906
  867MOL0     C16957   2.763  -0.205  10.691  0.9615 -0.8756 -0.5456
  867MOL0     O16958   2.868  -0.138  11.091  0.1928 -0.0657 -0.4484
  867MOL0     C16959   2.790   0.121  11.188  0.1442  0.3306 -0.5376
  867MOL0     C16960   2.729   0.242  11.235  0.6705 -0.1630 -0.7584
  867MOL0     N16961   2.538   0.541  11.682  0.6197  0.3052  0.7098
  867MOL0     N16962   2.462   0.495  11.773 -0.3525 -0.5498 -0.8832
  867MOL0     C16963   2.212   0.989  11.089 -0.3641 -0.1225  0.1127
  867MOL0     C16964   2.248   1.099  11.009  0.0377  0.7267 -0.3461
  867MOL0     C16965   2.459   1.450  10.846  0.1661 -0.2253 -0.0799
  867MOL0     C16966   2.563   1.412  10.751 -0.0137 -0.1641  0.0911
  867MOL0     C16967   2.641   1.514  10.695  0.0978 -0.5774 -0.3478
  867MOL0     C16968   2.613   1.653  10.727 -1.1681  0.1979  0.5194
  867MOL0     O16969   2.695   1.758  10.687  0.7489 -1.1991  0.9131
  867MOL0     C16970   2.802   1.743  10.599 -0.5355 -0.3693 -0.0588
  867MOL0     C16971   2.852   1.879  10.562 -0.0364  0.2950  0.7778
  867MOL0     C16972   2.951   1.930  10.663  0.0493 -0.0775 -0.8598
  867MOL0     C16973   2.903   1.935  10.816  0.0974  0.1073  0.6109
  867MOL0     C16974   2.979   2.036  10.900 -0.0054  0.5314 -0.0256
  867MOL0     C16975   3.036   2.125  10.948  0.4250 -0.1479  0.0361
  867MOL0     C16976   2.503   1.688  10.812  0.4876 -0.3521  0.0249
  867MOL0     C16977   2.419   1.583  10.862 -1.2702 -0.7716  0.1015
  867MOL0     H16978   2.563   1.021  10.927 -1.2784  1.7958 -1.5766
  867MOL0     H16979   2.502   0.812  11.062  0.6487  1.5127  0.4667
  867MOL0     H16980   2.124   0.870  11.292  0.9995 -0.4976  0.3603
  867MOL0     H16981   2.037   0.756  11.190 -1.1471 -0.5386  2.0170
  867MOL0     H16982   2.179   0.573  11.322  1.1720  1.1346 -1.2011
  867MOL0     H16983   2.196   0.715  11.427  2.0804  0.5456 -2.1750
  867MOL0     H16984   1.933   0.761  11.411 -0.3943 -0.7868  2.5654
  867MOL0     H16985   1.927   0.614  11.299 -0.8690 -0.3645  0.1647
  867MOL0     H16986   1.841   0.534  11.511  0.5853 -5.7780  3.8538
  867MOL0     H16987   2.004   0.477  11.467 -1.9529 -1.2378 -0.1895
  867MOL0     H16988   2.084   0.681  11.615  0.5039 -0.1455 -0.8588
  867MOL0     H16989   1.919   0.718  11.660  1.9805  1.7127 -1.0913
  867MOL0     H16990   1.949   0.566  11.835  0.8858  1.8120 -0.1333
  867MOL0     H16991   1.906   0.448  11.720 -1.2618  0.9400  0.2308
  867MOL0     H16992   2.104   0.386  11.843 -0.7987  1.3426  0.3240
  867MOL0     H16993   2.171   0.411  11.682 -1.3895 -0.2307 -0.0339
  867MOL0     H16994   2.248   0.509  11.941  0.6232  0.8812  0.2724
  867MOL0     H16995   2.180   0.658  11.860  0.1799  0.5061 -1.7386
  867MOL0     H16996   2.283   0.730  11.646 -1.4918 -0.9309 -0.1989
  867MOL0     H16997   2.546   0.829  11.541 -1.3542 -0.3919  0.7335
  867MOL0     H16998   2.659   0.682  11.496 -0.0333 -0.8122 -1.5489
  867MOL0     H16999   2.564   0.795  11.299 -0.4848  2.0112  1.8570
  867MOL0     H17000   2.406   0.791  11.357 -0.0892  0.2768  0.0847
  867MOL0     H17001   2.434   0.602  11.204 -2.6649 -0.2780 -0.4016
  867MOL0     H17002   2.379   0.562  11.371 -0.4006 -2.9045 -3.8118
  867MOL0     H17003   2.626   0.479  11.390  1.5785  0.1163 -0.3426
  867MOL0     H17004   2.648   0.505  11.229 -0.2049 -1.6743 -0.3465
  867MOL0     H17005   2.407   0.162  11.154  0.1200  0.4258 -1.4274
  867MOL0     H17006   2.423   0.023  10.945  0.8244 -1.2855 -2.1097
  867MOL0     H17007   2.543  -0.111  10.961 -0.1099  0.5639 -0.9038
  867MOL0     H17008   2.409  -0.097  11.083  2.3659 -2.9391 -1.0721
  867MOL0     H17009   2.806  -0.352  10.984 -1.2124 -0.5442 -0.8651
  867MOL0     H17010   2.870  -0.543  10.829 -1.5748 -1.2459  0.4088
  867MOL0     H17011   2.661  -0.538  10.457 -0.2431  0.9579 -0.3951
  867MOL0     H17012   2.802  -0.469  10.380  1.5550 -0.0125  0.9683
  867MOL0     H17013   2.917  -0.692  10.393 -1.3343 -0.3633  4.4053
  867MOL0     H17014   2.764  -0.774  10.428  2.7893 -0.6118  3.0430
  867MOL0     H17015   2.656  -0.674  10.224  0.1542  2.1253 -1.7469
  867MOL0     H17016   2.778  -0.798  10.194 -3.5675 -0.5344 -2.8446
  867MOL0     H17017   2.767  -0.571  10.066 -0.8487 -2.1296 -0.2014
  867MOL0     H17018   2.881  -0.511  10.198  0.2248 -1.8057  2.1008
  867MOL0     H17019   2.937  -0.768  10.031  2.0699  0.8471 -1.6297
  867MOL0     H17020   3.021  -0.692  10.166  3.1406  4.0295 -1.1654
  867MOL0     H17021   3.116  -0.655   9.942  1.0719  1.0353  0.8522
  867MOL0     H17022   2.962  -0.558   9.906  2.3138  4.4783 -0.6328
  867MOL0     H17023   3.041  -0.403  10.085 -1.0774 -0.1835 -1.1839
  867MOL0     H17024   3.154  -0.420   9.945  1.2146 -2.3453 -0.7458
  867MOL0     H17025   3.200  -0.541  10.214  2.8403 -0.5228 -0.6188
  867MOL0     H17026   3.255  -0.381  10.148 -3.6103  1.0817  1.0111
  867MOL0     H17027   2.762  -0.275  10.502  0.5639  2.3128  0.5961
  867MOL0     H17028   2.739  -0.104  10.659  1.6135 -0.7109 -0.5217
  867MOL0     H17029   2.897   0.100  11.194  0.1938  0.6450 -0.2550
  867MOL0     H17030   2.783   0.328  11.273  0.0707  0.2241 -0.7684
  867MOL0     H17031   2.118   1.001  11.142  0.5105  0.7074  1.5462
  867MOL0     H17032   2.172   1.174  10.991 -0.3021  0.2078 -1.1454
  867MOL0     H17033   2.590   1.307  10.742  1.9719  0.2208  0.8383
  867MOL0     H17034   2.720   1.485  10.626  3.1846 -0.4855  2.8301
  867MOL0     H17035   2.885   1.702  10.658 -1.8909 -0.9308  1.5698
  867MOL0     H17036   2.782   1.686  10.508  2.0107 -3.0683  0.9080
  867MOL0     H17037   2.772   1.954  10.558 -1.1061 -0.7671  1.4771
  867MOL0     H17038   2.898   1.883  10.463  3.6525 -2.0626  2.1885
  867MOL0     H17039   2.974   2.035  10.643 -2.4329  0.1269 -3.2686
  867MOL0     H17040   3.039   1.864  10.654  0.3206  0.1848 -0.1570
  867MOL0     H17041   2.909   1.834  10.857  2.8153 -0.9017 -1.8495
  867MOL0     H17042   2.796   1.954  10.814  0.0226 -0.3634 -0.3027
  867MOL0     H17043   3.068   2.212  11.001 -3.6228  0.2305  2.2260
  867MOL0     H17044   2.475   1.785  10.851  1.2665 -0.9210  2.1663
  867MOL0     H17045   2.343   1.611  10.934 -1.7746 -0.0057 -0.7027
  868MOL0     O17046   5.717   8.860   8.727 -0.0035 -0.5168 -0.4821
  868MOL0     C17047   5.648   8.845   8.826 -0.3229  0.7108 -0.8138
  868MOL0     O17048   5.629   8.725   8.891 -0.0042 -0.5361  0.6034
  868MOL0     C17049   5.681   8.615   8.839 -0.0468 -0.6245  0.6716
  868MOL0     C17050   5.599   8.529   8.765 -0.7711 -0.5393  1.0192
  868MOL0     C17051   5.639   8.400   8.739  0.6502  0.0018  0.5190
  868MOL0     C17052   5.773   8.359   8.767 -0.0314  0.7494 -0.4028
  868MOL0     O17053   5.798   8.222   8.753 -0.3465  0.5854  0.4586
  868MOL0     C17054   5.852   8.200   8.622 -0.2140  0.4138 -0.3580
  868MOL0     C17055   5.959   8.097   8.608 -1.1727 -0.1221 -0.2302
  868MOL0     C17056   5.916   7.966   8.671 -0.7058  0.0666 -1.0239
  868MOL0     C17057   5.997   7.841   8.621 -0.4022  0.4240 -0.2779
  868MOL0     C17058   5.941   7.713   8.686 -0.4224  0.7631 -0.4483
  868MOL0     C17059   6.059   7.622   8.743  0.2013 -0.2574 -0.8969
  868MOL0     C17060   6.009   7.517   8.834  0.1183  0.5615 -0.5934
  868MOL0     C17061   5.927   7.577   8.959  0.2664  0.1210  1.2873
  868MOL0     N17062   5.985   7.685   9.045 -0.0379 -0.0039 -0.2996
  868MOL0     C17063   5.971   7.815   9.020 -0.5613  0.1688  0.1711
  868MOL0     C17064   6.063   7.876   9.099  0.4536  0.0636 -0.1229
  868MOL0     C17065   6.064   8.022   9.130 -1.1274  1.0422 -0.0549
  868MOL0     C17066   6.205   8.056   9.097 -0.7185 -0.8069 -0.3858
  868MOL0     C17067   6.248   8.201   9.052 -0.8597 -1.1638  0.6244
  868MOL0     C17068   6.218   8.312   9.153  0.0512 -0.5245 -0.8118
  868MOL0     O17069   6.077   8.352   9.150  0.4032 -0.1107 -0.1463
  868MOL0     C17070   6.010   8.438   9.235  0.3414  0.5162  0.0948
  868MOL0     C17071   5.892   8.489   9.190 -0.2911 -0.5352  0.3884
  868MOL0     C17072   5.842   8.600   9.256  0.0269 -0.0657  0.0801
  868MOL0     C17073   5.714   8.649   9.191 -0.7890 -0.5411 -0.2492
  868MOL0     C17074   5.897   8.652   9.372 -0.8800  0.7773  0.5082
  868MOL0     C17075   5.839   8.768   9.440  1.6008  0.3065 -0.2879
  868MOL0     O17076   5.723   8.826   9.384 -0.4277  0.7381  0.4921
  868MOL0     C17077   5.672   8.940   9.445 -0.5745  0.2938 -0.7903
  868MOL0     C17078   5.738   9.058   9.414  1.2128 -0.0196 -0.5097
  868MOL0     C17079   5.705   9.183   9.483 -0.1423 -0.3129 -0.4358
  868MOL0     C17080   5.620   9.179   9.577  1.1584  0.0178 -0.2049
  868MOL0     O17081   5.598   9.298   9.635  0.2579 -0.0001  0.6183
  868MOL0     C17082   5.481   9.321   9.721  0.5846 -1.1265  0.0752
  868MOL0     C17083   5.495   9.463   9.769  1.2895 -0.6340 -0.5674
  868MOL0     C17084   5.493   9.562   9.653  0.2451  0.5386  0.0363
  868MOL0     C17085   5.523   9.708   9.699 -0.3809  0.2521  0.3556
  868MOL0     C17086   5.569   9.805   9.584 -0.2002  0.2721 -0.6727
  868MOL0     C17087   5.670   9.746   9.486  0.2776 -0.5502  1.1506
  868MOL0     C17088   5.801   9.675   9.531  0.2711 -0.1484 -1.5255
  868MOL0     C17089   5.895   9.632   9.414  0.6779 -0.7172 -0.7322
  868MOL0    Cl17090   5.823   9.497   9.334  0.1884  0.1266  0.4089
  868MOL0     C17091   5.546   9.058   9.605  0.4574  0.0643  0.4837
  868MOL0     C17092   5.576   8.940   9.539  0.4576  0.3756 -0.3208
  868MOL0     O17093   5.886   8.806   9.551  0.8563  0.2277 -0.9217
  868MOL0     C17094   6.003   8.587   9.422 -0.4834  1.2393 -0.1974
  868MOL0     C17095   6.065   8.482   9.346 -0.2857 -0.4862 -0.0814
  868MOL0     N17096   6.132   7.783   9.169  0.9772  0.6144  0.1705
  868MOL0     N17097   6.091   7.670   9.127 -0.7445  0.0512  0.2237
  868MOL0     C17098   5.868   8.454   8.819 -0.2367  0.8750 -0.1648
  868MOL0     C17099   5.817   8.580   8.860  0.3816 -0.4184  0.1512
  868MOL0     C17100   5.574   8.953   8.893 -0.4692 -0.1921 -0.9805
  868MOL0     C17101   5.559   9.078   8.835 -0.2453 -0.7566 -0.1146
  868MOL0     C17102   5.502   9.193   8.898  0.0154 -0.0069  0.0890
  868MOL0     C17103   5.461   9.181   9.028 -0.0077  0.7902 -1.0512
  868MOL0     O17104   5.430   9.290   9.104  1.0837  0.1606  0.5850
  868MOL0     C17105   5.492   9.290   9.236 -0.3935 -0.0941 -0.2891
  868MOL0     C17106   5.475   9.441   9.286  0.0194 -0.4169  0.5100
  868MOL0     C17107   5.321   9.478   9.282 -0.6701  0.3579  0.6909
  868MOL0     C17108   5.315   9.624   9.312  0.5734  1.1350  0.4325
  868MOL0     C17109   5.362   9.714   9.209  0.1684  0.3091  0.1141
  868MOL0     C17110   5.416   9.764   9.111  0.4857 -0.0525  0.1706
  868MOL0     C17111   5.467   9.051   9.086  0.0839  0.9669 -0.4841
  868MOL0     C17112   5.522   8.939   9.020  0.7819  0.5052  0.0681
  868MOL0     H17113   5.498   8.560   8.738 -0.7515 -1.0497  0.3254
  868MOL0     H17114   5.552   8.338   8.718 -0.6833  0.8105  3.1491
  868MOL0     H17115   5.769   8.173   8.556 -1.6318  0.7905  1.2131
  868MOL0     H17116   5.893   8.293   8.581  0.8155  0.5666  0.9276
  868MOL0     H17117   5.990   8.081   8.505 -0.9240 -2.5063  0.1557
  868MOL0     H17118   6.041   8.155   8.653  0.0054 -0.2411 -2.1176
  868MOL0     H17119   5.928   7.965   8.780  0.3773 -1.5189 -1.1182
  868MOL0     H17120   5.807   7.959   8.662 -0.9959  1.1102  1.0436
  868MOL0     H17121   5.990   7.839   8.512  2.2885 -2.1722 -0.5230
  868MOL0     H17122   6.103   7.847   8.648 -0.0978  1.5566 -1.5820
  868MOL0     H17123   5.854   7.732   8.750 -0.6884  0.4823 -0.7248
  868MOL0     H17124   5.896   7.666   8.599  1.7447  0.7661 -1.6359
  868MOL0     H17125   6.102   7.563   8.662 -4.4403 -0.4488 -3.5715
  868MOL0     H17126   6.134   7.680   8.798 -2.3659 -0.1189  2.7745
  868MOL0     H17127   5.956   7.440   8.778  4.7060 -0.8097 -3.5967
  868MOL0     H17128   6.094   7.469   8.884 -0.3499  1.9994  1.7877
  868MOL0     H17129   5.926   7.492   9.028 -1.9541 -1.0535 -0.0685
  868MOL0     H17130   5.828   7.599   8.918  1.6301  0.7535 -1.9518
  868MOL0     H17131   5.896   7.865   8.959  0.8205 -0.2387 -1.9713
  868MOL0     H17132   5.992   8.076   9.067 -1.3152 -1.0573 -1.7673
  868MOL0     H17133   6.044   8.032   9.237 -0.0882 -6.0359  1.2820
  868MOL0     H17134   6.241   8.001   9.009  0.5168  0.3778 -0.6547
  868MOL0     H17135   6.263   8.013   9.179 -0.2490 -3.4921 -1.9998
  868MOL0     H17136   6.201   8.227   8.957  0.9073 -0.1081 -0.0140
  868MOL0     H17137   6.358   8.196   9.045 -0.6161  0.6628  2.2869
  868MOL0     H17138   6.278   8.401   9.131 -0.2250 -1.0807 -4.4311
  868MOL0     H17139   6.225   8.276   9.256 -0.3392 -2.5890 -1.4659
  868MOL0     H17140   5.852   8.460   9.093 -2.9576  0.4665  1.0856
  868MOL0     H17141   5.627   8.663   9.255  0.2438  0.7422  0.9494
  868MOL0     H17142   5.736   8.748   9.149 -3.2289  0.1051 -0.1420
  868MOL0     H17143   5.690   8.584   9.107 -1.2718 -1.2923  0.4562
  868MOL0     H17144   5.813   9.051   9.336 -1.4208 -2.0546 -3.0410
  868MOL0     H17145   5.759   9.273   9.456  0.7058 -1.3697 -2.5067
  868MOL0     H17146   5.390   9.304   9.664  0.4631 -1.1912  0.2913
  868MOL0     H17147   5.485   9.260   9.812  0.2907  1.3784  1.8832
  868MOL0     H17148   5.407   9.488   9.829  2.0145 -3.0529  1.7204
  868MOL0     H17149   5.583   9.483   9.831 -0.0238 -2.0556  1.9423
  868MOL0     H17150   5.392   9.563   9.614 -0.2649  2.1643  1.2553
  868MOL0     H17151   5.562   9.531   9.574  0.7508 -0.2010  0.7528
  868MOL0     H17152   5.434   9.747   9.749 -0.6047  2.7614 -1.7686
  868MOL0     H17153   5.612   9.709   9.762  0.6977 -1.3552 -1.0676
  868MOL0     H17154   5.608   9.898   9.627  0.7497 -0.4794  0.1539
  868MOL0     H17155   5.483   9.814   9.517 -0.9012  0.0251  0.1668
  868MOL0     H17156   5.626   9.674   9.416 -2.1449  2.2012 -0.4148
  868MOL0     H17157   5.686   9.827   9.415 -0.3962 -3.5837 -2.8212
  868MOL0     H17158   5.783   9.584   9.589  0.3492  0.4858 -0.4884
  868MOL0     H17159   5.862   9.744   9.590  2.2163  0.8668 -4.5023
  868MOL0     H17160   5.990   9.597   9.455  0.9677 -1.4908 -2.0177
  868MOL0     H17161   5.919   9.710   9.341  3.2713 -0.1586  0.6190
  868MOL0     H17162   5.468   9.055   9.681 -1.6153  5.3139 -1.0021
  868MOL0     H17163   5.522   8.850   9.570 -0.3569  0.2903 -1.8592
  868MOL0     H17164   6.048   8.624   9.513  1.4231 -1.0811 -0.1095
  868MOL0     H17165   6.159   8.436   9.374 -1.2976 -2.8271 -0.3489
  868MOL0     H17166   5.971   8.429   8.840 -1.3410 -1.1092  3.7877
  868MOL0     H17167   5.862   8.661   8.916 -2.1890  1.3501 -0.1247
  868MOL0     H17168   5.607   9.089   8.738 -1.2880  0.1670 -0.5426
  868MOL0     H17169   5.504   9.287   8.845  2.1297  0.6204  1.1635
  868MOL0     H17170   5.436   9.222   9.301 -0.2360 -1.2609 -1.3436
  868MOL0     H17171   5.599   9.280   9.217 -0.6780 -0.3839 -1.8964
  868MOL0     H17172   5.538   9.504   9.223  3.4132 -1.7185  2.3457
  868MOL0     H17173   5.528   9.452   9.381  0.5203  4.9612 -0.0923
  868MOL0     H17174   5.276   9.423   9.366  1.0191  0.3546  1.6410
  868MOL0     H17175   5.270   9.450   9.190  0.4740 -1.4524  0.5550
  868MOL0     H17176   5.369   9.643   9.405  0.6624  0.9711  0.4144
  868MOL0     H17177   5.213   9.647   9.345  0.8189  2.6253  0.1988
  868MOL0     H17178   5.463   9.814   9.029  1.4797  1.2388  1.4685
  868MOL0     H17179   5.432   9.041   9.188  2.3219 -0.3607  0.2218
  868MOL0     H17180   5.524   8.845   9.074  1.3502 -0.2761 -1.2608
  869MOL0     O17181   0.077   0.149   1.516  0.2941  0.2600  0.6617
  869MOL0     C17182  -0.038   0.192   1.513 -0.1250  0.2322 -0.0576
  869MOL0     O17183  -0.063   0.322   1.509 -0.9116  0.5677 -0.2529
  869MOL0     C17184   0.021   0.424   1.450 -0.6532 -0.1790 -0.9949
  869MOL0     C17185   0.006   0.549   1.497  0.1583 -0.3505 -0.5612
  869MOL0     C17186   0.080   0.659   1.451 -0.4501  0.2711 -0.4815
  869MOL0     C17187   0.187   0.633   1.362 -0.8263  0.2733  0.8122
  869MOL0     O17188   0.266   0.730   1.314  0.0253 -0.3098  0.5244
  869MOL0     C17189   0.222   0.869   1.319 -0.7602 -0.2733 -0.0608
  869MOL0     C17190   0.327   0.951   1.242  0.4517  0.6553 -0.3244
  869MOL0     C17191   0.305   1.096   1.247  0.3678 -0.3993  0.2639
  869MOL0     C17192   0.183   1.154   1.172  0.6240  0.7007 -0.1972
  869MOL0     C17193   0.201   1.298   1.131 -1.0321  0.0478 -0.9651
  869MOL0     C17194   0.204   1.388   1.255  0.0892 -0.0794  0.7688
  869MOL0     C17195   0.172   1.527   1.207 -0.5062  0.6587 -0.1575
  869MOL0     C17196   0.171   1.629   1.314  0.6645  0.5354  0.4330
  869MOL0     N17197   0.126   1.758   1.251  0.2463  0.3355  0.5361
  869MOL0     C17198   0.006   1.811   1.272  0.6794  0.2361 -1.1477
  869MOL0     C17199  -0.016   1.909   1.190 -0.0980 -0.2710 -0.4172
  869MOL0     C17200  -0.129   2.001   1.182  0.1963  0.4924 -0.5168
  869MOL0     C17201  -0.181   2.024   1.037 -0.2728  0.1827  0.2542
  869MOL0     C17202  -0.273   2.141   1.023 -0.4508 -0.3770  1.0421
  869MOL0     C17203  -0.284   2.187   0.869 -0.1112 -0.5779 -0.1739
  869MOL0     O17204  -0.348   2.086   0.786  0.3252  0.8138 -0.2422
  869MOL0     C17205  -0.390   2.107   0.658  0.5050  0.6044  0.1114
  869MOL0     C17206  -0.425   1.998   0.572 -0.3830  0.5165 -0.6729
  869MOL0     C17207  -0.462   2.010   0.440  0.6547 -0.9672  0.0987
  869MOL0     C17208  -0.490   1.896   0.353 -0.3845  0.2792  0.2425
  869MOL0     C17209  -0.476   2.144   0.385  0.2279  0.3970 -0.0736
  869MOL0     C17210  -0.505   2.172   0.243 -0.2242 -0.6517  0.2680
  869MOL0     O17211  -0.591   2.108   0.173  0.2080  0.1358  0.7281
  869MOL0     C17212  -0.591   2.123   0.030 -0.3934 -0.1993 -0.5793
  869MOL0     C17213  -0.470   2.121  -0.037  0.7276  0.1825  0.1858
  869MOL0     C17214  -0.468   2.141  -0.179  0.1213 -0.6219  0.3095
  869MOL0     C17215  -0.584   2.187  -0.245  0.2377 -0.8240 -0.1336
  869MOL0     O17216  -0.558   2.223  -0.377 -0.2243 -0.3653 -0.1749
  869MOL0     C17217  -0.671   2.226  -0.470  1.0423 -0.1841 -0.4254
  869MOL0     C17218  -0.720   2.081  -0.496 -0.4922  0.8014 -0.1511
  869MOL0     C17219  -0.790   2.069  -0.636 -0.5952 -0.6057 -0.0813
  869MOL0     C17220  -0.927   2.114  -0.620 -0.3627 -0.2984 -0.6272
  869MOL0     C17221  -1.022   2.054  -0.725  0.1249  0.6344 -0.0567
  869MOL0     C17222  -1.165   2.100  -0.713  1.2336 -0.3876  0.2475
  869MOL0     C17223  -1.270   1.999  -0.759 -0.0585  0.1414  0.5095
  869MOL0     C17224  -1.264   1.985  -0.915 -1.0139  0.0985  0.5314
  869MOL0    Cl17225  -1.388   2.090  -0.991  0.6066 -0.3009  0.1118
  869MOL0     C17226  -0.700   2.201  -0.172  0.6474 -0.1440  0.4281
  869MOL0     C17227  -0.703   2.164  -0.039 -0.2361  1.1008 -0.2751
  869MOL0     O17228  -0.444   2.265   0.192  0.0008 -0.9329  0.1095
  869MOL0     C17229  -0.447   2.251   0.473 -0.1495 -0.2820  0.5500
  869MOL0     C17230  -0.419   2.236   0.609 -1.1144 -0.5258  0.5341
  869MOL0     N17231   0.092   1.917   1.109  0.2802  0.3068  0.4284
  869MOL0     N17232   0.178   1.830   1.154 -0.1234  0.8436  1.0532
  869MOL0     C17233   0.211   0.500   1.318 -0.4062 -0.2042  0.2226
  869MOL0     C17234   0.126   0.395   1.355 -0.8513 -0.0727  0.1158
  869MOL0     C17235  -0.158   0.106   1.533 -0.1705  0.1104  0.3020
  869MOL0     C17236  -0.260   0.152   1.609 -0.4119  1.0048 -0.9480
  869MOL0     C17237  -0.374   0.077   1.626 -1.0689  0.1341 -0.0942
  869MOL0     C17238  -0.387  -0.053   1.568 -0.5758  0.5043 -0.6718
  869MOL0     O17239  -0.496  -0.133   1.599  0.3802 -0.6130 -0.2114
  869MOL0     C17240  -0.539  -0.235   1.510  0.2509 -0.0476  0.1843
  869MOL0     C17241  -0.666  -0.283   1.582  0.0013  0.4200 -0.0274
  869MOL0     C17242  -0.623  -0.338   1.718  0.0909  0.0980 -0.7777
  869MOL0     C17243  -0.725  -0.295   1.835  0.0425 -0.0831 -0.4224
  869MOL0     C17244  -0.871  -0.266   1.811  0.3470  0.6840  0.8348
  869MOL0     C17245  -0.995  -0.236   1.802 -0.4659 -0.0949 -0.3056
  869MOL0     C17246  -0.287  -0.113   1.500 -0.1771 -0.5342  1.0107
  869MOL0     C17247  -0.176  -0.032   1.475 -0.2261  0.3881  0.7642
  869MOL0     H17248  -0.075   0.551   1.570  0.8206 -2.1710  0.2982
  869MOL0     H17249   0.065   0.761   1.485 -2.0238 -0.2280  0.4568
  869MOL0     H17250   0.130   0.891   1.263 -0.4933 -0.0941 -0.4370
  869MOL0     H17251   0.218   0.906   1.421  0.9583 -1.5173  0.5164
  869MOL0     H17252   0.426   0.938   1.287 -0.9378 -3.2451  2.0982
  869MOL0     H17253   0.328   0.912   1.140 -4.7853 -2.8013  0.5738
  869MOL0     H17254   0.280   1.123   1.350 -1.1649 -0.4040 -0.0882
  869MOL0     H17255   0.400   1.135   1.210  1.5510 -2.9325  0.3779
  869MOL0     H17256   0.165   1.096   1.080  0.8022  1.6440 -0.8365
  869MOL0     H17257   0.098   1.135   1.238 -1.0093  0.8342 -2.1635
  869MOL0     H17258   0.296   1.310   1.079  0.2324  1.5400  1.4749
  869MOL0     H17259   0.115   1.321   1.068 -0.7487 -0.1450 -1.4311
  869MOL0     H17260   0.133   1.347   1.328 -0.6073  0.3604  0.3429
  869MOL0     H17261   0.303   1.369   1.298 -0.8834 -2.0248  2.3361
  869MOL0     H17262   0.247   1.546   1.129 -0.7824 -2.0759 -1.2041
  869MOL0     H17263   0.077   1.516   1.155 -0.0102 -1.8203 -0.6647
  869MOL0     H17264   0.275   1.638   1.347  1.2038 -1.9859 -0.3321
  869MOL0     H17265   0.115   1.609   1.406 -2.6889  0.8668 -1.3687
  869MOL0     H17266  -0.068   1.794   1.349 -0.9846  0.1213 -2.7097
  869MOL0     H17267  -0.219   1.969   1.234  1.4925 -3.3225 -0.2797
  869MOL0     H17268  -0.104   2.104   1.208 -1.3986  0.5105  1.0971
  869MOL0     H17269  -0.225   1.933   0.997 -2.4947  1.2133  0.1989
  869MOL0     H17270  -0.090   2.049   0.981 -0.6431 -2.0926 -1.5245
  869MOL0     H17271  -0.241   2.227   1.084 -1.3957  0.5521  0.2768
  869MOL0     H17272  -0.376   2.118   1.055 -0.9755 -0.9228 -0.9332
  869MOL0     H17273  -0.182   2.206   0.832  0.1319 -0.4756  0.5394
  869MOL0     H17274  -0.338   2.281   0.858  2.1685  1.0803  1.9115
  869MOL0     H17275  -0.412   1.899   0.613 -2.3709  0.7963  0.7996
  869MOL0     H17276  -0.589   1.912   0.308  1.2330  0.0043 -3.8521
  869MOL0     H17277  -0.429   1.870   0.266 -0.2397  0.7879  0.1841
  869MOL0     H17278  -0.491   1.804   0.412 -1.0134 -1.1893 -1.9229
  869MOL0     H17279  -0.381   2.094   0.018 -0.6534  0.7070  2.8200
  869MOL0     H17280  -0.380   2.102  -0.228  0.0168 -0.0795 -0.3229
  869MOL0     H17281  -0.753   2.286  -0.431  0.9162  0.0198 -0.9977
  869MOL0     H17282  -0.644   2.268  -0.567 -2.3782  2.0885 -0.5796
  869MOL0     H17283  -0.633   2.015  -0.493  0.2828  1.8372  1.0218
  869MOL0     H17284  -0.788   2.057  -0.414 -2.5208  0.5866 -1.8171
  869MOL0     H17285  -0.799   1.969  -0.678 -0.7958 -0.3620 -0.6377
  869MOL0     H17286  -0.746   2.131  -0.716 -0.3959 -0.3374  0.2329
  869MOL0     H17287  -0.974   2.083  -0.526  0.4447  1.6457  0.4886
  869MOL0     H17288  -0.931   2.223  -0.622 -0.6569 -0.3162 -2.2829
  869MOL0     H17289  -1.033   1.946  -0.711 -2.0000  0.6446 -1.2712
  869MOL0     H17290  -0.982   2.066  -0.826  2.5161  1.8465  0.9486
  869MOL0     H17291  -1.180   2.123  -0.607  1.6148 -1.7329  0.6147
  869MOL0     H17292  -1.172   2.191  -0.772  0.1672 -0.4045  0.3317
  869MOL0     H17293  -1.366   2.043  -0.731 -0.7403 -1.1180  0.2079
  869MOL0     H17294  -1.260   1.900  -0.715 -0.0451  0.1837  0.6031
  869MOL0     H17295  -1.277   1.882  -0.949 -5.6824  1.4344 -2.7191
  869MOL0     H17296  -1.166   2.028  -0.941  0.1344 -2.8025 -0.3229
  869MOL0     H17297  -0.788   2.248  -0.216  0.0372  1.4930  3.1198
  869MOL0     H17298  -0.789   2.186   0.023 -0.5830 -1.4557  0.2435
  869MOL0     H17299  -0.445   2.354   0.437  3.4247  1.3762  4.4998
  869MOL0     H17300  -0.415   2.322   0.674 -0.7862  0.3314 -0.5935
  869MOL0     H17301   0.295   0.468   1.258  0.3718 -1.0362  1.7052
  869MOL0     H17302   0.147   0.298   1.311 -0.7231  1.8350 -4.7678
  869MOL0     H17303  -0.251   0.245   1.666 -1.3689  0.7090 -0.2918
  869MOL0     H17304  -0.459   0.119   1.678 -0.4964  2.0476 -0.5934
  869MOL0     H17305  -0.566  -0.190   1.414 -0.4291 -0.6930  0.0632
  869MOL0     H17306  -0.472  -0.319   1.492 -2.1796 -1.3244 -4.0900
  869MOL0     H17307  -0.736  -0.351   1.533 -0.0044 -0.3968  1.0722
  869MOL0     H17308  -0.727  -0.194   1.602 -3.4481 -0.6473 -4.3287
  869MOL0     H17309  -0.524  -0.318   1.760  0.0200  2.5555 -1.6078
  869MOL0     H17310  -0.615  -0.447   1.717 -1.2850 -0.2034  3.1928
  869MOL0     H17311  -0.699  -0.199   1.879 -0.7430 -0.2818  0.5098
  869MOL0     H17312  -0.715  -0.361   1.922  1.1294  2.7139  1.7064
  869MOL0     H17313  -1.085  -0.178   1.804  0.3117  1.2675  3.6339
  869MOL0     H17314  -0.284  -0.216   1.469 -0.4582 -0.8687  2.0385
  869MOL0     H17315  -0.088  -0.061   1.418 -0.5108  1.4349 -0.2605
  870MOL0     O17316   9.744   3.937   2.966 -0.7775  0.1405  0.0194
  870MOL0     C17317   9.647   4.006   2.982  0.6159  0.1510  0.2968
  870MOL0     O17318   9.636   4.124   3.039 -0.0961  0.8287  0.2078
  870MOL0     C17319   9.740   4.198   3.094 -0.4615 -0.4548  0.1362
  870MOL0     C17320   9.728   4.275   3.202  0.5767 -1.5844  1.5167
  870MOL0     C17321   9.824   4.361   3.257 -0.2220  0.0094 -0.1376
  870MOL0     C17322   9.951   4.362   3.197 -0.6801 -0.4382 -0.7002
  870MOL0     O17323  10.050   4.449   3.230 -0.0325  0.4530  0.5269
  870MOL0     C17324  10.014   4.582   3.264 -0.2792  0.2681 -0.5868
  870MOL0     C17325  10.133   4.668   3.283 -1.8269  0.5792 -0.5652
  870MOL0     C17326  10.218   4.673   3.158 -0.1378 -0.0486  0.1172
  870MOL0     C17327  10.350   4.750   3.165 -0.5417  0.0410  0.1405
  870MOL0     C17328  10.414   4.788   3.029  0.2428  0.1347  0.0913
  870MOL0     C17329  10.539   4.865   3.045 -0.6713  0.4069 -0.3047
  870MOL0     C17330  10.558   4.944   2.915 -0.7336 -0.3900 -0.5023
  870MOL0     C17331  10.450   5.052   2.888  0.8195 -0.2575 -0.6794
  870MOL0     N17332  10.477   5.143   2.773  0.1033 -0.0479  0.0351
  870MOL0     C17333  10.534   5.102   2.655 -0.0345  0.0009  0.2019
  870MOL0     C17334  10.532   5.224   2.583  0.9517 -0.2259 -0.5692
  870MOL0     C17335  10.581   5.240   2.444  0.4120 -0.0332 -0.0117
  870MOL0     C17336  10.730   5.275   2.448  0.2404  1.1334  0.0622
  870MOL0     C17337  10.823   5.157   2.478  0.2235  0.4454 -0.3807
  870MOL0     C17338  10.970   5.185   2.450  0.1170  0.0218  0.5982
  870MOL0     O17339  11.041   5.097   2.536 -0.5803 -0.5777  0.0141
  870MOL0     C17340  11.175   5.080   2.494 -0.0535  0.4641 -0.9467
  870MOL0     C17341  11.239   5.147   2.383  0.5496 -0.3821  0.2164
  870MOL0     C17342  11.369   5.118   2.347 -0.8150 -0.2819 -0.3369
  870MOL0     C17343  11.430   5.186   2.233  1.0063 -0.9440 -0.1886
  870MOL0     C17344  11.446   5.031   2.432  1.6936  1.2245 -0.1691
  870MOL0     C17345  11.582   4.998   2.415  0.2246  0.8487  0.5705
  870MOL0     O17346  11.608   4.951   2.291  1.0485  0.6381  0.1945
  870MOL0     C17347  11.740   4.916   2.265 -0.8062  0.1275  0.0980
  870MOL0     C17348  11.779   4.779   2.291  0.0595 -0.1238  0.1397
  870MOL0     C17349  11.911   4.749   2.264 -0.3293  0.4061 -0.2948
  870MOL0     C17350  12.005   4.841   2.213  1.1963 -0.9434  0.4013
  870MOL0     O17351  12.130   4.815   2.182 -0.4074 -0.3614  1.2367
  870MOL0     C17352  12.191   4.702   2.230  0.1104 -0.3752 -1.1885
  870MOL0     C17353  12.337   4.721   2.249 -0.8093  1.2015  0.3720
  870MOL0     C17354  12.412   4.755   2.118  0.2188  0.2269 -0.6904
  870MOL0     C17355  12.376   4.678   1.991  1.5001 -0.0603 -0.3597
  870MOL0     C17356  12.480   4.707   1.890 -0.2840 -0.1080  1.6894
  870MOL0     C17357  12.461   4.629   1.753 -0.6760  0.6448 -0.3378
  870MOL0     C17358  12.475   4.474   1.758 -0.8610  0.0518 -0.7063
  870MOL0     C17359  12.421   4.424   1.629 -0.7129 -0.1802  0.6553
  870MOL0    Cl17360  12.245   4.393   1.656  0.1342 -0.1009  0.1730
  870MOL0     C17361  11.961   4.976   2.191  0.5383  0.6623 -0.2017
  870MOL0     C17362  11.832   5.014   2.226 -0.9234 -0.3851 -0.6208
  870MOL0     O17363  11.666   5.007   2.502  0.9623 -0.1663 -0.7349
  870MOL0     C17364  11.384   4.980   2.551  0.3215  0.8670 -0.2479
  870MOL0     C17365  11.257   5.005   2.583  0.7671  0.1551  0.4878
  870MOL0     N17366  10.477   5.321   2.663 -0.5883 -0.0631 -0.1220
  870MOL0     N17367  10.433   5.271   2.772 -0.6762  0.5954 -1.0964
  870MOL0     C17368   9.964   4.288   3.077 -0.1909 -0.2580 -0.8870
  870MOL0     C17369   9.864   4.203   3.032 -0.3253  0.1978 -0.5615
  870MOL0     C17370   9.517   3.954   2.919 -0.1716  0.6906  0.6166
  870MOL0     C17371   9.390   4.016   2.926 -0.1800  0.4436 -1.4507
  870MOL0     C17372   9.271   3.984   2.860  0.0290  0.5941  0.1752
  870MOL0     C17373   9.276   3.871   2.773 -0.3899 -0.1805 -0.4659
  870MOL0     O17374   9.167   3.832   2.705  0.3296 -0.0064  0.4653
  870MOL0     C17375   9.087   3.935   2.629  0.3338  0.2107  0.2768
  870MOL0     C17376   8.942   3.881   2.600 -0.2388  0.2295 -0.5880
  870MOL0     C17377   8.948   3.775   2.483 -0.3230 -0.0023 -0.4057
  870MOL0     C17378   8.818   3.726   2.429 -0.1549  0.2262  0.5405
  870MOL0     C17379   8.829   3.657   2.299  0.4215  0.5221 -0.4106
  870MOL0     C17380   8.831   3.596   2.194  0.3782 -0.2825 -0.6231
  870MOL0     C17381   9.398   3.797   2.764 -0.4898 -0.5707  0.2829
  870MOL0     C17382   9.519   3.842   2.831  0.1365 -0.2132  1.1556
  870MOL0     H17383   9.631   4.262   3.249  0.4963  2.7643  3.0940
  870MOL0     H17384   9.812   4.422   3.346  4.1871  1.1921 -0.1394
  870MOL0     H17385   9.950   4.626   3.186 -2.8285 -2.5898 -0.2725
  870MOL0     H17386   9.949   4.585   3.352 -1.1388 -0.9287 -1.1563
  870MOL0     H17387  10.116   4.769   3.321  0.1396  0.8871 -0.4227
  870MOL0     H17388  10.192   4.628   3.367 -3.0868  4.1288  2.2714
  870MOL0     H17389  10.247   4.576   3.117  2.3932  1.3195 -1.5940
  870MOL0     H17390  10.163   4.725   3.079  2.8833  1.6753 -1.0476
  870MOL0     H17391  10.322   4.845   3.211 -1.8389 -0.1255 -0.2943
  870MOL0     H17392  10.427   4.701   3.226  0.6708  2.7773  0.9647
  870MOL0     H17393  10.426   4.702   2.962  0.1625  0.0075  0.2414
  870MOL0     H17394  10.336   4.857   2.994 -0.0052  0.1900  0.7492
  870MOL0     H17395  10.528   4.948   3.115  1.2605  0.2418  0.2507
  870MOL0     H17396  10.627   4.806   3.072 -1.1729 -0.6660 -0.9689
  870MOL0     H17397  10.656   4.992   2.930 -1.6214  0.7205  2.4762
  870MOL0     H17398  10.566   4.877   2.829  0.7763  0.7612 -1.3280
  870MOL0     H17399  10.433   5.117   2.974  1.5423  0.1143 -0.8036
  870MOL0     H17400  10.366   4.988   2.863  0.0766 -0.2233  1.5289
  870MOL0     H17401  10.562   5.001   2.626  1.7559  0.5573 -0.0582
  870MOL0     H17402  10.554   5.148   2.392  0.4631  1.0824 -2.1257
  870MOL0     H17403  10.521   5.321   2.403  2.6717  3.3571  2.8250
  870MOL0     H17404  10.752   5.356   2.518  3.5241 -1.5986  2.5840
  870MOL0     H17405  10.761   5.317   2.352  2.7169 -0.3823  0.0913
  870MOL0     H17406  10.786   5.071   2.422  0.0249 -1.0648  1.9492
  870MOL0     H17407  10.807   5.123   2.581  2.0023  0.8453  0.0723
  870MOL0     H17408  11.006   5.286   2.470 -2.8920  1.1373  0.8704
  870MOL0     H17409  10.980   5.167   2.342 -3.4323 -0.1872  0.1638
  870MOL0     H17410  11.194   5.220   2.316  1.1412 -0.9175 -0.7864
  870MOL0     H17411  11.373   5.279   2.227  1.2284 -0.8078 -0.2064
  870MOL0     H17412  11.532   5.222   2.253  0.8038 -1.3285  1.8028
  870MOL0     H17413  11.419   5.120   2.147 -0.1501  0.5824 -1.2614
  870MOL0     H17414  11.702   4.712   2.327  1.0643  0.1910  3.0774
  870MOL0     H17415  11.939   4.649   2.294 -0.4060  0.8134  1.2057
  870MOL0     H17416  12.153   4.664   2.326  2.4707 -0.9691 -0.4232
  870MOL0     H17417  12.170   4.615   2.168 -0.0982 -1.6532  0.6127
  870MOL0     H17418  12.364   4.804   2.315  2.8781  1.2550 -0.9884
  870MOL0     H17419  12.366   4.626   2.294  0.1595 -0.7711 -3.9143
  870MOL0     H17420  12.520   4.746   2.133 -0.0443  0.3172  1.5934
  870MOL0     H17421  12.393   4.861   2.103  1.2480  0.6252  0.6705
  870MOL0     H17422  12.350   4.574   2.010  0.2970  0.1286 -0.8591
  870MOL0     H17423  12.281   4.718   1.954  0.1361 -3.4397 -0.8826
  870MOL0     H17424  12.573   4.680   1.940  0.9136  0.8840  0.1092
  870MOL0     H17425  12.467   4.814   1.872 -2.0172 -0.4833  0.3924
  870MOL0     H17426  12.361   4.657   1.718 -0.5405  3.8457  1.4674
  870MOL0     H17427  12.533   4.668   1.682 -0.4666 -0.2267 -0.6157
  870MOL0     H17428  12.418   4.433   1.842 -0.1489  3.0824  1.4457
  870MOL0     H17429  12.577   4.434   1.756 -1.0448 -0.4883  0.0512
  870MOL0     H17430  12.471   4.333   1.595 -0.9339  0.8912 -3.0071
  870MOL0     H17431  12.425   4.491   1.542 -2.8688 -2.2665 -1.2011
  870MOL0     H17432  12.039   5.049   2.171  1.3795 -0.2122 -0.1949
  870MOL0     H17433  11.794   5.115   2.225  1.0315  0.4209  0.7887
  870MOL0     H17434  11.453   4.937   2.623 -1.7135  0.4747  1.6017
  870MOL0     H17435  11.217   4.981   2.681  1.5750  2.0751  1.3279
  870MOL0     H17436  10.058   4.290   3.023  0.1874 -4.8916 -0.7878
  870MOL0     H17437   9.876   4.150   2.938  0.8209 -0.6208  0.0262
  870MOL0     H17438   9.384   4.107   2.985  1.4770 -0.3152  0.0032
  870MOL0     H17439   9.174   4.032   2.877  0.0663 -0.3562  4.1641
  870MOL0     H17440   9.070   4.020   2.696  0.9674 -0.7079  1.6599
  870MOL0     H17441   9.133   3.977   2.539  0.0197  0.5539  0.2756
  870MOL0     H17442   8.879   3.963   2.563 -1.0939  0.8825  2.0750
  870MOL0     H17443   8.892   3.838   2.687  2.1533  0.0408  0.7899
  870MOL0     H17444   9.018   3.693   2.501  0.7815  0.0602 -3.7484
  870MOL0     H17445   8.998   3.834   2.405  1.1777 -0.9067 -0.1655
  870MOL0     H17446   8.748   3.809   2.416 -2.8647 -2.1331 -1.2266
  870MOL0     H17447   8.770   3.650   2.491 -0.2120 -0.0662  0.1448
  870MOL0     H17448   8.864   3.533   2.113  4.1434 -2.9155  2.5950
  870MOL0     H17449   9.411   3.705   2.708 -2.7346 -1.8961  1.8082
  870MOL0     H17450   9.612   3.787   2.819  0.5924  0.9246 -0.9250
  871MOL0     O17451   4.939   7.553   8.353 -0.1078  0.1176  0.2348
  871MOL0     C17452   4.931   7.536   8.476  0.5741 -0.5116  0.5960
  871MOL0     O17453   4.900   7.427   8.544  0.4465  0.4475 -0.3794
  871MOL0     C17454   4.912   7.299   8.493 -0.0040 -0.6709 -0.8193
  871MOL0     C17455   4.979   7.260   8.378 -0.0258 -0.5671 -0.2478
  871MOL0     C17456   4.974   7.122   8.342  0.3100 -0.0033  0.1306
  871MOL0     C17457   4.883   7.039   8.404  0.3839 -0.7167 -0.3526
  871MOL0     O17458   4.870   6.915   8.357  0.2297  0.0663  0.4227
  871MOL0     C17459   4.739   6.854   8.359  0.1803  0.2276  0.3485
  871MOL0     C17460   4.709   6.807   8.216 -0.5270 -0.5175 -0.7125
  871MOL0     C17461   4.711   6.919   8.109 -1.1035 -0.0792 -0.5591
  871MOL0     C17462   4.614   7.031   8.130 -0.3092 -0.3713 -0.4360
  871MOL0     C17463   4.623   7.148   8.042  0.2540 -0.5684 -0.0030
  871MOL0     C17464   4.583   7.115   7.895  0.0830 -0.1300  0.8183
  871MOL0     C17465   4.452   7.052   7.876  0.6362  0.7051  0.8093
  871MOL0     C17466   4.326   7.124   7.914  0.7858  0.4778 -0.1316
  871MOL0     N17467   4.321   7.255   7.842  0.0311  0.2168  0.2116
  871MOL0     C17468   4.307   7.378   7.903 -0.1092 -0.7255 -0.6121
  871MOL0     C17469   4.270   7.460   7.804  0.1439  0.5389  0.1576
  871MOL0     C17470   4.258   7.609   7.811 -0.4764  0.1677 -0.0596
  871MOL0     C17471   4.241   7.659   7.948  0.4216 -0.0205  0.1602
  871MOL0     C17472   4.219   7.808   7.936  0.0634 -0.4655 -0.5077
  871MOL0     C17473   4.243   7.876   8.071 -1.0495 -0.0918 -0.5863
  871MOL0     O17474   4.364   7.827   8.127 -0.2635 -0.2105 -0.0058
  871MOL0     C17475   4.403   7.865   8.253  0.0786 -0.0080  0.3786
  871MOL0     C17476   4.340   7.955   8.335  0.3551  0.9671 -0.9301
  871MOL0     C17477   4.407   8.007   8.445  0.4542 -0.5620 -0.0376
  871MOL0     C17478   4.338   8.121   8.509 -1.1182  0.6360 -0.1773
  871MOL0     C17479   4.525   7.947   8.494  0.0289  0.1309 -0.2666
  871MOL0     C17480   4.594   7.985   8.625  0.4100  0.1020  0.8915
  871MOL0     O17481   4.557   8.099   8.689 -0.6483  0.2310  0.1123
  871MOL0     C17482   4.617   8.142   8.807  0.4768 -0.3659  0.2809
  871MOL0     C17483   4.627   8.055   8.912  0.2040  0.4371 -1.1393
  871MOL0     C17484   4.725   8.104   9.010  0.6353  0.6817  1.0905
  871MOL0     C17485   4.783   8.232   8.996 -0.6175  0.6454  0.0030
  871MOL0     O17486   4.883   8.267   9.089 -0.4731 -0.9701 -0.1583
  871MOL0     C17487   4.857   8.396   9.154  0.0892  0.3028  0.1198
  871MOL0     C17488   4.827   8.375   9.302 -1.2681  1.1116  0.5513
  871MOL0     C17489   4.696   8.293   9.326  0.4415  0.8405 -0.4440
  871MOL0     C17490   4.628   8.321   9.464 -0.6337  0.0106 -1.5602
  871MOL0     C17491   4.626   8.197   9.557  0.1198  0.4478  0.0523
  871MOL0     C17492   4.766   8.162   9.594 -0.6526  0.1165  0.3235
  871MOL0     C17493   4.763   8.040   9.691 -1.0239  0.6426  0.9910
  871MOL0     C17494   4.894   7.958   9.689  0.5613  0.7449  0.8663
  871MOL0    Cl17495   5.036   8.070   9.678  0.1862 -0.2562  0.5045
  871MOL0     C17496   4.736   8.326   8.911  0.2829 -0.4054 -0.9094
  871MOL0     C17497   4.665   8.275   8.808  0.1703 -0.0446  0.3039
  871MOL0     O17498   4.687   7.915   8.658  0.3145 -0.3212 -0.2061
  871MOL0     C17499   4.579   7.843   8.421 -0.9145  0.8299  0.6407
  871MOL0     C17500   4.520   7.803   8.301 -1.0171 -1.1368  0.0349
  871MOL0     N17501   4.275   7.384   7.684 -0.2674  0.3659  0.0262
  871MOL0     N17502   4.310   7.263   7.710 -0.7424  0.6334  0.1183
  871MOL0     C17503   4.810   7.081   8.521 -0.0990 -0.3318  0.8249
  871MOL0     C17504   4.834   7.211   8.570  0.2158  0.4086  0.1907
  871MOL0     C17505   4.980   7.647   8.552  0.4107 -0.0745  0.5751
  871MOL0     C17506   5.016   7.630   8.689  0.1576  0.8202 -0.1817
  871MOL0     C17507   5.049   7.743   8.769  0.6824  0.2868  0.4073
  871MOL0     C17508   5.041   7.870   8.719  0.6151 -0.7436  0.2806
  871MOL0     O17509   5.083   7.973   8.797 -0.1858 -0.1808  0.6344
  871MOL0     C17510   5.044   8.105   8.772  0.3708 -0.8148 -0.8866
  871MOL0     C17511   5.107   8.180   8.894  0.0909  0.0095 -0.2849
  871MOL0     C17512   5.257   8.208   8.889 -0.3104 -0.4145  0.6725
  871MOL0     C17513   5.301   8.243   9.026  0.7181 -0.6882 -0.4103
  871MOL0     C17514   5.436   8.305   9.042 -0.7784  0.5246 -0.8201
  871MOL0     C17515   5.546   8.348   9.058  0.9848 -0.0013  1.0288
  871MOL0     C17516   4.988   7.885   8.592  0.0858  0.2035 -0.1943
  871MOL0     C17517   4.965   7.782   8.507  0.2906 -1.0117 -1.0227
  871MOL0     H17518   5.041   7.326   8.319 -2.1372 -1.5180 -3.8007
  871MOL0     H17519   5.039   7.082   8.265  2.0586  2.3162  0.3150
  871MOL0     H17520   4.731   6.776   8.435  0.6050  0.5722  0.7543
  871MOL0     H17521   4.666   6.935   8.361  1.6580  1.8207 -2.8416
  871MOL0     H17522   4.789   6.732   8.207  0.5360  0.3452  0.9890
  871MOL0     H17523   4.619   6.746   8.213  1.0934 -3.1374  0.1642
  871MOL0     H17524   4.813   6.954   8.096 -0.9316 -1.4004 -3.5904
  871MOL0     H17525   4.683   6.886   8.008 -0.8145 -1.6280 -0.1478
  871MOL0     H17526   4.512   6.992   8.134 -0.5653  0.3396  0.2111
  871MOL0     H17527   4.626   7.065   8.233 -2.9840 -1.5269  0.3367
  871MOL0     H17528   4.555   7.229   8.070  2.8593  1.6036  0.4731
  871MOL0     H17529   4.721   7.197   8.046 -0.5980  1.2569 -0.2884
  871MOL0     H17530   4.578   7.208   7.839  0.3609  1.1773  2.8561
  871MOL0     H17531   4.657   7.050   7.847 -3.5349 -1.8366 -2.9945
  871MOL0     H17532   4.449   7.023   7.770  1.3180  0.7332  0.7754
  871MOL0     H17533   4.448   6.952   7.921  0.4897 -0.9565 -2.5479
  871MOL0     H17534   4.339   7.146   8.021  1.2542  6.0994 -1.0323
  871MOL0     H17535   4.233   7.069   7.895  1.1745  0.0535 -0.8417
  871MOL0     H17536   4.298   7.398   8.009 -1.0722  0.5703 -0.9173
  871MOL0     H17537   4.350   7.655   7.775  0.5856  0.2903  2.6014
  871MOL0     H17538   4.165   7.641   7.763 -0.1638  2.1387  0.5397
  871MOL0     H17539   4.320   7.625   8.015 -2.1213 -4.0222  1.4608
  871MOL0     H17540   4.151   7.617   7.995  0.8450 -1.2142 -0.0788
  871MOL0     H17541   4.121   7.845   7.905 -0.3321 -0.2101  0.9771
  871MOL0     H17542   4.287   7.840   7.857 -1.5727 -0.6071 -2.0193
  871MOL0     H17543   4.166   7.846   8.143  1.3339  2.2399  3.2894
  871MOL0     H17544   4.239   7.985   8.062 -1.4505 -0.1799 -1.5607
  871MOL0     H17545   4.246   8.002   8.307 -0.9123 -0.6923  0.3672
  871MOL0     H17546   4.401   8.205   8.538  0.6174  0.3520 -2.7864
  871MOL0     H17547   4.273   8.172   8.436  2.6244  0.6634 -3.8885
  871MOL0     H17548   4.277   8.083   8.591  0.2775 -0.6261  0.3186
  871MOL0     H17549   4.560   7.969   8.920 -2.4450  2.3409 -1.4559
  871MOL0     H17550   4.749   8.045   9.099  2.2365 -1.5105 -0.6775
  871MOL0     H17551   4.956   8.442   9.152  0.0797  0.3536 -1.9530
  871MOL0     H17552   4.792   8.477   9.118  1.7231  1.4469 -0.3923
  871MOL0     H17553   4.909   8.316   9.346 -0.7084  2.0402  0.7757
  871MOL0     H17554   4.830   8.475   9.346  1.0066  1.7349 -0.8348
  871MOL0     H17555   4.717   8.186   9.320 -1.7740  0.1157  2.1599
  871MOL0     H17556   4.628   8.320   9.245  1.9503 -1.4867 -2.6102
  871MOL0     H17557   4.688   8.390   9.524 -2.2041  0.4584 -0.4531
  871MOL0     H17558   4.531   8.369   9.452 -0.8033 -0.0242 -0.4656
  871MOL0     H17559   4.592   8.112   9.499  0.3692  1.9369 -2.3960
  871MOL0     H17560   4.560   8.225   9.640  0.5677  1.3110  0.1322
  871MOL0     H17561   4.834   8.151   9.509 -1.5675  2.0495 -0.7183
  871MOL0     H17562   4.804   8.252   9.643 -3.0517  1.9678 -0.9966
  871MOL0     H17563   4.687   7.965   9.669  1.0544 -2.4476  3.3475
  871MOL0     H17564   4.746   8.082   9.790  0.7879  1.3810  1.0379
  871MOL0     H17565   4.908   7.877   9.617  0.0505 -1.2410  2.8722
  871MOL0     H17566   4.913   7.909   9.785  0.0638 -2.0656 -0.3751
  871MOL0     H17567   4.784   8.424   8.910 -0.3664 -0.0315  1.1351
  871MOL0     H17568   4.670   8.309   8.705  1.5524 -1.7224 -0.2307
  871MOL0     H17569   4.667   7.790   8.456 -0.8729  0.5871  0.1743
  871MOL0     H17570   4.579   7.731   8.245  2.1123  1.5794 -0.4251
  871MOL0     H17571   4.731   7.023   8.568 -1.5744  0.7124 -0.2356
  871MOL0     H17572   4.784   7.236   8.663  0.7288  1.2946  0.2394
  871MOL0     H17573   5.041   7.534   8.733 -3.8093 -1.4005 -2.2170
  871MOL0     H17574   5.087   7.729   8.869  4.4539  2.9363 -0.4317
  871MOL0     H17575   5.082   8.150   8.680  1.7120  4.1201  1.7327
  871MOL0     H17576   4.936   8.119   8.763  0.6539  0.5959 -2.4669
  871MOL0     H17577   5.069   8.134   8.985 -2.6051  1.4752 -0.5506
  871MOL0     H17578   5.055   8.276   8.894 -3.6003 -1.8250  0.8855
  871MOL0     H17579   5.276   8.291   8.820 -0.4831 -1.2159 -0.3575
  871MOL0     H17580   5.320   8.120   8.871 -2.1924 -1.4085 -1.4504
  871MOL0     H17581   5.301   8.148   9.080  0.9683 -1.0457 -1.0368
  871MOL0     H17582   5.221   8.302   9.072  3.6388  0.2927  4.0396
  871MOL0     H17583   5.642   8.391   9.078  2.1805 -3.4949  3.8441
  871MOL0     H17584   4.964   7.985   8.554  0.5877  0.1725 -0.6101
  871MOL0     H17585   4.928   7.804   8.407  1.6168  4.0249 -0.6946
  872MOL0     O17586   8.387   1.083   4.200  0.3470 -0.5664 -0.0636
  872MOL0     C17587   8.489   1.027   4.155 -0.4552  0.2841 -0.0957
  872MOL0     O17588   8.543   1.062   4.042  0.3185 -0.0517  0.4257
  872MOL0     C17589   8.495   1.166   3.964  0.6144  1.2307  0.2181
  872MOL0     C17590   8.388   1.119   3.885  0.0315 -0.9669  0.0202
  872MOL0     C17591   8.319   1.201   3.804 -0.3047  0.3286 -0.1676
  872MOL0     C17592   8.329   1.341   3.827  0.2630 -0.1670  0.0527
  872MOL0     O17593   8.235   1.426   3.787  0.2467 -0.2083  0.7351
  872MOL0     C17594   8.225   1.417   3.643  0.8008 -0.3051 -0.3300
  872MOL0     C17595   8.169   1.550   3.585 -0.0912 -0.8201  0.6334
  872MOL0     C17596   8.245   1.677   3.618  0.4233  0.4877 -0.6113
  872MOL0     C17597   8.228   1.790   3.507 -0.1736 -1.0578  0.4038
  872MOL0     C17598   8.240   1.945   3.539 -0.0505 -0.2844  0.6612
  872MOL0     C17599   8.359   1.998   3.467 -0.9460  0.6010 -0.4467
  872MOL0     C17600   8.399   2.139   3.516  0.8671 -0.5714  0.9231
  872MOL0     C17601   8.330   2.239   3.420  0.6461 -0.5498  0.5340
  872MOL0     N17602   8.405   2.267   3.298 -0.1785  0.0253  0.0475
  872MOL0     C17603   8.384   2.385   3.239 -0.4608  0.2985 -1.0478
  872MOL0     C17604   8.451   2.363   3.125 -0.4143  0.5584  0.0297
  872MOL0     C17605   8.440   2.455   3.003  0.5486  0.7919  0.4883
  872MOL0     C17606   8.570   2.553   2.992 -0.3382  0.0004  0.4333
  872MOL0     C17607   8.567   2.651   2.873  0.3873  0.2657  0.8653
  872MOL0     C17608   8.527   2.581   2.741 -0.4537  0.6742 -0.1552
  872MOL0     O17609   8.514   2.675   2.629 -0.0869 -0.0743 -0.2147
  872MOL0     C17610   8.413   2.663   2.543 -0.1088  0.0312  0.8196
  872MOL0     C17611   8.385   2.778   2.461  0.4842  0.4061 -0.8481
  872MOL0     C17612   8.280   2.779   2.372  0.2356 -0.6735  0.5834
  872MOL0     C17613   8.258   2.922   2.300 -1.3486  0.5759  0.6903
  872MOL0     C17614   8.205   2.661   2.339  0.1473  0.3571  1.0308
  872MOL0     C17615   8.109   2.639   2.226 -0.4181  0.1290  0.0100
  872MOL0     O17616   8.020   2.535   2.233  0.1351 -0.2401  0.0175
  872MOL0     C17617   7.932   2.503   2.130 -0.5022 -0.0640  0.8682
  872MOL0     C17618   7.929   2.362   2.082  0.4260  0.5040  0.6330
  872MOL0     C17619   7.854   2.321   1.969 -0.7042 -0.6333  0.1844
  872MOL0     C17620   7.782   2.418   1.899 -0.4685  0.5642 -0.3503
  872MOL0     O17621   7.711   2.375   1.794 -0.1898  0.2923 -1.0866
  872MOL0     C17622   7.662   2.473   1.702 -0.1220 -0.2904 -0.2034
  872MOL0     C17623   7.653   2.399   1.566  0.0947  0.2605  0.9627
  872MOL0     C17624   7.575   2.262   1.555 -0.5490  0.2412  0.1031
  872MOL0     C17625   7.634   2.151   1.465 -0.3498  0.2995 -0.6165
  872MOL0     C17626   7.748   2.073   1.546 -0.3915 -0.3024 -0.3941
  872MOL0     C17627   7.801   1.960   1.465 -0.2061  0.0620  0.4467
  872MOL0     C17628   7.707   1.845   1.464 -0.6024  1.2228  0.1082
  872MOL0     C17629   7.633   1.818   1.333  0.1618  0.4945 -0.7289
  872MOL0    Cl17630   7.731   1.719   1.217  0.2630  0.1028  0.1478
  872MOL0     C17631   7.771   2.545   1.954  0.3183  0.6306  0.3196
  872MOL0     C17632   7.846   2.592   2.069  0.1023 -0.2347  0.0140
  872MOL0     O17633   8.106   2.720   2.137  0.1396 -0.7104  0.4268
  872MOL0     C17634   8.228   2.549   2.427  0.9166  0.1982 -0.3792
  872MOL0     C17635   8.336   2.549   2.510  0.4193  0.1547 -0.4172
  872MOL0     N17636   8.497   2.227   3.106  0.5661 -0.0038 -0.8744
  872MOL0     N17637   8.476   2.180   3.219 -0.0588  0.4997  0.0491
  872MOL0     C17638   8.421   1.387   3.923  0.9523  0.3493  0.4521
  872MOL0     C17639   8.509   1.301   3.981 -1.2479 -0.5456 -0.6595
  872MOL0     C17640   8.537   0.912   4.235  0.2001  0.7437  0.2013
  872MOL0     C17641   8.672   0.893   4.261  0.3313  0.5561 -0.4198
  872MOL0     C17642   8.726   0.788   4.340  0.4326 -0.8221  0.5777
  872MOL0     C17643   8.634   0.702   4.397 -1.3371  0.5122  0.7271
  872MOL0     O17644   8.657   0.610   4.500 -0.9898  0.3744  0.0906
  872MOL0     C17645   8.795   0.567   4.542  0.3596  0.1584  0.1887
  872MOL0     C17646   8.783   0.488   4.675  0.3942 -0.3281  0.1355
  872MOL0     C17647   8.718   0.351   4.655 -0.2242 -0.2443 -0.6712
  872MOL0     C17648   8.570   0.359   4.640 -0.0045 -0.8526 -0.1703
  872MOL0     C17649   8.492   0.237   4.691 -0.6829  1.0161 -0.0285
  872MOL0     C17650   8.442   0.136   4.732  0.2483  1.0295  0.6973
  872MOL0     C17651   8.495   0.718   4.375 -0.0157 -0.5957  0.5925
  872MOL0     C17652   8.447   0.818   4.291 -0.8953 -0.4459  0.7985
  872MOL0     H17653   8.388   1.010   3.880  1.3578 -1.0249  0.9427
  872MOL0     H17654   8.254   1.161   3.727  1.9202 -0.8311 -1.5322
  872MOL0     H17655   8.324   1.393   3.604  0.5798 -3.6028  0.8122
  872MOL0     H17656   8.158   1.344   3.597  1.1323  0.4299 -2.0565
  872MOL0     H17657   8.172   1.562   3.476  0.2353 -1.7618  0.5286
  872MOL0     H17658   8.062   1.564   3.598 -0.6156 -2.3600 -1.4115
  872MOL0     H17659   8.198   1.709   3.711 -2.5556 -2.5863 -0.8752
  872MOL0     H17660   8.352   1.660   3.634  0.4312 -1.6004 -2.4931
  872MOL0     H17661   8.285   1.778   3.415 -0.5768  2.1204 -0.3565
  872MOL0     H17662   8.127   1.772   3.469  0.5370  1.5090 -3.1708
  872MOL0     H17663   8.153   1.999   3.500  0.4647 -0.6974 -1.1632
  872MOL0     H17664   8.257   1.961   3.645  0.5100 -3.5540  1.1738
  872MOL0     H17665   8.435   1.923   3.487 -1.7322 -0.5339 -1.5130
  872MOL0     H17666   8.352   1.987   3.358  1.4242  0.1917 -0.6009
  872MOL0     H17667   8.386   2.151   3.624  0.4589  0.5473  0.7602
  872MOL0     H17668   8.504   2.159   3.494  0.7284 -1.4748 -0.7035
  872MOL0     H17669   8.303   2.336   3.463 -0.5920 -0.8268  0.4343
  872MOL0     H17670   8.238   2.183   3.399 -1.7164  2.8873  0.9029
  872MOL0     H17671   8.324   2.472   3.265 -0.9081  0.1961 -1.7199
  872MOL0     H17672   8.448   2.385   2.918  4.3077 -0.1078  1.3801
  872MOL0     H17673   8.343   2.505   2.996 -0.8745 -1.9464 -1.7049
  872MOL0     H17674   8.660   2.492   2.977  0.5187  1.4059 -0.4099
  872MOL0     H17675   8.588   2.605   3.087 -1.2908 -1.0317  1.1994
  872MOL0     H17676   8.669   2.691   2.866  1.7906 -3.1298 -0.5068
  872MOL0     H17677   8.503   2.734   2.904 -1.0527 -0.0001 -1.1645
  872MOL0     H17678   8.438   2.524   2.768  0.2024  0.5366  1.8707
  872MOL0     H17679   8.604   2.515   2.700  0.0378  2.2436 -1.8844
  872MOL0     H17680   8.442   2.870   2.471  1.9374 -0.4320 -1.0358
  872MOL0     H17681   8.335   2.998   2.319 -0.5435  0.0495 -0.3681
  872MOL0     H17682   8.254   2.911   2.191 -2.4615  2.7544  0.4417
  872MOL0     H17683   8.169   2.965   2.345 -0.9576 -0.2637  2.3468
  872MOL0     H17684   8.010   2.297   2.110  0.6229  0.4009 -0.1468
  872MOL0     H17685   7.854   2.219   1.934 -2.1813 -0.8936  0.8373
  872MOL0     H17686   7.557   2.498   1.718 -0.1945 -0.7175  0.0240
  872MOL0     H17687   7.722   2.564   1.691 -1.6890  0.7467 -0.4519
  872MOL0     H17688   7.607   2.459   1.487  3.4762  1.0369 -0.5873
  872MOL0     H17689   7.756   2.394   1.531  0.4000  0.2979  1.8241
  872MOL0     H17690   7.472   2.283   1.526  0.4934  1.6435 -3.0572
  872MOL0     H17691   7.573   2.221   1.656 -0.9068 -1.0910 -0.4225
  872MOL0     H17692   7.556   2.083   1.429  0.1822  0.0869 -1.3925
  872MOL0     H17693   7.675   2.202   1.377  1.5466  1.4250  0.8657
  872MOL0     H17694   7.709   2.043   1.644 -0.1469  3.3475  0.9814
  872MOL0     H17695   7.833   2.135   1.576  0.5029 -2.6599  2.3201
  872MOL0     H17696   7.822   1.986   1.361 -0.0451 -0.9230  0.2223
  872MOL0     H17697   7.890   1.930   1.522 -0.8801 -0.0963  1.4456
  872MOL0     H17698   7.630   1.854   1.541  0.5696 -1.8245  1.7882
  872MOL0     H17699   7.754   1.749   1.487 -0.9982  1.9046  4.7851
  872MOL0     H17700   7.622   1.918   1.291  0.7102 -0.3595 -3.0688
  872MOL0     H17701   7.533   1.775   1.347  0.9825 -0.4479  3.5343
  872MOL0     H17702   7.708   2.615   1.899  2.1224  0.2585 -2.4146
  872MOL0     H17703   7.838   2.693   2.107  2.1629 -0.3325  0.8308
  872MOL0     H17704   8.196   2.446   2.414 -2.1513  1.2195 -2.0968
  872MOL0     H17705   8.357   2.454   2.557  0.3323  1.6093  2.8070
  872MOL0     H17706   8.416   1.492   3.949  0.6413  0.4611 -0.0432
  872MOL0     H17707   8.573   1.329   4.065 -1.9261  3.5248 -1.3010
  872MOL0     H17708   8.736   0.972   4.222 -0.6258  1.4981 -0.1402
  872MOL0     H17709   8.833   0.770   4.344  0.7764 -0.1650 -2.6092
  872MOL0     H17710   8.838   0.509   4.460 -0.8008  0.2608 -0.5281
  872MOL0     H17711   8.864   0.648   4.565 -1.3427  1.2924  1.5847
  872MOL0     H17712   8.732   0.553   4.748  2.1121 -0.3314  1.4003
  872MOL0     H17713   8.880   0.467   4.721 -0.3583  2.1268  3.2446
  872MOL0     H17714   8.735   0.292   4.746 -1.5728 -0.7790 -0.7440
  872MOL0     H17715   8.763   0.302   4.568  0.8303  0.1981 -0.3910
  872MOL0     H17716   8.545   0.377   4.535  1.5573 -0.6903 -0.5289
  872MOL0     H17717   8.527   0.440   4.700 -1.0432 -1.9358  0.6149
  872MOL0     H17718   8.414   0.048   4.785  8.8147 -2.6490  0.7722
  872MOL0     H17719   8.433   0.647   4.430  0.7908 -1.2125  0.7151
  872MOL0     H17720   8.343   0.841   4.275 -0.5190 -0.7049 -2.9023
  873MOL0     O17721   0.427   8.393   8.665 -0.4053 -0.4017 -0.8173
  873MOL0     C17722   0.364   8.314   8.741  0.2437 -0.2481  0.1906
  873MOL0     O17723   0.263   8.227   8.699  0.2914 -0.5652  0.2034
  873MOL0     C17724   0.229   8.224   8.562  0.0020  0.3849  0.3574
  873MOL0     C17725   0.213   8.102   8.496  0.6341  0.3501  0.1722
  873MOL0     C17726   0.156   8.107   8.369  0.1069 -0.0557  0.6649
  873MOL0     C17727   0.105   8.222   8.305  0.1180  0.0233  0.1818
  873MOL0     O17728   0.048   8.206   8.181 -0.2795 -0.5124  0.3466
  873MOL0     C17729  -0.092   8.183   8.172  0.5900 -0.3121  0.2434
  873MOL0     C17730  -0.113   8.165   8.019 -0.3249  0.2648  0.1816
  873MOL0     C17731  -0.232   8.071   8.009 -0.0560 -0.4328 -0.2701
  873MOL0     C17732  -0.277   8.073   7.865 -0.1073  0.5130 -0.1719
  873MOL0     C17733  -0.316   7.933   7.819  0.7731 -0.3900  0.9552
  873MOL0     C17734  -0.406   7.942   7.690  0.2373 -0.6699  0.6719
  873MOL0     C17735  -0.471   7.816   7.652 -0.9868  0.7585 -0.0447
  873MOL0     C17736  -0.586   7.781   7.744  0.0992  0.5598 -0.4048
  873MOL0     N17737  -0.638   7.650   7.716 -0.0008  0.2070  0.4910
  873MOL0     C17738  -0.642   7.542   7.801 -0.5979  1.1167  0.1147
  873MOL0     C17739  -0.655   7.433   7.716 -0.0631  0.6356  0.4244
  873MOL0     C17740  -0.659   7.288   7.751 -0.7864 -0.0599 -0.3975
  873MOL0     C17741  -0.792   7.228   7.796 -0.5074  0.1746  0.0230
  873MOL0     C17742  -0.762   7.080   7.846  0.8043 -0.4880 -0.7721
  873MOL0     C17743  -0.884   7.017   7.923  0.4375 -0.5296 -0.6631
  873MOL0     O17744  -0.967   6.970   7.821  0.0683 -0.2278  0.4720
  873MOL0     C17745  -1.093   6.916   7.860  1.1724  1.1161  1.1386
  873MOL0     C17746  -1.173   6.947   7.971 -0.4334  1.2568 -1.0866
  873MOL0     C17747  -1.301   6.898   8.001  0.2404  0.5255  0.1021
  873MOL0     C17748  -1.371   6.954   8.125  0.5504 -1.7172  0.6499
  873MOL0     C17749  -1.357   6.806   7.910  0.2431 -0.2629 -0.7146
  873MOL0     C17750  -1.486   6.747   7.930  0.0007 -1.5898  1.0224
  873MOL0     O17751  -1.542   6.697   7.816 -0.1613  0.2803 -1.2272
  873MOL0     C17752  -1.673   6.652   7.800  0.7248 -0.8017 -0.0305
  873MOL0     C17753  -1.729   6.666   7.672  0.9715 -0.1065 -0.0306
  873MOL0     C17754  -1.850   6.601   7.634 -0.5017 -0.1841  0.0767
  873MOL0     C17755  -1.924   6.540   7.732  1.3762 -0.3105 -0.4397
  873MOL0     O17756  -2.050   6.479   7.718 -0.0719  0.5859 -0.1516
  873MOL0     C17757  -2.088   6.415   7.590 -0.1279  0.0362  0.4989
  873MOL0     C17758  -2.218   6.346   7.591  0.3010  0.1877  1.3698
  873MOL0     C17759  -2.276   6.339   7.450  0.8967  0.2480 -0.6991
  873MOL0     C17760  -2.414   6.276   7.459  0.6183  0.1328  0.4930
  873MOL0     C17761  -2.490   6.271   7.337  0.7450  1.4380  0.7677
  873MOL0     C17762  -2.612   6.180   7.354 -0.8855  0.4735 -0.0642
  873MOL0     C17763  -2.698   6.204   7.219 -0.2857 -0.4238 -1.2097
  873MOL0     C17764  -2.807   6.097   7.204 -0.3958  0.1944 -0.5124
  873MOL0    Cl17765  -2.911   6.132   7.067  0.2002 -0.2324 -0.0282
  873MOL0     C17766  -1.879   6.542   7.865  0.3342 -0.5780  0.4167
  873MOL0     C17767  -1.756   6.599   7.897  0.6389  0.0136  0.4405
  873MOL0     O17768  -1.525   6.733   8.045 -0.9713  0.4026 -0.2021
  873MOL0     C17769  -1.283   6.768   7.801  0.2150  0.4285  0.8276
  873MOL0     C17770  -1.161   6.823   7.776 -0.4216 -1.4551  0.3634
  873MOL0     N17771  -0.670   7.475   7.588 -0.3556  0.6458 -0.1517
  873MOL0     N17772  -0.670   7.602   7.589  0.3692 -0.2114 -0.2667
  873MOL0     C17773   0.125   8.347   8.366 -0.3102  0.4634  0.8190
  873MOL0     C17774   0.191   8.345   8.486 -0.2165 -0.0918 -0.6328
  873MOL0     C17775   0.409   8.307   8.888  0.5288 -1.0471  1.2005
  873MOL0     C17776   0.353   8.206   8.965  0.2913 -0.7551 -0.0865
  873MOL0     C17777   0.404   8.196   9.099  0.7112 -0.3299  0.2216
  873MOL0     C17778   0.510   8.277   9.149  0.7490 -0.6559  0.3532
  873MOL0     O17779   0.551   8.264   9.283  0.1786 -0.0993 -0.3252
  873MOL0     C17780   0.657   8.344   9.332 -0.2914  0.2634  0.1300
  873MOL0     C17781   0.663   8.309   9.479 -0.2455 -0.3770  0.6544
  873MOL0     C17782   0.715   8.425   9.565  1.0316  0.2864 -0.1012
  873MOL0     C17783   0.698   8.396   9.714 -0.4413 -0.5993 -0.6190
  873MOL0     C17784   0.786   8.486   9.799 -0.4012  0.1140  0.8173
  873MOL0     C17785   0.869   8.560   9.861 -0.7852 -0.1443 -0.5208
  873MOL0     C17786   0.560   8.374   9.066  1.2455 -1.0096 -0.4465
  873MOL0     C17787   0.510   8.391   8.932 -0.4498  0.9417  0.3869
  873MOL0     H17788   0.242   8.006   8.537  2.1579 -0.9386 -3.5438
  873MOL0     H17789   0.142   8.024   8.302 -0.9330  1.7852 -1.5406
  873MOL0     H17790  -0.119   8.098   8.235 -0.8254 -0.8564 -1.0486
  873MOL0     H17791  -0.154   8.268   8.202 -0.0605 -0.5838 -0.3007
  873MOL0     H17792  -0.134   8.258   7.966  1.4828  0.4699 -0.2335
  873MOL0     H17793  -0.035   8.109   7.968 -0.5629  0.8116 -0.8076
  873MOL0     H17794  -0.199   7.970   8.036  0.9348 -1.0324 -3.2355
  873MOL0     H17795  -0.304   8.104   8.083  1.1225 -0.7151  1.0578
  873MOL0     H17796  -0.372   8.128   7.863 -1.6058 -1.9105  0.0282
  873MOL0     H17797  -0.203   8.116   7.797 -0.3067 -1.4142 -1.7125
  873MOL0     H17798  -0.227   7.876   7.793 -1.1813 -2.1277 -2.7614
  873MOL0     H17799  -0.370   7.879   7.898  0.4562 -2.6909 -0.7045
  873MOL0     H17800  -0.485   8.018   7.701  2.6467  2.6810 -2.6396
  873MOL0     H17801  -0.336   7.983   7.617  1.9288  0.5675  2.8431
  873MOL0     H17802  -0.511   7.832   7.552 -0.2944  0.8979 -0.3074
  873MOL0     H17803  -0.393   7.741   7.664 -0.1276  1.1953 -2.4508
  873MOL0     H17804  -0.668   7.852   7.755 -0.3466 -0.2513  2.2659
  873MOL0     H17805  -0.552   7.765   7.847 -1.4295 -2.5490 -0.2971
  873MOL0     H17806  -0.640   7.535   7.910  0.0248 -0.0930  0.0460
  873MOL0     H17807  -0.626   7.227   7.666 -3.5575 -2.3317 -0.0139
  873MOL0     H17808  -0.596   7.280   7.840 -0.8596 -1.1856 -0.4334
  873MOL0     H17809  -0.850   7.226   7.703  1.5324  0.5188 -1.3337
  873MOL0     H17810  -0.835   7.282   7.881 -0.3767 -0.5034  0.5264
  873MOL0     H17811  -0.680   7.084   7.918  5.3265 -2.3817 -5.2137
  873MOL0     H17812  -0.749   7.008   7.764 -0.1343 -0.2236 -1.1673
  873MOL0     H17813  -0.948   7.087   7.977 -1.3135 -2.2491 -0.4126
  873MOL0     H17814  -0.842   6.937   7.985 -1.1026 -3.2571 -2.9081
  873MOL0     H17815  -1.142   7.031   8.032 -4.1708  1.2185  1.1926
  873MOL0     H17816  -1.393   6.876   8.199 -0.1226 -2.5503 -0.4047
  873MOL0     H17817  -1.328   7.047   8.163 -1.6047 -0.5566  0.4186
  873MOL0     H17818  -1.470   6.988   8.092  0.6420 -1.9817  0.0946
  873MOL0     H17819  -1.676   6.730   7.603  0.4058  0.3277 -0.0637
  873MOL0     H17820  -1.888   6.603   7.533  2.3419  0.4840 -1.0624
  873MOL0     H17821  -2.093   6.498   7.519 -0.8343  0.3034  0.8452
  873MOL0     H17822  -2.009   6.351   7.550  0.2458  0.4042  0.6465
  873MOL0     H17823  -2.210   6.243   7.625  2.2486 -0.6172 -1.2425
  873MOL0     H17824  -2.287   6.398   7.659  0.0502  0.5533  0.8385
  873MOL0     H17825  -2.223   6.267   7.388 -1.1432 -0.7454 -1.3912
  873MOL0     H17826  -2.281   6.440   7.408 -0.9970  0.4710 -0.0356
  873MOL0     H17827  -2.415   6.177   7.506  1.7539 -0.0354  0.1983
  873MOL0     H17828  -2.478   6.334   7.525 -0.5792 -0.8892  0.2708
  873MOL0     H17829  -2.425   6.236   7.256 -2.8144 -2.2538 -0.8605
  873MOL0     H17830  -2.523   6.369   7.301 -0.1908 -0.1862 -3.4094
  873MOL0     H17831  -2.583   6.076   7.374  1.2986  0.6632 -1.8709
  873MOL0     H17832  -2.672   6.212   7.440  1.9142  0.0427  2.1854
  873MOL0     H17833  -2.631   6.197   7.133  0.5252 -2.4278 -0.4750
  873MOL0     H17834  -2.740   6.304   7.224  0.8238  0.0058  0.2749
  873MOL0     H17835  -2.862   6.093   7.299 -3.5412  1.8244 -2.1161
  873MOL0     H17836  -2.761   5.999   7.188 -2.1328 -1.6983  4.3083
  873MOL0     H17837  -1.930   6.494   7.948 -1.0664  1.5064  0.8319
  873MOL0     H17838  -1.719   6.590   7.999  4.0812 -4.7523 -0.8835
  873MOL0     H17839  -1.317   6.687   7.738  1.8279  0.5033 -0.1863
  873MOL0     H17840  -1.107   6.806   7.684  1.9417  0.2270  1.3502
  873MOL0     H17841   0.109   8.441   8.315  1.6194  1.1198  1.3271
  873MOL0     H17842   0.215   8.438   8.536  3.4048 -0.6926 -0.9634
  873MOL0     H17843   0.282   8.136   8.921  0.7039 -0.0633 -1.9197
  873MOL0     H17844   0.371   8.106   9.150  2.3370 -0.3238  1.3599
  873MOL0     H17845   0.753   8.327   9.283  0.0338  2.9557 -0.3220
  873MOL0     H17846   0.640   8.452   9.325  1.4179  0.5489  0.0748
  873MOL0     H17847   0.741   8.233   9.488  0.7357 -0.5335 -5.2862
  873MOL0     H17848   0.568   8.265   9.509 -0.8000 -1.6358 -2.5131
  873MOL0     H17849   0.661   8.520   9.554  0.2509 -0.1259  0.0450
  873MOL0     H17850   0.822   8.436   9.545  1.0765  2.5847  1.0964
  873MOL0     H17851   0.722   8.290   9.724 -1.8985 -1.0098 -1.2892
  873MOL0     H17852   0.596   8.412   9.750  1.3358  1.9554  4.1448
  873MOL0     H17853   0.940   8.623   9.910 -0.3686 -1.2238  0.3026
  873MOL0     H17854   0.629   8.446   9.110  2.3735 -2.4033  0.1744
  873MOL0     H17855   0.567   8.464   8.875 -1.3471  0.4470 -1.1846
  874MOL0     O17856   8.984   0.255   0.712  0.0449 -0.6653  1.2244
  874MOL0     C17857   9.089   0.193   0.710  0.1143  0.3202 -0.1291
  874MOL0     O17858   9.099   0.053   0.722 -0.3283 -1.0334 -0.1862
  874MOL0     C17859   8.982  -0.024   0.734  0.4739  0.6303  0.0427
  874MOL0     C17860   8.875   0.005   0.657 -0.0945 -0.2683  0.3057
  874MOL0     C17861   8.761  -0.068   0.663 -0.0413 -0.1746 -0.2731
  874MOL0     C17862   8.741  -0.175   0.746 -0.4282 -0.2642 -0.5967
  874MOL0     O17863   8.613  -0.234   0.744  0.0818 -0.0592  0.3925
  874MOL0     C17864   8.612  -0.366   0.799 -1.0996 -0.4590 -0.0375
  874MOL0     C17865   8.475  -0.434   0.766  0.3828 -0.5786 -0.3610
  874MOL0     C17866   8.421  -0.517   0.885 -0.1664 -0.8485 -0.1862
  874MOL0     C17867   8.279  -0.560   0.863  0.1097  0.5295 -0.0397
  874MOL0     C17868   8.202  -0.625   0.988 -0.5081 -0.6108  0.4091
  874MOL0     C17869   8.049  -0.648   0.963 -0.3699  0.3586  0.1416
  874MOL0     C17870   8.001  -0.755   1.067 -0.6773 -0.4938 -0.2813
  874MOL0     C17871   7.848  -0.789   1.066  0.0485 -0.0427 -0.4734
  874MOL0     N17872   7.803  -0.834   1.199 -0.2098 -0.3606  0.5115
  874MOL0     C17873   7.681  -0.881   1.236  0.1508  0.9279 -0.7134
  874MOL0     C17874   7.698  -0.914   1.368  0.4316 -0.2096  0.1283
  874MOL0     C17875   7.599  -0.983   1.449 -0.4642 -0.5568 -0.9366
  874MOL0     C17876   7.516  -0.879   1.543  0.2926  0.9916 -0.4368
  874MOL0     C17877   7.417  -0.959   1.631 -0.1607 -0.2293 -0.1219
  874MOL0     C17878   7.476  -1.023   1.765  0.3319  0.2427  0.4752
  874MOL0     O17879   7.510  -0.914   1.855 -0.8187  0.3045 -0.9037
  874MOL0     C17880   7.635  -0.890   1.904  0.3315 -1.1156  0.1782
  874MOL0     C17881   7.742  -0.983   1.873 -0.1319  0.7151  0.5490
  874MOL0     C17882   7.869  -0.947   1.885 -0.3887 -1.2642  1.0957
  874MOL0     C17883   7.978  -1.046   1.842 -1.2760 -0.0182 -0.4549
  874MOL0     C17884   7.903  -0.814   1.937 -0.5603 -0.3576 -0.3407
  874MOL0     C17885   8.043  -0.764   1.965  0.6874  0.0642  0.8069
  874MOL0     O17886   8.048  -0.639   2.012 -0.5202 -0.3893  0.3058
  874MOL0     C17887   8.166  -0.569   2.044 -0.1206  0.2230 -1.3326
  874MOL0     C17888   8.150  -0.457   2.121  0.0187 -1.0115  0.2433
  874MOL0     C17889   8.263  -0.383   2.157 -0.7903  0.1659  0.9614
  874MOL0     C17890   8.391  -0.399   2.107  1.2787 -0.7550 -0.0772
  874MOL0     O17891   8.487  -0.312   2.138 -1.0996 -0.3986  0.2792
  874MOL0     C17892   8.623  -0.383   2.128  0.5062  0.0557 -0.1604
  874MOL0     C17893   8.726  -0.285   2.186 -0.2650 -0.3962 -0.0292
  874MOL0     C17894   8.865  -0.340   2.194  0.7495  0.7700 -0.0168
  874MOL0     C17895   8.962  -0.228   2.169 -0.8300  0.2450  0.0551
  874MOL0     C17896   9.006  -0.151   2.299  0.0761 -1.2689 -0.2483
  874MOL0     C17897   8.899  -0.068   2.367  0.8443  0.5227 -0.3748
  874MOL0     C17898   8.968   0.035   2.450  1.1881  0.6151 -0.1385
  874MOL0     C17899   8.879   0.118   2.548  0.1688 -0.7083 -0.7127
  874MOL0    Cl17900   8.746   0.223   2.478 -0.0133  0.2078 -0.3009
  874MOL0     C17901   8.401  -0.517   2.021 -0.8913  0.3629 -0.1165
  874MOL0     C17902   8.296  -0.604   1.995  0.5127  0.6890 -0.1225
  874MOL0     O17903   8.138  -0.840   1.934  0.2610  0.0296  1.1075
  874MOL0     C17904   7.794  -0.729   1.973 -0.6092  0.9482  0.1033
  874MOL0     C17905   7.659  -0.768   1.961  0.6761  0.0448 -0.2108
  874MOL0     N17906   7.831  -0.880   1.405  0.3596 -0.2675 -0.7127
  874MOL0     N17907   7.883  -0.831   1.303  0.0975  0.2518 -0.3290
  874MOL0     C17908   8.847  -0.198   0.832 -0.5720 -0.2569  0.8274
  874MOL0     C17909   8.971  -0.128   0.819  0.6815  0.9220 -0.3586
  874MOL0     C17910   9.212   0.278   0.708 -0.4085 -0.9589  0.3005
  874MOL0     C17911   9.344   0.224   0.736  0.1102  0.0818  0.2025
  874MOL0     C17912   9.464   0.293   0.702  0.0429 -0.1067 -0.2278
  874MOL0     C17913   9.459   0.421   0.645  0.2350  0.5246 -0.1367
  874MOL0     O17914   9.565   0.501   0.607  0.4898  0.3728 -1.0615
  874MOL0     C17915   9.684   0.429   0.571 -0.1089 -0.1865  0.2957
  874MOL0     C17916   9.671   0.369   0.431  0.6788  0.0926 -0.3460
  874MOL0     C17917   9.801   0.316   0.365  0.1636 -0.1931 -0.2013
  874MOL0     C17918   9.785   0.344   0.207 -0.2448 -0.5756  0.7107
  874MOL0     C17919   9.896   0.277   0.139 -0.2025 -0.3820  0.1447
  874MOL0     C17920   9.992   0.218   0.088 -0.2642 -0.0864  0.0922
  874MOL0     C17921   9.338   0.478   0.633  0.5195 -0.2420  0.1477
  874MOL0     C17922   9.215   0.416   0.665 -0.5827 -0.3603 -0.3011
  874MOL0     H17923   8.862   0.093   0.594 -1.4473  1.4273  2.8104
  874MOL0     H17924   8.676  -0.027   0.609  1.3343 -0.6558 -2.9762
  874MOL0     H17925   8.697  -0.421   0.758 -1.1820 -0.3731 -0.3257
  874MOL0     H17926   8.635  -0.357   0.906  3.5142 -1.9038 -0.7156
  874MOL0     H17927   8.393  -0.363   0.761 -1.8209 -2.1199  5.5532
  874MOL0     H17928   8.487  -0.494   0.675 -0.7438 -1.3005 -0.0516
  874MOL0     H17929   8.483  -0.605   0.899  1.2415  0.1896  0.3217
  874MOL0     H17930   8.429  -0.454   0.974 -1.5293  1.0057 -1.2955
  874MOL0     H17931   8.223  -0.477   0.818 -3.2970 -2.4536 -1.7830
  874MOL0     H17932   8.291  -0.641   0.790  2.2717 -1.8733  2.7476
  874MOL0     H17933   8.261  -0.713   1.014  2.9590  1.4873  0.2760
  874MOL0     H17934   8.208  -0.554   1.071 -1.7280  0.2851 -0.2437
  874MOL0     H17935   7.998  -0.552   0.977 -0.2349  0.4029  0.3355
  874MOL0     H17936   8.022  -0.676   0.861 -1.6723 -0.0236  0.5659
  874MOL0     H17937   8.061  -0.847   1.062  1.2660  0.1819  4.8182
  874MOL0     H17938   8.017  -0.701   1.161 -1.7049  2.8674 -1.8617
  874MOL0     H17939   7.840  -0.864   0.988 -1.0087 -0.2639 -0.1711
  874MOL0     H17940   7.798  -0.698   1.031  0.8558  0.0386 -1.4787
  874MOL0     H17941   7.600  -0.906   1.168 -1.8708  1.1517  1.4596
  874MOL0     H17942   7.532  -1.039   1.383  0.1656 -3.9898  1.1424
  874MOL0     H17943   7.642  -1.053   1.520 -2.1623  1.4279  2.2855
  874MOL0     H17944   7.469  -0.800   1.484  2.4315  1.7482 -1.2139
  874MOL0     H17945   7.585  -0.829   1.611 -2.4870  2.0090  1.8390
  874MOL0     H17946   7.373  -1.037   1.568  0.1980 -0.0333 -0.6159
  874MOL0     H17947   7.337  -0.892   1.663  1.7662  2.5415 -0.7935
  874MOL0     H17948   7.556  -1.096   1.753  0.2009  0.1106  0.3938
  874MOL0     H17949   7.397  -1.092   1.799  0.7110 -0.6949 -0.4843
  874MOL0     H17950   7.726  -1.086   1.842 -3.5419  0.0529  3.7179
  874MOL0     H17951   7.933  -1.125   1.782 -5.1537  0.8660  0.9750
  874MOL0     H17952   8.052  -1.013   1.769  1.8257 -0.5510  2.1975
  874MOL0     H17953   8.013  -1.090   1.936  0.4388  2.2636  0.0543
  874MOL0     H17954   8.058  -0.426   2.168  1.4817  0.8907  1.9995
  874MOL0     H17955   8.242  -0.295   2.217 -2.6273  0.8712 -0.6057
  874MOL0     H17956   8.605  -0.473   2.188 -0.9346  1.9575  2.4547
  874MOL0     H17957   8.655  -0.411   2.027 -0.0433  0.2603 -0.3936
  874MOL0     H17958   8.728  -0.202   2.114  0.5478 -1.7132 -1.5857
  874MOL0     H17959   8.696  -0.229   2.275 -2.5828  2.8071 -2.5632
  874MOL0     H17960   8.859  -0.421   2.121 -2.1972 -1.2640  2.2232
  874MOL0     H17961   8.870  -0.384   2.294 -0.3190 -1.2911 -0.7916
  874MOL0     H17962   9.044  -0.272   2.112 -0.4563  0.2497  0.5905
  874MOL0     H17963   8.930  -0.154   2.095 -0.9423 -1.2631 -1.4709
  874MOL0     H17964   9.093  -0.088   2.278 -0.6005 -0.4997 -0.7913
  874MOL0     H17965   9.041  -0.221   2.377  1.7486  0.2907  0.4842
  874MOL0     H17966   8.830  -0.015   2.301  0.4682 -0.8860 -1.1693
  874MOL0     H17967   8.839  -0.134   2.431  1.6428  0.1227 -0.0213
  874MOL0     H17968   9.022   0.096   2.377  4.0301 -3.5520 -1.9386
  874MOL0     H17969   9.048  -0.014   2.507  0.1417 -1.4465 -0.3628
  874MOL0     H17970   8.937   0.194   2.601 -0.3862 -0.5171 -0.3635
  874MOL0     H17971   8.845   0.057   2.632  4.3642 -0.2202  1.6152
  874MOL0     H17972   8.491  -0.551   1.970 -0.5393 -0.4971  1.0572
  874MOL0     H17973   8.312  -0.694   1.937 -1.2754  0.4853 -0.3498
  874MOL0     H17974   7.821  -0.628   2.004 -0.1710  1.7550 -2.6919
  874MOL0     H17975   7.575  -0.700   1.966  1.6721  1.1937  2.2878
  874MOL0     H17976   8.840  -0.286   0.895 -1.6008 -0.7044  0.1132
  874MOL0     H17977   9.062  -0.149   0.875 -0.6425 -2.8290  0.6818
  874MOL0     H17978   9.357   0.131   0.790  0.5310 -0.0143 -0.0572
  874MOL0     H17979   9.557   0.237   0.709 -1.0110 -2.0441 -1.0256
  874MOL0     H17980   9.769   0.496   0.582 -1.8814  2.0605  1.0766
  874MOL0     H17981   9.704   0.355   0.649 -1.4301  0.7575  1.5779
  874MOL0     H17982   9.631   0.442   0.359  2.8482  0.5351 -1.1731
  874MOL0     H17983   9.601   0.285   0.436  0.1897  0.5513  0.7667
  874MOL0     H17984   9.815   0.207   0.373  3.9499  0.0891 -0.9436
  874MOL0     H17985   9.889   0.368   0.405 -0.7668  1.2156  0.0622
  874MOL0     H17986   9.783   0.452   0.188 -1.2393 -0.9853 -1.9663
  874MOL0     H17987   9.690   0.311   0.163  0.9316 -2.2736 -0.6781
  874MOL0     H17988  10.060   0.148   0.044  2.7917  1.6430  1.7126
  874MOL0     H17989   9.327   0.582   0.606  0.1763 -0.5772 -1.0361
  874MOL0     H17990   9.114   0.454   0.656 -1.3623 -1.6804  2.0186
  875MOL0     O17991   5.613   4.827   9.194  0.5654  0.5854 -0.7675
  875MOL0     C17992   5.585   4.944   9.190  0.3452  0.9492  0.2329
  875MOL0     O17993   5.472   5.006   9.244  0.3705  0.3757 -0.3031
  875MOL0     C17994   5.377   4.915   9.271  1.0689 -0.0501 -0.3793
  875MOL0     C17995   5.268   4.899   9.187 -0.1074  0.4924  0.2007
  875MOL0     C17996   5.151   4.830   9.238 -0.5379 -0.1129 -0.9107
  875MOL0     C17997   5.161   4.759   9.355 -0.2008 -0.2428 -0.5893
  875MOL0     O17998   5.048   4.689   9.395  0.6821 -0.5318  0.0200
  875MOL0     C17999   5.042   4.658   9.531 -0.1293  0.3926  0.2766
  875MOL0     C18000   4.902   4.630   9.584 -0.4166  0.3161  0.3272
  875MOL0     C18001   4.812   4.755   9.584 -0.5665 -1.0988 -0.3527
  875MOL0     C18002   4.664   4.734   9.630  0.4052  0.1508 -0.6514
  875MOL0     C18003   4.582   4.865   9.653  0.1006 -0.4476  1.1174
  875MOL0     C18004   4.535   4.948   9.530 -0.8065  0.8214  0.3069
  875MOL0     C18005   4.430   5.047   9.584 -0.6618 -0.3628  1.0747
  875MOL0     C18006   4.300   4.997   9.637 -0.9052  0.2893 -0.0446
  875MOL0     N18007   4.181   5.078   9.617 -0.0698  0.5350  0.9011
  875MOL0     C18008   4.189   5.213   9.619 -0.3335  0.8576  0.6329
  875MOL0     C18009   4.069   5.238   9.563  0.5266  0.7138  0.3179
  875MOL0     C18010   3.997   5.368   9.524  0.5654 -0.0469  0.1357
  875MOL0     C18011   4.055   5.421   9.392  0.3670 -0.1823  0.4060
  875MOL0     C18012   3.962   5.528   9.332 -0.3150  0.2088 -0.0575
  875MOL0     C18013   3.988   5.572   9.188  0.3955  0.4813  0.1016
  875MOL0     O18014   3.934   5.458   9.111 -0.9946  0.6525 -0.5798
  875MOL0     C18015   3.947   5.464   8.968 -0.1374 -0.4865  0.1824
  875MOL0     C18016   3.862   5.539   8.895  0.4380 -0.6720 -0.2034
  875MOL0     C18017   3.889   5.556   8.763  0.7013 -0.8560 -0.1925
  875MOL0     C18018   3.785   5.642   8.684 -0.3622 -0.5203  0.8485
  875MOL0     C18019   4.021   5.521   8.707 -0.1445 -0.1325  0.4827
  875MOL0     C18020   4.069   5.538   8.572  0.2279 -0.0190  0.7787
  875MOL0     O18021   4.180   5.452   8.539  0.5538 -0.5867  0.1142
  875MOL0     C18022   4.299   5.496   8.484 -0.8555 -0.9675 -1.1516
  875MOL0     C18023   4.335   5.628   8.470 -0.1251 -0.0577  0.2777
  875MOL0     C18024   4.457   5.669   8.417 -0.0734 -0.3302  0.4279
  875MOL0     C18025   4.555   5.567   8.388  0.3697 -0.5384  0.8118
  875MOL0     O18026   4.675   5.615   8.336  0.1748  0.4688 -0.3607
  875MOL0     C18027   4.761   5.528   8.255  0.4263  0.3901 -0.0967
  875MOL0     C18028   4.848   5.620   8.173 -0.3640  0.6646  0.3467
  875MOL0     C18029   4.967   5.548   8.103  0.0862 -0.0559 -0.4295
  875MOL0     C18030   5.057   5.617   8.015 -0.2719  0.9311 -0.0818
  875MOL0     C18031   5.189   5.536   7.974 -0.0973 -1.0286  1.0524
  875MOL0     C18032   5.154   5.423   7.875 -0.3055  0.0892  0.5085
  875MOL0     C18033   5.285   5.358   7.826  0.1579  0.7242 -0.7860
  875MOL0     C18034   5.268   5.233   7.733 -0.5629  0.9412 -0.9001
  875MOL0    Cl18035   5.419   5.142   7.711  0.3652  0.2169  0.1821
  875MOL0     C18036   4.514   5.431   8.382  0.1775  0.0621  0.1814
  875MOL0     C18037   4.391   5.396   8.432 -0.1478  0.2077 -0.0332
  875MOL0     O18038   4.030   5.634   8.514 -0.5478 -0.3609  0.3759
  875MOL0     C18039   4.108   5.442   8.793  0.2298  0.2001 -0.4412
  875MOL0     C18040   4.062   5.406   8.919 -0.0240  0.8161  0.2229
  875MOL0     N18041   3.998   5.120   9.532 -0.1119  0.9469  0.2219
  875MOL0     N18042   4.063   5.024   9.579 -0.1076 -0.0657  0.0867
  875MOL0     C18043   5.282   4.761   9.432 -0.8004 -0.6938 -0.6343
  875MOL0     C18044   5.386   4.840   9.391  0.4519  0.3264  0.4502
  875MOL0     C18045   5.671   5.024   9.097  0.0415  0.5725 -0.0801
  875MOL0     C18046   5.651   5.159   9.068 -0.2592  0.1831  0.3256
  875MOL0     C18047   5.747   5.223   8.981 -0.2462 -0.0849  0.8362
  875MOL0     C18048   5.857   5.157   8.920 -0.2409  0.0613 -0.2444
  875MOL0     O18049   5.937   5.225   8.830  0.0618 -1.0315  0.4557
  875MOL0     C18050   5.982   5.147   8.718  0.1107  0.7233 -0.5589
  875MOL0     C18051   6.092   5.234   8.666 -0.6145  0.4235  0.2534
  875MOL0     C18052   6.037   5.368   8.619  0.4384 -0.7148 -0.8288
  875MOL0     C18053   5.940   5.367   8.503 -0.5124 -0.0654 -0.0643
  875MOL0     C18054   6.023   5.326   8.387  0.8665 -0.7965  0.6290
  875MOL0     C18055   6.093   5.305   8.292 -0.6419  0.7368 -1.2474
  875MOL0     C18056   5.853   5.014   8.929  0.9919 -0.5167 -0.5016
  875MOL0     C18057   5.764   4.951   9.024 -0.2931 -0.0371  0.0007
  875MOL0     H18058   5.267   4.925   9.082  1.2867 -1.3675 -0.3453
  875MOL0     H18059   5.057   4.833   9.184 -1.3933  0.8900  0.5385
  875MOL0     H18060   5.114   4.580   9.555  0.1356  0.1564 -1.2030
  875MOL0     H18061   5.082   4.745   9.585 -0.3605  2.6575 -2.8859
  875MOL0     H18062   4.857   4.548   9.527  4.4663 -2.3949 -0.2135
  875MOL0     H18063   4.909   4.595   9.688 -0.9362  1.0371  0.6105
  875MOL0     H18064   4.857   4.818   9.662 -2.2677  1.2225 -1.1358
  875MOL0     H18065   4.809   4.800   9.485 -0.9510  1.1785  0.6305
  875MOL0     H18066   4.604   4.684   9.554  1.5260  2.1943 -2.9982
  875MOL0     H18067   4.655   4.677   9.723 -5.1370  1.7093  0.1406
  875MOL0     H18068   4.491   4.837   9.706 -1.2795 -2.1091 -1.8354
  875MOL0     H18069   4.634   4.932   9.722 -1.1006  1.5882  0.1334
  875MOL0     H18070   4.612   5.013   9.488 -1.0278  1.0906  0.3203
  875MOL0     H18071   4.491   4.889   9.449 -2.0393 -0.9146  2.1252
  875MOL0     H18072   4.478   5.123   9.646  0.4067 -0.3352  0.2422
  875MOL0     H18073   4.400   5.099   9.493  2.3216 -1.2775 -0.5541
  875MOL0     H18074   4.318   4.981   9.744 -1.9733  1.2989  0.3103
  875MOL0     H18075   4.284   4.896   9.599 -5.5577  1.2264 -1.2138
  875MOL0     H18076   4.268   5.281   9.650 -0.9955  1.4067  1.1560
  875MOL0     H18077   3.896   5.336   9.498  0.2972  0.3195  0.7216
  875MOL0     H18078   3.990   5.444   9.602  0.9644 -1.0388  1.1579
  875MOL0     H18079   4.053   5.332   9.328 -0.8442 -0.0755  0.2697
  875MOL0     H18080   4.157   5.460   9.393 -0.1809  1.3249  1.3447
  875MOL0     H18081   3.984   5.615   9.395  3.2248  0.7519 -1.7876
  875MOL0     H18082   3.856   5.503   9.341 -0.2320  0.1903  0.9744
  875MOL0     H18083   4.093   5.588   9.165  0.4623 -0.8786 -0.6787
  875MOL0     H18084   3.917   5.653   9.169  0.7913  1.1555  1.4363
  875MOL0     H18085   3.771   5.576   8.941  1.6196  1.3929  0.5682
  875MOL0     H18086   3.844   5.715   8.628  0.1780 -1.3858  0.2416
  875MOL0     H18087   3.736   5.599   8.596  0.9972 -0.3071 -0.0470
  875MOL0     H18088   3.713   5.694   8.747 -1.5840  0.4278 -1.2140
  875MOL0     H18089   4.271   5.712   8.493 -0.7929 -0.2971 -0.6527
  875MOL0     H18090   4.496   5.770   8.406 -1.0550  0.1167  0.9843
  875MOL0     H18091   4.823   5.462   8.316 -0.7825 -2.3327 -1.6227
  875MOL0     H18092   4.704   5.467   8.183  1.1319 -0.5064  0.0923
  875MOL0     H18093   4.789   5.660   8.090 -1.4406  0.7639  1.1420
  875MOL0     H18094   4.890   5.697   8.239  3.8245  1.1677 -2.5080
  875MOL0     H18095   4.917   5.485   8.028 -0.0331  0.6303 -0.9326
  875MOL0     H18096   5.029   5.506   8.183  0.8203  1.2108 -0.3021
  875MOL0     H18097   4.998   5.648   7.929 -0.8959 -0.1591 -0.0659
  875MOL0     H18098   5.090   5.715   8.050  1.1721  0.2282  0.6184
  875MOL0     H18099   5.233   5.485   8.060 -0.6025 -2.0769  0.7037
  875MOL0     H18100   5.258   5.600   7.918 -0.9141  2.9146  4.1407
  875MOL0     H18101   5.094   5.348   7.928 -1.6455  0.5958 -0.2572
  875MOL0     H18102   5.093   5.457   7.791  1.0357 -0.0877 -0.5735
  875MOL0     H18103   5.347   5.323   7.909 -1.5332  2.0749  1.1544
  875MOL0     H18104   5.343   5.428   7.764 -0.0329  1.4924 -0.1165
  875MOL0     H18105   5.247   5.272   7.633  1.0909  1.1423 -1.2026
  875MOL0     H18106   5.200   5.157   7.771  1.4913 -1.1761 -1.1982
  875MOL0     H18107   4.580   5.355   8.342  0.9823  0.5014  0.6498
  875MOL0     H18108   4.353   5.295   8.445  0.5039 -0.8151 -4.3285
  875MOL0     H18109   4.204   5.399   8.763  0.5599  0.2097  0.5788
  875MOL0     H18110   4.118   5.349   8.992 -0.2866 -1.8248 -1.4692
  875MOL0     H18111   5.295   4.713   9.528  2.1901  2.7263  0.9242
  875MOL0     H18112   5.477   4.845   9.449  2.8992 -0.8811 -2.9893
  875MOL0     H18113   5.574   5.222   9.111  0.3186  1.3067 -0.2182
  875MOL0     H18114   5.741   5.329   8.962 -3.8479 -0.3231 -0.0012
  875MOL0     H18115   6.033   5.053   8.742  1.8841  1.0457 -2.7552
  875MOL0     H18116   5.915   5.117   8.637  1.9637 -2.6869 -1.0255
  875MOL0     H18117   6.143   5.187   8.581  0.2164  1.7901 -0.0383
  875MOL0     H18118   6.165   5.267   8.741  0.9033 -0.4209 -0.7823
  875MOL0     H18119   6.114   5.437   8.584 -0.6205  1.7141  1.3391
  875MOL0     H18120   5.979   5.414   8.699  0.7518 -0.6041 -0.6659
  875MOL0     H18121   5.900   5.469   8.496  4.9274  2.4968  0.5084
  875MOL0     H18122   5.862   5.292   8.512  0.7772 -1.5944 -1.0591
  875MOL0     H18123   6.169   5.283   8.219  2.0585 -0.3382  1.6998
  875MOL0     H18124   5.929   4.953   8.883  0.9092 -2.2847  1.5584
  875MOL0     H18125   5.770   4.845   9.042 -2.6242 -0.3856 -1.0172
  876MOL0     O18126   0.438   6.836   2.642  1.0901  0.0608  0.8832
  876MOL0     C18127   0.462   6.894   2.744 -1.2292  0.5810 -0.3849
  876MOL0     O18128   0.385   6.875   2.857  0.1505 -0.5836 -0.8798
  876MOL0     C18129   0.285   6.785   2.845 -0.3161  0.1887 -0.3192
  876MOL0     C18130   0.278   6.669   2.932 -0.9949 -0.0929 -0.3289
  876MOL0     C18131   0.164   6.591   2.930 -0.1094 -1.2015  0.4342
  876MOL0     C18132   0.050   6.621   2.858 -0.0713 -0.9207  0.3898
  876MOL0     O18133  -0.069   6.559   2.863  0.5876  0.0118 -0.7923
  876MOL0     C18134  -0.117   6.515   2.993 -0.4140 -0.4240  0.6553
  876MOL0     C18135  -0.222   6.614   3.035 -0.4217 -0.1045 -0.1680
  876MOL0     C18136  -0.288   6.584   3.178  0.0035  0.2636  0.0807
  876MOL0     C18137  -0.386   6.462   3.165 -0.2197  0.4039  0.4442
  876MOL0     C18138  -0.438   6.437   3.306 -0.4359  0.9388 -0.8464
  876MOL0     C18139  -0.575   6.359   3.304 -0.6498 -1.0692  0.2115
  876MOL0     C18140  -0.639   6.350   3.441 -0.3626 -0.3153 -0.1867
  876MOL0     C18141  -0.565   6.252   3.532 -0.2398 -0.0895  0.4995
  876MOL0     N18142  -0.605   6.246   3.675  0.6984  0.0319  0.1898
  876MOL0     C18143  -0.612   6.346   3.767  1.1983 -0.9118  0.9184
  876MOL0     C18144  -0.693   6.295   3.870  0.3230 -0.8714  0.3960
  876MOL0     C18145  -0.713   6.365   4.003 -0.7774 -0.1571 -0.5708
  876MOL0     C18146  -0.668   6.504   4.004  0.6283  0.1281 -0.4110
  876MOL0     C18147  -0.719   6.568   4.133  0.0914 -0.3799 -0.4463
  876MOL0     C18148  -0.650   6.700   4.148 -0.1208  0.1035 -0.6963
  876MOL0     O18149  -0.508   6.696   4.183  0.1947 -0.2771 -0.1399
  876MOL0     C18150  -0.456   6.730   4.307  0.0947 -0.0600 -0.3554
  876MOL0     C18151  -0.535   6.746   4.419  0.3282  0.7472  0.0462
  876MOL0     C18152  -0.477   6.786   4.541  0.8280 -0.3284  0.7248
  876MOL0     C18153  -0.577   6.805   4.660 -0.3970  0.4803  0.1596
  876MOL0     C18154  -0.343   6.831   4.540 -0.4360  0.4629  0.7567
  876MOL0     C18155  -0.272   6.905   4.641  0.1577 -0.1935 -0.1732
  876MOL0     O18156  -0.336   6.921   4.762  0.1508 -0.1713 -0.2041
  876MOL0     C18157  -0.282   7.001   4.860 -0.1421  0.3535  0.4219
  876MOL0     C18158  -0.313   7.138   4.870  0.0749 -0.3460 -1.0201
  876MOL0     C18159  -0.234   7.216   4.953  0.6043 -1.1948  0.6359
  876MOL0     C18160  -0.143   7.154   5.047  0.2226 -0.1860 -0.2247
  876MOL0     O18161  -0.099   7.222   5.162 -0.9941 -0.4183  1.0994
  876MOL0     C18162  -0.123   7.372   5.186 -0.8437 -0.1732  1.0011
  876MOL0     C18163  -0.038   7.421   5.297  0.7712 -0.1654  0.5129
  876MOL0     C18164   0.111   7.438   5.251  0.2434  0.1615  0.7826
  876MOL0     C18165   0.198   7.463   5.370  0.5300 -0.3224  0.3990
  876MOL0     C18166   0.354   7.471   5.324  0.4424  0.6657 -1.0760
  876MOL0     C18167   0.446   7.500   5.441 -0.2941 -0.2793 -0.3002
  876MOL0     C18168   0.593   7.485   5.390 -0.2041  0.2036 -0.6841
  876MOL0     C18169   0.621   7.555   5.258  0.4795 -0.2631 -1.4144
  876MOL0    Cl18170   0.795   7.569   5.213 -0.4087  0.0231  0.5611
  876MOL0     C18171  -0.112   7.016   5.041  0.1612 -0.8310  1.2710
  876MOL0     C18172  -0.176   6.943   4.940 -0.2429 -0.5021 -0.4077
  876MOL0     O18173  -0.155   6.941   4.625  0.4994  0.2603 -0.0340
  876MOL0     C18174  -0.267   6.800   4.429 -0.1593  0.2761  0.5766
  876MOL0     C18175  -0.323   6.747   4.311 -0.0738 -0.3031  0.0351
  876MOL0     N18176  -0.716   6.163   3.845 -0.1871  0.3932 -0.6102
  876MOL0     N18177  -0.672   6.142   3.723  0.1818  0.1295  0.5756
  876MOL0     C18178   0.061   6.724   2.762 -0.7979  0.1516 -1.1562
  876MOL0     C18179   0.173   6.809   2.764  0.2323  0.2079  0.5027
  876MOL0     C18180   0.580   6.976   2.756 -0.3735  0.5791  0.3758
  876MOL0     C18181   0.644   7.021   2.638 -0.3649  0.0781 -1.4600
  876MOL0     C18182   0.766   7.083   2.658 -0.0792 -0.4495 -0.2927
  876MOL0     C18183   0.811   7.137   2.778  0.5918 -1.3554  0.1600
  876MOL0     O18184   0.916   7.218   2.798 -0.2992 -0.3729  0.1289
  876MOL0     C18185   0.916   7.322   2.698 -0.2060  0.0309 -0.0685
  876MOL0     C18186   1.027   7.303   2.602  0.4044 -0.8671  0.7259
  876MOL0     C18187   1.160   7.345   2.663  0.2886 -0.1930 -0.4603
  876MOL0     C18188   1.271   7.301   2.564  0.8217 -0.3040  0.7177
  876MOL0     C18189   1.401   7.340   2.616 -0.3243 -0.0729 -0.2243
  876MOL0     C18190   1.487   7.389   2.687  0.5980 -0.3606  0.5601
  876MOL0     C18191   0.737   7.100   2.901 -0.9262  0.1154  0.9956
  876MOL0     C18192   0.632   7.007   2.886  0.0137 -0.7552 -0.3827
  876MOL0     H18193   0.360   6.646   3.000 -2.2163 -3.2523  0.2717
  876MOL0     H18194   0.164   6.499   2.987 -0.3667 -1.9051 -0.6740
  876MOL0     H18195  -0.167   6.419   2.974 -1.3162  0.7815 -5.1398
  876MOL0     H18196  -0.038   6.498   3.067  0.1220 -1.9490 -0.2083
  876MOL0     H18197  -0.176   6.712   3.048  3.2087 -1.9241  2.1821
  876MOL0     H18198  -0.301   6.613   2.959 -1.8527 -0.5070  1.2468
  876MOL0     H18199  -0.201   6.558   3.239  3.9004  0.3054 -4.8467
  876MOL0     H18200  -0.341   6.671   3.219 -0.9641 -0.9368  1.5119
  876MOL0     H18201  -0.467   6.481   3.093 -0.8460  1.1563  1.3298
  876MOL0     H18202  -0.328   6.379   3.122 -1.2553  0.1938 -0.5980
  876MOL0     H18203  -0.356   6.392   3.363  0.1000  2.3141 -0.4857
  876MOL0     H18204  -0.470   6.530   3.353  0.0996 -1.2818  4.6894
  876MOL0     H18205  -0.639   6.422   3.243 -1.2082 -1.9558 -0.1394
  876MOL0     H18206  -0.562   6.263   3.252 -2.9139  0.7206 -4.1145
  876MOL0     H18207  -0.636   6.448   3.490  3.1058 -0.5105  0.2394
  876MOL0     H18208  -0.746   6.333   3.429 -0.0918 -0.2087 -4.1764
  876MOL0     H18209  -0.460   6.268   3.509  0.4819  0.6009  3.7670
  876MOL0     H18210  -0.589   6.151   3.498 -0.7440 -0.7323  2.5845
  876MOL0     H18211  -0.572   6.446   3.756 -0.7998 -0.3094 -1.8341
  876MOL0     H18212  -0.820   6.357   4.028 -0.8946  1.5804 -0.3456
  876MOL0     H18213  -0.658   6.308   4.079  0.4897 -1.2293 -2.2359
  876MOL0     H18214  -0.718   6.548   3.916  0.3292 -1.1023 -0.8710
  876MOL0     H18215  -0.560   6.518   3.990  0.3778  0.2313 -2.7235
  876MOL0     H18216  -0.705   6.504   4.220  1.2452  0.2444 -0.1385
  876MOL0     H18217  -0.828   6.578   4.133 -0.0601 -0.8572  2.9907
  876MOL0     H18218  -0.693   6.760   4.228  1.3180 -0.0189  0.2051
  876MOL0     H18219  -0.676   6.757   4.058  0.0848  1.3953  0.0455
  876MOL0     H18220  -0.642   6.729   4.421 -0.4884  4.7571  3.0393
  876MOL0     H18221  -0.676   6.765   4.636 -0.9357  1.8149  0.0902
  876MOL0     H18222  -0.540   6.757   4.751 -0.4423  1.3658  0.6513
  876MOL0     H18223  -0.600   6.911   4.674 -2.0319  0.2050 -0.2042
  876MOL0     H18224  -0.377   7.178   4.793  1.4754 -1.6605 -2.9602
  876MOL0     H18225  -0.243   7.324   4.964  2.8873 -0.8682 -0.2243
  876MOL0     H18226  -0.097   7.432   5.098 -0.6553 -0.1373  1.0812
  876MOL0     H18227  -0.227   7.379   5.219 -1.2153 -2.6716  0.5920
  876MOL0     H18228  -0.077   7.518   5.327  1.6458  1.0852 -2.0761
  876MOL0     H18229  -0.059   7.354   5.381 -1.1705  0.8581  0.8939
  876MOL0     H18230   0.126   7.510   5.170 -0.1213  2.3178  2.5316
  876MOL0     H18231   0.150   7.347   5.204 -3.9169 -0.8007 -1.2851
  876MOL0     H18232   0.185   7.564   5.412  0.0072 -0.1831 -0.0836
  876MOL0     H18233   0.173   7.388   5.446 -2.9358  0.2850  0.0227
  876MOL0     H18234   0.363   7.552   5.250  2.9298  0.7016 -0.8054
  876MOL0     H18235   0.384   7.383   5.267  0.9484 -0.5565  1.0052
  876MOL0     H18236   0.423   7.600   5.479 -2.6365 -1.2697  1.1180
  876MOL0     H18237   0.414   7.446   5.530 -5.0377  2.1570 -0.1712
  876MOL0     H18238   0.625   7.381   5.374  3.6806  1.2066 -0.3756
  876MOL0     H18239   0.655   7.533   5.465  0.1816  0.9231 -1.4546
  876MOL0     H18240   0.578   7.653   5.278  1.8713 -0.3810  3.0603
  876MOL0     H18241   0.567   7.506   5.176  0.6963 -1.7269 -0.7161
  876MOL0     H18242  -0.028   6.962   5.083  0.8777 -1.0480 -0.3346
  876MOL0     H18243  -0.163   6.835   4.943 -0.9179 -0.5797  2.5639
  876MOL0     H18244  -0.161   6.824   4.424 -0.4198  1.2604 -2.9751
  876MOL0     H18245  -0.264   6.715   4.226  2.4776  1.0620  1.1797
  876MOL0     H18246  -0.026   6.724   2.697 -1.9905 -0.2632  0.3949
  876MOL0     H18247   0.185   6.884   2.687  1.7995 -0.7134 -0.2028
  876MOL0     H18248   0.615   7.002   2.535 -0.3801  1.0976 -1.6508
  876MOL0     H18249   0.822   7.123   2.574  0.5073 -0.6321  0.0043
  876MOL0     H18250   0.827   7.333   2.635 -0.6193  0.5184  0.5823
  876MOL0     H18251   0.924   7.416   2.754 -1.4560 -1.4332  2.7350
  876MOL0     H18252   1.011   7.368   2.515 -0.5498  0.5261  1.8928
  876MOL0     H18253   1.046   7.202   2.567  1.6672 -0.0893 -0.9857
  876MOL0     H18254   1.168   7.284   2.753 -1.8672 -0.1009 -0.1610
  876MOL0     H18255   1.155   7.454   2.671 -0.0231 -0.2079 -0.4311
  876MOL0     H18256   1.271   7.340   2.461  0.2716 -1.7150  0.1640
  876MOL0     H18257   1.260   7.194   2.546 -0.4480  0.0162 -0.5658
  876MOL0     H18258   1.545   7.438   2.763 -1.5819  3.1965  0.2048
  876MOL0     H18259   0.760   7.143   2.998 -0.8065  2.2208  0.0901
  876MOL0     H18260   0.593   6.954   2.972 -0.2997 -1.4746 -0.9560
  877MOL0     O18261   9.625   9.976   1.066 -0.1105  0.0515  0.3419
  877MOL0     C18262   9.701   9.985   1.156 -0.0427  0.7537 -0.0319
  877MOL0     O18263   9.764   9.873   1.214 -0.1741 -0.4004 -0.3926
  877MOL0     C18264   9.750   9.735   1.179  0.0265  0.4821  0.1212
  877MOL0     C18265   9.637   9.682   1.123 -0.3210 -0.0349  0.0084
  877MOL0     C18266   9.630   9.551   1.086  1.1845  0.3248  0.0144
  877MOL0     C18267   9.732   9.462   1.135  0.0043 -0.1395  1.2509
  877MOL0     O18268   9.735   9.324   1.116 -0.2171  0.3325  0.2474
  877MOL0     C18269   9.612   9.271   1.070  0.5005 -0.0997  0.5385
  877MOL0     C18270   9.617   9.119   1.087 -1.1724 -0.0206 -1.1290
  877MOL0     C18271   9.716   9.050   0.995  0.2482  0.2001  0.4702
  877MOL0     C18272   9.647   8.972   0.884  0.4310  0.2613  0.8742
  877MOL0     C18273   9.743   8.905   0.787  0.7330 -0.2129 -0.6611
  877MOL0     C18274   9.809   9.001   0.690 -0.9084  0.2163 -0.0253
  877MOL0     C18275   9.834   8.945   0.553 -0.7280 -0.0306 -0.0493
  877MOL0     C18276   9.935   9.046   0.500 -0.5520 -0.0381  0.6810
  877MOL0     N18277   9.966   9.007   0.359  0.2214  0.3941  0.2597
  877MOL0     C18278  10.058   8.912   0.317 -0.0316  0.0073 -0.8742
  877MOL0     C18279  10.019   8.872   0.185 -0.1382 -0.9371 -1.1392
  877MOL0     C18280  10.064   8.755   0.112  1.6650  0.1567 -0.5633
  877MOL0     C18281  10.155   8.782   0.005  0.2648  0.5930  0.8479
  877MOL0     C18282  10.189   8.650  -0.068  0.7897  0.4084  0.0386
  877MOL0     C18283  10.254   8.553   0.026  0.0244  0.7944  0.5577
  877MOL0     O18284  10.274   8.445  -0.067  0.1724 -0.3690  0.6914
  877MOL0     C18285  10.343   8.338  -0.018 -0.0741  0.9379  0.0547
  877MOL0     C18286  10.330   8.219  -0.098  0.9217 -0.7886 -0.4964
  877MOL0     C18287  10.394   8.107  -0.063  0.5945  0.3994  1.0942
  877MOL0     C18288  10.349   7.984  -0.121  0.1609 -0.0709 -0.1300
  877MOL0     C18289  10.490   8.104   0.038 -1.1474  0.1015 -0.0815
  877MOL0     C18290  10.586   8.000   0.068  0.0799 -0.0961 -0.2662
  877MOL0     O18291  10.639   7.996   0.194 -0.0151  0.9698 -0.2731
  877MOL0     C18292  10.733   7.894   0.223 -0.1558 -0.3444 -0.3074
  877MOL0     C18293  10.738   7.863   0.368  1.4374  0.8843 -0.0599
  877MOL0     C18294  10.837   7.778   0.419  0.1452 -0.0126 -0.2316
  877MOL0     C18295  10.943   7.739   0.339  0.5096  0.3653 -0.0917
  877MOL0     O18296  11.044   7.666   0.387 -0.6150 -1.0526  0.3790
  877MOL0     C18297  11.006   7.549   0.452 -0.8620  0.0143 -0.3969
  877MOL0     C18298  11.106   7.513   0.555 -0.2112 -0.0258  0.0178
  877MOL0     C18299  11.101   7.603   0.682 -0.7321  0.3544 -0.1814
  877MOL0     C18300  11.229   7.607   0.761 -0.4487 -0.0874  0.1166
  877MOL0     C18301  11.222   7.680   0.887  0.2469 -0.0850  0.1790
  877MOL0     C18302  11.166   7.816   0.865 -0.2174 -0.6189  0.0312
  877MOL0     C18303  11.150   7.910   0.993  0.0088 -0.6092  0.2627
  877MOL0     C18304  11.226   8.042   0.987  0.2209 -0.3449 -0.0164
  877MOL0    Cl18305  11.148   8.174   1.078 -0.0381  0.2892  0.5302
  877MOL0     C18306  10.951   7.773   0.198 -0.5058 -0.2024  0.0396
  877MOL0     C18307  10.841   7.850   0.141 -0.1237  1.3392  0.5644
  877MOL0     O18308  10.628   7.932  -0.029  0.3334  0.4236 -0.3565
  877MOL0     C18309  10.501   8.224   0.116  0.8370 -0.5339  0.5118
  877MOL0     C18310  10.436   8.337   0.080 -0.0377  0.4436  0.3674
  877MOL0     N18311   9.906   8.958   0.151 -0.6522  0.0604 -0.9136
  877MOL0     N18312   9.882   9.032   0.256  0.4465  0.2691  0.1160
  877MOL0     C18313   9.841   9.515   1.199 -0.2499 -0.2912  0.4433
  877MOL0     C18314   9.860   9.652   1.217 -0.4085 -0.2925  0.0166
  877MOL0     C18315   9.748  10.114   1.211  0.0618  0.5343  0.7451
  877MOL0     C18316   9.833  10.124   1.318  0.2812 -0.8264 -0.4814
  877MOL0     C18317   9.877  10.250   1.360  0.0742  0.2518  0.4204
  877MOL0     C18318   9.823  10.366   1.304  0.5858 -0.4145  0.2737
  877MOL0     O18319   9.861  10.494   1.344 -0.4671  0.3247  0.0422
  877MOL0     C18320  10.005  10.519   1.364 -0.4164 -0.1684 -0.8518
  877MOL0     C18321  10.092  10.514   1.238  0.5737 -0.8039  0.3774
  877MOL0     C18322  10.031  10.581   1.117  0.2481  0.9112 -0.6368
  877MOL0     C18323  10.018  10.495   0.996  1.0053  0.0656 -1.0968
  877MOL0     C18324  10.150  10.482   0.932  0.1287 -0.7219  0.2040
  877MOL0     C18325  10.265  10.482   0.890  1.0013  0.6613 -0.1177
  877MOL0     C18326   9.721  10.360   1.207 -0.1430 -0.9215  0.4586
  877MOL0     C18327   9.687  10.231   1.156  0.3023  0.1816 -0.2704
  877MOL0     H18328   9.558   9.753   1.103  2.8694  4.0732  0.7172
  877MOL0     H18329   9.538   9.528   1.033 -0.4241  4.1316  0.8833
  877MOL0     H18330   9.534   9.308   1.138 -0.5790  0.3200 -0.8749
  877MOL0     H18331   9.589   9.301   0.967 -0.5654 -1.8249  0.2317
  877MOL0     H18332   9.656   9.100   1.187  1.4408  0.0491 -2.0527
  877MOL0     H18333   9.519   9.072   1.076 -2.5088  2.3216 -0.0743
  877MOL0     H18334   9.807   9.104   0.967  1.6399 -2.3636 -0.2394
  877MOL0     H18335   9.758   8.964   1.047 -1.5095 -1.8356 -1.3008
  877MOL0     H18336   9.578   8.894   0.918  0.6613 -0.9216 -1.1939
  877MOL0     H18337   9.580   9.041   0.831 -0.7287 -0.5228  1.2691
  877MOL0     H18338   9.828   8.853   0.832 -2.2084 -4.4555  0.5141
  877MOL0     H18339   9.685   8.830   0.733 -0.5876  1.0068 -0.9983
  877MOL0     H18340   9.753   9.092   0.664  0.2794  0.8541 -0.4299
  877MOL0     H18341   9.895   9.040   0.746 -0.0435 -1.4410 -0.1377
  877MOL0     H18342   9.868   8.841   0.564 -1.3833 -0.1332  1.1108
  877MOL0     H18343   9.743   8.925   0.495  0.5927 -0.7613 -1.9692
  877MOL0     H18344  10.024   9.068   0.560  0.8032  1.2952 -1.6488
  877MOL0     H18345   9.881   9.141   0.489  3.8992  2.5630 -1.3482
  877MOL0     H18346  10.125   8.853   0.379  1.2926 -0.5073 -2.7260
  877MOL0     H18347  10.105   8.684   0.184 -0.6059 -1.8377 -1.0939
  877MOL0     H18348   9.967   8.716   0.079  0.1251  2.2887  1.1712
  877MOL0     H18349  10.251   8.823   0.037 -0.1004  1.4142  0.9083
  877MOL0     H18350  10.119   8.848  -0.074  2.9082  1.4675  0.2997
  877MOL0     H18351  10.266   8.679  -0.140 -1.0592  1.0789 -1.7718
  877MOL0     H18352  10.102   8.606  -0.118 -0.2830 -0.3704  2.4193
  877MOL0     H18353  10.178   8.526   0.100 -2.5917 -0.0199 -2.2192
  877MOL0     H18354  10.341   8.588   0.083 -0.9964  3.4957  0.6440
  877MOL0     H18355  10.256   8.201  -0.176  1.7757 -0.5783 -1.3764
  877MOL0     H18356  10.333   7.904  -0.048  1.7906 -1.2686 -1.0240
  877MOL0     H18357  10.252   7.991  -0.171  0.5860  0.9695 -0.8371
  877MOL0     H18358  10.419   7.945  -0.195 -3.3645 -2.2875 -2.6561
  877MOL0     H18359  10.658   7.907   0.426 -0.1816 -0.6008 -1.0514
  877MOL0     H18360  10.830   7.755   0.525  3.6004 -0.9187 -0.0908
  877MOL0     H18361  10.905   7.541   0.493 -0.9318 -0.5572 -0.6816
  877MOL0     H18362  11.009   7.476   0.371 -3.6057 -2.1453  1.2458
  877MOL0     H18363  11.081   7.413   0.592 -2.2185  1.2400  2.3636
  877MOL0     H18364  11.198   7.510   0.497 -1.6442 -0.2023 -2.3683
  877MOL0     H18365  11.016   7.569   0.743 -0.4468 -0.1922 -0.0772
  877MOL0     H18366  11.076   7.701   0.642 -0.6222  1.0306  1.3301
  877MOL0     H18367  11.267   7.506   0.783 -0.7134 -0.1721  0.1875
  877MOL0     H18368  11.314   7.641   0.701 -2.0197 -0.0777 -2.2374
  877MOL0     H18369  11.320   7.687   0.934  0.6003 -0.4137 -0.4840
  877MOL0     H18370  11.152   7.628   0.952 -1.2066  4.4404  2.6448
  877MOL0     H18371  11.213   7.863   0.778 -1.9321 -0.2281 -0.7101
  877MOL0     H18372  11.063   7.808   0.830  0.0331  1.2391 -1.3162
  877MOL0     H18373  11.163   7.868   1.093 -1.8773 -2.5873 -0.2469
  877MOL0     H18374  11.044   7.941   0.996  0.4103  0.8219  2.8063
  877MOL0     H18375  11.241   8.079   0.885 -4.6712 -0.4445 -1.0037
  877MOL0     H18376  11.324   8.031   1.034 -0.4624 -4.1033  0.8140
  877MOL0     H18377  11.035   7.747   0.134  0.3901 -1.3340  1.6155
  877MOL0     H18378  10.844   7.873   0.035  0.2059  2.1021  0.7307
  877MOL0     H18379  10.568   8.230   0.201 -0.1432  1.6333  1.2254
  877MOL0     H18380  10.463   8.424   0.140  0.4545  1.6309 -1.4785
  877MOL0     H18381   9.910   9.435   1.224 -1.5530 -1.8773 -0.8194
  877MOL0     H18382   9.939   9.690   1.281 -1.6762 -0.7309  1.9438
  877MOL0     H18383   9.873  10.039   1.371  0.5405  0.9014  2.3029
  877MOL0     H18384   9.946  10.248   1.444 -0.2148 -0.1251  0.6516
  877MOL0     H18385  10.024  10.618   1.407  4.6778 -1.2628  0.0827
  877MOL0     H18386  10.049  10.451   1.437 -0.4761 -0.8046 -1.3926
  877MOL0     H18387  10.102  10.408   1.212  0.5007 -0.4259 -1.2919
  877MOL0     H18388  10.194  10.552   1.255  1.2001 -2.4171  0.4323
  877MOL0     H18389  10.101  10.662   1.092  0.2933  1.4619  1.1534
  877MOL0     H18390   9.931  10.620   1.139 -1.3757 -2.2058 -1.9320
  877MOL0     H18391   9.942  10.526   0.924  0.7875  0.3089 -0.7646
  877MOL0     H18392   9.985  10.394   1.021 -2.8238  1.5154  0.4437
  877MOL0     H18393  10.366  10.500   0.857  1.4993 -0.4053  0.7656
  877MOL0     H18394   9.685  10.454   1.166 -0.3292 -1.7643 -1.4320
  877MOL0     H18395   9.616  10.230   1.074 -2.4232 -0.9278  1.9520
  878MOL0     O18396   0.076   5.480   2.208  0.3387 -0.7467 -0.0269
  878MOL0     C18397   0.102   5.590   2.158  1.0645  0.1540  0.2501
  878MOL0     O18398   0.231   5.647   2.147  0.5790  0.0322 -0.5640
  878MOL0     C18399   0.336   5.609   2.224 -0.1018  0.7331  0.1913
  878MOL0     C18400   0.371   5.472   2.253 -0.4857  0.0685  0.1200
  878MOL0     C18401   0.475   5.444   2.344  0.6449 -0.4883 -0.2237
  878MOL0     C18402   0.563   5.550   2.387 -0.4396 -0.1591  0.1331
  878MOL0     O18403   0.678   5.525   2.462  0.4762 -0.3880  0.4635
  878MOL0     C18404   0.690   5.601   2.589  0.0872  0.2251  0.7199
  878MOL0     C18405   0.712   5.491   2.690 -0.2583 -0.3611 -0.4864
  878MOL0     C18406   0.701   5.541   2.834 -0.1891 -0.7202  0.1746
  878MOL0     C18407   0.653   5.435   2.933  0.9422 -0.1530  0.4080
  878MOL0     C18408   0.560   5.492   3.039  0.5328 -1.1779  0.5512
  878MOL0     C18409   0.623   5.535   3.177  0.1024  0.2339 -0.5563
  878MOL0     C18410   0.734   5.643   3.177 -0.9583 -0.0049  0.2140
  878MOL0     C18411   0.689   5.774   3.125 -1.2630 -0.8996  0.1192
  878MOL0     N18412   0.783   5.885   3.122  0.2683  0.1628 -0.9748
  878MOL0     C18413   0.745   6.018   3.095  0.2985  0.3228 -0.1574
  878MOL0     C18414   0.869   6.083   3.085 -0.7018 -0.4512 -0.0217
  878MOL0     C18415   0.871   6.233   3.048 -0.4213 -0.3479  0.3164
  878MOL0     C18416   0.979   6.305   3.126  0.7020 -1.2245  0.1977
  878MOL0     C18417   1.126   6.274   3.105  0.5887 -0.5749 -0.1133
  878MOL0     C18418   1.160   6.279   2.953  0.5354  0.3253  0.0165
  878MOL0     O18419   1.281   6.360   2.932 -0.3088 -0.0470  0.0049
  878MOL0     C18420   1.333   6.372   2.804 -0.0501  0.2139 -0.6311
  878MOL0     C18421   1.303   6.304   2.682 -0.3300  0.3311  0.4650
  878MOL0     C18422   1.346   6.343   2.550  0.0395 -0.0227 -0.1393
  878MOL0     C18423   1.280   6.262   2.435 -0.3118 -0.0631  0.8880
  878MOL0     C18424   1.447   6.446   2.540  0.5535  0.4089 -0.1104
  878MOL0     C18425   1.513   6.482   2.404  0.1540 -1.4114  0.0391
  878MOL0     O18426   1.630   6.546   2.412 -0.1403 -0.0627  0.0711
  878MOL0     C18427   1.699   6.546   2.295  0.5602 -0.1389 -1.0088
  878MOL0     C18428   1.655   6.621   2.188  1.1429 -1.0451 -0.4111
  878MOL0     C18429   1.735   6.613   2.074  0.9185  0.1769  0.2046
  878MOL0     C18430   1.855   6.539   2.063 -0.6440 -0.1401  0.3335
  878MOL0     O18431   1.955   6.559   1.970 -0.2594  0.8879  0.5555
  878MOL0     C18432   1.944   6.647   1.851 -0.9847  0.4278 -0.0945
  878MOL0     C18433   1.915   6.562   1.727  0.4064 -0.8778  0.0076
  878MOL0     C18434   1.795   6.478   1.754  0.1092  1.1365  0.2236
  878MOL0     C18435   1.756   6.388   1.641  0.8638 -0.8868  0.0128
  878MOL0     C18436   1.680   6.269   1.698  0.2816  0.2450  0.1104
  878MOL0     C18437   1.611   6.187   1.590 -0.3518  0.3713 -0.2535
  878MOL0     C18438   1.682   6.159   1.462 -1.1091  1.4378  0.5547
  878MOL0     C18439   1.771   6.037   1.474  0.2715 -0.4346 -0.0051
  878MOL0    Cl18440   1.868   6.036   1.326  0.1234  0.0508 -0.1045
  878MOL0     C18441   1.892   6.466   2.172  0.4463 -0.2925  0.0497
  878MOL0     C18442   1.807   6.465   2.279 -1.0123  0.1356  0.2369
  878MOL0     O18443   1.463   6.433   2.305 -0.0120  0.3179  0.2879
  878MOL0     C18444   1.489   6.510   2.664  1.1189  0.8254 -0.2385
  878MOL0     C18445   1.435   6.464   2.784  0.8828 -0.3460 -0.0284
  878MOL0     N18446   0.970   5.994   3.109 -0.0165 -0.0868 -0.8639
  878MOL0     N18447   0.920   5.881   3.152  0.0785 -0.0981 -0.1340
  878MOL0     C18448   0.545   5.679   2.337 -0.2946 -0.1470  0.8401
  878MOL0     C18449   0.423   5.704   2.268 -0.7384 -0.2301  0.5626
  878MOL0     C18450   0.007   5.662   2.092  0.5999 -0.3530 -0.3510
  878MOL0     C18451  -0.129   5.635   2.094  0.8272  0.8787  0.0875
  878MOL0     C18452  -0.214   5.704   1.998  0.3926 -0.0195 -1.2842
  878MOL0     C18453  -0.178   5.803   1.916  0.6278  0.2979  0.5813
  878MOL0     O18454  -0.254   5.867   1.820  0.1958 -0.8279  0.3110
  878MOL0     C18455  -0.369   5.822   1.755  0.0029  0.3007  0.3034
  878MOL0     C18456  -0.322   5.703   1.655  0.0174 -0.3267  0.2996
  878MOL0     C18457  -0.225   5.754   1.547  0.3182 -1.1251  0.8439
  878MOL0     C18458  -0.213   5.665   1.424  0.1474  0.1482 -0.2044
  878MOL0     C18459  -0.129   5.557   1.465 -0.1755 -0.0852 -0.7368
  878MOL0     C18460  -0.042   5.471   1.493  0.0625 -0.0060  0.6742
  878MOL0     C18461  -0.043   5.831   1.926 -0.3955 -0.1815  0.5385
  878MOL0     C18462   0.041   5.765   2.012  0.1040  0.3186 -0.5728
  878MOL0     H18463   0.298   5.398   2.221 -0.4829 -0.8886  2.1595
  878MOL0     H18464   0.486   5.342   2.378  0.4153 -0.4438 -0.0112
  878MOL0     H18465   0.767   5.678   2.582 -0.0711  0.2421 -2.1296
  878MOL0     H18466   0.597   5.654   2.609  0.9199  1.2805  2.0158
  878MOL0     H18467   0.624   5.427   2.682 -1.7788  1.4186  1.0702
  878MOL0     H18468   0.808   5.441   2.677 -0.4199 -0.4428 -1.5037
  878MOL0     H18469   0.801   5.568   2.870  0.8661 -1.5635 -1.9483
  878MOL0     H18470   0.624   5.618   2.831 -1.7747 -2.2882 -1.7212
  878MOL0     H18471   0.591   5.370   2.871 -1.2738  1.6578  0.5898
  878MOL0     H18472   0.729   5.381   2.990 -0.7815 -0.8910  2.1046
  878MOL0     H18473   0.523   5.587   2.997  1.6345 -0.9550  0.0485
  878MOL0     H18474   0.473   5.427   3.055  0.9662 -1.4242  2.0321
  878MOL0     H18475   0.546   5.588   3.233  0.4293 -1.2656  1.4106
  878MOL0     H18476   0.665   5.445   3.223  1.0134  1.1230  0.4015
  878MOL0     H18477   0.770   5.648   3.280  0.5985  0.2588 -0.3012
  878MOL0     H18478   0.815   5.597   3.120 -2.0961 -0.5947 -0.9727
  878MOL0     H18479   0.592   5.805   3.165 -1.5578 -0.7247 -0.7109
  878MOL0     H18480   0.671   5.765   3.017 -1.7270  1.9795 -0.1014
  878MOL0     H18481   0.643   6.052   3.077  0.3393 -0.5899 -2.4767
  878MOL0     H18482   0.878   6.253   2.940 -4.3752  5.0070  0.6491
  878MOL0     H18483   0.774   6.273   3.080  0.7060  1.3466  1.7477
  878MOL0     H18484   0.957   6.286   3.231  2.3317  0.4344  0.8936
  878MOL0     H18485   0.973   6.410   3.098  3.0352 -1.0627  0.0810
  878MOL0     H18486   1.154   6.173   3.136 -0.8328 -1.8432 -2.6679
  878MOL0     H18487   1.174   6.356   3.161  0.0884 -1.7763  2.2001
  878MOL0     H18488   1.083   6.316   2.885 -1.0069 -3.1606 -0.3184
  878MOL0     H18489   1.170   6.177   2.916 -3.9507 -0.2522 -0.1237
  878MOL0     H18490   1.221   6.234   2.695  0.7152 -0.8401  0.9033
  878MOL0     H18491   1.347   6.214   2.363 -0.5503  1.7162 -0.5816
  878MOL0     H18492   1.217   6.183   2.478 -0.5187 -1.1594 -1.3143
  878MOL0     H18493   1.209   6.322   2.378 -1.0096 -2.0857 -0.4804
  878MOL0     H18494   1.560   6.673   2.188 -0.3428 -3.4513  2.1281
  878MOL0     H18495   1.703   6.664   1.983  3.0876  1.1569 -0.0653
  878MOL0     H18496   1.879   6.734   1.867  1.1648  2.1787 -0.4767
  878MOL0     H18497   2.040   6.687   1.819 -0.5508 -1.8480 -1.9132
  878MOL0     H18498   1.891   6.622   1.639  2.5780 -0.1591 -0.1447
  878MOL0     H18499   2.001   6.497   1.708  0.9587 -0.7655  1.8670
  878MOL0     H18500   1.712   6.543   1.783 -0.6904 -0.1974  1.0284
  878MOL0     H18501   1.824   6.410   1.835  1.9830  1.6666  0.0358
  878MOL0     H18502   1.684   6.429   1.569 -0.6851 -2.5189  0.5617
  878MOL0     H18503   1.846   6.356   1.588 -0.5057 -2.8540 -1.2611
  878MOL0     H18504   1.592   6.294   1.758 -0.1457  1.6637 -1.0348
  878MOL0     H18505   1.746   6.193   1.740  1.3546  1.0076 -0.1432
  878MOL0     H18506   1.573   6.096   1.639 -0.5280 -0.4194 -1.7920
  878MOL0     H18507   1.530   6.252   1.557  0.9908  1.3139 -1.8408
  878MOL0     H18508   1.744   6.245   1.435  2.2919 -0.2103  2.5514
  878MOL0     H18509   1.610   6.152   1.380 -2.1581  4.2735  1.1272
  878MOL0     H18510   1.703   5.951   1.481 -0.3811 -0.0799 -1.6077
  878MOL0     H18511   1.834   6.033   1.564  0.6800 -1.7541 -0.3292
  878MOL0     H18512   1.985   6.413   2.154  0.9098  0.9711 -1.5399
  878MOL0     H18513   1.834   6.413   2.370  1.4170  0.5971 -0.1531
  878MOL0     H18514   1.570   6.582   2.666 -0.2612  2.4394  0.1604
  878MOL0     H18515   1.473   6.507   2.876  3.8047  4.1680 -2.9529
  878MOL0     H18516   0.611   5.762   2.359 -2.4899  0.9456  4.2377
  878MOL0     H18517   0.405   5.808   2.246  0.5043 -0.0053  0.5608
  878MOL0     H18518  -0.161   5.556   2.161 -1.0318  1.2739 -0.2918
  878MOL0     H18519  -0.318   5.671   1.996 -0.1383  0.6615  3.4840
  878MOL0     H18520  -0.439   5.785   1.830  0.5808  0.6535  1.0284
  878MOL0     H18521  -0.415   5.904   1.698  1.7111 -1.1524 -3.4948
  878MOL0     H18522  -0.412   5.654   1.616  0.5551 -1.3768  0.3398
  878MOL0     H18523  -0.270   5.621   1.706  0.7277 -1.3828 -1.9720
  878MOL0     H18524  -0.123   5.773   1.584  1.9054 -2.6615 -2.3693
  878MOL0     H18525  -0.266   5.850   1.516  0.4795 -1.2575  0.2150
  878MOL0     H18526  -0.151   5.706   1.344  2.1744 -1.7547  0.2784
  878MOL0     H18527  -0.311   5.635   1.388  1.2634 -1.1804 -2.3862
  878MOL0     H18528   0.024   5.392   1.521 -0.0481 -0.2196  0.3396
  878MOL0     H18529   0.003   5.906   1.863  0.0816  0.0623  1.1541
  878MOL0     H18530   0.143   5.800   1.997 -1.2787  4.7372 -1.0069
  879MOL0     O18531   8.979   3.572  11.327 -0.1657 -0.2234  0.9034
  879MOL0     C18532   8.900   3.477  11.301  0.7509 -0.4303  0.0175
  879MOL0     O18533   8.781   3.476  11.237 -0.2968 -0.6934 -0.1466
  879MOL0     C18534   8.763   3.570  11.138  0.2461  0.1204  0.7201
  879MOL0     C18535   8.861   3.595  11.038 -0.3900 -0.0865 -0.3073
  879MOL0     C18536   8.838   3.705  10.946 -1.1702  0.3850 -0.2502
  879MOL0     C18537   8.716   3.771  10.950 -0.6381 -0.7995  0.4406
  879MOL0     O18538   8.684   3.868  10.860  0.3748 -0.0089 -0.2497
  879MOL0     C18539   8.756   3.859  10.736 -0.1621 -1.0344  1.2176
  879MOL0     C18540   8.700   3.983  10.650  1.0014 -0.4794  0.6026
  879MOL0     C18541   8.550   3.967  10.652  0.0236 -0.7446 -0.5738
  879MOL0     C18542   8.488   4.056  10.549  0.6346 -0.6149 -0.0820
  879MOL0     C18543   8.480   3.995  10.402 -0.6213 -0.4505  0.3338
  879MOL0     C18544   8.409   4.084  10.308  0.8204 -0.5343  0.2493
  879MOL0     C18545   8.355   4.017  10.177  1.0444 -0.1148  0.3066
  879MOL0     C18546   8.234   4.086  10.118  0.1663  0.4930 -0.1867
  879MOL0     N18547   8.221   4.074   9.972 -0.0752  0.1991 -1.0312
  879MOL0     C18548   8.211   3.956   9.891  0.1866  0.2249  0.2969
  879MOL0     C18549   8.180   4.012   9.770 -0.2697 -0.3932  0.0592
  879MOL0     C18550   8.135   3.940   9.648 -0.2319 -0.7705  0.6066
  879MOL0     C18551   7.989   3.913   9.669  0.6005  0.6282  0.0314
  879MOL0     C18552   7.916   3.806   9.572  0.0820 -0.8159 -0.4739
  879MOL0     C18553   7.952   3.817   9.424 -0.3784  0.1887  0.0220
  879MOL0     O18554   7.875   3.725   9.355 -0.9287  0.6228 -0.0983
  879MOL0     C18555   7.916   3.677   9.235  0.4327  0.9990 -0.0167
  879MOL0     C18556   7.890   3.545   9.222 -0.0596  1.1955 -0.9296
  879MOL0     C18557   7.928   3.482   9.106  0.6957  0.9307  0.6322
  879MOL0     C18558   7.900   3.329   9.104 -0.8042  0.3850 -0.6907
  879MOL0     C18559   7.990   3.557   9.001 -0.6654  0.5907  0.5825
  879MOL0     C18560   8.039   3.489   8.879 -0.3539  1.2585 -0.1056
  879MOL0     O18561   7.964   3.396   8.821  0.4207  0.4233 -0.5983
  879MOL0     C18562   8.011   3.346   8.703  0.1034  0.1788  0.7101
  879MOL0     C18563   8.004   3.413   8.581 -0.6654  0.0388 -0.2815
  879MOL0     C18564   8.051   3.351   8.468  0.6535  0.6343 -0.7059
  879MOL0     C18565   8.092   3.214   8.465 -0.2173 -0.1147  1.2359
  879MOL0     O18566   8.107   3.142   8.348 -0.2608 -0.6341  0.4531
  879MOL0     C18567   8.173   3.010   8.338 -0.7208 -0.3406 -0.2594
  879MOL0     C18568   8.071   2.905   8.336 -0.2498  1.0264  0.4536
  879MOL0     C18569   7.976   2.921   8.226  0.4979 -0.0862  0.5347
  879MOL0     C18570   7.865   2.818   8.237 -0.3465  0.1139  0.1046
  879MOL0     C18571   7.881   2.685   8.161  0.0106 -0.5514  0.2392
  879MOL0     C18572   8.015   2.614   8.179  0.0074  0.8785 -0.2685
  879MOL0     C18573   7.999   2.468   8.124  0.1633  0.3918 -1.3420
  879MOL0     C18574   8.132   2.386   8.164  0.3200  0.2899 -1.0708
  879MOL0    Cl18575   8.277   2.465   8.109  0.1741  0.2001  0.0414
  879MOL0     C18576   8.091   3.150   8.586  0.0816 -0.1011 -0.6348
  879MOL0     C18577   8.059   3.214   8.705  0.2267 -1.2973 -0.0188
  879MOL0     O18578   8.150   3.533   8.842  0.5193 -0.1315  0.8110
  879MOL0     C18579   8.025   3.690   9.020 -0.1717 -0.1343  0.0656
  879MOL0     C18580   7.987   3.750   9.139 -0.5579  0.0446 -0.8191
  879MOL0     N18581   8.184   4.144   9.771 -0.3643 -1.0898 -0.3495
  879MOL0     N18582   8.230   4.184   9.896  0.9826 -0.3547  1.1976
  879MOL0     C18583   8.615   3.737  11.041  0.1172  0.8891  0.6085
  879MOL0     C18584   8.639   3.633  11.130 -0.2500  1.4085  0.0952
  879MOL0     C18585   8.935   3.348  11.359  1.2397 -0.0654  0.4387
  879MOL0     C18586   8.839   3.256  11.409  1.3311 -0.0996 -0.7863
  879MOL0     C18587   8.867   3.139  11.485  0.5279 -0.2001 -0.4389
  879MOL0     C18588   9.002   3.114  11.512  0.5123 -0.0161  0.0970
  879MOL0     O18589   9.027   3.003  11.590  0.2691 -0.4520 -0.7314
  879MOL0     C18590   9.158   2.990  11.636  0.3549  0.9494 -0.2213
  879MOL0     C18591   9.160   2.868  11.741  0.0621 -0.9923  0.1779
  879MOL0     C18592   9.077   2.895  11.869 -0.8693  0.3279  0.2295
  879MOL0     C18593   9.070   2.777  11.949 -1.0487 -1.0130  0.0336
  879MOL0     C18594   8.927   2.759  11.999 -0.4488 -0.8673 -0.7351
  879MOL0     C18595   8.816   2.724  12.036  0.0677 -0.2847  0.6270
  879MOL0     C18596   9.103   3.206  11.469  0.5397 -0.5553  0.2737
  879MOL0     C18597   9.072   3.309  11.385 -0.0393  1.2323  0.3860
  879MOL0     H18598   8.958   3.549  11.051 -0.4179  0.0684  0.4740
  879MOL0     H18599   8.921   3.722  10.878 -0.3511 -0.2455  0.5592
  879MOL0     H18600   8.862   3.869  10.760  0.3864  0.9241 -1.5110
  879MOL0     H18601   8.742   3.756  10.703  1.9628 -0.8901 -0.3635
  879MOL0     H18602   8.719   4.082  10.692 -1.5658  0.8221 -0.9988
  879MOL0     H18603   8.754   3.968  10.556  1.0032 -1.8169  0.7949
  879MOL0     H18604   8.525   3.862  10.632 -1.8415 -0.0077 -2.5333
  879MOL0     H18605   8.513   4.006  10.747 -0.8210 -3.3144  0.2437
  879MOL0     H18606   8.387   4.070  10.588  2.0562  0.3146  3.6650
  879MOL0     H18607   8.536   4.154  10.559  0.4394 -0.6380  1.1664
  879MOL0     H18608   8.583   3.976  10.370 -0.8691 -0.6983 -0.3387
  879MOL0     H18609   8.428   3.899  10.409  1.5051 -1.6473  0.5222
  879MOL0     H18610   8.317   4.122  10.353  0.1694 -2.6921  0.8520
  879MOL0     H18611   8.482   4.158  10.275  3.2623 -2.5039  0.8752
  879MOL0     H18612   8.433   4.022  10.100  2.0617  3.3244  1.3541
  879MOL0     H18613   8.339   3.910  10.189  4.5194 -0.5427  2.4236
  879MOL0     H18614   8.233   4.191  10.148  0.4889  0.5591 -0.4036
  879MOL0     H18615   8.150   4.039  10.170  2.1688 -0.5343  2.3155
  879MOL0     H18616   8.195   3.854   9.925 -3.2223 -0.3974 -2.6161
  879MOL0     H18617   8.153   4.013   9.568  2.2859  1.4609  3.0132
  879MOL0     H18618   8.202   3.854   9.636  1.5189  0.7675 -1.3714
  879MOL0     H18619   7.925   4.000   9.657  3.2154  2.7105  0.1893
  879MOL0     H18620   7.977   3.871   9.770 -0.2738  0.1530 -0.2600
  879MOL0     H18621   7.807   3.816   9.566 -0.6119 -4.4855  2.4111
  879MOL0     H18622   7.937   3.704   9.605  2.0313  0.0246  1.0973
  879MOL0     H18623   8.055   3.784   9.403 -0.6218 -0.8358  0.3875
  879MOL0     H18624   7.937   3.921   9.393  2.0512  0.7984  0.6511
  879MOL0     H18625   7.833   3.496   9.300  3.2285  2.5647  2.6557
  879MOL0     H18626   7.822   3.312   9.029 -0.0353 -1.0264 -1.2256
  879MOL0     H18627   8.000   3.292   9.079  1.1731  3.6634  1.5803
  879MOL0     H18628   7.869   3.289   9.201 -2.0828  0.5309 -1.0270
  879MOL0     H18629   7.945   3.503   8.566 -0.2389  0.1944 -1.1238
  879MOL0     H18630   8.029   3.411   8.380  3.9440  0.2465 -1.9327
  879MOL0     H18631   8.234   3.004   8.248 -0.0476  1.9987 -0.0331
  879MOL0     H18632   8.250   2.993   8.414  1.0970  1.3632 -1.6422
  879MOL0     H18633   8.133   2.817   8.320  2.1572  2.5791  0.6558
  879MOL0     H18634   8.016   2.898   8.431 -1.5382  1.4778 -0.2269
  879MOL0     H18635   8.031   2.927   8.132  0.7581  2.4791  0.7795
  879MOL0     H18636   7.920   3.013   8.244 -2.0641 -2.0878  4.2071
  879MOL0     H18637   7.841   2.792   8.340 -3.1805 -0.7433 -0.6706
  879MOL0     H18638   7.779   2.875   8.201 -0.3749  1.5612  2.2990
  879MOL0     H18639   7.871   2.713   8.056 -3.5433 -1.5226  0.1849
  879MOL0     H18640   7.791   2.624   8.177 -1.2738  1.1691 -0.0519
  879MOL0     H18641   8.097   2.647   8.116  1.6032 -2.6649 -0.2859
  879MOL0     H18642   8.049   2.607   8.283  0.2158 -0.4866 -0.4160
  879MOL0     H18643   7.995   2.481   8.016  1.7240 -1.1865 -1.6499
  879MOL0     H18644   7.905   2.433   8.168 -1.1288  2.0810 -2.6314
  879MOL0     H18645   8.118   2.286   8.121  0.2770 -0.0339 -0.3192
  879MOL0     H18646   8.149   2.369   8.270  4.9515  0.8287 -1.5217
  879MOL0     H18647   8.125   3.047   8.591 -1.3249 -0.5714 -0.1892
  879MOL0     H18648   8.072   3.165   8.801 -2.0682  1.8630  2.1090
  879MOL0     H18649   8.076   3.745   8.942  0.4799  0.1706  0.6968
  879MOL0     H18650   8.016   3.851   9.164  2.0081 -0.7986 -0.0437
  879MOL0     H18651   8.522   3.792  11.027  0.7779  1.4920 -1.7635
  879MOL0     H18652   8.564   3.600  11.201  2.7475 -1.0207  2.4172
  879MOL0     H18653   8.733   3.280  11.413  0.9860 -1.4354 -1.4724
  879MOL0     H18654   8.795   3.079  11.539  3.0391 -3.6077 -0.5940
  879MOL0     H18655   9.224   2.966  11.553  0.8246  0.9608  0.1444
  879MOL0     H18656   9.198   3.075  11.692  0.0482 -0.8500  2.9903
  879MOL0     H18657   9.265   2.859  11.769 -0.0655 -0.1785  0.9293
  879MOL0     H18658   9.139   2.775  11.686 -0.2728 -0.1776 -1.1190
  879MOL0     H18659   8.976   2.926  11.842 -1.1600 -0.4344  0.4245
  879MOL0     H18660   9.112   2.983  11.924 -0.1113 -0.7255  1.4884
  879MOL0     H18661   9.134   2.780  12.038 -1.1020 -3.3218  0.2225
  879MOL0     H18662   9.094   2.686  11.894  0.7966  1.3643 -3.4994
  879MOL0     H18663   8.717   2.696  12.063  0.3931 -1.9783  0.1928
  879MOL0     H18664   9.207   3.179  11.484  1.1903  0.0411 -2.5464
  879MOL0     H18665   9.157   3.374  11.364  1.9070 -0.6675  1.9114
  880MOL0     O18666   4.698   9.120   8.896 -0.2068  0.1900 -0.0028
  880MOL0     C18667   4.745   9.232   8.920  0.7651 -0.0949 -0.4177
  880MOL0     O18668   4.693   9.325   9.011 -0.0176 -1.2324  0.5922
  880MOL0     C18669   4.592   9.296   9.089 -1.0363  0.3169 -0.1843
  880MOL0     C18670   4.499   9.395   9.110  0.2327  0.1149 -1.7303
  880MOL0     C18671   4.394   9.367   9.201 -0.3107 -0.0400  0.3798
  880MOL0     C18672   4.381   9.256   9.279 -0.6135 -0.5852 -0.2863
  880MOL0     O18673   4.282   9.225   9.370  0.2321 -0.6243 -0.1174
  880MOL0     C18674   4.159   9.303   9.365 -0.3143  1.0294  0.8145
  880MOL0     C18675   4.031   9.226   9.381 -1.1245 -1.0742  0.2745
  880MOL0     C18676   4.049   9.087   9.442  0.6794  0.4458 -1.0553
  880MOL0     C18677   3.918   8.991   9.423 -0.1438 -0.0085 -0.0094
  880MOL0     C18678   3.964   8.846   9.458  0.2036 -0.5970 -0.2844
  880MOL0     C18679   3.991   8.833   9.614  0.2636 -0.1519  0.6583
  880MOL0     C18680   4.139   8.820   9.634  0.3816 -0.0696 -0.0479
  880MOL0     C18681   4.170   8.667   9.661  0.7281 -0.0857  0.8483
  880MOL0     N18682   4.149   8.575   9.545  0.9552 -0.5020  0.5357
  880MOL0     C18683   4.247   8.492   9.506  0.3957  0.0120  0.0078
  880MOL0     C18684   4.194   8.392   9.435 -0.1700 -0.4475 -0.9050
  880MOL0     C18685   4.256   8.270   9.378  0.4994 -0.0651 -0.4602
  880MOL0     C18686   4.299   8.178   9.505  0.3705 -0.2549 -0.4659
  880MOL0     C18687   4.187   8.102   9.587  0.2974 -0.7048  1.4763
  880MOL0     C18688   4.072   8.051   9.500  0.0735 -0.0140  0.6799
  880MOL0     O18689   4.109   7.940   9.417  0.1385 -0.4143  0.6375
  880MOL0     C18690   4.102   7.817   9.478  0.7890 -0.1850  1.0244
  880MOL0     C18691   4.139   7.705   9.408  0.1410  1.2858 -0.6003
  880MOL0     C18692   4.136   7.574   9.452  1.1186  0.4855  0.3552
  880MOL0     C18693   4.186   7.466   9.359  0.3732  0.5471 -0.8536
  880MOL0     C18694   4.085   7.544   9.581 -1.1297  0.0043 -0.2420
  880MOL0     C18695   4.063   7.401   9.624  0.2319  0.6669 -0.4726
  880MOL0     O18696   4.111   7.379   9.752 -0.7058 -0.5474 -0.2343
  880MOL0     C18697   4.069   7.274   9.832 -0.5850 -0.2474  0.6171
  880MOL0     C18698   3.940   7.227   9.841  1.4746  0.1046  0.1860
  880MOL0     C18699   3.913   7.106   9.899 -0.4041  0.6661  0.8063
  880MOL0     C18700   4.014   7.037   9.975 -0.2702  0.3961  0.6269
  880MOL0     O18701   3.978   6.928  10.046 -0.5338 -0.3562 -0.4099
  880MOL0     C18702   3.926   6.818   9.973 -0.9059  0.5765  0.0174
  880MOL0     C18703   4.038   6.710   9.965  0.5827 -0.6059  0.0968
  880MOL0     C18704   4.069   6.656  10.099  0.1677 -0.6287  0.0815
  880MOL0     C18705   4.144   6.526  10.071  0.1041  0.6385  0.5735
  880MOL0     C18706   4.189   6.454  10.213 -0.2638  0.4573 -0.6386
  880MOL0     C18707   4.277   6.343  10.173  0.6850  0.1350 -0.7830
  880MOL0     C18708   4.294   6.240  10.299 -0.6937 -0.1577  0.3773
  880MOL0     C18709   4.388   6.300  10.406  0.5229  0.2309  0.1656
  880MOL0    Cl18710   4.413   6.188  10.547 -0.0516  0.0120 -0.0105
  880MOL0     C18711   4.143   7.079   9.965 -0.7676 -0.5776 -0.9613
  880MOL0     C18712   4.169   7.212   9.909 -0.1856 -0.4824  0.4896
  880MOL0     O18713   3.990   7.325   9.557  1.0615  0.0729 -0.4621
  880MOL0     C18714   4.056   7.654   9.668 -0.0583 -0.4782  0.3257
  880MOL0     C18715   4.057   7.786   9.615  0.4035 -0.1173 -0.7845
  880MOL0     N18716   4.060   8.421   9.438  0.2814  0.6890  1.1325
  880MOL0     N18717   4.029   8.522   9.508 -0.1851 -0.1182  0.5149
  880MOL0     C18718   4.471   9.159   9.241 -0.9830  0.3775 -0.0396
  880MOL0     C18719   4.574   9.166   9.152  0.2724 -0.6114 -0.7785
  880MOL0     C18720   4.861   9.288   8.847  0.2550 -0.0848 -0.0384
  880MOL0     C18721   4.916   9.216   8.732 -0.2193 -0.5480 -0.6612
  880MOL0     C18722   5.023   9.264   8.658 -0.7973 -0.1920  0.6505
  880MOL0     C18723   5.084   9.388   8.700 -0.1196  0.6754 -0.2376
  880MOL0     O18724   5.202   9.430   8.641 -0.0753 -0.2607  0.1752
  880MOL0     C18725   5.265   9.345   8.542  0.5528 -0.2484 -0.6867
  880MOL0     C18726   5.412   9.402   8.516 -0.1400  0.2535  0.8758
  880MOL0     C18727   5.439   9.495   8.390  0.7958 -0.4526 -0.2977
  880MOL0     C18728   5.389   9.447   8.256  0.1225 -0.2182  0.3089
  880MOL0     C18729   5.433   9.307   8.244 -0.7669  1.1371  0.4899
  880MOL0     C18730   5.452   9.186   8.229  0.9997  0.8699  0.2596
  880MOL0     C18731   5.030   9.456   8.813  0.1697 -0.5838  0.9122
  880MOL0     C18732   4.911   9.412   8.877 -0.4681 -0.3539 -0.2327
  880MOL0     H18733   4.523   9.488   9.059  2.2108  0.4552 -0.2914
  880MOL0     H18734   4.331   9.456   9.201 -0.4390 -0.0877 -1.8659
  880MOL0     H18735   4.166   9.382   9.441  0.9679  1.8513 -0.1013
  880MOL0     H18736   4.145   9.358   9.271 -0.2757 -0.7880 -0.2940
  880MOL0     H18737   3.954   9.281   9.437 -1.6712  0.1708 -1.6022
  880MOL0     H18738   3.985   9.212   9.283  1.8144 -1.6179 -1.1499
  880MOL0     H18739   4.126   9.035   9.385  0.5928  0.3114 -1.0510
  880MOL0     H18740   4.067   9.095   9.550  3.6030  1.0035 -1.5219
  880MOL0     H18741   3.844   9.026   9.495 -3.5224 -4.8547 -0.6265
  880MOL0     H18742   3.872   9.000   9.324  1.3937 -0.5594 -0.7985
  880MOL0     H18743   3.876   8.783   9.437  0.8375 -2.0521  1.1741
  880MOL0     H18744   4.045   8.818   9.391  0.5499 -0.2269 -0.0255
  880MOL0     H18745   3.960   8.923   9.667  1.3240  1.3190 -1.1272
  880MOL0     H18746   3.926   8.754   9.654 -2.0139  0.3749 -1.7066
  880MOL0     H18747   4.201   8.848   9.548 -1.3331  1.5383 -0.8460
  880MOL0     H18748   4.174   8.869   9.725  3.2864 -0.0674 -1.0426
  880MOL0     H18749   4.107   8.635   9.745 -1.3986  1.1387 -0.1906
  880MOL0     H18750   4.272   8.646   9.692  0.5555 -2.5501 -0.0281
  880MOL0     H18751   4.351   8.494   9.538  0.9365 -2.2976 -1.3733
  880MOL0     H18752   4.181   8.228   9.311 -1.5723  1.8487  0.5271
  880MOL0     H18753   4.348   8.293   9.323  0.4005  0.5219 -0.3944
  880MOL0     H18754   4.348   8.243   9.578 -0.4048  1.4987 -1.4733
  880MOL0     H18755   4.379   8.109   9.475 -0.7586 -1.6838 -0.3135
  880MOL0     H18756   4.140   8.180   9.648 -1.1685  1.5632 -2.1828
  880MOL0     H18757   4.228   8.017   9.641  0.8688  0.9134  3.7050
  880MOL0     H18758   4.055   8.146   9.449  1.6780  1.0088  1.9640
  880MOL0     H18759   3.981   8.035   9.559 -1.9184 -0.8689 -2.3937
  880MOL0     H18760   4.173   7.727   9.308 -1.8869  2.2458 -1.1403
  880MOL0     H18761   4.172   7.363   9.393  0.0390  0.3372 -1.6083
  880MOL0     H18762   4.155   7.488   9.257  0.0315  0.2585 -0.8145
  880MOL0     H18763   4.293   7.486   9.366 -0.2132  3.6672  1.0063
  880MOL0     H18764   3.860   7.272   9.784  0.8820 -0.4472  0.5813
  880MOL0     H18765   3.812   7.067   9.891 -1.0696  2.5024 -0.3249
  880MOL0     H18766   3.841   6.775  10.025  0.1415 -0.9090  0.5773
  880MOL0     H18767   3.887   6.853   9.877 -0.9551 -0.3706 -0.3183
  880MOL0     H18768   3.996   6.631   9.901  2.4671  0.5574 -2.7833
  880MOL0     H18769   4.130   6.743   9.916  2.2962 -3.4056  1.1909
  880MOL0     H18770   3.978   6.649  10.159 -0.7545 -0.5135 -1.2753
  880MOL0     H18771   4.138   6.725  10.149  0.8126 -0.8788 -0.4442
  880MOL0     H18772   4.095   6.454  10.006  2.5223  1.5903 -2.5555
  880MOL0     H18773   4.240   6.551  10.025  1.1750 -1.5590  1.4570
  880MOL0     H18774   4.099   6.421  10.266 -0.8728  0.7392 -1.4710
  880MOL0     H18775   4.257   6.515  10.274  2.0760 -0.9019 -1.7562
  880MOL0     H18776   4.223   6.285  10.098 -2.3717  1.3989  0.3169
  880MOL0     H18777   4.376   6.368  10.133  1.4941 -1.0850  0.3982
  880MOL0     H18778   4.331   6.146  10.256 -1.9890 -1.2112  1.4879
  880MOL0     H18779   4.203   6.225  10.357  0.7964 -0.3875  2.8144
  880MOL0     H18780   4.347   6.394  10.444 -1.0695 -0.8262  1.1961
  880MOL0     H18781   4.486   6.316  10.361  0.8386 -1.5882  0.1254
  880MOL0     H18782   4.208   7.019  10.028 -0.3920  1.4303  0.6679
  880MOL0     H18783   4.269   7.253   9.907 -0.7833  1.0317  0.0907
  880MOL0     H18784   4.027   7.632   9.770  0.6127  0.9698  0.8571
  880MOL0     H18785   4.030   7.863   9.687  1.2914 -1.4442  1.0701
  880MOL0     H18786   4.460   9.063   9.289  2.8055 -0.4665 -0.5207
  880MOL0     H18787   4.635   9.086   9.111  0.9996  1.2442 -3.6151
  880MOL0     H18788   4.877   9.118   8.704 -1.9887  0.2881 -1.2851
  880MOL0     H18789   5.045   9.205   8.570  0.2211  0.1666  0.6461
  880MOL0     H18790   5.289   9.250   8.589  1.7518  0.4346  0.1400
  880MOL0     H18791   5.211   9.340   8.447  4.8182 -2.1169 -3.2820
  880MOL0     H18792   5.469   9.309   8.512  0.4325  0.6469 -0.8525
  880MOL0     H18793   5.464   9.455   8.596  1.7534 -1.9763  1.2221
  880MOL0     H18794   5.547   9.502   8.381  0.6975  0.5231 -0.8847
  880MOL0     H18795   5.387   9.588   8.416 -2.4112 -1.8188 -1.2774
  880MOL0     H18796   5.431   9.505   8.174 -0.2983 -0.6463 -0.2173
  880MOL0     H18797   5.280   9.440   8.245 -0.1070  4.0482 -2.0621
  880MOL0     H18798   5.476   9.081   8.225  0.4031  0.5914  2.6761
  880MOL0     H18799   5.077   9.548   8.847 -2.5101 -0.0248  3.6134
  880MOL0     H18800   4.872   9.482   8.950  0.1916 -1.3893  1.1420
  881MOL0     O18801   4.105   2.137   9.147 -0.6780  0.1215  0.2853
  881MOL0     C18802   4.201   2.080   9.102 -0.0794  0.2347  1.0707
  881MOL0     O18803   4.286   2.002   9.180  0.3259  0.4984  0.5780
  881MOL0     C18804   4.255   1.989   9.314  0.1799  0.4310  0.8179
  881MOL0     C18805   4.255   2.095   9.392  0.0757 -0.7184  0.5758
  881MOL0     C18806   4.231   2.086   9.533  0.1025 -0.3975  0.2651
  881MOL0     C18807   4.200   1.954   9.589 -0.9856  0.0744  0.4938
  881MOL0     O18808   4.207   1.920   9.719 -0.3011  0.3671 -0.7851
  881MOL0     C18809   4.099   1.981   9.798  0.1655  0.0417 -0.0900
  881MOL0     C18810   3.966   1.889   9.810 -0.6474 -0.2380  0.3467
  881MOL0     C18811   3.996   1.752   9.871 -0.6667  0.2373  0.9504
  881MOL0     C18812   4.012   1.633   9.762  0.7130  0.6634  0.4003
  881MOL0     C18813   4.010   1.493   9.826 -0.0490  0.1010  0.4279
  881MOL0     C18814   3.953   1.380   9.743  0.2077 -0.9263 -1.1222
  881MOL0     C18815   4.011   1.246   9.791 -0.4739  0.9329  0.9635
  881MOL0     C18816   3.944   1.146   9.694  0.1976 -0.0306 -0.1297
  881MOL0     N18817   3.980   1.011   9.737  0.5470  0.3126  0.6434
  881MOL0     C18818   3.906   0.949   9.836  0.2548  0.4186  0.1980
  881MOL0     C18819   3.971   0.825   9.851  0.1932  0.2897 -0.2721
  881MOL0     C18820   3.953   0.730   9.969  0.7545 -0.2143  0.0758
  881MOL0     C18821   3.954   0.586   9.927 -1.5850  0.4923 -0.4170
  881MOL0     C18822   3.820   0.506   9.920 -0.1634 -0.2495  0.1068
  881MOL0     C18823   3.716   0.572   9.823  0.1773  0.5648 -0.6491
  881MOL0     O18824   3.585   0.505   9.824  0.0679 -0.1099 -0.4962
  881MOL0     C18825   3.528   0.518   9.705  0.4111 -0.0566  0.7086
  881MOL0     C18826   3.466   0.400   9.652 -0.9910  0.8018 -0.2616
  881MOL0     C18827   3.384   0.405   9.540  0.2184 -0.7805  0.2338
  881MOL0     C18828   3.307   0.280   9.512 -0.5978  0.1515 -0.3818
  881MOL0     C18829   3.349   0.536   9.490 -0.0441 -0.7669 -0.1518
  881MOL0     C18830   3.259   0.551   9.372 -0.3032  0.4970 -0.2104
  881MOL0     O18831   3.263   0.677   9.305 -0.0456 -0.3346  0.8491
  881MOL0     C18832   3.213   0.696   9.174 -0.7402  1.3999 -0.0125
  881MOL0     C18833   3.255   0.602   9.073  0.3375 -0.6315  0.5608
  881MOL0     C18834   3.223   0.628   8.938  0.9711 -0.0019 -0.4540
  881MOL0     C18835   3.144   0.739   8.899  0.5647 -0.2370  0.3977
  881MOL0     O18836   3.110   0.753   8.767  0.9526 -0.3103 -0.1158
  881MOL0     C18837   3.024   0.856   8.717  0.4956  1.0856 -0.2921
  881MOL0     C18838   3.001   0.832   8.573  1.0869 -0.3572 -0.4968
  881MOL0     C18839   3.111   0.843   8.476  0.4955 -0.2254  0.5606
  881MOL0     C18840   3.069   0.817   8.321  0.6919  0.7350 -0.9549
  881MOL0     C18841   2.935   0.892   8.287 -0.3127  0.1187 -0.3035
  881MOL0     C18842   2.898   0.865   8.136 -0.0938 -0.4153  0.6989
  881MOL0     C18843   2.769   0.943   8.099  0.5106  0.3842 -0.1809
  881MOL0     C18844   2.784   1.092   8.111 -0.4637 -0.1670  0.8268
  881MOL0    Cl18845   2.648   1.161   8.009  0.1461  0.1753 -0.0342
  881MOL0     C18846   3.113   0.836   8.999 -0.8162  0.1689 -0.2282
  881MOL0     C18847   3.154   0.820   9.133 -0.7942 -0.2540 -0.4766
  881MOL0     O18848   3.188   0.456   9.329  0.4529  0.4183  0.3840
  881MOL0     C18849   3.410   0.646   9.535  0.2814 -0.9514 -0.3240
  881MOL0     C18850   3.499   0.648   9.644 -0.0943  1.1337 -0.1220
  881MOL0     N18851   4.071   0.814   9.756  0.4521  0.5509  0.2129
  881MOL0     N18852   4.071   0.925   9.688  0.4854  0.0303  0.3573
  881MOL0     C18853   4.196   1.837   9.504 -0.4769 -0.4542 -0.1242
  881MOL0     C18854   4.225   1.857   9.369 -0.1333 -0.1193 -0.1637
  881MOL0     C18855   4.228   2.084   8.951  0.7721  0.4821  0.6952
  881MOL0     C18856   4.137   2.134   8.859  0.4502  1.0922  0.5714
  881MOL0     C18857   4.169   2.119   8.717  0.4361 -0.0155 -1.1264
  881MOL0     C18858   4.284   2.057   8.674  0.0459 -0.7726  0.5491
  881MOL0     O18859   4.284   2.041   8.538 -0.5551 -0.4267  0.2483
  881MOL0     C18860   4.361   1.940   8.468  0.4840 -0.6626  0.5058
  881MOL0     C18861   4.257   1.904   8.354 -1.0511 -0.9876  0.6612
  881MOL0     C18862   4.290   1.998   8.234 -0.6219 -0.0007  0.0676
  881MOL0     C18863   4.223   1.955   8.102 -0.3256 -0.4048 -0.1317
  881MOL0     C18864   4.277   1.828   8.061  0.0085  0.3084  0.3648
  881MOL0     C18865   4.315   1.714   8.047 -0.0094  0.1047 -0.7753
  881MOL0     C18866   4.383   2.014   8.767  0.9244  1.2852 -0.3220
  881MOL0     C18867   4.351   2.025   8.905 -0.1824  0.0653 -0.5459
  881MOL0     H18868   4.267   2.188   9.337 -0.2909  0.2226  2.0292
  881MOL0     H18869   4.237   2.169   9.603 -1.0341 -0.1448  0.0759
  881MOL0     H18870   4.143   1.993   9.897  0.6312 -3.2615  0.2104
  881MOL0     H18871   4.073   2.082   9.763  2.1269  0.9826  1.0167
  881MOL0     H18872   3.897   1.950   9.870  1.7853  3.0829  0.0250
  881MOL0     H18873   3.909   1.874   9.718 -0.5631 -0.2861  0.3023
  881MOL0     H18874   4.089   1.757   9.929 -0.6058  1.6858  0.7524
  881MOL0     H18875   3.908   1.727   9.931 -2.1961 -1.7247 -1.8775
  881MOL0     H18876   3.922   1.646   9.702 -1.3068 -3.0187  2.3099
  881MOL0     H18877   4.101   1.644   9.699  0.3732 -3.1520 -0.9743
  881MOL0     H18878   4.115   1.476   9.851  0.6415 -1.9588 -3.1970
  881MOL0     H18879   3.935   1.510   9.904 -2.3817 -1.2884 -1.3932
  881MOL0     H18880   3.847   1.399   9.723  0.0930  1.5805  1.2847
  881MOL0     H18881   4.008   1.396   9.649  2.9016  0.5547  0.5735
  881MOL0     H18882   4.120   1.250   9.793 -0.4311  1.0725 -0.3873
  881MOL0     H18883   3.977   1.224   9.893  0.5554 -1.2792  0.8926
  881MOL0     H18884   3.984   1.161   9.593 -0.3616 -0.6695 -0.4542
  881MOL0     H18885   3.837   1.161   9.706  0.4556  3.1304 -0.8583
  881MOL0     H18886   3.825   0.978   9.902  0.6442 -1.3069  1.5260
  881MOL0     H18887   4.042   0.739  10.033  2.5644  3.1707 -2.5432
  881MOL0     H18888   3.863   0.745  10.028  2.0660 -0.9862  2.4123
  881MOL0     H18889   4.012   0.522   9.993 -0.7456  0.9727 -0.6715
  881MOL0     H18890   4.001   0.568   9.830 -3.6541 -1.2521 -1.1712
  881MOL0     H18891   3.776   0.467  10.013 -0.8593 -1.1838 -0.5903
  881MOL0     H18892   3.859   0.420   9.866 -1.6276 -2.4071  2.2432
  881MOL0     H18893   3.760   0.574   9.723 -0.0152  2.4837 -0.7357
  881MOL0     H18894   3.700   0.679   9.841 -2.5476  0.7121 -3.1288
  881MOL0     H18895   3.478   0.308   9.709  2.3836  2.5099  2.1730
  881MOL0     H18896   3.207   0.299   9.552 -0.9710  2.7354 -2.2931
  881MOL0     H18897   3.302   0.252   9.406 -1.6968 -1.1002 -0.0289
  881MOL0     H18898   3.362   0.195   9.553 -3.0508 -1.2307  0.2477
  881MOL0     H18899   3.300   0.510   9.109 -0.6674 -2.1478 -1.7519
  881MOL0     H18900   3.265   0.551   8.874  2.2779  0.7246 -0.4903
  881MOL0     H18901   2.935   0.859   8.779 -0.0163 -1.5504 -0.7846
  881MOL0     H18902   3.092   0.938   8.740  2.6517 -1.4317  3.4651
  881MOL0     H18903   2.956   0.732   8.565 -3.3182  1.1022  2.2181
  881MOL0     H18904   2.923   0.905   8.548  1.0259  0.7064  2.4473
  881MOL0     H18905   3.180   0.763   8.505 -0.2929 -1.6720 -1.3446
  881MOL0     H18906   3.158   0.940   8.495 -2.6499  1.0902  2.4682
  881MOL0     H18907   3.150   0.867   8.268 -0.1091  4.0861  0.6853
  881MOL0     H18908   3.062   0.712   8.293  1.5502 -0.0674  1.5551
  881MOL0     H18909   2.944   1.001   8.296 -0.9403  0.2049 -0.6470
  881MOL0     H18910   2.844   0.876   8.346 -1.8951  1.8736 -2.0844
  881MOL0     H18911   2.976   0.901   8.068  0.8110 -2.4893  0.5554
  881MOL0     H18912   2.880   0.759   8.117  0.3329 -0.8543  2.5423
  881MOL0     H18913   2.690   0.912   8.167  2.5108  1.2626  2.7194
  881MOL0     H18914   2.738   0.918   7.997  1.1800 -1.3029  0.0048
  881MOL0     H18915   2.875   1.130   8.062  0.4762 -0.7943  2.0125
  881MOL0     H18916   2.777   1.121   8.216 -2.6799 -1.6168  1.1289
  881MOL0     H18917   3.072   0.933   8.970  0.0144  0.9406  1.0444
  881MOL0     H18918   3.133   0.890   9.213 -1.9922 -2.6069  1.4220
  881MOL0     H18919   3.389   0.740   9.485 -1.0010 -0.5283  0.9397
  881MOL0     H18920   3.526   0.740   9.694 -1.0874  1.0646  0.5623
  881MOL0     H18921   4.168   1.744   9.552 -2.6379 -0.2187 -0.8542
  881MOL0     H18922   4.239   1.771   9.305  0.2373  0.7975 -1.3755
  881MOL0     H18923   4.052   2.187   8.901 -1.4617 -0.8865 -0.6301
  881MOL0     H18924   4.083   2.143   8.654 -0.5673 -1.4374 -0.3496
  881MOL0     H18925   4.449   1.993   8.431 -1.8647  1.9853 -1.7707
  881MOL0     H18926   4.380   1.857   8.537  0.5347 -0.5039  0.6825
  881MOL0     H18927   4.155   1.917   8.390 -0.9589  2.2279  0.0686
  881MOL0     H18928   4.276   1.802   8.318 -0.8027 -1.1938  1.3708
  881MOL0     H18929   4.395   1.987   8.205 -0.7994  1.0011 -1.0327
  881MOL0     H18930   4.268   2.102   8.260 -0.2174  0.0639  0.1650
  881MOL0     H18931   4.242   2.027   8.022  2.6729  1.5757  2.1452
  881MOL0     H18932   4.117   1.938   8.120  0.0576 -0.3277  2.5790
  881MOL0     H18933   4.342   1.611   8.043  0.9575  0.3175 -0.0558
  881MOL0     H18934   4.477   1.978   8.727  0.0131  1.8850 -3.2373
  881MOL0     H18935   4.423   1.991   8.978  1.1619  0.4187 -1.6662
  882MOL0     O18936   7.867   2.339   7.850 -0.0043 -0.1710 -0.4588
  882MOL0     C18937   7.749   2.363   7.842  0.6142 -0.8749 -0.3167
  882MOL0     O18938   7.647   2.273   7.849 -0.2139 -0.2230  1.0764
  882MOL0     C18939   7.678   2.145   7.888  0.8683  0.3751  0.2874
  882MOL0     C18940   7.735   2.120   8.014  1.3706  0.7053 -0.4703
  882MOL0     C18941   7.765   1.991   8.037  0.4673  1.2211  0.7721
  882MOL0     C18942   7.740   1.885   7.948 -0.1264 -0.0334  0.0766
  882MOL0     O18943   7.764   1.762   7.985 -0.1977 -0.6209 -0.3088
  882MOL0     C18944   7.815   1.661   7.902 -0.0139 -0.2821 -0.1889
  882MOL0     C18945   7.872   1.531   7.971 -0.1601 -0.8119 -0.3988
  882MOL0     C18946   7.929   1.450   7.855  0.2247  0.5545  0.6512
  882MOL0     C18947   8.008   1.327   7.907  1.0292  0.0330 -0.1237
  882MOL0     C18948   8.084   1.265   7.801  0.2052 -0.5331 -0.6291
  882MOL0     C18949   8.133   1.131   7.836  0.2141 -0.4797  0.0063
  882MOL0     C18950   8.250   1.149   7.940  1.0725 -0.0722 -0.0795
  882MOL0     C18951   8.325   1.020   7.963 -0.4989 -0.0061  0.1972
  882MOL0     N18952   8.455   1.013   7.899  0.2151 -0.1231  0.1755
  882MOL0     C18953   8.491   1.060   7.779  1.0703  0.0724 -0.9439
  882MOL0     C18954   8.615   1.011   7.762 -1.1393 -0.1448 -0.2699
  882MOL0     C18955   8.693   1.053   7.642 -0.4875 -0.6189 -0.2927
  882MOL0     C18956   8.628   1.035   7.502  0.3949 -0.0378  0.5972
  882MOL0     C18957   8.592   0.890   7.467  0.1367  0.3152 -0.7078
  882MOL0     C18958   8.702   0.834   7.372  0.1259 -0.5087  0.1350
  882MOL0     O18959   8.678   0.887   7.242 -0.0365  0.0692 -0.3889
  882MOL0     C18960   8.759   0.873   7.133 -0.4852  1.0409 -0.0332
  882MOL0     C18961   8.889   0.826   7.121 -0.5918  0.2647 -0.1997
  882MOL0     C18962   8.958   0.810   6.999  0.9552 -0.0237  0.3667
  882MOL0     C18963   9.095   0.742   6.998  0.2140 -0.2734  0.2021
  882MOL0     C18964   8.895   0.853   6.881  0.7326 -0.0865  0.5076
  882MOL0     C18965   8.949   0.844   6.751  0.7428 -0.0903  0.5559
  882MOL0     O18966   9.078   0.879   6.741 -0.4481  0.3395 -0.3681
  882MOL0     C18967   9.126   0.896   6.613  0.0420  0.7580 -0.1481
  882MOL0     C18968   9.108   1.017   6.563 -0.4978  0.0296  0.0739
  882MOL0     C18969   9.161   1.043   6.431 -0.3531  0.0529  0.0176
  882MOL0     C18970   9.247   0.955   6.372  0.7232 -0.3042  0.2481
  882MOL0     O18971   9.320   1.009   6.281 -0.7282 -0.6529 -0.2324
  882MOL0     C18972   9.459   1.028   6.317  0.3041 -0.0516 -0.0593
  882MOL0     C18973   9.524   1.127   6.210  0.9988  0.0424 -0.5908
  882MOL0     C18974   9.683   1.105   6.201  0.0784  0.5604 -0.2966
  882MOL0     C18975   9.744   1.208   6.099  0.3824 -0.6635 -0.5795
  882MOL0     C18976   9.716   1.178   5.948 -0.6682 -0.0222  0.2531
  882MOL0     C18977   9.831   1.111   5.879  0.7839  0.7498 -0.0900
  882MOL0     C18978   9.779   1.055   5.752 -0.3364 -0.5747  0.1260
  882MOL0     C18979   9.887   1.012   5.648  0.8417  0.8081  0.1569
  882MOL0    Cl18980   9.836   1.014   5.475 -0.0549  0.0497 -0.7952
  882MOL0     C18981   9.274   0.830   6.433  0.3422  0.5008 -0.6463
  882MOL0     C18982   9.204   0.798   6.551 -0.3201 -0.4685  0.2107
  882MOL0     O18983   8.874   0.804   6.660 -0.1232 -0.3447  0.4189
  882MOL0     C18984   8.759   0.904   6.890  0.1296  0.6262 -0.5464
  882MOL0     C18985   8.696   0.900   7.015  0.1238 -0.1257 -1.4323
  882MOL0     N18986   8.652   0.937   7.883  0.8334 -0.2090  1.5427
  882MOL0     N18987   8.553   0.947   7.962 -0.3104 -0.2969 -0.0827
  882MOL0     C18988   7.690   1.913   7.818 -0.0418  0.5546 -0.0580
  882MOL0     C18989   7.649   2.034   7.793 -0.5100 -0.3137 -0.5464
  882MOL0     C18990   7.722   2.497   7.808 -0.1358 -0.8705  0.5409
  882MOL0     C18991   7.588   2.543   7.787 -0.6818  0.7807  0.4542
  882MOL0     C18992   7.554   2.667   7.738 -0.0200 -0.2895 -0.3312
  882MOL0     C18993   7.654   2.766   7.715  0.9415  0.0754 -0.4157
  882MOL0     O18994   7.632   2.900   7.690 -0.2105 -0.0579 -0.3475
  882MOL0     C18995   7.510   2.964   7.727 -0.4954 -0.0241 -0.2411
  882MOL0     C18996   7.511   3.109   7.663 -0.3477  0.2672 -0.5738
  882MOL0     C18997   7.392   3.203   7.712 -0.2363 -0.0279 -0.1586
  882MOL0     C18998   7.428   3.349   7.663  0.5164 -0.6618 -0.7207
  882MOL0     C18999   7.419   3.360   7.513 -0.1574 -0.5421 -0.7833
  882MOL0     C19000   7.399   3.374   7.395 -0.0703 -0.1198  0.4830
  882MOL0     C19001   7.782   2.725   7.736  0.7940  0.1086  0.2583
  882MOL0     C19002   7.814   2.602   7.787 -0.3860  0.4957  0.4677
  882MOL0     H19003   7.750   2.202   8.083  0.4035  0.3788  0.1678
  882MOL0     H19004   7.794   1.955   8.135 -2.9705  0.7552  1.7744
  882MOL0     H19005   7.726   1.628   7.848 -1.0248 -0.6872  1.6440
  882MOL0     H19006   7.879   1.694   7.819 -1.2651  1.2220 -0.5930
  882MOL0     H19007   7.947   1.545   8.050 -0.2229 -2.1689 -0.0771
  882MOL0     H19008   7.791   1.470   8.011  0.9518 -2.2087 -0.2046
  882MOL0     H19009   7.846   1.394   7.810 -0.4608  0.6173  1.8132
  882MOL0     H19010   7.982   1.511   7.780  1.7921  0.7367  1.8540
  882MOL0     H19011   8.078   1.356   7.985  0.1515 -1.8492  1.4422
  882MOL0     H19012   7.942   1.249   7.946  3.4572 -0.9466  2.3439
  882MOL0     H19013   8.005   1.254   7.727 -0.1843  2.4498 -0.7852
  882MOL0     H19014   8.158   1.334   7.760 -0.0587  0.8932  1.1376
  882MOL0     H19015   8.054   1.065   7.872  1.1955 -2.0075 -0.5404
  882MOL0     H19016   8.191   1.099   7.749  1.1334 -2.1472  1.1659
  882MOL0     H19017   8.320   1.229   7.913 -0.2377  0.7794 -1.0732
  882MOL0     H19018   8.208   1.181   8.035 -0.3991  0.4934 -0.8779
  882MOL0     H19019   8.276   0.925   7.936 -0.7595 -0.1755  1.2116
  882MOL0     H19020   8.334   1.020   8.072 -2.4681  1.5043  0.4166
  882MOL0     H19021   8.426   1.125   7.722  1.4517  1.6391  0.3317
  882MOL0     H19022   8.697   1.161   7.659  0.8356 -0.7977  0.7332
  882MOL0     H19023   8.791   1.004   7.647 -2.2742 -4.6132  0.0284
  882MOL0     H19024   8.687   1.076   7.420 -3.5844 -1.2297 -3.2786
  882MOL0     H19025   8.529   1.082   7.493 -0.0666 -1.2356 -1.0729
  882MOL0     H19026   8.501   0.873   7.409  0.3881 -0.9126 -0.7594
  882MOL0     H19027   8.595   0.834   7.561  1.4552  0.3902 -0.6840
  882MOL0     H19028   8.708   0.725   7.371  3.9119 -0.4466 -0.8446
  882MOL0     H19029   8.800   0.870   7.406  0.3553 -1.9267  1.0524
  882MOL0     H19030   8.951   0.788   7.202 -0.6913 -0.0117 -0.2519
  882MOL0     H19031   9.088   0.652   7.060  3.8554 -1.0674 -0.2900
  882MOL0     H19032   9.123   0.705   6.899  2.8762  0.1502  0.7234
  882MOL0     H19033   9.170   0.816   7.029  0.7504 -0.4530 -0.6661
  882MOL0     H19034   9.055   1.097   6.613  0.9306  1.2587 -0.2981
  882MOL0     H19035   9.141   1.145   6.400  0.6304  1.4005  3.3290
  882MOL0     H19036   9.442   1.083   6.410  0.3506 -0.6966  0.3451
  882MOL0     H19037   9.519   0.937   6.331 -0.6337 -0.6286  0.3568
  882MOL0     H19038   9.473   1.129   6.113 -0.0719  2.4596 -0.0525
  882MOL0     H19039   9.499   1.227   6.249 -2.5622 -1.1520  0.6139
  882MOL0     H19040   9.707   0.999   6.191 -0.1703  0.4840 -0.1069
  882MOL0     H19041   9.728   1.147   6.292  0.0619  1.2563 -0.6069
  882MOL0     H19042   9.703   1.306   6.128 -0.4003 -1.4168  1.0181
  882MOL0     H19043   9.851   1.220   6.114 -0.0144  0.0676  2.4969
  882MOL0     H19044   9.704   1.276   5.901 -1.9810 -1.5841 -2.9684
  882MOL0     H19045   9.622   1.124   5.934 -1.0547  0.8633 -0.7213
  882MOL0     H19046   9.905   1.191   5.867  0.3568  1.4348  1.5928
  882MOL0     H19047   9.862   1.021   5.935 -0.6466  0.7343  0.7083
  882MOL0     H19048   9.722   1.137   5.707 -0.1198 -0.5726 -0.1487
  882MOL0     H19049   9.703   0.977   5.763 -1.0206 -1.1787 -5.8863
  882MOL0     H19050   9.919   0.908   5.660  2.4367  1.3535  0.9108
  882MOL0     H19051   9.985   1.060   5.661  2.6413 -2.3350 -0.6229
  882MOL0     H19052   9.339   0.760   6.382 -0.7079 -0.8418 -0.2173
  882MOL0     H19053   9.206   0.696   6.589 -4.2593  0.9233  5.2755
  882MOL0     H19054   8.702   0.939   6.804 -1.2616  0.1917  0.1824
  882MOL0     H19055   8.592   0.927   7.023  0.0198 -0.7737 -0.3269
  882MOL0     H19056   7.670   1.831   7.750 -3.1168 -0.0590  1.3842
  882MOL0     H19057   7.611   2.050   7.693 -2.5925 -0.0536  0.2275
  882MOL0     H19058   7.517   2.461   7.784 -0.0101  0.2160 -0.1954
  882MOL0     H19059   7.448   2.687   7.730  0.1856  2.4176  2.0617
  882MOL0     H19060   7.425   2.909   7.684 -0.2685  0.0025 -0.7276
  882MOL0     H19061   7.508   2.971   7.836  0.2817 -0.9056 -0.1511
  882MOL0     H19062   7.484   3.092   7.558  1.5528 -1.2833 -0.8623
  882MOL0     H19063   7.610   3.154   7.676  0.4463 -1.9346  1.4767
  882MOL0     H19064   7.377   3.204   7.820 -0.9014  0.6404 -0.2542
  882MOL0     H19065   7.299   3.172   7.664 -0.7749 -0.6950  1.2717
  882MOL0     H19066   7.523   3.389   7.700 -0.4509  1.9741 -0.8843
  882MOL0     H19067   7.358   3.423   7.704  1.7236 -1.1445  2.4425
  882MOL0     H19068   7.386   3.394   7.291  1.5599 -1.6087 -0.0466
  882MOL0     H19069   7.859   2.800   7.718  2.5122 -1.2134  1.6988
  882MOL0     H19070   7.920   2.580   7.789 -0.2714  0.9050 -0.5071
  883MOL0     O19071   9.745   2.623   6.020 -0.5321  0.6420 -0.7423
  883MOL0     C19072   9.650   2.680   5.968  0.5526 -0.6722 -0.3703
  883MOL0     O19073   9.649   2.753   5.863 -0.2843 -0.4718 -0.0994
  883MOL0     C19074   9.761   2.780   5.792  0.7026  1.0916 -1.0636
  883MOL0     C19075   9.891   2.788   5.846 -0.0763 -0.9512 -1.1684
  883MOL0     C19076   9.999   2.788   5.764 -0.6431  0.4076 -0.0927
  883MOL0     C19077   9.984   2.797   5.623 -0.8872  0.1742 -0.0168
  883MOL0     O19078  10.098   2.803   5.538 -0.7886 -0.5739 -0.4518
  883MOL0     C19079  10.124   2.675   5.473 -0.1322  0.1292  0.3535
  883MOL0     C19080  10.050   2.636   5.338 -0.8446 -0.2491 -0.4181
  883MOL0     C19081  10.075   2.730   5.222  0.3443 -0.3379 -0.2293
  883MOL0     C19082   9.958   2.744   5.125 -1.0378  0.7211 -0.1558
  883MOL0     C19083  10.003   2.815   4.989  0.3622 -0.8330 -0.0560
  883MOL0     C19084   9.886   2.840   4.885  1.0076 -0.7175 -0.2458
  883MOL0     C19085   9.864   2.991   4.883  0.4148  0.0128  0.1921
  883MOL0     C19086   9.766   3.050   4.779  0.1403 -0.8001 -0.5786
  883MOL0     N19087   9.773   3.193   4.771 -0.7468 -0.0257  0.8466
  883MOL0     C19088   9.759   3.268   4.876 -0.1566  0.5941  0.1422
  883MOL0     C19089   9.770   3.389   4.839 -0.8896  0.6564  0.2118
  883MOL0     C19090   9.758   3.509   4.929  0.1902 -0.2515 -0.0991
  883MOL0     C19091   9.892   3.577   4.979  0.4299  0.1057 -0.2684
  883MOL0     C19092   9.961   3.650   4.863 -0.4025 -0.0576 -0.5913
  883MOL0     C19093   9.893   3.778   4.815 -0.3312  0.0628 -1.3890
  883MOL0     O19094   9.947   3.844   4.699 -1.5551 -0.1233  0.2657
  883MOL0     C19095   9.892   3.962   4.674 -0.0123  0.6330  0.0568
  883MOL0     C19096   9.976   4.063   4.633 -0.3985  0.2858  0.8930
  883MOL0     C19097   9.936   4.191   4.599 -0.0810 -0.8410  0.1668
  883MOL0     C19098  10.040   4.277   4.532 -0.0552 -0.3225 -0.4982
  883MOL0     C19099   9.800   4.226   4.624 -0.4493 -0.3024 -0.0720
  883MOL0     C19100   9.747   4.358   4.595  0.1317 -0.1952  0.9028
  883MOL0     O19101   9.613   4.362   4.569 -0.0150  0.3085 -0.4068
  883MOL0     C19102   9.548   4.482   4.579  0.6942 -0.1739  0.0106
  883MOL0     C19103   9.583   4.585   4.664  0.8057 -0.1634 -0.5976
  883MOL0     C19104   9.507   4.700   4.664 -0.8837 -0.4408 -0.3929
  883MOL0     C19105   9.385   4.710   4.591  0.7819 -0.3049 -0.3945
  883MOL0     O19106   9.318   4.832   4.594 -0.2311 -0.0850 -0.1166
  883MOL0     C19107   9.269   4.881   4.721 -0.1174  0.2911 -0.9047
  883MOL0     C19108   9.165   4.978   4.694 -0.2151 -0.2006  0.4982
  883MOL0     C19109   9.234   5.109   4.637 -0.6735  0.2655 -0.2796
  883MOL0     C19110   9.130   5.204   4.582  0.7648 -0.3420 -0.1320
  883MOL0     C19111   9.197   5.331   4.530  0.9048  0.3921  0.0787
  883MOL0     C19112   9.146   5.453   4.604  1.1152 -0.0938 -0.2121
  883MOL0     C19113   9.198   5.577   4.535 -0.0646  0.0712  0.3457
  883MOL0     C19114   9.165   5.711   4.605 -0.4960  0.5665  0.8031
  883MOL0    Cl19115   8.998   5.740   4.569  0.2092 -0.5815  0.2533
  883MOL0     C19116   9.357   4.611   4.495  0.2202  0.6298 -0.0644
  883MOL0     C19117   9.437   4.495   4.503 -0.1078 -0.4713 -0.8093
  883MOL0     O19118   9.823   4.450   4.564 -0.9355  0.7702 -0.1683
  883MOL0     C19119   9.714   4.131   4.670  0.0537  0.8058  0.1783
  883MOL0     C19120   9.757   3.997   4.692  0.7265  0.0914 -1.5652
  883MOL0     N19121   9.803   3.399   4.700  1.0162  0.2792 -0.0102
  883MOL0     N19122   9.795   3.268   4.663 -0.6950 -0.8685  0.1630
  883MOL0     C19123   9.855   2.817   5.571 -0.4745 -0.0929 -0.5469
  883MOL0     C19124   9.747   2.798   5.653 -0.2203  0.0133  0.1470
  883MOL0     C19125   9.521   2.656   6.036 -0.9444 -0.9842  0.3186
  883MOL0     C19126   9.501   2.636   6.179  0.2686  0.1785  0.1694
  883MOL0     C19127   9.366   2.630   6.229  0.2434  0.2041  0.5380
  883MOL0     C19128   9.258   2.641   6.131  0.8232 -0.4896 -1.2535
  883MOL0     O19129   9.121   2.636   6.165 -0.1946 -0.0232 -0.7420
  883MOL0     C19130   9.084   2.630   6.300  0.3714  1.6079 -0.6708
  883MOL0     C19131   8.928   2.653   6.298  0.2682  1.3114  0.3022
  883MOL0     C19132   8.866   2.667   6.445 -0.0011 -0.0682  0.5010
  883MOL0     C19133   8.711   2.656   6.447 -1.1490  0.2098  0.3751
  883MOL0     C19134   8.658   2.520   6.434 -0.2080 -0.6413  0.6793
  883MOL0     C19135   8.613   2.416   6.449  0.4883 -0.0001  0.6310
  883MOL0     C19136   9.275   2.649   5.991 -0.5140  0.3427 -1.0201
  883MOL0     C19137   9.410   2.658   5.951 -0.6572  0.2833 -0.4500
  883MOL0     H19138   9.894   2.803   5.953  1.1037 -0.5519 -1.2506
  883MOL0     H19139  10.098   2.791   5.807 -2.5119  1.0323  4.8373
  883MOL0     H19140  10.230   2.671   5.446 -1.1138 -0.8645 -4.3334
  883MOL0     H19141  10.119   2.603   5.555  1.3618 -1.9143 -1.2386
  883MOL0     H19142  10.064   2.532   5.306 -2.6537  0.2736 -3.3577
  883MOL0     H19143   9.946   2.650   5.367 -0.8080  3.4708 -1.5643
  883MOL0     H19144  10.087   2.832   5.260 -3.8834  0.5760 -0.8696
  883MOL0     H19145  10.173   2.715   5.177 -0.7832 -2.8379 -2.0110
  883MOL0     H19146   9.929   2.644   5.093  0.4988  0.4910 -0.9217
  883MOL0     H19147   9.876   2.803   5.167 -1.9859 -0.4429 -0.3255
  883MOL0     H19148  10.045   2.915   5.005  0.6366  0.1109 -5.0391
  883MOL0     H19149  10.079   2.759   4.935 -1.0118 -4.0817  1.1137
  883MOL0     H19150   9.928   2.799   4.792  2.3246 -3.8369  1.5806
  883MOL0     H19151   9.799   2.788   4.925  3.0629 -4.0941  0.1804
  883MOL0     H19152   9.824   3.027   4.979 -4.0817 -1.3753 -0.9412
  883MOL0     H19153   9.961   3.040   4.870 -0.0406  0.8566 -0.1208
  883MOL0     H19154   9.673   3.025   4.832  0.5743 -2.0466 -0.3610
  883MOL0     H19155   9.773   3.003   4.680 -1.5728 -1.1086 -0.5930
  883MOL0     H19156   9.747   3.233   4.978  3.3060 -1.2452  0.0993
  883MOL0     H19157   9.700   3.579   4.868  0.7959 -0.5925 -1.0879
  883MOL0     H19158   9.701   3.475   5.017 -0.7566 -0.4539 -0.7675
  883MOL0     H19159   9.964   3.503   5.014 -2.5476 -2.8674  0.1042
  883MOL0     H19160   9.862   3.642   5.061  1.4790  0.9393 -0.5316
  883MOL0     H19161   9.961   3.581   4.778  1.4919  0.2085 -0.8595
  883MOL0     H19162  10.065   3.676   4.884 -1.0873  2.5418 -0.0445
  883MOL0     H19163   9.875   3.837   4.905  0.1223 -2.2419  0.3076
  883MOL0     H19164   9.792   3.747   4.786 -1.7599  1.3660  1.7710
  883MOL0     H19165  10.080   4.035   4.624 -0.4409  0.7903 -3.7289
  883MOL0     H19166   9.984   4.319   4.448 -1.6388 -2.6978 -0.7234
  883MOL0     H19167  10.068   4.359   4.599  1.4197 -0.5000 -0.8489
  883MOL0     H19168  10.128   4.215   4.511  2.5819  2.7301  0.7205
  883MOL0     H19169   9.668   4.564   4.727 -0.2106 -1.7847  0.2991
  883MOL0     H19170   9.528   4.779   4.736 -2.7137 -1.5261  1.4533
  883MOL0     H19171   9.239   4.791   4.776  1.9510 -0.1339 -0.3645
  883MOL0     H19172   9.347   4.918   4.789 -0.3909 -2.1750  0.9086
  883MOL0     H19173   9.099   4.936   4.618  2.1173  0.2329 -1.9139
  883MOL0     H19174   9.108   4.992   4.786 -0.0665  0.0924  0.5461
  883MOL0     H19175   9.313   5.087   4.564  2.2336  2.6761  1.8747
  883MOL0     H19176   9.285   5.150   4.725 -1.5870  0.5328  0.1442
  883MOL0     H19177   9.071   5.164   4.499  2.4551 -0.8672 -1.1417
  883MOL0     H19178   9.062   5.226   4.665  0.9647  1.7947 -0.4810
  883MOL0     H19179   9.181   5.350   4.423 -0.3506  1.0225  0.3623
  883MOL0     H19180   9.307   5.331   4.537  0.8599 -0.6882  1.0492
  883MOL0     H19181   9.038   5.453   4.588  1.1825 -0.0507 -0.6938
  883MOL0     H19182   9.159   5.448   4.712 -3.5909 -3.1522  0.5042
  883MOL0     H19183   9.133   5.583   4.448 -2.2022 -0.2592  1.8446
  883MOL0     H19184   9.306   5.574   4.515  0.1708 -1.4968  1.6641
  883MOL0     H19185   9.235   5.792   4.583  1.9270 -1.6552 -0.1945
  883MOL0     H19186   9.175   5.697   4.713 -1.1017 -2.6535  0.5583
  883MOL0     H19187   9.273   4.615   4.426  0.3214  1.8305 -0.1329
  883MOL0     H19188   9.415   4.408   4.442 -2.0074  0.6333 -1.7823
  883MOL0     H19189   9.612   4.164   4.683 -0.7435 -0.8108 -1.4759
  883MOL0     H19190   9.685   3.924   4.726  2.2112 -2.0365 -2.7621
  883MOL0     H19191   9.843   2.825   5.464  1.3867  3.2194 -0.6553
  883MOL0     H19192   9.652   2.774   5.606 -1.3531  1.5421  1.5603
  883MOL0     H19193   9.580   2.632   6.254 -1.3946  0.7409  2.0357
  883MOL0     H19194   9.348   2.615   6.335  0.4311  2.9938  1.0331
  883MOL0     H19195   9.101   2.526   6.331 -5.1667  0.3085 -1.0076
  883MOL0     H19196   9.139   2.713   6.345 -0.2147  1.4153  0.4278
  883MOL0     H19197   8.881   2.571   6.244  3.9212 -0.6210 -0.2672
  883MOL0     H19198   8.923   2.744   6.237 -0.3617  1.2448  0.2540
  883MOL0     H19199   8.895   2.765   6.484 -0.7768 -0.5878  2.4776
  883MOL0     H19200   8.905   2.593   6.516 -1.1552 -1.9592 -0.7473
  883MOL0     H19201   8.670   2.710   6.361  2.1929  0.3368 -1.3028
  883MOL0     H19202   8.674   2.696   6.542 -2.0136  0.0866  0.0971
  883MOL0     H19203   8.570   2.319   6.461  1.4037 -0.5127 -0.1655
  883MOL0     H19204   9.198   2.644   5.915 -4.0347  1.9381  2.1445
  883MOL0     H19205   9.447   2.646   5.850  1.0424 -0.9307  0.2739
  884MOL0     O19206   9.050   4.981   0.285  0.0917  0.1360  0.5980
  884MOL0     C19207   8.998   5.017   0.179 -0.1214  1.1047 -0.7545
  884MOL0     O19208   8.883   5.079   0.166 -0.3015  0.1013 -0.2912
  884MOL0     C19209   8.815   5.128   0.274  0.5344 -0.1421  1.0583
  884MOL0     C19210   8.863   5.221   0.365  0.3177  0.0954  0.2924
  884MOL0     C19211   8.799   5.262   0.482 -1.1180 -1.1400 -0.1664
  884MOL0     C19212   8.677   5.219   0.513  0.3495  0.4819 -0.1285
  884MOL0     O19213   8.600   5.256   0.626  0.3910  0.0498 -0.0849
  884MOL0     C19214   8.625   5.384   0.684  0.8074 -0.0257 -0.5104
  884MOL0     C19215   8.539   5.423   0.809 -0.4903 -0.0221  0.8504
  884MOL0     C19216   8.494   5.570   0.808  0.1851  0.5021 -0.0078
  884MOL0     C19217   8.350   5.570   0.865 -0.6317 -0.3268  0.2666
  884MOL0     C19218   8.251   5.532   0.752 -0.0487 -0.2370 -0.3047
  884MOL0     C19219   8.102   5.534   0.788 -0.7180 -0.2041  0.2831
  884MOL0     C19220   8.037   5.673   0.795  0.1737 -0.1214  0.2543
  884MOL0     C19221   7.884   5.663   0.837 -0.2823  0.4986 -0.4092
  884MOL0     N19222   7.799   5.591   0.738  0.5285  0.5954  0.2741
  884MOL0     C19223   7.821   5.596   0.601 -0.0389 -0.5118 -0.4839
  884MOL0     C19224   7.727   5.512   0.550  0.1637 -0.5100  1.1517
  884MOL0     C19225   7.707   5.476   0.405  0.8938 -0.0382  0.1574
  884MOL0     C19226   7.615   5.577   0.324  0.4574  0.2640  1.4107
  884MOL0     C19227   7.689   5.710   0.302  0.2398 -1.0132  1.1759
  884MOL0     C19228   7.807   5.722   0.209 -0.2188 -0.3432 -0.3714
  884MOL0     O19229   7.762   5.780   0.083  0.1340 -1.0712  0.2963
  884MOL0     C19230   7.836   5.742  -0.028 -0.6817  0.1681 -0.6852
  884MOL0     C19231   7.786   5.785  -0.158 -0.5101 -0.5833 -0.5202
  884MOL0     C19232   7.838   5.759  -0.281  0.5788  0.1924  0.3404
  884MOL0     C19233   7.786   5.838  -0.400 -0.2581 -0.3248  0.5380
  884MOL0     C19234   7.943   5.669  -0.278 -0.2793 -0.6109  0.1390
  884MOL0     C19235   8.003   5.621  -0.402 -0.0457 -0.2704  0.1578
  884MOL0     O19236   8.139   5.590  -0.395 -0.2471 -0.2326  0.2032
  884MOL0     C19237   8.192   5.501  -0.483  0.7609 -0.7410 -0.0752
  884MOL0     C19238   8.327   5.500  -0.474  1.1616 -0.2379  0.6426
  884MOL0     C19239   8.397   5.407  -0.555 -0.1952  0.4336 -0.7187
  884MOL0     C19240   8.341   5.319  -0.645  0.4208  0.0984 -0.1382
  884MOL0     O19241   8.426   5.247  -0.726  0.5316  0.5515  0.1054
  884MOL0     C19242   8.396   5.225  -0.869  0.1386  0.7980  0.3222
  884MOL0     C19243   8.517   5.169  -0.952  0.1666 -0.4978 -0.9284
  884MOL0     C19244   8.618   5.284  -0.967 -0.4230  0.7299 -0.0132
  884MOL0     C19245   8.705   5.325  -0.839 -0.1248 -0.8481 -0.7359
  884MOL0     C19246   8.826   5.409  -0.889 -0.1822 -0.8793 -0.4419
  884MOL0     C19247   8.927   5.323  -0.959  0.4701  0.5594 -0.8609
  884MOL0     C19248   8.989   5.204  -0.874 -0.1668 -0.2915  0.3086
  884MOL0     C19249   9.134   5.178  -0.921 -0.8320 -0.2995 -0.7352
  884MOL0    Cl19250   9.217   5.093  -0.781 -0.4547 -0.3496  0.3013
  884MOL0     C19251   8.195   5.314  -0.644  0.3088  0.4884  0.9964
  884MOL0     C19252   8.121   5.407  -0.565  0.0734 -1.1616  0.4338
  884MOL0     O19253   7.924   5.609  -0.500 -0.0590  0.1851 -0.9461
  884MOL0     C19254   8.011   5.634  -0.154  0.0869 -0.4267 -0.3081
  884MOL0     C19255   7.949   5.657  -0.040 -0.2344 -0.8957  0.0615
  884MOL0     N19256   7.635   5.485   0.652 -0.0797  0.0569 -0.4968
  884MOL0     N19257   7.673   5.542   0.766 -0.3819  0.3038 -1.0812
  884MOL0     C19258   8.618   5.115   0.423 -0.0429 -0.2540 -0.5788
  884MOL0     C19259   8.686   5.079   0.306 -0.3365 -0.2857  0.4931
  884MOL0     C19260   9.059   4.979   0.050 -0.8771  0.7978 -0.4689
  884MOL0     C19261   8.981   4.944  -0.065  0.0965 -0.2250  0.2097
  884MOL0     C19262   9.046   4.888  -0.171  0.1115 -0.1982 -0.5036
  884MOL0     C19263   9.180   4.870  -0.176 -0.9856  0.7130 -0.5723
  884MOL0     O19264   9.247   4.827  -0.291  0.1129 -0.7957 -0.2233
  884MOL0     C19265   9.186   4.843  -0.422 -0.0641  0.0264 -0.0599
  884MOL0     C19266   9.145   4.985  -0.458 -0.5646  0.3299 -0.3291
  884MOL0     C19267   9.249   5.088  -0.419  0.4997 -0.4864  0.4421
  884MOL0     C19268   9.382   5.053  -0.471 -0.2817 -0.0264 -0.0115
  884MOL0     C19269   9.493   5.132  -0.446 -0.1582 -0.6370 -0.1430
  884MOL0     C19270   9.595   5.195  -0.417  0.0922 -0.3379 -0.7942
  884MOL0     C19271   9.259   4.896  -0.068 -0.6999  0.1983 -0.7233
  884MOL0     C19272   9.206   4.946   0.051  0.2304  0.4795 -0.1093
  884MOL0     H19273   8.971   5.228   0.357  0.4160 -2.2307 -1.0866
  884MOL0     H19274   8.846   5.335   0.547 -1.6349 -0.4897 -0.5003
  884MOL0     H19275   8.719   5.371   0.739  0.4250  1.4215  0.5703
  884MOL0     H19276   8.626   5.461   0.606  2.1821 -0.5456 -1.0421
  884MOL0     H19277   8.461   5.348   0.816 -1.7183  1.3243  2.3317
  884MOL0     H19278   8.606   5.401   0.893  1.0103 -0.0394 -0.3089
  884MOL0     H19279   8.566   5.630   0.865  3.2543 -0.6945 -2.2957
  884MOL0     H19280   8.495   5.611   0.707 -0.9291 -1.5045 -0.8950
  884MOL0     H19281   8.342   5.507   0.954 -2.1152 -2.5987 -1.3571
  884MOL0     H19282   8.329   5.670   0.904  1.2775 -0.0443  0.6796
  884MOL0     H19283   8.262   5.590   0.660  1.6110 -1.3438 -0.8617
  884MOL0     H19284   8.278   5.431   0.718 -0.6909 -0.3356 -0.5283
  884MOL0     H19285   8.056   5.471   0.711  0.5151 -1.9304  0.9018
  884MOL0     H19286   8.083   5.483   0.883  0.4790 -2.2055 -0.4946
  884MOL0     H19287   8.091   5.731   0.870 -0.2903 -0.9586  1.2485
  884MOL0     H19288   8.044   5.727   0.700 -0.8587  1.4969  1.0480
  884MOL0     H19289   7.844   5.763   0.850 -1.9834  0.2470 -3.0057
  884MOL0     H19290   7.863   5.615   0.933 -3.3711  0.1379 -1.1525
  884MOL0     H19291   7.903   5.644   0.550  0.8489 -1.6536 -0.1744
  884MOL0     H19292   7.803   5.476   0.353  1.2909  1.5553  0.8107
  884MOL0     H19293   7.667   5.375   0.405  2.1447 -0.5779 -1.1253
  884MOL0     H19294   7.522   5.586   0.381 -0.2170 -3.3729  1.1061
  884MOL0     H19295   7.590   5.540   0.224  0.4656  5.0875 -0.6814
  884MOL0     H19296   7.739   5.733   0.397  1.6825 -2.8606  0.9239
  884MOL0     H19297   7.622   5.793   0.276  1.9984  0.5061  1.3021
  884MOL0     H19298   7.840   5.619   0.189 -1.4951 -1.2937  2.0371
  884MOL0     H19299   7.892   5.776   0.251  1.9438 -3.7790  0.0871
  884MOL0     H19300   7.700   5.850  -0.157  1.5561  2.3855  1.3322
  884MOL0     H19301   7.827   5.939  -0.393  1.0371 -0.4507 -3.1111
  884MOL0     H19302   7.802   5.801  -0.502 -1.7894 -2.1035  0.8701
  884MOL0     H19303   7.678   5.849  -0.384 -0.7874 -2.2345 -1.3075
  884MOL0     H19304   8.377   5.578  -0.417  0.5054 -0.2808  1.2916
  884MOL0     H19305   8.506   5.404  -0.552 -0.1976  1.0174  1.6122
  884MOL0     H19306   8.316   5.153  -0.888  1.4216 -1.1353  1.8075
  884MOL0     H19307   8.364   5.324  -0.900  1.0991  1.1396  0.3948
  884MOL0     H19308   8.551   5.081  -0.898  1.1328  1.2884  1.5560
  884MOL0     H19309   8.486   5.135  -1.052  0.7007 -0.3241 -1.1565
  884MOL0     H19310   8.569   5.371  -1.010 -0.7043 -0.0783 -1.3914
  884MOL0     H19311   8.694   5.256  -1.041 -0.3391  2.2002 -0.5147
  884MOL0     H19312   8.640   5.382  -0.773 -2.4379 -1.8449 -2.0057
  884MOL0     H19313   8.741   5.230  -0.797 -0.6551 -2.4826 -3.6562
  884MOL0     H19314   8.875   5.453  -0.802  2.4097 -1.3689 -1.5737
  884MOL0     H19315   8.798   5.498  -0.947 -1.0760  0.3849  1.7853
  884MOL0     H19316   8.897   5.296  -1.061  2.5920  1.0458 -1.6771
  884MOL0     H19317   9.012   5.389  -0.977  0.3900  1.0856  0.5929
  884MOL0     H19318   8.929   5.114  -0.890 -2.9252  1.4499  0.1488
  884MOL0     H19319   8.986   5.240  -0.771 -3.1834 -0.4838  0.3663
  884MOL0     H19320   9.189   5.265  -0.958  1.0729 -1.2207 -0.1767
  884MOL0     H19321   9.125   5.104  -1.001 -1.6419 -0.2585 -0.6991
  884MOL0     H19322   8.152   5.233  -0.703 -1.8922 -0.1400  3.2688
  884MOL0     H19323   8.015   5.392  -0.549  0.3629 -1.8485  1.8267
  884MOL0     H19324   8.090   5.560  -0.150  2.4777  1.9548 -0.9552
  884MOL0     H19325   8.001   5.617   0.046  0.7951 -0.4741 -0.3527
  884MOL0     H19326   8.516   5.084   0.440  0.5549 -2.6923 -1.0076
  884MOL0     H19327   8.646   5.000   0.243 -1.7324  0.4900  0.3693
  884MOL0     H19328   8.877   4.974  -0.064 -0.2053 -0.7349 -3.5637
  884MOL0     H19329   8.986   4.872  -0.260  1.0690 -0.0995 -1.1815
  884MOL0     H19330   9.259   4.813  -0.497 -1.9974 -0.0963 -2.0039
  884MOL0     H19331   9.096   4.782  -0.437 -1.2342  1.8057 -0.5502
  884MOL0     H19332   9.044   5.010  -0.424 -1.0046  1.1436 -2.1132
  884MOL0     H19333   9.142   4.977  -0.567 -0.2622 -1.8215 -0.2204
  884MOL0     H19334   9.253   5.101  -0.310 -0.3964 -0.3197  0.4677
  884MOL0     H19335   9.210   5.180  -0.462 -0.2971 -0.5037  1.0953
  884MOL0     H19336   9.366   5.044  -0.579 -0.3402  0.7356 -0.0710
  884MOL0     H19337   9.410   4.959  -0.423  0.1867 -0.1773 -0.5682
  884MOL0     H19338   9.674   5.263  -0.392 -2.9934  3.1184  0.4240
  884MOL0     H19339   9.365   4.878  -0.084 -1.1895 -1.6797 -2.1534
  884MOL0     H19340   9.260   4.966   0.143 -1.1643  2.1556  0.4037
  885MOL0     O19341  10.932   1.563  10.115 -0.0284  0.1470  0.3088
  885MOL0     C19342  10.993   1.659  10.156  0.2435  0.5038 -0.6656
  885MOL0     O19343  11.010   1.779  10.088 -0.3003 -0.1812  1.2229
  885MOL0     C19344  10.922   1.809   9.986 -0.7488  0.3435  0.9352
  885MOL0     C19345  10.989   1.847   9.866  0.4646  0.7550 -0.1229
  885MOL0     C19346  10.916   1.855   9.753 -0.7204 -0.1979 -0.1374
  885MOL0     C19347  10.779   1.827   9.753  0.5069  0.0560  1.4719
  885MOL0     O19348  10.702   1.833   9.640 -0.3302 -0.5846 -0.6675
  885MOL0     C19349  10.751   1.770   9.525  0.0352 -0.1152  0.4561
  885MOL0     C19350  10.627   1.730   9.452 -0.5462  0.1010 -0.2646
  885MOL0     C19351  10.646   1.664   9.316 -0.4949  0.2901  0.3287
  885MOL0     C19352  10.547   1.714   9.212  0.1399  0.4569  0.4601
  885MOL0     C19353  10.584   1.659   9.080  0.5324 -0.0670  0.8392
  885MOL0     C19354  10.560   1.514   9.061 -0.3090  0.5436  1.0292
  885MOL0     C19355  10.687   1.430   9.012 -0.8082 -0.9274 -0.1730
  885MOL0     C19356  10.706   1.451   8.865  0.7411  0.3720 -0.9359
  885MOL0     N19357  10.834   1.402   8.819  0.1202 -0.1294  0.2415
  885MOL0     C19358  10.885   1.273   8.828  0.2388 -0.3109  0.9042
  885MOL0     C19359  11.019   1.301   8.787 -0.0641 -0.3895 -0.4076
  885MOL0     C19360  11.134   1.188   8.785  0.9917 -0.9108  0.5114
  885MOL0     C19361  11.232   1.202   8.903 -0.1284 -0.2015  0.1613
  885MOL0     C19362  11.170   1.150   9.034  0.3508 -0.3501  0.1920
  885MOL0     C19363  11.259   1.126   9.153  1.1927 -0.3135  0.0537
  885MOL0     O19364  11.351   1.232   9.144  0.1360  0.0586 -0.0561
  885MOL0     C19365  11.461   1.228   9.238  0.4530  0.6750 -0.5908
  885MOL0     C19366  11.450   1.152   9.360  0.5203 -0.9015  0.3067
  885MOL0     C19367  11.546   1.172   9.466 -0.6204  0.1648  0.2630
  885MOL0     C19368  11.494   1.113   9.603  0.1795 -0.0148 -0.8166
  885MOL0     C19369  11.657   1.263   9.445 -0.5634 -0.4317  0.2082
  885MOL0     C19370  11.758   1.302   9.555  0.3670  0.6662 -0.7786
  885MOL0     O19371  11.870   1.355   9.501 -0.5091 -0.4297  0.0768
  885MOL0     C19372  11.979   1.337   9.573 -0.5678  0.7100  0.7029
  885MOL0     C19373  12.005   1.416   9.684  0.0794  0.3570 -1.0178
  885MOL0     C19374  12.118   1.385   9.763  0.5780  1.8627 -0.4201
  885MOL0     C19375  12.205   1.279   9.729  0.5308  0.2329  0.4128
  885MOL0     O19376  12.307   1.226   9.808  0.0420 -0.0706 -0.3080
  885MOL0     C19377  12.377   1.309   9.904  0.6744 -0.0179 -0.1029
  885MOL0     C19378  12.427   1.216  10.020  0.1666 -0.4185  0.0507
  885MOL0     C19379  12.542   1.126   9.975 -0.3079 -0.4208  1.1422
  885MOL0     C19380  12.616   1.059  10.094 -0.9268 -0.2188  0.6162
  885MOL0     C19381  12.690   1.167  10.180  0.2290  0.1456  0.1705
  885MOL0     C19382  12.766   1.102  10.299 -0.0780  0.2470  0.4382
  885MOL0     C19383  12.892   1.025  10.262  0.4911  0.3058  0.6923
  885MOL0     C19384  12.965   0.948  10.383 -0.5410  0.1823  0.0862
  885MOL0    Cl19385  12.855   0.830  10.456 -0.5590  0.4540 -0.7432
  885MOL0     C19386  12.188   1.203   9.611  0.8042 -0.8489 -0.4637
  885MOL0     C19387  12.069   1.241   9.540  0.0388  0.0815  0.5137
  885MOL0     O19388  11.744   1.270   9.668  0.2758 -0.4991  0.1719
  885MOL0     C19389  11.668   1.334   9.321  0.2225 -0.1989  0.5567
  885MOL0     C19390  11.574   1.319   9.227 -0.0226  0.6395 -0.4518
  885MOL0     N19391  11.037   1.432   8.769 -0.2150 -0.6206  0.1177
  885MOL0     N19392  10.931   1.492   8.791 -0.6272 -0.3726  0.3919
  885MOL0     C19393  10.706   1.803   9.867 -0.1773 -0.2563 -0.4837
  885MOL0     C19394  10.782   1.798   9.982  0.5556  0.6582 -0.1383
  885MOL0     C19395  11.079   1.639  10.278  0.0475  0.5840  0.5842
  885MOL0     C19396  11.155   1.748  10.333  0.0899  0.1533 -0.2431
  885MOL0     C19397  11.245   1.723  10.441  0.4497  0.1643 -0.0243
  885MOL0     C19398  11.249   1.596  10.505 -0.7733  0.6190  1.4473
  885MOL0     O19399  11.320   1.557  10.612  0.5878  0.1307 -0.3757
  885MOL0     C19400  11.434   1.636  10.644  0.4299 -0.3315 -0.6846
  885MOL0     C19401  11.454   1.642  10.796  0.2625  0.6575  0.8426
  885MOL0     C19402  11.493   1.509  10.869 -0.0937 -0.3747 -0.3758
  885MOL0     C19403  11.604   1.432  10.794 -0.0416 -1.1528  0.9411
  885MOL0     C19404  11.732   1.502  10.791  0.5014 -0.0381 -0.6322
  885MOL0     C19405  11.840   1.554  10.772 -0.4795  1.1727 -0.5611
  885MOL0     C19406  11.167   1.494  10.463  0.6925 -0.4342  0.3866
  885MOL0     C19407  11.089   1.512  10.352  0.1124  0.4787  0.5048
  885MOL0     H19408  11.096   1.865   9.871  0.2442  1.7864  2.7770
  885MOL0     H19409  10.979   1.900   9.677 -0.3891  2.4744  1.6125
  885MOL0     H19410  10.813   1.836   9.464  1.0897 -4.2768 -3.5477
  885MOL0     H19411  10.803   1.677   9.551  1.3471 -0.1526 -1.9863
  885MOL0     H19412  10.578   1.647   9.503 -1.1268 -1.8575 -3.7456
  885MOL0     H19413  10.563   1.817   9.435 -0.1379  0.0069 -2.4426
  885MOL0     H19414  10.748   1.677   9.280 -0.4485  3.2789  1.2360
  885MOL0     H19415  10.633   1.556   9.314 -1.2183  0.3349 -3.0662
  885MOL0     H19416  10.445   1.682   9.235 -0.1129  0.4158 -0.6820
  885MOL0     H19417  10.544   1.823   9.212 -1.3493  0.4327 -0.1386
  885MOL0     H19418  10.514   1.704   9.009  0.3057 -1.2189  0.3135
  885MOL0     H19419  10.687   1.680   9.048  1.0104  0.2978  2.4723
  885MOL0     H19420  10.516   1.474   9.152 -0.4972  0.6011  0.9633
  885MOL0     H19421  10.478   1.498   8.990 -0.6325  0.9504  1.3063
  885MOL0     H19422  10.775   1.446   9.076 -0.8825 -2.1076  0.2517
  885MOL0     H19423  10.676   1.322   9.015 -0.8642 -1.0906 -3.2517
  885MOL0     H19424  10.708   1.560   8.852  0.5988  0.8405  2.2222
  885MOL0     H19425  10.630   1.395   8.810 -0.9219 -1.1710  2.6228
  885MOL0     H19426  10.842   1.178   8.856 -0.4994  0.6790  3.3633
  885MOL0     H19427  11.077   1.094   8.784 -2.5897  1.0568  0.2801
  885MOL0     H19428  11.185   1.192   8.688 -0.2726  0.3717 -0.1544
  885MOL0     H19429  11.265   1.306   8.908 -0.3863 -0.1588  1.1892
  885MOL0     H19430  11.325   1.148   8.881  0.3392 -0.0630  1.6685
  885MOL0     H19431  11.126   1.050   9.028  0.8392 -0.5998  0.6470
  885MOL0     H19432  11.085   1.217   9.048  1.1578  0.8719 -0.5342
  885MOL0     H19433  11.300   1.025   9.152  0.3969 -0.6709 -1.9982
  885MOL0     H19434  11.205   1.142   9.247  2.5861  0.0643  0.8252
  885MOL0     H19435  11.353   1.105   9.376 -1.6028  2.3420 -1.7159
  885MOL0     H19436  11.504   1.005   9.618 -0.4710  0.2802  2.2991
  885MOL0     H19437  11.545   1.146   9.694  0.7738  1.7618 -1.7381
  885MOL0     H19438  11.391   1.136   9.628  1.4308  2.3476  3.0454
  885MOL0     H19439  11.946   1.505   9.704 -0.6520 -0.4144  0.4419
  885MOL0     H19440  12.135   1.443   9.853  2.5309 -0.3404  0.7235
  885MOL0     H19441  12.462   1.360   9.858  1.6784 -0.3175  1.3493
  885MOL0     H19442  12.308   1.380   9.948 -2.1956 -5.5477  6.0309
  885MOL0     H19443  12.461   1.270  10.108 -1.3339 -1.4367  1.3036
  885MOL0     H19444  12.337   1.162  10.049  0.6706 -1.0206  0.5296
  885MOL0     H19445  12.617   1.191   9.929 -0.2492 -1.9195 -1.0493
  885MOL0     H19446  12.516   1.057   9.894 -0.2680 -1.9669  2.3923
  885MOL0     H19447  12.554   0.988  10.149 -1.3335 -2.6727 -2.7322
  885MOL0     H19448  12.699   1.004  10.050 -1.8599 -2.1933  1.2322
  885MOL0     H19449  12.611   1.221  10.233  0.5421  0.6571  0.1222
  885MOL0     H19450  12.742   1.240  10.118 -3.0225 -0.4222 -3.6577
  885MOL0     H19451  12.800   1.179  10.369  2.2741 -0.7593  0.5059
  885MOL0     H19452  12.714   1.027  10.359  3.4009 -3.0293 -0.2051
  885MOL0     H19453  12.965   1.100  10.229  0.7418 -0.5629 -0.7924
  885MOL0     H19454  12.876   0.974  10.167 -0.4410  0.4258  0.7773
  885MOL0     H19455  12.988   1.015  10.466  2.1443  0.1293 -0.5322
  885MOL0     H19456  13.045   0.898  10.328 -1.4144 -0.5856 -0.5207
  885MOL0     H19457  12.260   1.127   9.583 -0.3934 -2.5607  0.9367
  885MOL0     H19458  12.038   1.198   9.445  0.7506  0.6026  0.0349
  885MOL0     H19459  11.749   1.404   9.303  2.5099 -2.0671  2.7475
  885MOL0     H19460  11.571   1.381   9.138 -0.7594  2.0491  0.5241
  885MOL0     H19461  10.602   1.778   9.850 -0.8533  0.7349  1.7956
  885MOL0     H19462  10.734   1.783  10.078  1.5793  0.8163  0.4118
  885MOL0     H19463  11.149   1.846  10.288  1.7654  0.1747 -0.4877
  885MOL0     H19464  11.302   1.805  10.482  2.1696 -1.6681  1.4779
  885MOL0     H19465  11.519   1.598  10.587  0.3752 -1.8342  0.1867
  885MOL0     H19466  11.424   1.743  10.624 -0.2486 -0.2174  0.1848
  885MOL0     H19467  11.361   1.668  10.849 -0.3341 -2.4749  1.5314
  885MOL0     H19468  11.540   1.707  10.815  2.2631 -1.2690 -1.0222
  885MOL0     H19469  11.405   1.449  10.890  1.0056 -1.6490  0.8036
  885MOL0     H19470  11.532   1.547  10.964  2.1380  1.7773 -1.9957
  885MOL0     H19471  11.559   1.429  10.694 -5.3743  2.4677  2.7913
  885MOL0     H19472  11.610   1.329  10.830 -0.6980 -3.4463 -4.5273
  885MOL0     H19473  11.938   1.598  10.767  0.5719 -1.0794 -1.3740
  885MOL0     H19474  11.188   1.398  10.509  2.4772 -0.6670 -0.8412
  885MOL0     H19475  11.027   1.435  10.307  0.3800  0.6272 -0.1350
  886MOL0     O19476  10.718   0.833   2.100 -0.6853  0.1289  0.4359
  886MOL0     C19477  10.797   0.739   2.092  0.9335  1.0422  0.3012
  886MOL0     O19478  10.758   0.606   2.103 -0.1917 -0.5066 -0.2820
  886MOL0     C19479  10.632   0.571   2.138  0.4613  0.7940  0.0986
  886MOL0     C19480  10.556   0.624   2.241 -0.2244  0.5968  0.2560
  886MOL0     C19481  10.425   0.584   2.259 -0.2622 -0.4001  0.0619
  886MOL0     C19482  10.375   0.467   2.203 -0.2774 -1.0432  1.1598
  886MOL0     O19483  10.253   0.418   2.234  1.0072  1.1355 -0.6787
  886MOL0     C19484  10.198   0.311   2.153  0.1951  0.1595  0.3151
  886MOL0     C19485  10.068   0.250   2.206  0.0811 -0.6552  0.5655
  886MOL0     C19486  10.012   0.126   2.139  0.5754 -0.1733 -0.4054
  886MOL0     C19487   9.859   0.127   2.141  1.5940 -0.0623  0.5115
  886MOL0     C19488   9.790   0.005   2.064 -0.0646 -0.1636  0.0328
  886MOL0     C19489   9.651   0.044   2.044  0.7562  0.7233 -0.2678
  886MOL0     C19490   9.587  -0.053   1.951  0.1755  0.7647 -0.0820
  886MOL0     C19491   9.593  -0.200   2.004  0.3824  0.7154  0.2778
  886MOL0     N19492   9.509  -0.215   2.121  0.3751 -0.7285 -0.5252
  886MOL0     C19493   9.552  -0.206   2.252 -0.8313 -0.4284  1.1489
  886MOL0     C19494   9.448  -0.219   2.331 -0.1127 -0.6259 -0.0524
  886MOL0     C19495   9.462  -0.222   2.482  0.1998  0.2971  1.0005
  886MOL0     C19496   9.486  -0.081   2.536 -0.3670  0.2443 -0.3584
  886MOL0     C19497   9.371   0.008   2.515 -0.5532 -1.4479 -0.3223
  886MOL0     C19498   9.375   0.118   2.616  0.2432 -0.0884 -0.1107
  886MOL0     O19499   9.264   0.207   2.598  0.3838  0.1073 -0.0061
  886MOL0     C19500   9.269   0.328   2.668 -0.7544 -1.0158 -0.5885
  886MOL0     C19501   9.178   0.425   2.629  0.0954  0.7990  0.2893
  886MOL0     C19502   9.182   0.555   2.682 -0.4324  0.6210 -0.9993
  886MOL0     C19503   9.077   0.646   2.636  0.2929 -0.2306  0.0640
  886MOL0     C19504   9.286   0.586   2.773 -0.2334 -0.1486  0.3002
  886MOL0     C19505   9.299   0.729   2.817  0.0982 -0.1753  0.5730
  886MOL0     O19506   9.414   0.788   2.759  0.2133 -0.0014 -0.1440
  886MOL0     C19507   9.460   0.905   2.817  0.1316  0.0925 -0.0894
  886MOL0     C19508   9.454   1.018   2.732 -0.0007  0.1470 -0.8920
  886MOL0     C19509   9.504   1.143   2.778  0.2562 -0.7495 -0.1795
  886MOL0     C19510   9.548   1.152   2.912 -1.4924  0.6597  0.4180
  886MOL0     O19511   9.572   1.277   2.975 -0.0078 -0.7722  0.7709
  886MOL0     C19512   9.455   1.365   2.989  0.4832 -0.1097 -0.1584
  886MOL0     C19513   9.396   1.328   3.124  1.2658 -0.0038 -0.6898
  886MOL0     C19514   9.298   1.443   3.179  0.0059  0.6960  0.4575
  886MOL0     C19515   9.217   1.420   3.313 -0.2837  0.5685 -0.4161
  886MOL0     C19516   9.307   1.359   3.425  0.2404 -0.3722 -0.8903
  886MOL0     C19517   9.218   1.301   3.533  0.1445  0.8756  0.2490
  886MOL0     C19518   9.294   1.290   3.668 -0.3080 -0.0671  0.3494
  886MOL0     C19519   9.197   1.244   3.776 -0.4877  0.4212 -0.9505
  886MOL0    Cl19520   9.081   1.362   3.817  0.0999 -0.0504 -0.0036
  886MOL0     C19521   9.555   1.037   2.997 -0.1200 -0.1232 -1.5422
  886MOL0     C19522   9.499   0.914   2.953 -0.5330  0.0609  0.5880
  886MOL0     O19523   9.210   0.782   2.886 -0.2212 -0.7341 -0.4209
  886MOL0     C19524   9.389   0.491   2.806 -0.1161  0.0431  0.3065
  886MOL0     C19525   9.371   0.361   2.758 -0.6077 -0.3194 -0.3502
  886MOL0     N19526   9.339  -0.224   2.245  0.0245  0.1705 -0.0707
  886MOL0     N19527   9.371  -0.221   2.131  0.3531 -0.9446  0.1620
  886MOL0     C19528  10.460   0.411   2.106  0.6468  0.2343  0.0313
  886MOL0     C19529  10.576   0.464   2.070 -0.4040 -0.0096  0.0548
  886MOL0     C19530  10.940   0.761   2.066 -0.4844  0.4295  0.7749
  886MOL0     C19531  10.997   0.889   2.072 -0.0407  0.1315  0.5678
  886MOL0     C19532  11.127   0.916   2.037 -1.0999  0.0740 -0.1471
  886MOL0     C19533  11.216   0.814   1.996  0.1481  1.1696 -1.0194
  886MOL0     O19534  11.350   0.817   1.974  0.6885  0.4560 -0.8832
  886MOL0     C19535  11.401   0.949   1.946  0.8213 -0.8895  0.5437
  886MOL0     C19536  11.536   0.939   1.881 -0.2880 -0.2720 -0.0940
  886MOL0     C19537  11.515   0.878   1.744 -0.9507  0.7633  0.1135
  886MOL0     C19538  11.491   0.980   1.627 -1.0541 -0.0984  0.2384
  886MOL0     C19539  11.596   1.081   1.619  0.3056  0.4802 -0.1593
  886MOL0     C19540  11.678   1.162   1.599 -0.4528 -0.1282 -0.5144
  886MOL0     C19541  11.172   0.681   2.019 -0.2534 -0.0079 -0.7548
  886MOL0     C19542  11.040   0.655   2.053 -0.0527  0.1251  0.4025
  886MOL0     H19543  10.593   0.699   2.310  1.1524  2.3219 -2.1564
  886MOL0     H19544  10.373   0.623   2.346 -2.8940 -1.1953 -1.0560
  886MOL0     H19545  10.189   0.347   2.050  1.7118  3.9804  1.3268
  886MOL0     H19546  10.272   0.231   2.160 -0.3092 -0.5053 -1.3747
  886MOL0     H19547  10.092   0.229   2.311  0.6367 -0.5622  0.4627
  886MOL0     H19548   9.987   0.323   2.208  1.4749  1.0253  3.8911
  886MOL0     H19549  10.053   0.120   2.037  1.7123 -1.9703  0.0922
  886MOL0     H19550  10.037   0.030   2.186 -0.5530 -0.0807  0.3977
  886MOL0     H19551   9.825   0.135   2.245 -0.6318  0.6395 -0.2106
  886MOL0     H19552   9.820   0.214   2.088 -1.2388 -2.6911 -2.0776
  886MOL0     H19553   9.844  -0.013   1.971 -1.8269  0.5099 -1.1744
  886MOL0     H19554   9.788  -0.085   2.127 -2.4287  1.8184  3.1307
  886MOL0     H19555   9.586   0.033   2.132 -2.1649 -2.4781 -2.5428
  886MOL0     H19556   9.630   0.145   2.007 -0.4687  0.5886 -0.0038
  886MOL0     H19557   9.487  -0.013   1.931  0.0653  1.3854  1.5257
  886MOL0     H19558   9.650  -0.045   1.862 -0.1638 -0.9865 -0.5185
  886MOL0     H19559   9.693  -0.238   2.028 -0.7476 -3.0588 -0.4525
  886MOL0     H19560   9.551  -0.265   1.927  1.4591  0.0472  0.2380
  886MOL0     H19561   9.654  -0.196   2.288  1.2324 -2.4066 -3.4016
  886MOL0     H19562   9.368  -0.264   2.518 -2.1087  4.2526  0.1726
  886MOL0     H19563   9.548  -0.288   2.493 -1.2074 -1.4635  1.9091
  886MOL0     H19564   9.578  -0.037   2.496  1.5696 -0.6651  2.7891
  886MOL0     H19565   9.508  -0.093   2.642 -1.3322 -1.2175 -0.2926
  886MOL0     H19566   9.280  -0.049   2.532 -0.2307 -1.5541  1.1859
  886MOL0     H19567   9.377   0.051   2.415 -0.6761  1.8160  0.9412
  886MOL0     H19568   9.470   0.172   2.618 -0.0334  0.4903 -1.5892
  886MOL0     H19569   9.360   0.069   2.713 -3.3688 -0.6437 -0.8079
  886MOL0     H19570   9.099   0.400   2.560  0.1130  0.2843  0.4508
  886MOL0     H19571   9.107   0.723   2.564 -0.0922 -0.8166 -0.7543
  886MOL0     H19572   8.996   0.590   2.588 -0.7336  0.5910  0.7974
  886MOL0     H19573   9.033   0.703   2.718  2.9878  1.7589  0.2557
  886MOL0     H19574   9.414   1.011   2.631 -0.4204  1.3435 -0.8230
  886MOL0     H19575   9.484   1.230   2.716 -0.7974 -0.0468  1.0608
  886MOL0     H19576   9.489   1.468   2.997  1.0685 -0.3539  0.6845
  886MOL0     H19577   9.394   1.365   2.898  0.1994 -1.2706  0.0023
  886MOL0     H19578   9.327   1.244   3.111 -1.5267  2.1337 -0.5436
  886MOL0     H19579   9.470   1.287   3.193 -0.2211 -0.9751  0.4021
  886MOL0     H19580   9.227   1.454   3.096  1.6094  1.0523 -0.9114
  886MOL0     H19581   9.351   1.539   3.186  1.4898 -0.0215 -0.4835
  886MOL0     H19582   9.185   1.518   3.351  0.4990  1.2548 -1.4365
  886MOL0     H19583   9.122   1.372   3.291 -0.7688  0.7435  1.1822
  886MOL0     H19584   9.366   1.437   3.473  0.5345 -2.1235  1.8295
  886MOL0     H19585   9.375   1.287   3.380  3.1731  2.9030 -2.1755
  886MOL0     H19586   9.135   1.369   3.554  0.9943  2.2624 -0.7015
  886MOL0     H19587   9.192   1.199   3.505  0.8383  1.4356 -2.8609
  886MOL0     H19588   9.341   1.382   3.704 -2.9591  1.3281  0.5173
  886MOL0     H19589   9.356   1.201   3.657 -1.8842 -1.8976  4.4777
  886MOL0     H19590   9.254   1.225   3.867  0.2544 -1.8347 -1.7899
  886MOL0     H19591   9.142   1.150   3.761 -1.1137  0.9534 -2.1708
  886MOL0     H19592   9.575   1.031   3.104 -2.4992  1.6826 -0.9008
  886MOL0     H19593   9.480   0.837   3.027  0.6011  1.5718  2.5465
  886MOL0     H19594   9.481   0.512   2.860  0.5013  1.8099 -1.3406
  886MOL0     H19595   9.430   0.284   2.805 -4.8989 -3.6740  0.0878
  886MOL0     H19596  10.426   0.323   2.052  0.7614  1.4802 -2.2148
  886MOL0     H19597  10.630   0.424   1.984  0.4101 -3.2372  1.9025
  886MOL0     H19598  10.932   0.972   2.100 -0.7344  0.0354 -0.6736
  886MOL0     H19599  11.164   1.017   2.047 -0.5865 -0.1469  0.2607
  886MOL0     H19600  11.331   1.001   1.880 -1.6473 -0.4028  3.3234
  886MOL0     H19601  11.401   1.008   2.038 -4.0616  1.2447 -0.4980
  886MOL0     H19602  11.598   0.873   1.942  1.6233 -0.3029 -1.9633
  886MOL0     H19603  11.579   1.039   1.874  0.9047 -0.7826 -0.2277
  886MOL0     H19604  11.435   0.804   1.754  1.3829 -1.6050  3.0758
  886MOL0     H19605  11.606   0.830   1.708 -1.3694 -0.6805  0.9050
  886MOL0     H19606  11.391   1.025   1.638 -0.0684  2.1491  0.6481
  886MOL0     H19607  11.484   0.922   1.535  4.3771  0.3117 -0.7662
  886MOL0     H19608  11.745   1.235   1.557 -1.9276  0.6448 -1.6062
  886MOL0     H19609  11.246   0.603   2.009  0.2074  0.7172 -4.7491
  886MOL0     H19610  10.998   0.556   2.068 -0.7952  0.3932  0.1217
  887MOL0     O19611   6.644   4.486   6.357  0.3097  0.5080 -0.6747
  887MOL0     C19612   6.686   4.597   6.322  0.8530  0.9021  0.3600
  887MOL0     O19613   6.760   4.683   6.399  0.6882  0.6552  0.2847
  887MOL0     C19614   6.779   4.656   6.534 -0.1950  0.4792 -0.6312
  887MOL0     C19615   6.823   4.530   6.594 -0.2463  0.7102  0.0263
  887MOL0     C19616   6.856   4.526   6.729 -0.6699 -1.2037 -0.2002
  887MOL0     C19617   6.848   4.639   6.807  1.1690  0.5663 -0.3841
  887MOL0     O19618   6.864   4.622   6.945 -0.9201 -0.2556  0.2271
  887MOL0     C19619   6.992   4.659   6.994  0.3238  0.4401  0.7417
  887MOL0     C19620   7.110   4.581   6.955 -0.1009  0.3372  0.3568
  887MOL0     C19621   7.236   4.645   7.007 -0.6422  0.1049 -0.3308
  887MOL0     C19622   7.353   4.545   6.993  0.5204 -0.0404 -0.7846
  887MOL0     C19623   7.446   4.548   7.116  0.4355 -0.6390  0.2195
  887MOL0     C19624   7.565   4.460   7.076  1.0450 -1.1832 -0.0556
  887MOL0     C19625   7.664   4.454   7.192 -0.4395 -0.3559 -0.2960
  887MOL0     C19626   7.758   4.341   7.169  0.2249 -0.3468 -0.8266
  887MOL0     N19627   7.869   4.340   7.268  0.1786 -0.3141  0.2492
  887MOL0     C19628   7.865   4.335   7.407  0.2546  0.7583  0.4423
  887MOL0     C19629   7.992   4.361   7.435 -0.1876 -0.3718 -0.2831
  887MOL0     C19630   8.059   4.380   7.570 -0.2950 -0.4885  0.4326
  887MOL0     C19631   8.002   4.325   7.695  0.2458 -0.7071 -0.1912
  887MOL0     C19632   8.042   4.182   7.725 -0.8593  0.8262  0.1523
  887MOL0     C19633   8.016   4.087   7.611 -0.0034  0.8520  0.4575
  887MOL0     O19634   8.134   4.047   7.543  0.3386 -0.6838  0.0608
  887MOL0     C19635   8.105   3.959   7.433  0.0147 -0.2769  0.1988
  887MOL0     C19636   8.110   3.820   7.449 -0.4807  0.5215  0.6631
  887MOL0     C19637   8.108   3.733   7.339 -0.2386  0.4261 -0.4890
  887MOL0     C19638   8.134   3.592   7.389 -0.0816  0.0283  0.0317
  887MOL0     C19639   8.107   3.791   7.211 -0.4624  0.1461  0.3599
  887MOL0     C19640   8.103   3.702   7.085  1.1499  0.2017  0.0908
  887MOL0     O19641   8.159   3.760   6.976 -0.1450 -0.2710  0.6148
  887MOL0     C19642   8.225   3.688   6.876  0.2588  0.1963  0.4803
  887MOL0     C19643   8.212   3.749   6.758 -0.4630  0.1057 -0.6960
  887MOL0     C19644   8.279   3.698   6.651  1.0702  0.8301 -0.1252
  887MOL0     C19645   8.352   3.581   6.663 -0.2717 -0.1588  0.0489
  887MOL0     O19646   8.409   3.551   6.537  0.2660  0.0472  0.5721
  887MOL0     C19647   8.409   3.415   6.481 -0.1836  0.3075 -0.5613
  887MOL0     C19648   8.311   3.392   6.364 -0.1366 -0.0369 -0.5829
  887MOL0     C19649   8.169   3.435   6.412 -0.3720  0.5084 -0.0854
  887MOL0     C19650   8.098   3.328   6.489  0.4368 -0.0405 -1.2655
  887MOL0     C19651   7.947   3.362   6.530 -0.0692  0.6644  0.7422
  887MOL0     C19652   7.880   3.261   6.616  0.3275  0.6454  0.3716
  887MOL0     C19653   7.728   3.281   6.605  0.4913 -0.3973  0.3964
  887MOL0     C19654   7.655   3.203   6.714  0.3398 -0.0871  0.5042
  887MOL0    Cl19655   7.475   3.243   6.712 -0.4192  0.1197  0.1673
  887MOL0     C19656   8.359   3.517   6.788 -0.7748  0.2301  0.5969
  887MOL0     C19657   8.295   3.573   6.899 -0.3843  1.0047  1.1093
  887MOL0     O19658   8.055   3.585   7.083  0.0048  1.3550 -0.2701
  887MOL0     C19659   8.085   3.928   7.201  0.1755 -0.5908 -0.3349
  887MOL0     C19660   8.079   4.011   7.305  0.6296  0.3557 -0.2116
  887MOL0     N19661   8.065   4.372   7.319  0.8707 -0.3152 -0.2509
  887MOL0     N19662   7.989   4.360   7.220 -0.4119  0.0200 -0.2971
  887MOL0     C19663   6.779   4.749   6.758 -0.1652 -0.3889 -0.9464
  887MOL0     C19664   6.739   4.757   6.620 -0.6650  0.4008  0.3885
  887MOL0     C19665   6.667   4.624   6.175  0.1664 -0.3408  0.0097
  887MOL0     C19666   6.745   4.722   6.126  0.0484 -0.2065  0.5733
  887MOL0     C19667   6.748   4.746   5.983 -0.1790  0.0789 -0.8734
  887MOL0     C19668   6.666   4.671   5.904  0.0868  0.9450  0.4128
  887MOL0     O19669   6.656   4.701   5.771  0.9176  0.6482  0.3274
  887MOL0     C19670   6.533   4.769   5.724  0.3102 -0.0884  0.1753
  887MOL0     C19671   6.536   4.910   5.783  0.0545  0.5509  0.2716
  887MOL0     C19672   6.663   4.999   5.745 -0.2664  0.3325 -0.6722
  887MOL0     C19673   6.638   5.133   5.669  0.2539  0.8095  0.9397
  887MOL0     C19674   6.625   5.237   5.771 -1.0548  0.1163  0.1808
  887MOL0     C19675   6.606   5.297   5.874 -0.7686  0.9450  0.0021
  887MOL0     C19676   6.579   4.577   5.954  0.0089  0.1511  0.7158
  887MOL0     C19677   6.574   4.558   6.089  0.4584  0.4510 -0.9831
  887MOL0     H19678   6.821   4.441   6.531  3.1672 -0.0487  0.7706
  887MOL0     H19679   6.881   4.436   6.785 -0.6241 -0.8613  0.3342
  887MOL0     H19680   7.004   4.765   6.969 -2.0215  0.5141 -0.3858
  887MOL0     H19681   6.998   4.665   7.103  2.8665  1.3059  0.6189
  887MOL0     H19682   7.116   4.485   7.006  2.0811  1.4098  2.3007
  887MOL0     H19683   7.109   4.557   6.849  1.7977 -0.3700  0.4637
  887MOL0     H19684   7.255   4.737   6.951  0.0181  1.4141  1.8847
  887MOL0     H19685   7.219   4.671   7.112  0.2364  3.1486 -0.8355
  887MOL0     H19686   7.312   4.444   6.993  0.0404  0.1495 -1.7298
  887MOL0     H19687   7.399   4.581   6.901 -2.6688  0.4462 -2.3023
  887MOL0     H19688   7.489   4.646   7.137 -0.9592  0.5993 -2.2301
  887MOL0     H19689   7.390   4.518   7.205 -0.0636  2.2622  0.9828
  887MOL0     H19690   7.519   4.364   7.052 -3.5945  1.6403 -4.3434
  887MOL0     H19691   7.612   4.504   6.988 -3.3155  1.8065 -1.2373
  887MOL0     H19692   7.707   4.554   7.186 -1.2138  0.4324  4.0494
  887MOL0     H19693   7.601   4.451   7.282 -1.1089  1.7805 -0.6352
  887MOL0     H19694   7.794   4.349   7.066  0.4729 -1.9276 -0.8774
  887MOL0     H19695   7.691   4.256   7.182 -0.4845 -0.2649 -3.3426
  887MOL0     H19696   7.775   4.333   7.469 -3.4980  1.6519 -4.3268
  887MOL0     H19697   8.162   4.344   7.557  0.5748  1.1326  2.2795
  887MOL0     H19698   8.072   4.488   7.581  0.8166 -0.4514 -0.8775
  887MOL0     H19699   7.893   4.335   7.683 -0.3897  2.0340  5.0729
  887MOL0     H19700   8.027   4.382   7.785  1.3831 -0.6243 -0.5436
  887MOL0     H19701   7.994   4.153   7.819 -0.3486 -0.1551  0.1281
  887MOL0     H19702   8.147   4.166   7.751 -1.3573 -4.8751 -0.1154
  887MOL0     H19703   7.939   4.112   7.538  1.6163 -1.7214 -2.3153
  887MOL0     H19704   7.970   4.001   7.662  0.7311 -0.9173 -1.7203
  887MOL0     H19705   8.129   3.784   7.550 -1.1401  1.5716  1.1773
  887MOL0     H19706   8.099   3.569   7.490  0.1671 -1.3873 -0.1779
  887MOL0     H19707   8.090   3.516   7.323  1.1894 -2.2701  1.6939
  887MOL0     H19708   8.242   3.575   7.394  0.3596  0.6790 -3.9304
  887MOL0     H19709   8.160   3.842   6.738 -0.2307  0.0693 -1.5423
  887MOL0     H19710   8.266   3.745   6.554 -1.5420 -2.8933 -1.7952
  887MOL0     H19711   8.511   3.391   6.450 -0.2482  0.9831 -1.3303
  887MOL0     H19712   8.378   3.356   6.567  0.9254  2.9778  1.8358
  887MOL0     H19713   8.334   3.462   6.284 -2.4419  3.6591  1.6678
  887MOL0     H19714   8.311   3.287   6.333  0.3253 -0.1086 -0.3600
  887MOL0     H19715   8.112   3.466   6.325  0.1067  0.1213 -0.5451
  887MOL0     H19716   8.181   3.526   6.472  1.5995  1.1201 -1.3203
  887MOL0     H19717   8.113   3.230   6.441  1.9889 -0.6885  0.4134
  887MOL0     H19718   8.147   3.306   6.584 -0.9048 -1.5971 -0.8866
  887MOL0     H19719   7.875   3.359   6.448 -2.8890 -1.1602  3.0759
  887MOL0     H19720   7.935   3.464   6.568 -2.7540  0.9604 -0.7010
  887MOL0     H19721   7.902   3.159   6.581 -1.2275  0.6447 -0.6956
  887MOL0     H19722   7.906   3.286   6.719 -2.1872  3.5195  0.4342
  887MOL0     H19723   7.702   3.246   6.504 -1.5502  0.1587  0.6885
  887MOL0     H19724   7.719   3.390   6.617  3.3666 -0.1718  1.2151
  887MOL0     H19725   7.709   3.238   6.803 -0.4462  2.3691  0.0852
  887MOL0     H19726   7.656   3.094   6.707 -2.1006 -0.0633 -1.1580
  887MOL0     H19727   8.420   3.427   6.789 -0.1661  0.6033 -0.4686
  887MOL0     H19728   8.289   3.509   6.986 -0.5536 -0.1908  0.2346
  887MOL0     H19729   8.054   3.980   7.111 -3.4180  2.2226  2.2187
  887MOL0     H19730   8.067   4.116   7.279  0.5540  0.0826 -1.3557
  887MOL0     H19731   6.743   4.825   6.826  0.4478 -1.5328  0.7312
  887MOL0     H19732   6.676   4.837   6.582  0.4151  1.0880  0.0103
  887MOL0     H19733   6.800   4.789   6.192 -2.0659  1.5458  0.6342
  887MOL0     H19734   6.814   4.821   5.939  2.6850 -1.7559  0.0150
  887MOL0     H19735   6.527   4.772   5.614  1.0379 -1.4918  0.0661
  887MOL0     H19736   6.441   4.716   5.753  0.4339  0.6698  2.0716
  887MOL0     H19737   6.549   4.882   5.888 -0.2207 -0.7723 -0.0347
  887MOL0     H19738   6.436   4.953   5.770 -2.0420 -3.5843  1.0683
  887MOL0     H19739   6.732   4.934   5.689  2.6809  1.2763  1.6100
  887MOL0     H19740   6.712   5.009   5.842  0.7528 -0.4859 -1.0785
  887MOL0     H19741   6.557   5.132   5.596  1.7931  2.1890 -0.9078
  887MOL0     H19742   6.721   5.153   5.601 -1.4951 -1.4161 -2.0872
  887MOL0     H19743   6.603   5.370   5.953 -1.1472  1.3688 -0.3954
  887MOL0     H19744   6.510   4.522   5.891  0.3591 -1.9953  2.0951
  887MOL0     H19745   6.491   4.501   6.129  0.6578  2.3401  2.5502
  888MOL0     O19746   8.468  10.642   5.086  0.3187 -0.6772  0.6479
  888MOL0     C19747   8.556  10.592   5.155  0.5471  0.3994 -1.1917
  888MOL0     O19748   8.530  10.503   5.256  0.1582  0.5773  1.0162
  888MOL0     C19749   8.404  10.515   5.308  0.4660 -0.4497  0.8203
  888MOL0     C19750   8.306  10.423   5.268  0.3057 -0.2605 -0.3145
  888MOL0     C19751   8.181  10.426   5.326  0.4930 -0.1193  0.3857
  888MOL0     C19752   8.155  10.525   5.425  0.6526 -0.1218  0.3926
  888MOL0     O19753   8.034  10.548   5.480  0.8347 -0.4499 -0.0091
  888MOL0     C19754   7.923  10.555   5.384 -0.5589 -0.6261  0.3305
  888MOL0     C19755   7.848  10.422   5.406  0.0578  0.0330  0.4390
  888MOL0     C19756   7.786  10.411   5.549  0.6513 -0.5053 -0.2147
  888MOL0     C19757   7.632  10.411   5.544 -0.2726  0.0416 -0.4404
  888MOL0     C19758   7.569  10.298   5.455  1.8039 -0.5998  0.2083
  888MOL0     C19759   7.430  10.259   5.498  0.3658 -1.0405 -0.3539
  888MOL0     C19760   7.378  10.134   5.435  0.4234 -0.0229 -0.3714
  888MOL0     C19761   7.485  10.034   5.376  0.0929  0.1644  1.2415
  888MOL0     N19762   7.428   9.908   5.322 -0.9698  0.6457  0.2760
  888MOL0     C19763   7.323   9.890   5.229  0.7733  0.0320 -0.2250
  888MOL0     C19764   7.343   9.767   5.178 -0.0335  0.5109 -0.5723
  888MOL0     C19765   7.257   9.702   5.074  0.1429  0.7143  0.0353
  888MOL0     C19766   7.324   9.715   4.935  0.4854 -1.0601  0.1603
  888MOL0     C19767   7.231   9.654   4.826  0.1958  0.4717 -0.0034
  888MOL0     C19768   7.321   9.635   4.699 -0.5203  1.3401  0.1828
  888MOL0     O19769   7.423   9.525   4.712 -0.1806  0.0708 -0.5700
  888MOL0     C19770   7.543   9.533   4.643  0.1872  0.3907 -0.1077
  888MOL0     C19771   7.580   9.630   4.543  0.1103  0.2756 -0.0984
  888MOL0     C19772   7.698   9.633   4.472  0.1637  0.3952  0.9619
  888MOL0     C19773   7.709   9.746   4.371  1.0107  0.4801 -0.3615
  888MOL0     C19774   7.797   9.540   4.502 -0.3073  0.3147 -0.5266
  888MOL0     C19775   7.929   9.530   4.439 -0.5484 -0.3305  0.3369
  888MOL0     O19776   7.953   9.612   4.321  0.6975 -0.0757  0.2749
  888MOL0     C19777   8.043   9.561   4.233  0.5056 -0.1562 -1.0945
  888MOL0     C19778   8.143   9.647   4.183 -0.1814  0.1365  0.7556
  888MOL0     C19779   8.229   9.614   4.075  0.1598  0.6704 -0.4664
  888MOL0     C19780   8.207   9.496   4.005  0.1528  0.9130  0.0105
  888MOL0     O19781   8.305   9.444   3.915 -0.1126 -0.3570  0.3699
  888MOL0     C19782   8.369   9.535   3.820 -0.0383  0.1636  0.1184
  888MOL0     C19783   8.265   9.583   3.727  0.6517 -0.2699  0.0066
  888MOL0     C19784   8.185   9.472   3.647  0.0333  0.2345  0.2051
  888MOL0     C19785   8.080   9.536   3.558 -0.2454 -0.8932  0.2682
  888MOL0     C19786   8.022   9.445   3.449 -0.7575  1.2793 -0.1046
  888MOL0     C19787   7.895   9.503   3.379  0.3473 -0.4732 -0.0110
  888MOL0     C19788   7.776   9.480   3.462  0.2797 -0.7513  0.1544
  888MOL0     C19789   7.648   9.534   3.407  0.0193 -0.0427 -0.9432
  888MOL0    Cl19790   7.622   9.474   3.240  0.2942 -0.1376 -0.0629
  888MOL0     C19791   8.095   9.413   4.041 -0.7287  0.6218 -0.3368
  888MOL0     C19792   8.022   9.439   4.163  0.3005  0.1899  0.2926
  888MOL0     O19793   8.012   9.459   4.505 -0.2378  0.1437 -0.7831
  888MOL0     C19794   7.761   9.438   4.605 -0.3733 -0.8218  0.2846
  888MOL0     C19795   7.637   9.432   4.675 -0.2286 -0.3878  0.0405
  888MOL0     N19796   7.464   9.713   5.228  0.2658 -0.0601 -0.0504
  888MOL0     N19797   7.512   9.801   5.306  0.0058 -0.1841  0.0091
  888MOL0     C19798   8.257  10.615   5.460 -0.3920  0.5601 -0.9570
  888MOL0     C19799   8.383  10.608   5.412 -0.0038  0.5291 -1.1033
  888MOL0     C19800   8.692  10.638   5.134  0.0375  0.2665  0.1599
  888MOL0     C19801   8.714  10.730   5.023 -0.0425  0.0332  0.0878
  888MOL0     C19802   8.844  10.783   5.009 -0.3121  0.3806  0.1246
  888MOL0     C19803   8.956  10.721   5.078 -0.7971  0.2042  0.0473
  888MOL0     O19804   9.091  10.740   5.057  0.5788 -0.2300  0.3956
  888MOL0     C19805   9.132  10.860   4.986 -0.2934 -0.9932 -0.2368
  888MOL0     C19806   9.131  10.835   4.842 -0.3737  0.5790  0.8586
  888MOL0     C19807   9.154  10.977   4.774  0.3768 -0.3144  0.3720
  888MOL0     C19808   9.299  11.028   4.796 -0.1708 -0.4407 -1.0770
  888MOL0     C19809   9.321  11.144   4.711  0.6576  0.1612 -0.9099
  888MOL0     C19810   9.326  11.254   4.656 -0.9006 -0.5739  0.6341
  888MOL0     C19811   8.928  10.621   5.167 -0.1510 -0.7491  0.5112
  888MOL0     C19812   8.798  10.587   5.201 -0.6889  0.3674 -0.4167
  888MOL0     H19813   8.337  10.344   5.201  1.9166  1.6984 -2.0061
  888MOL0     H19814   8.108  10.349   5.302  3.5375 -2.7279 -1.1700
  888MOL0     H19815   7.863  10.641   5.414 -2.2336 -0.8249 -2.1767
  888MOL0     H19816   7.951  10.584   5.283 -0.4500  0.1502  0.5760
  888MOL0     H19817   7.777  10.434   5.324 -1.9469  0.7300  2.1648
  888MOL0     H19818   7.918  10.339   5.396  0.1302 -0.1723  2.2727
  888MOL0     H19819   7.813  10.314   5.591  2.9680  0.6684  1.2032
  888MOL0     H19820   7.829  10.488   5.614  2.8929 -2.2802  0.5231
  888MOL0     H19821   7.604  10.390   5.648  1.1581  4.3907  1.0408
  888MOL0     H19822   7.591  10.511   5.531  0.8437  0.7089  0.9092
  888MOL0     H19823   7.559  10.334   5.352 -1.6592  1.5786  1.1269
  888MOL0     H19824   7.625  10.206   5.474  0.4939 -1.3805  0.4943
  888MOL0     H19825   7.438  10.238   5.605  4.6714 -0.7993 -0.4707
  888MOL0     H19826   7.359  10.341   5.482  2.4269  1.5235  2.4194
  888MOL0     H19827   7.331  10.069   5.509  0.5691  1.9384  1.5371
  888MOL0     H19828   7.313  10.160   5.351  1.1345  4.8894  0.3238
  888MOL0     H19829   7.554  10.008   5.456 -0.0802  0.0797  1.3637
  888MOL0     H19830   7.552  10.078   5.302  2.8147 -2.1459  2.1709
  888MOL0     H19831   7.249   9.964   5.202  3.2987  4.2314  3.0704
  888MOL0     H19832   7.243   9.597   5.100  4.8973 -0.2524 -0.2553
  888MOL0     H19833   7.159   9.749   5.082  1.1635  2.7773  1.6178
  888MOL0     H19834   7.408   9.645   4.946  0.5639 -0.8934  0.6522
  888MOL0     H19835   7.341   9.821   4.916  0.4211 -0.1928  4.0899
  888MOL0     H19836   7.151   9.729   4.820  1.7213  2.3993  2.1573
  888MOL0     H19837   7.188   9.558   4.857 -1.2359  0.8278 -0.7861
  888MOL0     H19838   7.369   9.731   4.683  1.5679  1.4222  5.1449
  888MOL0     H19839   7.261   9.615   4.610  2.5048 -0.4014 -1.6374
  888MOL0     H19840   7.507   9.708   4.523 -1.4369 -1.1015 -0.0761
  888MOL0     H19841   7.612   9.794   4.355  0.2661 -1.7849 -3.4419
  888MOL0     H19842   7.781   9.822   4.404  0.2669  1.1198 -0.1760
  888MOL0     H19843   7.734   9.703   4.274 -0.1647 -1.1747  0.0276
  888MOL0     H19844   8.151   9.744   4.230 -2.1242  1.7038 -1.8947
  888MOL0     H19845   8.304   9.687   4.048  1.7470 -0.6853  0.0553
  888MOL0     H19846   8.412   9.625   3.866  1.5220 -1.6892  2.5350
  888MOL0     H19847   8.449   9.470   3.786 -2.4666 -2.2364 -1.3937
  888MOL0     H19848   8.201   9.660   3.772 -1.5764 -2.0737  0.0859
  888MOL0     H19849   8.311   9.646   3.650 -1.5811  1.9855  0.4033
  888MOL0     H19850   8.135   9.411   3.723 -1.4647  0.4145 -0.5949
  888MOL0     H19851   8.254   9.412   3.588 -1.4225 -1.1096 -0.1777
  888MOL0     H19852   7.995   9.568   3.618 -0.2365 -1.2971  0.5001
  888MOL0     H19853   8.137   9.608   3.498 -1.9164 -0.7512 -1.2468
  888MOL0     H19854   7.999   9.352   3.501 -0.5273  0.5382 -1.2813
  888MOL0     H19855   8.099   9.432   3.372 -3.2111  0.8286 -2.6262
  888MOL0     H19856   7.914   9.608   3.356 -2.2302 -0.2426 -1.5442
  888MOL0     H19857   7.878   9.469   3.276  0.1311  1.8532 -0.7879
  888MOL0     H19858   7.796   9.521   3.561  4.0796  2.3214 -1.6309
  888MOL0     H19859   7.770   9.371   3.469 -0.5289 -0.8559 -1.6452
  888MOL0     H19860   7.641   9.643   3.413 -0.0230 -0.1060  1.1329
  888MOL0     H19861   7.564   9.500   3.470 -0.3045  5.8168  2.5559
  888MOL0     H19862   8.074   9.323   3.985 -1.1522 -0.0653  0.8789
  888MOL0     H19863   7.954   9.359   4.190  2.5388 -2.4491 -1.4367
  888MOL0     H19864   7.842   9.370   4.628  0.5328  1.0267  3.0334
  888MOL0     H19865   7.623   9.351   4.746 -2.2981  1.4489  1.8788
  888MOL0     H19866   8.241  10.680   5.545  1.3534 -1.8004  1.3309
  888MOL0     H19867   8.453  10.681   5.450  0.9338  0.4703 -2.6073
  888MOL0     H19868   8.635  10.764   4.957  0.3054 -2.0563 -1.5340
  888MOL0     H19869   8.862  10.845   4.922 -2.1060 -0.1170 -0.6380
  888MOL0     H19870   9.067  10.947   5.000 -1.8218 -1.7307 -2.3433
  888MOL0     H19871   9.235  10.875   5.022 -0.7927  0.8140  0.5651
  888MOL0     H19872   9.038  10.785   4.814  0.2101  0.0899 -0.2732
  888MOL0     H19873   9.210  10.760   4.834 -0.7397 -0.2223  3.5702
  888MOL0     H19874   9.086  11.058   4.801 -5.6605 -4.6240 -0.0688
  888MOL0     H19875   9.125  10.975   4.669 -0.4625 -0.8441  0.6005
  888MOL0     H19876   9.360  10.944   4.762 -0.0692 -1.1368  0.7159
  888MOL0     H19877   9.337  11.050   4.896  1.3738 -0.6844 -1.5745
  888MOL0     H19878   9.321  11.353   4.615  2.9536  0.7462  2.7410
  888MOL0     H19879   9.016  10.571   5.206  2.0750 -0.5374 -3.7189
  888MOL0     H19880   8.783  10.516   5.282 -1.9983  0.4375 -0.5664
  889MOL0     O19881   4.156   0.843   7.232 -0.1057  0.3203 -0.1527
  889MOL0     C19882   4.053   0.854   7.295  0.6184  0.9179  0.4374
  889MOL0     O19883   3.926   0.890   7.243 -0.2653  0.7914  0.0587
  889MOL0     C19884   3.941   0.930   7.117  1.0567  0.6831 -0.5412
  889MOL0     C19885   3.987   1.056   7.078  0.4310 -0.5229 -0.7674
  889MOL0     C19886   4.011   1.081   6.941 -0.9788  0.5947  0.7224
  889MOL0     C19887   3.997   0.979   6.842  0.5513  0.0131 -0.0155
  889MOL0     O19888   4.047   0.988   6.711  0.2290  0.2479 -0.5326
  889MOL0     C19889   3.951   0.937   6.606 -0.8306  0.4711  0.5135
  889MOL0     C19890   3.893   1.058   6.524 -0.9865  0.2250  0.4410
  889MOL0     C19891   3.996   1.123   6.437 -0.0595 -0.4519 -0.4016
  889MOL0     C19892   4.025   1.064   6.298  0.7668  0.4640 -0.3422
  889MOL0     C19893   3.892   1.060   6.213 -1.0353 -0.8281 -1.2556
  889MOL0     C19894   3.795   1.181   6.210 -0.2647 -0.9443 -0.4859
  889MOL0     C19895   3.861   1.310   6.160 -0.2450 -0.2847 -0.6535
  889MOL0     C19896   3.908   1.286   6.013  0.5948  0.0290 -0.2467
  889MOL0     N19897   3.937   1.415   5.934  0.5745  0.5832 -0.3747
  889MOL0     C19898   4.017   1.519   5.972  0.6736  0.2566  0.5463
  889MOL0     C19899   4.025   1.604   5.864  0.4050  0.1855  0.1899
  889MOL0     C19900   4.120   1.712   5.851  0.5536 -0.2452  0.0120
  889MOL0     C19901   4.249   1.654   5.790  0.4079  0.1822  0.2608
  889MOL0     C19902   4.257   1.637   5.635  0.4802 -0.5231  0.2971
  889MOL0     C19903   4.393   1.606   5.591  0.0206 -0.0974  0.5105
  889MOL0     O19904   4.390   1.566   5.448 -0.6194 -0.1103  0.4076
  889MOL0     C19905   4.390   1.430   5.416  1.2049  0.1063 -0.5214
  889MOL0     C19906   4.423   1.386   5.293  0.6236 -0.0674  0.0407
  889MOL0     C19907   4.443   1.248   5.270  0.7813 -0.3345  0.4662
  889MOL0     C19908   4.492   1.212   5.135  0.4767 -0.5027  0.4262
  889MOL0     C19909   4.418   1.159   5.371  0.1455 -0.2698 -0.5237
  889MOL0     C19910   4.434   1.013   5.344  1.1677  0.2511 -0.1562
  889MOL0     O19911   4.541   0.967   5.269  0.5056  0.7726  0.2866
  889MOL0     C19912   4.583   0.837   5.286 -0.3958 -0.9013 -0.5009
  889MOL0     C19913   4.591   0.754   5.174 -0.1260 -0.0823 -0.3048
  889MOL0     C19914   4.615   0.619   5.189 -0.1163  0.9209 -0.1830
  889MOL0     C19915   4.649   0.558   5.314 -1.4641  0.6410  0.8282
  889MOL0     O19916   4.655   0.429   5.346 -0.2319  0.2307 -0.1433
  889MOL0     C19917   4.793   0.377   5.319  0.0331 -0.0144 -0.2291
  889MOL0     C19918   4.791   0.232   5.343  1.3521 -0.6941  0.1042
  889MOL0     C19919   4.704   0.155   5.246 -0.3382 -0.8724 -0.4053
  889MOL0     C19920   4.792   0.116   5.124  0.1717  0.7560 -0.1945
  889MOL0     C19921   4.714   0.025   5.029  0.6890  0.8908  0.0997
  889MOL0     C19922   4.770   0.021   4.885 -0.5912 -0.1582 -0.1612
  889MOL0     C19923   4.910  -0.044   4.884  0.7996  0.6675  0.7691
  889MOL0     C19924   4.958  -0.043   4.741  0.3327  0.2429  0.0220
  889MOL0    Cl19925   4.845  -0.131   4.639 -0.1301 -0.3052  0.3554
  889MOL0     C19926   4.662   0.647   5.418 -1.3981 -0.4236 -0.6080
  889MOL0     C19927   4.623   0.783   5.406 -0.1770  0.3551  0.0778
  889MOL0     O19928   4.346   0.947   5.392  0.2540 -0.1709  0.8832
  889MOL0     C19929   4.375   1.208   5.495 -0.4059  0.7139  0.0678
  889MOL0     C19930   4.367   1.342   5.517  0.2224  0.5337  0.1848
  889MOL0     N19931   3.955   1.551   5.753  0.2411  0.3892 -0.2024
  889MOL0     N19932   3.899   1.435   5.795 -0.6445  0.7396 -0.4617
  889MOL0     C19933   3.979   0.854   6.892 -0.1163 -0.0860 -0.2395
  889MOL0     C19934   3.943   0.829   7.021 -0.0795 -0.1308  0.5851
  889MOL0     C19935   4.066   0.822   7.433 -0.9889  0.3265  0.1223
  889MOL0     C19936   4.188   0.827   7.495  0.1804 -0.9166 -0.4397
  889MOL0     C19937   4.194   0.797   7.633 -0.1735 -0.2289  0.2864
  889MOL0     C19938   4.092   0.754   7.705  0.2551 -0.3432  0.9096
  889MOL0     O19939   4.119   0.724   7.834 -0.6551  0.1423 -0.2870
  889MOL0     C19940   4.021   0.668   7.910  0.1007  0.7423 -0.6877
  889MOL0     C19941   4.086   0.588   8.027  0.7680 -0.8097  0.4765
  889MOL0     C19942   4.182   0.484   7.976 -0.4058 -0.8029  0.8166
  889MOL0     C19943   4.243   0.400   8.079 -0.5770 -0.5069  0.6212
  889MOL0     C19944   4.336   0.307   8.021  0.2690  0.0744  0.0369
  889MOL0     C19945   4.419   0.242   7.971  0.3369  0.3106  0.1794
  889MOL0     C19946   3.970   0.753   7.648  1.1609 -0.6206  0.8267
  889MOL0     C19947   3.951   0.786   7.508  0.8657  0.7756 -0.3597
  889MOL0     H19948   4.018   1.113   7.164  0.1608 -1.6907  0.1272
  889MOL0     H19949   4.036   1.180   6.904 -3.1570  1.2474  0.8399
  889MOL0     H19950   3.991   0.861   6.539  0.2937  2.5393 -1.2792
  889MOL0     H19951   3.873   0.890   6.667 -0.7486 -0.1551  0.1373
  889MOL0     H19952   3.819   1.027   6.450 -1.3258  3.0418 -0.5245
  889MOL0     H19953   3.848   1.129   6.594  0.7322  1.5535  0.2735
  889MOL0     H19954   3.953   1.223   6.430 -0.1884 -0.5462 -0.9793
  889MOL0     H19955   4.086   1.131   6.499 -1.5353  1.2444  1.7007
  889MOL0     H19956   4.091   1.134   6.247  1.4673 -3.0735 -4.8767
  889MOL0     H19957   4.085   0.973   6.305  0.9609  0.6743  1.2704
  889MOL0     H19958   3.919   1.022   6.114 -1.7531 -2.8566 -0.7288
  889MOL0     H19959   3.836   0.975   6.254  0.1581 -1.7506 -1.4689
  889MOL0     H19960   3.704   1.147   6.160  0.4643 -1.1631 -1.6897
  889MOL0     H19961   3.750   1.202   6.308 -0.4658  2.2702 -1.1572
  889MOL0     H19962   3.792   1.394   6.151 -0.9541 -0.6228  1.2124
  889MOL0     H19963   3.941   1.345   6.225  0.4026  2.2484 -2.6361
  889MOL0     H19964   3.831   1.239   5.951 -0.5368  2.0198 -0.4255
  889MOL0     H19965   3.994   1.218   6.014  0.8561  0.3519 -0.3983
  889MOL0     H19966   4.083   1.534   6.057  3.3757 -4.0463 -0.4743
  889MOL0     H19967   4.086   1.792   5.785  1.6080 -0.5952 -0.9792
  889MOL0     H19968   4.143   1.751   5.950 -1.7244 -2.3881  1.5055
  889MOL0     H19969   4.274   1.556   5.832  2.9696  0.6665  0.0032
  889MOL0     H19970   4.327   1.728   5.810 -0.3570  0.3805  2.9107
  889MOL0     H19971   4.229   1.738   5.607  1.3405  0.1370  1.7009
  889MOL0     H19972   4.193   1.558   5.593  2.6106 -1.9519 -0.4041
  889MOL0     H19973   4.434   1.541   5.668 -0.7097  1.6671  2.4857
  889MOL0     H19974   4.435   1.707   5.602 -0.2188 -0.2175  3.1550
  889MOL0     H19975   4.440   1.468   5.224  0.2955 -0.1077 -0.0911
  889MOL0     H19976   4.429   1.141   5.082 -0.8831  0.8203  0.2181
  889MOL0     H19977   4.481   1.301   5.072 -2.5814 -0.1164  1.3810
  889MOL0     H19978   4.597   1.180   5.135  0.0664 -2.7791 -4.3402
  889MOL0     H19979   4.544   0.781   5.080  0.5996 -1.5445 -1.1151
  889MOL0     H19980   4.601   0.549   5.107  1.9611 -4.2165  3.3265
  889MOL0     H19981   4.809   0.382   5.211  0.7664 -1.1715 -0.1899
  889MOL0     H19982   4.875   0.429   5.370 -0.4339  1.6453 -1.1142
  889MOL0     H19983   4.895   0.200   5.343  1.6674  0.2557 -1.4586
  889MOL0     H19984   4.750   0.218   5.444 -1.4762 -0.1850 -0.8946
  889MOL0     H19985   4.624   0.226   5.223  1.1556  0.7646 -0.7512
  889MOL0     H19986   4.655   0.069   5.294  0.1361 -0.6401  0.5201
  889MOL0     H19987   4.805   0.207   5.064  0.0362 -0.1704 -1.6771
  889MOL0     H19988   4.888   0.071   5.149  0.1539 -0.8944 -2.6973
  889MOL0     H19989   4.616   0.073   5.022  0.7567  0.7488 -2.8481
  889MOL0     H19990   4.699  -0.075   5.069 -1.0120  0.8268 -0.6096
  889MOL0     H19991   4.714  -0.055   4.829  0.5888 -1.5458  0.4803
  889MOL0     H19992   4.770   0.126   4.853  1.3699  0.4998  1.7728
  889MOL0     H19993   4.909  -0.145   4.928 -1.8405 -0.2964 -1.2697
  889MOL0     H19994   4.985   0.014   4.938  1.3882 -1.9308  2.9591
  889MOL0     H19995   5.054  -0.092   4.728 -0.6889 -1.2639 -2.7868
  889MOL0     H19996   4.965   0.062   4.713 -1.7831  1.1122  2.3399
  889MOL0     H19997   4.673   0.609   5.519  0.0767 -1.2049 -1.0314
  889MOL0     H19998   4.609   0.856   5.485 -0.4179 -0.1555  0.5155
  889MOL0     H19999   4.353   1.139   5.576  0.0727  1.7618  1.1126
  889MOL0     H20000   4.338   1.357   5.620  1.7856 -1.4956  1.0031
  889MOL0     H20001   3.992   0.763   6.834  2.5642 -1.6537  2.5397
  889MOL0     H20002   3.924   0.732   7.068  2.6378  0.0198  2.2133
  889MOL0     H20003   4.280   0.868   7.454  1.3308 -0.0282  2.7382
  889MOL0     H20004   4.288   0.811   7.684  0.2015 -0.6950 -0.2767
  889MOL0     H20005   3.971   0.741   7.974  0.8411 -4.1642  6.7218
  889MOL0     H20006   3.952   0.615   7.844  1.0344  1.5350 -2.3749
  889MOL0     H20007   4.014   0.533   8.089  0.3856 -0.7394  0.1034
  889MOL0     H20008   4.137   0.658   8.093  0.3142 -1.5988  1.7022
  889MOL0     H20009   4.263   0.531   7.919 -1.1785  1.8511  1.7524
  889MOL0     H20010   4.139   0.413   7.904  0.9346  1.1992 -2.1744
  889MOL0     H20011   4.170   0.345   8.141  1.2955 -0.3103  3.1804
  889MOL0     H20012   4.292   0.473   8.143 -0.6452 -0.9529  1.1961
  889MOL0     H20013   4.502   0.206   7.914  0.7557  2.8933 -1.0004
  889MOL0     H20014   3.882   0.750   7.711  1.4735 -1.8632  1.2453
  889MOL0     H20015   3.849   0.786   7.471 -0.1780 -1.0596  2.2980
  890MOL0     O20016   7.682   6.323   5.126 -1.1391 -0.0946 -0.0741
  890MOL0     C20017   7.757   6.268   5.199 -0.8192 -0.1469  0.0440
  890MOL0     O20018   7.889   6.286   5.200 -0.3882  0.3773 -0.6242
  890MOL0     C20019   7.943   6.341   5.089 -0.0030 -0.4193  0.3007
  890MOL0     C20020   7.949   6.265   4.972  0.2413  0.0766  0.6967
  890MOL0     C20021   8.022   6.311   4.866 -0.6683  0.4277  0.1495
  890MOL0     C20022   8.094   6.428   4.884  0.6155  0.2850  0.5080
  890MOL0     O20023   8.182   6.463   4.777  0.4570 -0.0191  0.4308
  890MOL0     C20024   8.159   6.592   4.713 -0.3119 -0.5556  0.2961
  890MOL0     C20025   8.273   6.628   4.618 -0.2292 -0.2955 -0.8912
  890MOL0     C20026   8.261   6.516   4.508 -0.0867  0.3162 -0.9106
  890MOL0     C20027   8.344   6.545   4.384  0.3090 -0.7218  0.6862
  890MOL0     C20028   8.321   6.442   4.277  0.2183  0.7535  0.4855
  890MOL0     C20029   8.395   6.483   4.138  0.3957 -0.0389  0.7099
  890MOL0     C20030   8.351   6.407   4.008  0.5766 -0.6384  0.0116
  890MOL0     C20031   8.470   6.381   3.919  0.1678  0.4030 -0.7424
  890MOL0     N20032   8.532   6.506   3.870  0.1413 -0.3429 -0.2942
  890MOL0     C20033   8.466   6.592   3.788  0.2063 -0.3172  0.1800
  890MOL0     C20034   8.561   6.683   3.756  1.0198  0.0767  1.4409
  890MOL0     C20035   8.521   6.798   3.672 -0.3914 -0.0828 -0.0641
  890MOL0     C20036   8.383   6.861   3.698  0.5773 -0.4175  0.2137
  890MOL0     C20037   8.343   6.867   3.848  0.5473 -0.0583  1.1159
  890MOL0     C20038   8.225   6.965   3.875 -0.4051  1.1515  0.2578
  890MOL0     O20039   8.216   7.094   3.808  0.6237 -0.4963  0.0615
  890MOL0     C20040   8.322   7.178   3.820 -0.0015 -0.5463  1.2404
  890MOL0     C20041   8.374   7.194   3.946 -0.3050  1.0446 -1.3564
  890MOL0     C20042   8.472   7.289   3.970 -0.4898  0.1801  0.2202
  890MOL0     C20043   8.531   7.302   4.113 -0.2374 -0.2052  0.4227
  890MOL0     C20044   8.518   7.372   3.861  0.4032 -0.2673  0.2933
  890MOL0     C20045   8.615   7.482   3.886  0.5228 -1.7593  0.0910
  890MOL0     O20046   8.718   7.505   3.797 -0.1356  0.0370 -0.0531
  890MOL0     C20047   8.841   7.556   3.828 -0.5566 -0.1138 -0.7960
  890MOL0     C20048   8.913   7.618   3.729  0.1036 -0.5692 -0.1553
  890MOL0     C20049   9.034   7.683   3.765 -0.8768  0.1863 -0.0008
  890MOL0     C20050   9.075   7.689   3.897 -0.3799 -0.7612  0.0852
  890MOL0     O20051   9.179   7.769   3.949  0.7115  0.3519 -0.5488
  890MOL0     C20052   9.255   7.849   3.859  0.3462  0.0291 -0.2487
  890MOL0     C20053   9.354   7.934   3.945  0.4532 -0.2165  0.5325
  890MOL0     C20054   9.466   7.842   3.995  0.7779  0.3849  0.2274
  890MOL0     C20055   9.598   7.900   4.043  0.2518  0.0732 -0.1092
  890MOL0     C20056   9.591   7.930   4.197  0.2634  0.4340  0.3216
  890MOL0     C20057   9.722   8.003   4.251 -0.9780 -0.6628 -0.0380
  890MOL0     C20058   9.713   8.153   4.219 -0.3101 -0.7391  0.7602
  890MOL0     C20059   9.844   8.201   4.147 -0.1520  0.2030 -0.1621
  890MOL0    Cl20060   9.842   8.142   3.979 -0.1777  0.0348 -0.1634
  890MOL0     C20061   8.995   7.625   3.990 -0.3802  0.2920 -0.1362
  890MOL0     C20062   8.889   7.544   3.958 -0.4644  0.7677 -0.2952
  890MOL0     O20063   8.594   7.550   3.990 -1.1657 -0.0395  0.8816
  890MOL0     C20064   8.474   7.337   3.734  0.7262 -0.0316 -0.1740
  890MOL0     C20065   8.371   7.245   3.711  0.3370 -0.6713  0.1171
  890MOL0     N20066   8.683   6.657   3.819 -1.0816 -0.4621  0.1251
  890MOL0     N20067   8.659   6.564   3.889  0.4753  0.2420 -0.2342
  890MOL0     C20068   8.081   6.513   4.997  0.2985 -0.0274  0.8540
  890MOL0     C20069   8.010   6.462   5.100 -0.6614  0.1583 -0.2533
  890MOL0     C20070   7.695   6.202   5.312 -0.0326 -0.0226  0.3815
  890MOL0     C20071   7.574   6.145   5.296  0.6678  0.1153 -0.0357
  890MOL0     C20072   7.518   6.055   5.395  0.4085  0.7677  0.3292
  890MOL0     C20073   7.579   6.039   5.519 -0.3119  0.3666 -0.8964
  890MOL0     O20074   7.526   5.977   5.630  0.0172  0.8648 -0.7875
  890MOL0     C20075   7.382   5.957   5.638  0.0806 -0.3596  1.3805
  890MOL0     C20076   7.331   5.913   5.777  0.8731 -0.5259 -0.1955
  890MOL0     C20077   7.179   5.900   5.782 -0.5013 -0.8473 -0.0216
  890MOL0     C20078   7.124   5.895   5.920  0.9417  0.8478  0.8881
  890MOL0     C20079   7.151   6.024   5.984  0.2031  0.1326  0.5160
  890MOL0     C20080   7.164   6.134   6.028 -0.1221 -0.2267  0.2520
  890MOL0     C20081   7.698   6.102   5.535 -0.2988  0.8087  1.0941
  890MOL0     C20082   7.758   6.180   5.433 -0.4334  0.1021  0.5682
  890MOL0     H20083   7.909   6.166   4.955  0.7252  0.2618 -1.8459
  890MOL0     H20084   8.021   6.246   4.779 -1.4184  1.2036 -0.4363
  890MOL0     H20085   8.065   6.609   4.660 -0.2431  0.6593  0.5426
  890MOL0     H20086   8.169   6.673   4.786  1.0872 -0.3965 -0.0359
  890MOL0     H20087   8.239   6.719   4.567  0.3860 -1.1224 -2.9013
  890MOL0     H20088   8.373   6.645   4.659 -0.3001  0.4052 -1.0016
  890MOL0     H20089   8.290   6.419   4.549  1.2344 -1.0001 -4.5525
  890MOL0     H20090   8.157   6.509   4.476  0.1995  0.0589 -1.8032
  890MOL0     H20091   8.315   6.644   4.346  0.2341 -2.2186 -3.7874
  890MOL0     H20092   8.450   6.553   4.407 -0.0297 -0.6718  2.3961
  890MOL0     H20093   8.357   6.344   4.309  0.8714  0.4989 -0.9410
  890MOL0     H20094   8.215   6.439   4.251  0.7222 -1.2162 -1.7411
  890MOL0     H20095   8.377   6.589   4.119 -0.2794 -0.1388  0.7554
  890MOL0     H20096   8.499   6.451   4.151  1.1696  2.4768  1.2850
  890MOL0     H20097   8.309   6.313   4.046  1.0521 -0.9097 -0.1356
  890MOL0     H20098   8.267   6.463   3.965  2.3841  2.9088  0.7053
  890MOL0     H20099   8.446   6.326   3.827 -1.8820  0.9533 -0.5849
  890MOL0     H20100   8.541   6.325   3.981 -2.4460 -0.2086  1.9448
  890MOL0     H20101   8.364   6.587   3.753 -0.2742  3.2531  0.6876
  890MOL0     H20102   8.594   6.873   3.703 -0.6204 -0.9720  2.9056
  890MOL0     H20103   8.530   6.768   3.567  0.1640  2.1724 -0.7192
  890MOL0     H20104   8.311   6.799   3.644  0.0000  0.6315 -0.2495
  890MOL0     H20105   8.365   6.958   3.651  0.5352  0.3962  1.8483
  890MOL0     H20106   8.427   6.891   3.914  0.7352 -1.8714  1.5861
  890MOL0     H20107   8.323   6.766   3.883  0.4944 -0.0323  1.1617
  890MOL0     H20108   8.206   6.964   3.983  1.8857 -2.2429  0.7970
  890MOL0     H20109   8.136   6.906   3.849  1.2197 -1.4245  0.1909
  890MOL0     H20110   8.338   7.145   4.036  0.7297  4.6576  1.2900
  890MOL0     H20111   8.629   7.351   4.125 -0.4342  0.5793 -0.9193
  890MOL0     H20112   8.459   7.350   4.180  0.4002 -3.2773  3.5814
  890MOL0     H20113   8.534   7.210   4.171 -2.8825 -0.6606 -0.0294
  890MOL0     H20114   8.876   7.617   3.627 -0.6498 -0.1114  0.1010
  890MOL0     H20115   9.096   7.727   3.688  0.5490  1.1654  1.6347
  890MOL0     H20116   9.312   7.796   3.782  0.2948  0.1633 -0.3819
  890MOL0     H20117   9.187   7.910   3.797  1.3216  1.2857 -0.1267
  890MOL0     H20118   9.392   8.009   3.874 -1.8623 -1.6640 -2.4568
  890MOL0     H20119   9.317   7.980   4.037  1.7569 -1.8156  1.9272
  890MOL0     H20120   9.507   7.791   3.908 -0.5790 -0.5683  0.1020
  890MOL0     H20121   9.423   7.770   4.065 -1.1333 -2.4992 -3.5497
  890MOL0     H20122   9.675   7.823   4.031 -0.5348 -0.4112 -2.8539
  890MOL0     H20123   9.617   7.988   3.980 -4.6000  1.5016  0.0094
  890MOL0     H20124   9.581   7.831   4.241  0.7284  0.2392 -0.0064
  890MOL0     H20125   9.494   7.975   4.219 -1.0957 -2.4633  0.6434
  890MOL0     H20126   9.738   7.991   4.358 -1.3422 -0.6068  0.0262
  890MOL0     H20127   9.805   7.949   4.205  0.1752  0.2681  0.8942
  890MOL0     H20128   9.706   8.202   4.317  0.3301  2.9681 -0.8516
  890MOL0     H20129   9.619   8.168   4.165 -1.4426 -3.3995  1.8366
  890MOL0     H20130   9.929   8.170   4.209 -1.1574  0.5607  1.4456
  890MOL0     H20131   9.844   8.310   4.143  0.8310  0.3902  2.5096
  890MOL0     H20132   9.025   7.644   4.093  0.1760  1.6894 -0.5314
  890MOL0     H20133   8.842   7.483   4.034  4.4744 -2.2885  0.7375
  890MOL0     H20134   8.518   7.399   3.656 -0.1192  3.0470  1.6386
  890MOL0     H20135   8.361   7.224   3.605 -0.1939  2.5046 -0.5690
  890MOL0     H20136   8.136   6.607   5.003 -0.3796  0.5640 -1.3066
  890MOL0     H20137   8.007   6.510   5.197 -2.7495  0.2602 -0.3135
  890MOL0     H20138   7.521   6.155   5.202 -0.7358 -2.4126  0.3969
  890MOL0     H20139   7.422   6.008   5.375  0.9572 -0.5752  0.7399
  890MOL0     H20140   7.331   6.053   5.627 -2.0042 -1.7174 -4.5565
  890MOL0     H20141   7.344   5.885   5.565 -1.6414 -1.7721  3.5397
  890MOL0     H20142   7.362   5.988   5.850 -1.8146  0.2125  0.2943
  890MOL0     H20143   7.383   5.824   5.812 -3.5965 -2.6718  1.7147
  890MOL0     H20144   7.138   5.823   5.716  2.3520 -0.2748 -2.6562
  890MOL0     H20145   7.140   5.994   5.740  1.9010 -0.7693 -2.3259
  890MOL0     H20146   7.185   5.819   5.970  0.7078 -0.3514 -0.5761
  890MOL0     H20147   7.018   5.869   5.921  1.0778  0.2890  1.4178
  890MOL0     H20148   7.157   6.235   6.062 -2.7178 -0.7649  1.5737
  890MOL0     H20149   7.763   6.083   5.620 -0.5494  1.1737  1.3702
  890MOL0     H20150   7.858   6.219   5.451  0.0833 -1.3250  0.9726
  891MOL0     O20151   3.044   1.132   4.978  0.1444 -0.3700  0.1400
  891MOL0     C20152   3.012   1.196   4.873 -0.3718 -0.2303 -0.3615
  891MOL0     O20153   2.961   1.329   4.867 -0.0421  0.4486  0.7319
  891MOL0     C20154   2.978   1.397   4.983 -0.5667 -0.5070  0.5753
  891MOL0     C20155   2.867   1.433   5.056 -0.4437  0.0349 -0.1811
  891MOL0     C20156   2.880   1.520   5.159 -0.4434  0.0028  0.6866
  891MOL0     C20157   3.004   1.566   5.192 -0.6642 -0.2133 -0.0534
  891MOL0     O20158   3.032   1.645   5.298 -0.3864  0.6895 -0.2236
  891MOL0     C20159   2.931   1.727   5.359 -0.1323 -0.7363  0.0079
  891MOL0     C20160   2.882   1.679   5.500 -1.0320  0.2601 -0.1153
  891MOL0     C20161   2.766   1.762   5.540  0.1055  0.1379 -0.0434
  891MOL0     C20162   2.780   1.916   5.551 -0.0690 -0.4100  0.1281
  891MOL0     C20163   2.670   1.986   5.629 -0.3125 -0.7880 -0.4282
  891MOL0     C20164   2.532   1.988   5.556  0.4141 -0.6246  0.0176
  891MOL0     C20165   2.427   2.034   5.654  0.3762 -0.2424  0.0721
  891MOL0     C20166   2.291   2.009   5.594  0.3314  0.2676 -0.6253
  891MOL0     N20167   2.267   2.071   5.461 -0.0615 -1.1709 -0.3193
  891MOL0     C20168   2.241   2.209   5.442  0.0419  0.0831  0.9940
  891MOL0     C20169   2.193   2.215   5.311  0.6727  0.3399  0.2493
  891MOL0     C20170   2.123   2.343   5.256 -0.0890  0.7693  0.0616
  891MOL0     C20171   2.224   2.463   5.260 -0.1873  0.1939 -0.1558
  891MOL0     C20172   2.135   2.584   5.212  0.6674 -0.7571 -0.9195
  891MOL0     C20173   2.076   2.576   5.066  0.2564 -0.6765 -1.0627
  891MOL0     O20174   1.940   2.621   5.075 -0.7431  0.0944  0.0114
  891MOL0     C20175   1.859   2.586   4.973  0.0447  0.5563 -0.6738
  891MOL0     C20176   1.739   2.519   4.998  0.7792  0.0267  0.8398
  891MOL0     C20177   1.640   2.490   4.891  0.0388 -0.3700 -0.2520
  891MOL0     C20178   1.502   2.441   4.936  0.1407  0.0821 -0.4277
  891MOL0     C20179   1.677   2.527   4.758  0.0514  0.0623  0.3587
  891MOL0     C20180   1.590   2.505   4.634 -0.1676 -0.6929 -0.0545
  891MOL0     O20181   1.598   2.601   4.535 -0.1713 -0.3602 -0.0846
  891MOL0     C20182   1.541   2.576   4.413  0.5428  0.3426 -0.6033
  891MOL0     C20183   1.622   2.533   4.304 -0.8490 -0.2857 -1.0107
  891MOL0     C20184   1.558   2.500   4.181  0.6046 -0.5387 -0.0316
  891MOL0     C20185   1.426   2.521   4.164  0.2247 -0.4101 -0.5950
  891MOL0     O20186   1.353   2.504   4.042 -0.3070 -0.4943 -1.3861
  891MOL0     C20187   1.417   2.452   3.926 -0.1827 -0.0740 -0.0088
  891MOL0     C20188   1.304   2.424   3.823 -0.7541 -1.0939  0.0619
  891MOL0     C20189   1.354   2.465   3.685 -0.6249 -1.0805 -0.3720
  891MOL0     C20190   1.249   2.446   3.579  0.4453  0.2719 -0.0821
  891MOL0     C20191   1.303   2.487   3.444 -0.3171  0.6441 -0.1564
  891MOL0     C20192   1.188   2.486   3.339  0.1786  0.4714 -0.1086
  891MOL0     C20193   1.249   2.513   3.207 -0.1682  0.9196  0.4478
  891MOL0     C20194   1.151   2.500   3.094  0.0482 -0.1852  0.3690
  891MOL0    Cl20195   1.226   2.573   2.948 -0.0916  0.7351 -0.2676
  891MOL0     C20196   1.349   2.574   4.270  0.3848 -0.0791 -0.6129
  891MOL0     C20197   1.399   2.610   4.397  0.0620  0.3738  0.4089
  891MOL0     O20198   1.525   2.400   4.632  0.3037 -0.3616  0.2587
  891MOL0     C20199   1.797   2.600   4.738  0.5194  0.1550  0.3028
  891MOL0     C20200   1.878   2.631   4.840  0.1139  0.1232  0.6219
  891MOL0     N20201   2.172   2.084   5.276  0.7673 -0.2133 -0.2542
  891MOL0     N20202   2.225   1.996   5.360  0.5773  0.4671  0.4066
  891MOL0     C20203   3.116   1.535   5.111 -0.7324  0.6810 -0.4081
  891MOL0     C20204   3.107   1.448   5.012  0.1315  0.6620  0.1462
  891MOL0     C20205   3.010   1.118   4.754  0.6999 -0.1584  0.7471
  891MOL0     C20206   3.002   1.191   4.628 -0.3824  0.4572 -0.8012
  891MOL0     C20207   3.000   1.129   4.504  0.3076 -1.0053  0.7863
  891MOL0     C20208   3.019   0.994   4.494 -0.2181  0.9938 -0.4352
  891MOL0     O20209   3.039   0.947   4.363  0.9575  0.3975 -0.6580
  891MOL0     C20210   3.062   0.809   4.342 -0.3514  0.1571 -0.2213
  891MOL0     C20211   3.209   0.773   4.325 -0.7874  1.0121 -0.2783
  891MOL0     C20212   3.227   0.660   4.221  0.5685 -0.3610 -0.9656
  891MOL0     C20213   3.367   0.617   4.206 -1.0526 -0.3248 -0.4818
  891MOL0     C20214   3.437   0.596   4.335  0.2528 -0.8973 -0.3203
  891MOL0     C20215   3.492   0.588   4.446  0.1373 -0.1218  0.3864
  891MOL0     C20216   3.029   0.923   4.618  0.1353 -1.0030  1.2988
  891MOL0     C20217   3.034   0.982   4.741 -0.2868  0.5637 -0.4446
  891MOL0     H20218   2.776   1.392   5.013 -1.4779  3.3760 -1.4346
  891MOL0     H20219   2.795   1.567   5.207  0.9405  3.4477  0.0514
  891MOL0     H20220   2.969   1.829   5.371 -1.5511  0.0651 -1.8702
  891MOL0     H20221   2.851   1.763   5.294  0.6193  0.8574 -0.0786
  891MOL0     H20222   2.848   1.576   5.491  0.9836 -0.3884 -1.0861
  891MOL0     H20223   2.966   1.681   5.571 -0.8953  1.8681 -0.2830
  891MOL0     H20224   2.683   1.718   5.484 -1.3865  0.5656  1.7658
  891MOL0     H20225   2.745   1.729   5.642  0.8188  0.6080  0.2624
  891MOL0     H20226   2.878   1.941   5.595  1.1592  0.5538 -2.9207
  891MOL0     H20227   2.796   1.963   5.454 -3.0743  1.4533  0.4176
  891MOL0     H20228   2.671   1.958   5.735  0.8073 -1.1370 -0.5132
  891MOL0     H20229   2.688   2.094   5.633 -1.7811 -0.5655  1.6502
  891MOL0     H20230   2.546   2.063   5.478 -0.3805 -1.4845 -0.9852
  891MOL0     H20231   2.506   1.887   5.520 -0.2457 -1.8965  3.6556
  891MOL0     H20232   2.420   1.963   5.737 -1.2594  0.4188  0.5548
  891MOL0     H20233   2.449   2.135   5.689  0.2245  0.2179 -1.1042
  891MOL0     H20234   2.228   2.043   5.678  0.7736  0.0739 -0.2132
  891MOL0     H20235   2.287   1.901   5.579  3.8429 -0.2204  1.0078
  891MOL0     H20236   2.250   2.294   5.509 -3.1568  1.8014 -0.5034
  891MOL0     H20237   2.087   2.311   5.158 -0.4265 -2.9501  1.2458
  891MOL0     H20238   2.041   2.374   5.321 -1.2310  0.4313 -1.1827
  891MOL0     H20239   2.301   2.434   5.188 -3.1630 -4.8325 -1.8623
  891MOL0     H20240   2.260   2.474   5.363  0.2774 -1.3171 -0.1289
  891MOL0     H20241   2.202   2.670   5.221 -2.6252  1.8350  1.1128
  891MOL0     H20242   2.056   2.596   5.287  0.1687 -5.6065 -0.3640
  891MOL0     H20243   2.099   2.473   5.037  3.0635 -0.2165 -0.7639
  891MOL0     H20244   2.123   2.652   5.004  2.2946  0.5750  1.7914
  891MOL0     H20245   1.705   2.494   5.098  0.5019 -1.6459  0.3555
  891MOL0     H20246   1.427   2.520   4.953  2.4489  1.9247  1.8577
  891MOL0     H20247   1.458   2.374   4.861 -0.0421  0.2507 -0.4754
  891MOL0     H20248   1.513   2.392   5.032  0.8755  1.9971  0.5098
  891MOL0     H20249   1.725   2.507   4.324  0.2701  0.7907 -4.5844
  891MOL0     H20250   1.614   2.461   4.097  0.9507  2.4979 -1.3633
  891MOL0     H20251   1.487   2.528   3.891 -0.6092  0.9164  1.2390
  891MOL0     H20252   1.479   2.364   3.943  1.1045  0.7653 -0.2157
  891MOL0     H20253   1.295   2.317   3.842  1.0940 -0.7326  3.9980
  891MOL0     H20254   1.212   2.481   3.845  1.6916  3.8058 -1.0313
  891MOL0     H20255   1.446   2.421   3.646 -0.2861  1.1233 -2.2748
  891MOL0     H20256   1.362   2.574   3.692 -5.7904 -0.3637 -1.3114
  891MOL0     H20257   1.216   2.341   3.581  0.8884  0.1300  1.4110
  891MOL0     H20258   1.160   2.504   3.603  0.3489  1.0011 -2.0181
  891MOL0     H20259   1.385   2.423   3.410 -0.5166  0.2408  0.1123
  891MOL0     H20260   1.352   2.584   3.453 -0.2773  0.5925  0.2078
  891MOL0     H20261   1.138   2.389   3.339 -2.3439  1.6700 -1.9652
  891MOL0     H20262   1.101   2.551   3.352 -1.6221 -2.2757  3.2717
  891MOL0     H20263   1.327   2.444   3.174  1.2803  3.5149 -2.0882
  891MOL0     H20264   1.289   2.615   3.198  4.9361 -0.5731  2.3057
  891MOL0     H20265   1.052   2.544   3.108  0.1883  0.4564 -0.5328
  891MOL0     H20266   1.147   2.393   3.074  0.8360  0.2102 -2.3624
  891MOL0     H20267   1.244   2.598   4.254  1.1276  2.5480 -2.0455
  891MOL0     H20268   1.337   2.668   4.465  0.7278  0.4278  0.9732
  891MOL0     H20269   1.827   2.637   4.641 -1.9704  2.6175  0.3515
  891MOL0     H20270   1.965   2.685   4.805 -0.4360 -1.0136 -2.8960
  891MOL0     H20271   3.221   1.551   5.137 -1.0754  1.9771  0.2611
  891MOL0     H20272   3.193   1.435   4.947 -1.1824  0.8843 -1.7257
  891MOL0     H20273   2.989   1.299   4.622 -1.5255  0.3965  0.1688
  891MOL0     H20274   2.993   1.195   4.419  0.8537 -3.4812 -1.3130
  891MOL0     H20275   3.007   0.749   4.414 -1.9944  0.1397 -1.4437
  891MOL0     H20276   3.008   0.781   4.251 -1.3419 -0.9473  0.6864
  891MOL0     H20277   3.241   0.730   4.421  0.2060 -0.1320 -1.0874
  891MOL0     H20278   3.272   0.853   4.286 -1.1029 -0.1130 -3.3442
  891MOL0     H20279   3.187   0.710   4.133 -2.4438  0.5925  0.8107
  891MOL0     H20280   3.172   0.570   4.250 -1.3901  0.5165 -1.7809
  891MOL0     H20281   3.420   0.695   4.151 -1.2055 -1.1647 -1.8538
  891MOL0     H20282   3.367   0.516   4.165  1.0955 -0.5838  0.0776
  891MOL0     H20283   3.554   0.577   4.534  0.4877 -0.8976  0.0582
  891MOL0     H20284   3.062   0.820   4.606  1.9146 -0.3083 -0.0712
  891MOL0     H20285   3.057   0.926   4.831 -0.4901  1.2646  0.0562
  892MOL0     O20286   1.668   2.629  11.172 -0.1581  0.9481 -0.5145
  892MOL0     C20287   1.657   2.647  11.297  0.3213 -0.6839 -0.1654
  892MOL0     O20288   1.755   2.637  11.392  0.2434  0.1366 -0.1902
  892MOL0     C20289   1.877   2.595  11.359 -0.1659  0.9108  0.1182
  892MOL0     C20290   1.953   2.630  11.250  0.8445 -1.0719  0.0871
  892MOL0     C20291   2.083   2.582  11.235 -0.3369 -0.3773 -0.1082
  892MOL0     C20292   2.135   2.512  11.340 -0.5256  0.1981  0.5375
  892MOL0     O20293   2.263   2.461  11.340 -0.2121 -0.3280 -0.1636
  892MOL0     C20294   2.349   2.478  11.223 -1.2094 -0.3575  0.8321
  892MOL0     C20295   2.317   2.356  11.125 -0.2284 -0.5185  0.2262
  892MOL0     C20296   2.373   2.215  11.172 -0.1056 -0.9101 -0.0620
  892MOL0     C20297   2.349   2.118  11.061 -0.9130  0.8977  0.1298
  892MOL0     C20298   2.373   1.973  11.101 -0.7285  0.2392  0.7213
  892MOL0     C20299   2.521   1.948  11.142  0.4788  0.1358 -0.4857
  892MOL0     C20300   2.543   1.808  11.206 -0.8102 -0.7071  0.7015
  892MOL0     C20301   2.692   1.773  11.234 -0.9207 -0.9529  0.8927
  892MOL0     N20302   2.723   1.638  11.157  0.1189 -1.0814 -0.7583
  892MOL0     C20303   2.810   1.633  11.058  0.6463  0.1138  0.8519
  892MOL0     C20304   2.800   1.505  11.007 -0.0177  0.1043  0.4328
  892MOL0     C20305   2.890   1.439  10.906 -1.1003  0.2725 -0.3377
  892MOL0     C20306   3.009   1.372  10.977  0.2838  1.1790  1.0484
  892MOL0     C20307   2.997   1.259  11.084  0.1241  0.4564  0.2981
  892MOL0     C20308   2.975   1.291  11.233  0.7809 -0.5782 -0.7289
  892MOL0     O20309   3.033   1.419  11.265  0.3123  0.1392  0.2816
  892MOL0     C20310   2.991   1.469  11.389  0.0840 -0.6443 -0.2921
  892MOL0     C20311   3.029   1.600  11.418 -1.0820  0.2338  0.1814
  892MOL0     C20312   2.980   1.669  11.533 -0.9298 -1.3704 -0.5403
  892MOL0     C20313   3.023   1.823  11.550  0.7474  0.5571 -0.1964
  892MOL0     C20314   2.908   1.601  11.635  0.5662 -0.0632 -0.6155
  892MOL0     C20315   2.891   1.638  11.775  0.0427  0.2953  0.6999
  892MOL0     O20316   2.808   1.745  11.818 -0.9676 -0.1832  0.0545
  892MOL0     C20317   2.707   1.784  11.742  0.3791  0.1720 -0.3031
  892MOL0     C20318   2.590   1.707  11.746 -0.5272 -0.0673 -0.7932
  892MOL0     C20319   2.469   1.748  11.693 -0.4217 -0.1771 -0.2210
  892MOL0     C20320   2.466   1.871  11.627 -0.1405  1.2257 -0.0645
  892MOL0     O20321   2.340   1.909  11.567 -1.5143  0.0683 -0.0757
  892MOL0     C20322   2.283   2.038  11.597  0.4905  0.2816  0.6985
  892MOL0     C20323   2.131   2.013  11.593 -0.0363 -0.3911  0.4161
  892MOL0     C20324   2.081   1.907  11.696 -0.4147 -0.0300 -0.1907
  892MOL0     C20325   1.926   1.881  11.715 -0.0756  0.3122 -0.3226
  892MOL0     C20326   1.888   1.786  11.827  0.4116 -0.0807 -0.2188
  892MOL0     C20327   1.728   1.794  11.856 -1.2416  1.0538  0.2501
  892MOL0     C20328   1.706   1.724  11.995 -0.0713  0.1670 -1.0001
  892MOL0     C20329   1.568   1.722  12.042 -0.5888  0.3061 -0.2180
  892MOL0    Cl20330   1.514   1.892  12.101  0.2737  0.1465  0.1501
  892MOL0     C20331   2.593   1.938  11.602  0.4240  0.0958  0.3172
  892MOL0     C20332   2.705   1.898  11.662  0.5282  0.0673  0.8932
  892MOL0     O20333   2.955   1.573  11.861 -0.0963 -0.6384  0.0108
  892MOL0     C20334   2.858   1.479  11.602  0.8328 -0.2056  0.6568
  892MOL0     C20335   2.888   1.415  11.475 -1.0677  0.1658 -0.2241
  892MOL0     N20336   2.697   1.440  11.074  0.9872 -0.2347 -0.5343
  892MOL0     N20337   2.649   1.526  11.165 -0.2645 -0.0414  0.4039
  892MOL0     C20338   2.055   2.473  11.446 -1.3389 -0.1727  0.1082
  892MOL0     C20339   1.924   2.512  11.455  1.3164  0.2195  0.4779
  892MOL0     C20340   1.522   2.699  11.336 -0.5481  0.2762  0.1779
  892MOL0     C20341   1.494   2.758  11.464  0.7117 -0.0518 -0.1877
  892MOL0     C20342   1.365   2.813  11.488 -0.1608  0.3153 -0.1449
  892MOL0     C20343   1.270   2.812  11.387  0.2788 -0.8044  0.7336
  892MOL0     O20344   1.141   2.861  11.408 -0.3878 -0.3140 -0.2353
  892MOL0     C20345   1.127   2.962  11.505  0.4450  0.2266 -0.3575
  892MOL0     C20346   1.046   3.071  11.445 -0.9494 -0.0347  0.1170
  892MOL0     C20347   1.110   3.211  11.495 -0.4781 -0.8455 -0.6702
  892MOL0     C20348   1.048   3.330  11.410  0.0672 -0.5371  0.0139
  892MOL0     C20349   0.905   3.344  11.437 -0.7599 -0.2331  1.1895
  892MOL0     C20350   0.795   3.393  11.458  0.2488  0.7119  0.7669
  892MOL0     C20351   1.290   2.739  11.274  0.1218  0.8096 -0.0058
  892MOL0     C20352   1.411   2.684  11.246  0.2306  0.1598 -0.2139
  892MOL0     H20353   1.904   2.690  11.174 -0.5811 -2.8310 -0.4403
  892MOL0     H20354   2.142   2.631  11.158  1.7055  2.7243  3.0658
  892MOL0     H20355   2.333   2.570  11.165 -0.1728 -1.0365 -0.5912
  892MOL0     H20356   2.455   2.472  11.249 -0.3743 -1.3958 -2.3410
  892MOL0     H20357   2.210   2.334  11.115 -0.3540 -1.7522  3.3115
  892MOL0     H20358   2.374   2.384  11.036 -0.5467  0.6752  0.3919
  892MOL0     H20359   2.481   2.225  11.187 -0.2985 -1.8996  2.4711
  892MOL0     H20360   2.327   2.186  11.267  0.7473  2.0417  1.3626
  892MOL0     H20361   2.245   2.124  11.028 -0.6103  1.4503 -0.7655
  892MOL0     H20362   2.417   2.141  10.978 -1.5356 -0.1112 -0.6848
  892MOL0     H20363   2.307   1.956  11.187  0.2405 -2.3067  1.0519
  892MOL0     H20364   2.345   1.915  11.013  2.7483  1.6028 -1.4602
  892MOL0     H20365   2.594   1.952  11.061  2.0096 -4.2928  0.3952
  892MOL0     H20366   2.549   2.027  11.213 -0.8947 -0.0851  0.3412
  892MOL0     H20367   2.484   1.792  11.297 -0.6403  0.5608  1.0440
  892MOL0     H20368   2.504   1.741  11.128  3.1183 -0.8567 -1.3656
  892MOL0     H20369   2.718   1.763  11.339  2.4256 -2.4518  0.0255
  892MOL0     H20370   2.749   1.861  11.202 -0.5686 -0.4829  2.6988
  892MOL0     H20371   2.876   1.714  11.026  0.4216 -0.2358 -0.5899
  892MOL0     H20372   2.829   1.357  10.868  0.8487 -1.6976  0.5253
  892MOL0     H20373   2.921   1.499  10.820 -1.0085  0.7130 -0.0034
  892MOL0     H20374   3.074   1.449  11.021  1.3175  0.9091  0.0162
  892MOL0     H20375   3.051   1.336  10.883  3.5264  1.5573  2.2254
  892MOL0     H20376   3.098   1.215  11.079  0.0246 -0.2541  3.1153
  892MOL0     H20377   2.929   1.176  11.063 -0.5321  0.9676  0.3996
  892MOL0     H20378   3.024   1.219  11.298  1.1122  1.6568  1.6763
  892MOL0     H20379   2.868   1.281  11.255 -0.8103  3.1310 -5.0596
  892MOL0     H20380   3.103   1.644  11.352 -0.6768  2.2761  1.8942
  892MOL0     H20381   2.955   1.899  11.510  0.6252 -0.2494 -1.5863
  892MOL0     H20382   3.019   1.849  11.657 -0.4187 -1.8928  0.4045
  892MOL0     H20383   3.118   1.846  11.500  0.4352 -0.9153 -1.5118
  892MOL0     H20384   2.579   1.616  11.804 -0.5065  1.4813  1.8039
  892MOL0     H20385   2.376   1.692  11.698  0.1667 -1.3168 -1.5658
  892MOL0     H20386   2.324   2.075  11.692  2.8508  2.8197 -1.1161
  892MOL0     H20387   2.307   2.113  11.521 -2.9620  3.2891  2.2556
  892MOL0     H20388   2.085   2.108  11.621  1.2931 -0.0954  1.7564
  892MOL0     H20389   2.096   1.975  11.497 -1.1165 -0.3420  0.7804
  892MOL0     H20390   2.112   1.933  11.798  2.4812 -1.5479 -0.5870
  892MOL0     H20391   2.128   1.812  11.671  0.1160 -0.3241  1.7134
  892MOL0     H20392   1.885   1.980  11.740  0.5367  1.1942 -2.5247
  892MOL0     H20393   1.876   1.853  11.621 -1.3505 -0.6378  0.6130
  892MOL0     H20394   1.939   1.821  11.918  0.8073  0.3500 -0.6004
  892MOL0     H20395   1.922   1.682  11.816 -2.7833 -1.7389  3.3660
  892MOL0     H20396   1.708   1.899  11.878  2.6272  1.8809  0.6080
  892MOL0     H20397   1.665   1.743  11.782 -4.8798  2.3840  2.1821
  892MOL0     H20398   1.766   1.768  12.075 -2.1678  2.8790 -0.7816
  892MOL0     H20399   1.744   1.622  11.990  3.0556  0.9593  2.4830
  892MOL0     H20400   1.556   1.667  12.136 -3.2455  3.4798  1.5110
  892MOL0     H20401   1.495   1.671  11.980  0.8386 -1.3963 -0.5784
  892MOL0     H20402   2.591   2.037  11.556 -0.7775 -0.8356 -1.8052
  892MOL0     H20403   2.793   1.960  11.669 -0.3875  1.5129  0.1418
  892MOL0     H20404   2.800   1.421  11.673 -1.8439  2.6033  0.9509
  892MOL0     H20405   2.855   1.312  11.464  2.2997 -0.8322 -2.6245
  892MOL0     H20406   2.100   2.429  11.534 -0.9779  1.3737  0.7240
  892MOL0     H20407   1.861   2.480  11.537  2.0852  0.4351  1.1608
  892MOL0     H20408   1.566   2.766  11.545  1.2471 -0.3986 -0.6217
  892MOL0     H20409   1.355   2.850  11.590 -2.5925 -1.7324  0.4823
  892MOL0     H20410   1.068   2.922  11.589  0.2868  0.1839 -0.4886
  892MOL0     H20411   1.226   3.005  11.520  1.6895 -1.7150 -2.4164
  892MOL0     H20412   0.942   3.057  11.476 -0.7225 -1.4595  0.2955
  892MOL0     H20413   1.050   3.058  11.337  1.6925 -0.0181  0.1567
  892MOL0     H20414   1.218   3.214  11.480 -0.3434  2.5746  0.2504
  892MOL0     H20415   1.078   3.214  11.599  0.2905 -1.9524 -0.3837
  892MOL0     H20416   1.071   3.296  11.309 -2.3117 -3.6409  0.3480
  892MOL0     H20417   1.092   3.428  11.431 -0.5885 -0.1089 -0.5599
  892MOL0     H20418   0.695   3.430  11.472 -0.1033 -0.3252  1.1326
  892MOL0     H20419   1.198   2.730  11.218  1.0029  2.3578 -1.7921
  892MOL0     H20420   1.425   2.632  11.152 -0.6098 -1.4192  0.4979
  893MOL0     O20421  10.120   3.509   3.046 -0.0069  0.4838  0.2213
  893MOL0     C20422  10.207   3.493   2.960 -0.4173 -0.3074  0.6691
  893MOL0     O20423  10.217   3.379   2.881  0.1953  0.1434  0.8263
  893MOL0     C20424  10.100   3.316   2.869  0.4559 -0.3579 -0.0690
  893MOL0     C20425   9.980   3.389   2.824  0.1823  0.9812 -0.2703
  893MOL0     C20426   9.854   3.316   2.816  0.1846 -0.3835  0.3138
  893MOL0     C20427   9.849   3.180   2.831  0.0110  1.2081 -0.7652
  893MOL0     O20428   9.741   3.105   2.787 -0.6279  0.2067 -0.7276
  893MOL0     C20429   9.610   3.166   2.820 -0.6654  0.4285  0.7215
  893MOL0     C20430   9.515   3.055   2.864  0.2557  0.4707 -0.1937
  893MOL0     C20431   9.377   3.109   2.894  1.3241 -0.4818 -0.7599
  893MOL0     C20432   9.254   3.008   2.912  0.2485 -0.2467  0.5324
  893MOL0     C20433   9.140   3.026   2.818  0.7255 -0.5511 -0.2946
  893MOL0     C20434   9.080   3.168   2.816 -0.8575 -0.2040  0.5315
  893MOL0     C20435   9.013   3.204   2.941 -1.5585  0.5977 -0.1993
  893MOL0     C20436   8.920   3.103   3.009  0.2129 -0.7211  0.4321
  893MOL0     N20437   8.783   3.145   2.963 -0.7408 -0.3327  0.9305
  893MOL0     C20438   8.727   3.255   3.019 -0.5333 -0.2030  1.2686
  893MOL0     C20439   8.611   3.276   2.934  0.1342 -0.3336  0.0040
  893MOL0     C20440   8.498   3.373   2.962  0.3837 -1.0542 -0.3511
  893MOL0     C20441   8.359   3.317   2.987  0.6316 -0.0408 -0.1649
  893MOL0     C20442   8.332   3.292   3.140  0.2019 -0.0339  0.0612
  893MOL0     C20443   8.187   3.228   3.155 -0.3798 -1.3882  1.1954
  893MOL0     O20444   8.169   3.197   3.299  0.2102  0.5845  0.1753
  893MOL0     C20445   8.170   3.063   3.339  0.0674 -0.5477  0.5000
  893MOL0     C20446   8.243   2.966   3.269 -0.1657 -0.2733 -0.3522
  893MOL0     C20447   8.244   2.831   3.310 -0.5790  0.1177 -0.1049
  893MOL0     C20448   8.337   2.747   3.226 -0.6002 -0.4268  0.0095
  893MOL0     C20449   8.169   2.804   3.433  0.0409  0.0498  0.0561
  893MOL0     C20450   8.142   2.665   3.488 -0.1419  0.1072 -1.0930
  893MOL0     O20451   8.055   2.640   3.588  0.0197 -0.7652 -1.0696
  893MOL0     C20452   8.022   2.504   3.599 -0.7467 -0.1196 -0.5767
  893MOL0     C20453   8.083   2.409   3.688 -0.9104  0.0690  0.3991
  893MOL0     C20454   8.020   2.281   3.700 -0.0151 -0.7063  0.4013
  893MOL0     C20455   7.907   2.246   3.625  0.9374 -0.2266  0.9987
  893MOL0     O20456   7.855   2.119   3.622 -0.3340  0.2565  1.1504
  893MOL0     C20457   7.906   2.021   3.712 -0.4783 -0.0270 -0.3407
  893MOL0     C20458   7.878   1.881   3.665 -0.4518 -0.1624  0.7797
  893MOL0     C20459   7.741   1.827   3.665  0.9178 -0.6764  0.0040
  893MOL0     C20460   7.684   1.782   3.802  0.1355  0.7111  0.3142
  893MOL0     C20461   7.537   1.731   3.796 -0.3060  0.0000 -0.1858
  893MOL0     C20462   7.442   1.842   3.764 -0.2625 -0.5764  0.1656
  893MOL0     C20463   7.300   1.833   3.824 -0.5610  0.0238 -0.0519
  893MOL0     C20464   7.212   1.961   3.803  0.3683 -0.3762  0.7348
  893MOL0    Cl20465   7.183   2.002   3.625 -0.1196 -0.3128  0.1846
  893MOL0     C20466   7.847   2.334   3.539  0.2858  0.4740  0.3014
  893MOL0     C20467   7.906   2.467   3.531 -0.2357 -0.5313  0.2839
  893MOL0     O20468   8.200   2.578   3.432 -0.1033  0.6954  1.6009
  893MOL0     C20469   8.104   2.907   3.505 -1.0699 -0.2199  0.3963
  893MOL0     C20470   8.116   3.034   3.461  0.3509  0.0212 -1.2475
  893MOL0     N20471   8.614   3.183   2.836 -0.2116  0.2256  0.5985
  893MOL0     N20472   8.716   3.109   2.847  0.3977  0.7095  0.9962
  893MOL0     C20473   9.975   3.116   2.849 -0.9276 -0.1650 -0.6577
  893MOL0     C20474  10.099   3.182   2.870  0.2402  0.2432  0.3972
  893MOL0     C20475  10.303   3.595   2.935 -0.7458  0.6602  0.0289
  893MOL0     C20476  10.263   3.732   2.954  0.5393  0.0004  0.5266
  893MOL0     C20477  10.348   3.846   2.922  0.9655  0.5399 -0.2762
  893MOL0     C20478  10.473   3.813   2.887 -0.7333 -0.7544  0.0619
  893MOL0     O20479  10.571   3.901   2.849  0.0892 -0.2949  0.3444
  893MOL0     C20480  10.520   4.026   2.802 -0.0373  0.1467  0.7982
  893MOL0     C20481  10.619   4.084   2.697 -0.2201 -0.4514 -0.7472
  893MOL0     C20482  10.591   4.224   2.656 -0.1828  0.6945  0.0610
  893MOL0     C20483  10.620   4.335   2.750 -0.6327  0.4731  0.4549
  893MOL0     C20484  10.571   4.457   2.694 -0.1762 -1.2412  0.8614
  893MOL0     C20485  10.522   4.566   2.663 -0.0327 -0.6686  0.2722
  893MOL0     C20486  10.522   3.684   2.879 -0.2622  0.7971 -0.3017
  893MOL0     C20487  10.434   3.574   2.888 -0.1979 -0.5587 -0.2714
  893MOL0     H20488   9.974   3.493   2.794 -3.0383  1.0184  0.1533
  893MOL0     H20489   9.768   3.359   2.766 -0.1671  0.1515  1.3710
  893MOL0     H20490   9.616   3.250   2.889 -1.4710  1.2486 -0.1670
  893MOL0     H20491   9.579   3.217   2.728 -0.9579 -2.3077 -0.8238
  893MOL0     H20492   9.504   2.980   2.785 -0.1866 -0.8036  1.0274
  893MOL0     H20493   9.565   3.007   2.948 -1.6432 -3.6970 -1.2055
  893MOL0     H20494   9.364   3.184   2.972 -2.4025 -0.6232 -1.0229
  893MOL0     H20495   9.360   3.162   2.800 -1.8432 -1.6952 -0.9946
  893MOL0     H20496   9.300   2.911   2.891  2.2184  1.1147 -2.0840
  893MOL0     H20497   9.216   3.016   3.015 -0.0899 -1.0218  0.4737
  893MOL0     H20498   9.183   3.015   2.717  1.5415 -0.3854  0.0276
  893MOL0     H20499   9.063   2.951   2.838  0.6150 -0.0478  1.2810
  893MOL0     H20500   9.165   3.233   2.792  1.3332 -3.5359 -1.5851
  893MOL0     H20501   9.001   3.179   2.740 -0.5608  1.1165  0.3907
  893MOL0     H20502   9.088   3.210   3.021 -1.4211  1.2497 -0.3696
  893MOL0     H20503   8.974   3.305   2.931 -0.0752  1.4023  1.4913
  893MOL0     H20504   8.915   3.099   3.118 -1.2651  5.0462  0.8829
  893MOL0     H20505   8.933   3.002   2.968  0.1841 -1.5678  2.4144
  893MOL0     H20506   8.755   3.313   3.106  0.2285  2.9673 -0.9034
  893MOL0     H20507   8.525   3.441   3.044  1.3129 -2.0095  0.1525
  893MOL0     H20508   8.490   3.436   2.873 -3.3652  0.7399  1.0533
  893MOL0     H20509   8.334   3.225   2.933 -0.1342 -2.3285  3.7089
  893MOL0     H20510   8.284   3.393   2.962 -0.0895  0.3407  2.8004
  893MOL0     H20511   8.344   3.386   3.193 -0.4530 -1.2060  2.4299
  893MOL0     H20512   8.403   3.213   3.167  0.4843  0.3316  0.3835
  893MOL0     H20513   8.181   3.147   3.081  1.4161  0.8417 -1.5656
  893MOL0     H20514   8.113   3.300   3.120 -0.3094 -2.9846 -2.7814
  893MOL0     H20515   8.286   2.989   3.173  1.5155  0.9023  0.6329
  893MOL0     H20516   8.402   2.803   3.159 -1.7742 -1.2822 -1.9398
  893MOL0     H20517   8.402   2.681   3.284  2.9429  0.9460 -2.1165
  893MOL0     H20518   8.270   2.689   3.161 -4.4602  0.9561  2.3728
  893MOL0     H20519   8.174   2.428   3.744  0.1893 -2.2154 -0.4409
  893MOL0     H20520   8.064   2.214   3.772 -1.5899 -1.8054  0.3947
  893MOL0     H20521   8.015   2.031   3.715 -0.4809  0.4196  3.3535
  893MOL0     H20522   7.876   2.033   3.816  2.1906 -2.0310  0.7984
  893MOL0     H20523   7.925   1.872   3.566  3.7832 -0.4781  2.5715
  893MOL0     H20524   7.933   1.812   3.730  0.9551  0.2234  0.0446
  893MOL0     H20525   7.751   1.736   3.605 -1.1558 -1.3240  0.5774
  893MOL0     H20526   7.671   1.897   3.619  2.0041  0.5482  0.1410
  893MOL0     H20527   7.743   1.703   3.850 -0.1809 -0.3077 -0.9316
  893MOL0     H20528   7.680   1.857   3.882 -1.8842  0.8543  0.1379
  893MOL0     H20529   7.515   1.687   3.893 -2.1114  0.3155 -0.4156
  893MOL0     H20530   7.526   1.649   3.724 -1.1864  0.5645 -0.7208
  893MOL0     H20531   7.492   1.933   3.797 -0.9650  0.1158 -0.6287
  893MOL0     H20532   7.429   1.855   3.656 -1.2781  0.9734  0.4430
  893MOL0     H20533   7.299   1.821   3.932 -2.5930  1.5271  0.1367
  893MOL0     H20534   7.259   1.741   3.782 -0.4519  1.5791 -4.0102
  893MOL0     H20535   7.265   2.045   3.850 -0.3388 -0.1584  1.1538
  893MOL0     H20536   7.118   1.958   3.859  1.3857 -2.3214  2.4653
  893MOL0     H20537   7.762   2.308   3.476 -1.1642 -2.0495  3.0898
  893MOL0     H20538   7.850   2.542   3.476 -2.4469 -0.8730  1.9272
  893MOL0     H20539   8.052   2.896   3.599 -3.0219  0.0168 -0.5869
  893MOL0     H20540   8.057   3.111   3.510  0.4359  0.3702 -1.6763
  893MOL0     H20541   9.990   3.013   2.819  1.5592  0.5842 -2.3005
  893MOL0     H20542  10.185   3.119   2.886 -1.0865 -1.4706  1.1336
  893MOL0     H20543  10.165   3.764   2.988 -0.9555  1.3614 -4.3361
  893MOL0     H20544  10.326   3.951   2.937  0.6664  0.3396  0.8061
  893MOL0     H20545  10.423   4.034   2.751 -0.4466  0.7269  1.6412
  893MOL0     H20546  10.519   4.096   2.887  1.0837  2.3885 -0.9293
  893MOL0     H20547  10.628   4.032   2.601 -1.0372  0.8724 -1.5804
  893MOL0     H20548  10.724   4.080   2.727 -0.3409 -5.6352 -0.0497
  893MOL0     H20549  10.485   4.234   2.634 -0.0347 -0.5801 -1.4134
  893MOL0     H20550  10.660   4.247   2.574  3.6512 -3.3466  1.7668
  893MOL0     H20551  10.729   4.339   2.758  0.0481  2.1355 -5.1303
  893MOL0     H20552  10.561   4.313   2.839 -3.0055  0.4934 -1.0137
  893MOL0     H20553  10.467   4.656   2.651  0.7636  0.0668  1.7704
  893MOL0     H20554  10.625   3.684   2.844  0.8554 -1.9878  2.5552
  893MOL0     H20555  10.465   3.485   2.835 -3.7100 -1.1114 -1.6656
  894MOL0     O20556   3.497   4.811   1.059  1.0899 -0.1299 -0.4292
  894MOL0     C20557   3.466   4.729   1.147 -0.1346 -1.5591  1.5670
  894MOL0     O20558   3.418   4.771   1.264  0.0984 -0.0600  0.4971
  894MOL0     C20559   3.405   4.907   1.286 -1.0179  0.0566 -0.3511
  894MOL0     C20560   3.481   4.958   1.397  0.1511  0.2319 -0.0509
  894MOL0     C20561   3.469   5.094   1.432 -0.2248  0.3625  0.0209
  894MOL0     C20562   3.391   5.179   1.355 -0.6833 -0.6133  0.0166
  894MOL0     O20563   3.393   5.313   1.382 -0.3739 -0.3052  0.8057
  894MOL0     C20564   3.524   5.368   1.377 -0.0419 -0.3922  0.3175
  894MOL0     C20565   3.538   5.483   1.282  0.1370 -1.1866  1.2371
  894MOL0     C20566   3.447   5.601   1.322  0.1097 -0.0119 -1.8679
  894MOL0     C20567   3.421   5.681   1.199  0.1615  0.0799 -0.7451
  894MOL0     C20568   3.401   5.829   1.247 -0.0733  0.7226  0.2524
  894MOL0     C20569   3.271   5.856   1.338  0.6789 -0.9425  0.1423
  894MOL0     C20570   3.205   5.999   1.324  0.5435 -0.3897  0.2746
  894MOL0     C20571   3.136   6.026   1.191  0.4344 -0.3944 -0.8355
  894MOL0     N20572   3.018   5.932   1.174 -0.8161 -0.1665  0.5641
  894MOL0     C20573   2.912   5.904   1.261 -1.2363 -0.2012  0.0517
  894MOL0     C20574   2.847   5.806   1.197  0.3661  0.8775 -0.2856
  894MOL0     C20575   2.705   5.749   1.233 -0.6898  0.2173 -0.4688
  894MOL0     C20576   2.636   5.657   1.130  0.2868  0.4595  0.7760
  894MOL0     C20577   2.566   5.740   1.028  0.0510 -0.0395 -0.4102
  894MOL0     C20578   2.453   5.646   0.973  0.5782 -0.1977 -0.3179
  894MOL0     O20579   2.375   5.576   1.071 -0.0047  1.1181  0.8016
  894MOL0     C20580   2.265   5.495   1.038 -0.9177  0.1007 -0.3516
  894MOL0     C20581   2.145   5.494   1.122 -0.4177 -0.1358 -0.1958
  894MOL0     C20582   2.036   5.417   1.079 -0.4101 -0.1254 -0.2381
  894MOL0     C20583   1.911   5.445   1.159  0.1096  0.0353 -0.0567
  894MOL0     C20584   2.051   5.330   0.964 -1.2407 -0.1602 -0.6214
  894MOL0     C20585   1.941   5.260   0.908  0.7094  0.3094 -0.7659
  894MOL0     O20586   1.879   5.314   0.807  0.6177 -0.1293  0.9893
  894MOL0     C20587   1.774   5.254   0.740 -0.3678  0.0815  1.2442
  894MOL0     C20588   1.664   5.337   0.710 -0.1165 -1.0029 -1.1977
  894MOL0     C20589   1.561   5.294   0.627 -0.0473 -0.4193  0.1505
  894MOL0     C20590   1.550   5.157   0.585 -2.1274  1.2301  0.1241
  894MOL0     O20591   1.448   5.108   0.505  0.1963 -0.3261 -0.0774
  894MOL0     C20592   1.350   5.196   0.454 -0.3030  0.5398 -0.4752
  894MOL0     C20593   1.256   5.114   0.373  0.6072  1.2481 -0.1038
  894MOL0     C20594   1.136   5.183   0.313 -1.1003  0.4438  0.5541
  894MOL0     C20595   1.048   5.114   0.203 -0.9735  0.4477  0.3022
  894MOL0     C20596   0.915   5.062   0.259  0.1757 -0.0393  1.3649
  894MOL0     C20597   0.821   5.170   0.306  0.3382  0.2247  0.2091
  894MOL0     C20598   0.688   5.117   0.343  0.2717  0.3248  0.2461
  894MOL0     C20599   0.578   5.222   0.315  0.7640 -1.3000  0.3977
  894MOL0    Cl20600   0.548   5.270   0.148  0.0244  0.0276 -0.0792
  894MOL0     C20601   1.655   5.066   0.629 -0.8155 -0.2715 -0.2141
  894MOL0     C20602   1.761   5.116   0.705  1.0394 -0.2573  0.9029
  894MOL0     O20603   1.901   5.154   0.961 -0.0297 -0.4607  0.4466
  894MOL0     C20604   2.165   5.331   0.882 -0.8489  0.1982  0.4111
  894MOL0     C20605   2.264   5.427   0.918 -1.1990  0.4926 -0.6783
  894MOL0     N20606   2.918   5.761   1.077 -0.4005 -0.0503 -0.5226
  894MOL0     N20607   3.014   5.842   1.071  0.5688 -0.1552 -0.0733
  894MOL0     C20608   3.329   5.133   1.235 -0.7187 -0.2130  0.8303
  894MOL0     C20609   3.339   4.998   1.208  0.0637 -0.2687  0.4390
  894MOL0     C20610   3.501   4.593   1.135 -1.4988  0.4825 -0.5335
  894MOL0     C20611   3.519   4.510   1.246  0.4150 -0.2547 -0.0934
  894MOL0     C20612   3.559   4.378   1.227 -0.2043 -0.2139  0.4913
  894MOL0     C20613   3.584   4.321   1.105 -0.0604 -0.2606  0.3679
  894MOL0     O20614   3.637   4.191   1.115 -0.7126  0.6447  0.0994
  894MOL0     C20615   3.678   4.129   0.992  0.7106  0.1730  0.3827
  894MOL0     C20616   3.745   3.993   1.025 -0.0087 -0.1396  0.7674
  894MOL0     C20617   3.802   3.911   0.903 -0.6236 -0.5684  0.3216
  894MOL0     C20618   3.913   3.985   0.816 -0.3898 -0.3182  0.1107
  894MOL0     C20619   4.043   3.957   0.885 -1.1773 -0.1282  0.4228
  894MOL0     C20620   4.136   3.934   0.956 -0.7849 -0.4397 -0.0143
  894MOL0     C20621   3.569   4.407   0.995  0.2639 -0.6399  0.0201
  894MOL0     C20622   3.529   4.542   1.003 -0.3006  0.2341 -0.8662
  894MOL0     H20623   3.552   4.904   1.460 -1.6546 -0.6319  1.3520
  894MOL0     H20624   3.515   5.127   1.525  2.9456 -0.1170 -1.2569
  894MOL0     H20625   3.541   5.419   1.472 -0.0844  3.5465 -1.6045
  894MOL0     H20626   3.600   5.291   1.359 -0.1513  0.0290 -2.3353
  894MOL0     H20627   3.644   5.507   1.267 -0.4792 -0.1682 -2.1109
  894MOL0     H20628   3.505   5.452   1.183 -1.6390  2.1301  0.6518
  894MOL0     H20629   3.357   5.562   1.371  0.7185  1.7064  0.8669
  894MOL0     H20630   3.492   5.669   1.395 -1.4258 -0.3772 -0.5168
  894MOL0     H20631   3.510   5.673   1.136  2.7072  3.2244  2.0364
  894MOL0     H20632   3.335   5.633   1.151  1.6788 -2.8070 -0.8103
  894MOL0     H20633   3.495   5.859   1.294  1.7748 -4.1574  0.2078
  894MOL0     H20634   3.398   5.883   1.151  8.6324  2.4296  0.1092
  894MOL0     H20635   3.193   5.785   1.310 -0.4469  0.0270  0.6865
  894MOL0     H20636   3.290   5.842   1.445  2.0366  2.0364  0.4037
  894MOL0     H20637   3.139   6.007   1.411  0.0566 -3.2022  0.2466
  894MOL0     H20638   3.283   6.074   1.343  0.2232  0.5001 -1.6986
  894MOL0     H20639   3.197   6.021   1.100  1.8337 -2.2333  0.1475
  894MOL0     H20640   3.090   6.125   1.197  2.1490  0.4072 -0.0640
  894MOL0     H20641   2.870   5.960   1.344 -1.5924  3.3467 -2.2774
  894MOL0     H20642   2.705   5.706   1.334 -1.6874  0.2331 -0.4461
  894MOL0     H20643   2.637   5.831   1.258  0.7941  1.4365 -0.3163
  894MOL0     H20644   2.570   5.583   1.175  1.9220 -1.2724  0.4355
  894MOL0     H20645   2.702   5.592   1.072  0.3791  0.8472  0.4373
  894MOL0     H20646   2.642   5.769   0.954  1.7917  3.7931  2.5259
  894MOL0     H20647   2.525   5.829   1.078 -0.2649 -0.8784  0.8605
  894MOL0     H20648   2.513   5.588   0.902  0.3512  2.7024 -3.1424
  894MOL0     H20649   2.380   5.702   0.913  1.0892 -0.7031 -1.4479
  894MOL0     H20650   2.138   5.555   1.211 -2.7654  0.8939 -1.0148
  894MOL0     H20651   1.930   5.410   1.261  0.3268  2.3662  0.7656
  894MOL0     H20652   1.900   5.553   1.172  0.3222  0.0924 -0.3360
  894MOL0     H20653   1.822   5.386   1.134 -1.4613  1.9409  0.7872
  894MOL0     H20654   1.675   5.441   0.740  1.8310 -1.6057  0.4434
  894MOL0     H20655   1.476   5.359   0.607 -0.2606  0.0292  2.2802
  894MOL0     H20656   1.292   5.243   0.534 -0.6752 -1.0631  0.2284
  894MOL0     H20657   1.406   5.267   0.392  1.0427 -3.4948 -4.4038
  894MOL0     H20658   1.309   5.069   0.289 -1.5529 -0.4709 -0.6346
  894MOL0     H20659   1.226   5.023   0.426  0.6988 -0.7775 -3.2687
  894MOL0     H20660   1.172   5.274   0.264  0.5095 -0.0031  0.8648
  894MOL0     H20661   1.083   5.212   0.405  1.9401 -1.1518  3.0185
  894MOL0     H20662   1.029   5.187   0.123 -1.6213 -0.6758 -0.6116
  894MOL0     H20663   1.094   5.025   0.160 -1.8823  0.0157  0.1890
  894MOL0     H20664   0.930   4.990   0.339 -0.6137  0.3371  1.8554
  894MOL0     H20665   0.880   5.005   0.172  3.1124  0.2723 -0.1687
  894MOL0     H20666   0.860   5.215   0.397  0.2359 -1.2191  0.9875
  894MOL0     H20667   0.807   5.241   0.224 -1.4825 -1.6237 -1.1882
  894MOL0     H20668   0.692   5.091   0.449  0.8429  0.7385  0.3311
  894MOL0     H20669   0.672   5.034   0.273  2.6275  0.9811 -1.2162
  894MOL0     H20670   0.614   5.314   0.363  2.4134 -0.8818 -1.5252
  894MOL0     H20671   0.483   5.185   0.355  0.7696 -1.5111  0.2152
  894MOL0     H20672   1.652   4.964   0.590  0.0866 -0.5446  0.4016
  894MOL0     H20673   1.832   5.046   0.748  0.4884 -0.1958  1.9318
  894MOL0     H20674   2.167   5.276   0.788  0.5048 -0.3948  0.7724
  894MOL0     H20675   2.339   5.443   0.841 -1.5485 -0.1856 -1.1764
  894MOL0     H20676   3.288   5.214   1.175  0.3373 -1.4168 -1.6494
  894MOL0     H20677   3.294   4.960   1.117  1.3403  0.2908 -0.4559
  894MOL0     H20678   3.498   4.543   1.347 -1.2359  1.2826 -0.8702
  894MOL0     H20679   3.568   4.303   1.305  0.5878 -1.1547 -0.4846
  894MOL0     H20680   3.583   4.120   0.940  1.3489 -2.8287 -0.4871
  894MOL0     H20681   3.749   4.184   0.929 -1.6125 -0.4821 -3.0490
  894MOL0     H20682   3.674   3.932   1.082  0.4915 -1.3469  0.1357
  894MOL0     H20683   3.826   4.015   1.095  1.1708 -0.1107 -0.5652
  894MOL0     H20684   3.720   3.893   0.833 -0.4358  0.8024 -0.2714
  894MOL0     H20685   3.834   3.809   0.926 -1.6500 -1.1878 -0.8320
  894MOL0     H20686   3.884   4.089   0.802 -2.3725 -0.8396 -0.0057
  894MOL0     H20687   3.912   3.948   0.713 -5.0099 -2.4022  0.6378
  894MOL0     H20688   4.224   3.922   1.017  1.0848  1.6104 -2.1080
  894MOL0     H20689   3.593   4.364   0.898 -1.4499  1.9099 -1.6450
  894MOL0     H20690   3.528   4.610   0.919 -5.5799  1.4503 -0.1634
  895MOL0     O20691   6.638   3.064   0.826  0.6364  0.2577  0.0199
  895MOL0     C20692   6.611   2.951   0.870 -0.7369 -0.8384 -0.6385
  895MOL0     O20693   6.604   2.836   0.792 -0.3455 -0.2383 -0.4439
  895MOL0     C20694   6.606   2.859   0.658 -0.8649  1.5527  0.2425
  895MOL0     C20695   6.492   2.870   0.575  0.1928  0.3961  0.3679
  895MOL0     C20696   6.502   2.875   0.435  0.2905 -0.0219  1.3920
  895MOL0     C20697   6.626   2.869   0.371  0.8007 -1.5318 -0.1860
  895MOL0     O20698   6.641   2.899   0.239 -0.5154 -0.1987  0.0767
  895MOL0     C20699   6.584   2.809   0.153  0.2762 -0.5238  0.0734
  895MOL0     C20700   6.654   2.823   0.013  0.4338  0.4646  0.0623
  895MOL0     C20701   6.637   2.947  -0.068  0.5720 -0.5834  0.4762
  895MOL0     C20702   6.489   2.967  -0.117  0.5845 -0.1743 -0.5386
  895MOL0     C20703   6.474   3.102  -0.186 -0.8578  0.0964 -0.0570
  895MOL0     C20704   6.358   3.117  -0.271  0.3993  0.1304 -0.4783
  895MOL0     C20705   6.340   3.247  -0.336  0.1055 -1.0929 -0.0666
  895MOL0     C20706   6.443   3.281  -0.445 -0.9839 -0.0158  0.0306
  895MOL0     N20707   6.441   3.173  -0.554  0.7253 -0.3569 -0.7851
  895MOL0     C20708   6.338   3.166  -0.649  1.3698 -0.0444 -0.7923
  895MOL0     C20709   6.402   3.147  -0.774 -0.4666  0.6210 -1.3676
  895MOL0     C20710   6.321   3.149  -0.898  0.1375 -0.2473 -0.0173
  895MOL0     C20711   6.368   3.035  -1.000  0.3486 -0.7463 -0.5205
  895MOL0     C20712   6.326   2.897  -0.956  0.9892  0.4473  0.3486
  895MOL0     C20713   6.314   2.794  -1.082 -0.8843 -0.9846  0.6963
  895MOL0     O20714   6.315   2.663  -1.035  0.7310  0.0008 -0.8669
  895MOL0     C20715   6.412   2.580  -1.066  0.0525 -0.2153 -0.3900
  895MOL0     C20716   6.433   2.546  -1.199 -0.1335 -0.0494  0.1082
  895MOL0     C20717   6.528   2.458  -1.250  0.3124 -0.7434  0.5301
  895MOL0     C20718   6.533   2.438  -1.399  0.4696 -0.0471  0.6521
  895MOL0     C20719   6.600   2.387  -1.154 -0.2582 -0.8751 -0.0848
  895MOL0     C20720   6.704   2.283  -1.186  0.5932 -0.3635  0.7286
  895MOL0     O20721   6.711   2.242  -1.316  0.1082 -0.2315 -0.3042
  895MOL0     C20722   6.755   2.110  -1.328  0.2787  0.0921 -0.2015
  895MOL0     C20723   6.857   2.070  -1.412 -0.2896  0.3084 -0.1174
  895MOL0     C20724   6.901   1.937  -1.427  0.1329  0.5475 -0.9547
  895MOL0     C20725   6.838   1.838  -1.347  0.4778 -0.3108 -0.3272
  895MOL0     O20726   6.872   1.701  -1.353  0.1236 -0.0197  0.5056
  895MOL0     C20727   6.971   1.660  -1.451 -0.4201 -0.4994  0.3733
  895MOL0     C20728   6.992   1.513  -1.440  0.6315  0.5690  0.0311
  895MOL0     C20729   6.880   1.432  -1.496  0.3912  0.3115 -0.2583
  895MOL0     C20730   6.881   1.282  -1.458  1.0022 -0.2987 -0.0739
  895MOL0     C20731   6.752   1.200  -1.514 -0.0885  0.8669  0.0109
  895MOL0     C20732   6.745   1.057  -1.463 -0.3977 -1.0827 -0.2885
  895MOL0     C20733   6.800   0.949  -1.558 -0.4474 -1.7583 -0.3192
  895MOL0     C20734   6.710   0.926  -1.680 -0.4345  0.4046 -0.8327
  895MOL0    Cl20735   6.791   0.802  -1.792  0.0714 -0.3936  0.3925
  895MOL0     C20736   6.722   1.874  -1.273 -0.0090 -0.5013  0.8887
  895MOL0     C20737   6.685   2.013  -1.258  0.3985 -0.8330  0.0835
  895MOL0     O20738   6.783   2.251  -1.095 -0.0915 -0.7795 -0.3876
  895MOL0     C20739   6.579   2.414  -1.012  0.6464 -0.6855  0.4646
  895MOL0     C20740   6.493   2.522  -0.969  0.5334  0.4155 -0.2478
  895MOL0     N20741   6.538   3.131  -0.753  0.4481  0.8012  0.5657
  895MOL0     N20742   6.563   3.164  -0.631  0.6770 -0.2750 -0.3752
  895MOL0     C20743   6.742   2.865   0.457 -0.0555  0.2390 -0.1202
  895MOL0     C20744   6.726   2.851   0.595 -0.0648  0.2536 -0.6973
  895MOL0     C20745   6.582   2.932   1.023  0.9636 -0.4846 -0.1582
  895MOL0     C20746   6.608   3.036   1.118  0.3403 -0.1500 -0.3106
  895MOL0     C20747   6.601   3.006   1.249 -0.6950  0.7403  0.3930
  895MOL0     C20748   6.554   2.879   1.288  0.6556  0.0199  0.3215
  895MOL0     O20749   6.553   2.842   1.422  0.8875  0.1927 -1.1419
  895MOL0     C20750   6.543   2.940   1.526  0.3664 -0.8842  0.3603
  895MOL0     C20751   6.411   3.023   1.518 -1.2127 -0.3188  0.0432
  895MOL0     C20752   6.292   2.944   1.556  0.5949 -0.0126 -0.6752
  895MOL0     C20753   6.290   2.894   1.698  0.1226  1.2081 -0.0576
  895MOL0     C20754   6.317   3.004   1.792  0.0835  0.6770 -0.3870
  895MOL0     C20755   6.318   3.099   1.868  1.3789 -0.2727  1.3127
  895MOL0     C20756   6.520   2.780   1.195  0.2712 -0.2702  0.1508
  895MOL0     C20757   6.546   2.803   1.061 -0.0193 -0.2352 -0.0792
  895MOL0     H20758   6.391   2.864   0.615 -0.8501  0.2576 -2.1496
  895MOL0     H20759   6.420   2.885   0.365 -0.7001 -0.9201  2.3769
  895MOL0     H20760   6.614   2.709   0.185  0.3079 -2.3368 -4.7508
  895MOL0     H20761   6.477   2.833   0.157  0.5979  0.8817  2.0399
  895MOL0     H20762   6.761   2.807   0.030  0.8090 -0.9626 -2.9052
  895MOL0     H20763   6.619   2.741  -0.052 -0.9473  2.4714 -1.8797
  895MOL0     H20764   6.676   3.026  -0.004  2.7580  0.3036 -1.7771
  895MOL0     H20765   6.701   2.945  -0.156  0.3724 -4.1258  0.2378
  895MOL0     H20766   6.456   2.892  -0.189  1.7537  0.5952 -1.9217
  895MOL0     H20767   6.415   2.952  -0.038 -0.2620 -2.2246 -1.6262
  895MOL0     H20768   6.492   3.187  -0.120 -0.3379 -0.3761  0.4272
  895MOL0     H20769   6.566   3.104  -0.245 -1.9017 -2.1913 -1.9593
  895MOL0     H20770   6.361   3.040  -0.349  0.7934  0.1607 -0.4958
  895MOL0     H20771   6.270   3.100  -0.209  2.8562 -1.4061  2.9403
  895MOL0     H20772   6.239   3.242  -0.378  0.4329 -4.0274 -0.7609
  895MOL0     H20773   6.344   3.331  -0.266 -0.6215 -2.7151  2.0587
  895MOL0     H20774   6.539   3.293  -0.394 -2.2627 -2.3175  3.3259
  895MOL0     H20775   6.431   3.377  -0.497  0.9871  1.1694  1.5783
  895MOL0     H20776   6.235   3.199  -0.640  1.6156  0.4405  0.4392
  895MOL0     H20777   6.217   3.132  -0.869  0.5984 -0.1434  1.8189
  895MOL0     H20778   6.342   3.238  -0.958  2.3104  1.1649  2.6326
  895MOL0     H20779   6.475   3.032  -1.020  0.4883 -1.7715  0.2726
  895MOL0     H20780   6.320   3.058  -1.096 -1.1802  1.2139  0.6452
  895MOL0     H20781   6.231   2.898  -0.903  1.5834 -1.2378  1.5284
  895MOL0     H20782   6.391   2.860  -0.876  0.4546 -1.1713  0.0841
  895MOL0     H20783   6.407   2.832  -1.127 -1.6089  3.5839  2.4714
  895MOL0     H20784   6.223   2.815  -1.138  0.5609  2.2415 -0.7511
  895MOL0     H20785   6.358   2.603  -1.252 -4.5298 -2.0535  3.5523
  895MOL0     H20786   6.480   2.511  -1.460  0.4361 -2.2687 -2.1939
  895MOL0     H20787   6.638   2.447  -1.429 -0.1273 -0.9566 -1.9338
  895MOL0     H20788   6.503   2.336  -1.428  4.5269  0.1264 -6.5271
  895MOL0     H20789   6.902   2.155  -1.463 -0.0133  0.6923  0.7388
  895MOL0     H20790   6.986   1.911  -1.490  0.3405 -0.9835 -0.0775
  895MOL0     H20791   6.947   1.691  -1.554  0.3828 -0.8420  0.0726
  895MOL0     H20792   7.065   1.707  -1.421  0.1877 -1.8634  0.6796
  895MOL0     H20793   7.089   1.480  -1.478  3.1732  3.1767  3.6059
  895MOL0     H20794   6.994   1.497  -1.332  1.8284 -0.0168 -0.0655
  895MOL0     H20795   6.901   1.421  -1.603  1.1800  1.7960 -0.2737
  895MOL0     H20796   6.784   1.484  -1.489  1.7300  2.8717 -0.0062
  895MOL0     H20797   6.967   1.237  -1.510  1.7030 -1.2755  1.8517
  895MOL0     H20798   6.892   1.271  -1.350  0.4900 -3.0316 -0.2118
  895MOL0     H20799   6.750   1.207  -1.624 -1.7881 -2.0352 -0.2427
  895MOL0     H20800   6.667   1.252  -1.469  0.0863  1.6711 -0.5608
  895MOL0     H20801   6.795   1.046  -1.366  1.1197  0.9254 -0.7628
  895MOL0     H20802   6.640   1.037  -1.441  0.3638 -1.8169  3.5438
  895MOL0     H20803   6.813   0.858  -1.497 -0.0400 -1.7776 -0.4292
  895MOL0     H20804   6.903   0.977  -1.583 -0.8150 -1.4023 -1.4797
  895MOL0     H20805   6.693   1.017  -1.739 -1.9494  0.8268  0.1551
  895MOL0     H20806   6.607   0.900  -1.653 -0.6565 -1.9899 -3.5537
  895MOL0     H20807   6.664   1.802  -1.216 -1.9334  0.9439  0.8554
  895MOL0     H20808   6.593   2.037  -1.204  0.7279 -1.0804  0.7691
  895MOL0     H20809   6.625   2.360  -0.930 -1.1357 -1.1173  1.2280
  895MOL0     H20810   6.469   2.549  -0.866 -0.3411  0.4405 -0.4472
  895MOL0     H20811   6.838   2.862   0.405 -2.1727  0.5993 -4.5460
  895MOL0     H20812   6.813   2.841   0.658  0.6898 -1.7251 -1.9649
  895MOL0     H20813   6.650   3.131   1.085 -1.2379 -0.0185 -2.1270
  895MOL0     H20814   6.639   3.087   1.311  0.6184 -0.1821  0.8333
  895MOL0     H20815   6.553   2.898   1.626 -3.7056 -0.5379  1.1040
  895MOL0     H20816   6.626   3.010   1.515  0.7493 -1.5874 -1.8198
  895MOL0     H20817   6.404   3.050   1.412 -1.3095 -2.2316 -0.4771
  895MOL0     H20818   6.424   3.104   1.590 -2.3489 -0.7842  0.8019
  895MOL0     H20819   6.269   2.867   1.482  3.3754 -0.6402 -0.9924
  895MOL0     H20820   6.213   3.020   1.565  2.7338  2.0900  1.8660
  895MOL0     H20821   6.361   2.811   1.711 -0.7726  0.7680  2.7263
  895MOL0     H20822   6.189   2.854   1.715  0.6913 -1.9317 -2.9438
  895MOL0     H20823   6.311   3.187   1.930  2.2076  2.3950 -2.0683
  895MOL0     H20824   6.492   2.679   1.226 -3.1135  0.0376 -1.5172
  895MOL0     H20825   6.541   2.731   0.980  0.6186  0.7198 -0.9865
  896MOL0     O20826   7.603   3.560   5.463  0.2792  0.0869  0.6377
  896MOL0     C20827   7.601   3.677   5.442  0.8587  0.3399 -0.3660
  896MOL0     O20828   7.542   3.734   5.329 -0.8272  0.0446 -0.6651
  896MOL0     C20829   7.481   3.657   5.239  0.1240  0.8846  0.6312
  896MOL0     C20830   7.526   3.530   5.185  0.5323 -0.4562  0.1566
  896MOL0     C20831   7.426   3.467   5.096 -0.6355  0.2059 -0.0687
  896MOL0     C20832   7.309   3.531   5.059  0.0101 -0.4752  0.4520
  896MOL0     O20833   7.227   3.464   4.971 -0.4609  0.8198  0.6819
  896MOL0     C20834   7.116   3.391   5.022 -0.1758 -0.7573  0.4421
  896MOL0     C20835   7.151   3.249   5.078  1.0449  0.2354 -0.4377
  896MOL0     C20836   7.048   3.169   5.165  0.5682 -0.1330  0.1032
  896MOL0     C20837   7.095   3.024   5.186  0.2189  1.1651 -0.3248
  896MOL0     C20838   7.013   2.954   5.299  0.5814 -0.8958  0.3815
  896MOL0     C20839   7.038   2.806   5.335 -0.5057  0.4570  1.0663
  896MOL0     C20840   7.100   2.783   5.472 -0.6793 -0.0063 -0.0045
  896MOL0     C20841   7.258   2.761   5.462  0.0069  0.0867 -0.2307
  896MOL0     N20842   7.328   2.775   5.584 -0.0698 -0.0875  0.1557
  896MOL0     C20843   7.428   2.689   5.629 -0.2134  0.3101 -0.3435
  896MOL0     C20844   7.473   2.764   5.738  0.6558 -0.0045  1.1889
  896MOL0     C20845   7.589   2.724   5.825  0.3552  0.2553 -0.1746
  896MOL0     C20846   7.699   2.834   5.845 -0.0336 -0.4639 -0.1473
  896MOL0     C20847   7.765   2.874   5.713  0.0199  0.1073 -0.1911
  896MOL0     C20848   7.843   2.765   5.627  0.2054  0.4190 -0.7634
  896MOL0     O20849   7.958   2.734   5.706 -0.0767 -1.0044  0.4252
  896MOL0     C20850   8.038   2.627   5.663 -0.8032 -0.7821  0.3309
  896MOL0     C20851   8.107   2.558   5.758 -0.7724  0.8262 -0.3423
  896MOL0     C20852   8.172   2.440   5.731  0.5213 -0.6367 -0.4891
  896MOL0     C20853   8.225   2.365   5.856 -0.3362  0.6151  0.0781
  896MOL0     C20854   8.157   2.388   5.603 -0.3432 -0.5366  0.2322
  896MOL0     C20855   8.231   2.268   5.557  0.1177  0.1078 -0.5350
  896MOL0     O20856   8.164   2.205   5.447  0.5441 -1.3555 -0.6715
  896MOL0     C20857   8.203   2.081   5.416 -0.1982 -0.2816  0.2297
  896MOL0     C20858   8.302   2.063   5.317  0.5798 -0.4490 -0.3027
  896MOL0     C20859   8.338   1.939   5.288 -1.2351 -0.7691 -0.2485
  896MOL0     C20860   8.284   1.820   5.343  0.2776  0.0254  0.3287
  896MOL0     O20861   8.356   1.701   5.325  0.4627 -0.7337  0.6482
  896MOL0     C20862   8.318   1.636   5.198  0.0229  1.1831 -0.7101
  896MOL0     C20863   8.427   1.545   5.157  0.5131 -0.3050 -0.9354
  896MOL0     C20864   8.414   1.497   5.017  0.1435 -0.2541  0.0571
  896MOL0     C20865   8.281   1.416   4.994 -0.7370  0.2294  0.7574
  896MOL0     C20866   8.243   1.394   4.834 -0.3612 -0.8086 -0.5068
  896MOL0     C20867   8.125   1.296   4.827 -0.0084  0.2938  0.4189
  896MOL0     C20868   8.062   1.310   4.682  0.8975  0.3860 -0.8783
  896MOL0     C20869   7.949   1.201   4.667  0.2806  0.0713 -0.8094
  896MOL0    Cl20870   7.814   1.237   4.788  0.0431 -0.4652 -0.1991
  896MOL0     C20871   8.184   1.838   5.447  1.5349 -0.1187  0.1363
  896MOL0     C20872   8.144   1.968   5.479  0.2884 -0.0087  0.1239
  896MOL0     O20873   8.342   2.232   5.604  0.0335  0.3033  0.7032
  896MOL0     C20874   8.110   2.471   5.494  1.4833 -0.1664  0.1340
  896MOL0     C20875   8.044   2.588   5.524  0.5868  0.2328 -0.8804
  896MOL0     N20876   7.407   2.885   5.749 -0.6427 -0.5232  0.3428
  896MOL0     N20877   7.314   2.886   5.659  0.4182 -0.2473  0.4571
  896MOL0     C20878   7.280   3.651   5.100  0.3050  0.7552 -0.4153
  896MOL0     C20879   7.369   3.721   5.183 -0.4473 -0.5387  0.2923
  896MOL0     C20880   7.674   3.773   5.529 -0.0790 -0.3971  0.1090
  896MOL0     C20881   7.749   3.728   5.634  0.4385 -0.3246  0.2086
  896MOL0     C20882   7.838   3.809   5.705  0.5122 -1.1009 -0.4635
  896MOL0     C20883   7.867   3.946   5.663  1.0681  0.4905  0.4965
  896MOL0     O20884   7.940   4.020   5.751 -0.2756  0.6821  0.0237
  896MOL0     C20885   7.976   4.151   5.712  0.0334 -0.1805 -0.5039
  896MOL0     C20886   8.047   4.241   5.819  0.0236 -0.1904  0.5871
  896MOL0     C20887   7.950   4.294   5.920 -0.5539 -0.7787 -0.5510
  896MOL0     C20888   8.033   4.360   6.042  0.1485  0.1436 -0.6606
  896MOL0     C20889   7.967   4.438   6.151 -0.1004  0.7143  0.7969
  896MOL0     C20890   7.915   4.501   6.243 -0.1448  0.3061 -0.0163
  896MOL0     C20891   7.793   3.995   5.552  0.7021 -0.3006 -0.8772
  896MOL0     C20892   7.694   3.911   5.486 -0.6586  1.2977 -0.0110
  896MOL0     H20893   7.628   3.505   5.211  1.2413  4.4381  3.4673
  896MOL0     H20894   7.445   3.369   5.054  3.1733  0.4007  0.8836
  896MOL0     H20895   7.078   3.456   5.102 -1.9892  1.7985 -2.2787
  896MOL0     H20896   7.043   3.367   4.944  1.2200 -2.8590 -0.3051
  896MOL0     H20897   7.172   3.187   4.990 -1.8655 -1.7756  0.1336
  896MOL0     H20898   7.244   3.248   5.136  1.2536 -2.1777 -0.7122
  896MOL0     H20899   7.025   3.217   5.261 -3.5039 -2.2353  0.3910
  896MOL0     H20900   6.958   3.163   5.103  0.3432  0.2638  0.3848
  896MOL0     H20901   7.080   2.968   5.093  2.8098 -3.0803  1.5012
  896MOL0     H20902   7.201   3.007   5.204  0.2192 -1.4513 -2.1296
  896MOL0     H20903   7.024   3.016   5.389  0.4701 -0.1343 -0.1228
  896MOL0     H20904   6.911   2.959   5.261  0.0135 -0.1982  1.9149
  896MOL0     H20905   6.939   2.761   5.334 -0.4441  0.2602  2.2492
  896MOL0     H20906   7.103   2.760   5.260 -0.3081 -2.2927  2.7886
  896MOL0     H20907   7.070   2.867   5.536 -0.5244 -0.6723  0.9654
  896MOL0     H20908   7.064   2.692   5.519  0.0944 -0.3644 -0.0972
  896MOL0     H20909   7.290   2.824   5.379  0.6576 -0.6564 -0.5595
  896MOL0     H20910   7.282   2.664   5.418 -0.5741  0.8154 -2.2253
  896MOL0     H20911   7.451   2.584   5.612 -1.2187  0.2031 -1.1629
  896MOL0     H20912   7.560   2.691   5.925 -4.1966  1.2419 -0.9613
  896MOL0     H20913   7.633   2.637   5.776 -2.3560 -1.1014 -0.3785
  896MOL0     H20914   7.775   2.789   5.909  1.3679 -0.4619 -1.7472
  896MOL0     H20915   7.658   2.925   5.890  0.8540  0.3865 -0.9989
  896MOL0     H20916   7.824   2.964   5.735 -0.8941  0.4036  1.1439
  896MOL0     H20917   7.681   2.892   5.645  1.4118  0.1369 -1.9746
  896MOL0     H20918   7.872   2.814   5.534  2.8033 -1.8256 -1.2587
  896MOL0     H20919   7.791   2.674   5.595 -0.6009  0.6812 -0.2385
  896MOL0     H20920   8.105   2.600   5.858 -2.0810  1.6205 -0.6776
  896MOL0     H20921   8.331   2.389   5.871 -0.2043  0.7519 -0.9631
  896MOL0     H20922   8.168   2.389   5.946 -1.5438 -2.6349  0.2982
  896MOL0     H20923   8.210   2.258   5.843 -4.3048  1.2272 -1.7691
  896MOL0     H20924   8.354   2.152   5.283 -1.5164  1.2393  0.6618
  896MOL0     H20925   8.433   1.933   5.235 -0.4078  0.3691  1.0410
  896MOL0     H20926   8.227   1.576   5.209  0.0197  0.9901 -1.7256
  896MOL0     H20927   8.292   1.705   5.118 -0.5955  1.5550 -0.2025
  896MOL0     H20928   8.516   1.608   5.165 -0.4058  0.7624  3.9112
  896MOL0     H20929   8.439   1.466   5.232  1.0998  0.0600 -0.6315
  896MOL0     H20930   8.498   1.439   4.977  1.7821  1.1857  1.2380
  896MOL0     H20931   8.411   1.587   4.956  1.6240  0.0386  0.3871
  896MOL0     H20932   8.290   1.316   5.039 -2.8192  0.6572  2.2520
  896MOL0     H20933   8.189   1.458   5.036 -1.6088 -0.1401 -0.7214
  896MOL0     H20934   8.323   1.350   4.773 -0.6497 -1.6948 -0.2663
  896MOL0     H20935   8.214   1.492   4.794 -3.5813 -1.4064  0.0911
  896MOL0     H20936   8.157   1.192   4.831 -2.7258 -0.8344 -2.4715
  896MOL0     H20937   8.059   1.319   4.912  2.6366  1.1276  2.3680
  896MOL0     H20938   8.135   1.294   4.601 -1.7349  0.7225 -3.4745
  896MOL0     H20939   8.014   1.407   4.671  3.3312  1.6186 -1.3969
  896MOL0     H20940   7.992   1.104   4.693 -0.1983  0.7630  3.2369
  896MOL0     H20941   7.911   1.205   4.564  1.6630 -0.2727 -1.3529
  896MOL0     H20942   8.139   1.756   5.503  2.3007 -0.4958  0.2064
  896MOL0     H20943   8.077   1.998   5.560 -0.3074  1.3789 -0.8437
  896MOL0     H20944   8.107   2.440   5.390 -1.5440 -2.7400  0.8175
  896MOL0     H20945   7.998   2.632   5.436 -0.8265  3.0138  1.0866
  896MOL0     H20946   7.182   3.682   5.063  1.3344  1.2220 -2.9300
  896MOL0     H20947   7.345   3.820   5.220  3.2646  0.1794  1.1890
  896MOL0     H20948   7.724   3.633   5.680 -1.3197 -1.4546 -2.8191
  896MOL0     H20949   7.898   3.776   5.789  1.0450 -2.9199 -1.5023
  896MOL0     H20950   8.046   4.150   5.628 -0.1097  0.1021 -0.6285
  896MOL0     H20951   7.885   4.212   5.704  1.3415  2.3444  2.0982
  896MOL0     H20952   8.085   4.321   5.755 -0.7621  0.9734  1.5306
  896MOL0     H20953   8.141   4.200   5.857  0.1823 -1.0200 -0.6355
  896MOL0     H20954   7.894   4.215   5.972 -1.6562 -0.6217 -1.4686
  896MOL0     H20955   7.870   4.353   5.874  0.0854 -1.1975 -2.2566
  896MOL0     H20956   8.113   4.420   5.997  1.9511 -0.1925  1.9142
  896MOL0     H20957   8.090   4.287   6.100 -0.6760 -1.3971 -1.7240
  896MOL0     H20958   7.868   4.543   6.329  0.0281 -0.9397  0.7255
  896MOL0     H20959   7.800   4.102   5.535 -0.7717  0.5185  2.7026
  896MOL0     H20960   7.646   3.942   5.394 -1.3554 -0.8570 -0.4249
  897MOL0     O20961  10.328   4.502   9.054  0.2353 -0.3074  0.1343
  897MOL0     C20962  10.410   4.546   8.976 -0.8286 -0.0673  0.0848
  897MOL0     O20963  10.529   4.614   9.018 -0.4789 -0.3526  0.9380
  897MOL0     C20964  10.532   4.653   9.148 -0.1669  0.1957  0.5086
  897MOL0     C20965  10.554   4.552   9.245  1.4503 -0.3383  0.8885
  897MOL0     C20966  10.554   4.595   9.378  0.1314  0.2018  0.6314
  897MOL0     C20967  10.533   4.724   9.423 -0.8059  0.1307 -0.1179
  897MOL0     O20968  10.537   4.750   9.559  0.2122  0.0608 -0.5170
  897MOL0     C20969  10.486   4.874   9.618  0.6363 -0.8112 -0.2586
  897MOL0     C20970  10.569   4.909   9.730  1.0832  0.0269 -0.8301
  897MOL0     C20971  10.543   4.818   9.854 -0.1979 -0.2411 -0.1115
  897MOL0     C20972  10.416   4.856   9.944 -0.5632  1.0269  0.6004
  897MOL0     C20973  10.472   4.921  10.066 -0.2074 -0.6124  0.0293
  897MOL0     C20974  10.356   4.989  10.133  0.1832 -0.8570 -0.3544
  897MOL0     C20975  10.399   5.064  10.262  0.2638 -1.3653  0.1110
  897MOL0     C20976  10.533   5.138  10.260  0.5448 -0.0300 -0.6642
  897MOL0     N20977  10.586   5.192  10.390  0.4514  0.9180  0.3538
  897MOL0     C20978  10.535   5.280  10.477 -0.4387 -0.7496  0.5058
  897MOL0     C20979  10.629   5.290  10.576 -0.0450 -1.8537 -0.7420
  897MOL0     C20980  10.608   5.383  10.683  0.4119 -0.1213  0.0271
  897MOL0     C20981  10.551   5.313  10.805  0.5887 -0.3746  0.4314
  897MOL0     C20982  10.512   5.413  10.918 -0.4464  0.7876 -0.0662
  897MOL0     C20983  10.417   5.520  10.870  0.9730 -0.1675 -0.4350
  897MOL0     O20984  10.382   5.609  10.979  0.1332 -0.5469  0.0723
  897MOL0     C20985  10.255   5.604  11.025  0.1092  1.0679  0.7255
  897MOL0     C20986  10.176   5.492  11.031 -0.2732 -0.4203  0.1414
  897MOL0     C20987  10.047   5.494  11.057  0.8627  0.7040 -0.3432
  897MOL0     C20988   9.958   5.372  11.016 -0.0376 -0.6852  0.2236
  897MOL0     C20989   9.992   5.620  11.114  0.0009  0.6391 -0.5387
  897MOL0     C20990   9.856   5.639  11.153 -1.4069  0.6414 -0.4755
  897MOL0     O20991   9.801   5.759  11.132  0.5995 -0.9880  0.1749
  897MOL0     C20992   9.685   5.790  11.190  1.1713 -0.6682 -0.0097
  897MOL0     C20993   9.575   5.702  11.188  0.2854  0.6620  0.2964
  897MOL0     C20994   9.451   5.736  11.237  0.5836  0.4982  0.2120
  897MOL0     C20995   9.428   5.863  11.297 -0.5174  0.0588  0.8172
  897MOL0     O20996   9.312   5.892  11.352 -0.6411 -0.0402 -0.0126
  897MOL0     C20997   9.297   6.001  11.443  0.1620  0.2944 -0.5530
  897MOL0     C20998   9.256   6.123  11.372 -0.2044 -0.6599 -0.5091
  897MOL0     C20999   9.116   6.087  11.335 -0.1130  0.3762 -0.1014
  897MOL0     C21000   9.062   6.199  11.255 -0.3440 -0.5696 -0.6034
  897MOL0     C21001   8.925   6.176  11.200 -1.3995  1.2825  0.1542
  897MOL0     C21002   8.808   6.170  11.306  0.1204 -0.3604  0.9226
  897MOL0     C21003   8.781   6.024  11.348  0.6165 -0.3390  0.2024
  897MOL0     C21004   8.691   6.023  11.465 -1.4438 -0.2764 -0.4425
  897MOL0    Cl21005   8.524   6.055  11.403 -0.6050 -0.1642 -0.3485
  897MOL0     C21006   9.534   5.958  11.298 -0.6203  0.5702 -0.2582
  897MOL0     C21007   9.656   5.918  11.244 -0.5344  0.1457  0.1984
  897MOL0     O21008   9.793   5.539  11.194  0.3656  0.5622 -0.0422
  897MOL0     C21009  10.083   5.722  11.134  0.3529  0.9756  0.2940
  897MOL0     C21010  10.209   5.720  11.074  0.3633 -0.7240 -0.2242
  897MOL0     N21011  10.735   5.208  10.554 -0.5895 -0.2585  0.0970
  897MOL0     N21012  10.704   5.147  10.442  0.1249  0.6807  0.4899
  897MOL0     C21013  10.508   4.824   9.327 -0.7415  0.6442  1.0441
  897MOL0     C21014  10.502   4.782   9.188  0.3201 -0.5675  0.9773
  897MOL0     C21015  10.405   4.504   8.836  0.1963 -0.0958  0.5826
  897MOL0     C21016  10.486   4.557   8.725 -0.0391 -0.5050  0.2795
  897MOL0     C21017  10.476   4.513   8.595 -0.0862 -0.1206 -0.6487
  897MOL0     C21018  10.386   4.401   8.572  0.0414 -0.1437  0.5132
  897MOL0     O21019  10.389   4.371   8.439 -0.0922  0.1772 -0.0004
  897MOL0     C21020  10.367   4.237   8.397  0.6105  0.1729 -0.6421
  897MOL0     C21021  10.371   4.212   8.248  0.3665 -0.1661 -0.0529
  897MOL0     C21022  10.237   4.261   8.176  0.0422 -0.7310 -0.3008
  897MOL0     C21023  10.241   4.215   8.025  0.0512 -0.6985  0.3459
  897MOL0     C21024  10.136   4.276   7.956  0.7951 -0.1042 -0.5004
  897MOL0     C21025  10.042   4.309   7.897  0.3632  0.0219 -0.5201
  897MOL0     C21026  10.315   4.338   8.672  0.2438 -0.3938 -0.0477
  897MOL0     C21027  10.321   4.391   8.800  0.2513  0.0686 -0.4961
  897MOL0     H21028  10.574   4.452   9.209  0.1543  0.0606 -1.0642
  897MOL0     H21029  10.558   4.518   9.455 -0.9607  0.5139  1.0242
  897MOL0     H21030  10.498   4.959   9.551  0.9774 -0.5499  0.1306
  897MOL0     H21031  10.383   4.863   9.652  1.0565  3.1644  2.9809
  897MOL0     H21032  10.675   4.913   9.703  0.9304  2.2439 -1.2704
  897MOL0     H21033  10.536   5.005   9.771  2.4689  0.6128 -1.0245
  897MOL0     H21034  10.532   4.714   9.824  3.0721 -0.6917 -0.1696
  897MOL0     H21035  10.640   4.825   9.905  1.2007  0.5830 -2.6586
  897MOL0     H21036  10.331   4.896   9.888 -1.3262 -4.0967 -2.6145
  897MOL0     H21037  10.381   4.755   9.970  0.4470  0.8115  1.1830
  897MOL0     H21038  10.520   4.849  10.133 -1.2310 -0.9126  0.4628
  897MOL0     H21039  10.550   4.994  10.044  2.6470 -3.5806 -0.3539
  897MOL0     H21040  10.307   5.053  10.060  2.1119  2.1569  0.7949
  897MOL0     H21041  10.288   4.911  10.167  0.7483 -1.5938 -0.8834
  897MOL0     H21042  10.319   5.138  10.267  1.8500  0.4440 -0.4320
  897MOL0     H21043  10.393   5.000  10.351 -0.0695 -1.0202  0.3398
  897MOL0     H21044  10.526   5.216  10.183 -2.6682  0.0626 -0.4253
  897MOL0     H21045  10.611   5.069  10.229  0.9588 -0.1110  0.5513
  897MOL0     H21046  10.446   5.340  10.463 -0.4003  0.1157  3.3808
  897MOL0     H21047  10.704   5.428  10.710  0.1145 -0.3858  1.5681
  897MOL0     H21048  10.553   5.467  10.638 -1.3267 -1.6684 -0.8969
  897MOL0     H21049  10.624   5.239  10.841 -1.0300 -0.9035  2.8746
  897MOL0     H21050  10.459   5.260  10.778 -0.1636  1.5631 -1.0074
  897MOL0     H21051  10.602   5.456  10.964 -0.2502  1.6035 -1.1707
  897MOL0     H21052  10.469   5.358  11.002  2.3326 -1.7502 -0.1118
  897MOL0     H21053  10.328   5.489  10.815 -0.9344  1.9987  1.2594
  897MOL0     H21054  10.475   5.576  10.795  2.5372  0.7005  1.3253
  897MOL0     H21055  10.210   5.391  11.008  0.3498 -0.2641  0.3644
  897MOL0     H21056   9.987   5.319  10.925 -0.4403 -0.0331 -0.2933
  897MOL0     H21057   9.978   5.299  11.095  0.9365 -0.3372  0.3138
  897MOL0     H21058   9.853   5.402  11.007 -0.3817 -1.7402  0.5890
  897MOL0     H21059   9.583   5.596  11.166 -0.2152  0.7671 -0.4335
  897MOL0     H21060   9.366   5.670  11.222 -1.0103  2.1947  1.3820
  897MOL0     H21061   9.214   5.976  11.510 -0.3112  1.2032 -0.7788
  897MOL0     H21062   9.386   6.015  11.505  1.0436 -2.2099 -1.1262
  897MOL0     H21063   9.268   6.209  11.438 -2.7178 -0.1885 -0.5748
  897MOL0     H21064   9.316   6.134  11.281 -0.3772 -1.4651 -0.7288
  897MOL0     H21065   9.066   6.096  11.432 -0.3733  7.7072 -0.3396
  897MOL0     H21066   9.115   5.991  11.284  4.0684  1.3625 -2.4918
  897MOL0     H21067   9.070   6.289  11.317  2.3501 -0.8829 -0.3978
  897MOL0     H21068   9.127   6.213  11.168  0.9788 -0.9646  0.2942
  897MOL0     H21069   8.923   6.089  11.134  0.1127  2.2560 -1.2159
  897MOL0     H21070   8.902   6.261  11.134 -2.5822 -0.7909 -2.2794
  897MOL0     H21071   8.839   6.227  11.394 -1.0526  2.4003 -0.3560
  897MOL0     H21072   8.712   6.209  11.272  0.7898  1.0155  0.5791
  897MOL0     H21073   8.877   5.986  11.384  1.2903  1.1139  0.0134
  897MOL0     H21074   8.744   5.958  11.269 -3.7893 -2.3798  3.5908
  897MOL0     H21075   8.726   6.101  11.534 -0.1913  0.8816 -2.3195
  897MOL0     H21076   8.698   5.925  11.514 -2.0713 -1.0680 -1.8861
  897MOL0     H21077   9.526   6.059  11.337  5.2904  1.4456 -0.4109
  897MOL0     H21078   9.736   5.989  11.225  2.8925 -3.1649  0.9712
  897MOL0     H21079  10.057   5.817  11.179  0.1476  1.9427 -1.7612
  897MOL0     H21080  10.277   5.804  11.081  2.3356 -2.2066 -0.7565
  897MOL0     H21081  10.504   4.931   9.342  1.2103  0.5511  2.6527
  897MOL0     H21082  10.487   4.852   9.106  3.4363  0.7982  1.4225
  897MOL0     H21083  10.554   4.637   8.753  0.4378  0.9964 -4.3836
  897MOL0     H21084  10.530   4.554   8.511  2.9694 -1.4590  0.5380
  897MOL0     H21085  10.452   4.183   8.440 -0.2492 -1.2084 -0.5927
  897MOL0     H21086  10.286   4.179   8.443  1.2164 -0.1113  0.0840
  897MOL0     H21087  10.383   4.103   8.252 -2.6021 -0.5218  1.2168
  897MOL0     H21088  10.460   4.255   8.201  0.5896 -0.6877 -0.1231
  897MOL0     H21089  10.229   4.370   8.186 -1.0172 -0.9526  1.8075
  897MOL0     H21090  10.145   4.221   8.218  0.7559  0.2351  2.3707
  897MOL0     H21091  10.235   4.106   8.012  0.5274 -1.1476  3.2061
  897MOL0     H21092  10.334   4.250   7.978 -3.0348  3.9794 -3.1485
  897MOL0     H21093   9.958   4.344   7.841 -0.4929 -0.3370  0.4958
  897MOL0     H21094  10.248   4.255   8.652 -1.0889  1.0932 -2.0967
  897MOL0     H21095  10.278   4.337   8.884 -0.1124 -1.9420 -1.8885
  898MOL0     O21096   5.415  10.217   3.505  0.0930 -0.1338 -0.2807
  898MOL0     C21097   5.326  10.147   3.444  0.5518 -0.4001 -0.9429
  898MOL0     O21098   5.207  10.198   3.400  0.4192  0.0747  1.2542
  898MOL0     C21099   5.167  10.315   3.462 -0.2412  0.2822 -0.0945
  898MOL0     C21100   5.181  10.439   3.400 -0.2746 -0.3648 -0.5178
  898MOL0     C21101   5.135  10.564   3.455 -0.2972  0.6454 -1.2049
  898MOL0     C21102   5.091  10.562   3.590  0.4621  1.1361 -0.5849
  898MOL0     O21103   5.038  10.669   3.654  0.8003  0.3300 -0.3371
  898MOL0     C21104   5.061  10.802   3.597  0.0107 -1.3864  0.0061
  898MOL0     C21105   4.948  10.866   3.511  0.3739 -0.3643  0.9070
  898MOL0     C21106   4.824  10.930   3.591 -0.9415  0.3083  0.4441
  898MOL0     C21107   4.891  11.034   3.692 -0.5933 -0.4193  0.2537
  898MOL0     C21108   4.780  11.133   3.736  0.7431  0.4067  0.6912
  898MOL0     C21109   4.649  11.061   3.781  0.6142 -0.3455 -0.4668
  898MOL0     C21110   4.560  11.163   3.841 -0.3051 -0.0406  0.5925
  898MOL0     C21111   4.411  11.153   3.813  0.6291 -0.2474 -0.3016
  898MOL0     N21112   4.321  11.272   3.838 -0.5864  0.8993 -0.8968
  898MOL0     C21113   4.293  11.312   3.955  0.2696 -0.4562 -0.5847
  898MOL0     C21114   4.233  11.432   3.944 -0.8601 -0.2111  1.0364
  898MOL0     C21115   4.179  11.501   4.071  0.6312 -1.0370 -0.3718
  898MOL0     C21116   4.291  11.582   4.141  0.1515  0.2693  0.1152
  898MOL0     C21117   4.384  11.662   4.053  0.9617 -0.1707 -0.0924
  898MOL0     C21118   4.308  11.749   3.958 -0.3895  0.7714  0.2273
  898MOL0     O21119   4.369  11.880   3.929  0.0707 -0.2305 -0.2832
  898MOL0     C21120   4.305  11.973   3.844 -0.1666 -0.5451  0.0682
  898MOL0     C21121   4.382  12.086   3.798  0.7511 -0.1038  0.1178
  898MOL0     C21122   4.344  12.177   3.695 -0.3835  0.8137 -1.4147
  898MOL0     C21123   4.444  12.286   3.672  0.0124  0.1215  0.3792
  898MOL0     C21124   4.227  12.162   3.630 -0.1429 -0.2553 -0.9099
  898MOL0     C21125   4.179  12.255   3.518  0.3439  0.5312  0.1099
  898MOL0     O21126   4.059  12.203   3.465  0.2305  0.6531 -0.8056
  898MOL0     C21127   3.980  12.287   3.384 -0.1125 -0.5274 -0.6983
  898MOL0     C21128   3.865  12.351   3.420 -0.0155 -0.1805  0.8118
  898MOL0     C21129   3.791  12.436   3.332  0.4862 -0.4419 -0.1439
  898MOL0     C21130   3.841  12.456   3.207 -0.3081 -0.9351 -0.7925
  898MOL0     O21131   3.786  12.540   3.110  0.0624  1.1486  0.7716
  898MOL0     C21132   3.647  12.554   3.119  0.2064  0.2468 -0.4345
  898MOL0     C21133   3.602  12.614   2.987 -0.3349 -0.1927 -0.8443
  898MOL0     C21134   3.678  12.744   2.933  0.6728 -0.0688 -1.0225
  898MOL0     C21135   3.725  12.718   2.785  0.7895  1.3101 -0.2974
  898MOL0     C21136   3.829  12.824   2.732  0.1265  0.1168 -0.1443
  898MOL0     C21137   3.774  12.949   2.659 -0.7279  0.4180  1.0267
  898MOL0     C21138   3.655  13.035   2.717  0.5290  0.5407  0.4185
  898MOL0     C21139   3.687  13.131   2.829 -0.5659 -0.1182 -0.9589
  898MOL0    Cl21140   3.769  13.259   2.758  0.0135  0.0437  0.4120
  898MOL0     C21141   3.967  12.401   3.165 -0.2814 -0.4289  0.8401
  898MOL0     C21142   4.022  12.306   3.251  0.1637  0.7196 -0.4287
  898MOL0     O21143   4.241  12.346   3.477  0.2394  1.2008  0.2820
  898MOL0     C21144   4.148  12.048   3.678 -0.6389 -0.2039  0.8623
  898MOL0     C21145   4.182  11.965   3.787  0.4976 -0.8043 -0.4152
  898MOL0     N21146   4.199  11.456   3.816 -0.3868 -0.4073  0.8870
  898MOL0     N21147   4.277  11.368   3.753  0.0742  0.6346 -0.9526
  898MOL0     C21148   5.089  10.439   3.653 -0.5539 -0.3989  0.4663
  898MOL0     C21149   5.130  10.320   3.592 -0.5437 -0.2202 -0.0054
  898MOL0     C21150   5.352  10.007   3.411 -0.3562  0.1497  0.5606
  898MOL0     C21151   5.463   9.933   3.455  0.1311 -0.7872 -0.3611
  898MOL0     C21152   5.497   9.811   3.407 -0.1624 -0.4026  0.3047
  898MOL0     C21153   5.423   9.752   3.299 -0.6970  0.3427 -0.1722
  898MOL0     O21154   5.444   9.631   3.241  0.8801  0.6346 -0.7692
  898MOL0     C21155   5.582   9.618   3.197 -0.5840  0.6531 -0.3634
  898MOL0     C21156   5.594   9.490   3.111  1.0531 -0.2251 -0.4407
  898MOL0     C21157   5.606   9.360   3.184 -0.3131  1.2468 -0.2259
  898MOL0     C21158   5.730   9.339   3.278  0.2729 -0.7157  0.2305
  898MOL0     C21159   5.859   9.308   3.202 -0.3961  1.8309 -0.5982
  898MOL0     C21160   5.964   9.314   3.144 -0.2747 -0.4524 -0.0836
  898MOL0     C21161   5.309   9.827   3.255  0.1355 -0.7854 -0.0917
  898MOL0     C21162   5.274   9.950   3.318  0.0881  0.7834 -0.2780
  898MOL0     H21163   5.220  10.441   3.298  0.4119 -2.6631 -0.3466
  898MOL0     H21164   5.151  10.649   3.390  1.2038  0.5672 -0.9942
  898MOL0     H21165   5.072  10.865   3.685  0.6113  3.5162 -3.1928
  898MOL0     H21166   5.155  10.807   3.541  2.3223  3.1597  3.6412
  898MOL0     H21167   4.993  10.943   3.448  1.1888 -1.4027  0.1788
  898MOL0     H21168   4.917  10.799   3.430  3.5284 -2.7816  1.4850
  898MOL0     H21169   4.758  10.994   3.532  0.2106  2.9115  1.8351
  898MOL0     H21170   4.761  10.851   3.634 -1.3866 -0.6891 -1.8739
  898MOL0     H21171   4.923  10.971   3.775  1.5280  0.7789  0.4160
  898MOL0     H21172   4.978  11.090   3.656 -2.2364  1.8190 -0.4416
  898MOL0     H21173   4.817  11.187   3.824  0.7115 -0.9295  1.5439
  898MOL0     H21174   4.762  11.215   3.666 -0.5881 -0.9970 -0.6880
  898MOL0     H21175   4.608  11.004   3.697  0.7615 -1.2443  0.0513
  898MOL0     H21176   4.676  10.984   3.854  2.4506  0.6420 -0.0456
  898MOL0     H21177   4.569  11.185   3.948 -1.4589  0.0219  0.6957
  898MOL0     H21178   4.596  11.257   3.797  1.6489 -0.2368  1.6592
  898MOL0     H21179   4.376  11.074   3.880  0.5814 -1.1257 -1.3418
  898MOL0     H21180   4.394  11.120   3.710 -1.2101 -3.4037  0.8657
  898MOL0     H21181   4.328  11.271   4.049 -3.3659 -0.4994  0.9309
  898MOL0     H21182   4.100  11.576   4.057  1.5223  0.5551  2.4214
  898MOL0     H21183   4.143  11.427   4.143 -0.9502  1.1328  1.2329
  898MOL0     H21184   4.351  11.505   4.190  0.6266  0.1527 -0.6506
  898MOL0     H21185   4.260  11.648   4.223  0.3500 -0.1836  0.5594
  898MOL0     H21186   4.444  11.592   3.994 -1.1144 -1.4088 -0.8937
  898MOL0     H21187   4.450  11.725   4.112 -0.4234  0.9125  0.3703
  898MOL0     H21188   4.209  11.762   4.002  0.2440  0.1215  1.9441
  898MOL0     H21189   4.300  11.687   3.868  0.9428  0.9413 -0.0411
  898MOL0     H21190   4.476  12.098   3.851  0.4284  2.9981  0.1640
  898MOL0     H21191   4.538  12.254   3.718  1.1508 -0.9209 -2.4360
  898MOL0     H21192   4.483  12.305   3.571 -2.5671  0.7449 -0.5624
  898MOL0     H21193   4.411  12.378   3.720  1.8519 -1.0656  4.3125
  898MOL0     H21194   3.815  12.344   3.516 -3.6561  0.8142 -0.8215
  898MOL0     H21195   3.708  12.496   3.367 -1.6096 -2.6577 -1.0646
  898MOL0     H21196   3.589  12.462   3.137 -0.0614  0.4632 -0.1783
  898MOL0     H21197   3.627  12.621   3.203  1.8607  2.2956 -1.5975
  898MOL0     H21198   3.607  12.533   2.914  0.1465 -1.3447  0.4193
  898MOL0     H21199   3.494  12.631   2.982 -0.1291  0.9160 -1.8015
  898MOL0     H21200   3.759  12.768   3.003  1.4642  3.9874 -3.0230
  898MOL0     H21201   3.623  12.838   2.934  0.4382 -0.1811  0.6455
  898MOL0     H21202   3.763  12.616   2.780 -0.5970  0.7046  0.8971
  898MOL0     H21203   3.633  12.714   2.727  0.1888 -0.0727  0.7022
  898MOL0     H21204   3.895  12.778   2.658 -0.3092 -0.0280 -0.4466
  898MOL0     H21205   3.891  12.857   2.817 -1.5408  0.9781  0.7851
  898MOL0     H21206   3.860  13.012   2.634  0.0767 -1.2075 -0.5778
  898MOL0     H21207   3.739  12.903   2.566  2.9672 -2.4055  0.7777
  898MOL0     H21208   3.576  12.964   2.740  2.6205 -2.6806 -1.5956
  898MOL0     H21209   3.612  13.098   2.638  0.8600  0.4196  0.1366
  898MOL0     H21210   3.746  13.083   2.908  2.7871  1.8033 -2.0866
  898MOL0     H21211   3.594  13.173   2.867  0.5987  1.6363  0.1012
  898MOL0     H21212   4.011  12.434   3.072 -2.0973  1.6069  0.6044
  898MOL0     H21213   4.111  12.248   3.225 -0.1341  0.8199 -1.7591
  898MOL0     H21214   4.055  12.029   3.624 -1.1555 -1.8298  2.2323
  898MOL0     H21215   4.111  11.883   3.795 -1.4162  0.3934 -3.3036
  898MOL0     H21216   5.069  10.449   3.759  0.4863  1.6578  0.5229
  898MOL0     H21217   5.147  10.236   3.658  1.9029 -0.0522 -0.3275
  898MOL0     H21218   5.515   9.980   3.537 -5.5761  0.9911  2.7851
  898MOL0     H21219   5.579   9.747   3.439  0.6141  0.5669  0.2723
  898MOL0     H21220   5.612   9.704   3.135  1.6304 -1.5479 -2.5965
  898MOL0     H21221   5.647   9.608   3.284 -0.5324  4.2181  0.1662
  898MOL0     H21222   5.677   9.498   3.041 -0.7725 -2.2428 -3.0326
  898MOL0     H21223   5.509   9.487   3.043  1.2910 -1.8531 -0.7138
  898MOL0     H21224   5.598   9.274   3.116  0.4561 -0.3066  1.5601
  898MOL0     H21225   5.518   9.341   3.247  0.1439 -1.7575 -0.3583
  898MOL0     H21226   5.719   9.249   3.340  3.0203  0.1829  2.2191
  898MOL0     H21227   5.764   9.428   3.331  1.0443 -0.4286 -0.7099
  898MOL0     H21228   6.057   9.308   3.090 -1.6612  1.4103 -2.9230
  898MOL0     H21229   5.242   9.779   3.184  2.5085 -4.0553 -0.3152
  898MOL0     H21230   5.188  10.000   3.274 -1.3905 -0.3458  1.2295
  899MOL0     O21231  11.515   2.784   1.614 -0.6512  0.5091  0.4842
  899MOL0     C21232  11.473   2.888   1.663  0.4747  0.3375  0.1582
  899MOL0     O21233  11.530   3.017   1.657  0.3831 -0.0332  0.0354
  899MOL0     C21234  11.631   3.022   1.574  0.1894  0.9357  0.4534
  899MOL0     C21235  11.628   3.094   1.454 -0.0376 -0.5056 -0.0748
  899MOL0     C21236  11.734   3.104   1.364  0.3998  0.5533 -0.8688
  899MOL0     C21237  11.845   3.026   1.378  0.0685  1.0615 -1.3985
  899MOL0     O21238  11.947   3.007   1.279  0.3124 -0.8918  0.9952
  899MOL0     C21239  12.008   3.130   1.236  0.9781  0.1911 -0.9277
  899MOL0     C21240  12.046   3.141   1.098 -0.4015  0.8654 -1.1208
  899MOL0     C21241  12.159   3.038   1.059 -0.3780  0.1752  0.8130
  899MOL0     C21242  12.122   2.972   0.923 -0.0533  1.0713  0.0515
  899MOL0     C21243  12.214   2.864   0.869  0.0824  0.2821 -0.1542
  899MOL0     C21244  12.159   2.728   0.907  0.8651  0.3736 -0.0822
  899MOL0     C21245  12.277   2.627   0.873  0.4058 -0.7976  0.1615
  899MOL0     C21246  12.267   2.487   0.933  0.2305  0.0069  0.4580
  899MOL0     N21247  12.171   2.413   0.855 -0.3937  0.2414  0.9346
  899MOL0     C21248  12.202   2.354   0.732  1.1555  0.0971  0.4963
  899MOL0     C21249  12.098   2.280   0.695 -0.3613 -0.4024 -0.5964
  899MOL0     C21250  12.090   2.209   0.566 -0.4930  0.4645  0.1879
  899MOL0     C21251  12.019   2.078   0.584  0.3685  0.3916 -0.3184
  899MOL0     C21252  12.026   1.969   0.467  0.1837 -0.1780 -0.0001
  899MOL0     C21253  11.908   1.875   0.466 -0.0317 -1.6150  0.6016
  899MOL0     O21254  11.870   1.828   0.338  0.0795 -0.1669  0.1268
  899MOL0     C21255  11.776   1.726   0.347 -0.0345  0.1647  1.5698
  899MOL0     C21256  11.645   1.755   0.375  0.5297  0.8000  0.7187
  899MOL0     C21257  11.541   1.667   0.369  0.5461 -1.0320 -0.3995
  899MOL0     C21258  11.397   1.719   0.380 -0.4421  0.1771  0.0263
  899MOL0     C21259  11.579   1.530   0.342  0.3845 -0.5102  0.3798
  899MOL0     C21260  11.480   1.420   0.340  0.3389  0.8290  0.1538
  899MOL0     O21261  11.519   1.302   0.289 -0.0777  0.2229 -0.4321
  899MOL0     C21262  11.475   1.182   0.344  0.6991 -0.0812  0.4321
  899MOL0     C21263  11.437   1.082   0.245  0.7974  0.7180 -0.3576
  899MOL0     C21264  11.396   0.950   0.286 -0.0284  0.4128  0.3493
  899MOL0     C21265  11.411   0.911   0.422  0.0510  0.2628  0.0041
  899MOL0     O21266  11.383   0.779   0.443 -0.5950  0.3748  0.2558
  899MOL0     C21267  11.465   0.712   0.543  0.1420  0.6686  0.1644
  899MOL0     C21268  11.452   0.557   0.534 -0.4004  0.8025  0.0226
  899MOL0     C21269  11.319   0.485   0.541 -0.3190  0.4819 -0.5033
  899MOL0     C21270  11.240   0.543   0.656 -0.2235 -0.5982 -0.5004
  899MOL0     C21271  11.093   0.485   0.664 -0.3185  0.5198 -0.8824
  899MOL0     C21272  11.100   0.337   0.684  0.1783 -0.4096  0.2914
  899MOL0     C21273  10.964   0.282   0.712  0.0906  0.6718 -0.2051
  899MOL0     C21274  10.979   0.123   0.707 -0.0164 -1.4244 -0.4267
  899MOL0    Cl21275  10.814   0.052   0.754  0.0992 -0.1771  0.3427
  899MOL0     C21276  11.424   1.012   0.515 -0.7137  0.1280  0.9176
  899MOL0     C21277  11.461   1.148   0.482  0.5283  0.9205  0.5722
  899MOL0     O21278  11.372   1.438   0.392  0.5028  0.0266 -0.2108
  899MOL0     C21279  11.712   1.505   0.309  0.6468  0.7501  1.3596
  899MOL0     C21280  11.812   1.601   0.317 -0.6959 -0.8752  0.6604
  899MOL0     N21281  12.000   2.293   0.793  0.0029 -0.3139  0.0485
  899MOL0     N21282  12.046   2.372   0.887  0.1423 -0.4219 -0.1550
  899MOL0     C21283  11.850   2.949   1.498  0.1639  0.2613  0.3372
  899MOL0     C21284  11.749   2.946   1.594  0.8680 -0.0034  0.3702
  899MOL0     C21285  11.361   2.876   1.762 -0.5548 -0.3708 -0.4799
  899MOL0     C21286  11.305   2.752   1.792  0.2383 -0.0206 -0.2379
  899MOL0     C21287  11.215   2.737   1.897  0.9976 -0.2984 -0.0653
  899MOL0     C21288  11.186   2.842   1.981 -0.3399  0.1463 -0.6094
  899MOL0     O21289  11.093   2.808   2.077  0.2549 -0.2055  0.2342
  899MOL0     C21290  11.012   2.910   2.126 -1.0936  0.6510 -0.2900
  899MOL0     C21291  10.926   2.821   2.229 -0.2522 -0.2549  0.2171
  899MOL0     C21292  10.872   2.919   2.333  0.1491  0.4492 -0.2909
  899MOL0     C21293  10.771   2.855   2.437  0.0450 -0.7190  0.3470
  899MOL0     C21294  10.846   2.747   2.508  0.0240  0.2951  0.8765
  899MOL0     C21295  10.888   2.650   2.566  0.4274 -0.2722 -0.8216
  899MOL0     C21296  11.228   2.963   1.952  0.2481 -0.0805  0.9009
  899MOL0     C21297  11.322   2.986   1.848 -1.6037 -0.3504 -0.2491
  899MOL0     H21298  11.548   3.166   1.441  1.3282  0.6796 -2.7015
  899MOL0     H21299  11.718   3.165   1.275  2.4831  0.8012 -1.1240
  899MOL0     H21300  11.949   3.219   1.259  0.1513 -0.6771  0.5019
  899MOL0     H21301  12.103   3.135   1.291  1.7342 -4.6308 -1.3962
  899MOL0     H21302  11.953   3.112   1.047  0.2064 -0.6175 -1.4492
  899MOL0     H21303  12.069   3.246   1.079 -1.1756  1.9059  2.8251
  899MOL0     H21304  12.258   3.083   1.068 -0.0171 -0.1541 -1.0419
  899MOL0     H21305  12.160   2.953   1.128  0.1770 -1.0702 -0.6572
  899MOL0     H21306  12.024   2.929   0.942  0.4741  0.5123  1.7127
  899MOL0     H21307  12.124   3.047   0.843  1.6211 -0.5550 -1.5192
  899MOL0     H21308  12.213   2.869   0.760 -1.7502 -3.1468 -0.4308
  899MOL0     H21309  12.312   2.888   0.912  0.6805  3.4435 -2.9157
  899MOL0     H21310  12.124   2.713   1.009  0.7634 -0.0292 -0.1760
  899MOL0     H21311  12.081   2.699   0.837 -0.6775 -2.1427  2.4715
  899MOL0     H21312  12.267   2.618   0.764 -2.8998 -1.9338  0.4588
  899MOL0     H21313  12.376   2.665   0.902  0.9017  0.4813 -2.8348
  899MOL0     H21314  12.242   2.479   1.039 -3.3928 -1.5539 -0.3787
  899MOL0     H21315  12.365   2.439   0.923  1.3141  1.8586  1.4555
  899MOL0     H21316  12.298   2.365   0.683  0.8436  0.8050  0.0200
  899MOL0     H21317  12.049   2.270   0.485 -1.3302  1.5543  1.3805
  899MOL0     H21318  12.196   2.189   0.547 -0.5475 -1.5911  1.7102
  899MOL0     H21319  11.914   2.103   0.602  0.5529  0.5952  0.5165
  899MOL0     H21320  12.061   2.037   0.676 -1.2545  0.5994  0.5442
  899MOL0     H21321  12.123   1.918   0.470  1.3646  1.9505  2.7790
  899MOL0     H21322  12.019   2.025   0.373 -0.2231 -0.4747 -0.1442
  899MOL0     H21323  11.813   1.916   0.501 -1.4612 -2.9525 -1.4917
  899MOL0     H21324  11.936   1.783   0.519 -0.1531 -2.6999 -1.1236
  899MOL0     H21325  11.615   1.857   0.399  1.9287  1.5050 -0.3704
  899MOL0     H21326  11.400   1.829   0.379  1.3358  0.2791  3.4191
  899MOL0     H21327  11.341   1.688   0.291  1.5707  1.2283 -1.7254
  899MOL0     H21328  11.345   1.704   0.474  3.0370  0.9593  2.2534
  899MOL0     H21329  11.447   1.097   0.138 -0.2951 -3.2716 -1.1987
  899MOL0     H21330  11.390   0.881   0.203  1.3406  5.0318 -4.1099
  899MOL0     H21331  11.574   0.719   0.532  0.2720 -2.1874 -1.2699
  899MOL0     H21332  11.449   0.754   0.643 -3.9558  2.1250 -0.9439
  899MOL0     H21333  11.501   0.519   0.444  1.3653 -1.6937  1.9260
  899MOL0     H21334  11.513   0.523   0.618  2.3219  0.8608 -1.8083
  899MOL0     H21335  11.344   0.379   0.558  0.0044  1.0236  3.5965
  899MOL0     H21336  11.267   0.490   0.445 -3.4141  1.1252  1.0936
  899MOL0     H21337  11.299   0.529   0.747 -0.1346 -1.2246 -0.6504
  899MOL0     H21338  11.227   0.651   0.651  0.9001 -0.1046  3.4951
  899MOL0     H21339  11.044   0.506   0.568 -3.5002 -0.7274  0.3449
  899MOL0     H21340  11.040   0.527   0.750 -0.0355 -0.9166  0.0327
  899MOL0     H21341  11.129   0.290   0.590 -0.4184 -1.9865  0.8557
  899MOL0     H21342  11.162   0.321   0.773 -1.5540 -1.2918  1.4046
  899MOL0     H21343  10.892   0.328   0.644 -2.2516 -3.2159 -0.6434
  899MOL0     H21344  10.952   0.311   0.817  1.8680 -1.8934  0.8065
  899MOL0     H21345  11.057   0.096   0.778  0.8105 -1.2318 -1.2386
  899MOL0     H21346  11.019   0.103   0.607 -0.6273  0.8789 -1.1896
  899MOL0     H21347  11.416   0.977   0.618 -0.4183  2.8375  1.9280
  899MOL0     H21348  11.488   1.216   0.562  3.7308 -0.9600  1.2258
  899MOL0     H21349  11.748   1.410   0.270 -0.7520  1.0333 -0.7724
  899MOL0     H21350  11.910   1.585   0.273 -1.9728 -3.0176 -1.6127
  899MOL0     H21351  11.942   2.891   1.499  1.7360  2.5293 -1.2149
  899MOL0     H21352  11.762   2.882   1.680  1.6921  0.6463  0.7457
  899MOL0     H21353  11.335   2.659   1.745  2.8615  1.0029 -0.7918
  899MOL0     H21354  11.179   2.638   1.921  2.0826 -0.5326  0.6838
  899MOL0     H21355  11.082   2.984   2.166 -1.1384  1.5925 -1.8688
  899MOL0     H21356  10.956   2.957   2.046 -0.3654 -0.2574 -1.3694
  899MOL0     H21357  10.992   2.741   2.265 -1.6685 -1.7597 -0.3860
  899MOL0     H21358  10.849   2.774   2.167  2.3986 -1.4810 -2.4023
  899MOL0     H21359  10.830   3.001   2.274  1.8140 -0.5127 -2.9830
  899MOL0     H21360  10.945   2.959   2.405  0.4872 -2.5108  1.1558
  899MOL0     H21361  10.681   2.813   2.392 -0.2080 -1.9549  1.8788
  899MOL0     H21362  10.732   2.931   2.505  1.3085  0.7383 -0.4834
  899MOL0     H21363  10.940   2.578   2.626  3.5771  2.5567  0.1356
  899MOL0     H21364  11.189   3.048   2.008 -0.9913  0.9945 -1.4433
  899MOL0     H21365  11.363   3.081   1.816  1.4389 -2.0272 -1.8262
  900MOL0     O21366   4.422   0.832   7.897  0.1104  0.2168  0.5128
  900MOL0     C21367   4.448   0.865   8.013  0.3703 -0.8241  0.3501
  900MOL0     O21368   4.412   0.978   8.072 -0.5701 -0.2353 -0.2070
  900MOL0     C21369   4.313   1.073   8.039 -0.8649  0.2472  0.2479
  900MOL0     C21370   4.323   1.194   8.100 -0.3457 -0.4481  0.8466
  900MOL0     C21371   4.225   1.291   8.069 -0.4700  0.5540 -0.2109
  900MOL0     C21372   4.120   1.263   7.983 -0.2351  0.3416 -0.8287
  900MOL0     O21373   4.016   1.360   7.963 -0.3659  1.3284  0.2266
  900MOL0     C21374   3.886   1.314   8.015  0.0995  0.1493  0.6340
  900MOL0     C21375   3.891   1.304   8.165  0.8094  0.5477  0.7750
  900MOL0     C21376   3.869   1.444   8.229  0.2255  0.1017  1.0492
  900MOL0     C21377   3.987   1.544   8.218  0.4390 -0.3885 -0.0530
  900MOL0     C21378   3.961   1.668   8.304 -0.8540  0.0331  0.7194
  900MOL0     C21379   3.937   1.661   8.455 -0.6356 -0.3463  0.3997
  900MOL0     C21380   4.078   1.631   8.527  0.4863 -0.3509  0.3851
  900MOL0     C21381   4.071   1.595   8.679 -0.7892 -0.2866 -0.4132
  900MOL0     N21382   4.196   1.571   8.760  0.6334 -0.8243  0.4647
  900MOL0     C21383   4.270   1.666   8.821  0.4582 -0.9454  0.0381
  900MOL0     C21384   4.373   1.602   8.870  0.4034  0.2675  0.0225
  900MOL0     C21385   4.483   1.659   8.949  0.5603  0.8465 -1.3202
  900MOL0     C21386   4.439   1.666   9.092  0.2754 -0.2133  0.5103
  900MOL0     C21387   4.568   1.663   9.188 -0.7263  0.0393  0.8296
  900MOL0     C21388   4.533   1.684   9.333 -0.6360 -0.1804 -0.0524
  900MOL0     O21389   4.435   1.587   9.381  0.8133  0.0175 -0.0875
  900MOL0     C21390   4.425   1.572   9.519 -0.2788  1.3824 -0.2496
  900MOL0     C21391   4.451   1.675   9.613  0.2558  0.7931  0.2965
  900MOL0     C21392   4.447   1.672   9.754 -0.4797  0.1562  0.2738
  900MOL0     C21393   4.514   1.788   9.820  0.0938 -0.3340  0.3715
  900MOL0     C21394   4.409   1.542   9.815  0.3957 -0.1908  0.5934
  900MOL0     C21395   4.401   1.527   9.958  1.1790 -0.0298 -0.1148
  900MOL0     O21396   4.370   1.399   9.998  0.6759  0.5924 -0.1382
  900MOL0     C21397   4.306   1.378  10.125  0.1281 -0.7689 -1.2177
  900MOL0     C21398   4.159   1.366  10.145 -0.4149 -0.3446  0.2323
  900MOL0     C21399   4.108   1.334  10.267  0.6689 -0.0141 -0.7534
  900MOL0     C21400   4.195   1.337  10.380  0.0084 -0.6030 -0.7473
  900MOL0     O21401   4.156   1.311  10.510  0.8406  0.0814 -0.2616
  900MOL0     C21402   4.004   1.322  10.534  0.0465 -0.3827 -0.0499
  900MOL0     C21403   3.981   1.335  10.690 -0.1124 -0.6324 -0.6029
  900MOL0     C21404   4.040   1.217  10.765  0.4201 -0.6558  0.8307
  900MOL0     C21405   4.023   1.225  10.914  0.9490  0.0836 -0.1298
  900MOL0     C21406   4.122   1.133  10.981 -0.0762  0.6995  1.0027
  900MOL0     C21407   4.097   1.127  11.138 -0.3231  1.0701  0.5307
  900MOL0     C21408   3.950   1.085  11.182 -0.3803  0.9860 -0.7584
  900MOL0     C21409   3.849   1.197  11.214 -0.2367 -0.4664  0.2894
  900MOL0    Cl21410   3.686   1.132  11.247  0.8211 -0.6302  0.1491
  900MOL0     C21411   4.334   1.350  10.372 -0.1323 -0.3817 -0.4381
  900MOL0     C21412   4.384   1.376  10.247  0.6735  0.2025 -0.2522
  900MOL0     O21413   4.419   1.624  10.028 -0.3363  0.8236 -0.5673
  900MOL0     C21414   4.361   1.447   9.725 -0.3459  0.5162  0.4193
  900MOL0     C21415   4.374   1.462   9.581  0.0157 -0.4191 -0.0464
  900MOL0     N21416   4.364   1.467   8.831 -1.3018 -0.2282  0.1009
  900MOL0     N21417   4.257   1.451   8.779  0.8310 -0.1963  0.1398
  900MOL0     C21418   4.117   1.140   7.922  0.0980  0.2749 -0.9164
  900MOL0     C21419   4.200   1.035   7.959 -0.2196 -1.2868  0.0949
  900MOL0     C21420   4.509   0.767   8.103  0.5353 -0.2320  0.0617
  900MOL0     C21421   4.520   0.632   8.056 -0.2387 -0.3784 -0.9958
  900MOL0     C21422   4.568   0.540   8.138 -0.9175 -0.0995  0.4799
  900MOL0     C21423   4.627   0.579   8.262  0.7013  0.4729  0.4155
  900MOL0     O21424   4.694   0.499   8.344 -0.1165  0.7308 -0.6898
  900MOL0     C21425   4.812   0.443   8.276 -0.0493 -0.2410 -0.0308
  900MOL0     C21426   4.889   0.354   8.386 -0.1940 -0.7451  0.1064
  900MOL0     C21427   5.043   0.348   8.354  0.3309  0.5553  0.6438
  900MOL0     C21428   5.122   0.433   8.456  1.0136  0.3248 -0.6028
  900MOL0     C21429   5.087   0.575   8.442 -0.4623  0.2557 -1.0345
  900MOL0     C21430   5.053   0.688   8.409  0.1829  0.0674 -0.0898
  900MOL0     C21431   4.621   0.709   8.309 -0.4326  0.5979  0.7526
  900MOL0     C21432   4.563   0.804   8.228  0.5588 -0.0336 -0.0939
  900MOL0     H21433   4.406   1.211   8.168 -1.8589 -1.1814  3.0180
  900MOL0     H21434   4.245   1.388   8.114  2.3699  0.7683 -1.7072
  900MOL0     H21435   3.808   1.386   7.990 -2.1022 -2.4784 -0.4425
  900MOL0     H21436   3.850   1.223   7.967 -0.2962 -1.8667  4.4013
  900MOL0     H21437   3.811   1.235   8.196  1.1144 -0.1978 -0.0300
  900MOL0     H21438   3.983   1.255   8.198 -1.2339 -2.4059  2.6710
  900MOL0     H21439   3.776   1.486   8.189 -0.2161 -1.8113 -0.0843
  900MOL0     H21440   3.848   1.434   8.335 -3.3321 -0.1198  0.4473
  900MOL0     H21441   4.078   1.488   8.238  0.5655 -2.0769 -4.3217
  900MOL0     H21442   3.996   1.582   8.116 -3.0407  1.9612  0.3280
  900MOL0     H21443   4.030   1.751   8.287 -0.3228 -0.1074  2.0936
  900MOL0     H21444   3.866   1.693   8.255 -0.0122  0.5755 -0.7223
  900MOL0     H21445   3.895   1.759   8.478 -0.3399 -0.3969  1.2000
  900MOL0     H21446   3.854   1.594   8.479  0.3582 -1.0470  2.1392
  900MOL0     H21447   4.132   1.551   8.477 -2.5409 -1.4448 -1.4097
  900MOL0     H21448   4.123   1.725   8.495 -0.2856 -1.3700 -4.5104
  900MOL0     H21449   4.012   1.503   8.684 -0.8428 -0.2657 -0.6574
  900MOL0     H21450   4.019   1.672   8.738  1.8273  1.2576  0.0558
  900MOL0     H21451   4.235   1.768   8.833 -0.4943 -0.8868 -2.6691
  900MOL0     H21452   4.564   1.586   8.939 -1.3465 -1.6841  0.5675
  900MOL0     H21453   4.512   1.761   8.922 -2.9453  1.9871 -1.2728
  900MOL0     H21454   4.364   1.589   9.112 -3.1950  1.4840 -4.1249
  900MOL0     H21455   4.384   1.758   9.117 -2.8693 -2.1354  1.3079
  900MOL0     H21456   4.634   1.746   9.161 -0.6622 -0.1474  0.4064
  900MOL0     H21457   4.628   1.572   9.176 -1.9517 -0.7297  0.4295
  900MOL0     H21458   4.492   1.785   9.344  1.7919  0.9595 -0.7759
  900MOL0     H21459   4.628   1.661   9.383 -1.3939  0.9594  2.0278
  900MOL0     H21460   4.476   1.772   9.573  0.4884  0.2855 -0.8175
  900MOL0     H21461   4.471   1.810   9.919 -0.2340 -1.8924  0.6035
  900MOL0     H21462   4.618   1.756   9.835  1.0098  2.0667 -0.3528
  900MOL0     H21463   4.502   1.876   9.756 -0.9201 -1.2551 -0.7361
  900MOL0     H21464   4.087   1.391  10.068  0.9300  1.6271 -0.4572
  900MOL0     H21465   4.001   1.319  10.271  0.5832  0.7313  2.4002
  900MOL0     H21466   3.968   1.414  10.488  1.4903  0.1336 -0.1941
  900MOL0     H21467   3.951   1.236  10.491  2.2122 -1.1934 -1.2108
  900MOL0     H21468   4.034   1.424  10.726 -0.3858 -1.4055  1.8807
  900MOL0     H21469   3.872   1.340  10.704 -0.2900  1.3384 -2.1842
  900MOL0     H21470   4.145   1.206  10.738  0.2799  1.1843 -0.7052
  900MOL0     H21471   3.995   1.120  10.743 -0.9896  0.1054  0.1950
  900MOL0     H21472   4.037   1.324  10.958 -3.2129  1.2918 -1.1087
  900MOL0     H21473   3.922   1.201  10.948  1.0488  0.9751  0.8360
  900MOL0     H21474   4.226   1.163  10.968  0.9602 -2.0266  2.1708
  900MOL0     H21475   4.101   1.039  10.928 -0.7373  2.4622 -2.0745
  900MOL0     H21476   4.173   1.052  11.163 -0.9033 -0.1335 -1.1173
  900MOL0     H21477   4.108   1.220  11.194 -0.5552  0.3416  1.8213
  900MOL0     H21478   3.959   1.026  11.274 -0.3488  1.8391 -0.2055
  900MOL0     H21479   3.913   1.013  11.108 -0.9861  0.7617 -0.2393
  900MOL0     H21480   3.843   1.276  11.139  0.4956 -1.1783 -0.5387
  900MOL0     H21481   3.862   1.241  11.314 -0.9195 -2.5630  1.3552
  900MOL0     H21482   4.388   1.365  10.465 -0.8363  1.1962 -0.2544
  900MOL0     H21483   4.492   1.393  10.250  0.7280 -0.2438  0.7074
  900MOL0     H21484   4.307   1.363   9.768 -0.3263  0.6676  0.7499
  900MOL0     H21485   4.330   1.379   9.527  0.2942  0.0631 -1.0394
  900MOL0     H21486   4.049   1.102   7.846  1.1562 -1.0004 -1.2730
  900MOL0     H21487   4.205   0.932   7.924 -0.1156 -1.0867 -0.4934
  900MOL0     H21488   4.476   0.610   7.959  1.6946  1.7244 -2.4693
  900MOL0     H21489   4.569   0.434   8.115  0.6615  0.1130 -0.6181
  900MOL0     H21490   4.776   0.377   8.197  1.3291 -0.7559 -0.2614
  900MOL0     H21491   4.874   0.525   8.238 -0.7277  1.2379  1.8685
  900MOL0     H21492   4.847   0.255   8.403  1.3249 -1.6323 -1.0231
  900MOL0     H21493   4.876   0.396   8.486 -2.2794 -1.8765  0.3771
  900MOL0     H21494   5.059   0.359   8.246 -1.8155 -2.2821 -0.1076
  900MOL0     H21495   5.084   0.247   8.365 -1.3936 -0.2258  0.3493
  900MOL0     H21496   5.230   0.421   8.439  1.0547 -1.5340  0.6117
  900MOL0     H21497   5.104   0.402   8.560 -2.9132  1.3844 -0.8426
  900MOL0     H21498   5.002   0.780   8.388 -0.5396 -0.2924  0.0544
  900MOL0     H21499   4.649   0.721   8.413  0.6476 -0.2432  0.5842
  900MOL0     H21500   4.555   0.903   8.272  0.1643 -0.4763  0.8634
  901MOL0     O21501   5.417   3.686  10.239 -0.2161  0.2364 -0.1580
  901MOL0     C21502   5.357   3.589  10.290  0.1881 -0.4945 -0.2209
  901MOL0     O21503   5.402   3.469  10.317 -0.0843  0.6699 -0.2623
  901MOL0     C21504   5.539   3.463  10.320  1.0179 -0.0133 -0.9340
  901MOL0     C21505   5.613   3.505  10.433 -0.3646 -0.7111 -0.5535
  901MOL0     C21506   5.753   3.526  10.439 -0.4358  0.4900 -0.1100
  901MOL0     C21507   5.816   3.489  10.325  1.1015 -0.9220 -0.5197
  901MOL0     O21508   5.946   3.504  10.340  0.0266 -0.6233 -0.7068
  901MOL0     C21509   6.025   3.407  10.274 -0.0519 -0.2387 -0.4236
  901MOL0     C21510   6.168   3.416  10.338 -0.3462 -0.0456  0.5553
  901MOL0     C21511   6.271   3.308  10.286  0.7657  0.3295 -0.3884
  901MOL0     C21512   6.302   3.329  10.135 -0.1753 -0.3292 -0.1554
  901MOL0     C21513   6.422   3.236  10.099 -0.0212  0.8911  1.1913
  901MOL0     C21514   6.374   3.084  10.100 -0.3898  0.3605 -0.3573
  901MOL0     C21515   6.472   2.981  10.059  0.0099 -0.2593 -0.0587
  901MOL0     C21516   6.455   2.839  10.099  0.2513  0.4718 -0.0687
  901MOL0     N21517   6.520   2.752   9.997 -0.1512  0.0539 -0.9650
  901MOL0     C21518   6.653   2.728   9.993 -0.2911 -0.1615 -0.2094
  901MOL0     C21519   6.677   2.642   9.891  0.2533 -1.1248 -0.8537
  901MOL0     C21520   6.810   2.610   9.837 -0.1873  1.0064  0.1613
  901MOL0     C21521   6.833   2.458   9.843  0.9139  0.2093 -1.2767
  901MOL0     C21522   6.765   2.371   9.722  0.3264 -0.4533 -0.0711
  901MOL0     C21523   6.711   2.241   9.781  0.4291  0.1032 -0.1339
  901MOL0     O21524   6.800   2.133   9.796  0.3764 -0.1724  0.2132
  901MOL0     C21525   6.765   2.007   9.775  0.1078  0.8446 -0.0268
  901MOL0     C21526   6.815   1.940   9.669  0.3510  0.8325  0.0516
  901MOL0     C21527   6.771   1.805   9.645  0.1369  0.7445  0.0744
  901MOL0     C21528   6.788   1.753   9.497 -1.0236 -1.7038  0.1679
  901MOL0     C21529   6.713   1.729   9.744  0.3638  0.4104 -0.0728
  901MOL0     C21530   6.700   1.589   9.737 -0.0341  0.0774  0.3012
  901MOL0     O21531   6.587   1.545   9.795  1.3265 -0.0128  0.2275
  901MOL0     C21532   6.540   1.416   9.779 -0.7170 -0.4106 -1.1397
  901MOL0     C21533   6.542   1.342   9.655 -0.0530 -0.3927  0.1761
  901MOL0     C21534   6.508   1.209   9.646 -0.1539 -0.2633  0.2371
  901MOL0     C21535   6.458   1.144   9.756 -0.8106  0.1839  0.1030
  901MOL0     O21536   6.405   1.020   9.753 -0.3249  0.6958 -0.3082
  901MOL0     C21537   6.302   0.997   9.653 -1.0482 -0.3243  0.4716
  901MOL0     C21538   6.189   0.912   9.689 -0.0798 -0.5921  0.4620
  901MOL0     C21539   6.254   0.777   9.742 -0.4154  0.0963 -0.3319
  901MOL0     C21540   6.361   0.717   9.652 -0.1187  0.3376  0.3035
  901MOL0     C21541   6.415   0.572   9.683  0.8624 -0.8449  0.3840
  901MOL0     C21542   6.489   0.522   9.566 -0.3981  0.1843 -0.6659
  901MOL0     C21543   6.622   0.595   9.535 -0.0931 -0.1282  0.7097
  901MOL0     C21544   6.730   0.491   9.484  0.0907  0.1415  0.2507
  901MOL0    Cl21545   6.664   0.374   9.353  0.1585  0.4244 -0.0315
  901MOL0     C21546   6.447   1.212   9.881 -1.0371  0.2258 -0.1906
  901MOL0     C21547   6.493   1.347   9.891  0.9936 -1.3972  0.0397
  901MOL0     O21548   6.786   1.512   9.692 -1.2117  0.0960  0.2459
  901MOL0     C21549   6.666   1.797   9.856 -0.1612  0.6051 -0.1884
  901MOL0     C21550   6.695   1.935   9.872 -0.4598 -0.5369  0.3112
  901MOL0     N21551   6.557   2.633   9.827 -0.3543 -0.5199  0.8578
  901MOL0     N21552   6.464   2.698   9.883 -0.5073  0.1147 -0.6921
  901MOL0     C21553   5.748   3.451  10.211  0.5008 -0.1314 -0.1189
  901MOL0     C21554   5.614   3.438  10.210 -0.1065 -0.2888  0.2374
  901MOL0     C21555   5.216   3.618  10.330 -0.8683  1.0985 -0.2950
  901MOL0     C21556   5.154   3.529  10.422 -0.2212  1.2955  0.6398
  901MOL0     C21557   5.013   3.537  10.457 -1.1478  0.0531 -0.3491
  901MOL0     C21558   4.936   3.627  10.382 -1.3759 -0.1433  0.0261
  901MOL0     O21559   4.797   3.632  10.381 -0.8162  0.8091 -0.4690
  901MOL0     C21560   4.726   3.567  10.503 -0.5671  0.0600  0.6408
  901MOL0     C21561   4.601   3.490  10.466 -0.1299  0.2884  0.5245
  901MOL0     C21562   4.625   3.374  10.375  0.3452  0.0178  0.0018
  901MOL0     C21563   4.750   3.290  10.382  0.0554 -0.7755 -0.0120
  901MOL0     C21564   4.746   3.196  10.490  0.3065  0.0149  0.7947
  901MOL0     C21565   4.739   3.133  10.596  0.4832 -0.6756  0.0377
  901MOL0     C21566   5.003   3.706  10.292  0.2846  0.2283 -0.3709
  901MOL0     C21567   5.138   3.704  10.263  0.9736  1.1515  0.2414
  901MOL0     H21568   5.559   3.511  10.527  1.1476 -1.7489  0.4295
  901MOL0     H21569   5.803   3.562  10.529 -0.3276  1.1095 -0.4123
  901MOL0     H21570   5.989   3.304  10.281 -1.3873  0.0641 -2.3311
  901MOL0     H21571   6.039   3.429  10.168 -2.8516 -3.0100 -1.4974
  901MOL0     H21572   6.206   3.518  10.328  1.9522 -0.7473  1.4718
  901MOL0     H21573   6.172   3.407  10.447  1.7413  1.9783  0.7121
  901MOL0     H21574   6.361   3.303  10.348  0.9683  0.4601 -0.6685
  901MOL0     H21575   6.225   3.209  10.293 -0.1516  0.3394 -4.2537
  901MOL0     H21576   6.211   3.303  10.080 -1.1710 -0.0140  1.2907
  901MOL0     H21577   6.319   3.437  10.131 -3.7477  0.7462  4.4291
  901MOL0     H21578   6.441   3.252   9.993 -1.9868  1.3662  0.8575
  901MOL0     H21579   6.509   3.238  10.164 -0.5391  0.6271  1.9082
  901MOL0     H21580   6.336   3.048  10.196  2.8817 -1.5163  0.4085
  901MOL0     H21581   6.286   3.075  10.036  1.3270 -0.2844 -2.7855
  901MOL0     H21582   6.486   2.989   9.950 -3.5863  0.2545 -0.6029
  901MOL0     H21583   6.572   3.016  10.088  0.2310  1.2026 -2.2956
  901MOL0     H21584   6.349   2.813  10.098  0.0735  1.1568  0.4278
  901MOL0     H21585   6.485   2.829  10.203 -3.6672  0.7883  1.2548
  901MOL0     H21586   6.737   2.785  10.030  2.0535 -0.7519 -4.0090
  901MOL0     H21587   6.815   2.644   9.733  2.1004 -0.6101 -0.3380
  901MOL0     H21588   6.888   2.666   9.890  2.4267 -1.2678 -1.0008
  901MOL0     H21589   6.801   2.421   9.940  3.3194  1.4634  0.0711
  901MOL0     H21590   6.941   2.441   9.839  0.8782 -0.2766 -0.3248
  901MOL0     H21591   6.852   2.349   9.660  2.3950 -0.6105  2.6685
  901MOL0     H21592   6.692   2.439   9.677  0.7732 -0.1814 -0.3991
  901MOL0     H21593   6.637   2.200   9.711  4.6916 -3.9703 -2.7747
  901MOL0     H21594   6.662   2.248   9.879 -1.3462 -0.3360 -0.9497
  901MOL0     H21595   6.881   1.982   9.594  2.3559 -1.1778  0.5839
  901MOL0     H21596   6.705   1.689   9.465 -2.0013  1.0915 -3.5563
  901MOL0     H21597   6.786   1.833   9.423  0.2058  0.5948  2.4554
  901MOL0     H21598   6.875   1.688   9.483  1.0318  0.4732  1.9859
  901MOL0     H21599   6.591   1.380   9.566  0.4179 -0.2366  0.5031
  901MOL0     H21600   6.518   1.157   9.551  2.8377 -0.2578  0.4612
  901MOL0     H21601   6.260   1.095   9.627 -2.9141 -0.5968  2.2228
  901MOL0     H21602   6.354   0.957   9.566 -0.4836  0.3570  0.4805
  901MOL0     H21603   6.130   0.950   9.772 -3.6521 -2.5264 -0.9760
  901MOL0     H21604   6.125   0.904   9.601 -1.7706  2.0924  1.3041
  901MOL0     H21605   6.186   0.693   9.727 -0.9994  0.2842  1.0703
  901MOL0     H21606   6.272   0.783   9.850 -1.7315  0.7081 -0.1267
  901MOL0     H21607   6.313   0.709   9.554  1.2639 -0.1091 -0.3615
  901MOL0     H21608   6.450   0.780   9.644  2.4275 -3.2054 -3.6712
  901MOL0     H21609   6.325   0.510   9.695  0.8876 -0.8229  0.6919
  901MOL0     H21610   6.476   0.557   9.772 -0.5313 -2.6502  1.0945
  901MOL0     H21611   6.515   0.418   9.589 -1.3123  0.1112  0.0720
  901MOL0     H21612   6.423   0.520   9.479 -1.2500 -0.0707 -0.0236
  901MOL0     H21613   6.666   0.630   9.629 -2.7331  0.9710  1.6305
  901MOL0     H21614   6.601   0.674   9.463  1.1195 -2.7084 -2.7604
  901MOL0     H21615   6.784   0.432   9.558  0.5563  0.1661 -0.0620
  901MOL0     H21616   6.806   0.555   9.436  1.8173 -0.1555  2.4306
  901MOL0     H21617   6.405   1.154   9.962  1.1188 -1.3591 -0.1444
  901MOL0     H21618   6.484   1.409   9.979  0.2966 -1.4295  0.0014
  901MOL0     H21619   6.619   1.746   9.940 -0.4738  0.7970 -0.2459
  901MOL0     H21620   6.669   1.999   9.956 -1.9153  3.2752 -2.7270
  901MOL0     H21621   5.795   3.433  10.115  1.3749  0.7956  0.1207
  901MOL0     H21622   5.575   3.393  10.119 -1.1693 -1.7526  1.3438
  901MOL0     H21623   5.208   3.454  10.478 -0.5433  1.9621  1.8903
  901MOL0     H21624   4.986   3.468  10.536  1.0075  0.9918  1.3106
  901MOL0     H21625   4.789   3.500  10.563  1.3371  1.2981  0.1094
  901MOL0     H21626   4.705   3.655  10.563  2.8386  0.7916  1.0009
  901MOL0     H21627   4.532   3.557  10.414  0.9418  0.5498 -0.6151
  901MOL0     H21628   4.581   3.458  10.568  3.8385 -1.4193  0.9573
  901MOL0     H21629   4.608   3.415  10.275 -1.9713 -1.7860 -0.4468
  901MOL0     H21630   4.540   3.304  10.378  0.1300  0.0833 -2.5375
  901MOL0     H21631   4.836   3.358  10.383 -1.2728  1.0521 -1.4119
  901MOL0     H21632   4.766   3.237  10.288 -2.0177 -0.9271 -0.3416
  901MOL0     H21633   4.732   3.069  10.681  4.1733 -1.0290  0.2228
  901MOL0     H21634   4.945   3.784  10.242 -0.6760 -1.7065 -2.4576
  901MOL0     H21635   5.182   3.759  10.181 -1.4108  2.7744 -0.0514
  902MOL0     O21636   4.983  11.283   2.200 -0.7653 -0.1258  0.0872
  902MOL0     C21637   5.071  11.350   2.142 -0.2472 -0.5404 -0.0829
  902MOL0     O21638   5.060  11.453   2.062  0.1404 -0.3781  0.2689
  902MOL0     C21639   4.946  11.526   2.069 -0.4131  1.0916  1.0390
  902MOL0     C21640   4.900  11.596   2.187 -0.3273 -0.7931 -0.5791
  902MOL0     C21641   4.774  11.654   2.184 -0.2478  0.2642  1.1518
  902MOL0     C21642   4.685  11.653   2.068 -0.4449 -0.0954  0.3389
  902MOL0     O21643   4.555  11.710   2.058 -0.3664  0.1760  0.6788
  902MOL0     C21644   4.511  11.801   2.161  0.4047 -0.4437 -0.3018
  902MOL0     C21645   4.366  11.837   2.130 -0.8551  0.0556  0.3404
  902MOL0     C21646   4.274  11.725   2.188 -0.2746 -0.4078  0.6171
  902MOL0     C21647   4.137  11.723   2.121 -0.3103  0.8022  0.5635
  902MOL0     C21648   4.038  11.841   2.167 -0.7617 -0.7147  0.0636
  902MOL0     C21649   3.908  11.827   2.094  0.3685 -0.1768 -0.9221
  902MOL0     C21650   3.784  11.833   2.182 -0.0310  0.3997  0.0598
  902MOL0     C21651   3.763  11.983   2.226  0.1532 -0.1758  0.6168
  902MOL0     N21652   3.725  12.065   2.111  0.0042  0.6409  0.6483
  902MOL0     C21653   3.614  12.037   2.025 -0.0924 -0.7767 -0.4717
  902MOL0     C21654   3.615  12.149   1.952  0.3971  0.6008  0.9771
  902MOL0     C21655   3.493  12.177   1.859 -0.4552 -1.1207  0.1675
  902MOL0     C21656   3.498  12.103   1.729  0.9819 -0.8425  0.4929
  902MOL0     C21657   3.614  12.150   1.639 -0.6875  0.2010  0.5479
  902MOL0     C21658   3.588  12.072   1.508 -0.0945  0.1730  0.8009
  902MOL0     O21659   3.685  12.121   1.403 -0.0092  0.4874  0.3593
  902MOL0     C21660   3.697  12.060   1.278  0.9147 -0.5635  0.0263
  902MOL0     C21661   3.773  12.117   1.183 -2.1723  0.5731 -0.4911
  902MOL0     C21662   3.797  12.061   1.054 -0.0114  0.2863  0.6347
  902MOL0     C21663   3.864  12.156   0.954 -0.4256 -0.4758 -0.3635
  902MOL0     C21664   3.741  11.929   1.023 -0.0633  0.1476 -0.2221
  902MOL0     C21665   3.757  11.852   0.893  0.1296  0.3470 -1.2307
  902MOL0     O21666   3.683  11.747   0.870 -0.0511 -0.3537  0.5269
  902MOL0     C21667   3.701  11.683   0.753  0.2313 -0.1396 -0.0533
  902MOL0     C21668   3.650  11.733   0.632 -0.7424 -0.2044  0.2204
  902MOL0     C21669   3.657  11.659   0.511  0.1422  0.3051  0.4852
  902MOL0     C21670   3.708  11.530   0.516 -0.5142  0.5991  0.0173
  902MOL0     O21671   3.728  11.455   0.406 -0.1015  0.1766  0.3413
  902MOL0     C21672   3.703  11.506   0.270 -0.4398  1.1694  0.0638
  902MOL0     C21673   3.776  11.436   0.157 -0.1241  0.2916 -1.8391
  902MOL0     C21674   3.929  11.427   0.185 -0.4826  1.2537 -0.1103
  902MOL0     C21675   3.993  11.351   0.071  0.2433 -0.2645  0.1268
  902MOL0     C21676   3.990  11.426  -0.057 -0.3061  0.9284  0.6907
  902MOL0     C21677   4.084  11.354  -0.156  0.1906 -0.5742  0.2857
  902MOL0     C21678   4.067  11.421  -0.298  0.2230 -0.0518  0.6121
  902MOL0     C21679   4.211  11.451  -0.351 -0.1973 -0.2811 -0.4378
  902MOL0    Cl21680   4.273  11.307  -0.443 -0.3031  0.1074 -0.0290
  902MOL0     C21681   3.766  11.483   0.635 -0.1791 -0.0320  0.3289
  902MOL0     C21682   3.754  11.554   0.749  0.6365  0.1040 -0.3188
  902MOL0     O21683   3.845  11.893   0.821  0.2457  0.5330  0.7240
  902MOL0     C21684   3.656  11.867   1.121 -0.6989 -0.5651 -0.3791
  902MOL0     C21685   3.631  11.937   1.248  0.7728 -0.2235  0.5012
  902MOL0     N21686   3.725  12.230   1.973 -0.3262 -0.3076  0.1037
  902MOL0     N21687   3.791  12.169   2.060  0.4257 -0.2817 -0.0520
  902MOL0     C21688   4.741  11.587   1.951 -0.1862 -1.0568  0.1641
  902MOL0     C21689   4.864  11.522   1.951 -0.9359 -0.2346 -0.1803
  902MOL0     C21690   5.214  11.313   2.165 -0.1040 -1.7097  0.2550
  902MOL0     C21691   5.258  11.241   2.272  1.1509  1.4057 -0.3983
  902MOL0     C21692   5.394  11.201   2.282 -0.0180 -0.1817 -1.0365
  902MOL0     C21693   5.494  11.250   2.191 -0.0796  0.2803 -0.4318
  902MOL0     O21694   5.626  11.227   2.207 -0.2916  0.3501 -0.0448
  902MOL0     C21695   5.690  11.309   2.312 -0.4982 -0.2207 -0.4151
  902MOL0     C21696   5.828  11.246   2.348 -0.5025  0.5308  0.2099
  902MOL0     C21697   5.799  11.121   2.432 -1.2563  0.0272  0.0537
  902MOL0     C21698   5.931  11.049   2.478 -0.6307  0.1411 -0.3509
  902MOL0     C21699   5.900  10.963   2.599 -0.2889  0.1325  0.4404
  902MOL0     C21700   5.867  10.885   2.686 -0.8773  0.4399  0.6155
  902MOL0     C21701   5.448  11.331   2.086 -0.1460  0.7210 -0.6590
  902MOL0     C21702   5.315  11.366   2.079 -0.6670 -0.8405 -0.0689
  902MOL0     H21703   4.969  11.619   2.267 -0.9787 -0.6491 -0.0521
  902MOL0     H21704   4.746  11.703   2.277 -3.7435 -1.3096  1.0696
  902MOL0     H21705   4.524  11.752   2.258 -1.3711  1.8559  1.1945
  902MOL0     H21706   4.564  11.897   2.164  2.1221 -1.3594  2.4601
  902MOL0     H21707   4.341  11.935   2.172  1.8882  1.7429 -1.5897
  902MOL0     H21708   4.357  11.841   2.021 -1.6834  0.9226  0.4257
  902MOL0     H21709   4.326  11.629   2.181 -0.7971 -0.6928  0.5903
  902MOL0     H21710   4.253  11.744   2.293  0.7850  2.0920  0.4396
  902MOL0     H21711   4.134  11.728   2.011 -3.1204  1.7330  0.5962
  902MOL0     H21712   4.088  11.631   2.154  0.2734  0.8085  1.4599
  902MOL0     H21713   4.028  11.842   2.276 -2.0893  0.6657 -0.0395
  902MOL0     H21714   4.078  11.939   2.139 -1.8020  0.0229  1.0412
  902MOL0     H21715   3.901  11.897   2.010 -2.6178  2.2924  1.1636
  902MOL0     H21716   3.907  11.728   2.049  1.6570 -0.6790  0.0710
  902MOL0     H21717   3.708  11.778   2.125  1.0550  0.6374 -1.6605
  902MOL0     H21718   3.792  11.785   2.280  0.1549  1.2881  0.4921
  902MOL0     H21719   3.849  12.029   2.276 -0.8466  1.4475  0.9291
  902MOL0     H21720   3.691  11.996   2.307  0.6721 -0.8162  1.1847
  902MOL0     H21721   3.544  11.955   2.015  1.3730 -2.1592  0.0711
  902MOL0     H21722   3.397  12.156   1.908 -0.7667 -1.1254 -0.4366
  902MOL0     H21723   3.503  12.281   1.827  1.9083 -1.4118 -0.2482
  902MOL0     H21724   3.405  12.104   1.672 -0.0378 -3.7583  1.9036
  902MOL0     H21725   3.524  11.998   1.745  0.5083 -1.5683 -2.7239
  902MOL0     H21726   3.717  12.141   1.676  0.0754  0.9657 -1.2559
  902MOL0     H21727   3.599  12.257   1.625 -0.3411 -0.0874 -3.0106
  902MOL0     H21728   3.488  12.101   1.474  0.8803  0.3566 -2.1799
  902MOL0     H21729   3.596  11.964   1.519  4.0736 -0.1902 -2.8883
  902MOL0     H21730   3.813  12.216   1.203 -1.7108 -0.0087  1.6774
  902MOL0     H21731   3.970  12.141   0.929 -0.2851 -1.1921  0.5890
  902MOL0     H21732   3.812  12.156   0.858 -0.9005  1.4665 -0.1432
  902MOL0     H21733   3.853  12.256   0.996 -0.0846 -1.4499  2.2215
  902MOL0     H21734   3.608  11.833   0.639 -1.7570 -0.6990  5.3036
  902MOL0     H21735   3.624  11.700   0.416 -1.5038 -3.8619 -0.9725
  902MOL0     H21736   3.596  11.504   0.249 -0.0393  2.4241 -2.5663
  902MOL0     H21737   3.738  11.609   0.256 -0.0827  0.7986 -2.0842
  902MOL0     H21738   3.743  11.332   0.147  2.9367 -1.0927  0.8584
  902MOL0     H21739   3.754  11.494   0.067 -1.7393  1.8884 -0.4867
  902MOL0     H21740   3.944  11.367   0.275 -0.1303  0.4091 -0.7144
  902MOL0     H21741   3.972  11.526   0.203 -0.5021  1.2228  0.1105
  902MOL0     H21742   4.095  11.320   0.098 -0.2769 -0.9826  1.3656
  902MOL0     H21743   3.939  11.258   0.052 -0.8956  0.3856  0.0868
  902MOL0     H21744   4.018  11.531  -0.042 -1.8848  1.3260  1.0304
  902MOL0     H21745   3.895  11.424  -0.112  1.7183 -2.1677 -3.1877
  902MOL0     H21746   4.187  11.369  -0.123 -0.4794  3.0386  1.1571
  902MOL0     H21747   4.056  11.249  -0.163  0.9751 -0.7115 -1.3538
  902MOL0     H21748   4.007  11.512  -0.287  0.2128  0.0759 -0.4134
  902MOL0     H21749   3.994  11.356  -0.347  0.3617 -0.6049  1.1259
  902MOL0     H21750   4.273  11.489  -0.270 -0.8461  3.7019 -1.5953
  902MOL0     H21751   4.206  11.529  -0.428 -0.8296  1.0113  0.8830
  902MOL0     H21752   3.796  11.380   0.648 -4.0237 -1.5378 -1.1797
  902MOL0     H21753   3.773  11.508   0.846 -1.4857  0.3936  0.2838
  902MOL0     H21754   3.641  11.760   1.130  2.0152 -1.1421 -1.7340
  902MOL0     H21755   3.563  11.878   1.308  0.2608 -4.2995 -3.5890
  902MOL0     H21756   4.684  11.584   1.858  1.8217  0.2010 -1.1972
  902MOL0     H21757   4.907  11.473   1.864 -1.7683 -1.9275  0.3143
  902MOL0     H21758   5.187  11.211   2.348 -0.6323 -0.3964 -2.6287
  902MOL0     H21759   5.420  11.164   2.380 -2.0488  0.4526 -0.1978
  902MOL0     H21760   5.688  11.416   2.288 -0.7680 -0.0692  0.2536
  902MOL0     H21761   5.625  11.297   2.399 -1.7487 -0.3925 -1.3459
  902MOL0     H21762   5.894  11.309   2.409  2.6709 -5.2047  3.5316
  902MOL0     H21763   5.876  11.215   2.255 -1.2982 -1.9747  0.5574
  902MOL0     H21764   5.716  11.062   2.392 -1.3982 -0.3071  0.8191
  902MOL0     H21765   5.763  11.154   2.531  0.3626 -1.3140  1.1469
  902MOL0     H21766   6.009  11.123   2.501  0.1583 -0.4295 -1.1459
  902MOL0     H21767   5.976  10.993   2.396 -0.6011 -0.1412 -0.1440
  902MOL0     H21768   5.841  10.807   2.755 -3.0336  0.3221 -0.2715
  902MOL0     H21769   5.510  11.337   1.998 -1.5231 -2.2365 -1.9796
  902MOL0     H21770   5.291  11.433   1.997 -1.8473 -0.8299  0.2533
  903MOL0     O21771  11.282   9.874  10.814  0.2096 -0.0276 -0.2411
  903MOL0     C21772  11.337   9.936  10.721  0.2979 -0.3410 -0.0011
  903MOL0     O21773  11.462   9.933  10.685 -0.9243  0.3608 -0.3733
  903MOL0     C21774  11.531   9.825  10.743  0.4609 -0.2255 -0.0479
  903MOL0     C21775  11.509   9.688  10.722  0.4660 -0.4849  0.1001
  903MOL0     C21776  11.575   9.592  10.790 -0.7196  0.7805 -0.5290
  903MOL0     C21777  11.679   9.631  10.882  0.8342 -0.2414  1.5442
  903MOL0     O21778  11.758   9.536  10.950  0.8886  0.4926  0.8662
  903MOL0     C21779  11.748   9.397  10.918  0.2033  0.0265  0.0653
  903MOL0     C21780  11.869   9.337  11.001 -0.1022  0.3356 -0.1991
  903MOL0     C21781  11.849   9.306  11.156  1.4163 -0.6043  0.8538
  903MOL0     C21782  11.711   9.258  11.201 -0.0448 -0.4840 -0.3835
  903MOL0     C21783  11.701   9.196  11.337 -0.3471  0.4617 -0.0422
  903MOL0     C21784  11.725   9.302  11.446 -0.0542  0.1175  0.5514
  903MOL0     C21785  11.713   9.235  11.588  0.2409  0.6083  1.1233
  903MOL0     C21786  11.565   9.207  11.629  0.1946 -0.6242 -0.0432
  903MOL0     N21787  11.474   9.321  11.611 -0.3681  0.2862  0.4554
  903MOL0     C21788  11.405   9.343  11.496  0.0794  0.2818 -0.7059
  903MOL0     C21789  11.312   9.429  11.531  0.0078 -0.2181 -0.8527
  903MOL0     C21790  11.204   9.498  11.452  0.3255 -1.2092  1.0450
  903MOL0     C21791  11.258   9.634  11.394 -0.1338 -0.5190  0.3782
  903MOL0     C21792  11.333   9.613  11.257  0.0030 -0.6007 -0.0701
  903MOL0     C21793  11.361   9.737  11.170  0.1296  0.8998  0.5150
  903MOL0     O21794  11.396   9.829  11.269  0.1460 -0.4015 -0.0657
  903MOL0     C21795  11.518   9.885  11.250  0.3118  0.3739 -0.0066
  903MOL0     C21796  11.635   9.855  11.325  0.1542  0.0924 -0.9887
  903MOL0     C21797  11.761   9.919  11.300 -0.5933 -0.0172 -0.8583
  903MOL0     C21798  11.883   9.879  11.375  1.1141  0.7050 -0.5856
  903MOL0     C21799  11.767  10.011  11.197 -0.1542 -0.0018  0.2749
  903MOL0     C21800  11.891  10.080  11.150 -0.1510 -0.9123  1.2867
  903MOL0     O21801  12.010  10.067  11.212  0.0274  0.6298  0.3792
  903MOL0     C21802  12.130  10.133  11.172  0.2002  0.3158 -0.2411
  903MOL0     C21803  12.196  10.226  11.259  0.7059 -0.2000  0.0049
  903MOL0     C21804  12.319  10.291  11.226  0.9065  0.0102  0.6151
  903MOL0     C21805  12.395  10.247  11.111  0.5274 -0.3108  0.0486
  903MOL0     O21806  12.531  10.281  11.104 -0.3948  0.0189  0.3217
  903MOL0     C21807  12.609  10.202  11.020 -0.5364 -0.3209  0.1123
  903MOL0     C21808  12.751  10.260  11.003 -0.0262 -0.3768 -1.2691
  903MOL0     C21809  12.847  10.217  10.895 -0.1157  0.0592  0.5942
  903MOL0     C21810  12.848  10.063  10.890 -0.5810  0.3659 -0.1027
  903MOL0     C21811  12.885  10.005  10.747  0.0856 -0.0389  0.4342
  903MOL0     C21812  12.997  10.096  10.682  0.4099 -0.6623 -0.1989
  903MOL0     C21813  13.046  10.027  10.558 -0.3150  0.1358 -0.5198
  903MOL0     C21814  13.191  10.060  10.543 -0.7464  0.1245  0.1245
  903MOL0    Cl21815  13.309   9.965  10.646 -0.3500 -0.0279  0.2145
  903MOL0     C21816  12.338  10.137  11.038  0.4057  0.3957  0.1812
  903MOL0     C21817  12.207  10.079  11.064  0.7885  0.1102 -0.2137
  903MOL0     O21818  11.875  10.151  11.051 -0.7531 -0.6091 -0.4851
  903MOL0     C21819  11.650  10.020  11.118 -1.0196  0.1486 -0.3011
  903MOL0     C21820  11.530   9.965  11.143 -0.2567  0.7288 -0.1553
  903MOL0     N21821  11.319   9.443  11.670  0.4649 -0.4166  1.4028
  903MOL0     N21822  11.409   9.376  11.713 -0.0190 -0.2793  0.3159
  903MOL0     C21823  11.702   9.763  10.900 -0.3175  0.1440 -0.8115
  903MOL0     C21824  11.632   9.864  10.831 -0.3426 -0.5733  0.1137
  903MOL0     C21825  11.254  10.031  10.646 -0.5945 -0.0614 -0.6154
  903MOL0     C21826  11.117  10.011  10.637 -0.2343  0.4277  0.0144
  903MOL0     C21827  11.041  10.115  10.577 -0.4807 -0.5016 -0.8193
  903MOL0     C21828  11.102  10.219  10.512 -0.2076 -0.3807  0.1108
  903MOL0     O21829  11.029  10.321  10.452 -0.1673  0.7216  0.1098
  903MOL0     C21830  10.882  10.318  10.466  0.9290  1.0510  0.0557
  903MOL0     C21831  10.838  10.443  10.399  0.2944 -2.1212 -0.0671
  903MOL0     C21832  10.851  10.557  10.510 -0.2278 -0.0651  0.5451
  903MOL0     C21833  10.730  10.656  10.523 -0.5463  0.3615  0.3472
  903MOL0     C21834  10.711  10.736  10.397  0.8828  0.5648 -0.2031
  903MOL0     C21835  10.655  10.804  10.309 -0.0300  0.3033 -0.1948
  903MOL0     C21836  11.240  10.219  10.503  0.2331 -0.4620 -0.0926
  903MOL0     C21837  11.316  10.123  10.562  0.4753 -0.4687 -0.3834
  903MOL0     H21838  11.433   9.661  10.651  0.3990  0.9723 -0.4224
  903MOL0     H21839  11.559   9.488  10.767 -1.1706  0.6288  0.4209
  903MOL0     H21840  11.652   9.361  10.957  0.1006  2.0198  1.8646
  903MOL0     H21841  11.771   9.365  10.816 -1.1023  0.4020 -0.3774
  903MOL0     H21842  11.890   9.246  10.945  0.3330 -0.5557  1.3432
  903MOL0     H21843  11.952   9.408  11.007 -2.8713  4.0062 -1.5319
  903MOL0     H21844  11.916   9.219  11.163  1.6086 -0.5658 -0.3082
  903MOL0     H21845  11.861   9.399  11.211  3.5543  0.4667 -1.2449
  903MOL0     H21846  11.643   9.343  11.211  0.7801 -0.0299  1.9728
  903MOL0     H21847  11.680   9.183  11.128 -2.2444 -3.3403  3.1210
  903MOL0     H21848  11.596   9.165  11.344 -0.2505  0.3192  0.9729
  903MOL0     H21849  11.781   9.122  11.347 -1.7687 -0.8305  3.2018
  903MOL0     H21850  11.825   9.342  11.430  0.3434 -0.4654  1.4973
  903MOL0     H21851  11.658   9.388  11.432 -3.4608 -2.6788 -2.1955
  903MOL0     H21852  11.770   9.143  11.575 -0.4251  0.4280 -0.8857
  903MOL0     H21853  11.765   9.298  11.661  0.1106  1.6674  0.3177
  903MOL0     H21854  11.569   9.176  11.733 -0.4297  1.4243  0.6496
  903MOL0     H21855  11.542   9.114  11.576  0.5302 -1.4199  1.1640
  903MOL0     H21856  11.416   9.292  11.401  4.0823  1.3462 -0.9677
  903MOL0     H21857  11.171   9.433  11.371  0.9439 -0.3473  0.0828
  903MOL0     H21858  11.112   9.502  11.512  0.0669 -0.2431  0.6013
  903MOL0     H21859  11.332   9.678  11.461  0.6522 -2.4341  0.8110
  903MOL0     H21860  11.166   9.694  11.392 -0.7639 -1.4424 -2.6236
  903MOL0     H21861  11.269   9.539  11.207  0.8471 -3.7741  3.1021
  903MOL0     H21862  11.432   9.569  11.275  0.8980  1.7507  1.0838
  903MOL0     H21863  11.274   9.764  11.108  0.9685  0.0751 -1.0778
  903MOL0     H21864  11.423   9.706  11.086 -2.1821 -1.4123 -0.4947
  903MOL0     H21865  11.628   9.783  11.406  0.3469 -0.3726 -1.3787
  903MOL0     H21866  11.926   9.967  11.425 -0.0270 -0.2333  2.2290
  903MOL0     H21867  11.874   9.805  11.455  6.0847 -0.8932 -1.1708
  903MOL0     H21868  11.965   9.839  11.314 -0.3434 -3.0434 -0.3352
  903MOL0     H21869  12.151  10.259  11.352 -2.0265  2.0527 -1.9149
  903MOL0     H21870  12.357  10.378  11.278  1.0400  0.7239 -0.6379
  903MOL0     H21871  12.621  10.101  11.062 -1.7971 -0.8013 -0.6345
  903MOL0     H21872  12.559  10.204  10.923 -1.6270  5.8372  0.3744
  903MOL0     H21873  12.736  10.367  10.986 -0.3208 -0.1832  0.0783
  903MOL0     H21874  12.804  10.254  11.098 -0.4203  0.2976 -0.9998
  903MOL0     H21875  12.943  10.267  10.912 -0.4660  0.8403  0.3362
  903MOL0     H21876  12.793  10.248  10.805  0.4129 -0.0811  0.2240
  903MOL0     H21877  12.916  10.030  10.969  0.5188 -1.7110 -1.8087
  903MOL0     H21878  12.753  10.023  10.929  0.8761 -1.0779  2.2481
  903MOL0     H21879  12.794  10.005  10.686 -0.3229 -0.1337  1.0324
  903MOL0     H21880  12.911   9.900  10.762 -1.0867 -0.4433 -0.2563
  903MOL0     H21881  12.957  10.195  10.659 -0.2671 -1.2182 -1.5502
  903MOL0     H21882  13.080  10.101  10.753  1.7513 -1.5079 -1.6374
  903MOL0     H21883  12.984  10.041  10.469  0.3837  3.2769 -0.6219
  903MOL0     H21884  13.044   9.926  10.599 -3.8592  1.3536  2.8801
  903MOL0     H21885  13.207  10.167  10.560 -5.6517  1.1572 -0.1382
  903MOL0     H21886  13.229  10.038  10.442  2.6800  0.9212  1.1142
  903MOL0     H21887  12.379  10.094  10.948 -2.9334  1.8361 -2.2410
  903MOL0     H21888  12.152  10.011  11.000  2.4163 -0.7143 -0.7910
  903MOL0     H21889  11.645  10.083  11.030  2.0943 -1.0755 -1.4828
  903MOL0     H21890  11.441   9.984  11.084  0.1633 -1.6645 -1.7060
  903MOL0     H21891  11.785   9.783  10.966 -1.8439  3.4581  0.3488
  903MOL0     H21892  11.651   9.971  10.838 -0.9314 -0.3488 -1.2627
  903MOL0     H21893  11.064   9.925  10.675 -0.4379 -0.3353 -1.8846
  903MOL0     H21894  10.935  10.096  10.565 -0.4660 -0.2043 -1.4672
  903MOL0     H21895  10.847  10.221  10.428  1.3174  0.6447  0.7061
  903MOL0     H21896  10.845  10.319  10.569 -1.0921 -0.5651 -0.5674
  903MOL0     H21897  10.734  10.429  10.370 -0.0010  0.0819 -0.2042
  903MOL0     H21898  10.892  10.480  10.311 -1.5921  3.7731  0.8410
  903MOL0     H21899  10.949  10.603  10.500 -0.7969  0.9887 -0.5332
  903MOL0     H21900  10.846  10.512  10.609  0.2040  0.4582  0.8085
  903MOL0     H21901  10.757  10.719  10.608  0.8827 -1.3975  1.2596
  903MOL0     H21902  10.630  10.618  10.547 -0.0473 -2.8424 -1.9838
  903MOL0     H21903  10.602  10.847  10.227 -3.6781 -1.2961  1.1093
  903MOL0     H21904  11.290  10.295  10.445  4.1322 -2.9932 -0.4031
  903MOL0     H21905  11.423  10.130  10.545  0.4468 -0.6489 -0.6481
  904MOL0     O21906   2.911   1.983   2.901 -0.3216 -0.0332 -0.5850
  904MOL0     C21907   2.976   2.087   2.879  0.4759  0.9658 -0.1493
  904MOL0     O21908   2.993   2.185   2.971  0.5488  1.2286  0.3530
  904MOL0     C21909   2.900   2.178   3.078  0.1040 -1.2119 -0.1327
  904MOL0     C21910   2.961   2.161   3.207 -0.4550  0.0797  0.8169
  904MOL0     C21911   2.891   2.161   3.326  0.8047 -0.0818 -0.9674
  904MOL0     C21912   2.744   2.172   3.321 -0.1151  0.4929  0.0833
  904MOL0     O21913   2.663   2.201   3.429  0.6462  0.8267  0.4654
  904MOL0     C21914   2.616   2.074   3.490 -0.3151  0.2265 -1.7519
  904MOL0     C21915   2.511   2.108   3.590  0.5290 -1.3844  0.4697
  904MOL0     C21916   2.502   2.017   3.699  0.9079 -0.6163  0.3452
  904MOL0     C21917   2.402   2.061   3.811  0.5448  0.0588  0.9606
  904MOL0     C21918   2.253   2.049   3.765 -0.3440  0.7071  0.2758
  904MOL0     C21919   2.160   2.141   3.850 -0.8798 -0.0871 -0.4139
  904MOL0     C21920   2.029   2.175   3.785 -0.6260 -0.9689  0.6424
  904MOL0     C21921   1.952   2.281   3.860  0.9297  0.8422 -0.7858
  904MOL0     N21922   1.808   2.266   3.866  0.0018  0.0551  0.5805
  904MOL0     C21923   1.757   2.170   3.950 -1.0979 -0.0197 -0.0646
  904MOL0     C21924   1.650   2.119   3.878 -0.0657  0.8682 -0.1172
  904MOL0     C21925   1.560   2.016   3.931 -0.4981 -0.4764  0.7252
  904MOL0     C21926   1.618   1.874   3.921  0.2031 -0.2318  0.5174
  904MOL0     C21927   1.653   1.814   3.777 -0.3414 -0.3544 -0.2868
  904MOL0     C21928   1.796   1.852   3.743  0.5782 -0.7955 -0.2391
  904MOL0     O21929   1.821   1.811   3.604 -0.0610  0.0630  0.1397
  904MOL0     C21930   1.888   1.907   3.531 -0.0178  0.5175  0.0640
  904MOL0     C21931   1.817   2.018   3.489  0.4624 -0.1402 -0.0586
  904MOL0     C21932   1.875   2.126   3.418  0.4197  0.1018 -0.0922
  904MOL0     C21933   1.772   2.247   3.393 -0.6247  0.4688 -0.4477
  904MOL0     C21934   2.010   2.127   3.386 -0.1931  0.2918 -0.4197
  904MOL0     C21935   2.071   2.231   3.305  0.0307 -0.5473  1.2978
  904MOL0     O21936   2.192   2.197   3.237 -0.0376 -0.1194  0.1637
  904MOL0     C21937   2.289   2.291   3.227  0.7281 -0.3470 -0.3459
  904MOL0     C21938   2.353   2.331   3.343 -0.4517 -1.7554 -0.0355
  904MOL0     C21939   2.452   2.427   3.341 -0.3093  0.3021  0.0535
  904MOL0     C21940   2.499   2.477   3.215 -0.3574 -0.1472 -0.8169
  904MOL0     O21941   2.584   2.578   3.208  0.3977 -1.4622 -0.6557
  904MOL0     C21942   2.706   2.567   3.265 -0.0571  0.0982  0.2764
  904MOL0     C21943   2.778   2.697   3.239  0.5181 -0.4465 -0.1495
  904MOL0     C21944   2.907   2.707   3.323  0.1276  1.0624 -0.7284
  904MOL0     C21945   2.987   2.568   3.330 -0.2469 -0.5119 -0.2807
  904MOL0     C21946   3.022   2.513   3.191  0.4379  0.5401 -0.3370
  904MOL0     C21947   3.128   2.598   3.118  0.5427 -0.7180 -0.4915
  904MOL0     C21948   3.148   2.545   2.982  0.1302  0.0129 -0.5354
  904MOL0     C21949   3.269   2.605   2.916  0.0388  0.0009  0.0140
  904MOL0    Cl21950   3.407   2.498   2.948  0.1164 -0.0027  0.4061
  904MOL0     C21951   2.434   2.439   3.099  1.4737  0.2301  0.3048
  904MOL0     C21952   2.330   2.345   3.105 -0.3505 -0.1010  0.3212
  904MOL0     O21953   2.028   2.342   3.297  0.0584  0.3159  0.7057
  904MOL0     C21954   2.089   2.015   3.429  0.6367 -0.2199 -0.7696
  904MOL0     C21955   2.027   1.917   3.509 -0.5229  0.9172  0.8803
  904MOL0     N21956   1.635   2.198   3.766  0.2267  0.2223  0.8878
  904MOL0     N21957   1.727   2.282   3.756 -0.5615 -0.1560  0.4274
  904MOL0     C21958   2.686   2.178   3.191 -0.4839 -0.9769 -0.6374
  904MOL0     C21959   2.758   2.180   3.071 -0.2785 -1.1696  0.3739
  904MOL0     C21960   3.048   2.107   2.752  0.1438  1.2141  0.1709
  904MOL0     C21961   3.141   2.212   2.753  0.1620  0.3658  0.9886
  904MOL0     C21962   3.198   2.259   2.638 -1.3627 -0.6608 -0.7381
  904MOL0     C21963   3.163   2.191   2.522 -0.6353  0.1748  0.4838
  904MOL0     O21964   3.230   2.256   2.422 -0.1466 -0.6169  0.5929
  904MOL0     C21965   3.268   2.169   2.314  0.7076 -0.2352  0.2246
  904MOL0     C21966   3.354   2.241   2.204 -0.0108  0.1786 -0.0767
  904MOL0     C21967   3.500   2.255   2.256  0.1253 -0.1911 -0.4990
  904MOL0     C21968   3.586   2.132   2.228  0.1994  0.2675  0.0426
  904MOL0     C21969   3.658   2.105   2.354 -0.9700  0.0511 -0.3034
  904MOL0     C21970   3.700   2.083   2.463  0.3784 -0.0318  0.8456
  904MOL0     C21971   3.079   2.076   2.514 -0.0907  1.3213  0.1009
  904MOL0     C21972   3.025   2.032   2.632 -1.0632  0.0671 -0.6634
  904MOL0     H21973   3.069   2.153   3.216 -0.4199 -2.1970 -0.8306
  904MOL0     H21974   2.949   2.164   3.418  1.4420  1.4549 -1.3979
  904MOL0     H21975   2.574   1.994   3.428 -3.8606 -0.5978  1.3452
  904MOL0     H21976   2.699   2.031   3.545 -1.2452  1.0246  0.4026
  904MOL0     H21977   2.531   2.204   3.640 -0.6980 -0.6060 -0.4840
  904MOL0     H21978   2.417   2.125   3.537  0.5402 -0.4919  0.7158
  904MOL0     H21979   2.465   1.922   3.661 -0.4054 -0.0887  0.2518
  904MOL0     H21980   2.600   1.995   3.741 -0.1221 -3.7677  1.3518
  904MOL0     H21981   2.403   1.993   3.897 -2.0169 -2.9267 -1.1351
  904MOL0     H21982   2.420   2.166   3.836  2.4324  0.0250 -0.0121
  904MOL0     H21983   2.243   2.056   3.656 -1.7979 -0.7991  0.2568
  904MOL0     H21984   2.218   1.945   3.776  1.9511 -0.1865 -0.3183
  904MOL0     H21985   2.139   2.103   3.951  0.1531  1.2843  0.3478
  904MOL0     H21986   2.220   2.231   3.865  1.8424 -2.0354  1.5839
  904MOL0     H21987   2.038   2.209   3.682 -0.6765 -0.6702  0.7363
  904MOL0     H21988   1.963   2.088   3.781 -2.1857  0.1402 -3.6038
  904MOL0     H21989   1.978   2.375   3.809 -0.1318  1.2498 -0.6002
  904MOL0     H21990   1.989   2.286   3.963 -1.4134  0.2311  0.1497
  904MOL0     H21991   1.812   2.129   4.034 -0.4204 -1.2369 -1.0430
  904MOL0     H21992   1.524   2.046   4.029 -2.0864  1.2407 -0.3203
  904MOL0     H21993   1.473   2.011   3.865  0.9902 -1.9391 -1.2583
  904MOL0     H21994   1.533   1.819   3.961 -2.6465  3.7677  0.6588
  904MOL0     H21995   1.701   1.860   3.991 -1.3286  0.8035  2.6344
  904MOL0     H21996   1.583   1.856   3.704 -3.0660 -0.0734  2.3115
  904MOL0     H21997   1.631   1.707   3.780 -1.0611 -0.1949  0.4131
  904MOL0     H21998   1.850   1.778   3.802  3.3849  0.7837 -0.6301
  904MOL0     H21999   1.821   1.959   3.745  0.5510 -0.5532 -4.4640
  904MOL0     H22000   1.711   2.027   3.511  0.7620  0.8532  1.0626
  904MOL0     H22001   1.798   2.330   3.459 -0.5436  0.0676  0.0248
  904MOL0     H22002   1.788   2.283   3.291  2.3298 -0.3065 -0.3616
  904MOL0     H22003   1.667   2.222   3.409 -0.6164  0.4142 -0.4768
  904MOL0     H22004   2.330   2.291   3.441  1.6575 -1.0431  0.8057
  904MOL0     H22005   2.505   2.460   3.430 -2.4008  1.5100  0.9273
  904MOL0     H22006   2.677   2.567   3.371 -2.8137 -2.0510 -0.3467
  904MOL0     H22007   2.746   2.467   3.243  0.1353  0.0836  0.6727
  904MOL0     H22008   2.797   2.715   3.132  1.0134  1.0187  0.1659
  904MOL0     H22009   2.717   2.780   3.274 -0.3672 -0.7940 -0.8183
  904MOL0     H22010   2.890   2.714   3.430  1.8534  0.8296 -0.4184
  904MOL0     H22011   2.958   2.795   3.284  1.4441  0.7972  0.3222
  904MOL0     H22012   3.081   2.582   3.383 -0.3042 -1.0403 -0.0360
  904MOL0     H22013   2.946   2.481   3.381  1.5580 -2.1402 -1.4668
  904MOL0     H22014   2.937   2.498   3.124  2.1531  1.6943 -2.9256
  904MOL0     H22015   3.069   2.417   3.210  0.5669  0.5077 -0.8300
  904MOL0     H22016   3.072   2.690   3.098 -1.3422 -2.0240 -1.5839
  904MOL0     H22017   3.217   2.611   3.180  1.6769  0.1974 -2.2200
  904MOL0     H22018   3.055   2.576   2.933  0.0168  2.0499  0.8700
  904MOL0     H22019   3.156   2.435   2.984 -0.4840 -0.0316  1.6645
  904MOL0     H22020   3.268   2.708   2.954 -0.6961  0.0147 -0.0248
  904MOL0     H22021   3.267   2.606   2.807 -0.4919  0.1424  0.0197
  904MOL0     H22022   2.470   2.470   3.002  3.3808  3.1741  1.7991
  904MOL0     H22023   2.287   2.301   3.015  1.5423 -1.6163  0.0854
  904MOL0     H22024   2.189   2.001   3.389  0.6002 -0.5530 -0.7437
  904MOL0     H22025   2.083   1.834   3.551 -0.5483  1.9159  3.0113
  904MOL0     H22026   2.583   2.194   3.161 -0.6710  2.4070  1.2859
  904MOL0     H22027   2.707   2.195   2.977 -3.1899 -1.3937  1.8203
  904MOL0     H22028   3.185   2.256   2.842  4.5270  1.6580 -1.4586
  904MOL0     H22029   3.260   2.348   2.644 -3.7455  1.4323 -3.7799
  904MOL0     H22030   3.334   2.098   2.366  3.2701  1.6987 -0.1507
  904MOL0     H22031   3.188   2.122   2.257  2.3367 -2.1896 -0.6085
  904MOL0     H22032   3.314   2.338   2.176 -0.6864 -0.5783 -1.9161
  904MOL0     H22033   3.358   2.182   2.112  2.9375 -1.5165  1.0067
  904MOL0     H22034   3.495   2.289   2.360 -1.0647 -0.8384 -0.3226
  904MOL0     H22035   3.545   2.344   2.210 -1.8648  0.9014 -0.4681
  904MOL0     H22036   3.651   2.144   2.141  1.3931 -0.9641  0.7265
  904MOL0     H22037   3.528   2.045   2.196 -1.0408  1.3703 -0.8425
  904MOL0     H22038   3.740   2.045   2.554 -0.9838  1.2952  2.0587
  904MOL0     H22039   3.073   2.026   2.418  2.2165  3.0323 -1.0432
  904MOL0     H22040   2.966   1.941   2.641  0.2558 -0.8829 -1.2262
  905MOL0     O22041   2.180   3.297   8.993  0.0635 -0.0953 -0.5001
  905MOL0     C22042   2.222   3.405   8.952  0.6786  0.3781  0.2281
  905MOL0     O22043   2.158   3.523   8.959  0.2757  0.1130  0.6556
  905MOL0     C22044   2.037   3.521   9.027 -0.2131  0.3843 -0.1548
  905MOL0     C22045   2.033   3.543   9.166 -0.2433 -0.0250  1.1440
  905MOL0     C22046   1.910   3.557   9.230  0.0089  0.6416  0.4194
  905MOL0     C22047   1.788   3.552   9.162  0.5611 -1.0488 -0.3720
  905MOL0     O22048   1.668   3.539   9.225 -0.6367 -0.4789 -0.0995
  905MOL0     C22049   1.634   3.599   9.345 -0.0279  0.4235 -0.7087
  905MOL0     C22050   1.497   3.546   9.379 -0.7958 -0.1122 -0.6572
  905MOL0     C22051   1.443   3.610   9.502  0.0556  0.0023  0.3286
  905MOL0     C22052   1.307   3.538   9.544 -0.0706 -0.1201  0.1674
  905MOL0     C22053   1.232   3.615   9.655 -0.3642  0.6146 -0.1222
  905MOL0     C22054   1.302   3.613   9.786 -0.6468  0.4269 -0.0432
  905MOL0     C22055   1.240   3.694   9.905  0.3351 -0.2034  0.1180
  905MOL0     C22056   1.110   3.642   9.964 -0.3415  0.5446 -1.3516
  905MOL0     N22057   1.055   3.741  10.053  0.3245 -0.7919 -0.1110
  905MOL0     C22058   0.966   3.727  10.159  0.3548  0.8280  1.1532
  905MOL0     C22059   0.944   3.845  10.220  0.6727 -0.2246 -0.0843
  905MOL0     C22060   0.878   3.862  10.354  0.0151 -0.2807  0.8464
  905MOL0     C22061   0.979   3.863  10.478  0.1534 -0.0353 -0.8763
  905MOL0     C22062   0.896   3.874  10.609  0.0408  0.8109  0.2380
  905MOL0     C22063   0.974   3.815  10.726 -0.4060  0.6516 -0.8039
  905MOL0     O22064   1.102   3.875  10.750  0.3796 -0.0189 -1.1883
  905MOL0     C22065   1.172   3.830  10.869 -0.0107 -0.5142  0.4278
  905MOL0     C22066   1.137   3.713  10.939  0.1457 -0.7971  0.5298
  905MOL0     C22067   1.215   3.669  11.054  0.6059  0.4721  0.9685
  905MOL0     C22068   1.171   3.531  11.106  0.5529 -0.2152 -0.0026
  905MOL0     C22069   1.326   3.740  11.100  0.4350  0.3672  0.4037
  905MOL0     C22070   1.389   3.730  11.236 -0.8491  0.6685 -0.9141
  905MOL0     O22071   1.306   3.663  11.317 -0.2466 -0.0092  0.5931
  905MOL0     C22072   1.350   3.670  11.451  0.7335  0.3948 -0.0676
  905MOL0     C22073   1.328   3.777  11.524  0.2076  0.1974 -0.5492
  905MOL0     C22074   1.356   3.777  11.658 -0.5507 -0.4240  0.3190
  905MOL0     C22075   1.394   3.657  11.723 -0.6466 -0.5643  0.2560
  905MOL0     O22076   1.396   3.649  11.864  0.2177  0.2984  0.3437
  905MOL0     C22077   1.301   3.735  11.932 -0.1132  0.2228  0.6419
  905MOL0     C22078   1.301   3.692  12.072  0.3122 -0.0398 -1.1328
  905MOL0     C22079   1.435   3.714  12.141  0.4366 -0.3726  0.3535
  905MOL0     C22080   1.533   3.598  12.137  0.6518 -0.0073  0.0174
  905MOL0     C22081   1.523   3.510  12.260 -0.9449 -0.4921  0.1033
  905MOL0     C22082   1.584   3.578  12.379  1.3288  0.1271 -0.4334
  905MOL0     C22083   1.567   3.476  12.491 -0.8538 -0.0757  0.1245
  905MOL0     C22084   1.558   3.532  12.630 -0.9520 -0.2252 -0.1989
  905MOL0    Cl22085   1.385   3.583  12.653  0.0265 -0.1514  0.0538
  905MOL0     C22086   1.416   3.543  11.651 -0.7255  0.0513  0.0836
  905MOL0     C22087   1.395   3.550  11.510 -0.5556 -0.6024 -0.1094
  905MOL0     O22088   1.495   3.783  11.267 -0.0688 -1.1502 -0.0456
  905MOL0     C22089   1.362   3.853  11.026 -0.0748  0.5391  1.1468
  905MOL0     C22090   1.284   3.894  10.918 -0.4884 -0.4455  0.1637
  905MOL0     N22091   1.023   3.929  10.151  0.1698  0.2329 -0.4661
  905MOL0     N22092   1.080   3.877  10.050 -0.0039  0.0218 -1.0446
  905MOL0     C22093   1.789   3.512   9.030  0.1480 -0.3892  0.2245
  905MOL0     C22094   1.915   3.507   8.964 -0.5255  0.1595  0.9068
  905MOL0     C22095   2.359   3.392   8.879  0.9130 -0.6487 -1.0285
  905MOL0     C22096   2.452   3.291   8.895  0.0440  0.4489 -0.0578
  905MOL0     C22097   2.548   3.262   8.800 -0.1493 -0.1173 -0.8452
  905MOL0     C22098   2.566   3.344   8.685  0.7759  0.1072  0.1461
  905MOL0     O22099   2.662   3.304   8.602  0.0991 -0.0524  0.1618
  905MOL0     C22100   2.703   3.389   8.500  0.9657  1.5651 -0.7616
  905MOL0     C22101   2.776   3.302   8.393 -0.0696  0.6015  0.7342
  905MOL0     C22102   2.682   3.203   8.331 -0.0187  0.1267 -0.3074
  905MOL0     C22103   2.727   3.092   8.227 -0.2916 -0.9808 -0.9996
  905MOL0     C22104   2.817   2.995   8.289  0.9935  0.0963 -0.7104
  905MOL0     C22105   2.912   2.930   8.340 -0.6283  0.0991 -0.3226
  905MOL0     C22106   2.486   3.454   8.674 -0.0112  0.2331 -0.8102
  905MOL0     C22107   2.383   3.472   8.767  0.1088 -0.7997 -0.0274
  905MOL0     H22108   2.132   3.552   9.212  0.1832  4.8131 -0.1618
  905MOL0     H22109   1.916   3.590   9.334  0.7601  0.4415  0.4408
  905MOL0     H22110   1.707   3.564   9.419 -0.4936 -2.0181 -1.3124
  905MOL0     H22111   1.645   3.708   9.343 -1.6578  0.6116 -0.6820
  905MOL0     H22112   1.416   3.563   9.308 -3.0384  1.0840  2.0200
  905MOL0     H22113   1.490   3.438   9.397  2.4635 -0.3491 -0.1990
  905MOL0     H22114   1.507   3.615   9.591  1.2700  2.4679 -0.5873
  905MOL0     H22115   1.435   3.716   9.477 -0.4572 -0.2942 -0.8313
  905MOL0     H22116   1.241   3.529   9.458  0.3825  2.8913 -0.5869
  905MOL0     H22117   1.338   3.440   9.582  0.3408  0.6513  1.9324
  905MOL0     H22118   1.215   3.721   9.634 -1.7881  1.6298  4.8478
  905MOL0     H22119   1.134   3.568   9.670 -0.8035  1.9106  1.3802
  905MOL0     H22120   1.295   3.506   9.809 -2.5425 -0.6358 -4.5620
  905MOL0     H22121   1.405   3.648   9.778 -0.5911  0.8146  1.8566
  905MOL0     H22122   1.304   3.694   9.993  1.3860  3.0068 -0.5132
  905MOL0     H22123   1.232   3.799   9.874 -0.3546 -0.5922 -1.0836
  905MOL0     H22124   1.132   3.550  10.018 -1.5603  0.6228 -0.6907
  905MOL0     H22125   1.046   3.621   9.878 -2.1131 -3.7195  0.6840
  905MOL0     H22126   0.913   3.638  10.189 -2.8193  1.7465 -1.1122
  905MOL0     H22127   0.811   3.948  10.362  0.4148  0.4049 -2.1072
  905MOL0     H22128   0.816   3.772  10.363  1.4061 -1.4212 -0.3394
  905MOL0     H22129   1.022   3.964  10.479 -1.5971  0.7486 -0.5195
  905MOL0     H22130   1.057   3.787  10.474  0.6784  0.4201  0.2498
  905MOL0     H22131   0.807   3.811  10.596 -0.1175  1.2434 -0.8065
  905MOL0     H22132   0.864   3.978  10.621 -4.0524 -0.2688  0.3918
  905MOL0     H22133   0.988   3.708  10.709  0.8113  0.3776  1.4553
  905MOL0     H22134   0.913   3.826  10.816 -1.4542  2.0441 -1.6527
  905MOL0     H22135   1.070   3.641  10.894 -0.0452 -0.5040  0.3374
  905MOL0     H22136   1.103   3.485  11.033 -4.4388  1.0841  3.3367
  905MOL0     H22137   1.258   3.467  11.123  0.8596  0.3860  0.7410
  905MOL0     H22138   1.121   3.550  11.201  4.1789 -2.2345  2.5135
  905MOL0     H22139   1.278   3.864  11.482 -3.1367 -0.9107  0.8837
  905MOL0     H22140   1.352   3.867  11.718 -0.1023 -1.5083  2.0517
  905MOL0     H22141   1.317   3.843  11.922 -0.2245  0.2086  0.3143
  905MOL0     H22142   1.203   3.721  11.885  0.9980  0.1783 -1.8216
  905MOL0     H22143   1.233   3.753  12.133  0.1339 -0.4476 -0.9192
  905MOL0     H22144   1.251   3.596  12.088 -0.6667  0.3401 -1.7946
  905MOL0     H22145   1.420   3.757  12.240  1.2400 -1.1945  0.8499
  905MOL0     H22146   1.481   3.795  12.084  1.5044  1.5754  3.7416
  905MOL0     H22147   1.520   3.534  12.049  0.7815 -0.2938  0.2036
  905MOL0     H22148   1.630   3.649  12.140  0.6420  0.0266  3.2050
  905MOL0     H22149   1.575   3.422  12.220 -0.2400  1.2590 -3.2420
  905MOL0     H22150   1.417   3.488  12.271 -1.8084  2.3576 -1.4475
  905MOL0     H22151   1.685   3.619  12.370  0.3770  2.4658 -1.3971
  905MOL0     H22152   1.524   3.665  12.411 -1.1815 -1.9707  0.9525
  905MOL0     H22153   1.645   3.400  12.499 -0.3790  0.5267  1.3605
  905MOL0     H22154   1.478   3.413  12.479 -1.1042 -0.0867  1.8434
  905MOL0     H22155   1.638   3.604  12.646  3.2903 -4.3280 -0.7672
  905MOL0     H22156   1.582   3.453  12.702 -1.6857  0.3040  0.6518
  905MOL0     H22157   1.446   3.447  11.692  0.9018 -0.4591 -2.0966
  905MOL0     H22158   1.416   3.458  11.458  2.6618  0.8505 -1.6461
  905MOL0     H22159   1.443   3.915  11.065 -0.9285  2.3132  0.2298
  905MOL0     H22160   1.301   3.985  10.860  0.0019 -0.9476 -0.4905
  905MOL0     H22161   1.698   3.491   8.975  0.8968 -0.0068 -1.2322
  905MOL0     H22162   1.917   3.486   8.858 -0.6503  1.1900  0.6860
  905MOL0     H22163   2.444   3.217   8.974 -0.3949 -0.9534 -1.3712
  905MOL0     H22164   2.603   3.169   8.805  0.9320  0.5308  3.9002
  905MOL0     H22165   2.620   3.440   8.450  0.2969 -1.0033 -2.5023
  905MOL0     H22166   2.775   3.459   8.542 -0.3156  2.5963 -0.2451
  905MOL0     H22167   2.853   3.242   8.443  0.8165  1.9773  1.0889
  905MOL0     H22168   2.816   3.355   8.306 -0.0242  0.2254  0.5279
  905MOL0     H22169   2.606   3.267   8.285 -0.5547  0.9674  1.6337
  905MOL0     H22170   2.638   3.150   8.416 -1.9891  1.1201 -0.6625
  905MOL0     H22171   2.768   3.141   8.138  0.5468 -1.2577 -0.7683
  905MOL0     H22172   2.636   3.047   8.186 -1.1814  3.0248 -4.1410
  905MOL0     H22173   2.985   2.885   8.404  1.3800  3.9147  0.3672
  905MOL0     H22174   2.483   3.525   8.592  2.3010 -0.3506 -1.5005
  905MOL0     H22175   2.324   3.562   8.757  2.0096  0.7154  1.7023
  906MOL0     O22176   8.883   7.784   0.387 -0.2035 -0.4072  0.0879
  906MOL0     C22177   8.954   7.769   0.487 -0.0828 -0.3113  0.5080
  906MOL0     O22178   9.003   7.873   0.559  0.4364 -0.2414  0.2801
  906MOL0     C22179   8.976   7.998   0.519 -0.6508  0.3550  0.3205
  906MOL0     C22180   9.041   8.051   0.406  0.5206  0.6474 -0.3934
  906MOL0     C22181   9.012   8.185   0.370  0.1726  0.5775 -0.9498
  906MOL0     C22182   8.928   8.268   0.445 -0.2873  0.6624  0.2593
  906MOL0     O22183   8.914   8.394   0.397 -0.7957  0.8470 -0.2223
  906MOL0     C22184   8.886   8.506   0.475 -0.5473 -0.4198  0.5599
  906MOL0     C22185   8.908   8.638   0.378  0.4395  0.4995 -0.0685
  906MOL0     C22186   8.872   8.761   0.451  0.0151 -1.2281 -0.8713
  906MOL0     C22187   8.895   8.881   0.377  0.9734 -0.2953 -0.5924
  906MOL0     C22188   8.864   9.001   0.474  0.4254  0.5851 -0.4633
  906MOL0     C22189   8.718   9.011   0.512 -0.4398 -0.2888 -0.1810
  906MOL0     C22190   8.688   9.145   0.591 -0.1220 -0.5730  0.6125
  906MOL0     C22191   8.774   9.166   0.716  0.8787  0.0912 -0.2582
  906MOL0     N22192   8.746   9.294   0.781 -0.3824  0.3308 -0.9226
  906MOL0     C22193   8.715   9.413   0.715 -0.0976  0.6885  0.1677
  906MOL0     C22194   8.708   9.503   0.825  0.3246 -0.1954 -0.3350
  906MOL0     C22195   8.681   9.652   0.805  0.5372  0.3050  0.0960
  906MOL0     C22196   8.781   9.724   0.713 -0.1400  0.3988 -0.4365
  906MOL0     C22197   8.723   9.855   0.647  0.7500 -0.4278 -0.3790
  906MOL0     C22198   8.641   9.945   0.751 -1.0755  0.0233  0.3960
  906MOL0     O22199   8.588  10.055   0.678 -0.9575  0.2882 -0.0958
  906MOL0     C22200   8.554  10.167   0.746 -0.4688 -0.0067  0.2676
  906MOL0     C22201   8.545  10.285   0.670 -0.5490  0.7221 -0.0785
  906MOL0     C22202   8.497  10.403   0.727 -0.0601 -0.3836 -0.5915
  906MOL0     C22203   8.464  10.517   0.635 -0.0005  0.4906  0.4004
  906MOL0     C22204   8.455  10.399   0.870 -1.2012 -0.6589 -0.2232
  906MOL0     C22205   8.395  10.524   0.923  0.1527 -0.2486 -0.0321
  906MOL0     O22206   8.471  10.580   1.020 -0.5196 -0.0757 -0.1698
  906MOL0     C22207   8.423  10.669   1.122 -0.3098  0.4844  0.3441
  906MOL0     C22208   8.301  10.638   1.176  0.3824  0.6381  0.2592
  906MOL0     C22209   8.252  10.719   1.284 -0.0045  0.3956 -0.7927
  906MOL0     C22210   8.312  10.837   1.320 -0.2060 -0.3610  0.7635
  906MOL0     O22211   8.243  10.919   1.401  0.8617  0.0269 -0.2541
  906MOL0     C22212   8.293  11.047   1.427  0.8023  0.4260  0.6111
  906MOL0     C22213   8.193  11.118   1.516 -0.0789 -0.1341  0.4076
  906MOL0     C22214   8.046  11.102   1.471 -1.0621  0.0217 -0.1064
  906MOL0     C22215   7.956  11.193   1.564 -0.9256 -0.1101  0.3469
  906MOL0     C22216   7.809  11.154   1.543  0.1524  0.1092 -0.8131
  906MOL0     C22217   7.722  11.262   1.613  1.0274 -0.2279 -0.0596
  906MOL0     C22218   7.706  11.208   1.755 -0.3332  0.1304 -0.3043
  906MOL0     C22219   7.661  11.293   1.866 -0.9557 -0.0201 -0.4682
  906MOL0    Cl22220   7.806  11.396   1.901 -0.5566 -0.0736  0.5231
  906MOL0     C22221   8.432  10.874   1.255  1.1022 -0.5565 -0.3086
  906MOL0     C22222   8.488  10.787   1.162 -0.2513  0.0613  0.0993
  906MOL0     O22223   8.280  10.560   0.888 -0.6401  0.5741  0.1872
  906MOL0     C22224   8.485  10.288   0.947 -1.0302  0.2160 -0.8908
  906MOL0     C22225   8.523  10.171   0.887  0.0136 -0.1907  0.3200
  906MOL0     N22226   8.747   9.441   0.941  0.2153  0.3675  0.4994
  906MOL0     N22227   8.763   9.313   0.910 -0.4808  0.5055 -0.4874
  906MOL0     C22228   8.861   8.214   0.552  0.2706  0.5668  0.2505
  906MOL0     C22229   8.888   8.079   0.594  0.0305  0.5341  0.0032
  906MOL0     C22230   8.992   7.642   0.543  0.3111 -0.1838 -0.3065
  906MOL0     C22231   9.030   7.626   0.679  0.3171 -0.4104  0.4922
  906MOL0     C22232   9.066   7.500   0.723  0.5238 -0.5057 -0.4521
  906MOL0     C22233   9.052   7.388   0.646 -0.9940 -0.7050 -0.5592
  906MOL0     O22234   9.102   7.267   0.696  0.1368  0.2312  0.2704
  906MOL0     C22235   9.157   7.264   0.832  0.5640 -0.1197  0.7893
  906MOL0     C22236   9.178   7.110   0.864  0.0381  0.9650 -0.8338
  906MOL0     C22237   9.301   7.038   0.807 -0.7436 -0.0197 -0.7740
  906MOL0     C22238   9.279   7.007   0.657 -0.6134 -0.0426 -0.4827
  906MOL0     C22239   9.364   7.082   0.574  0.2305 -0.3585  0.3313
  906MOL0     C22240   9.428   7.141   0.489  0.0004 -0.1183  0.0701
  906MOL0     C22241   9.021   7.406   0.511  0.1138  0.9811  0.0148
  906MOL0     C22242   8.980   7.526   0.462  1.1331  0.3232 -1.3372
  906MOL0     H22243   9.097   7.980   0.346  0.3612  0.3364 -0.1782
  906MOL0     H22244   9.047   8.210   0.271  0.1205 -4.7555 -2.6763
  906MOL0     H22245   8.782   8.503   0.511 -1.1552 -0.3983 -1.0882
  906MOL0     H22246   8.956   8.512   0.558  1.2331  4.1553 -0.9373
  906MOL0     H22247   9.016   8.645   0.365  0.2906  0.9229 -1.1731
  906MOL0     H22248   8.844   8.641   0.289 -1.2867  0.9187  1.1277
  906MOL0     H22249   8.766   8.751   0.477  0.1349  1.6119  1.2155
  906MOL0     H22250   8.934   8.758   0.541  2.2909 -0.2580 -2.3316
  906MOL0     H22251   9.001   8.886   0.349  1.0991 -0.4638 -0.1463
  906MOL0     H22252   8.832   8.887   0.287  1.5427  0.6228 -0.9550
  906MOL0     H22253   8.902   8.979   0.575 -2.6925 -0.3575  0.6104
  906MOL0     H22254   8.894   9.103   0.448  0.6351  1.1939  1.9363
  906MOL0     H22255   8.654   9.006   0.424 -1.3259 -0.8428  0.4817
  906MOL0     H22256   8.706   8.925   0.578  2.8344 -1.4276 -0.8751
  906MOL0     H22257   8.700   9.235   0.530  2.3025 -1.1902  0.0796
  906MOL0     H22258   8.585   9.131   0.626 -0.3635  3.8004  2.2725
  906MOL0     H22259   8.882   9.170   0.700  0.7350  0.2040 -1.3010
  906MOL0     H22260   8.774   9.077   0.779  3.2702  0.8932  1.0018
  906MOL0     H22261   8.709   9.442   0.610  0.1588 -1.2984 -0.4373
  906MOL0     H22262   8.587   9.638   0.750 -0.1554  0.2506  1.2558
  906MOL0     H22263   8.656   9.707   0.896  2.9683  1.8176 -0.0776
  906MOL0     H22264   8.831   9.668   0.634 -0.2167 -0.5165  0.1464
  906MOL0     H22265   8.862   9.750   0.782 -0.4231 -1.1598  0.5409
  906MOL0     H22266   8.663   9.836   0.558 -1.1113 -1.8189  1.0940
  906MOL0     H22267   8.815   9.914   0.634  0.9947 -0.0812  2.2824
  906MOL0     H22268   8.716   9.984   0.820 -0.7240 -2.6510  1.6167
  906MOL0     H22269   8.561   9.886   0.796 -0.3614  0.5300  2.4145
  906MOL0     H22270   8.563  10.279   0.563 -1.4357 -2.0653 -0.1678
  906MOL0     H22271   8.537  10.598   0.642  2.1067 -1.4176  2.1569
  906MOL0     H22272   8.450  10.483   0.532 -0.3100 -0.3802  0.7235
  906MOL0     H22273   8.364  10.558   0.649  0.7771  3.2093 -1.2162
  906MOL0     H22274   8.254  10.547   1.140 -0.6881  1.5440 -0.7160
  906MOL0     H22275   8.157  10.697   1.331  0.8726 -3.9774 -0.6277
  906MOL0     H22276   8.383  11.031   1.487  0.2498 -0.0443  1.3422
  906MOL0     H22277   8.320  11.100   1.335 -1.0453  0.6713  0.1662
  906MOL0     H22278   8.199  11.067   1.613 -2.7324 -1.9081 -0.2468
  906MOL0     H22279   8.224  11.221   1.533 -1.3070  0.0881  1.4799
  906MOL0     H22280   8.018  10.998   1.489 -0.8544 -0.2985 -1.5440
  906MOL0     H22281   8.027  11.138   1.370  1.8210 -2.3397 -1.6467
  906MOL0     H22282   7.977  11.193   1.672  0.1586 -0.0163  0.1447
  906MOL0     H22283   7.974  11.293   1.524  0.8745 -1.3652 -2.2816
  906MOL0     H22284   7.777  11.059   1.588 -0.9526  0.4059 -0.9340
  906MOL0     H22285   7.790  11.153   1.435  0.1325 -5.7918 -1.0854
  906MOL0     H22286   7.771  11.359   1.606 -0.8884  0.8281  0.4680
  906MOL0     H22287   7.624  11.274   1.567  0.4596 -5.0428 -0.6976
  906MOL0     H22288   7.805  11.173   1.785 -0.4414  1.5078  1.8484
  906MOL0     H22289   7.639  11.121   1.748  1.3292 -1.1865 -0.6516
  906MOL0     H22290   7.663  11.240   1.962  5.1446 -0.0330 -0.2168
  906MOL0     H22291   7.566  11.344   1.850  0.1720  2.1508 -0.5888
  906MOL0     H22292   8.482  10.969   1.268  1.2808 -0.3802 -2.0261
  906MOL0     H22293   8.584  10.812   1.117 -1.3694  0.4648 -2.2292
  906MOL0     H22294   8.460  10.285   1.053 -1.1520  1.4374 -0.8793
  906MOL0     H22295   8.533  10.078   0.942  0.6202 -0.3928 -0.1275
  906MOL0     H22296   8.792   8.280   0.604 -0.4172  1.1374 -1.3208
  906MOL0     H22297   8.853   8.038   0.688  0.1916  3.6613  1.5588
  906MOL0     H22298   9.039   7.715   0.742 -0.4817  1.7875 -2.2824
  906MOL0     H22299   9.103   7.497   0.825 -0.5152 -1.9459 -0.0846
  906MOL0     H22300   9.244   7.331   0.832 -0.5138  1.4746 -2.2209
  906MOL0     H22301   9.091   7.299   0.912  1.8236 -0.8044  2.1636
  906MOL0     H22302   9.083   7.057   0.852  1.1763 -2.5045  3.2246
  906MOL0     H22303   9.181   7.102   0.973  0.3041 -1.4223 -0.9705
  906MOL0     H22304   9.306   6.944   0.863  1.1649  1.8443  2.4629
  906MOL0     H22305   9.395   7.091   0.823 -1.4873  1.6200 -1.6376
  906MOL0     H22306   9.176   7.025   0.625 -0.4906 -0.1638 -0.9430
  906MOL0     H22307   9.292   6.899   0.647  2.0892  0.2247 -0.7406
  906MOL0     H22308   9.508   7.191   0.439 -0.3860  1.7267  1.1874
  906MOL0     H22309   9.040   7.323   0.443 -0.5260  0.8534 -0.0133
  906MOL0     H22310   8.949   7.540   0.359 -1.0644 -0.0171 -0.7713
  907MOL0     O22311   4.564   7.438   5.684  1.0356  0.3186 -0.3515
  907MOL0     C22312   4.552   7.339   5.606  0.8341 -1.0912  0.2916
  907MOL0     O22313   4.460   7.239   5.631  0.5081  0.3205 -0.0116
  907MOL0     C22314   4.405   7.253   5.758  0.6523  0.2167  0.7533
  907MOL0     C22315   4.322   7.357   5.803 -1.1551  0.2266 -0.1991
  907MOL0     C22316   4.294   7.377   5.933  0.2695 -0.5327 -0.5866
  907MOL0     C22317   4.319   7.272   6.030 -1.4462 -0.3545  0.6175
  907MOL0     O22318   4.263   7.297   6.151  0.1526 -0.0106 -0.6982
  907MOL0     C22319   4.244   7.180   6.244 -0.6283 -0.0866  1.4187
  907MOL0     C22320   4.215   7.220   6.384 -0.5893 -0.8647 -0.2099
  907MOL0     C22321   4.077   7.295   6.396 -0.1187  0.0577 -0.4572
  907MOL0     C22322   4.021   7.290   6.540  0.0093  0.1217  0.1717
  907MOL0     C22323   3.898   7.375   6.563  0.5525  0.2450  0.6032
  907MOL0     C22324   3.777   7.327   6.478 -0.6484 -0.1622 -0.7184
  907MOL0     C22325   3.705   7.461   6.431 -0.5288 -0.5887 -0.1068
  907MOL0     C22326   3.581   7.444   6.338  0.2861 -0.1791 -0.7922
  907MOL0     N22327   3.454   7.399   6.398  0.0207 -0.5959  0.4661
  907MOL0     C22328   3.327   7.446   6.363 -0.1329 -0.8773 -0.2905
  907MOL0     C22329   3.248   7.410   6.467  0.1938  0.6078 -0.6710
  907MOL0     C22330   3.098   7.426   6.469 -0.2054  0.3958 -0.2511
  907MOL0     C22331   3.053   7.528   6.575  0.6723  0.0041 -0.8613
  907MOL0     C22332   2.907   7.573   6.546 -0.7219  0.8984 -0.0968
  907MOL0     C22333   2.837   7.646   6.657  0.2193 -0.0142 -0.3511
  907MOL0     O22334   2.830   7.570   6.782 -0.0333  0.1701  0.8304
  907MOL0     C22335   2.705   7.518   6.797 -0.2449  0.0455 -0.1934
  907MOL0     C22336   2.708   7.378   6.795  0.8262  0.5796 -0.4367
  907MOL0     C22337   2.576   7.323   6.798  0.6262  0.1021  1.0652
  907MOL0     C22338   2.565   7.178   6.762  1.2428 -0.3862 -0.6878
  907MOL0     C22339   2.458   7.405   6.822 -0.5412  0.6494  0.1431
  907MOL0     C22340   2.313   7.361   6.817  0.6610  0.0297 -0.9212
  907MOL0     O22341   2.230   7.418   6.731 -0.7574  0.0963  0.8624
  907MOL0     C22342   2.098   7.386   6.722  0.1293 -0.5165  1.1387
  907MOL0     C22343   2.020   7.443   6.818  0.3321 -0.7716  0.0298
  907MOL0     C22344   1.878   7.425   6.818 -0.1875  0.7264 -0.1623
  907MOL0     C22345   1.819   7.334   6.733  0.2927 -0.0148  0.2373
  907MOL0     O22346   1.681   7.325   6.750 -0.1008  0.9369 -0.8273
  907MOL0     C22347   1.602   7.256   6.651  0.1733 -0.0675  0.0620
  907MOL0     C22348   1.449   7.277   6.682 -0.6910 -1.0990 -0.2172
  907MOL0     C22349   1.399   7.416   6.652  0.9262 -0.4163  0.2754
  907MOL0     C22350   1.252   7.425   6.677 -0.1908 -0.8024  0.9082
  907MOL0     C22351   1.194   7.557   6.619  0.5623 -0.2929 -0.5915
  907MOL0     C22352   1.276   7.675   6.645  1.2811 -0.3694 -0.1607
  907MOL0     C22353   1.214   7.813   6.595 -0.1171 -0.5903  0.5608
  907MOL0     C22354   1.207   7.815   6.432 -0.5825 -0.4411  0.0096
  907MOL0    Cl22355   1.203   7.983   6.365 -0.1622 -0.0091 -0.1257
  907MOL0     C22356   1.906   7.264   6.643  0.1281 -0.3364 -0.1928
  907MOL0     C22357   2.039   7.286   6.638  0.3140 -0.9450  0.4480
  907MOL0     O22358   2.286   7.269   6.895  0.4357 -0.6800 -0.2448
  907MOL0     C22359   2.475   7.542   6.847  0.5067  0.3180 -0.7279
  907MOL0     C22360   2.601   7.600   6.820 -1.0264  0.0420  0.5514
  907MOL0     N22361   3.329   7.338   6.559  0.3587 -1.1658  0.8326
  907MOL0     N22362   3.451   7.334   6.517  0.0236  0.3469 -0.0492
  907MOL0     C22363   4.391   7.163   5.984 -0.9543 -0.0567 -1.2554
  907MOL0     C22364   4.436   7.148   5.854 -0.1570  1.2078  0.4874
  907MOL0     C22365   4.633   7.356   5.481 -0.3454  0.3083  0.2871
  907MOL0     C22366   4.711   7.470   5.453 -0.6376  0.5494 -0.6224
  907MOL0     C22367   4.778   7.483   5.335 -0.5794 -0.3414 -0.5033
  907MOL0     C22368   4.769   7.382   5.239  0.4293 -0.0304 -0.4029
  907MOL0     O22369   4.847   7.401   5.125  0.4088 -0.2377  0.3682
  907MOL0     C22370   4.854   7.306   5.017  0.7467 -0.1736 -0.0088
  907MOL0     C22371   4.975   7.325   4.929  0.5200 -0.2415  0.5680
  907MOL0     C22372   4.935   7.253   4.799 -0.8799 -0.4422 -0.3132
  907MOL0     C22373   5.044   7.266   4.693  0.6196  0.1743  0.5341
  907MOL0     C22374   5.033   7.399   4.637  0.1156  1.2158 -0.3767
  907MOL0     C22375   5.021   7.512   4.591 -0.1463 -0.2797 -0.9613
  907MOL0     C22376   4.683   7.277   5.263 -1.0839 -0.8530  0.0217
  907MOL0     C22377   4.607   7.269   5.373 -0.2708 -0.2618  0.5373
  907MOL0     H22378   4.312   7.435   5.728 -2.7766 -0.9101 -1.2295
  907MOL0     H22379   4.246   7.471   5.961 -1.4097 -2.2166  2.7740
  907MOL0     H22380   4.167   7.120   6.195  0.5039  0.6139 -1.4420
  907MOL0     H22381   4.332   7.115   6.241 -0.1600  0.5512 -1.1069
  907MOL0     H22382   4.215   7.123   6.436  3.1371  0.2519  2.2991
  907MOL0     H22383   4.291   7.286   6.427 -0.5067 -0.3805 -1.0823
  907MOL0     H22384   4.086   7.396   6.357 -0.0764 -1.0517 -3.6076
  907MOL0     H22385   4.006   7.253   6.325  1.3651  1.5247 -2.9546
  907MOL0     H22386   4.006   7.184   6.561  1.6475 -0.3669 -0.9387
  907MOL0     H22387   4.094   7.309   6.619  1.2811 -0.1331 -0.9042
  907MOL0     H22388   3.875   7.371   6.669  4.2009  1.9047  1.6487
  907MOL0     H22389   3.924   7.480   6.543 -0.2649  1.0065  3.2474
  907MOL0     H22390   3.812   7.262   6.396 -0.9004 -2.7100  1.0681
  907MOL0     H22391   3.715   7.262   6.541 -1.6788 -0.1919 -1.7294
  907MOL0     H22392   3.679   7.529   6.513 -4.2140 -1.0612 -0.7367
  907MOL0     H22393   3.778   7.510   6.366  2.2826 -2.3952  1.4294
  907MOL0     H22394   3.607   7.374   6.259 -1.9493 -0.5761 -1.2512
  907MOL0     H22395   3.565   7.538   6.284  0.7414 -0.4285 -1.3603
  907MOL0     H22396   3.306   7.507   6.276  0.2680  3.2100  2.2244
  907MOL0     H22397   3.069   7.450   6.366  0.3868 -1.0000 -0.7663
  907MOL0     H22398   3.065   7.331   6.512 -0.4413  1.4102  1.9032
  907MOL0     H22399   3.111   7.620   6.574 -0.5401  0.8001 -3.2505
  907MOL0     H22400   3.064   7.492   6.678  2.8803  1.4259 -0.5505
  907MOL0     H22401   2.848   7.481   6.548 -0.8684  0.6169  7.3143
  907MOL0     H22402   2.905   7.636   6.456  0.4610  0.1604 -0.6628
  907MOL0     H22403   2.746   7.682   6.609 -1.6342 -3.3494  0.3354
  907MOL0     H22404   2.886   7.739   6.688 -0.8325  0.8894 -1.3496
  907MOL0     H22405   2.801   7.324   6.778 -0.9434 -2.3327 -1.4581
  907MOL0     H22406   2.597   7.114   6.845  2.0663 -2.4931 -2.5393
  907MOL0     H22407   2.459   7.150   6.756  1.1897 -2.0189  3.7941
  907MOL0     H22408   2.624   7.158   6.672  1.8618 -0.4210 -0.2793
  907MOL0     H22409   2.065   7.509   6.891  0.0779  0.1821 -0.6661
  907MOL0     H22410   1.819   7.468   6.899 -0.5211 -3.6930  2.2511
  907MOL0     H22411   1.618   7.286   6.548 -1.5552 -1.2687 -0.6138
  907MOL0     H22412   1.608   7.146   6.650 -2.2066 -0.2736 -1.8802
  907MOL0     H22413   1.403   7.212   6.607 -1.0237 -1.4844  0.3152
  907MOL0     H22414   1.431   7.244   6.785  0.7100 -1.3760 -0.0319
  907MOL0     H22415   1.428   7.446   6.551  2.0052  1.7168  1.1561
  907MOL0     H22416   1.446   7.494   6.713  0.1324 -0.8139  1.4403
  907MOL0     H22417   1.196   7.346   6.626  1.2970  0.1646 -2.5241
  907MOL0     H22418   1.256   7.419   6.786  0.3127 -3.5926  0.8121
  907MOL0     H22419   1.089   7.563   6.650  0.3088  0.1419 -1.5069
  907MOL0     H22420   1.189   7.563   6.510 -2.3867  0.8243 -0.4836
  907MOL0     H22421   1.296   7.676   6.753  0.6591 -0.3058 -0.0435
  907MOL0     H22422   1.369   7.660   6.589  1.2077  3.4171 -1.5838
  907MOL0     H22423   1.274   7.898   6.628 -0.3018 -0.6014  0.9325
  907MOL0     H22424   1.115   7.834   6.637  0.7562  0.5412  2.1713
  907MOL0     H22425   1.133   7.743   6.397 -0.3461 -0.5879 -0.1974
  907MOL0     H22426   1.304   7.780   6.395 -0.4753  2.1116 -2.4716
  907MOL0     H22427   1.863   7.188   6.579 -2.3528  0.6468  0.2044
  907MOL0     H22428   2.112   7.241   6.571 -0.4978 -2.4136  0.4983
  907MOL0     H22429   2.397   7.614   6.868  0.5987  0.5662 -1.2142
  907MOL0     H22430   2.629   7.702   6.844  4.6582 -0.9744 -0.2814
  907MOL0     H22431   4.398   7.084   6.058 -2.7725  0.6691 -0.2523
  907MOL0     H22432   4.499   7.069   5.815 -1.4809  0.7765 -0.8462
  907MOL0     H22433   4.714   7.544   5.532 -0.3042  0.5529 -0.6375
  907MOL0     H22434   4.853   7.559   5.319  0.6754 -2.0011 -3.2959
  907MOL0     H22435   4.863   7.204   5.056  0.7767 -0.6998 -1.3269
  907MOL0     H22436   4.760   7.317   4.963 -0.0543  3.6653  1.8767
  907MOL0     H22437   5.066   7.275   4.962 -1.5776 -5.4854 -0.6342
  907MOL0     H22438   4.993   7.431   4.911  1.3535 -0.8285 -2.7653
  907MOL0     H22439   4.845   7.291   4.749  0.7213 -1.7718 -4.6589
  907MOL0     H22440   4.913   7.146   4.808 -1.8084 -0.5438 -2.8996
  907MOL0     H22441   5.033   7.195   4.611  2.7598  1.4425 -0.9663
  907MOL0     H22442   5.141   7.228   4.726  0.4055 -2.3174 -1.4507
  907MOL0     H22443   5.010   7.614   4.562 -1.5515 -1.0027 -3.1557
  907MOL0     H22444   4.669   7.200   5.187 -1.4336  1.3319 -2.2537
  907MOL0     H22445   4.532   7.194   5.396 -1.6456  0.1726 -2.1181
  908MOL0     O22446   8.602   7.896   4.992 -0.2095 -0.2513 -0.6798
  908MOL0     C22447   8.639   8.005   5.050 -0.4057  0.2080  0.7487
  908MOL0     O22448   8.689   8.016   5.170 -0.2430 -0.1036 -0.2394
  908MOL0     C22449   8.719   7.894   5.234  0.7050 -0.9724  0.2132
  908MOL0     C22450   8.823   7.815   5.184  0.2239 -1.2901  0.0530
  908MOL0     C22451   8.874   7.713   5.246 -0.0419  0.3327 -0.5810
  908MOL0     C22452   8.824   7.673   5.370  0.4742 -0.3139 -0.4401
  908MOL0     O22453   8.866   7.573   5.453  0.0390 -0.0152  0.1569
  908MOL0     C22454   9.009   7.547   5.457  0.3893 -0.0025  0.9108
  908MOL0     C22455   9.038   7.530   5.610  0.0681 -0.1475 -0.4515
  908MOL0     C22456   9.001   7.385   5.659  0.5579 -0.5147  0.2002
  908MOL0     C22457   9.075   7.335   5.777 -0.5916 -0.6393 -0.0529
  908MOL0     C22458   9.022   7.218   5.854  0.8947 -0.1716  0.0675
  908MOL0     C22459   8.893   7.263   5.932  0.0185 -0.2162 -0.5583
  908MOL0     C22460   8.807   7.158   6.006  0.0781 -0.8780  0.5314
  908MOL0     C22461   8.682   7.232   6.067 -0.5599  0.1361  0.2606
  908MOL0     N22462   8.570   7.207   5.980 -0.5196  0.2877  0.2083
  908MOL0     C22463   8.526   7.277   5.874 -0.4229 -0.2347 -0.8376
  908MOL0     C22464   8.431   7.202   5.820  0.0054  0.7251 -0.1560
  908MOL0     C22465   8.384   7.239   5.684  0.5665  0.2064  0.3893
  908MOL0     C22466   8.406   7.119   5.584  0.3316 -0.2952  0.8060
  908MOL0     C22467   8.560   7.094   5.559  0.2022  0.3405 -0.5187
  908MOL0     C22468   8.648   7.206   5.495 -0.0796  0.0720 -0.7427
  908MOL0     O22469   8.776   7.169   5.447 -0.3464 -0.2011 -0.4385
  908MOL0     C22470   8.783   7.124   5.320 -0.0379 -0.2104  0.4154
  908MOL0     C22471   8.856   7.009   5.289 -0.0512 -0.7304  0.1627
  908MOL0     C22472   8.853   6.948   5.159  0.6600 -0.7280 -0.0772
  908MOL0     C22473   8.952   6.836   5.130  0.0860 -0.3065 -0.8813
  908MOL0     C22474   8.772   7.007   5.053  0.2544 -0.6113  0.2207
  908MOL0     C22475   8.767   6.962   4.909  0.2573  0.8201  0.0844
  908MOL0     O22476   8.678   7.038   4.830  0.1662 -0.1431 -0.4382
  908MOL0     C22477   8.661   7.002   4.699  0.3112 -0.0688 -0.5715
  908MOL0     C22478   8.684   7.102   4.608  0.1682  0.1914  0.2626
  908MOL0     C22479   8.664   7.082   4.478  0.3846 -0.0946 -0.3024
  908MOL0     C22480   8.624   6.954   4.434  1.3044 -0.9373  0.9941
  908MOL0     O22481   8.598   6.924   4.299 -0.4846 -0.8897 -0.3897
  908MOL0     C22482   8.723   6.938   4.230 -0.2841  0.5274  0.4631
  908MOL0     C22483   8.703   6.880   4.087 -0.4327 -0.1704  1.2060
  908MOL0     C22484   8.820   6.904   3.988 -0.1805  0.0983  0.8294
  908MOL0     C22485   8.941   6.823   4.016 -0.0813  0.8688  0.2519
  908MOL0     C22486   9.067   6.867   3.930  0.1505  0.4483  0.2256
  908MOL0     C22487   9.107   6.750   3.833  0.3102 -0.0325 -0.2328
  908MOL0     C22488   9.218   6.785   3.737  0.1155 -0.6739  0.1600
  908MOL0     C22489   9.164   6.868   3.623  0.1719  0.1638 -0.5251
  908MOL0    Cl22490   9.302   6.911   3.508  0.3765 -0.2816  0.0718
  908MOL0     C22491   8.608   6.845   4.521 -0.4447  0.1906 -0.3683
  908MOL0     C22492   8.627   6.872   4.655 -0.0054  0.1632  0.6004
  908MOL0     O22493   8.838   6.873   4.864  0.2629  0.5563 -0.2642
  908MOL0     C22494   8.681   7.108   5.093  0.3499  0.1893  0.3178
  908MOL0     C22495   8.697   7.173   5.213 -0.6974  0.1685 -0.7381
  908MOL0     N22496   8.409   7.079   5.885 -0.4163 -0.0543 -0.9750
  908MOL0     N22497   8.496   7.090   5.983 -0.0158 -0.1704 -0.6821
  908MOL0     C22498   8.724   7.749   5.428  0.3619 -0.2652 -0.7014
  908MOL0     C22499   8.681   7.862   5.361 -0.0408 -0.3037  0.1769
  908MOL0     C22500   8.643   8.132   4.976  0.5899  0.0179 -0.1919
  908MOL0     C22501   8.530   8.153   4.899  0.2694  0.6279  0.6817
  908MOL0     C22502   8.510   8.271   4.840  0.2409 -1.2742 -0.1556
  908MOL0     C22503   8.596   8.373   4.872  0.4648  0.4690 -0.6525
  908MOL0     O22504   8.571   8.500   4.818  0.2078 -0.5764 -1.0903
  908MOL0     C22505   8.534   8.599   4.912 -0.2076  0.3097 -0.7718
  908MOL0     C22506   8.419   8.685   4.852  0.1768 -0.3253  0.4341
  908MOL0     C22507   8.306   8.578   4.825 -0.0751 -0.2100  0.1255
  908MOL0     C22508   8.173   8.657   4.810  0.0621  0.1737 -0.1702
  908MOL0     C22509   8.056   8.588   4.747 -0.1304  0.8245 -1.6788
  908MOL0     C22510   7.975   8.509   4.710 -0.1092 -0.8227 -0.7424
  908MOL0     C22511   8.702   8.353   4.961  0.3560  1.6291 -0.4980
  908MOL0     C22512   8.738   8.232   5.008  1.0253  0.5428  0.2247
  908MOL0     H22513   8.852   7.839   5.082 -1.7525  0.7978 -0.1016
  908MOL0     H22514   8.952   7.650   5.205 -1.5288 -2.4281  0.6118
  908MOL0     H22515   9.035   7.459   5.398 -1.9569  0.6007 -1.1946
  908MOL0     H22516   9.062   7.638   5.428 -1.1896  1.8649  3.4762
  908MOL0     H22517   9.142   7.560   5.630  0.3284  0.4475 -2.4572
  908MOL0     H22518   8.970   7.593   5.668 -0.0645  0.2603 -1.0420
  908MOL0     H22519   8.898   7.377   5.693  1.2372 -1.2643  2.2197
  908MOL0     H22520   9.009   7.320   5.571  1.9401  1.1031 -0.9350
  908MOL0     H22521   9.167   7.310   5.723 -0.5616  1.0423 -0.8349
  908MOL0     H22522   9.102   7.406   5.856 -1.6083 -2.2499  1.8160
  908MOL0     H22523   8.993   7.144   5.780  0.5498  0.4842 -0.4626
  908MOL0     H22524   9.092   7.176   5.927 -1.5936  0.3476  2.9342
  908MOL0     H22525   8.943   7.331   6.001 -0.8581  4.1295 -3.7656
  908MOL0     H22526   8.820   7.326   5.881  0.3175  1.1245  0.6354
  908MOL0     H22527   8.784   7.069   5.948 -0.1550 -1.0755  0.9207
  908MOL0     H22528   8.871   7.122   6.087  0.8177 -0.4389  0.1586
  908MOL0     H22529   8.702   7.338   6.088 -2.0831  0.1698  1.8190
  908MOL0     H22530   8.665   7.201   6.171 -3.4159 -0.3502 -0.2632
  908MOL0     H22531   8.559   7.368   5.825 -2.3671  1.0468  0.0906
  908MOL0     H22532   8.279   7.268   5.688  0.3184  0.1946 -3.0888
  908MOL0     H22533   8.439   7.322   5.639 -0.3545  0.2327 -0.7099
  908MOL0     H22534   8.355   7.156   5.495  0.9246  1.1940  1.0466
  908MOL0     H22535   8.360   7.026   5.619  0.1109 -1.0205 -1.2671
  908MOL0     H22536   8.572   7.005   5.496  4.4503  0.7081 -0.5327
  908MOL0     H22537   8.604   7.066   5.655  2.0649  1.9107 -0.8465
  908MOL0     H22538   8.662   7.279   5.575  0.9498  0.3826 -1.1867
  908MOL0     H22539   8.595   7.276   5.429 -0.8879  4.3935  3.8973
  908MOL0     H22540   8.920   6.968   5.367  3.2576  1.5005 -1.1529
  908MOL0     H22541   9.006   6.868   5.039  1.0971 -1.1010 -0.5802
  908MOL0     H22542   9.022   6.804   5.208  1.3926 -3.9716 -3.2855
  908MOL0     H22543   8.893   6.745   5.117 -1.0917  0.0425  1.5215
  908MOL0     H22544   8.721   7.192   4.657 -0.5169  0.2278  0.7246
  908MOL0     H22545   8.706   7.156   4.411 -1.4092 -0.6447 -2.1149
  908MOL0     H22546   8.755   7.041   4.210 -0.5580  0.4135 -0.6029
  908MOL0     H22547   8.798   6.875   4.279 -1.3603  0.2608  1.8068
  908MOL0     H22548   8.664   6.779   4.074 -0.8669  0.2472 -1.2302
  908MOL0     H22549   8.618   6.941   4.055 -0.3672 -0.5917  0.1881
  908MOL0     H22550   8.858   7.006   4.000  2.0688 -0.3791 -1.3538
  908MOL0     H22551   8.793   6.892   3.882 -0.2504 -0.5372  0.9185
  908MOL0     H22552   8.978   6.818   4.119  1.0819  0.3027 -0.1723
  908MOL0     H22553   8.917   6.718   3.995  0.2603  0.5439  1.3756
  908MOL0     H22554   9.148   6.912   3.990 -0.2297  1.3950  0.0449
  908MOL0     H22555   9.028   6.950   3.871  0.4097  1.8811  2.0004
  908MOL0     H22556   9.135   6.664   3.894  3.7415  0.5383 -0.7930
  908MOL0     H22557   9.024   6.721   3.769  2.0763 -0.6174 -2.3726
  908MOL0     H22558   9.274   6.697   3.702  0.9113 -0.3092  0.4972
  908MOL0     H22559   9.283   6.835   3.808 -0.4678 -1.2023  1.0801
  908MOL0     H22560   9.106   6.957   3.650  2.6425  1.9624 -0.8364
  908MOL0     H22561   9.098   6.800   3.568 -1.2363  1.4107 -0.4399
  908MOL0     H22562   8.585   6.754   4.467 -1.5950  0.9630 -1.2274
  908MOL0     H22563   8.613   6.790   4.724  0.8496  0.1973  0.8233
  908MOL0     H22564   8.605   7.145   5.025  1.5436 -2.7838 -2.9126
  908MOL0     H22565   8.644   7.266   5.231  0.0009  0.7283 -1.4625
  908MOL0     H22566   8.700   7.722   5.531 -2.3888  1.5741 -0.7582
  908MOL0     H22567   8.606   7.922   5.411  0.5928  1.5125 -0.9450
  908MOL0     H22568   8.465   8.069   4.876 -1.2143  2.1554 -1.0400
  908MOL0     H22569   8.424   8.278   4.774 -1.3026  1.8250  1.9811
  908MOL0     H22570   8.527   8.552   5.011  0.4122  1.0240 -0.3838
  908MOL0     H22571   8.613   8.674   4.918  0.9404 -0.7655 -1.7577
  908MOL0     H22572   8.454   8.730   4.759  0.4427  0.1155  0.7361
  908MOL0     H22573   8.386   8.760   4.925 -0.1320 -0.7243  0.7069
  908MOL0     H22574   8.302   8.504   4.904  1.6883  1.3009  1.7351
  908MOL0     H22575   8.322   8.529   4.728 -1.2374  3.5773 -2.2278
  908MOL0     H22576   8.203   8.742   4.748  6.2082 -0.2564  1.5776
  908MOL0     H22577   8.149   8.693   4.910 -0.1025  1.5067 -0.6729
  908MOL0     H22578   7.888   8.449   4.692  0.9973 -2.1970 -1.6825
  908MOL0     H22579   8.750   8.443   4.996  0.0472  3.1669 -3.6808
  908MOL0     H22580   8.808   8.230   5.091  1.1779  0.7589  0.0996
  909MOL0     O22581   2.909   8.862   9.185 -0.1126 -1.1787 -0.4273
  909MOL0     C22582   2.863   8.899   9.077  0.1845  0.3197 -0.8249
  909MOL0     O22583   2.861   9.026   9.015 -0.2467  0.0749 -0.2655
  909MOL0     C22584   2.932   9.124   9.082 -1.4363 -0.9374 -0.0431
  909MOL0     C22585   2.903   9.256   9.058 -0.0315  0.7530 -1.2853
  909MOL0     C22586   2.956   9.371   9.125 -0.9897 -0.8834  0.3118
  909MOL0     C22587   3.077   9.353   9.193 -0.6651  0.0199 -0.3051
  909MOL0     O22588   3.143   9.457   9.235 -0.2688 -0.0503 -0.0869
  909MOL0     C22589   3.280   9.477   9.194  1.0483  0.2224 -0.4196
  909MOL0     C22590   3.322   9.623   9.175  0.2931 -0.6636 -0.5973
  909MOL0     C22591   3.242   9.697   9.072  0.2622 -1.1500  0.5123
  909MOL0     C22592   3.207   9.619   8.948  0.0485 -1.2494  0.1128
  909MOL0     C22593   3.347   9.586   8.880  0.5775 -0.5964  0.7556
  909MOL0     C22594   3.344   9.588   8.717  0.3394 -0.1157  0.2847
  909MOL0     C22595   3.482   9.563   8.651 -0.8664  0.1933  0.3636
  909MOL0     C22596   3.552   9.423   8.685 -0.4563  0.1528 -0.3522
  909MOL0     N22597   3.656   9.382   8.582 -0.0566 -0.2331 -0.3106
  909MOL0     C22598   3.790   9.419   8.609  0.5532 -0.3837  1.0098
  909MOL0     C22599   3.858   9.385   8.496  0.2881 -0.2206 -0.4414
  909MOL0     C22600   4.010   9.388   8.477  0.6293  0.4197  0.5125
  909MOL0     C22601   4.081   9.254   8.509 -0.8692  0.1082 -0.4303
  909MOL0     C22602   4.232   9.278   8.491 -0.1224 -0.4839  0.1002
  909MOL0     C22603   4.301   9.154   8.534 -0.5768 -0.1673  0.3337
  909MOL0     O22604   4.445   9.168   8.522 -0.9550  0.1079  0.2628
  909MOL0     C22605   4.515   9.049   8.487  0.1207 -0.1454  0.1429
  909MOL0     C22606   4.652   9.068   8.452  1.2518 -0.4830 -0.3157
  909MOL0     C22607   4.737   8.959   8.427 -0.4669  0.3194 -0.3439
  909MOL0     C22608   4.870   8.998   8.375 -0.8645 -0.1992  0.0206
  909MOL0     C22609   4.683   8.831   8.414 -0.3103  0.0060  0.7310
  909MOL0     C22610   4.751   8.699   8.372 -0.6407 -1.1679 -0.8722
  909MOL0     O22611   4.683   8.584   8.373  0.8470  0.7600 -0.2206
  909MOL0     C22612   4.727   8.471   8.316 -0.8971 -0.3979  0.9272
  909MOL0     C22613   4.698   8.352   8.391 -0.7199  0.5572  0.3905
  909MOL0     C22614   4.734   8.229   8.328 -0.0214 -0.0449 -1.0371
  909MOL0     C22615   4.806   8.210   8.211 -0.3569 -1.0469 -0.0199
  909MOL0     O22616   4.856   8.087   8.174  0.2784  0.9067 -0.0264
  909MOL0     C22617   5.000   8.091   8.141 -0.5485 -0.7703  0.0611
  909MOL0     C22618   5.031   7.955   8.085  0.3357 -0.4027  0.5016
  909MOL0     C22619   5.180   7.935   8.059  1.1081 -0.4390 -0.5394
  909MOL0     C22620   5.221   7.827   7.959 -0.2940  0.2558 -0.1844
  909MOL0     C22621   5.169   7.688   7.996 -1.3162 -0.0936  0.1881
  909MOL0     C22622   5.158   7.598   7.880  0.8351  0.4423  0.2733
  909MOL0     C22623   5.032   7.499   7.880 -0.0810 -1.2826 -0.1321
  909MOL0     C22624   5.041   7.397   7.777 -0.5118  0.2181  0.2531
  909MOL0    Cl22625   4.890   7.295   7.793  0.0087  0.2598 -0.3283
  909MOL0     C22626   4.842   8.331   8.142  1.1192  0.0066 -0.0164
  909MOL0     C22627   4.795   8.460   8.185 -0.0073  0.3537  0.0155
  909MOL0     O22628   4.873   8.712   8.337 -0.0487  0.6136  0.2579
  909MOL0     C22629   4.546   8.813   8.457  0.5836 -0.2647 -0.0944
  909MOL0     C22630   4.465   8.921   8.483 -0.1985 -0.4224  0.4909
  909MOL0     N22631   3.770   9.317   8.407 -0.1186  0.2167  0.7609
  909MOL0     N22632   3.653   9.322   8.466  0.2754  0.4174 -0.1749
  909MOL0     C22633   3.118   9.223   9.211 -0.9950 -0.2476  0.7331
  909MOL0     C22634   3.049   9.115   9.159 -0.3178 -0.1404  0.1360
  909MOL0     C22635   2.798   8.782   9.014 -0.5217 -0.2581 -0.4959
  909MOL0     C22636   2.755   8.665   9.082 -0.2109  0.3696 -0.1978
  909MOL0     C22637   2.710   8.558   9.002  0.2369  0.4450  0.5461
  909MOL0     C22638   2.692   8.569   8.869  0.4308 -0.3821 -0.3834
  909MOL0     O22639   2.629   8.461   8.812  0.1258 -0.2593 -0.7573
  909MOL0     C22640   2.619   8.440   8.671  0.1218 -0.1502 -0.1837
  909MOL0     C22641   2.511   8.504   8.594 -0.0878  0.7935 -0.4520
  909MOL0     C22642   2.369   8.460   8.603 -0.1957 -0.5203 -0.8396
  909MOL0     C22643   2.264   8.520   8.515 -0.7949  0.3503 -0.0008
  909MOL0     C22644   2.254   8.455   8.387  1.0252 -0.5767 -0.2396
  909MOL0     C22645   2.255   8.413   8.276 -0.3421  0.2707 -0.4338
  909MOL0     C22646   2.741   8.680   8.801 -0.0815  1.1898 -0.3438
  909MOL0     C22647   2.800   8.780   8.872  0.4553 -0.8932 -1.2509
  909MOL0     H22648   2.817   9.266   8.993 -1.8024 -0.2572  0.7681
  909MOL0     H22649   2.919   9.472   9.114 -0.6181 -0.7062  0.7142
  909MOL0     H22650   3.337   9.433   9.276  0.4152  0.2239  0.0317
  909MOL0     H22651   3.305   9.419   9.104 -0.5361 -1.5203  0.1921
  909MOL0     H22652   3.309   9.692   9.259 -4.0359 -1.0047 -0.7722
  909MOL0     H22653   3.430   9.623   9.156  1.3148  0.8281  3.9130
  909MOL0     H22654   3.154   9.738   9.123  0.6259  0.2219  0.1032
  909MOL0     H22655   3.279   9.794   9.035  0.0929 -0.2547  2.5778
  909MOL0     H22656   3.146   9.539   8.991  0.0590 -0.7373  1.1241
  909MOL0     H22657   3.143   9.674   8.879  1.9350  0.5961 -0.2751
  909MOL0     H22658   3.418   9.662   8.912  0.3415  1.0902 -2.3534
  909MOL0     H22659   3.386   9.490   8.913  1.1133 -0.6663 -0.0545
  909MOL0     H22660   3.279   9.505   8.687  1.7465 -2.4378  3.1492
  909MOL0     H22661   3.318   9.688   8.680 -0.8122 -0.6220 -0.3324
  909MOL0     H22662   3.478   9.573   8.542  3.3372  0.7218  0.0988
  909MOL0     H22663   3.554   9.634   8.693 -1.1188 -0.3386  1.7708
  909MOL0     H22664   3.482   9.339   8.684 -0.0369 -0.2608  1.4038
  909MOL0     H22665   3.592   9.437   8.786 -1.5308  5.1566 -0.3493
  909MOL0     H22666   3.834   9.486   8.682 -1.5734  4.2699 -1.5097
  909MOL0     H22667   4.017   9.425   8.374 -1.0858  0.5628  0.4130
  909MOL0     H22668   4.051   9.465   8.543  2.2138  0.0969 -0.0421
  909MOL0     H22669   4.043   9.176   8.443  0.7385 -5.4340  4.3208
  909MOL0     H22670   4.060   9.217   8.610  0.1126 -4.6420 -1.7037
  909MOL0     H22671   4.275   9.348   8.563 -0.9031 -1.2292  1.3329
  909MOL0     H22672   4.260   9.310   8.390  1.0093  0.9532  0.8277
  909MOL0     H22673   4.254   9.086   8.462  0.9664 -0.2137 -0.6743
  909MOL0     H22674   4.273   9.133   8.638 -0.9641  2.4343  0.8203
  909MOL0     H22675   4.673   9.174   8.447  0.9930 -0.4717 -1.7523
  909MOL0     H22676   4.946   8.929   8.413  1.8522  2.7171  0.3166
  909MOL0     H22677   4.879   9.004   8.266  0.8337 -0.0260  0.1485
  909MOL0     H22678   4.896   9.100   8.408 -0.2810 -0.9819  2.1216
  909MOL0     H22679   4.640   8.357   8.482  0.5414  2.8039  1.1503
  909MOL0     H22680   4.715   8.135   8.378  0.5164  0.2875 -0.1851
  909MOL0     H22681   5.023   8.161   8.061 -0.0735  2.2307  2.6376
  909MOL0     H22682   5.059   8.108   8.232  0.4477  3.0179 -1.1223
  909MOL0     H22683   4.992   7.884   8.158 -4.1725 -1.2541 -2.3306
  909MOL0     H22684   4.977   7.955   7.990  0.8680  3.6347  0.0046
  909MOL0     H22685   5.215   7.920   8.162 -3.2404  3.0528  1.8096
  909MOL0     H22686   5.218   8.031   8.024  2.1711 -0.9923 -0.9262
  909MOL0     H22687   5.167   7.844   7.865 -2.5735 -1.1149  0.8008
  909MOL0     H22688   5.329   7.826   7.940 -0.7176 -2.0125 -3.3604
  909MOL0     H22689   5.066   7.705   8.029 -1.8348  3.2681 -2.5923
  909MOL0     H22690   5.230   7.641   8.073  2.1848 -2.0240 -3.3796
  909MOL0     H22691   5.158   7.650   7.784 -1.9037 -0.5894 -0.3845
  909MOL0     H22692   5.249   7.537   7.875  0.4152 -0.4378  2.3645
  909MOL0     H22693   4.940   7.555   7.864 -1.4702 -2.5485  2.7571
  909MOL0     H22694   5.027   7.455   7.980 -1.7408 -3.4981 -1.1119
  909MOL0     H22695   5.139   7.351   7.792  0.4027  2.3008  1.1731
  909MOL0     H22696   5.047   7.444   7.679  1.5450  1.0999  0.7517
  909MOL0     H22697   4.908   8.331   8.056 -1.3927 -1.9502 -2.1155
  909MOL0     H22698   4.814   8.552   8.130 -0.9871  1.1177  0.9098
  909MOL0     H22699   4.510   8.711   8.460  0.7250 -0.3239  2.6780
  909MOL0     H22700   4.366   8.885   8.510 -0.1729 -1.7991 -1.0611
  909MOL0     H22701   3.217   9.206   9.252 -1.2825  0.5160  1.7664
  909MOL0     H22702   3.099   9.022   9.186  0.3612  1.0531  3.2975
  909MOL0     H22703   2.754   8.651   9.190 -1.6051 -2.7034 -0.5065
  909MOL0     H22704   2.677   8.464   9.044  0.2692 -0.5253 -1.4766
  909MOL0     H22705   2.710   8.485   8.629  0.0879  0.8780  0.8033
  909MOL0     H22706   2.614   8.334   8.645  2.5460 -0.3059 -0.2305
  909MOL0     H22707   2.534   8.493   8.487 -0.8189  0.9001 -0.6250
  909MOL0     H22708   2.516   8.609   8.624  1.1262  1.4771 -2.7893
  909MOL0     H22709   2.342   8.497   8.702  1.6930  3.6784 -1.6845
  909MOL0     H22710   2.353   8.351   8.600 -1.2680 -0.4107  0.2746
  909MOL0     H22711   2.287   8.627   8.508  1.3472  0.0844  1.7953
  909MOL0     H22712   2.163   8.520   8.559 -1.0995  0.2996 -0.6888
  909MOL0     H22713   2.256   8.354   8.187 -1.9844 -4.5068  2.3326
  909MOL0     H22714   2.731   8.676   8.693  0.2136  1.0489 -0.3673
  909MOL0     H22715   2.843   8.862   8.815  1.0596  2.5984  3.5737
  910MOL0     O22716   2.631  10.250   9.707 -0.2055 -0.3575 -0.2708
  910MOL0     C22717   2.604  10.217   9.593  0.4442 -0.3382  0.2084
  910MOL0     O22718   2.521  10.284   9.514  0.0795 -0.2660  0.4503
  910MOL0     C22719   2.453  10.384   9.579 -0.6424 -0.1918 -0.0254
  910MOL0     C22720   2.523  10.503   9.617  0.0050  0.8292 -1.0723
  910MOL0     C22721   2.454  10.604   9.691 -0.0536  0.9031 -0.6108
  910MOL0     C22722   2.309  10.596   9.700  0.0172  0.3692  0.2965
  910MOL0     O22723   2.250  10.701   9.753 -0.2664 -0.7547 -0.2895
  910MOL0     C22724   2.183  10.664   9.880 -0.0571 -0.8410 -0.0374
  910MOL0     C22725   2.253  10.742   9.983 -0.0813 -0.4029  0.3476
  910MOL0     C22726   2.195  10.704  10.120  0.8569  0.8057  0.4670
  910MOL0     C22727   2.061  10.773  10.156  0.0113  0.5183  0.7201
  910MOL0     C22728   2.087  10.906  10.233  0.1710 -0.7631  0.4669
  910MOL0     C22729   1.961  10.976  10.271  1.2921  0.2223 -0.0625
  910MOL0     C22730   1.970  11.136  10.270 -0.3782  0.0913 -0.0013
  910MOL0     C22731   1.841  11.223  10.279  0.3995 -0.2571 -0.5026
  910MOL0     N22732   1.771  11.197  10.406  0.3083  0.4465 -1.2169
  910MOL0     C22733   1.635  11.212  10.416  0.3070  0.9134  0.2613
  910MOL0     C22734   1.620  11.208  10.551  0.6594 -0.5432 -0.0582
  910MOL0     C22735   1.488  11.208  10.625  0.3303 -0.7429 -0.3221
  910MOL0     C22736   1.458  11.351  10.685  0.4276  0.7241  0.6461
  910MOL0     C22737   1.309  11.382  10.715 -0.1202  0.7635  0.4011
  910MOL0     C22738   1.205  11.360  10.598  0.0296 -0.5047  0.4853
  910MOL0     O22739   1.068  11.402  10.635 -0.2869  0.2324  0.5883
  910MOL0     C22740   1.024  11.535  10.630  0.4478  0.1767  0.5483
  910MOL0     C22741   0.888  11.567  10.658  0.1387 -0.1685  0.8606
  910MOL0     C22742   0.845  11.699  10.646  0.3703  0.5601  0.0526
  910MOL0     C22743   0.689  11.721  10.680  0.2300 -0.0509 -0.4541
  910MOL0     C22744   0.927  11.802  10.602 -0.3287 -0.2388  0.3058
  910MOL0     C22745   0.885  11.952  10.565  0.1970  0.3041 -0.0694
  910MOL0     O22746   0.987  12.028  10.518 -0.4418 -0.2070 -0.8902
  910MOL0     C22747   0.973  12.167  10.495 -0.3772 -0.0288 -0.3617
  910MOL0     C22748   0.901  12.245  10.590 -0.2070  0.1305  0.0999
  910MOL0     C22749   0.870  12.376  10.556  0.6154 -0.4189  0.6698
  910MOL0     C22750   0.913  12.437  10.439  0.8804 -0.9031 -0.5349
  910MOL0     O22751   0.899  12.566  10.419 -0.2103  0.2578 -0.5276
  910MOL0     C22752   0.788  12.592  10.333 -0.3193 -0.5001 -0.4342
  910MOL0     C22753   0.658  12.582  10.408 -0.2968 -0.3220  0.0031
  910MOL0     C22754   0.533  12.648  10.345  1.1328  0.8572  0.3249
  910MOL0     C22755   0.498  12.598  10.207  0.7388  0.1051 -0.1975
  910MOL0     C22756   0.404  12.689  10.134  0.3746  0.1586  0.4431
  910MOL0     C22757   0.377  12.629   9.994  0.9957 -0.3721  0.8659
  910MOL0     C22758   0.294  12.498   9.994  0.4298  0.4423  0.5653
  910MOL0     C22759   0.165  12.515  10.074  0.2203 -0.4265  0.6000
  910MOL0    Cl22760   0.038  12.402  10.015  0.2936 -0.0721  0.3773
  910MOL0     C22761   0.971  12.356  10.347  1.0276 -0.6231  0.2811
  910MOL0     C22762   0.991  12.219  10.376  0.4166 -0.0132  0.2919
  910MOL0     O22763   0.768  11.988  10.570 -0.0979  0.1065  0.3333
  910MOL0     C22764   1.065  11.769  10.588  1.1556 -0.4865 -0.2904
  910MOL0     C22765   1.107  11.637  10.598 -0.5724 -0.4349  0.0331
  910MOL0     N22766   1.741  11.205  10.619 -0.7272 -1.0832  0.4789
  910MOL0     N22767   1.830  11.198  10.525  0.4940 -0.7241  0.0991
  910MOL0     C22768   2.233  10.489   9.646 -0.0773 -0.1869  0.5542
  910MOL0     C22769   2.311  10.388   9.585 -0.2955  0.1834  0.9259
  910MOL0     C22770   2.683  10.113   9.532  0.2826 -0.2450 -0.1129
  910MOL0     C22771   2.803  10.078   9.580 -0.2722  0.5990 -0.3047
  910MOL0     C22772   2.881   9.969   9.534  0.0603 -0.2312 -0.0850
  910MOL0     C22773   2.834   9.889   9.415  0.6935  0.2453  0.1548
  910MOL0     O22774   2.878   9.773   9.359  0.1949 -0.5279 -0.2737
  910MOL0     C22775   2.978   9.697   9.441 -1.1549 -0.1987  0.8593
  910MOL0     C22776   2.952   9.558   9.486 -0.3919 -0.2897 -0.0872
  910MOL0     C22777   2.847   9.553   9.589 -0.5512 -0.2576 -0.7862
  910MOL0     C22778   2.705   9.573   9.524  0.5945  0.8381 -0.3969
  910MOL0     C22779   2.641   9.680   9.584 -0.4049  0.2540  0.9039
  910MOL0     C22780   2.587   9.771   9.634 -0.2790 -0.3568 -1.0000
  910MOL0     C22781   2.710   9.935   9.372  0.5408  0.1096  0.5352
  910MOL0     C22782   2.635  10.034   9.427 -0.0355 -0.2584 -0.2565
  910MOL0     H22783   2.627  10.497   9.589  0.0762  1.4848 -0.9389
  910MOL0     H22784   2.503  10.693   9.728 -1.3797  3.0186 -3.5163
  910MOL0     H22785   2.077  10.690   9.880  0.7794  3.3623 -0.7538
  910MOL0     H22786   2.191  10.558   9.906  1.9239 -1.1888 -1.7983
  910MOL0     H22787   2.361  10.725   9.989  0.2620  1.0257 -0.9858
  910MOL0     H22788   2.237  10.848   9.961  2.1633 -0.1900 -0.5597
  910MOL0     H22789   2.187  10.596  10.133 -2.1758  0.9211  0.3245
  910MOL0     H22790   2.280  10.723  10.187  0.4737  0.5612  1.0219
  910MOL0     H22791   1.989  10.787  10.075 -2.0007  2.2028  2.6564
  910MOL0     H22792   2.010  10.708  10.228  0.6919  1.5249  2.1639
  910MOL0     H22793   2.155  10.889  10.317  4.0672 -3.3107 -2.8017
  910MOL0     H22794   2.147  10.966  10.163 -0.2289 -1.5017 -0.5265
  910MOL0     H22795   1.886  10.950  10.196  0.8709  0.6689  0.1891
  910MOL0     H22796   1.928  10.932  10.366  2.4153 -1.0693 -0.2421
  910MOL0     H22797   2.038  11.174  10.347 -0.1112  4.7737 -2.2163
  910MOL0     H22798   2.022  11.157  10.176  0.6382 -1.9609  0.0463
  910MOL0     H22799   1.774  11.206  10.194 -0.1617  3.1315 -0.8919
  910MOL0     H22800   1.871  11.328  10.274  0.8931 -0.2460  1.8078
  910MOL0     H22801   1.565  11.217  10.332  0.2343  2.3314  0.3868
  910MOL0     H22802   1.413  11.164  10.558  0.1746 -1.0366  0.0439
  910MOL0     H22803   1.505  11.140  10.709 -0.0247  0.7968  1.0534
  910MOL0     H22804   1.502  11.425  10.618 -0.6397  0.5379 -0.2976
  910MOL0     H22805   1.510  11.354  10.781  0.0783  3.1779  0.8257
  910MOL0     H22806   1.311  11.480  10.765 -0.6028  1.0006 -0.0305
  910MOL0     H22807   1.275  11.320  10.798  0.6760 -2.7254 -1.6761
  910MOL0     H22808   1.198  11.255  10.569  1.6157 -0.1368 -1.4753
  910MOL0     H22809   1.245  11.404  10.506  0.8733 -2.0481  0.0831
  910MOL0     H22810   0.821  11.484  10.679 -1.4964  0.6340 -0.8736
  910MOL0     H22811   0.632  11.765  10.598 -1.4971 -0.8229  0.2798
  910MOL0     H22812   0.638  11.630  10.711  0.2554  1.1623  3.9087
  910MOL0     H22813   0.690  11.794  10.762  1.5412  2.7914 -2.8114
  910MOL0     H22814   0.861  12.190  10.674 -2.2277 -1.9815 -2.0767
  910MOL0     H22815   0.824  12.446  10.625  0.6674  1.4393 -1.0980
  910MOL0     H22816   0.796  12.697  10.303 -0.4884 -0.6322 -0.9623
  910MOL0     H22817   0.798  12.548  10.233 -2.1494  0.5750 -1.1404
  910MOL0     H22818   0.639  12.477  10.430 -2.5492 -0.2316 -1.2348
  910MOL0     H22819   0.689  12.638  10.497  0.9308  4.6403 -3.1497
  910MOL0     H22820   0.554  12.756  10.342  0.1106  1.1103  1.5554
  910MOL0     H22821   0.445  12.627  10.405  3.1973 -2.0400  2.6085
  910MOL0     H22822   0.587  12.582  10.144  2.0633 -0.4746  1.7473
  910MOL0     H22823   0.446  12.505  10.229 -1.9990  2.2305  3.3510
  910MOL0     H22824   0.447  12.788  10.114 -1.2686  1.0306  1.0822
  910MOL0     H22825   0.317  12.713  10.196  0.6408  2.2652  0.0534
  910MOL0     H22826   0.331  12.701   9.926  2.4953 -1.5690 -1.5902
  910MOL0     H22827   0.472  12.604   9.946  2.2390  3.3795  1.0682
  910MOL0     H22828   0.348  12.413  10.037  2.2921  2.1447  1.7724
  910MOL0     H22829   0.277  12.469   9.890  0.9914  1.7256  0.0957
  910MOL0     H22830   0.128  12.615  10.048 -2.6963 -1.2983  1.0174
  910MOL0     H22831   0.182  12.514  10.182  2.6016 -2.0134  0.2842
  910MOL0     H22832   1.024  12.391  10.259 -1.7460  0.5710 -1.0097
  910MOL0     H22833   1.044  12.153  10.307  1.2959 -2.0560  2.7335
  910MOL0     H22834   1.137  11.847  10.566  0.0356  0.6789  0.0318
  910MOL0     H22835   1.212  11.618  10.581 -0.9423 -1.5261 -1.2098
  910MOL0     H22836   2.125  10.489   9.654 -0.0261 -1.0902  1.5946
  910MOL0     H22837   2.261  10.298   9.551 -1.6274  0.9931  0.6657
  910MOL0     H22838   2.829  10.147   9.660  0.6816  0.3261 -0.3704
  910MOL0     H22839   2.968   9.950   9.595  1.0700  1.5021 -0.8961
  910MOL0     H22840   3.059   9.695   9.368 -1.2981 -2.5250  0.6975
  910MOL0     H22841   3.011   9.741   9.535  0.3711 -0.0665  0.2914
  910MOL0     H22842   3.037   9.518   9.541  1.4028  3.5672  0.2733
  910MOL0     H22843   2.926   9.495   9.400  1.2986 -3.8648  1.8035
  910MOL0     H22844   2.862   9.636   9.658 -2.4888 -1.3489  1.0597
  910MOL0     H22845   2.854   9.456   9.637  1.2072 -0.7001 -1.8781
  910MOL0     H22846   2.638   9.495   9.561  1.6024 -0.9780 -2.2505
  910MOL0     H22847   2.699   9.583   9.415 -1.5237  4.5137 -0.1126
  910MOL0     H22848   2.555   9.853   9.695  2.3933 -0.3356  0.5404
  910MOL0     H22849   2.653   9.892   9.290  0.0438  1.2202  0.2868
  910MOL0     H22850   2.542  10.064   9.381  1.2650  1.7786 -1.7610
  911MOL0     O22851   4.711   5.292   4.260 -0.1434 -0.1164  0.4006
  911MOL0     C22852   4.597   5.245   4.267 -0.6660  0.0954 -0.0927
  911MOL0     O22853   4.544   5.194   4.379 -0.0554 -0.1761  0.2597
  911MOL0     C22854   4.619   5.137   4.475  0.3122  0.1001 -0.6975
  911MOL0     C22855   4.561   5.134   4.598 -0.5169 -0.2448 -0.4937
  911MOL0     C22856   4.644   5.081   4.703 -0.2586 -0.0122  0.3852
  911MOL0     C22857   4.780   5.029   4.686  1.9807 -1.2515 -0.0806
  911MOL0     O22858   4.864   5.009   4.792 -0.4551 -0.4956 -0.3424
  911MOL0     C22859   4.818   4.936   4.899  0.0697 -0.2700 -0.3108
  911MOL0     C22860   4.934   4.918   4.992 -0.4897  0.7872 -0.7587
  911MOL0     C22861   5.000   5.035   5.068  0.5570  0.0008  1.0863
  911MOL0     C22862   5.147   5.008   5.102 -0.2881  0.0006 -0.9142
  911MOL0     C22863   5.176   4.886   5.195  0.0237 -0.7183 -0.5520
  911MOL0     C22864   5.114   4.902   5.340 -0.2213  0.9563  0.1858
  911MOL0     C22865   5.169   4.798   5.424 -0.8955 -0.0975 -0.0227
  911MOL0     C22866   5.101   4.666   5.451  0.5416 -0.6807  0.5741
  911MOL0     N22867   5.106   4.576   5.337 -0.2440 -0.0921 -0.6184
  911MOL0     C22868   5.226   4.536   5.276 -0.6285 -0.2827  0.5314
  911MOL0     C22869   5.181   4.499   5.153  0.9299 -0.2553  0.2730
  911MOL0     C22870   5.266   4.447   5.036 -0.6188  0.6479 -0.1963
  911MOL0     C22871   5.306   4.555   4.944 -0.9317 -0.0996  0.1751
  911MOL0     C22872   5.339   4.513   4.793 -0.3248 -0.4340 -0.0012
  911MOL0     C22873   5.409   4.375   4.783 -0.6685 -0.4016  0.1914
  911MOL0     O22874   5.478   4.356   4.654 -0.2736  0.0068 -0.3379
  911MOL0     C22875   5.553   4.456   4.596  0.8634 -0.3827 -1.4838
  911MOL0     C22876   5.536   4.482   4.457  0.4837 -0.5219  0.8037
  911MOL0     C22877   5.610   4.585   4.395 -0.6988 -0.6434  0.9423
  911MOL0     C22878   5.579   4.620   4.248 -0.1805  0.2202 -0.1882
  911MOL0     C22879   5.713   4.650   4.468 -0.2812  0.4065 -0.0022
  911MOL0     C22880   5.815   4.750   4.410 -0.3854 -0.1963  0.2403
  911MOL0     O22881   5.919   4.790   4.493 -0.0022 -0.2099 -0.1086
  911MOL0     C22882   6.016   4.878   4.455  0.4449  0.6965  0.3065
  911MOL0     C22883   6.113   4.900   4.552 -0.6030 -0.3556 -0.0557
  911MOL0     C22884   6.221   4.989   4.526 -0.1959 -0.6782 -0.5353
  911MOL0     C22885   6.240   5.048   4.402  0.6005 -0.0114  0.4017
  911MOL0     O22886   6.352   5.127   4.391 -0.4737  0.2569 -0.0475
  911MOL0     C22887   6.411   5.146   4.266  1.3502  0.5254  0.1273
  911MOL0     C22888   6.557   5.134   4.259  0.0979  0.5326 -0.4636
  911MOL0     C22889   6.631   5.211   4.374 -1.1184  0.1189  0.1714
  911MOL0     C22890   6.775   5.218   4.325 -0.5058 -0.3683 -0.0290
  911MOL0     C22891   6.856   5.100   4.361 -0.2399 -0.2104 -0.2194
  911MOL0     C22892   7.003   5.113   4.327 -1.4576 -0.0304  0.6459
  911MOL0     C22893   7.088   4.999   4.385  0.0629  0.8569  0.1317
  911MOL0     C22894   7.237   5.015   4.353 -0.3144  0.0175  0.1162
  911MOL0    Cl22895   7.306   5.142   4.462 -0.0354 -0.1119  0.2638
  911MOL0     C22896   6.124   5.050   4.319 -0.6090 -0.0824  0.0957
  911MOL0     C22897   6.018   4.959   4.337 -0.1162  0.6009 -0.2992
  911MOL0     O22898   5.797   4.796   4.294 -0.3465  0.1145  0.3676
  911MOL0     C22899   5.730   4.618   4.601  0.1617  0.0054  0.0858
  911MOL0     C22900   5.649   4.523   4.667  0.2606 -0.5373  0.8952
  911MOL0     N22901   5.046   4.498   5.145  0.2195 -0.7381  0.1020
  911MOL0     N22902   5.004   4.554   5.262  0.4068  0.5475  0.1192
  911MOL0     C22903   4.818   5.021   4.552 -0.0416 -0.7769 -0.1140
  911MOL0     C22904   4.739   5.074   4.445  0.7659  1.3701  0.0844
  911MOL0     C22905   4.520   5.263   4.143  1.1060  0.0442 -0.0788
  911MOL0     C22906   4.573   5.328   4.030  0.3397  1.0385 -0.4865
  911MOL0     C22907   4.491   5.356   3.925 -0.1630  0.2673  0.6043
  911MOL0     C22908   4.358   5.336   3.928  0.3969  0.7123 -0.3670
  911MOL0     O22909   4.273   5.386   3.824 -0.4260 -0.0336 -0.6092
  911MOL0     C22910   4.190   5.293   3.758 -0.1200 -0.2998 -1.0788
  911MOL0     C22911   4.277   5.220   3.661 -0.2638  0.6170 -0.9837
  911MOL0     C22912   4.334   5.324   3.565  0.4064 -0.6950  0.1631
  911MOL0     C22913   4.389   5.244   3.441  1.0821 -0.2434 -1.3362
  911MOL0     C22914   4.504   5.167   3.478 -0.3853 -0.0310  0.3139
  911MOL0     C22915   4.597   5.093   3.499 -0.4353 -0.5308  0.3097
  911MOL0     C22916   4.297   5.271   4.043 -1.2046  0.1237 -0.6160
  911MOL0     C22917   4.383   5.226   4.153 -0.1909  0.5296  0.5926
  911MOL0     H22918   4.465   5.168   4.637  0.8317  1.1998  1.8097
  911MOL0     H22919   4.601   5.090   4.803  1.2472 -0.4195  1.1046
  911MOL0     H22920   4.731   4.993   4.931 -1.5955 -1.9047 -1.7195
  911MOL0     H22921   4.793   4.834   4.870  1.1645 -0.2973 -1.2638
  911MOL0     H22922   4.910   4.842   5.067  2.2763 -0.1031 -0.6560
  911MOL0     H22923   5.010   4.881   4.923 -1.8707 -4.1492 -0.0257
  911MOL0     H22924   4.977   5.121   5.005 -1.1312 -2.3038 -1.7003
  911MOL0     H22925   4.941   5.035   5.160 -0.5033 -0.2461  0.4307
  911MOL0     H22926   5.200   4.995   5.007 -1.2424  0.8566 -1.5867
  911MOL0     H22927   5.190   5.093   5.156 -1.8155  0.5426 -0.4995
  911MOL0     H22928   5.154   4.793   5.142 -4.6995  1.2355 -2.6839
  911MOL0     H22929   5.284   4.893   5.211 -0.4111  2.6212  2.1351
  911MOL0     H22930   5.127   5.004   5.376  1.5982  0.8494 -0.0906
  911MOL0     H22931   5.007   4.878   5.338  0.3659 -2.8562 -3.9791
  911MOL0     H22932   5.273   4.769   5.408 -0.8202 -0.1847  0.6112
  911MOL0     H22933   5.168   4.836   5.527  2.8798  0.6208 -0.0987
  911MOL0     H22934   4.994   4.690   5.454  0.7612  1.1695 -2.4452
  911MOL0     H22935   5.133   4.630   5.549  0.3652 -0.3809  0.7456
  911MOL0     H22936   5.333   4.539   5.293  0.0174  1.6862 -2.9436
  911MOL0     H22937   5.355   4.397   5.075  1.2759  2.4394 -1.9828
  911MOL0     H22938   5.217   4.368   4.978 -1.1363  0.0120  1.0536
  911MOL0     H22939   5.397   4.591   4.993 -1.8917 -0.3143  2.2022
  911MOL0     H22940   5.223   4.625   4.938  0.1482  1.2080  0.0313
  911MOL0     H22941   5.403   4.591   4.753  1.4368 -0.7449  2.0460
  911MOL0     H22942   5.246   4.497   4.737  0.1210 -0.7934 -0.6534
  911MOL0     H22943   5.330   4.302   4.803 -2.7160  1.5495 -0.3885
  911MOL0     H22944   5.490   4.378   4.857 -1.6654  1.0447  1.2978
  911MOL0     H22945   5.470   4.431   4.388  1.1325  0.0657 -0.2811
  911MOL0     H22946   5.477   4.587   4.225  0.2414  0.0880 -1.9770
  911MOL0     H22947   5.581   4.729   4.246 -0.2849  0.2117 -1.0388
  911MOL0     H22948   5.648   4.601   4.166 -0.5258  1.0964 -0.6901
  911MOL0     H22949   6.109   4.864   4.654 -3.6746 -0.3013 -0.0815
  911MOL0     H22950   6.305   5.007   4.592  1.8370 -0.2989 -3.0370
  911MOL0     H22951   6.354   5.093   4.189 -1.9003  0.5241  2.3812
  911MOL0     H22952   6.385   5.251   4.253 -0.8084  0.6251  3.8901
  911MOL0     H22953   6.586   5.029   4.249 -1.4468  0.0887 -0.4820
  911MOL0     H22954   6.594   5.181   4.167 -1.0412  2.5079  0.0199
  911MOL0     H22955   6.623   5.160   4.470  2.3329 -0.7286  0.1600
  911MOL0     H22956   6.599   5.315   4.386 -0.0307  0.5239 -0.2534
  911MOL0     H22957   6.785   5.244   4.220 -1.8404  0.5435  0.0298
  911MOL0     H22958   6.821   5.304   4.376 -0.3501  1.5330 -3.1490
  911MOL0     H22959   6.819   5.013   4.305 -0.4321 -1.6247  2.0098
  911MOL0     H22960   6.848   5.085   4.469  0.9400 -1.3569 -0.2669
  911MOL0     H22961   7.012   5.128   4.219 -0.0383 -1.4548  0.5378
  911MOL0     H22962   7.045   5.204   4.372 -1.3426 -0.0493  0.5781
  911MOL0     H22963   7.055   4.902   4.348 -0.2157  1.2437 -0.6659
  911MOL0     H22964   7.067   4.989   4.491 -2.7282 -1.4612 -0.5166
  911MOL0     H22965   7.252   5.037   4.247  1.2780 -1.7070 -0.0649
  911MOL0     H22966   7.276   4.915   4.375 -2.5010 -1.2955 -1.5520
  911MOL0     H22967   6.119   5.116   4.233  1.5966  0.5691  0.4067
  911MOL0     H22968   5.941   4.970   4.261  0.2419 -2.2310 -1.1891
  911MOL0     H22969   5.808   4.670   4.657  1.0805  0.6438 -1.7107
  911MOL0     H22970   5.653   4.505   4.773 -2.1031  0.6752  1.2448
  911MOL0     H22971   4.922   4.992   4.554 -0.2651 -1.6075 -0.3828
  911MOL0     H22972   4.771   5.066   4.342  2.3780 -3.1871  0.6882
  911MOL0     H22973   4.676   5.362   4.040 -0.1911  2.2895  1.0590
  911MOL0     H22974   4.515   5.414   3.837  2.5587  0.2690  1.2554
  911MOL0     H22975   4.136   5.229   3.828  2.8793 -0.1704  1.5719
  911MOL0     H22976   4.108   5.336   3.699  0.6042 -0.8883 -2.5753
  911MOL0     H22977   4.227   5.142   3.603 -0.0045 -0.2290 -0.1131
  911MOL0     H22978   4.359   5.179   3.721 -0.9413  1.2456  0.4277
  911MOL0     H22979   4.418   5.378   3.612  1.9791 -0.8574 -2.3074
  911MOL0     H22980   4.255   5.396   3.545 -0.2740 -1.2778  0.6903
  911MOL0     H22981   4.415   5.327   3.374  1.8415 -2.2484 -3.6809
  911MOL0     H22982   4.299   5.197   3.399  2.0341 -1.0713 -2.5488
  911MOL0     H22983   4.673   5.018   3.499 -1.0780 -1.2264 -1.0838
  911MOL0     H22984   4.190   5.264   4.061 -1.0498  0.0881  0.3754
  911MOL0     H22985   4.351   5.185   4.248  0.3349 -0.7075  0.2506
  912MOL0     O22986   1.586   7.369   4.908 -0.3362 -0.0154 -0.3531
  912MOL0     C22987   1.668   7.284   4.947  0.4810 -0.4219  0.3265
  912MOL0     O22988   1.774   7.309   5.034  0.5943 -0.1233  0.5615
  912MOL0     C22989   1.752   7.420   5.116  0.3700  0.1591 -1.0683
  912MOL0     C22990   1.649   7.425   5.208 -0.6704 -0.0948 -0.9868
  912MOL0     C22991   1.621   7.547   5.270  0.1487  0.4549 -0.1481
  912MOL0     C22992   1.698   7.662   5.257 -0.5621  0.6870  0.7305
  912MOL0     O22993   1.664   7.785   5.309  0.2355  0.2197 -1.1225
  912MOL0     C22994   1.584   7.795   5.426 -0.1442  0.1949 -0.1171
  912MOL0     C22995   1.579   7.942   5.460 -0.5416 -0.4220 -0.0112
  912MOL0     C22996   1.436   8.000   5.468  0.2152 -0.4628 -0.4376
  912MOL0     C22997   1.433   8.153   5.469 -0.4364  0.4648 -0.3324
  912MOL0     C22998   1.290   8.200   5.423 -0.2114 -0.0865 -0.5749
  912MOL0     C22999   1.253   8.202   5.273 -0.0166 -0.6589  0.4128
  912MOL0     C23000   1.160   8.319   5.247 -0.3835  0.9828  1.0234
  912MOL0     C23001   1.105   8.312   5.096  0.9051  0.1860 -0.1641
  912MOL0     N23002   1.193   8.386   5.008  0.8785  0.0737 -0.0408
  912MOL0     C23003   1.300   8.321   4.952 -0.3956  0.7419 -0.5670
  912MOL0     C23004   1.352   8.414   4.877  0.0826 -0.5282  0.0036
  912MOL0     C23005   1.472   8.376   4.795 -0.5450  0.6551 -0.3325
  912MOL0     C23006   1.419   8.323   4.664 -0.0207  1.1027  0.6280
  912MOL0     C23007   1.541   8.286   4.574 -1.2899 -0.2143 -0.1081
  912MOL0     C23008   1.502   8.187   4.467  0.7540  0.1707  0.2417
  912MOL0     O23009   1.624   8.136   4.406 -0.4066  0.7112 -0.1854
  912MOL0     C23010   1.625   8.041   4.309  0.8518  0.7327  0.6587
  912MOL0     C23011   1.745   7.964   4.302  0.0900 -0.3600 -0.4319
  912MOL0     C23012   1.761   7.861   4.215  0.1897 -1.0019  0.0442
  912MOL0     C23013   1.901   7.799   4.225  0.1183 -0.2476  0.0410
  912MOL0     C23014   1.657   7.823   4.122  0.5647  0.5624  0.8900
  912MOL0     C23015   1.662   7.711   4.016  0.0292 -0.4319  0.4397
  912MOL0     O23016   1.546   7.686   3.950  0.0098 -0.3029  0.5228
  912MOL0     C23017   1.543   7.566   3.887 -0.3373  0.9646  0.8471
  912MOL0     C23018   1.539   7.438   3.949 -0.7464 -0.2645 -0.5541
  912MOL0     C23019   1.544   7.313   3.876  0.3233 -0.6517 -0.1297
  912MOL0     C23020   1.548   7.315   3.736  0.9887  0.0643  0.1881
  912MOL0     O23021   1.555   7.217   3.645 -0.0651  0.4041 -0.0761
  912MOL0     C23022   1.493   7.092   3.680 -0.4831  0.1814  1.0180
  912MOL0     C23023   1.531   6.994   3.575 -0.6844 -0.2361 -0.5074
  912MOL0     C23024   1.497   6.847   3.628 -0.0521 -0.1987 -0.2477
  912MOL0     C23025   1.585   6.737   3.562  1.0066 -0.3367  0.1039
  912MOL0     C23026   1.562   6.607   3.646  0.1159  1.3144 -0.1909
  912MOL0     C23027   1.642   6.606   3.778 -0.5997 -0.0412  0.3755
  912MOL0     C23028   1.639   6.468   3.838  0.6070  0.2034 -0.0201
  912MOL0     C23029   1.737   6.435   3.950 -0.1758 -0.3119  0.5542
  912MOL0    Cl23030   1.909   6.503   3.915 -0.5396 -0.2597 -0.6096
  912MOL0     C23031   1.540   7.446   3.679 -0.1718  0.1995  0.7108
  912MOL0     C23032   1.546   7.564   3.745  0.2151 -0.1965 -0.1393
  912MOL0     O23033   1.775   7.670   3.985 -0.2978 -0.0071  0.1760
  912MOL0     C23034   1.530   7.891   4.140  0.2277 -0.2592  0.0976
  912MOL0     C23035   1.510   7.998   4.234  0.1280 -0.2010 -0.3063
  912MOL0     N23036   1.273   8.533   4.878  0.2343 -0.4855 -0.6860
  912MOL0     N23037   1.186   8.518   4.974  0.1800  0.3087  0.0733
  912MOL0     C23038   1.806   7.656   5.160 -0.1345  0.0615  0.5048
  912MOL0     C23039   1.829   7.540   5.089  0.7039 -0.2882 -0.3484
  912MOL0     C23040   1.663   7.162   4.870 -0.5882  0.4930  0.0268
  912MOL0     C23041   1.553   7.127   4.804  0.1861  0.3233 -0.0084
  912MOL0     C23042   1.533   7.003   4.727 -0.3994 -0.6100 -0.3702
  912MOL0     C23043   1.641   6.917   4.724 -2.2873 -0.4979 -0.1113
  912MOL0     O23044   1.630   6.796   4.661  0.9454 -1.1018  0.7610
  912MOL0     C23045   1.684   6.680   4.714  0.7464 -0.0605  0.3725
  912MOL0     C23046   1.827   6.625   4.671  0.7918 -0.3698 -0.3035
  912MOL0     C23047   1.885   6.532   4.775 -0.7137 -0.2541  0.3143
  912MOL0     C23048   1.910   6.592   4.914  0.1530 -0.8352  0.0123
  912MOL0     C23049   2.008   6.701   4.912 -0.8920 -0.1603 -1.1873
  912MOL0     C23050   2.085   6.796   4.917 -0.3236  0.9563  0.8145
  912MOL0     C23051   1.764   6.964   4.782  0.6025  0.2555  0.2622
  912MOL0     C23052   1.773   7.077   4.864 -0.1857  0.9552  0.2851
  912MOL0     H23053   1.598   7.338   5.248  1.3074  0.6925  3.9521
  912MOL0     H23054   1.544   7.546   5.346  0.6440  2.2714  0.4104
  912MOL0     H23055   1.492   7.745   5.393  0.6973  0.1281 -2.6008
  912MOL0     H23056   1.627   7.732   5.503 -0.1019 -0.1492 -0.4190
  912MOL0     H23057   1.640   7.958   5.549  0.2764 -0.6893 -0.5095
  912MOL0     H23058   1.630   7.999   5.382  0.3837 -1.8576 -0.4980
  912MOL0     H23059   1.370   7.973   5.385 -0.7256  0.3724  0.0123
  912MOL0     H23060   1.393   7.962   5.561  0.8707 -0.7035 -0.2316
  912MOL0     H23061   1.445   8.186   5.573 -3.1823 -3.3272  1.3990
  912MOL0     H23062   1.516   8.189   5.407 -1.9689  1.1369 -2.0667
  912MOL0     H23063   1.209   8.160   5.486  0.5290 -1.5721 -0.5194
  912MOL0     H23064   1.292   8.305   5.453 -0.4930 -0.6613  1.6110
  912MOL0     H23065   1.343   8.205   5.211  1.6425 -1.0050  2.6527
  912MOL0     H23066   1.208   8.110   5.234 -0.7486  0.7112 -2.2128
  912MOL0     H23067   1.069   8.312   5.307 -1.7609  0.3405 -1.0269
  912MOL0     H23068   1.216   8.409   5.274 -0.1360  0.2902  2.9456
  912MOL0     H23069   1.009   8.364   5.093  1.5793  1.5012  0.0466
  912MOL0     H23070   1.093   8.207   5.068 -4.7865  0.8428 -1.3404
  912MOL0     H23071   1.330   8.217   4.964  2.2568  0.9595 -3.7289
  912MOL0     H23072   1.544   8.456   4.778 -0.9549  2.2530  4.1026
  912MOL0     H23073   1.519   8.291   4.846 -1.4679  0.8024  0.8329
  912MOL0     H23074   1.362   8.397   4.607 -1.5170 -0.0723  0.5127
  912MOL0     H23075   1.357   8.234   4.678  2.5509 -1.3553 -2.1655
  912MOL0     H23076   1.616   8.235   4.636 -1.4155  0.0030  0.2219
  912MOL0     H23077   1.597   8.365   4.524 -0.1281 -1.5423 -0.9837
  912MOL0     H23078   1.447   8.246   4.392  0.8349  0.9720  0.8016
  912MOL0     H23079   1.444   8.103   4.506  1.0301  1.0937  2.8096
  912MOL0     H23080   1.821   7.991   4.374 -1.4405 -2.2713  2.0851
  912MOL0     H23081   1.880   7.692   4.215 -1.9437  0.0978  0.4417
  912MOL0     H23082   1.964   7.837   4.144 -2.6947  1.9263 -1.2942
  912MOL0     H23083   1.957   7.829   4.314  0.3899  3.9471 -1.3160
  912MOL0     H23084   1.531   7.429   4.057 -2.3306  0.3155 -0.5955
  912MOL0     H23085   1.556   7.216   3.923  3.5892  0.2101  1.0902
  912MOL0     H23086   1.537   7.059   3.774 -0.5599  2.5089  1.9373
  912MOL0     H23087   1.385   7.106   3.687 -0.6481  3.2196 -3.1861
  912MOL0     H23088   1.499   7.030   3.477  2.9750  0.2731 -1.6699
  912MOL0     H23089   1.639   7.003   3.565 -0.6747  1.4708  0.6615
  912MOL0     H23090   1.389   6.831   3.618 -0.4173  1.3058  1.0002
  912MOL0     H23091   1.514   6.849   3.736 -0.2142 -2.0600 -0.1508
  912MOL0     H23092   1.533   6.734   3.466  0.0380  0.9709  0.5532
  912MOL0     H23093   1.691   6.758   3.546  1.9952 -2.3949  3.0767
  912MOL0     H23094   1.591   6.522   3.585 -0.4705  0.4214  0.7457
  912MOL0     H23095   1.455   6.603   3.670 -0.3045 -1.3155 -2.1019
  912MOL0     H23096   1.744   6.628   3.747 -1.1975 -0.7866 -2.4253
  912MOL0     H23097   1.610   6.678   3.854  1.8613 -2.1667  3.6788
  912MOL0     H23098   1.665   6.404   3.753 -0.4371  4.3879 -3.9279
  912MOL0     H23099   1.539   6.452   3.878  0.5812  0.7258  0.1312
  912MOL0     H23100   1.742   6.326   3.956 -1.3915 -0.3306  1.7849
  912MOL0     H23101   1.695   6.471   4.044 -0.5353  2.2155 -0.4966
  912MOL0     H23102   1.536   7.458   3.571 -0.6625  0.0199  0.7054
  912MOL0     H23103   1.553   7.658   3.692 -4.9624  0.0385 -0.9178
  912MOL0     H23104   1.449   7.874   4.069  2.0080  1.3525 -2.4827
  912MOL0     H23105   1.418   8.054   4.229 -0.3334 -1.0417 -1.8628
  912MOL0     H23106   1.848   7.753   5.136 -2.3837  1.0728  0.3445
  912MOL0     H23107   1.897   7.545   5.005 -0.4929  0.3271 -1.3140
  912MOL0     H23108   1.485   7.212   4.793  2.3125  2.0531 -0.5398
  912MOL0     H23109   1.449   6.987   4.661 -0.8611 -2.5729  0.6269
  912MOL0     H23110   1.697   6.708   4.819 -0.0992  4.3270 -0.4928
  912MOL0     H23111   1.610   6.600   4.718  2.3157 -1.5568  0.7052
  912MOL0     H23112   1.896   6.709   4.661  2.1799 -1.6234 -1.7437
  912MOL0     H23113   1.814   6.566   4.579 -0.1134 -2.3767  1.0400
  912MOL0     H23114   1.976   6.486   4.736 -0.9114 -1.7847  1.5739
  912MOL0     H23115   1.809   6.455   4.787 -1.4837 -0.0689 -2.6814
  912MOL0     H23116   1.943   6.515   4.985  0.8396  0.3051  0.9570
  912MOL0     H23117   1.815   6.622   4.958 -0.2096 -0.7057 -0.8314
  912MOL0     H23118   2.139   6.888   4.909  1.5589 -0.2540 -1.8681
  912MOL0     H23119   1.858   6.909   4.775  0.9581  0.7479  1.0278
  912MOL0     H23120   1.864   7.105   4.915  0.8137 -0.6281 -0.5597
  913MOL0     O23121   9.668   2.116  11.293  0.1893  0.1956 -0.3343
  913MOL0     C23122   9.563   2.146  11.227  0.6944  0.5948 -0.4292
  913MOL0     O23123   9.452   2.074  11.207  0.1498  0.2248 -0.2560
  913MOL0     C23124   9.460   1.951  11.260 -0.4853  0.5245  0.4004
  913MOL0     C23125   9.567   1.862  11.225 -0.7296  0.5419 -0.3259
  913MOL0     C23126   9.586   1.747  11.306  0.5584 -0.8244 -0.2893
  913MOL0     C23127   9.488   1.715  11.407  0.4981 -0.3053  0.5818
  913MOL0     O23128   9.509   1.601  11.481 -0.0825 -0.3272 -0.1481
  913MOL0     C23129   9.642   1.570  11.526 -0.6612  0.5604  0.1926
  913MOL0     C23130   9.692   1.666  11.628 -0.4403 -1.0492 -1.7077
  913MOL0     C23131   9.711   1.604  11.766  0.5191  1.1358  1.1094
  913MOL0     C23132   9.603   1.638  11.865  0.4102 -0.2359  0.9046
  913MOL0     C23133   9.612   1.550  11.992 -0.6452 -0.0739  0.1529
  913MOL0     C23134   9.500   1.592  12.094 -0.5230  0.4257  0.4132
  913MOL0     C23135   9.510   1.534  12.238 -0.4529  0.7615  0.6417
  913MOL0     C23136   9.604   1.608  12.342  0.1616  0.0746 -0.0952
  913MOL0     N23137   9.612   1.531  12.468 -0.0948 -0.6171  0.5357
  913MOL0     C23138   9.532   1.549  12.580  0.7286  0.2268  0.7068
  913MOL0     C23139   9.581   1.454  12.658  0.9142 -0.7057 -0.2392
  913MOL0     C23140   9.530   1.410  12.793  0.1254 -0.5768 -0.6651
  913MOL0     C23141   9.598   1.502  12.902  0.5214  0.3469 -0.3819
  913MOL0     C23142   9.559   1.436  13.035  0.4654 -0.7317 -0.3363
  913MOL0     C23143   9.663   1.485  13.149  0.7463  0.4694  0.1709
  913MOL0     O23144   9.622   1.426  13.272  0.2530 -0.6251 -0.1950
  913MOL0     C23145   9.513   1.465  13.338  0.9984  0.7130  0.5148
  913MOL0     C23146   9.471   1.593  13.361 -0.2352 -0.0349 -0.1347
  913MOL0     C23147   9.357   1.631  13.442  0.3206 -0.3152  0.1195
  913MOL0     C23148   9.335   1.780  13.460  0.0164  0.8295 -0.9639
  913MOL0     C23149   9.288   1.531  13.511 -0.6082  0.4956 -0.1647
  913MOL0     C23150   9.173   1.545  13.602 -0.2264 -0.2866 -0.6198
  913MOL0     O23151   9.114   1.428  13.638 -0.9262  0.8752 -0.4173
  913MOL0     C23152   9.021   1.417  13.736  0.4260 -0.4465 -0.1046
  913MOL0     C23153   8.973   1.289  13.750 -0.1820  0.8733  0.5274
  913MOL0     C23154   8.876   1.255  13.845 -0.4311 -0.1272  0.5699
  913MOL0     C23155   8.818   1.363  13.919 -0.9477  0.6314  0.1621
  913MOL0     O23156   8.705   1.353  13.995  0.2584  0.1308  0.2832
  913MOL0     C23157   8.598   1.270  13.952 -0.1896 -0.5976  0.5646
  913MOL0     C23158   8.468   1.342  13.979 -0.2037 -0.4284  0.8400
  913MOL0     C23159   8.347   1.249  13.947  0.3452  0.3901 -0.4970
  913MOL0     C23160   8.208   1.313  13.962  0.3671  0.3306 -0.0363
  913MOL0     C23161   8.093   1.216  13.960  0.4719 -0.6256 -0.4829
  913MOL0     C23162   7.962   1.292  13.978 -0.4275  0.7515  0.3965
  913MOL0     C23163   7.841   1.189  13.995 -0.5265  0.7593  0.2589
  913MOL0     C23164   7.724   1.266  14.049  0.0474 -1.1594 -1.1383
  913MOL0    Cl23165   7.576   1.176  14.052  0.3357 -0.0210  0.9849
  913MOL0     C23166   8.871   1.488  13.906  0.0655  0.7775 -0.4509
  913MOL0     C23167   8.969   1.527  13.816 -0.4498  0.5195  0.6638
  913MOL0     O23168   9.144   1.658  13.640 -0.6451 -0.5674 -0.3361
  913MOL0     C23169   9.331   1.403  13.484  0.6288  0.3473  1.1314
  913MOL0     C23170   9.443   1.362  13.401  1.2893  0.7400 -0.0633
  913MOL0     N23171   9.672   1.388  12.585 -0.2870 -0.0917 -0.1095
  913MOL0     N23172   9.698   1.436  12.478  0.4301  0.3421 -0.3294
  913MOL0     C23173   9.366   1.791  11.426 -0.3492  0.6035 -0.4494
  913MOL0     C23174   9.358   1.911  11.347  0.1069 -0.1854 -0.5798
  913MOL0     C23175   9.551   2.276  11.172 -0.9342 -1.1218  0.5895
  913MOL0     C23176   9.448   2.322  11.085 -0.4318 -0.7310  0.7363
  913MOL0     C23177   9.439   2.454  11.056 -0.4302 -0.7776 -0.5358
  913MOL0     C23178   9.532   2.554  11.105  0.9989 -0.5509 -0.6300
  913MOL0     O23179   9.499   2.687  11.091 -0.6423  0.2040  1.0796
  913MOL0     C23180   9.583   2.791  11.153 -0.4943 -0.2156  0.8490
  913MOL0     C23181   9.503   2.928  11.144  0.1280 -0.4102 -0.1164
  913MOL0     C23182   9.370   2.931  11.203  0.1130 -0.0794 -0.5270
  913MOL0     C23183   9.351   2.842  11.326 -0.4212 -0.3168 -0.4201
  913MOL0     C23184   9.449   2.885  11.431  0.7409 -0.3484 -0.1146
  913MOL0     C23185   9.535   2.905  11.509 -0.2211  0.1487 -0.1288
  913MOL0     C23186   9.651   2.505  11.169  0.6576  0.2548  1.4499
  913MOL0     C23187   9.655   2.368  11.196  0.3680 -0.2125 -0.7175
  913MOL0     H23188   9.647   1.900  11.162  2.6145 -0.9730  2.6491
  913MOL0     H23189   9.662   1.674  11.282  1.9479  0.5730 -0.2556
  913MOL0     H23190   9.644   1.468  11.563 -1.6672  0.7091  0.6741
  913MOL0     H23191   9.724   1.566  11.453  1.3075  2.6626  2.1223
  913MOL0     H23192   9.787   1.704  11.587  0.3473 -1.8803 -0.6883
  913MOL0     H23193   9.625   1.751  11.642  0.4314 -0.4914 -0.8141
  913MOL0     H23194   9.701   1.496  11.751  0.8132  1.3218 -0.6937
  913MOL0     H23195   9.805   1.635  11.812  2.1350 -1.4628 -0.2430
  913MOL0     H23196   9.622   1.742  11.891  1.3731 -0.0301 -0.4887
  913MOL0     H23197   9.503   1.635  11.822  1.4279  1.3990 -1.8176
  913MOL0     H23198   9.590   1.445  11.970  0.5830 -0.5060  0.8856
  913MOL0     H23199   9.711   1.558  12.037 -0.7445 -0.4557  0.4479
  913MOL0     H23200   9.502   1.700  12.109 -2.2931  0.1932  3.0539
  913MOL0     H23201   9.402   1.570  12.051 -1.3436  1.3384  1.7309
  913MOL0     H23202   9.405   1.533  12.269 -0.9684 -1.1716 -0.9372
  913MOL0     H23203   9.538   1.428  12.233 -2.5864 -0.1001  3.9605
  913MOL0     H23204   9.558   1.704  12.367 -1.3530  0.3041 -3.2028
  913MOL0     H23205   9.702   1.623  12.297 -0.4371  2.0551 -0.8640
  913MOL0     H23206   9.444   1.612  12.586  0.9839  0.5249  1.4240
  913MOL0     H23207   9.423   1.430  12.802  0.0978 -0.7638 -0.5484
  913MOL0     H23208   9.560   1.305  12.804  0.4085 -0.5255 -0.9490
  913MOL0     H23209   9.567   1.606  12.912 -0.5638 -0.0985  1.3726
  913MOL0     H23210   9.706   1.493  12.890  0.5232  0.7656 -0.6700
  913MOL0     H23211   9.569   1.328  13.034  1.0917 -0.6801 -0.1867
  913MOL0     H23212   9.456   1.461  13.062  0.7638  1.0607 -0.7030
  913MOL0     H23213   9.672   1.594  13.158  3.0840  0.5642 -2.0972
  913MOL0     H23214   9.761   1.450  13.115  0.6871  1.4058 -1.0432
  913MOL0     H23215   9.513   1.675  13.303  2.4041 -1.1041  0.1071
  913MOL0     H23216   9.385   1.836  13.380  4.1683 -3.2104 -1.5759
  913MOL0     H23217   9.228   1.784  13.435 -0.5019 -3.9775 -0.3463
  913MOL0     H23218   9.346   1.809  13.564 -1.8037 -1.1589 -0.1367
  913MOL0     H23219   9.003   1.206  13.687 -3.5417  0.7346 -1.1451
  913MOL0     H23220   8.836   1.155  13.855  1.9319 -1.3057 -0.9346
  913MOL0     H23221   8.603   1.258  13.843  1.6414  1.4537  0.3492
  913MOL0     H23222   8.599   1.169  13.993  0.4563 -1.1617 -0.7704
  913MOL0     H23223   8.467   1.375  14.083  2.6952  3.5543 -0.1693
  913MOL0     H23224   8.474   1.425  13.907  1.7741 -1.8219 -0.7179
  913MOL0     H23225   8.349   1.151  13.996 -0.3803 -0.5108 -2.1607
  913MOL0     H23226   8.368   1.219  13.844  0.8773  1.3897 -0.6954
  913MOL0     H23227   8.199   1.375  14.052  0.4338  0.3524 -0.0444
  913MOL0     H23228   8.182   1.384  13.883 -5.0007 -0.3828  0.7146
  913MOL0     H23229   8.097   1.144  14.043 -1.5264 -1.5542 -1.1060
  913MOL0     H23230   8.106   1.152  13.872  1.9839  0.0696 -0.7907
  913MOL0     H23231   7.976   1.365  14.059  0.3960  2.4056 -1.1661
  913MOL0     H23232   7.952   1.352  13.887 -1.6488  1.6242  1.0734
  913MOL0     H23233   7.854   1.100  14.056 -1.5669  0.3368 -0.1133
  913MOL0     H23234   7.824   1.145  13.896  0.9149  1.8180 -0.5129
  913MOL0     H23235   7.703   1.367  14.012 -2.2586 -0.1637  2.3290
  913MOL0     H23236   7.734   1.283  14.157  0.0288  0.9658 -1.4206
  913MOL0     H23237   8.832   1.558  13.979  0.6889 -1.7846  2.5482
  913MOL0     H23238   8.997   1.632  13.812 -1.3224  0.7366  0.1377
  913MOL0     H23239   9.279   1.324  13.537  1.8068 -2.1205 -1.1532
  913MOL0     H23240   9.473   1.261  13.376 -2.1331 -0.3510 -0.2791
  913MOL0     H23241   9.309   1.756  11.512  0.2755  0.8051  0.0526
  913MOL0     H23242   9.276   1.977  11.376  0.7591  0.8301 -0.9637
  913MOL0     H23243   9.362   2.265  11.053  0.2385 -0.8802 -0.9064
  913MOL0     H23244   9.352   2.481  10.998  1.5202  0.6702 -2.9669
  913MOL0     H23245   9.604   2.764  11.257  1.2030 -1.3915  0.2589
  913MOL0     H23246   9.680   2.786  11.102  0.3207 -2.9345  2.4417
  913MOL0     H23247   9.501   2.958  11.038 -1.7295  3.3764  0.8380
  913MOL0     H23248   9.576   3.003  11.178  3.2975 -0.9860 -4.6981
  913MOL0     H23249   9.296   2.900  11.129  1.4592 -2.3287 -1.0190
  913MOL0     H23250   9.361   3.036  11.232  0.9667  0.6551 -2.7265
  913MOL0     H23251   9.360   2.737  11.294  2.5359 -1.0256  2.2387
  913MOL0     H23252   9.250   2.855  11.365 -0.2701 -1.0266  0.2157
  913MOL0     H23253   9.619   2.905  11.576 -0.8187  0.5322  0.6276
  913MOL0     H23254   9.733   2.563  11.211 -0.2004  2.5336  0.1372
  913MOL0     H23255   9.744   2.336  11.250  0.0547  0.4365  0.2001
  914MOL0     O23256   0.656   8.571   7.715  0.0781 -0.3946  0.3467
  914MOL0     C23257   0.566   8.503   7.656  0.2183  0.6003  0.2087
  914MOL0     O23258   0.475   8.430   7.715 -0.2779  0.0690  0.9182
  914MOL0     C23259   0.494   8.408   7.848 -0.7109 -1.1355 -0.0727
  914MOL0     C23260   0.418   8.478   7.945  0.1028 -0.4609  0.3869
  914MOL0     C23261   0.432   8.453   8.083  0.6081  0.3140 -0.2900
  914MOL0     C23262   0.523   8.363   8.136 -1.1253  1.0962  0.1365
  914MOL0     O23263   0.545   8.346   8.271 -0.0259  0.0993 -0.6531
  914MOL0     C23264   0.626   8.240   8.319 -0.0487 -0.3071 -0.0406
  914MOL0     C23265   0.541   8.115   8.334  0.9069 -0.2277 -0.1817
  914MOL0     C23266   0.597   8.024   8.440 -0.7226 -0.0766  0.0338
  914MOL0     C23267   0.642   7.886   8.381 -0.7790  0.9650  0.1136
  914MOL0     C23268   0.750   7.894   8.266  0.2465  0.3946 -1.1451
  914MOL0     C23269   0.877   7.961   8.309 -0.7635 -0.1102  0.4330
  914MOL0     C23270   0.981   7.947   8.198 -0.7414  0.0073  0.1366
  914MOL0     C23271   1.103   8.024   8.235  0.2229  0.4942 -0.3051
  914MOL0     N23272   1.223   7.965   8.169  0.3968  0.2560  0.6932
  914MOL0     C23273   1.268   7.980   8.038  0.2551 -0.2904 -0.1671
  914MOL0     C23274   1.390   7.923   8.037  1.0731 -0.7136  0.0507
  914MOL0     C23275   1.480   7.897   7.917  0.7398  0.0605 -0.3906
  914MOL0     C23276   1.486   7.754   7.873  0.1184  0.1736 -0.3757
  914MOL0     C23277   1.525   7.749   7.723 -0.6082 -0.1193  0.7449
  914MOL0     C23278   1.570   7.607   7.691  0.0833  0.4588  0.6452
  914MOL0     O23279   1.606   7.615   7.551 -0.3693  0.2389 -0.2364
  914MOL0     C23280   1.627   7.509   7.467  0.2519 -0.0427  0.4535
  914MOL0     C23281   1.589   7.381   7.490 -0.0884 -0.0649  0.8652
  914MOL0     C23282   1.638   7.271   7.410 -0.7732 -0.5055 -0.4567
  914MOL0     C23283   1.593   7.132   7.460  0.2862 -0.1311  0.3209
  914MOL0     C23284   1.723   7.298   7.299  1.2849  0.3042  0.0055
  914MOL0     C23285   1.775   7.181   7.226 -0.0832  0.0637  0.1519
  914MOL0     O23286   1.807   7.210   7.096  0.3871 -0.5986  0.8505
  914MOL0     C23287   1.859   7.106   7.017  0.4183 -0.0888 -0.4068
  914MOL0     C23288   1.762   7.033   6.934  0.1323 -0.6919  0.2953
  914MOL0     C23289   1.799   6.945   6.834  0.1206 -0.4365  0.4602
  914MOL0     C23290   1.939   6.930   6.817  1.0100 -0.2471 -0.5835
  914MOL0     O23291   1.972   6.838   6.723 -0.1815  0.2677 -0.1109
  914MOL0     C23292   2.090   6.757   6.748 -0.2659  0.2416 -0.7789
  914MOL0     C23293   2.073   6.668   6.877  0.1564 -0.0880 -0.0513
  914MOL0     C23294   2.208   6.604   6.920 -0.0900 -0.0230 -1.1046
  914MOL0     C23295   2.205   6.519   7.042  0.2868 -0.2503  1.0030
  914MOL0     C23296   2.319   6.419   7.066  0.5985 -0.4260 -0.8966
  914MOL0     C23297   2.427   6.483   7.147 -0.6892  0.1743  0.1473
  914MOL0     C23298   2.509   6.604   7.084 -0.2832  0.0594  0.2414
  914MOL0     C23299   2.649   6.641   7.141  0.6317  0.3529  0.6835
  914MOL0    Cl23300   2.630   6.671   7.313 -0.0754  0.0216 -0.1225
  914MOL0     C23301   2.037   6.992   6.900  0.1578 -0.5413 -0.9172
  914MOL0     C23302   1.992   7.085   6.995  0.5892  0.5639  0.3700
  914MOL0     O23303   1.794   7.076   7.286  0.5001  0.1096 -0.0971
  914MOL0     C23304   1.754   7.435   7.265  1.1013  0.4418  0.4395
  914MOL0     C23305   1.707   7.539   7.352  0.0936  0.4783 -0.0366
  914MOL0     N23306   1.416   7.857   8.165  0.7765  0.2050 -0.0360
  914MOL0     N23307   1.322   7.901   8.233 -0.1941  0.4138 -0.3066
  914MOL0     C23308   0.593   8.289   8.038 -0.6912  0.6546 -0.1122
  914MOL0     C23309   0.579   8.312   7.897 -0.8324 -0.1839 -1.0974
  914MOL0     C23310   0.559   8.519   7.506  1.0474 -0.2521 -0.1223
  914MOL0     C23311   0.596   8.640   7.456  0.3863 -0.7899  0.2950
  914MOL0     C23312   0.587   8.674   7.317 -0.5258 -0.4586 -0.1366
  914MOL0     C23313   0.537   8.580   7.223  0.2607 -0.1341 -0.5374
  914MOL0     O23314   0.539   8.604   7.085  0.4275  0.2395 -0.7271
  914MOL0     C23315   0.575   8.741   7.040  0.1832 -0.4432  0.5623
  914MOL0     C23316   0.523   8.736   6.893 -0.5697 -0.4735  0.0811
  914MOL0     C23317   0.512   8.878   6.847 -0.4832  0.0376  1.3237
  914MOL0     C23318   0.443   8.904   6.712  0.1442  0.6646  0.1965
  914MOL0     C23319   0.318   8.834   6.689  0.5613  0.1233 -0.4372
  914MOL0     C23320   0.214   8.776   6.661 -0.3342 -0.0364 -0.2748
  914MOL0     C23321   0.484   8.459   7.279  0.0434  0.1224  0.4616
  914MOL0     C23322   0.500   8.430   7.421  0.0614 -0.0076 -0.6419
  914MOL0     H23323   0.349   8.555   7.913  1.6187  0.9086  0.2505
  914MOL0     H23324   0.382   8.515   8.157  0.1573 -0.2463 -0.1202
  914MOL0     H23325   0.726   8.236   8.276  2.1138  1.1506  4.2731
  914MOL0     H23326   0.644   8.277   8.421  1.7372 -1.1974  0.0038
  914MOL0     H23327   0.449   8.147   8.384  1.7400 -0.9521  1.9037
  914MOL0     H23328   0.531   8.061   8.239  0.2166 -2.9379  1.3064
  914MOL0     H23329   0.680   8.075   8.488  0.0534  1.2600 -2.5246
  914MOL0     H23330   0.512   8.003   8.506 -1.2081 -0.8029 -0.8087
  914MOL0     H23331   0.676   7.820   8.461  1.4973  1.1469 -0.6200
  914MOL0     H23332   0.552   7.835   8.348 -0.1987  0.0537 -0.0860
  914MOL0     H23333   0.774   7.793   8.233  0.6192 -0.7157  2.2555
  914MOL0     H23334   0.717   7.952   8.178 -0.5411 -2.1938 -2.6798
  914MOL0     H23335   0.856   8.066   8.329 -2.8936 -0.5651  0.7736
  914MOL0     H23336   0.924   7.919   8.398  1.1661  2.6329  0.8287
  914MOL0     H23337   1.004   7.841   8.189 -0.1193  0.2193 -0.8481
  914MOL0     H23338   0.941   7.976   8.101 -1.0982  1.2368  0.6273
  914MOL0     H23339   1.124   8.024   8.342 -1.3241  2.0484  0.0534
  914MOL0     H23340   1.082   8.126   8.201  2.1117  0.3786 -2.0182
  914MOL0     H23341   1.224   8.037   7.957  2.3135 -2.7866 -3.3009
  914MOL0     H23342   1.471   7.976   7.842 -0.1913  0.2373 -0.1109
  914MOL0     H23343   1.580   7.915   7.959  2.1223 -2.4443 -2.3542
  914MOL0     H23344   1.388   7.707   7.883  1.9859 -3.7592  1.8836
  914MOL0     H23345   1.545   7.690   7.939 -2.3472 -2.9692 -0.9506
  914MOL0     H23346   1.598   7.828   7.702 -2.7998  3.2943  4.3490
  914MOL0     H23347   1.432   7.773   7.670 -0.7236 -0.6135  0.7234
  914MOL0     H23348   1.490   7.537   7.719  0.0567  0.6597  1.0780
  914MOL0     H23349   1.659   7.576   7.745 -0.6592  0.6922  2.0517
  914MOL0     H23350   1.535   7.358   7.581 -0.2582  1.0897  1.0706
  914MOL0     H23351   1.520   7.150   7.540 -3.8261  1.0535 -3.3339
  914MOL0     H23352   1.537   7.081   7.381 -0.9679  0.8866  0.5221
  914MOL0     H23353   1.678   7.072   7.492 -0.1588 -2.2151 -2.0661
  914MOL0     H23354   1.656   7.049   6.953  0.5152  1.3915  1.0134
  914MOL0     H23355   1.734   6.889   6.767 -0.4205  0.6450  0.0525
  914MOL0     H23356   2.104   6.692   6.660 -3.8115 -2.7658  0.6166
  914MOL0     H23357   2.181   6.815   6.766 -0.4553 -0.0195  1.2727
  914MOL0     H23358   2.037   6.726   6.962 -1.4340 -0.9682 -0.0872
  914MOL0     H23359   1.999   6.593   6.848 -2.0614  1.5566  1.0861
  914MOL0     H23360   2.285   6.679   6.941 -1.2327  0.9638 -0.3138
  914MOL0     H23361   2.247   6.535   6.845  0.0997 -0.4276 -0.6348
  914MOL0     H23362   2.180   6.587   7.125 -0.1549  0.1638  0.5394
  914MOL0     H23363   2.114   6.459   7.044 -2.4793  3.5582  0.9511
  914MOL0     H23364   2.359   6.370   6.977  4.7559  1.2722 -0.1559
  914MOL0     H23365   2.275   6.342   7.130 -1.1030  0.9670 -0.3174
  914MOL0     H23366   2.385   6.523   7.239  2.9098  2.9433  0.7671
  914MOL0     H23367   2.498   6.403   7.170 -1.6874 -0.7556  0.0954
  914MOL0     H23368   2.449   6.695   7.098 -1.5993 -0.1782 -3.0264
  914MOL0     H23369   2.530   6.587   6.978  2.9678  0.8480  0.6702
  914MOL0     H23370   2.673   6.735   7.090 -1.2111 -0.2039 -1.4136
  914MOL0     H23371   2.723   6.563   7.117  0.9955  0.6257  0.9158
  914MOL0     H23372   2.144   6.979   6.890 -0.2725 -3.4531 -2.5825
  914MOL0     H23373   2.064   7.123   7.068  2.3016 -1.7107 -0.0291
  914MOL0     H23374   1.814   7.454   7.176  0.8040  0.2784  0.2014
  914MOL0     H23375   1.725   7.646   7.349 -2.3241  0.9289 -0.1791
  914MOL0     H23376   0.673   8.218   8.054  0.5743  1.6838 -1.5843
  914MOL0     H23377   0.638   8.253   7.827 -0.2019  3.2074 -3.6395
  914MOL0     H23378   0.628   8.720   7.522 -0.7524 -0.7158  0.7783
  914MOL0     H23379   0.628   8.773   7.296 -0.3367 -0.3518  0.7147
  914MOL0     H23380   0.528   8.824   7.093  2.5765  1.1391  0.3745
  914MOL0     H23381   0.683   8.761   7.047  0.7240 -2.5624 -0.6582
  914MOL0     H23382   0.422   8.694   6.898 -0.2695 -1.0475  2.5541
  914MOL0     H23383   0.593   8.679   6.832  0.9567  3.7680 -2.5395
  914MOL0     H23384   0.612   8.919   6.831 -1.0120  0.8831 -0.0330
  914MOL0     H23385   0.453   8.942   6.913 -3.1472 -0.7175 -0.1351
  914MOL0     H23386   0.500   8.856   6.633 -1.3558  0.3149 -0.7084
  914MOL0     H23387   0.433   9.009   6.683 -5.0946 -0.5011 -3.6754
  914MOL0     H23388   0.121   8.734   6.628 -0.6119  0.0477  0.3688
  914MOL0     H23389   0.439   8.384   7.216  1.3248  0.7887 -1.3381
  914MOL0     H23390   0.459   8.335   7.453 -2.6156  0.6020 -2.0113
  915MOL0     O23391   1.631   1.602   5.173 -0.1210 -0.1006 -0.0434
  915MOL0     C23392   1.743   1.578   5.212 -1.3145  0.8519  0.9986
  915MOL0     O23393   1.777   1.475   5.297  0.1870  0.3063 -0.2523
  915MOL0     C23394   1.692   1.426   5.393  0.0079  0.2708 -0.3684
  915MOL0     C23395   1.756   1.358   5.493  0.3557  1.2940  0.2385
  915MOL0     C23396   1.684   1.306   5.602  0.8404  0.4320  0.9158
  915MOL0     C23397   1.547   1.312   5.613  0.3119  0.4059  1.3658
  915MOL0     O23398   1.491   1.253   5.723 -0.2798 -0.9279 -0.4888
  915MOL0     C23399   1.344   1.262   5.751 -0.0569  0.2724 -0.2595
  915MOL0     C23400   1.324   1.232   5.899 -0.5045  0.1959  0.4579
  915MOL0     C23401   1.389   1.338   5.987 -0.7892  0.8826  0.2972
  915MOL0     C23402   1.341   1.318   6.133 -0.4812 -0.8492  0.5631
  915MOL0     C23403   1.394   1.437   6.233 -0.2816 -1.0423  0.6389
  915MOL0     C23404   1.539   1.404   6.269  0.4411  0.7840 -0.6695
  915MOL0     C23405   1.588   1.490   6.393  0.2826  1.0372  0.3475
  915MOL0     C23406   1.501   1.493   6.505 -0.0685 -0.5237 -0.9698
  915MOL0     N23407   1.578   1.566   6.612 -0.4003  0.8712  1.2663
  915MOL0     C23408   1.705   1.546   6.655 -0.5392 -0.5290 -0.0467
  915MOL0     C23409   1.720   1.629   6.753 -0.0975  0.2179 -0.6830
  915MOL0     C23410   1.851   1.636   6.827 -0.7336  0.2086  0.3843
  915MOL0     C23411   1.978   1.658   6.734 -0.1614 -0.3301 -0.1026
  915MOL0     C23412   1.956   1.757   6.617  0.2040  0.0432  0.2878
  915MOL0     C23413   2.091   1.824   6.599 -0.3557 -0.6225  0.3252
  915MOL0     O23414   2.079   1.936   6.506 -0.1035 -0.0608 -0.7181
  915MOL0     C23415   2.060   1.915   6.373 -0.1784 -0.0336  0.4826
  915MOL0     C23416   2.168   1.874   6.303 -0.2229  0.3484  0.4925
  915MOL0     C23417   2.170   1.887   6.158  0.7173 -0.1231 -0.5237
  915MOL0     C23418   2.296   1.838   6.089  1.0323  0.0121 -0.7138
  915MOL0     C23419   2.049   1.937   6.083 -0.4944  1.2566  0.5167
  915MOL0     C23420   2.039   1.939   5.937  1.3347  0.0316  0.5431
  915MOL0     O23421   1.908   1.986   5.898  0.3268  0.1841  0.0903
  915MOL0     C23422   1.877   1.998   5.761 -0.1191 -0.2376 -0.6361
  915MOL0     C23423   1.946   1.943   5.643  0.0242 -0.5800  0.7221
  915MOL0     C23424   1.894   1.978   5.517  0.0988  0.3542 -0.1603
  915MOL0     C23425   1.777   2.052   5.507  0.3937  0.1542  0.3106
  915MOL0     O23426   1.723   2.095   5.381 -0.7166 -0.4532  0.1109
  915MOL0     C23427   1.805   2.158   5.285  0.0649  0.3676  0.3863
  915MOL0     C23428   1.713   2.172   5.160 -0.5618 -0.1989 -0.4113
  915MOL0     C23429   1.643   2.033   5.139 -0.5649  0.1356 -1.0184
  915MOL0     C23430   1.582   2.040   5.005 -0.2367  0.6898  0.6250
  915MOL0     C23431   1.516   1.903   4.964  0.4742 -0.1833  0.8079
  915MOL0     C23432   1.488   1.907   4.802 -0.4283  0.4838 -0.7299
  915MOL0     C23433   1.417   1.772   4.744  0.0795 -0.4909 -0.4816
  915MOL0     C23434   1.349   1.792   4.604  0.6302 -0.3285  0.0426
  915MOL0    Cl23435   1.473   1.810   4.480  0.4068 -0.4001 -0.0677
  915MOL0     C23436   1.708   2.082   5.624 -0.4263  0.4859 -0.3256
  915MOL0     C23437   1.754   2.066   5.751 -0.0359 -0.2462  0.4544
  915MOL0     O23438   2.127   1.905   5.860 -0.2628 -0.4528  0.3269
  915MOL0     C23439   1.934   1.956   6.168 -0.2192  0.4352 -0.7936
  915MOL0     C23440   1.944   1.960   6.305 -0.4361  0.2823 -0.7988
  915MOL0     N23441   1.612   1.718   6.764 -0.1265  0.7734 -0.3654
  915MOL0     N23442   1.531   1.679   6.672  0.1007 -0.1054 -0.2320
  915MOL0     C23443   1.475   1.375   5.511  1.0315 -0.6462  0.6592
  915MOL0     C23444   1.547   1.438   5.406  0.6234 -0.0313  0.6961
  915MOL0     C23445   1.847   1.655   5.162 -0.2206 -0.5750 -0.3087
  915MOL0     C23446   1.962   1.685   5.247 -0.2999  0.9829  0.1799
  915MOL0     C23447   2.062   1.774   5.192 -1.6045 -0.0992 -0.4843
  915MOL0     C23448   2.056   1.834   5.072  0.2349 -0.3584  0.2552
  915MOL0     O23449   2.151   1.924   5.016  0.2161  0.5090  0.0059
  915MOL0     C23450   2.273   1.843   4.984  0.0921  0.0695  0.2957
  915MOL0     C23451   2.359   1.856   4.860 -0.5643  0.2503  0.5995
  915MOL0     C23452   2.289   1.798   4.744  0.6419 -0.2743  0.3649
  915MOL0     C23453   2.358   1.755   4.614  0.6070  0.2115  0.3488
  915MOL0     C23454   2.437   1.878   4.578  0.1700  0.9700 -0.5055
  915MOL0     C23455   2.497   1.979   4.544  1.2978 -0.9493 -0.6068
  915MOL0     C23456   1.938   1.809   4.996  0.2398 -0.5007  0.2271
  915MOL0     C23457   1.841   1.715   5.035  0.4016 -0.7359  0.0148
  915MOL0     H23458   1.864   1.356   5.486  0.2802  0.9982 -0.9955
  915MOL0     H23459   1.737   1.248   5.677 -0.0563 -3.5131 -1.2393
  915MOL0     H23460   1.305   1.360   5.720  2.4562  1.4382 -0.0001
  915MOL0     H23461   1.298   1.191   5.682  4.6070 -0.4155 -3.1201
  915MOL0     H23462   1.220   1.222   5.930 -0.4832  0.0840  0.4967
  915MOL0     H23463   1.374   1.134   5.903 -0.9219 -0.1589 -1.5135
  915MOL0     H23464   1.497   1.319   5.991 -1.4251 -3.9541  3.7482
  915MOL0     H23465   1.374   1.438   5.947  0.8789 -0.3697 -4.0867
  915MOL0     H23466   1.232   1.325   6.133 -0.3738  1.4575  0.2203
  915MOL0     H23467   1.368   1.221   6.177  0.6637  0.3040  2.5269
  915MOL0     H23468   1.372   1.535   6.190 -2.1918 -1.2268  1.1150
  915MOL0     H23469   1.328   1.430   6.319 -1.8441 -3.0616 -0.6377
  915MOL0     H23470   1.543   1.298   6.296 -1.4014  0.8899  0.1894
  915MOL0     H23471   1.614   1.432   6.195  1.8625  2.0590  1.1508
  915MOL0     H23472   1.684   1.445   6.421 -0.5481 -0.8614  0.2489
  915MOL0     H23473   1.598   1.593   6.357 -2.0245  1.8592  1.8361
  915MOL0     H23474   1.478   1.393   6.543  2.2652 -0.4888  0.7875
  915MOL0     H23475   1.407   1.544   6.482  0.5139  0.1721 -1.8307
  915MOL0     H23476   1.774   1.467   6.626  1.6899  0.2612  2.7218
  915MOL0     H23477   1.849   1.728   6.886 -1.9776  0.8281 -0.5664
  915MOL0     H23478   1.867   1.543   6.882  4.3885  1.8806  2.3634
  915MOL0     H23479   2.004   1.559   6.695 -0.2384 -0.3571 -0.0856
  915MOL0     H23480   2.062   1.689   6.798 -0.7335  1.5302 -0.2069
  915MOL0     H23481   1.885   1.835   6.649  0.8238  2.3185 -3.2627
  915MOL0     H23482   1.927   1.707   6.524 -1.0613  1.9241 -0.4121
  915MOL0     H23483   2.167   1.756   6.559 -0.4908 -0.0669 -0.9615
  915MOL0     H23484   2.129   1.877   6.686  0.3820 -2.5695  1.2263
  915MOL0     H23485   2.256   1.833   6.351 -0.2343  0.5834  0.7196
  915MOL0     H23486   2.270   1.784   5.998  1.4807 -1.6399  0.1004
  915MOL0     H23487   2.361   1.921   6.059 -0.6226  0.8785 -2.1113
  915MOL0     H23488   2.350   1.762   6.145 -2.4588 -1.6665  0.7319
  915MOL0     H23489   2.038   1.886   5.644 -0.1820 -1.0488 -1.6863
  915MOL0     H23490   1.948   1.950   5.427 -2.2946 -2.2292 -0.9346
  915MOL0     H23491   1.832   2.258   5.322 -0.1556  0.6937 -0.3231
  915MOL0     H23492   1.898   2.102   5.271 -1.6324 -2.8183  1.0917
  915MOL0     H23493   1.641   2.254   5.168 -0.8863 -0.4362 -0.8276
  915MOL0     H23494   1.772   2.201   5.073 -0.9325  2.9962  0.2768
  915MOL0     H23495   1.566   2.026   5.217 -1.0019 -2.3422 -1.6128
  915MOL0     H23496   1.712   1.951   5.157  0.3304  1.4076  2.1379
  915MOL0     H23497   1.509   2.122   5.000  2.0178  3.1219  3.8321
  915MOL0     H23498   1.660   2.059   4.931 -1.9216  1.7991 -0.9569
  915MOL0     H23499   1.426   1.879   5.021 -0.8499  0.4443 -0.9453
  915MOL0     H23500   1.583   1.818   4.983 -0.8288 -2.3341 -3.0734
  915MOL0     H23501   1.426   1.996   4.784 -2.7136 -1.4588 -3.4161
  915MOL0     H23502   1.579   1.926   4.744  0.1046  2.4294  0.6612
  915MOL0     H23503   1.345   1.745   4.822 -2.7135  2.0106 -1.9505
  915MOL0     H23504   1.495   1.697   4.726  2.0538  1.5940 -1.0591
  915MOL0     H23505   1.283   1.878   4.591  0.7850 -0.1271  0.5566
  915MOL0     H23506   1.288   1.703   4.584  1.1939 -0.3889 -1.5438
  915MOL0     H23507   1.611   2.130   5.621 -1.3858 -1.3547 -0.4504
  915MOL0     H23508   1.685   2.081   5.834  0.0943  1.6888  0.2473
  915MOL0     H23509   1.841   1.986   6.122 -0.1345  1.0993 -0.5549
  915MOL0     H23510   1.856   2.004   6.351  1.0029  0.6422  1.7732
  915MOL0     H23511   1.367   1.383   5.516  1.1126  0.2018  1.3740
  915MOL0     H23512   1.497   1.500   5.333  2.1668 -0.7244 -1.0430
  915MOL0     H23513   1.983   1.629   5.337  1.4844 -0.9977 -1.3743
  915MOL0     H23514   2.156   1.787   5.245 -3.1426 -3.0419  3.5164
  915MOL0     H23515   2.345   1.849   5.067 -0.7160 -0.4227  1.0534
  915MOL0     H23516   2.242   1.739   4.971  0.6126  0.3456 -5.6924
  915MOL0     H23517   2.451   1.798   4.864 -1.3495 -0.9657  1.9242
  915MOL0     H23518   2.386   1.958   4.832  0.2699 -0.6759 -2.4720
  915MOL0     H23519   2.212   1.873   4.723  1.3468 -0.1172 -1.9880
  915MOL0     H23520   2.230   1.713   4.779  1.1764 -1.6318 -1.7888
  915MOL0     H23521   2.283   1.735   4.538  0.6757 -3.6218  1.1005
  915MOL0     H23522   2.417   1.663   4.619 -2.3102 -2.0662 -2.7740
  915MOL0     H23523   2.536   2.078   4.531  1.1978 -0.9884 -1.2734
  915MOL0     H23524   1.935   1.861   4.901 -1.6355 -0.5318  0.2353
  915MOL0     H23525   1.769   1.678   4.964  0.6769  0.3903 -0.8829
  916MOL0     O23526   5.971   8.282   7.185  0.3764 -0.0871 -0.0978
  916MOL0     C23527   5.860   8.227   7.159  0.7364 -0.5649  0.7879
  916MOL0     O23528   5.759   8.285   7.100 -0.1151 -0.3523 -0.0917
  916MOL0     C23529   5.759   8.417   7.060  0.3923 -1.2777 -0.2724
  916MOL0     C23530   5.629   8.459   7.015 -0.5386  0.4497  0.1812
  916MOL0     C23531   5.608   8.584   6.949 -0.6971 -0.1426 -0.7501
  916MOL0     C23532   5.712   8.674   6.945  0.2022 -0.6292  0.4431
  916MOL0     O23533   5.698   8.801   6.892 -0.0754 -0.1611  0.7110
  916MOL0     C23534   5.566   8.852   6.873  1.3050  0.2667  0.0919
  916MOL0     C23535   5.566   8.985   6.810  0.5949 -0.1125 -0.0728
  916MOL0     C23536   5.681   9.080   6.845  0.5539  0.0900  0.2644
  916MOL0     C23537   5.669   9.122   6.985 -0.8116 -0.2386  0.0996
  916MOL0     C23538   5.777   9.223   7.033  0.0093  0.0264 -0.8848
  916MOL0     C23539   5.926   9.185   7.016  0.4811  1.0421 -0.0826
  916MOL0     C23540   6.028   9.300   7.059  0.3840 -0.5542  0.5316
  916MOL0     C23541   5.980   9.442   7.025  0.4960  0.0408 -0.1089
  916MOL0     N23542   5.874   9.501   7.109 -0.2143 -0.9225 -0.5277
  916MOL0     C23543   5.865   9.500   7.252 -0.5337  0.0843 -0.7658
  916MOL0     C23544   5.768   9.587   7.293  0.5098  0.2835  1.1713
  916MOL0     C23545   5.717   9.605   7.433  0.0143 -0.0354  0.3664
  916MOL0     C23546   5.815   9.648   7.542 -0.3254 -0.3466  0.4204
  916MOL0     C23547   5.855   9.797   7.536  0.6772 -0.5555 -0.3165
  916MOL0     C23548   5.905   9.851   7.677  0.1714  0.5319  0.2588
  916MOL0     O23549   6.045   9.827   7.691  0.5294  0.5655  0.3578
  916MOL0     C23550   6.131   9.906   7.776 -0.0551  0.2563  1.0127
  916MOL0     C23551   6.080   9.983   7.885 -0.5036  0.8114 -0.6298
  916MOL0     C23552   6.152  10.061   7.979  0.7524 -0.9574  0.7266
  916MOL0     C23553   6.065  10.128   8.081  0.1038 -0.9900 -0.5378
  916MOL0     C23554   6.290  10.073   7.961  0.6410 -0.0269  0.9411
  916MOL0     C23555   6.377  10.148   8.058 -0.4211  0.0200  1.3302
  916MOL0     O23556   6.514  10.135   8.040 -0.3204  0.0987 -0.3060
  916MOL0     C23557   6.596  10.165   8.145 -0.9034 -0.5765 -0.1788
  916MOL0     C23558   6.640  10.070   8.245 -0.8688 -0.3269  0.1110
  916MOL0     C23559   6.727  10.111   8.354 -0.8702  0.2202  0.1941
  916MOL0     C23560   6.755  10.247   8.374  0.3234  0.2413 -0.1458
  916MOL0     O23561   6.835  10.292   8.477  0.8134 -0.1139  0.4034
  916MOL0     C23562   6.895  10.192   8.568  0.0611  0.4980 -0.0057
  916MOL0     C23563   7.002  10.258   8.651 -0.1050 -0.4260  0.4526
  916MOL0     C23564   7.101  10.158   8.724 -0.0144 -0.3522  0.3559
  916MOL0     C23565   7.049  10.106   8.857 -0.0539 -0.1091  0.4778
  916MOL0     C23566   7.161  10.054   8.951  0.4656  0.3413 -0.5634
  916MOL0     C23567   7.213   9.910   8.898  0.6851 -0.0935  0.3288
  916MOL0     C23568   7.323   9.845   8.986 -0.2947 -0.1529 -0.6789
  916MOL0     C23569   7.428   9.954   9.021 -0.1528 -0.2217  0.3077
  916MOL0    Cl23570   7.578   9.846   9.042  0.1572 -0.4873  0.4044
  916MOL0     C23571   6.716  10.339   8.274 -0.4491 -1.1318 -0.4751
  916MOL0     C23572   6.632  10.303   8.161 -0.5676 -0.3275  0.2228
  916MOL0     O23573   6.331  10.213   8.150 -0.1674  0.2990 -0.8288
  916MOL0     C23574   6.340  10.003   7.843 -0.0171  0.5941 -0.2837
  916MOL0     C23575   6.272   9.908   7.757  0.4514  0.3517  0.4220
  916MOL0     N23576   5.708   9.628   7.175 -0.1487 -0.2480  0.9778
  916MOL0     N23577   5.775   9.581   7.071  0.1823  0.0136 -0.2794
  916MOL0     C23578   5.844   8.632   6.979  0.1281 -0.4069 -0.0968
  916MOL0     C23579   5.863   8.512   7.041  0.5089  0.6444  0.0560
  916MOL0     C23580   5.820   8.107   7.222 -0.3028 -0.0895 -0.4916
  916MOL0     C23581   5.874   8.087   7.347 -0.3287 -0.7788 -0.6577
  916MOL0     C23582   5.843   7.976   7.421  0.1557  0.1243  0.8591
  916MOL0     C23583   5.751   7.883   7.368 -0.2018 -0.5825  0.1849
  916MOL0     O23584   5.722   7.781   7.450 -0.3386  0.1033 -0.5683
  916MOL0     C23585   5.621   7.684   7.420 -0.0529  0.2038 -0.3271
  916MOL0     C23586   5.574   7.595   7.542 -0.3056 -0.7860  0.1645
  916MOL0     C23587   5.556   7.662   7.674 -0.2122  0.0125 -1.7929
  916MOL0     C23588   5.607   7.570   7.780 -0.4634  0.3847 -0.3176
  916MOL0     C23589   5.526   7.459   7.797 -1.2965  0.4992 -0.9023
  916MOL0     C23590   5.465   7.357   7.807  0.6860 -0.0689  0.5600
  916MOL0     C23591   5.702   7.901   7.239 -0.1474  0.2712 -0.2822
  916MOL0     C23592   5.737   8.016   7.167  0.5095 -0.0631 -0.3388
  916MOL0     H23593   5.551   8.385   7.028 -0.7118  0.5915 -0.0406
  916MOL0     H23594   5.506   8.597   6.917 -0.8965 -0.4365 -0.2456
  916MOL0     H23595   5.511   8.781   6.811 -2.5378  3.6706 -0.8491
  916MOL0     H23596   5.521   8.866   6.972 -1.5787  3.3981 -1.4421
  916MOL0     H23597   5.573   8.964   6.702 -0.5808  1.8999 -0.5951
  916MOL0     H23598   5.469   9.035   6.823  1.4026  3.2500 -4.5347
  916MOL0     H23599   5.774   9.027   6.823  1.2007  1.7813 -1.2683
  916MOL0     H23600   5.684   9.164   6.776  3.6855  0.0710  0.2652
  916MOL0     H23601   5.574   9.175   6.982 -0.6370  0.0403 -0.7793
  916MOL0     H23602   5.669   9.037   7.054 -3.9199 -1.4743 -1.2452
  916MOL0     H23603   5.768   9.307   6.964  0.7974  0.0688 -0.9439
  916MOL0     H23604   5.764   9.249   7.139  1.8641 -5.4256  1.0463
  916MOL0     H23605   5.956   9.101   7.079  1.1943  1.0627 -0.3771
  916MOL0     H23606   5.946   9.169   6.910 -1.3860 -0.1439 -0.2910
  916MOL0     H23607   6.046   9.303   7.167  0.4371 -2.0734  0.5937
  916MOL0     H23608   6.121   9.286   7.004  1.2386 -0.2391  1.8665
  916MOL0     H23609   5.948   9.443   6.920  0.5876  0.9941 -0.1392
  916MOL0     H23610   6.065   9.511   7.029 -0.9857  1.8953  0.5611
  916MOL0     H23611   5.922   9.425   7.306  0.9037  1.4943 -0.2371
  916MOL0     H23612   5.633   9.674   7.417  0.1973 -0.1094 -0.9680
  916MOL0     H23613   5.669   9.513   7.467 -2.1069 -0.1334 -2.5522
  916MOL0     H23614   5.901   9.581   7.533 -2.4996 -3.3494  0.5613
  916MOL0     H23615   5.771   9.627   7.640 -1.2014 -2.4093 -0.3711
  916MOL0     H23616   5.754   9.833   7.514  0.2511 -1.8900 -0.6301
  916MOL0     H23617   5.917   9.825   7.451  1.0419  1.5937  0.5854
  916MOL0     H23618   5.860   9.789   7.756 -0.8914  1.4970  0.4399
  916MOL0     H23619   5.893   9.960   7.681 -1.8815  0.4617 -1.8560
  916MOL0     H23620   5.973   9.978   7.901 -0.2551  0.4121  1.0219
  916MOL0     H23621   6.077  10.237   8.082  0.9458 -1.0679  0.4823
  916MOL0     H23622   5.958  10.105   8.072  0.1830 -0.6716 -2.8623
  916MOL0     H23623   6.103  10.104   8.181  1.4786  1.1032 -0.4817
  916MOL0     H23624   6.618   9.964   8.236 -1.7449 -0.1329 -0.1228
  916MOL0     H23625   6.753  10.024   8.413 -1.1674 -2.8460 -3.7368
  916MOL0     H23626   6.820  10.144   8.632  0.1265 -0.5404 -0.6845
  916MOL0     H23627   6.945  10.116   8.507 -0.3578 -0.6360  1.0178
  916MOL0     H23628   7.067  10.324   8.594 -2.2012  0.4623 -1.0442
  916MOL0     H23629   6.950  10.311   8.731 -0.9421 -2.2061  1.1450
  916MOL0     H23630   7.188  10.218   8.750 -0.3384  1.2273 -1.8944
  916MOL0     H23631   7.134  10.074   8.662  1.5258 -0.1570  0.8633
  916MOL0     H23632   7.000  10.189   8.908 -0.5571 -1.3811  2.1694
  916MOL0     H23633   6.975  10.033   8.824  3.5590 -1.8034 -5.3591
  916MOL0     H23634   7.119  10.049   9.052  4.2927 -1.1167  1.1651
  916MOL0     H23635   7.235  10.132   8.975 -1.1469  0.7348  4.4001
  916MOL0     H23636   7.124   9.848   8.890 -0.0027  1.1686 -3.9217
  916MOL0     H23637   7.249   9.925   8.796 -1.1103  4.5578  0.1329
  916MOL0     H23638   7.373   9.759   8.940  1.3944 -0.6366  1.8466
  916MOL0     H23639   7.265   9.821   9.075  1.1003  3.3316  1.3740
  916MOL0     H23640   7.398  10.012   9.108  3.4871 -1.9570  2.9914
  916MOL0     H23641   7.430  10.009   8.926  3.2358 -1.2067 -0.3602
  916MOL0     H23642   6.756  10.440   8.283 -2.2921 -0.5666  2.4924
  916MOL0     H23643   6.610  10.374   8.081  2.6237  2.3874  1.5129
  916MOL0     H23644   6.443  10.006   7.808  0.4240 -0.8769  0.7931
  916MOL0     H23645   6.322   9.862   7.672  0.4859  2.2756 -0.6547
  916MOL0     H23646   5.926   8.699   6.954  0.7241 -1.3979 -0.8719
  916MOL0     H23647   5.967   8.483   7.057 -0.3361 -2.9979 -0.2549
  916MOL0     H23648   5.948   8.156   7.386 -0.5078  1.1815 -3.4874
  916MOL0     H23649   5.885   7.971   7.521  0.5669 -0.3010  0.6665
  916MOL0     H23650   5.529   7.743   7.412 -0.6584 -0.4308  1.4222
  916MOL0     H23651   5.633   7.633   7.324  0.3911  3.7190 -2.3051
  916MOL0     H23652   5.657   7.524   7.539  0.6385  0.2529  0.8816
  916MOL0     H23653   5.481   7.542   7.519 -0.0499 -3.3492  3.9939
  916MOL0     H23654   5.450   7.685   7.689 -1.2059 -4.6024 -0.1526
  916MOL0     H23655   5.605   7.760   7.678 -1.0762  0.4915 -2.5182
  916MOL0     H23656   5.623   7.621   7.875 -1.3443  0.6651 -0.3113
  916MOL0     H23657   5.710   7.540   7.755  0.3349 -0.1478  3.1462
  916MOL0     H23658   5.406   7.270   7.789 -0.8934  1.2538 -1.1371
  916MOL0     H23659   5.637   7.821   7.206  0.6688 -0.4437 -0.2138
  916MOL0     H23660   5.705   8.015   7.063 -0.8330 -1.5965  0.0423
  917MOL0     O23661   4.433   9.834   8.829  0.1034  0.0197 -0.3813
  917MOL0     C23662   4.478   9.729   8.793 -1.0496 -0.1571  0.6007
  917MOL0     O23663   4.588   9.711   8.720  0.1012 -0.5297  0.8131
  917MOL0     C23664   4.645   9.823   8.670  0.2419 -0.7229  0.7639
  917MOL0     C23665   4.580   9.917   8.582 -1.3226  0.4573 -0.7087
  917MOL0     C23666   4.660  10.028   8.548  0.0330 -0.9771 -0.6124
  917MOL0     C23667   4.783  10.056   8.603 -0.7372  0.6033  0.1219
  917MOL0     O23668   4.865  10.165   8.574 -0.6721  0.8456  0.4389
  917MOL0     C23669   4.865  10.242   8.692 -0.6015 -0.0554  0.1367
  917MOL0     C23670   4.900  10.395   8.660 -1.0507  0.2273 -1.0602
  917MOL0     C23671   4.841  10.491   8.766  0.1172 -0.2140  1.2071
  917MOL0     C23672   4.889  10.626   8.735  0.1721  0.8514 -0.4648
  917MOL0     C23673   4.821  10.694   8.622  1.6277 -0.2854 -0.0193
  917MOL0     C23674   4.889  10.830   8.599 -1.0976 -0.5311 -0.6541
  917MOL0     C23675   4.855  10.894   8.455 -0.4150 -0.3766 -0.0004
  917MOL0     C23676   4.909  11.034   8.421  1.8257 -0.4290  0.0805
  917MOL0     N23677   5.055  11.037   8.432  0.0566  0.1666 -0.3190
  917MOL0     C23678   5.151  11.048   8.334  0.2606  0.1521 -0.2199
  917MOL0     C23679   5.265  11.036   8.404 -0.2052 -0.3081  0.7211
  917MOL0     C23680   5.394  11.035   8.324  0.5673  0.3008 -0.5562
  917MOL0     C23681   5.473  10.911   8.349  0.9324  0.9969 -0.0560
  917MOL0     C23682   5.621  10.930   8.307 -0.1744 -0.0659  0.0098
  917MOL0     C23683   5.703  10.790   8.310  0.5881  1.2181  0.1979
  917MOL0     O23684   5.772  10.745   8.191  0.1580 -0.1868 -0.2297
  917MOL0     C23685   5.888  10.786   8.150 -0.3215 -0.4125  0.5266
  917MOL0     C23686   5.926  10.784   8.018 -0.4707  0.5793  0.2431
  917MOL0     C23687   6.038  10.826   7.955  0.5634 -0.6691 -0.3586
  917MOL0     C23688   6.062  10.799   7.803 -0.5960  0.0492  0.8632
  917MOL0     C23689   6.127  10.897   8.042  0.0518 -0.0338 -0.3101
  917MOL0     C23690   6.256  10.941   7.990  0.3188  0.1403  0.3696
  917MOL0     O23691   6.255  10.984   7.854 -0.1217 -0.2619  0.7574
  917MOL0     C23692   6.384  11.002   7.808  0.2679  0.5789 -0.1622
  917MOL0     C23693   6.448  11.123   7.801  0.4800 -0.2079  0.3595
  917MOL0     C23694   6.573  11.134   7.740  0.2653  1.2204 -0.4040
  917MOL0     C23695   6.638  11.017   7.683  0.0283 -0.4255 -0.2877
  917MOL0     O23696   6.745  11.035   7.606  0.0386 -0.5880  0.1643
  917MOL0     C23697   6.866  10.968   7.648  0.3522  0.0004  0.4217
  917MOL0     C23698   6.989  11.028   7.587  0.7882  0.1406 -0.1137
  917MOL0     C23699   6.997  11.171   7.643 -0.4998  0.0998 -0.3076
  917MOL0     C23700   7.074  11.180   7.773 -0.1152 -0.4824  0.4767
  917MOL0     C23701   7.075  11.313   7.835 -0.3935  0.4536  0.5988
  917MOL0     C23702   7.173  11.322   7.950 -0.5402 -0.2495  0.4019
  917MOL0     C23703   7.167  11.458   8.015  0.1809 -1.2068 -0.0490
  917MOL0     C23704   7.274  11.462   8.122 -0.5089  0.3849  0.2516
  917MOL0    Cl23705   7.317  11.618   8.177  0.0836 -0.1529 -0.2426
  917MOL0     C23706   6.574  10.888   7.705  0.1521  0.8072 -1.7547
  917MOL0     C23707   6.446  10.885   7.762  0.4072  0.0280 -0.5333
  917MOL0     O23708   6.354  10.937   8.062  0.0202  0.5184 -0.1940
  917MOL0     C23709   6.099  10.913   8.177  1.0426  0.8483  0.2747
  917MOL0     C23710   5.983  10.849   8.233 -0.9437  0.7551  0.7447
  917MOL0     N23711   5.238  11.038   8.539  0.5068 -0.4168  0.2210
  917MOL0     N23712   5.106  11.055   8.556  0.5764 -1.0552 -0.3206
  917MOL0     C23713   4.849   9.954   8.677 -0.9536  0.3240  0.0407
  917MOL0     C23714   4.777   9.840   8.706  0.1684 -0.4464  0.6077
  917MOL0     C23715   4.395   9.606   8.818  0.0887  0.6322  0.2803
  917MOL0     C23716   4.433   9.476   8.774 -0.4880 -0.8044  0.3073
  917MOL0     C23717   4.357   9.362   8.812 -0.1744 -0.0430 -0.2940
  917MOL0     C23718   4.236   9.368   8.886 -0.6130  0.1987  0.3605
  917MOL0     O23719   4.159   9.257   8.934  0.0728  0.0698  0.0592
  917MOL0     C23720   4.237   9.140   8.959  1.1558  0.7846  0.2054
  917MOL0     C23721   4.167   9.037   9.036 -0.2300 -0.9701 -0.2994
  917MOL0     C23722   4.033   8.987   8.982  0.1745 -0.3247  0.2836
  917MOL0     C23723   3.999   8.852   9.034 -0.3336  0.3257 -0.2462
  917MOL0     C23724   3.855   8.812   9.008 -0.3631  0.1260  0.7228
  917MOL0     C23725   3.732   8.788   8.990 -0.2854 -0.4845  0.4096
  917MOL0     C23726   4.198   9.494   8.917  1.6374 -0.8605  0.1219
  917MOL0     C23727   4.270   9.617   8.885  0.9611  0.7385  0.5123
  917MOL0     H23728   4.479   9.900   8.547 -0.2024 -3.3685 -2.6189
  917MOL0     H23729   4.612  10.106   8.489 -3.1968 -1.0927  1.6069
  917MOL0     H23730   4.769  10.234   8.743 -0.9688  1.7409 -0.2142
  917MOL0     H23731   4.942  10.198   8.757  1.1613  0.6165 -1.4167
  917MOL0     H23732   5.009  10.410   8.657 -0.8317 -0.9203 -0.1265
  917MOL0     H23733   4.845  10.415   8.568 -2.3986  1.2509 -0.0684
  917MOL0     H23734   4.732  10.487   8.769  0.1586 -1.0136  1.9210
  917MOL0     H23735   4.881  10.478   8.867 -0.1694  1.3687  1.5535
  917MOL0     H23736   4.879  10.684   8.828 -1.4730 -1.6213  1.0327
  917MOL0     H23737   4.995  10.609   8.714  0.1742 -4.1402  2.1122
  917MOL0     H23738   4.822  10.634   8.530 -1.0029  1.4543 -1.2878
  917MOL0     H23739   4.715  10.710   8.642  1.3612  0.5980 -1.8988
  917MOL0     H23740   4.880  10.895   8.687  4.1435  0.7834 -0.7173
  917MOL0     H23741   4.994  10.799   8.605 -0.2077  2.3493  0.1364
  917MOL0     H23742   4.892  10.824   8.380  1.9761  0.2787  0.4627
  917MOL0     H23743   4.747  10.905   8.442 -0.1109 -0.9703 -5.2932
  917MOL0     H23744   4.855  11.103   8.486 -1.3165  0.0014 -2.7121
  917MOL0     H23745   4.884  11.054   8.316  1.8149  0.2827  0.2123
  917MOL0     H23746   5.140  11.064   8.227 -1.4724 -2.0804 -0.4558
  917MOL0     H23747   5.364  11.041   8.219 -1.0220 -1.2834 -0.2391
  917MOL0     H23748   5.458  11.120   8.349  2.5269 -2.5919  6.5967
  917MOL0     H23749   5.424  10.833   8.291  1.1755  1.3228 -0.7165
  917MOL0     H23750   5.481  10.885   8.455  0.4313 -3.0846 -0.8533
  917MOL0     H23751   5.670  10.999   8.376  2.1692  0.0703 -1.6595
  917MOL0     H23752   5.624  10.964   8.203 -0.2275  0.4264  0.1714
  917MOL0     H23753   5.637  10.711   8.348  1.2253 -0.4080 -1.9127
  917MOL0     H23754   5.779  10.793   8.389  0.5822  1.9550  0.1761
  917MOL0     H23755   5.855  10.730   7.956  0.7104 -2.1212  1.0995
  917MOL0     H23756   6.148  10.738   7.775 -1.1711  0.6306 -2.5718
  917MOL0     H23757   5.979  10.740   7.763 -0.0831 -2.4523  3.1839
  917MOL0     H23758   6.066  10.892   7.745  3.0090  0.4625  1.5531
  917MOL0     H23759   6.402  11.208   7.850  2.9384  1.6580 -0.4010
  917MOL0     H23760   6.632  11.225   7.743  1.6507  0.3588 -0.5160
  917MOL0     H23761   6.878  10.975   7.756  1.5668  1.6441  0.2220
  917MOL0     H23762   6.860  10.864   7.612 -1.8114 -0.1589  1.1158
  917MOL0     H23763   7.072  10.971   7.629  2.2449  2.1587 -0.1416
  917MOL0     H23764   6.990  11.044   7.479  1.6237  3.3956  0.2962
  917MOL0     H23765   6.906  11.231   7.650  1.5649  3.3401  0.7857
  917MOL0     H23766   7.055  11.214   7.561  1.9799 -2.0105  0.2001
  917MOL0     H23767   7.032  11.103   7.839 -1.4485 -0.0145  0.1898
  917MOL0     H23768   7.169  11.125   7.765  0.3558 -0.2225  3.2829
  917MOL0     H23769   6.981  11.326   7.889 -0.5765  0.1800  0.3512
  917MOL0     H23770   7.091  11.397   7.768 -0.8630 -0.7532 -1.0988
  917MOL0     H23771   7.147  11.247   8.026 -0.7328  0.4715  1.0610
  917MOL0     H23772   7.274  11.289   7.924 -1.2371 -0.2336 -2.6323
  917MOL0     H23773   7.070  11.472   8.064 -0.8968 -2.3474 -1.7762
  917MOL0     H23774   7.175  11.551   7.957  1.3298 -0.2440  1.5576
  917MOL0     H23775   7.365  11.409   8.093  1.0826  1.7746  2.3894
  917MOL0     H23776   7.231  11.402   8.203 -1.1634 -0.2090 -0.5203
  917MOL0     H23777   6.622  10.794   7.681  0.2731  0.0256  1.2169
  917MOL0     H23778   6.392  10.791   7.777  1.2802 -0.6309 -1.4134
  917MOL0     H23779   6.176  10.959   8.238  3.4310 -1.2155 -0.9999
  917MOL0     H23780   5.975  10.845   8.341 -0.3512 -0.0795  0.7680
  917MOL0     H23781   4.952   9.958   8.714 -1.3381 -0.9006  1.3659
  917MOL0     H23782   4.817   9.753   8.757 -0.7229 -2.3992 -1.8032
  917MOL0     H23783   4.520   9.447   8.717 -1.4091  0.7892 -2.0642
  917MOL0     H23784   4.404   9.269   8.780  0.1814 -0.5001  1.4329
  917MOL0     H23785   4.277   9.092   8.870  3.4082 -0.7114  1.9010
  917MOL0     H23786   4.317   9.169   9.028  2.6585  1.3727 -1.7246
  917MOL0     H23787   4.154   9.079   9.136  4.3762 -0.8378  0.4286
  917MOL0     H23788   4.234   8.951   9.029  0.3583 -0.3986 -3.6667
  917MOL0     H23789   4.027   8.977   8.873 -1.4640 -1.1174  0.4061
  917MOL0     H23790   3.958   9.055   9.024  0.7094 -1.0967  2.6362
  917MOL0     H23791   4.003   8.857   9.143  0.6592  0.6304 -0.2849
  917MOL0     H23792   4.068   8.772   9.005  0.3130  0.9420 -0.4373
  917MOL0     H23793   3.628   8.796   8.968  0.2348  3.0135 -1.5911
  917MOL0     H23794   4.105   9.517   8.968  1.5760  3.5661 -1.5490
  917MOL0     H23795   4.250   9.720   8.913 -1.3711 -0.2330  2.7751
  918MOL0     O23796   5.672   5.165   1.914 -0.1884 -0.0054  0.2451
  918MOL0     C23797   5.648   5.090   2.009 -0.5041  0.9640 -0.3349
  918MOL0     O23798   5.604   5.135   2.126 -0.3494  0.1272  0.3164
  918MOL0     C23799   5.531   5.251   2.130  0.6497  0.4421 -0.9738
  918MOL0     C23800   5.599   5.372   2.139 -0.4675  0.0324  0.6597
  918MOL0     C23801   5.537   5.491   2.164 -0.0574  0.6547 -0.3222
  918MOL0     C23802   5.403   5.498   2.143 -0.4070 -0.1973  0.3177
  918MOL0     O23803   5.358   5.623   2.151  0.0716 -0.3172 -0.4439
  918MOL0     C23804   5.251   5.648   2.244  0.5517  0.3591  0.0933
  918MOL0     C23805   5.286   5.647   2.396  0.5587  1.1797  0.1385
  918MOL0     C23806   5.366   5.768   2.431 -0.2872 -0.6435  1.4655
  918MOL0     C23807   5.429   5.774   2.571  0.5211 -0.4058  0.5055
  918MOL0     C23808   5.586   5.807   2.570  1.0671  0.1232 -0.1350
  918MOL0     C23809   5.678   5.719   2.491  0.1038  0.0598  0.8608
  918MOL0     C23810   5.833   5.740   2.508  0.3322  0.0405  0.2540
  918MOL0     C23811   5.907   5.620   2.442 -0.3013 -0.2584  0.3485
  918MOL0     N23812   6.042   5.606   2.511 -0.0632 -0.1742  0.8764
  918MOL0     C23813   6.150   5.590   2.441 -0.1154 -0.4948  0.5088
  918MOL0     C23814   6.251   5.555   2.519  0.3991  1.0630 -0.5383
  918MOL0     C23815   6.382   5.509   2.473  0.0397  0.1206 -0.8853
  918MOL0     C23816   6.488   5.628   2.440  0.7329 -0.6419 -1.1111
  918MOL0     C23817   6.632   5.575   2.403  2.0335  0.1919 -0.5176
  918MOL0     C23818   6.730   5.529   2.513  0.0448 -0.4775 -0.0737
  918MOL0     O23819   6.850   5.485   2.457 -0.0718  0.4375 -0.0279
  918MOL0     C23820   6.931   5.407   2.532  0.2423 -0.4466  0.9996
  918MOL0     C23821   7.007   5.324   2.454  0.4325 -0.1631  0.5089
  918MOL0     C23822   7.082   5.222   2.505  1.1353  0.0380  0.0769
  918MOL0     C23823   7.155   5.132   2.408 -0.4057 -0.0103 -0.2176
  918MOL0     C23824   7.090   5.200   2.649  0.6417 -0.7978  0.0961
  918MOL0     C23825   7.171   5.091   2.702 -0.0053 -0.5662  0.0490
  918MOL0     O23826   7.156   4.973   2.643  0.5425 -0.6830 -0.2741
  918MOL0     C23827   7.237   4.868   2.674 -0.8526  0.1344 -0.1757
  918MOL0     C23828   7.192   4.777   2.767 -0.5318  0.3718  0.0578
  918MOL0     C23829   7.265   4.664   2.809 -1.2449  1.0050 -0.3450
  918MOL0     C23830   7.393   4.642   2.747 -0.6331 -0.3114  0.0512
  918MOL0     O23831   7.486   4.552   2.790  0.0626 -1.1271 -0.2933
  918MOL0     C23832   7.478   4.510   2.931 -0.2756  0.7384  0.4202
  918MOL0     C23833   7.542   4.369   2.953  0.2493  0.8728  0.4200
  918MOL0     C23834   7.679   4.346   2.887 -1.2771 -0.3607 -0.6045
  918MOL0     C23835   7.790   4.347   2.992  0.0155  0.4639  0.1089
  918MOL0     C23836   7.924   4.304   2.946 -0.5914  0.2358 -1.4187
  918MOL0     C23837   8.027   4.342   3.058  0.9611  0.6707  0.2233
  918MOL0     C23838   8.169   4.307   3.014  0.4626 -0.6127 -1.2292
  918MOL0     C23839   8.176   4.154   2.998 -0.5543 -0.0314 -0.9850
  918MOL0    Cl23840   8.332   4.115   3.081 -0.1710  0.2323 -0.0353
  918MOL0     C23841   7.431   4.726   2.646 -0.1292  0.3827  0.5452
  918MOL0     C23842   7.354   4.831   2.608  0.9361 -0.9748 -0.0426
  918MOL0     O23843   7.240   5.126   2.799  0.0663  0.7568 -0.1619
  918MOL0     C23844   7.031   5.299   2.729  0.4219  0.6795  0.0520
  918MOL0     C23845   6.946   5.402   2.669  0.2037 -0.4637 -0.3606
  918MOL0     N23846   6.193   5.538   2.642  0.4298  0.2970 -0.5831
  918MOL0     N23847   6.067   5.573   2.642 -0.7376 -0.4060  0.1502
  918MOL0     C23848   5.330   5.380   2.141 -0.0987 -0.6137 -0.2132
  918MOL0     C23849   5.391   5.252   2.139 -0.4795  0.1567  0.5075
  918MOL0     C23850   5.658   4.939   1.988 -0.0325 -0.2066  0.0641
  918MOL0     C23851   5.613   4.856   2.097 -0.5368  0.0290  0.1093
  918MOL0     C23852   5.628   4.718   2.093  0.2338 -0.1215 -0.2917
  918MOL0     C23853   5.672   4.656   1.974  0.7664 -0.1579 -0.2165
  918MOL0     O23854   5.683   4.519   1.978 -0.7957 -0.8089  0.7447
  918MOL0     C23855   5.769   4.450   1.873  0.1184  0.0074 -0.0139
  918MOL0     C23856   5.824   4.315   1.916  0.5859 -0.5479  0.3507
  918MOL0     C23857   5.715   4.203   1.913 -0.2784 -0.5295 -0.5553
  918MOL0     C23858   5.757   4.078   1.977  0.9714  0.0954 -0.2015
  918MOL0     C23859   5.642   3.983   1.973 -0.4687  0.3724  0.4920
  918MOL0     C23860   5.548   3.900   1.957 -0.0995 -0.5448 -0.1413
  918MOL0     C23861   5.710   4.738   1.863  0.8162 -0.0290  0.0114
  918MOL0     C23862   5.707   4.881   1.867 -0.2692  0.4268 -1.7217
  918MOL0     H23863   5.705   5.365   2.116 -0.3841 -0.0962  1.0879
  918MOL0     H23864   5.589   5.584   2.185 -0.0071 -0.0544  3.4243
  918MOL0     H23865   5.205   5.744   2.218 -2.3106 -1.0674 -0.5330
  918MOL0     H23866   5.174   5.575   2.214 -1.1005  1.4305  1.5611
  918MOL0     H23867   5.190   5.656   2.448 -0.0823  6.4209 -1.3619
  918MOL0     H23868   5.342   5.558   2.424  1.9308  1.9963  0.0767
  918MOL0     H23869   5.437   5.787   2.351  0.6740  1.5333  2.7310
  918MOL0     H23870   5.288   5.844   2.433 -1.4048 -1.2600 -3.7953
  918MOL0     H23871   5.387   5.867   2.609  2.6914  1.8768 -2.2516
  918MOL0     H23872   5.396   5.688   2.630  1.0890 -1.1841 -0.2727
  918MOL0     H23873   5.597   5.912   2.543 -0.3173  0.8955  2.0503
  918MOL0     H23874   5.635   5.803   2.668  2.0660 -0.8580 -0.6487
  918MOL0     H23875   5.664   5.614   2.518  2.5358 -1.1745 -2.0752
  918MOL0     H23876   5.659   5.717   2.383 -0.9773  1.2362  1.0053
  918MOL0     H23877   5.878   5.833   2.472  0.1183 -0.2333 -0.7639
  918MOL0     H23878   5.860   5.734   2.614 -0.8782  1.6387  0.6855
  918MOL0     H23879   5.915   5.645   2.336 -0.0743 -2.8531 -0.3123
  918MOL0     H23880   5.867   5.519   2.449  0.2366 -0.5657 -0.7194
  918MOL0     H23881   6.150   5.589   2.332  2.2009 -0.4492  0.4687
  918MOL0     H23882   6.429   5.448   2.550  2.8477  4.4962  1.3069
  918MOL0     H23883   6.372   5.439   2.389 -1.1704  0.7651 -1.2974
  918MOL0     H23884   6.507   5.689   2.528  1.6145 -0.9261 -1.0949
  918MOL0     H23885   6.461   5.698   2.361  3.4600  0.2683 -1.3549
  918MOL0     H23886   6.677   5.658   2.347 -0.6553  2.3270  0.2119
  918MOL0     H23887   6.626   5.492   2.333 -2.0201 -1.0428  0.9493
  918MOL0     H23888   6.679   5.446   2.563 -0.1070 -0.2316  0.1844
  918MOL0     H23889   6.762   5.598   2.592  0.5683 -2.7477  1.8349
  918MOL0     H23890   7.013   5.336   2.346 -0.0241  1.4778  0.6450
  918MOL0     H23891   7.084   5.051   2.392 -1.0678  0.6930 -0.9975
  918MOL0     H23892   7.171   5.173   2.308  1.4341 -0.6711 -0.2278
  918MOL0     H23893   7.251   5.093   2.443 -0.3949 -0.5021 -0.7769
  918MOL0     H23894   7.103   4.807   2.821  0.3574  2.9004  0.2569
  918MOL0     H23895   7.222   4.593   2.880  0.8664  0.5023  0.5290
  918MOL0     H23896   7.538   4.581   2.988 -0.0722 -0.0766  1.2389
  918MOL0     H23897   7.379   4.503   2.979  0.3638 -1.6639  1.5421
  918MOL0     H23898   7.548   4.350   3.060 -1.9933  0.8903  0.5941
  918MOL0     H23899   7.475   4.292   2.914 -0.7610  2.3277 -0.8566
  918MOL0     H23900   7.708   4.408   2.802  1.1323 -0.1338  0.3052
  918MOL0     H23901   7.677   4.240   2.858 -1.0602 -0.1415 -1.4466
  918MOL0     H23902   7.807   4.445   3.037  1.7831 -0.0745  0.7159
  918MOL0     H23903   7.770   4.279   3.075  1.8314  2.2110  2.0886
  918MOL0     H23904   7.957   4.353   2.854  1.1160  1.9350  0.0102
  918MOL0     H23905   7.918   4.197   2.923  1.8267 -0.1518 -0.5488
  918MOL0     H23906   8.024   4.452   3.059  0.1784  0.7434 -2.3014
  918MOL0     H23907   7.995   4.281   3.142  0.8143 -1.6931 -1.4394
  918MOL0     H23908   8.237   4.337   3.093 -0.8322 -0.0337 -0.3023
  918MOL0     H23909   8.180   4.380   2.933 -1.3696  2.2662  0.9127
  918MOL0     H23910   8.173   4.120   2.894 -1.1238  0.9739 -1.3082
  918MOL0     H23911   8.091   4.108   3.049 -0.7294  0.7164 -0.5895
  918MOL0     H23912   7.518   4.722   2.581  0.7495 -0.3044  1.7218
  918MOL0     H23913   7.381   4.894   2.523 -3.1708 -0.6729 -1.3190
  918MOL0     H23914   7.057   5.282   2.833  0.1633 -1.8109 -0.2479
  918MOL0     H23915   6.900   5.472   2.738 -1.9709 -3.1313  1.0595
  918MOL0     H23916   5.222   5.384   2.149 -0.0677  3.6893  0.2835
  918MOL0     H23917   5.341   5.156   2.134  0.3214 -0.2102 -1.1534
  918MOL0     H23918   5.579   4.912   2.183 -0.3745  2.3149 -1.2258
  918MOL0     H23919   5.609   4.660   2.183  1.3352  1.1818  0.8190
  918MOL0     H23920   5.711   4.432   1.782 -0.4485 -0.2263  0.3856
  918MOL0     H23921   5.857   4.513   1.859  0.9062 -1.4179 -1.7968
  918MOL0     H23922   5.862   4.319   2.019  0.3535 -0.8364  0.4479
  918MOL0     H23923   5.914   4.284   1.863  0.4986 -0.2991  0.0565
  918MOL0     H23924   5.701   4.180   1.807 -1.9876 -3.1594  0.1588
  918MOL0     H23925   5.622   4.236   1.960  0.2800 -1.7501  1.5064
  918MOL0     H23926   5.779   4.084   2.084  2.2435  0.4571 -0.4716
  918MOL0     H23927   5.844   4.038   1.924 -0.6398 -1.3693 -1.8765
  918MOL0     H23928   5.482   3.826   1.917  1.6402 -1.8904 -0.6792
  918MOL0     H23929   5.766   4.691   1.783 -0.0298 -2.2372  0.6414
  918MOL0     H23930   5.729   4.943   1.781 -4.5909 -0.5427 -3.7866
  919MOL0     O23931   3.941   5.210   3.987  0.1847  0.3234  0.2628
  919MOL0     C23932   3.897   5.113   3.932 -0.3408 -0.0973 -0.6244
  919MOL0     O23933   3.935   4.983   3.955 -0.1793  0.1562 -0.0551
  919MOL0     C23934   4.021   4.961   4.051  0.2088  0.2936  0.1684
  919MOL0     C23935   4.146   4.918   4.014  0.5331  0.0789  0.3070
  919MOL0     C23936   4.249   4.926   4.110 -0.0541  0.4871  0.1942
  919MOL0     C23937   4.218   4.960   4.249  0.2290  0.1176  0.9335
  919MOL0     O23938   4.316   4.931   4.334  0.3667 -0.0003  0.5419
  919MOL0     C23939   4.289   4.825   4.430 -0.4006 -1.0769  0.6690
  919MOL0     C23940   4.408   4.824   4.527  0.4103 -0.2979 -0.1615
  919MOL0     C23941   4.425   4.681   4.581  0.4386 -0.3653  0.5996
  919MOL0     C23942   4.498   4.691   4.717 -0.5118  0.2396  0.6124
  919MOL0     C23943   4.535   4.558   4.787 -0.6613 -1.4274 -0.7931
  919MOL0     C23944   4.648   4.578   4.889 -0.4930  0.4949  0.9425
  919MOL0     C23945   4.710   4.442   4.941  0.2019 -0.3799 -0.0768
  919MOL0     C23946   4.733   4.326   4.840  1.0588  0.4498 -0.5033
  919MOL0     N23947   4.796   4.203   4.893 -0.3761 -0.2152  0.1560
  919MOL0     C23948   4.922   4.202   4.946 -0.6638  0.3299  0.1201
  919MOL0     C23949   4.952   4.074   4.975 -0.2574 -0.2492  0.1650
  919MOL0     C23950   5.078   4.004   5.033  0.3701 -0.0266 -0.4883
  919MOL0     C23951   5.065   4.014   5.189 -0.6255  0.5270  0.4105
  919MOL0     C23952   5.182   3.960   5.268  0.4845 -0.3034 -0.7414
  919MOL0     C23953   5.306   4.047   5.277  0.6592  0.1793  0.2980
  919MOL0     O23954   5.384   4.019   5.160 -0.1755  0.3112  0.3761
  919MOL0     C23955   5.481   4.117   5.146  0.3544  0.6060  0.2610
  919MOL0     C23956   5.530   4.204   5.244 -0.3966  0.6177  0.3789
  919MOL0     C23957   5.640   4.289   5.226  0.2586 -0.5712  0.2505
  919MOL0     C23958   5.680   4.366   5.350  0.3515 -0.0415 -0.0418
  919MOL0     C23959   5.697   4.302   5.106  0.0420 -0.8136  2.0752
  919MOL0     C23960   5.820   4.393   5.080  0.4822  0.3823  0.1432
  919MOL0     O23961   5.817   4.456   4.958 -0.2644  0.2744 -0.3734
  919MOL0     C23962   5.943   4.521   4.936 -0.8585  0.7503 -0.8480
  919MOL0     C23963   6.058   4.447   4.911 -0.5475  0.6994  0.5374
  919MOL0     C23964   6.187   4.501   4.911 -0.1183 -0.3063 -1.0550
  919MOL0     C23965   6.200   4.647   4.926 -0.5966  0.6575  0.1580
  919MOL0     O23966   6.309   4.723   4.933 -0.8201  0.1444 -0.3215
  919MOL0     C23967   6.448   4.676   4.925  0.0171  0.6671 -0.0516
  919MOL0     C23968   6.537   4.747   4.830 -0.2582  0.6467  1.0297
  919MOL0     C23969   6.563   4.888   4.895 -0.3151 -0.0119 -0.2748
  919MOL0     C23970   6.575   5.007   4.799  0.0411  0.9406  1.0062
  919MOL0     C23971   6.711   5.039   4.728  0.5950  0.5310  0.2151
  919MOL0     C23972   6.847   5.047   4.801  0.2843 -0.0276 -0.4195
  919MOL0     C23973   6.824   5.149   4.914  0.5336  0.1108 -0.4264
  919MOL0     C23974   6.969   5.202   4.948 -0.0851 -0.3162 -0.2151
  919MOL0    Cl23975   6.970   5.337   5.064  0.1484 -0.3542  0.5691
  919MOL0     C23976   6.087   4.726   4.944  0.4411 -0.2130  0.2045
  919MOL0     C23977   5.962   4.665   4.947 -0.0133  0.2330  0.1250
  919MOL0     O23978   5.900   4.418   5.168  0.3578  0.3856 -0.0336
  919MOL0     C23979   5.651   4.219   5.004  0.0186 -0.1578  0.1157
  919MOL0     C23980   5.546   4.126   5.022 -0.1144 -0.6757 -0.5108
  919MOL0     N23981   4.843   3.997   4.948  1.0089  0.3959  0.0212
  919MOL0     N23982   4.748   4.074   4.893  0.1419 -0.7273 -0.4130
  919MOL0     C23983   4.089   5.001   4.284  0.5072 -0.4476  0.2167
  919MOL0     C23984   3.991   4.990   4.183 -0.0098  0.2020  1.0589
  919MOL0     C23985   3.795   5.131   3.833 -0.0647  0.7462 -0.1920
  919MOL0     C23986   3.741   5.260   3.809 -0.1167 -0.7040  0.1312
  919MOL0     C23987   3.634   5.278   3.715 -0.1686 -0.2835  0.0716
  919MOL0     C23988   3.591   5.175   3.629  0.2014  0.7926 -0.6689
  919MOL0     O23989   3.513   5.194   3.517 -0.0849  1.0247  1.3462
  919MOL0     C23990   3.527   5.321   3.452  0.8729  0.4411  0.3381
  919MOL0     C23991   3.457   5.316   3.315 -0.2081 -0.4130 -0.2684
  919MOL0     C23992   3.530   5.221   3.226  0.3678  0.0292 -0.0626
  919MOL0     C23993   3.661   5.271   3.165 -0.1914  0.9718  0.2483
  919MOL0     C23994   3.622   5.355   3.051 -0.9455 -0.2905  0.4616
  919MOL0     C23995   3.572   5.401   2.946  0.4772 -0.2727 -0.3320
  919MOL0     C23996   3.640   5.043   3.664  0.6911  0.2537 -0.3738
  919MOL0     C23997   3.735   5.023   3.759 -0.3372 -0.6014  0.6600
  919MOL0     H23998   4.159   4.890   3.910 -1.1747  2.8250 -0.7581
  919MOL0     H23999   4.349   4.896   4.082  0.4357  1.8925  0.3918
  919MOL0     H24000   4.198   4.832   4.491  1.8127 -1.7564  4.3520
  919MOL0     H24001   4.268   4.739   4.366 -0.0966  0.8936 -2.2565
  919MOL0     H24002   4.502   4.866   4.489 -0.4201  2.5344  0.6871
  919MOL0     H24003   4.376   4.886   4.611 -0.1231 -3.6919  2.3367
  919MOL0     H24004   4.328   4.632   4.591  0.1450  0.3129  1.2111
  919MOL0     H24005   4.472   4.622   4.502  0.1538  0.0292  0.1253
  919MOL0     H24006   4.585   4.755   4.698 -0.5750  0.5633  1.3815
  919MOL0     H24007   4.443   4.752   4.788  0.2154  2.6028 -0.7334
  919MOL0     H24008   4.451   4.505   4.833 -3.5391  2.0220 -1.6044
  919MOL0     H24009   4.569   4.506   4.697  1.7794  2.6610 -2.4580
  919MOL0     H24010   4.728   4.634   4.840 -2.3295 -0.7566 -4.0142
  919MOL0     H24011   4.615   4.642   4.971  0.6177  0.6396  1.3042
  919MOL0     H24012   4.804   4.454   4.995  0.7682 -0.2740 -1.0641
  919MOL0     H24013   4.631   4.405   5.007  0.0773 -1.2456 -0.6858
  919MOL0     H24014   4.799   4.367   4.763  1.8701 -0.0691 -0.0985
  919MOL0     H24015   4.644   4.296   4.782 -0.2332  0.9202  1.1573
  919MOL0     H24016   4.999   4.278   4.957  0.7225 -0.5739 -2.5565
  919MOL0     H24017   5.094   3.903   4.996 -1.8976 -0.2138 -1.0710
  919MOL0     H24018   5.165   4.064   5.004 -0.0636  1.2417  0.7140
  919MOL0     H24019   4.981   3.958   5.229  1.6777 -0.8950  3.7422
  919MOL0     H24020   5.049   4.117   5.223 -0.1237  1.6801 -2.5776
  919MOL0     H24021   5.200   3.859   5.229  0.3077 -1.6748  2.3946
  919MOL0     H24022   5.152   3.937   5.371  1.8135  2.2735  0.3180
  919MOL0     H24023   5.359   4.005   5.363  0.9439  0.9376  0.4970
  919MOL0     H24024   5.287   4.154   5.290  0.7363  0.4476 -1.5472
  919MOL0     H24025   5.492   4.192   5.345  2.5814  0.6474  1.6168
  919MOL0     H24026   5.777   4.333   5.389  0.3875  1.7547  1.5454
  919MOL0     H24027   5.682   4.474   5.331  0.8984  0.4139  2.2369
  919MOL0     H24028   5.593   4.360   5.417  0.5020  1.1146  0.2859
  919MOL0     H24029   6.045   4.341   4.897  0.8340  0.4003  1.3186
  919MOL0     H24030   6.269   4.434   4.885  1.3044  1.6475 -1.8712
  919MOL0     H24031   6.486   4.675   5.027 -2.3039  1.5372  0.9004
  919MOL0     H24032   6.453   4.574   4.886  4.4650  0.0426  1.5935
  919MOL0     H24033   6.627   4.686   4.824 -1.2347 -0.7260 -1.0245
  919MOL0     H24034   6.500   4.750   4.727  1.7115 -1.0564  0.1897
  919MOL0     H24035   6.655   4.888   4.955  0.7208 -0.1060 -1.8069
  919MOL0     H24036   6.478   4.912   4.959 -1.0036 -3.3626  0.2702
  919MOL0     H24037   6.506   4.986   4.717  0.6129  0.6381  0.5957
  919MOL0     H24038   6.546   5.090   4.864 -0.2067  0.5929  1.3450
  919MOL0     H24039   6.682   5.134   4.682  2.0301  0.7543 -0.2693
  919MOL0     H24040   6.738   4.971   4.647  0.7535  0.4235  0.3579
  919MOL0     H24041   6.880   4.952   4.843  2.6800 -1.1111 -4.3183
  919MOL0     H24042   6.930   5.065   4.733 -0.7388 -0.0812 -1.7324
  919MOL0     H24043   6.781   5.100   5.001  0.4398 -0.5501 -0.8392
  919MOL0     H24044   6.758   5.230   4.884 -1.6597 -2.5509 -3.4727
  919MOL0     H24045   7.017   5.237   4.856  0.2901 -1.4124 -0.4561
  919MOL0     H24046   7.023   5.122   4.999 -1.5622  0.5229  2.8924
  919MOL0     H24047   6.091   4.832   4.966  0.1638  0.0053 -0.7485
  919MOL0     H24048   5.881   4.736   4.964 -1.0975 -0.6552 -1.1357
  919MOL0     H24049   5.706   4.218   4.910  1.3762  0.8254  0.8744
  919MOL0     H24050   5.506   4.071   4.938 -2.6444 -0.8441  0.7159
  919MOL0     H24051   4.055   5.022   4.385 -1.6363 -3.6007  0.3140
  919MOL0     H24052   3.894   5.037   4.200 -0.2358  0.0366  0.2872
  919MOL0     H24053   3.771   5.353   3.858  1.3631 -0.6950 -0.7332
  919MOL0     H24054   3.594   5.379   3.712  1.9084  0.6399  1.1321
  919MOL0     H24055   3.478   5.396   3.515  0.5913  0.8535 -0.3631
  919MOL0     H24056   3.632   5.346   3.440  1.0013  1.2261  2.6477
  919MOL0     H24057   3.474   5.406   3.255  1.5651  0.5127  1.4967
  919MOL0     H24058   3.349   5.302   3.327 -0.6129  2.0866 -0.2757
  919MOL0     H24059   3.456   5.203   3.147 -2.0875  1.6988  1.7123
  919MOL0     H24060   3.550   5.136   3.291 -1.8852  0.2340  1.0068
  919MOL0     H24061   3.719   5.190   3.120 -3.7438 -0.4486 -2.1978
  919MOL0     H24062   3.714   5.329   3.242 -0.8257  1.0576  0.6243
  919MOL0     H24063   3.526   5.417   2.850  1.8304  2.0491 -0.6650
  919MOL0     H24064   3.604   4.950   3.622 -4.1803  2.1985 -1.1850
  919MOL0     H24065   3.778   4.929   3.793 -2.3340 -1.1750  1.7675
  920MOL0     O24066   6.079   0.038   0.497 -0.3623  0.0144  1.1711
  920MOL0     C24067   6.126   0.018   0.387 -0.1776  0.5857  0.3907
  920MOL0     O24068   6.052  -0.059   0.291 -0.1424 -0.1113 -0.9908
  920MOL0     C24069   5.918  -0.090   0.305 -0.3639 -0.9261  1.0625
  920MOL0     C24070   5.821  -0.014   0.371  0.4273 -0.2035 -0.6873
  920MOL0     C24071   5.685  -0.042   0.354  0.1221  0.0361 -1.1152
  920MOL0     C24072   5.644  -0.155   0.290  1.0302  0.4441 -0.4938
  920MOL0     O24073   5.511  -0.188   0.285 -0.0173 -0.4447  0.8033
  920MOL0     C24074   5.418  -0.122   0.375 -0.6290 -0.3389 -0.2879
  920MOL0     C24075   5.281  -0.179   0.371 -0.6349  0.4479 -0.5956
  920MOL0     C24076   5.197  -0.084   0.456 -0.6037  0.4308 -0.6053
  920MOL0     C24077   5.245  -0.051   0.599  0.3858  0.2149 -0.2417
  920MOL0     C24078   5.126  -0.005   0.677  0.3426  0.0760 -0.5686
  920MOL0     C24079   5.159   0.014   0.826 -0.0954  0.0802 -0.6831
  920MOL0     C24080   5.111  -0.091   0.921  0.1801  0.7625 -0.4436
  920MOL0     C24081   5.139  -0.229   0.878  0.3554  0.6503 -0.7413
  920MOL0     N24082   5.120  -0.319   0.999 -0.5670  0.2711 -0.6637
  920MOL0     C24083   5.222  -0.362   1.087  0.2770  0.3724 -0.1463
  920MOL0     C24084   5.164  -0.468   1.153  0.5936 -0.0720 -0.5709
  920MOL0     C24085   5.245  -0.565   1.240  0.3497  0.3380  0.7019
  920MOL0     C24086   5.199  -0.544   1.384 -1.0395  0.7742 -0.0216
  920MOL0     C24087   5.270  -0.662   1.466  0.0194 -1.0090  0.2900
  920MOL0     C24088   5.218  -0.792   1.463  0.1790 -0.6698  0.2234
  920MOL0     O24089   5.080  -0.791   1.506 -0.4264  0.1374  0.3336
  920MOL0     C24090   5.010  -0.904   1.537  0.0629  0.1959 -0.3972
  920MOL0     C24091   4.877  -0.886   1.583 -0.8591  0.2978  0.1161
  920MOL0     C24092   4.806  -0.992   1.640  1.0620 -0.2797  0.4248
  920MOL0     C24093   4.658  -0.958   1.668  0.0421 -0.0150  0.7357
  920MOL0     C24094   4.861  -1.120   1.659 -0.0683  0.3546 -0.3752
  920MOL0     C24095   4.804  -1.235   1.730  0.5337  0.4783  0.0673
  920MOL0     O24096   4.716  -1.183   1.824 -0.1349 -0.8354  0.0518
  920MOL0     C24097   4.659  -1.261   1.913  0.0138  0.3749 -0.2365
  920MOL0     C24098   4.524  -1.267   1.905  0.2000 -0.1728 -0.3575
  920MOL0     C24099   4.448  -1.339   1.997 -0.8640 -0.2917  0.4517
  920MOL0     C24100   4.513  -1.406   2.103  0.0252  0.7980 -0.0091
  920MOL0     O24101   4.437  -1.477   2.195 -0.0018 -0.2688 -0.1363
  920MOL0     C24102   4.477  -1.502   2.328 -0.0496 -0.6090  0.1247
  920MOL0     C24103   4.516  -1.650   2.345  0.0391  0.3585 -0.0225
  920MOL0     C24104   4.539  -1.709   2.484 -1.4010 -0.5578  0.1586
  920MOL0     C24105   4.413  -1.716   2.574 -0.3554 -0.3324  0.3912
  920MOL0     C24106   4.412  -1.825   2.688  0.1797 -0.8930 -0.0105
  920MOL0     C24107   4.487  -1.952   2.651  0.6459  0.3400 -0.7624
  920MOL0     C24108   4.472  -2.073   2.742  1.0233  0.6185  0.4172
  920MOL0     C24109   4.537  -2.054   2.875  0.0253  0.3290  0.6294
  920MOL0    Cl24110   4.711  -2.081   2.852 -0.3136 -0.0093 -0.0204
  920MOL0     C24111   4.655  -1.414   2.105 -0.0599  0.5666  0.5701
  920MOL0     C24112   4.721  -1.328   2.006 -0.2067  0.2425  0.1078
  920MOL0     O24113   4.835  -1.351   1.712  0.0188 -0.0168  0.5631
  920MOL0     C24114   4.993  -1.141   1.610  0.1462 -0.2532 -0.6914
  920MOL0     C24115   5.064  -1.037   1.553 -0.5008  0.0359 -0.3272
  920MOL0     N24116   5.031  -0.469   1.113 -0.4007  0.6149  0.3236
  920MOL0     N24117   5.005  -0.375   1.033  0.1447 -0.2790 -0.2108
  920MOL0     C24118   5.740  -0.250   0.239 -1.5969 -0.5127 -0.3319
  920MOL0     C24119   5.872  -0.216   0.248  0.1344 -0.0695 -0.7345
  920MOL0     C24120   6.268   0.034   0.353 -1.0670 -0.5760  0.5022
  920MOL0     C24121   6.361   0.097   0.439  0.2408  0.1960  0.5122
  920MOL0     C24122   6.489   0.129   0.407  0.6348 -0.5098 -0.3167
  920MOL0     C24123   6.544   0.076   0.290 -0.6586 -1.1620  0.0357
  920MOL0     O24124   6.681   0.093   0.278 -0.0224  0.3825 -0.3564
  920MOL0     C24125   6.757  -0.031   0.302  0.3542 -0.1811 -0.0092
  920MOL0     C24126   6.896  -0.021   0.244  0.5068  1.2972 -0.3056
  920MOL0     C24127   6.886  -0.056   0.095 -0.8624  0.3561  0.0709
  920MOL0     C24128   7.014  -0.098   0.026  0.3455  0.1907  0.0913
  920MOL0     C24129   7.135  -0.002   0.029  0.0595 -0.1179  0.1107
  920MOL0     C24130   7.209   0.098   0.042 -0.4240 -0.7544  0.3924
  920MOL0     C24131   6.464   0.006   0.201  0.7798  0.4612  0.0523
  920MOL0     C24132   6.326  -0.011   0.234 -0.5366 -1.0319  0.2280
  920MOL0     H24133   5.847   0.083   0.412 -0.7341 -0.1655  0.0317
  920MOL0     H24134   5.606   0.024   0.388 -0.7061 -0.4035 -2.1403
  920MOL0     H24135   5.450  -0.139   0.478 -1.0305  2.1548  0.3184
  920MOL0     H24136   5.420  -0.017   0.343  0.0294 -1.2470 -3.5932
  920MOL0     H24137   5.240  -0.175   0.270  2.3720 -0.0600 -1.9479
  920MOL0     H24138   5.281  -0.283   0.407 -0.7003  0.5653 -0.2539
  920MOL0     H24139   5.180   0.015   0.413 -1.6742  0.7960  0.6085
  920MOL0     H24140   5.100  -0.135   0.446 -0.2986  0.3077 -4.5677
  920MOL0     H24141   5.294  -0.144   0.629 -2.5257 -1.5649 -0.6241
  920MOL0     H24142   5.332   0.015   0.611  0.7519 -0.5438  1.6996
  920MOL0     H24143   5.101   0.092   0.635 -4.9939 -1.1534 -0.8714
  920MOL0     H24144   5.043  -0.074   0.661  1.4117 -0.6178 -3.7869
  920MOL0     H24145   5.265   0.027   0.848 -0.2975  1.1794 -0.2795
  920MOL0     H24146   5.115   0.109   0.859 -0.4476 -0.3969  0.2475
  920MOL0     H24147   5.159  -0.078   1.018  3.6348 -0.9590 -1.7551
  920MOL0     H24148   5.002  -0.082   0.929  0.0570 -1.5868  1.5290
  920MOL0     H24149   5.235  -0.262   0.835  0.4431  0.6547 -0.5517
  920MOL0     H24150   5.064  -0.247   0.801 -2.7539 -1.8591  2.5304
  920MOL0     H24151   5.324  -0.326   1.088  1.1522 -1.9018 -1.2193
  920MOL0     H24152   5.235  -0.668   1.206  2.3156  0.8728 -1.8641
  920MOL0     H24153   5.352  -0.548   1.223  0.6460 -0.0573  2.0685
  920MOL0     H24154   5.090  -0.554   1.381 -1.0040  0.2522  0.4350
  920MOL0     H24155   5.236  -0.451   1.429  0.3873 -0.1657  0.8244
  920MOL0     H24156   5.276  -0.632   1.571  4.4485 -1.7245  0.4487
  920MOL0     H24157   5.371  -0.659   1.423 -0.6774  2.5103 -1.4852
  920MOL0     H24158   5.269  -0.853   1.539 -0.8961  0.6329  2.0663
  920MOL0     H24159   5.234  -0.836   1.364 -0.3554 -0.9385  0.2543
  920MOL0     H24160   4.840  -0.787   1.561  1.7505  1.0140 -1.4919
  920MOL0     H24161   4.585  -1.039   1.652 -2.5603  2.0902  1.3018
  920MOL0     H24162   4.654  -0.927   1.773 -2.0681  0.5646  0.5375
  920MOL0     H24163   4.619  -0.868   1.621 -1.9002 -0.3957  1.4750
  920MOL0     H24164   4.478  -1.215   1.822  0.9565 -0.4083 -0.9409
  920MOL0     H24165   4.340  -1.347   1.985 -1.2876  2.1604  1.9931
  920MOL0     H24166   4.558  -1.433   2.354 -0.0692 -0.2148 -0.8199
  920MOL0     H24167   4.393  -1.476   2.393  1.4927  4.1066  0.6503
  920MOL0     H24168   4.436  -1.701   2.290 -0.3985  0.2712  0.6947
  920MOL0     H24169   4.605  -1.669   2.284 -1.0662 -1.2615 -1.2246
  920MOL0     H24170   4.618  -1.655   2.537 -3.0997  2.4822 -0.1529
  920MOL0     H24171   4.574  -1.809   2.458 -2.1411 -0.8734  0.3618
  920MOL0     H24172   4.392  -1.618   2.618 -1.1200 -0.4354  0.2666
  920MOL0     H24173   4.323  -1.730   2.513 -0.2255 -0.0313  0.1244
  920MOL0     H24174   4.306  -1.838   2.712 -0.3785  1.4162 -0.9164
  920MOL0     H24175   4.459  -1.781   2.777 -1.0023 -3.3873  1.9877
  920MOL0     H24176   4.446  -1.991   2.558  0.9543  0.3606 -0.9089
  920MOL0     H24177   4.594  -1.931   2.640  0.9141 -1.0850 -0.9958
  920MOL0     H24178   4.509  -2.164   2.694  2.7513  2.3811 -1.8286
  920MOL0     H24179   4.370  -2.108   2.759  1.3476 -1.5796 -1.6954
  920MOL0     H24180   4.511  -2.118   2.960 -0.2406 -0.0707  0.2490
  920MOL0     H24181   4.520  -1.950   2.903  2.1611  0.9803 -0.2654
  920MOL0     H24182   4.724  -1.463   2.173 -0.8344  1.9958  2.4778
  920MOL0     H24183   4.830  -1.331   2.012  0.0558 -5.1637 -1.6278
  920MOL0     H24184   5.039  -1.239   1.618 -1.4666 -0.9283  0.7536
  920MOL0     H24185   5.160  -1.064   1.511 -1.2139 -1.0328 -1.3275
  920MOL0     H24186   5.704  -0.342   0.194  1.4908 -1.8028 -0.3893
  920MOL0     H24187   5.952  -0.275   0.203  0.4012  0.8696 -1.5490
  920MOL0     H24188   6.315   0.116   0.535 -2.0117  1.6186 -0.7293
  920MOL0     H24189   6.550   0.185   0.477 -1.4676  0.5310  0.7497
  920MOL0     H24190   6.759  -0.049   0.410  1.0478  2.3146  0.4633
  920MOL0     H24191   6.693  -0.107   0.256 -0.2964 -0.2236  0.9367
  920MOL0     H24192   6.965  -0.096   0.284 -0.3474  1.4451  1.5346
  920MOL0     H24193   6.945   0.076   0.257  0.1359  1.4120  0.2523
  920MOL0     H24194   6.852   0.036   0.046 -0.1907  0.9798  0.7454
  920MOL0     H24195   6.818  -0.141   0.084  1.5982 -1.7281  0.0870
  920MOL0     H24196   7.000  -0.119  -0.080  0.8990 -2.1807  0.4175
  920MOL0     H24197   7.050  -0.195   0.063  0.1034  1.5571  4.5391
  920MOL0     H24198   7.278   0.180   0.056 -0.1591 -0.4680 -2.0661
  920MOL0     H24199   6.511  -0.040   0.115  0.3954 -2.2337  1.1718
  920MOL0     H24200   6.267  -0.071   0.166  0.7283 -1.1612 -0.7812
  921MOL0     O24201  10.919   2.874   5.213 -0.7014  0.5155  0.8497
  921MOL0     C24202  10.979   2.804   5.124  0.3319  0.4318  0.3927
  921MOL0     O24203  11.027   2.854   5.007  0.4459  0.6239 -0.1124
  921MOL0     C24204  10.999   2.981   4.973 -0.1897 -0.1989  0.6552
  921MOL0     C24205  11.092   3.058   4.901 -0.1014  0.2877 -0.3280
  921MOL0     C24206  11.078   3.183   4.869 -0.0177 -0.0559 -0.0379
  921MOL0     C24207  10.967   3.260   4.891  0.5778  0.7682 -0.3199
  921MOL0     O24208  10.937   3.394   4.852 -0.1091 -0.5842 -0.9227
  921MOL0     C24209  11.025   3.449   4.755  0.4567 -0.6330  0.0152
  921MOL0     C24210  11.145   3.528   4.811  0.4268  0.9881 -0.5330
  921MOL0     C24211  11.091   3.670   4.838  0.3266  0.0243 -0.7503
  921MOL0     C24212  11.088   3.765   4.720  0.2819  0.4564 -0.0762
  921MOL0     C24213  11.097   3.910   4.769 -0.8615  1.0338 -0.7922
  921MOL0     C24214  11.110   4.000   4.648 -0.9143  1.0596  0.1715
  921MOL0     C24215  11.118   4.156   4.671 -0.7870  0.3945  0.5365
  921MOL0     C24216  11.145   4.241   4.539  0.1082  0.0089  0.3203
  921MOL0     N24217  11.050   4.200   4.433  0.6023  0.4183 -0.5969
  921MOL0     C24218  10.917   4.219   4.434  0.0214 -0.7784 -0.6649
  921MOL0     C24219  10.872   4.160   4.326 -0.1536  0.2571 -0.3159
  921MOL0     C24220  10.728   4.181   4.278  0.1036  0.3352  0.0122
  921MOL0     C24221  10.698   4.299   4.183 -0.4297 -0.2521 -0.4876
  921MOL0     C24222  10.725   4.271   4.039 -0.2278 -0.0350 -0.8245
  921MOL0     C24223  10.715   4.412   3.967 -0.1590  0.4720 -0.1931
  921MOL0     O24224  10.840   4.489   3.971  0.5822  0.6803  0.7987
  921MOL0     C24225  10.836   4.603   3.889  0.3650 -0.7935  0.2917
  921MOL0     C24226  10.957   4.638   3.832  0.0568  0.5886 -0.6863
  921MOL0     C24227  10.969   4.757   3.766 -1.2365 -0.3830  0.3485
  921MOL0     C24228  11.115   4.795   3.738 -0.0653  0.1805 -0.3484
  921MOL0     C24229  10.855   4.840   3.742  0.7333 -0.0951 -0.2253
  921MOL0     C24230  10.851   4.951   3.646 -0.5342 -0.3741 -0.6888
  921MOL0     O24231  10.740   4.972   3.576  1.3195  1.0312 -0.3247
  921MOL0     C24232  10.735   5.078   3.492 -0.3346 -0.3199 -0.0163
  921MOL0     C24233  10.701   5.061   3.351  0.7694  0.6451 -0.7132
  921MOL0     C24234  10.700   5.163   3.259  0.0523  0.7632 -0.1842
  921MOL0     C24235  10.727   5.293   3.311  0.5099 -0.9524 -0.4924
  921MOL0     O24236  10.747   5.403   3.235  1.1009 -0.4989 -0.1480
  921MOL0     C24237  10.720   5.391   3.086 -0.4604  0.0435  0.2824
  921MOL0     C24238  10.763   5.520   3.022  0.3270 -0.1801  0.5736
  921MOL0     C24239  10.914   5.508   3.021 -0.0091  0.2221  0.2411
  921MOL0     C24240  10.963   5.421   2.908 -0.7970 -0.0473  0.2244
  921MOL0     C24241  11.117   5.427   2.885  0.1199 -0.0790  0.0542
  921MOL0     C24242  11.163   5.325   2.781 -0.1984 -0.7776  0.5505
  921MOL0     C24243  11.318   5.326   2.790  0.1341 -0.5240  0.2634
  921MOL0     C24244  11.377   5.239   2.914 -0.5660 -0.8282 -0.0177
  921MOL0    Cl24245  11.329   5.060   2.903 -0.0548 -0.1827  0.4616
  921MOL0     C24246  10.749   5.317   3.445  0.0355  0.0009 -0.0376
  921MOL0     C24247  10.747   5.211   3.537  0.4056  0.4810 -0.3308
  921MOL0     O24248  10.946   5.027   3.651 -0.4399  0.3537 -0.4739
  921MOL0     C24249  10.731   4.806   3.812  0.1525  0.5697  1.0635
  921MOL0     C24250  10.725   4.683   3.888 -0.1118 -0.7763 -0.0916
  921MOL0     N24251  10.975   4.098   4.264 -0.9285 -0.2218 -0.2096
  921MOL0     N24252  11.079   4.119   4.332 -0.1399 -0.0692 -0.1726
  921MOL0     C24253  10.869   3.191   4.959  0.7654  0.6876 -0.7227
  921MOL0     C24254  10.884   3.053   4.995 -0.1675  0.1934 -0.2987
  921MOL0     C24255  10.975   2.648   5.134 -0.3238 -0.1365 -1.1535
  921MOL0     C24256  11.002   2.563   5.035 -0.0241 -0.3985 -1.0957
  921MOL0     C24257  10.965   2.425   5.038 -0.9700  0.9818 -0.8005
  921MOL0     C24258  10.927   2.365   5.161 -0.2898  0.3105 -0.7028
  921MOL0     O24259  10.915   2.226   5.174  0.4557  0.6083  0.4535
  921MOL0     C24260  10.956   2.141   5.068 -0.1933  0.0107 -0.3985
  921MOL0     C24261  10.956   1.990   5.116  0.0211 -0.0198 -1.0252
  921MOL0     C24262  10.813   1.955   5.152  0.5913 -0.4832 -0.6833
  921MOL0     C24263  10.800   1.806   5.184  0.0194  0.0875  0.0965
  921MOL0     C24264  10.793   1.724   5.055  0.5732 -0.4305 -0.8577
  921MOL0     C24265  10.801   1.683   4.938 -0.5715  0.4703 -0.2710
  921MOL0     C24266  10.909   2.447   5.277  0.3240  0.1946 -0.1073
  921MOL0     C24267  10.932   2.589   5.256 -0.5156  0.3026  0.0294
  921MOL0     H24268  11.187   3.017   4.867  0.5792  2.0773 -0.7568
  921MOL0     H24269  11.171   3.212   4.821  0.0835 -2.1903 -1.2610
  921MOL0     H24270  11.048   3.374   4.678 -2.9722 -1.4344 -0.4075
  921MOL0     H24271  10.966   3.515   4.691  0.9377 -2.0694 -1.9999
  921MOL0     H24272  11.178   3.476   4.902  0.9506  1.9292 -0.1662
  921MOL0     H24273  11.227   3.519   4.740  0.3212  2.0308 -0.8121
  921MOL0     H24274  10.995   3.680   4.889 -0.2805 -0.4517 -1.7714
  921MOL0     H24275  11.167   3.706   4.908 -1.5295 -1.2206  2.1161
  921MOL0     H24276  11.169   3.731   4.654  1.1374 -1.1798  1.7260
  921MOL0     H24277  10.997   3.748   4.661 -1.8277 -0.0391  3.0935
  921MOL0     H24278  11.004   3.944   4.816  0.3258  0.5946  2.0611
  921MOL0     H24279  11.177   3.918   4.842 -0.8537  0.7472 -0.7684
  921MOL0     H24280  11.205   3.989   4.595 -0.9270  3.3883 -0.4374
  921MOL0     H24281  11.036   3.970   4.573  0.4077 -2.3472  0.0465
  921MOL0     H24282  11.022   4.192   4.707 -0.9901  0.1163  0.2754
  921MOL0     H24283  11.195   4.183   4.744 -0.6165 -0.2604  0.6067
  921MOL0     H24284  11.243   4.219   4.496 -0.6895  0.0589 -1.6453
  921MOL0     H24285  11.152   4.350   4.537  1.1073 -0.0449 -1.1591
  921MOL0     H24286  10.873   4.294   4.499 -0.7771 -1.2350 -0.6712
  921MOL0     H24287  10.694   4.089   4.228  0.3248 -0.6065  1.5228
  921MOL0     H24288  10.657   4.193   4.361 -2.1448  1.6350 -1.9688
  921MOL0     H24289  10.759   4.383   4.218 -2.6677  1.7141 -1.0741
  921MOL0     H24290  10.593   4.325   4.196 -0.3957 -1.4608  3.8976
  921MOL0     H24291  10.649   4.199   4.010  0.6588 -1.5385  0.4389
  921MOL0     H24292  10.826   4.229   4.031  0.2543  0.7147  0.7955
  921MOL0     H24293  10.632   4.467   4.012 -2.2819 -2.8587  0.2574
  921MOL0     H24294  10.690   4.398   3.862 -3.1441 -0.1441  0.5245
  921MOL0     H24295  11.039   4.572   3.858  2.2444  2.5489 -2.2316
  921MOL0     H24296  11.133   4.796   3.630  0.7151 -1.0147 -0.2486
  921MOL0     H24297  11.140   4.895   3.774 -0.9667  1.0782 -2.0959
  921MOL0     H24298  11.175   4.714   3.781  0.2004  0.3122 -0.4704
  921MOL0     H24299  10.678   4.958   3.329 -2.0473  0.0348  3.6638
  921MOL0     H24300  10.687   5.139   3.154 -0.4921  0.4304 -0.0440
  921MOL0     H24301  10.770   5.303   3.045  1.9566  0.5420  1.9441
  921MOL0     H24302  10.613   5.373   3.073 -0.0616 -1.8417 -0.8508
  921MOL0     H24303  10.723   5.520   2.920  0.3419  2.1315  0.5208
  921MOL0     H24304  10.729   5.614   3.066  0.0025  0.7794 -1.5552
  921MOL0     H24305  10.952   5.468   3.115 -1.5728 -1.2845  0.2896
  921MOL0     H24306  10.948   5.610   3.004 -1.5864  0.6364 -0.6774
  921MOL0     H24307  10.944   5.314   2.917  2.2774 -0.8707 -1.6121
  921MOL0     H24308  10.917   5.449   2.813  1.3095 -1.4841 -1.2999
  921MOL0     H24309  11.158   5.399   2.983 -0.0581  0.0483  0.1668
  921MOL0     H24310  11.143   5.528   2.851 -2.7212  1.4108  1.8230
  921MOL0     H24311  11.129   5.221   2.788  2.1742 -1.5510  1.6645
  921MOL0     H24312  11.134   5.375   2.688 -3.5243 -0.4131  1.6512
  921MOL0     H24313  11.350   5.431   2.799 -0.7713  0.1563 -3.1689
  921MOL0     H24314  11.360   5.290   2.696 -0.6329 -1.5528  0.2940
  921MOL0     H24315  11.348   5.283   3.009  0.6421 -1.8090  0.8363
  921MOL0     H24316  11.486   5.237   2.926 -0.5201 -0.3137 -0.3360
  921MOL0     H24317  10.768   5.419   3.475  2.3396 -0.1616 -0.7774
  921MOL0     H24318  10.776   5.220   3.641  1.1787 -2.2202 -0.2495
  921MOL0     H24319  10.645   4.871   3.820 -2.2537 -1.9210 -1.6851
  921MOL0     H24320  10.637   4.677   3.951  0.0023  2.0121  0.4749
  921MOL0     H24321  10.774   3.241   4.980 -1.5859 -2.6473 -2.4559
  921MOL0     H24322  10.801   3.005   5.046  0.2133  2.9284  3.2808
  921MOL0     H24323  11.039   2.599   4.939 -1.4139 -0.5005 -1.6988
  921MOL0     H24324  10.992   2.368   4.950  0.2179 -0.6680  0.5560
  921MOL0     H24325  10.895   2.150   4.977 -0.8635 -2.4088 -0.2624
  921MOL0     H24326  11.060   2.166   5.042 -0.0319 -1.8661 -1.7490
  921MOL0     H24327  11.020   1.978   5.204  0.4832 -1.5064 -1.5355
  921MOL0     H24328  10.996   1.927   5.036  1.2655  3.7041 -3.6453
  921MOL0     H24329  10.739   1.986   5.077 -0.2556 -0.6906  0.0566
  921MOL0     H24330  10.788   2.008   5.244 -3.5866 -1.2693 -1.1579
  921MOL0     H24331  10.703   1.793   5.233  0.2619  1.4612  1.0030
  921MOL0     H24332  10.876   1.770   5.254 -1.0043  1.7485  2.2036
  921MOL0     H24333  10.818   1.653   4.836  3.2273  0.6246  0.1978
  921MOL0     H24334  10.895   2.420   5.381  0.8477  0.4381  0.0340
  921MOL0     H24335  10.921   2.653   5.342  1.4850  1.2370 -0.3454
  922MOL0     O24336   5.619  10.820   4.330  0.4211  0.8586 -0.9699
  922MOL0     C24337   5.519  10.775   4.389 -0.5628 -1.0150 -0.7221
  922MOL0     O24338   5.495  10.806   4.523 -0.1338  0.3239 -0.0720
  922MOL0     C24339   5.600  10.816   4.614 -0.4155  0.5517 -0.0515
  922MOL0     C24340   5.567  10.879   4.731 -0.2687 -0.9258  0.7878
  922MOL0     C24341   5.649  10.871   4.843 -0.0931 -0.3747 -1.1837
  922MOL0     C24342   5.782  10.814   4.838  0.2903  0.0210  0.3283
  922MOL0     O24343   5.861  10.827   4.949  0.4012 -0.6026  0.0391
  922MOL0     C24344   5.910  10.714   5.024  0.2221  0.2802  0.1612
  922MOL0     C24345   6.049  10.724   5.105 -0.2744  0.7965  0.0873
  922MOL0     C24346   6.142  10.830   5.052 -0.0298 -1.2741 -0.7023
  922MOL0     C24347   6.206  10.789   4.926  0.3463 -0.3047  0.0408
  922MOL0     C24348   6.287  10.910   4.868 -0.5839  0.0439 -0.1958
  922MOL0     C24349   6.400  10.873   4.774 -0.0441  0.1054  0.3307
  922MOL0     C24350   6.486  10.990   4.723  0.5651  0.1835  0.0305
  922MOL0     C24351   6.624  10.941   4.709 -0.1143  0.1197  0.1405
  922MOL0     N24352   6.642  10.823   4.632 -0.0351 -0.8287 -0.4602
  922MOL0     C24353   6.596  10.806   4.505 -0.1484 -0.4051 -0.3200
  922MOL0     C24354   6.662  10.695   4.454 -0.0434 -1.0962  1.3164
  922MOL0     C24355   6.645  10.658   4.312 -0.6767  1.1296 -0.2141
  922MOL0     C24356   6.752  10.721   4.221 -0.7818  1.3638 -0.5012
  922MOL0     C24357   6.878  10.632   4.221 -0.1007 -0.2507  0.6923
  922MOL0     C24358   6.968  10.689   4.114 -0.5732 -0.3645  1.3366
  922MOL0     O24359   6.933  10.661   3.981 -0.4582  0.9502  0.2167
  922MOL0     C24360   7.029  10.673   3.886  0.2228  0.6502  0.2818
  922MOL0     C24361   7.163  10.707   3.911 -0.1598 -0.6515  0.4774
  922MOL0     C24362   7.240  10.731   3.792  0.5683 -0.1607 -0.8228
  922MOL0     C24363   7.377  10.788   3.813 -0.4203  0.5232 -0.7559
  922MOL0     C24364   7.195  10.698   3.658 -0.0086 -1.8696 -0.6459
  922MOL0     C24365   7.267  10.732   3.533 -0.0051 -0.3419  1.0628
  922MOL0     O24366   7.353  10.840   3.540  1.0147  1.0544  0.1096
  922MOL0     C24367   7.454  10.848   3.458 -1.3810 -0.9827 -0.8853
  922MOL0     C24368   7.478  10.984   3.423 -0.3597  0.0554 -0.2515
  922MOL0     C24369   7.598  11.025   3.356  0.3191 -0.1532 -0.2821
  922MOL0     C24370   7.690  10.927   3.322 -0.7608  1.2341  0.7311
  922MOL0     O24371   7.805  10.982   3.267 -0.7985  0.0316  0.1120
  922MOL0     C24372   7.890  10.894   3.198  1.4329  0.2916  0.1469
  922MOL0     C24373   8.011  10.966   3.168  0.0935 -0.4958  0.1606
  922MOL0     C24374   8.045  11.082   3.270 -0.3196  0.5320  1.0602
  922MOL0     C24375   8.092  11.025   3.394 -1.0390 -0.2787 -0.3591
  922MOL0     C24376   8.149  11.127   3.495  0.1437 -0.4780 -0.6681
  922MOL0     C24377   8.198  11.054   3.630  0.1208  0.2283  0.7527
  922MOL0     C24378   8.100  11.063   3.754  1.2070 -0.5138  1.2017
  922MOL0     C24379   8.160  11.087   3.887  0.6557 -0.1464 -0.6068
  922MOL0    Cl24380   8.279  10.955   3.930 -0.0192  0.6354  0.4301
  922MOL0     C24381   7.666  10.797   3.352  0.1239 -0.6203  0.6790
  922MOL0     C24382   7.558  10.755   3.421  1.7894 -0.1055  0.0273
  922MOL0     O24383   7.265  10.652   3.443  0.1315 -0.5331  0.0124
  922MOL0     C24384   7.065  10.645   3.643 -0.1385  0.8664 -0.9332
  922MOL0     C24385   6.991  10.623   3.759  0.4959 -0.0380 -0.5977
  922MOL0     N24386   6.730  10.646   4.561  0.3868  0.0823 -0.0399
  922MOL0     N24387   6.719  10.715   4.667 -0.1644  0.9873 -0.1668
  922MOL0     C24388   5.812  10.748   4.714  0.3791 -0.0585 -0.3418
  922MOL0     C24389   5.727  10.751   4.609 -0.5438  0.1598 -0.1208
  922MOL0     C24390   5.396  10.726   4.311 -0.0298  0.1889  0.1395
  922MOL0     C24391   5.422  10.704   4.172  0.6411 -0.3631  0.4813
  922MOL0     C24392   5.318  10.651   4.091  0.5048 -0.0220  0.4698
  922MOL0     C24393   5.192  10.642   4.142 -0.7165 -0.2003  0.1575
  922MOL0     O24394   5.096  10.593   4.046  0.6753  0.1099 -1.3528
  922MOL0     C24395   4.957  10.626   4.064  0.0036 -0.0023 -0.4909
  922MOL0     C24396   4.879  10.565   3.949  0.2394  0.1394  0.6554
  922MOL0     C24397   4.729  10.564   3.982  0.2608 -0.3964  0.3682
  922MOL0     C24398   4.682  10.713   3.987 -0.0596 -1.1283 -1.0373
  922MOL0     C24399   4.549  10.718   4.051 -0.6234 -0.3669 -0.4927
  922MOL0     C24400   4.449  10.713   4.120  0.0302 -0.0487  0.7488
  922MOL0     C24401   5.164  10.674   4.286 -0.1938 -0.1091  0.5143
  922MOL0     C24402   5.269  10.704   4.366 -0.6465 -0.8151 -0.4661
  922MOL0     H24403   5.470  10.927   4.744  0.8563  1.5173  0.6929
  922MOL0     H24404   5.609  10.910   4.936  1.6710  1.0629 -0.9700
  922MOL0     H24405   5.829  10.674   5.085  1.2128  1.0810  2.0938
  922MOL0     H24406   5.928  10.640   4.945 -1.2256  1.3257 -1.2195
  922MOL0     H24407   6.017  10.762   5.202  0.9614  3.6974 -0.5451
  922MOL0     H24408   6.102  10.628   5.110  0.4535  1.1396 -0.6841
  922MOL0     H24409   6.088  10.923   5.030 -2.1630 -2.9700 -3.2722
  922MOL0     H24410   6.217  10.854   5.129 -1.6417  2.2590 -0.0325
  922MOL0     H24411   6.262  10.698   4.947 -1.9833 -1.8452  0.0324
  922MOL0     H24412   6.131  10.760   4.852 -1.2304 -2.7267  2.3931
  922MOL0     H24413   6.228  10.975   4.803 -1.0977 -0.6955 -0.4788
  922MOL0     H24414   6.319  10.970   4.954 -3.4564  0.6496  0.5423
  922MOL0     H24415   6.463  10.793   4.813  4.1215  1.6503 -2.5720
  922MOL0     H24416   6.351  10.840   4.682 -1.8023  0.4196  1.1012
  922MOL0     H24417   6.448  11.019   4.625 -2.6166 -1.8438  0.4907
  922MOL0     H24418   6.470  11.073   4.793 -4.0632 -1.2387  1.0197
  922MOL0     H24419   6.675  10.924   4.804  0.7036 -2.9956 -0.7368
  922MOL0     H24420   6.683  11.015   4.654  1.2397  0.4094  1.8790
  922MOL0     H24421   6.525  10.877   4.463  0.0980 -0.5118 -0.9290
  922MOL0     H24422   6.651  10.549   4.308 -1.3414  1.0813 -0.0315
  922MOL0     H24423   6.543  10.693   4.293 -0.7225  1.1280  0.0365
  922MOL0     H24424   6.765  10.830   4.231 -1.3986  1.4794 -0.9059
  922MOL0     H24425   6.698  10.712   4.126  1.5544 -0.2974 -1.7478
  922MOL0     H24426   6.852  10.527   4.203 -0.6605 -0.2922  1.6797
  922MOL0     H24427   6.944  10.644   4.308  3.2070 -1.4308 -1.4222
  922MOL0     H24428   7.063  10.637   4.131  0.3563  0.9102  0.2429
  922MOL0     H24429   6.985  10.794   4.139 -3.6112  0.7886 -0.8737
  922MOL0     H24430   7.205  10.721   4.011  0.0584  1.7707  0.1219
  922MOL0     H24431   7.412  10.751   3.910 -1.4420  0.9687 -0.1925
  922MOL0     H24432   7.445  10.753   3.736 -4.1745 -3.1278 -2.8038
  922MOL0     H24433   7.368  10.897   3.811  0.7654  0.6226 -0.9433
  922MOL0     H24434   7.406  11.063   3.441 -1.8314 -1.3133  0.1474
  922MOL0     H24435   7.605  11.130   3.328  3.5341 -0.4456 -0.9412
  922MOL0     H24436   7.923  10.808   3.256  0.5958 -1.5424 -1.9475
  922MOL0     H24437   7.845  10.866   3.102 -0.0627  0.3878  0.7884
  922MOL0     H24438   8.097  10.898   3.165  1.2755  0.8672  1.4404
  922MOL0     H24439   7.997  11.003   3.067  2.0816 -3.7549 -1.4620
  922MOL0     H24440   7.959  11.149   3.277 -2.5902 -2.1301  0.4183
  922MOL0     H24441   8.118  11.147   3.222  0.4047 -2.1014 -1.7021
  922MOL0     H24442   8.013  10.968   3.442  0.1457 -1.0208  0.7544
  922MOL0     H24443   8.175  10.959   3.366 -1.9334 -1.1160 -1.0588
  922MOL0     H24444   8.068  11.195   3.521  2.6455  2.6719 -0.6156
  922MOL0     H24445   8.228  11.184   3.445 -1.8828  1.9087 -1.3646
  922MOL0     H24446   8.216  10.949   3.607  1.3454  1.0330 -2.6925
  922MOL0     H24447   8.291  11.104   3.659 -1.9400  4.3145  1.0310
  922MOL0     H24448   8.038  10.972   3.760  1.8817 -1.0238  0.6057
  922MOL0     H24449   8.034  11.148   3.737 -1.6135 -2.7510 -0.0293
  922MOL0     H24450   8.072  11.100   3.951 -1.2599 -0.5191 -2.9818
  922MOL0     H24451   8.199  11.188   3.904  1.6905 -0.7565  0.8436
  922MOL0     H24452   7.725  10.717   3.309 -1.9928  0.2010 -4.5551
  922MOL0     H24453   7.557  10.649   3.441  4.8825 -0.3808 -0.7857
  922MOL0     H24454   7.011  10.613   3.554  0.5459 -0.0655 -1.0253
  922MOL0     H24455   6.891  10.583   3.753 -0.1804  1.0417  2.0983
  922MOL0     H24456   5.909  10.699   4.716 -0.0708 -1.0626 -1.5243
  922MOL0     H24457   5.759  10.688   4.526 -1.2885  2.5493 -2.3388
  922MOL0     H24458   5.522  10.728   4.138  0.5769 -1.3488 -0.4859
  922MOL0     H24459   5.346  10.616   3.992  1.9250  1.3528  0.3396
  922MOL0     H24460   4.929  10.592   4.164 -0.4079  1.5645 -0.0463
  922MOL0     H24461   4.947  10.735   4.064  0.7751  0.0703 -0.8010
  922MOL0     H24462   4.912  10.462   3.936 -1.8699 -0.9241  2.8696
  922MOL0     H24463   4.905  10.626   3.862 -3.0494  1.3857  0.4076
  922MOL0     H24464   4.704  10.511   4.075  1.2029 -0.9498  0.3164
  922MOL0     H24465   4.672  10.516   3.902  1.4451  1.4785 -1.7171
  922MOL0     H24466   4.667  10.758   3.888 -1.2964 -2.4635 -1.4833
  922MOL0     H24467   4.743  10.781   4.048 -1.4504  1.8147 -2.6731
  922MOL0     H24468   4.351  10.718   4.164 -0.6510  1.5658 -0.8044
  922MOL0     H24469   5.060  10.660   4.315  0.0277 -3.2530  0.1762
  922MOL0     H24470   5.265  10.726   4.472 -2.4761  0.5969 -0.7796
  923MOL0     O24471  10.876   5.006   1.008 -0.9688 -0.6420 -0.6368
  923MOL0     C24472  10.973   5.070   1.054 -0.7201  0.5229  1.2946
  923MOL0     O24473  11.073   5.125   0.981 -0.1563 -0.1647  0.3328
  923MOL0     C24474  11.077   5.126   0.848 -0.6794  0.0234  1.0694
  923MOL0     C24475  11.030   5.031   0.752  0.2402  0.0364  0.4182
  923MOL0     C24476  11.019   5.044   0.608  0.7329  0.3999  0.3248
  923MOL0     C24477  11.066   5.169   0.550 -1.3000  0.2977 -0.2829
  923MOL0     O24478  11.062   5.188   0.415 -0.8120 -0.0331 -0.4602
  923MOL0     C24479  11.099   5.313   0.352 -0.0791 -0.7884  0.6255
  923MOL0     C24480  11.253   5.345   0.367  0.7591 -1.9801  0.2361
  923MOL0     C24481  11.285   5.499   0.342  0.6104  0.4218  0.0811
  923MOL0     C24482  11.431   5.533   0.337  0.5533  0.3868 -0.1743
  923MOL0     C24483  11.510   5.514   0.452 -0.1766  0.8202 -0.4189
  923MOL0     C24484  11.664   5.567   0.456  0.2988  0.3678 -0.2386
  923MOL0     C24485  11.714   5.575   0.600 -0.0154  0.1927  1.2381
  923MOL0     C24486  11.843   5.654   0.613 -0.2403  0.7115 -0.4045
  923MOL0     N24487  11.906   5.639   0.742  0.5882  0.1058 -0.3620
  923MOL0     C24488  11.975   5.522   0.780  0.2697 -0.4350  1.1302
  923MOL0     C24489  12.038   5.565   0.893 -0.7999  0.7364 -0.0367
  923MOL0     C24490  12.123   5.465   0.969  0.0298  0.0909 -0.5235
  923MOL0     C24491  12.267   5.461   0.915 -0.4201  0.3960  0.6083
  923MOL0     C24492  12.340   5.603   0.907 -1.2934  0.2845  0.4461
  923MOL0     C24493  12.355   5.673   1.038 -0.8059  0.3812  0.6584
  923MOL0     O24494  12.440   5.785   1.048 -0.3760  0.8417 -0.9200
  923MOL0     C24495  12.422   5.892   0.963  0.7051  0.2358 -0.4630
  923MOL0     C24496  12.301   5.931   0.906  0.2610 -0.1968 -1.2417
  923MOL0     C24497  12.295   6.043   0.820 -0.6131  0.6333  0.1493
  923MOL0     C24498  12.157   6.069   0.762  0.2811 -0.2467  0.6024
  923MOL0     C24499  12.405   6.134   0.814 -0.7924 -0.7207  0.8744
  923MOL0     C24500  12.401   6.274   0.753  1.2411  0.2660 -0.4195
  923MOL0     O24501  12.280   6.325   0.737 -0.1063 -0.1816  0.7097
  923MOL0     C24502  12.271   6.451   0.684 -0.4605  0.6416  0.9323
  923MOL0     C24503  12.182   6.458   0.574 -0.1251 -0.0216 -0.2205
  923MOL0     C24504  12.163   6.574   0.509 -0.3135 -0.6734 -0.5314
  923MOL0     C24505  12.232   6.693   0.543  1.6924 -0.0768 -0.2087
  923MOL0     O24506  12.204   6.813   0.488  0.1918 -0.1065 -0.1411
  923MOL0     C24507  12.067   6.854   0.490  0.2449  0.5430  0.4004
  923MOL0     C24508  12.013   6.869   0.345 -0.0673 -0.8063  0.8235
  923MOL0     C24509  11.858   6.901   0.368 -0.8264 -0.5373 -0.8004
  923MOL0     C24510  11.777   6.932   0.247 -0.4379 -1.4080  0.1012
  923MOL0     C24511  11.629   6.921   0.260  0.4025 -0.8169 -1.1479
  923MOL0     C24512  11.581   7.014   0.377  0.2637  0.0979 -0.1263
  923MOL0     C24513  11.429   7.009   0.385  0.1345  0.6682 -0.4557
  923MOL0     C24514  11.356   7.077   0.268  0.3711  0.4680 -0.6264
  923MOL0    Cl24515  11.396   7.255   0.253 -0.0908 -0.2165 -0.1228
  923MOL0     C24516  12.312   6.689   0.658 -1.1501 -0.8529  0.4059
  923MOL0     C24517  12.328   6.569   0.729 -0.6530  0.2038  0.1725
  923MOL0     O24518  12.495   6.314   0.689 -0.3433 -0.9624  0.1687
  923MOL0     C24519  12.525   6.100   0.878 -0.0489  0.2674  0.2942
  923MOL0     C24520  12.532   5.983   0.958  0.8843 -0.2832  0.5104
  923MOL0     N24521  12.000   5.698   0.929  0.1069  0.0437 -0.3821
  923MOL0     N24522  11.909   5.734   0.841 -0.1455  0.0928  0.7444
  923MOL0     C24523  11.112   5.267   0.645 -0.7890  0.6727 -0.1623
  923MOL0     C24524  11.112   5.242   0.784 -0.8374  0.3691 -0.2213
  923MOL0     C24525  10.964   5.093   1.197  0.0961  0.0260 -0.9095
  923MOL0     C24526  10.840   5.087   1.266 -0.6048  0.4930 -0.5871
  923MOL0     C24527  10.837   5.118   1.408 -0.1005  0.5369  0.5796
  923MOL0     C24528  10.945   5.170   1.479 -0.9604  0.2907  0.0585
  923MOL0     O24529  10.952   5.209   1.615 -1.2995  0.2673 -1.1758
  923MOL0     C24530  10.844   5.180   1.698  0.6123 -0.7147  0.0553
  923MOL0     C24531  10.888   5.146   1.840  0.5685 -0.2571 -0.1500
  923MOL0     C24532  10.953   5.266   1.915 -0.2830  0.7388 -0.2144
  923MOL0     C24533  10.984   5.224   2.061  0.2423  0.2911 -0.1195
  923MOL0     C24534  11.025   5.343   2.139 -0.2149  0.2466  0.9779
  923MOL0     C24535  11.052   5.438   2.211  0.7256  0.0124 -0.0337
  923MOL0     C24536  11.062   5.187   1.404  0.7528 -1.0351 -0.5180
  923MOL0     C24537  11.076   5.140   1.268 -0.4754  0.0340  0.5951
  923MOL0     H24538  10.993   4.938   0.794  0.7388  0.7716  2.6181
  923MOL0     H24539  10.973   4.980   0.534 -0.2905  2.7452 -1.1723
  923MOL0     H24540  11.063   5.316   0.249 -2.0497 -4.1244  1.0632
  923MOL0     H24541  11.040   5.385   0.409  2.6222 -0.3079  3.0733
  923MOL0     H24542  11.304   5.328   0.462  0.0275  0.6434  1.1958
  923MOL0     H24543  11.291   5.302   0.274 -0.2483  2.6070 -2.6516
  923MOL0     H24544  11.235   5.541   0.254 -0.1778  1.4187  0.9951
  923MOL0     H24545  11.252   5.545   0.436 -0.8341  0.4158 -0.3917
  923MOL0     H24546  11.475   5.466   0.261 -0.9486 -0.9700  0.1037
  923MOL0     H24547  11.441   5.633   0.295  2.9115 -0.4419 -1.8266
  923MOL0     H24548  11.453   5.557   0.535 -0.5990 -1.1523  0.3700
  923MOL0     H24549  11.513   5.405   0.457  0.5106  0.8782  1.8811
  923MOL0     H24550  11.727   5.503   0.394 -1.8027 -0.0644 -2.0750
  923MOL0     H24551  11.651   5.667   0.415 -1.0160 -0.7956 -2.9379
  923MOL0     H24552  11.635   5.631   0.650 -1.1177  2.1937 -2.3941
  923MOL0     H24553  11.727   5.476   0.645 -0.8904  0.0265  1.1468
  923MOL0     H24554  11.838   5.758   0.579  0.4715  1.2754  1.1221
  923MOL0     H24555  11.906   5.598   0.544 -2.0930 -0.7522 -1.0121
  923MOL0     H24556  11.998   5.435   0.719 -0.5548  0.7944 -1.0504
  923MOL0     H24557  12.118   5.499   1.073 -2.4949 -1.0255 -0.1798
  923MOL0     H24558  12.070   5.369   0.965 -4.9148  2.5129 -2.5914
  923MOL0     H24559  12.255   5.418   0.815 -0.7445  1.9192 -0.0274
  923MOL0     H24560  12.325   5.388   0.973  0.5955 -0.2828 -1.2030
  923MOL0     H24561  12.287   5.667   0.835  0.7936  1.2048 -0.3547
  923MOL0     H24562  12.440   5.578   0.873 -0.5066  0.1207  2.7113
  923MOL0     H24563  12.398   5.599   1.107  3.0706  0.0169 -1.8339
  923MOL0     H24564  12.253   5.690   1.073 -1.5628  0.0950 -1.2922
  923MOL0     H24565  12.211   5.876   0.931  0.2782  0.9995  1.8794
  923MOL0     H24566  12.096   6.134   0.825 -2.2686 -1.7692 -0.1585
  923MOL0     H24567  12.161   6.117   0.664  2.0501  0.1259  0.8142
  923MOL0     H24568  12.104   5.973   0.757 -2.9233  1.4257 -0.3586
  923MOL0     H24569  12.119   6.373   0.551 -1.4240  0.0067  2.6804
  923MOL0     H24570  12.087   6.588   0.433  1.5369 -0.1248 -2.3943
  923MOL0     H24571  12.004   6.787   0.550  1.6621  1.1751  2.7192
  923MOL0     H24572  12.088   6.949   0.542  6.4122 -0.1273 -0.1436
  923MOL0     H24573  12.065   6.954   0.301 -0.1437 -1.2720 -0.1994
  923MOL0     H24574  12.024   6.774   0.291 -1.0202  0.5720 -2.0215
  923MOL0     H24575  11.857   6.971   0.452  0.6389  1.8079 -2.6217
  923MOL0     H24576  11.819   6.807   0.409  4.0959 -1.6341  2.3174
  923MOL0     H24577  11.806   7.029   0.204 -1.4191 -1.5192 -0.8350
  923MOL0     H24578  11.796   6.863   0.166  1.2706  0.6646 -1.3855
  923MOL0     H24579  11.617   6.816   0.289  2.6929 -0.4322  1.6902
  923MOL0     H24580  11.587   6.946   0.162 -2.5261  0.5664  0.3653
  923MOL0     H24581  11.630   6.979   0.468 -1.0768  0.0955  0.6314
  923MOL0     H24582  11.628   7.113   0.375  3.7210 -1.3633  1.4071
  923MOL0     H24583  11.403   7.065   0.475 -0.8951 -1.5460  0.7318
  923MOL0     H24584  11.387   6.909   0.398 -0.2224  0.6060 -1.9696
  923MOL0     H24585  11.250   7.054   0.282  0.9087 -1.0684  1.5960
  923MOL0     H24586  11.386   7.023   0.178  1.9299 -1.5080  0.9787
  923MOL0     H24587  12.366   6.777   0.693  2.2576 -2.5551 -0.2297
  923MOL0     H24588  12.389   6.576   0.818  0.2166 -1.3743 -0.2637
  923MOL0     H24589  12.612   6.165   0.880  0.4555 -0.2374 -2.2301
  923MOL0     H24590  12.624   5.955   1.008  0.4065 -1.4103  0.7846
  923MOL0     H24591  11.145   5.367   0.618  0.7838  0.3830  0.6189
  923MOL0     H24592  11.140   5.311   0.863  0.0692  0.2882 -0.4587
  923MOL0     H24593  10.743   5.057   1.227 -1.6787  0.9622  1.5941
  923MOL0     H24594  10.734   5.123   1.443 -0.6884  2.1700 -1.1625
  923MOL0     H24595  10.782   5.270   1.691 -0.2734 -1.2682  0.6460
  923MOL0     H24596  10.786   5.099   1.653  2.0071 -0.8622 -1.5697
  923MOL0     H24597  10.950   5.057   1.855 -1.9853 -1.9723  0.9714
  923MOL0     H24598  10.803   5.109   1.897  0.8894 -1.0902 -0.1960
  923MOL0     H24599  10.887   5.353   1.913  0.3450  1.2629  0.6994
  923MOL0     H24600  11.041   5.290   1.853 -0.6940  2.0197 -0.3327
  923MOL0     H24601  11.057   5.143   2.069 -2.2117 -2.1935 -1.0520
  923MOL0     H24602  10.900   5.177   2.114  0.6153 -0.1667  0.0701
  923MOL0     H24603  11.063   5.519   2.280 -0.4948 -0.1601  0.3829
  923MOL0     H24604  11.141   5.235   1.461  0.1901  0.5499 -1.0010
  923MOL0     H24605  11.171   5.139   1.216 -1.5060 -0.6445 -1.3834
  924MOL0     O24606  10.789   1.529   3.688 -0.1555  0.1334  0.2655
  924MOL0     C24607  10.894   1.460   3.685  0.0781 -0.8329  0.2745
  924MOL0     O24608  11.019   1.500   3.721  0.6410 -0.3140 -0.0634
  924MOL0     C24609  11.033   1.608   3.799 -1.1234 -0.3834  0.7205
  924MOL0     C24610  11.156   1.607   3.860  0.6852  0.1364  0.4410
  924MOL0     C24611  11.206   1.695   3.955 -0.0772 -1.1608  0.3152
  924MOL0     C24612  11.120   1.816   3.973 -0.0045  0.5066  0.3193
  924MOL0     O24613  11.160   1.919   4.063  0.2023  0.0192  0.6748
  924MOL0     C24614  11.257   1.997   3.992 -1.2960  0.4502 -0.4333
  924MOL0     C24615  11.331   2.097   4.086 -0.4275 -0.2192  0.5005
  924MOL0     C24616  11.265   2.228   4.091  0.4667 -0.6558  0.2038
  924MOL0     C24617  11.310   2.314   4.205  0.5004 -0.6568  0.3408
  924MOL0     C24618  11.226   2.436   4.245 -0.1571  0.7435 -0.9737
  924MOL0     C24619  11.212   2.529   4.126 -0.8984  0.5520  0.1577
  924MOL0     C24620  11.119   2.647   4.168  0.1931 -0.2387 -0.4405
  924MOL0     C24621  11.104   2.744   4.044  0.9689 -0.4040 -1.1850
  924MOL0     N24622  11.199   2.848   4.056 -0.2610  0.7170  0.3311
  924MOL0     C24623  11.316   2.848   3.984  0.2756  0.4507  0.6936
  924MOL0     C24624  11.389   2.953   4.024  1.1275  0.5030  0.0418
  924MOL0     C24625  11.527   2.985   3.982  0.2956 -0.5515 -1.3271
  924MOL0     C24626  11.539   3.066   3.859 -0.5417 -0.8987  0.0998
  924MOL0     C24627  11.463   3.204   3.856  0.7208  0.4421 -0.0646
  924MOL0     C24628  11.491   3.294   3.963 -0.3154 -0.0289  0.5247
  924MOL0     O24629  11.451   3.427   3.928  0.8859 -0.2204  0.0701
  924MOL0     C24630  11.502   3.499   3.823  1.1021 -0.1054 -0.1382
  924MOL0     C24631  11.621   3.462   3.748  0.1449  0.5664 -1.1962
  924MOL0     C24632  11.671   3.524   3.631 -0.0371  0.2451  0.6803
  924MOL0     C24633  11.777   3.444   3.546 -0.3725  0.9411 -0.4886
  924MOL0     C24634  11.611   3.655   3.601  0.5831  1.0283  0.5090
  924MOL0     C24635  11.659   3.739   3.489 -0.0028 -0.8013  0.2914
  924MOL0     O24636  11.783   3.714   3.423 -0.5549  0.4174 -0.1239
  924MOL0     C24637  11.823   3.791   3.320 -0.0653 -0.4590  0.4904
  924MOL0     C24638  11.843   3.926   3.338 -0.6772 -0.2432 -0.7501
  924MOL0     C24639  11.932   4.000   3.267 -0.6423 -0.3746 -0.6716
  924MOL0     C24640  11.985   3.953   3.153 -0.1321  0.0205 -0.3803
  924MOL0     O24641  12.037   4.045   3.066  0.4766 -0.2349  0.5458
  924MOL0     C24642  12.123   4.011   2.951  0.7505 -0.5506  0.3787
  924MOL0     C24643  12.066   4.072   2.827  0.4408 -0.2338  0.0612
  924MOL0     C24644  11.920   4.021   2.801 -0.3413 -0.6968  0.4748
  924MOL0     C24645  11.813   4.130   2.810  0.6209  1.6038 -0.6458
  924MOL0     C24646  11.674   4.057   2.819  0.5980 -0.1408  0.4527
  924MOL0     C24647  11.544   4.137   2.812  0.8958  0.0734  0.5247
  924MOL0     C24648  11.415   4.056   2.780  0.7389  0.0985  0.5737
  924MOL0     C24649  11.377   4.027   2.635  0.4799 -0.0470  0.1798
  924MOL0    Cl24650  11.314   4.177   2.541 -0.8147 -0.2360  0.2427
  924MOL0     C24651  11.960   3.816   3.113 -0.6520  0.3820 -0.9203
  924MOL0     C24652  11.888   3.729   3.208  0.3243 -0.3182 -0.2932
  924MOL0     O24653  11.586   3.836   3.463  0.1732 -0.3065  0.9332
  924MOL0     C24654  11.496   3.698   3.684 -0.7254  0.0930 -0.1199
  924MOL0     C24655  11.446   3.622   3.788  0.6049 -0.4158 -0.0125
  924MOL0     N24656  11.322   3.014   4.124 -0.4627  0.3218  0.8373
  924MOL0     N24657  11.219   2.946   4.145 -0.1917 -0.7288 -0.2236
  924MOL0     C24658  10.989   1.810   3.929  0.8930  0.5556  0.5272
  924MOL0     C24659  10.953   1.714   3.834 -0.4151 -0.6687 -0.2913
  924MOL0     C24660  10.880   1.314   3.654 -0.7074 -0.8158 -0.7180
  924MOL0     C24661  10.762   1.247   3.664 -0.1218  0.0565 -1.1759
  924MOL0     C24662  10.759   1.113   3.654  0.1333 -0.1674 -0.1585
  924MOL0     C24663  10.875   1.035   3.630 -0.3856 -0.2371 -0.0491
  924MOL0     O24664  10.875   0.900   3.608 -0.3117  0.0552 -0.2282
  924MOL0     C24665  10.776   0.806   3.657 -0.4592  0.0435 -0.8798
  924MOL0     C24666  10.771   0.694   3.551 -0.0200 -0.7546 -0.0531
  924MOL0     C24667  10.636   0.711   3.483  0.0185  1.1765 -0.4301
  924MOL0     C24668  10.544   0.608   3.552  0.7452 -0.7975  0.3180
  924MOL0     C24669  10.536   0.623   3.700  0.6330 -1.2090  0.3709
  924MOL0     C24670  10.539   0.641   3.821  0.6757 -0.3006 -0.4703
  924MOL0     C24671  10.993   1.103   3.608  0.3642 -0.8625  0.1765
  924MOL0     C24672  10.990   1.242   3.614  0.0985  0.1319 -0.6841
  924MOL0     H24673  11.228   1.528   3.838  0.6664 -0.4160  2.1859
  924MOL0     H24674  11.305   1.694   3.999 -0.0458  0.7136  0.3627
  924MOL0     H24675  11.340   1.930   3.967  0.0526  1.6966  0.4667
  924MOL0     H24676  11.218   2.050   3.905 -1.4143  1.5126  0.2471
  924MOL0     H24677  11.327   2.060   4.189  0.4371  1.9180  1.3760
  924MOL0     H24678  11.437   2.098   4.061 -0.9454 -0.0687 -1.8995
  924MOL0     H24679  11.271   2.284   3.997 -0.8534  1.5981  1.3825
  924MOL0     H24680  11.156   2.220   4.092  0.3441  0.3121 -1.4188
  924MOL0     H24681  11.325   2.253   4.295  3.0047 -0.4580  0.1137
  924MOL0     H24682  11.411   2.348   4.180  0.3418 -1.5050 -1.6235
  924MOL0     H24683  11.128   2.404   4.281  1.3777 -2.3535  0.9025
  924MOL0     H24684  11.271   2.486   4.332 -0.8295  0.7696 -0.6271
  924MOL0     H24685  11.311   2.556   4.088 -0.3685 -1.9002 -0.3513
  924MOL0     H24686  11.161   2.480   4.043  0.6586 -0.6069 -0.1368
  924MOL0     H24687  11.021   2.600   4.181 -0.5819  1.0268 -1.4524
  924MOL0     H24688  11.156   2.686   4.263 -5.1197 -0.6046  2.1389
  924MOL0     H24689  10.996   2.760   4.044  0.5016 -2.9261  0.4408
  924MOL0     H24690  11.120   2.695   3.947  0.4153 -3.7183  0.2795
  924MOL0     H24691  11.347   2.784   3.902 -0.1175  1.0851  0.0318
  924MOL0     H24692  11.572   3.044   4.063  0.5224  1.2983 -2.7413
  924MOL0     H24693  11.578   2.888   3.979 -0.3059 -0.9557  0.3189
  924MOL0     H24694  11.500   3.015   3.771 -1.9377 -0.0364  0.1966
  924MOL0     H24695  11.644   3.093   3.842 -0.9624  2.2614  1.7378
  924MOL0     H24696  11.356   3.186   3.863  0.3562  2.3818 -0.0150
  924MOL0     H24697  11.477   3.246   3.756  0.7600  0.3674 -0.0912
  924MOL0     H24698  11.593   3.297   4.002  0.0276  0.5618 -0.3855
  924MOL0     H24699  11.423   3.277   4.047  0.5914 -0.7518  1.1222
  924MOL0     H24700  11.667   3.367   3.774 -0.4086  0.6652  0.2467
  924MOL0     H24701  11.872   3.496   3.533 -0.2055  1.1931  1.5113
  924MOL0     H24702  11.795   3.346   3.592 -2.1030  1.2774  1.0024
  924MOL0     H24703  11.742   3.424   3.444 -1.1030  0.0123 -0.0771
  924MOL0     H24704  11.792   3.964   3.426 -0.1523 -1.7765  0.2575
  924MOL0     H24705  11.959   4.097   3.308  1.4829 -1.8738  1.7197
  924MOL0     H24706  12.224   4.042   2.977  1.2593 -0.5981 -1.4506
  924MOL0     H24707  12.119   3.902   2.938 -4.0564 -0.5181 -0.4171
  924MOL0     H24708  12.072   4.181   2.829  0.2952 -0.1823 -1.3959
  924MOL0     H24709  12.134   4.044   2.745  1.7089 -1.2927  1.4097
  924MOL0     H24710  11.905   3.936   2.868  2.5721 -0.3868  1.6676
  924MOL0     H24711  11.914   3.975   2.702  3.2155 -2.0613  0.7309
  924MOL0     H24712  11.832   4.198   2.893  0.9619 -1.1541  1.6855
  924MOL0     H24713  11.810   4.184   2.715 -0.3632  0.9511 -0.9962
  924MOL0     H24714  11.679   4.000   2.912 -0.1797 -0.9431  0.0179
  924MOL0     H24715  11.666   3.985   2.736 -5.3032 -0.1191  0.5940
  924MOL0     H24716  11.531   4.177   2.913 -1.2139 -0.7565  0.6300
  924MOL0     H24717  11.551   4.228   2.751 -0.4024 -0.7417 -0.9367
  924MOL0     H24718  11.328   4.112   2.814  1.0296  2.0345 -1.5494
  924MOL0     H24719  11.414   3.955   2.822 -1.4415  0.0667  0.5317
  924MOL0     H24720  11.304   3.946   2.633  0.4991 -0.1463  1.9615
  924MOL0     H24721  11.471   3.996   2.588 -0.5635 -1.2287 -1.2287
  924MOL0     H24722  11.995   3.763   3.025  0.3186 -1.7445  0.6493
  924MOL0     H24723  11.878   3.621   3.200  2.5057 -0.5858 -0.0332
  924MOL0     H24724  11.443   3.787   3.653 -2.7893 -1.0942 -0.2365
  924MOL0     H24725  11.356   3.650   3.840 -0.3820 -0.4139 -1.6568
  924MOL0     H24726  10.918   1.886   3.958 -0.6563 -1.0524  1.1181
  924MOL0     H24727  10.851   1.727   3.797 -0.1563 -0.4175 -0.9239
  924MOL0     H24728  10.671   1.306   3.667  1.5090  2.7120 -0.0849
  924MOL0     H24729  10.654   1.083   3.648 -0.7902  3.0762 -2.9880
  924MOL0     H24730  10.804   0.750   3.747  0.3282  1.0377 -0.4854
  924MOL0     H24731  10.678   0.847   3.684  0.1107 -1.0267  3.6266
  924MOL0     H24732  10.781   0.595   3.596 -4.3808  0.3928  4.2789
  924MOL0     H24733  10.853   0.712   3.482 -0.4223 -1.1422 -0.6486
  924MOL0     H24734  10.639   0.674   3.380 -2.7437 -0.1586 -0.1424
  924MOL0     H24735  10.596   0.811   3.498 -2.5029 -0.0550  2.1411
  924MOL0     H24736  10.576   0.506   3.528 -0.0115 -0.6808 -1.3660
  924MOL0     H24737  10.445   0.618   3.506 -0.4914 -2.2351  2.4904
  924MOL0     H24738  10.519   0.643   3.927  0.9014 -1.5744 -0.3928
  924MOL0     H24739  11.086   1.051   3.584 -0.4021 -0.9465 -3.0570
  924MOL0     H24740  11.088   1.287   3.598  0.3259 -1.2855 -3.9741
  925MOL0     O24741   2.093   1.845  11.123  0.5155  0.5254  0.5468
  925MOL0     C24742   2.049   1.824  11.235  0.1705  0.5989  0.3466
  925MOL0     O24743   1.932   1.883  11.290  0.1499 -0.0694 -0.6500
  925MOL0     C24744   1.897   1.991  11.222  0.0607  0.1766 -0.2104
  925MOL0     C24745   1.950   2.106  11.262 -0.4836 -0.2394 -0.4349
  925MOL0     C24746   1.912   2.227  11.200  0.0497  0.1341 -0.3589
  925MOL0     C24747   1.822   2.233  11.096 -0.6110  1.1930  0.2969
  925MOL0     O24748   1.795   2.348  11.025  0.1988  0.0508 -0.0673
  925MOL0     C24749   1.895   2.395  10.934 -0.1723 -0.2656  0.2210
  925MOL0     C24750   1.976   2.297  10.851  0.9813 -0.2176  1.2602
  925MOL0     C24751   2.082   2.360  10.768  0.6934 -0.9456 -0.4671
  925MOL0     C24752   2.029   2.406  10.619  0.3232 -0.4250 -0.5262
  925MOL0     C24753   2.143   2.453  10.530  0.4694 -0.2732 -0.3955
  925MOL0     C24754   2.216   2.580  10.574 -0.3800  0.4037  0.4779
  925MOL0     C24755   2.337   2.616  10.473  0.9623 -0.6397  0.1696
  925MOL0     C24756   2.278   2.679  10.352 -0.6940  0.0525 -0.5710
  925MOL0     N24757   2.379   2.769  10.284  0.8481 -0.6209  0.4302
  925MOL0     C24758   2.466   2.738  10.177  0.7265  0.3239  0.1732
  925MOL0     C24759   2.512   2.862  10.135 -0.1694 -0.1587 -0.6600
  925MOL0     C24760   2.594   2.875  10.022 -0.4538  0.5032 -0.1521
  925MOL0     C24761   2.739   2.881  10.070 -0.3916  0.7937 -0.0041
  925MOL0     C24762   2.847   2.862   9.956  1.2520  0.3060 -0.0407
  925MOL0     C24763   2.925   2.995   9.928  0.3447 -0.0760  0.6270
  925MOL0     O24764   3.010   3.046  10.031  0.8006  0.0745 -0.2669
  925MOL0     C24765   3.117   2.965  10.066 -0.0247 -0.0255  0.0690
  925MOL0     C24766   3.101   2.863  10.157  0.1745 -0.8703 -0.9181
  925MOL0     C24767   3.207   2.791  10.214  0.2252 -0.3395  0.1790
  925MOL0     C24768   3.170   2.662  10.282 -0.6819 -0.0502  0.7261
  925MOL0     C24769   3.341   2.846  10.197 -1.0200  0.8286 -0.2014
  925MOL0     C24770   3.457   2.780  10.252  0.5322 -1.0194  0.0475
  925MOL0     O24771   3.559   2.859  10.290 -0.6684  0.0753 -0.6240
  925MOL0     C24772   3.674   2.801  10.333 -0.3897  0.7647 -0.7839
  925MOL0     C24773   3.751   2.720  10.241  0.0261 -0.5638  0.6303
  925MOL0     C24774   3.870   2.673  10.277 -0.1516 -0.0953  0.4284
  925MOL0     C24775   3.919   2.690  10.412  0.3388  0.0568  0.4288
  925MOL0     O24776   4.048   2.648  10.447  0.3414  0.5675 -0.8850
  925MOL0     C24777   4.060   2.502  10.467 -1.5740 -0.1651 -0.1290
  925MOL0     C24778   4.162   2.470  10.586 -0.3134  0.3056  0.6956
  925MOL0     C24779   4.211   2.322  10.595  1.0135  0.1006 -0.0192
  925MOL0     C24780   4.259   2.291  10.731 -0.7592  0.1855  0.3216
  925MOL0     C24781   4.346   2.157  10.737  1.5730 -0.1534 -0.1952
  925MOL0     C24782   4.385   2.127  10.879  1.0929  0.1255 -1.3783
  925MOL0     C24783   4.271   2.108  10.978 -0.1148 -0.1724  0.3787
  925MOL0     C24784   4.322   2.090  11.128 -0.6989 -0.1921  0.3107
  925MOL0    Cl24785   4.198   2.058  11.252 -0.2219  0.0563  0.0141
  925MOL0     C24786   3.843   2.763  10.505  0.4508 -0.6195  0.4023
  925MOL0     C24787   3.725   2.820  10.465 -0.3161 -0.4323  0.4295
  925MOL0     O24788   3.456   2.657  10.250 -0.7701 -0.5026 -1.0443
  925MOL0     C24789   3.360   2.954  10.110 -0.2600 -0.4993 -0.1432
  925MOL0     C24790   3.251   3.014  10.040 -0.5488 -0.1021 -0.0993
  925MOL0     N24791   2.451   2.959  10.207  0.2288 -0.2550 -0.3499
  925MOL0     N24792   2.376   2.910  10.299 -0.5758  0.4784  0.6233
  925MOL0     C24793   1.773   2.115  11.045 -0.2679  1.0856 -0.5318
  925MOL0     C24794   1.817   1.992  11.110  0.5952 -1.0161  0.5974
  925MOL0     C24795   2.127   1.718  11.301  0.4457 -0.8018 -0.1282
  925MOL0     C24796   2.098   1.684  11.432 -1.1357  0.0795 -0.0002
  925MOL0     C24797   2.180   1.597  11.504 -0.3475 -0.1645 -0.5569
  925MOL0     C24798   2.287   1.519  11.446  0.3956 -0.4458  0.1609
  925MOL0     O24799   2.356   1.423  11.521 -0.3420  0.1973  0.5068
  925MOL0     C24800   2.449   1.344  11.452 -0.1946 -0.5330  1.0430
  925MOL0     C24801   2.377   1.239  11.354 -0.1969  0.5074  0.0596
  925MOL0     C24802   2.253   1.174  11.428 -0.8180 -0.4184 -0.0523
  925MOL0     C24803   2.286   1.104  11.564  0.0422 -0.0614 -0.6759
  925MOL0     C24804   2.150   1.043  11.607  0.5287  0.0664  0.2710
  925MOL0     C24805   2.044   0.999  11.643  0.8276  0.0753  0.1852
  925MOL0     C24806   2.307   1.544  11.313 -0.4482 -0.0682  0.5834
  925MOL0     C24807   2.235   1.648  11.241 -0.0244 -0.2575 -0.2681
  925MOL0     H24808   2.020   2.116  11.345  0.3732 -2.0940 -0.8782
  925MOL0     H24809   1.953   2.318  11.241 -3.4362  1.0233  1.5434
  925MOL0     H24810   1.848   2.458  10.858 -2.7824 -3.9361 -1.4996
  925MOL0     H24811   1.960   2.456  10.998 -3.9105 -0.6076  4.8803
  925MOL0     H24812   2.038   2.235  10.917  1.8836  0.8976  1.4939
  925MOL0     H24813   1.918   2.235  10.782 -0.3493  3.3019 -1.1017
  925MOL0     H24814   2.135   2.438  10.824 -0.2304  0.5537 -1.6121
  925MOL0     H24815   2.164   2.289  10.751  1.3857 -0.4685  0.7260
  925MOL0     H24816   1.972   2.330  10.565  0.2507 -0.0132 -1.0348
  925MOL0     H24817   1.964   2.494  10.614  0.5670 -0.1644  0.6262
  925MOL0     H24818   2.220   2.376  10.534  0.4128 -0.2869  1.7291
  925MOL0     H24819   2.105   2.467  10.429 -3.6628  0.3565  1.0416
  925MOL0     H24820   2.153   2.667  10.592 -0.5262  0.0209  1.9152
  925MOL0     H24821   2.268   2.565  10.669  1.4266  1.3444 -0.3108
  925MOL0     H24822   2.401   2.693  10.516 -1.1138  0.5713  1.2813
  925MOL0     H24823   2.390   2.525  10.445  0.9698 -1.3298  2.2821
  925MOL0     H24824   2.179   2.721  10.374 -0.8304 -0.3178 -0.4659
  925MOL0     H24825   2.265   2.604  10.274 -1.3872 -0.5762  0.1251
  925MOL0     H24826   2.477   2.643  10.126 -0.0016  0.2390  0.1501
  925MOL0     H24827   2.573   2.788   9.960  2.4988 -0.2231 -0.3076
  925MOL0     H24828   2.573   2.960   9.956  1.3954  0.6471 -0.6220
  925MOL0     H24829   2.745   2.806  10.150 -1.6791 -1.1052 -1.5559
  925MOL0     H24830   2.762   2.975  10.120  1.2166 -0.8018  2.4903
  925MOL0     H24831   2.787   2.826   9.872 -0.9581 -2.1493  2.3869
  925MOL0     H24832   2.931   2.794   9.971  2.3336  1.9284  1.8012
  925MOL0     H24833   2.845   3.068   9.914 -1.6113 -1.9923  1.3098
  925MOL0     H24834   2.989   2.998   9.839  0.3572 -1.6147  0.5489
  925MOL0     H24835   3.002   2.823  10.179 -0.4594 -0.1958 -2.4023
  925MOL0     H24836   3.210   2.623  10.375  0.1022 -0.1547  0.3518
  925MOL0     H24837   3.063   2.662  10.304 -0.9055 -0.1345 -0.2849
  925MOL0     H24838   3.181   2.597  10.195  0.4621 -0.0989  0.8950
  925MOL0     H24839   3.717   2.710  10.139  0.6262  1.0548  0.2532
  925MOL0     H24840   3.930   2.620  10.204  1.4793  2.1989 -0.0323
  925MOL0     H24841   3.959   2.460  10.478 -1.3588 -1.0291 -1.2901
  925MOL0     H24842   4.106   2.447  10.385 -0.0394 -0.6899  1.0518
  925MOL0     H24843   4.255   2.528  10.578 -1.2781  2.1975  2.4206
  925MOL0     H24844   4.105   2.511  10.670 -4.4091  0.2758 -1.7768
  925MOL0     H24845   4.295   2.313  10.525 -1.0560  2.4326 -3.0901
  925MOL0     H24846   4.139   2.241  10.573  0.1401  0.8746 -0.0853
  925MOL0     H24847   4.320   2.373  10.771 -1.1432 -0.6495  2.8089
  925MOL0     H24848   4.168   2.300  10.791 -0.5794  1.7830  0.3897
  925MOL0     H24849   4.436   2.175  10.678  1.6421  1.2154  0.2936
  925MOL0     H24850   4.287   2.072  10.699  1.2606  0.3288 -0.8160
  925MOL0     H24851   4.428   2.027  10.876 -0.2691 -0.5035 -0.6203
  925MOL0     H24852   4.453   2.205  10.915 -1.1249  1.2372  0.7455
  925MOL0     H24853   4.206   2.024  10.956  0.2505 -0.2617 -0.4040
  925MOL0     H24854   4.206   2.196  10.979 -0.7307 -0.3544 -4.2278
  925MOL0     H24855   4.368   2.181  11.165 -3.1219  0.4623  1.9552
  925MOL0     H24856   4.399   2.014  11.140  1.1157  1.5251 -0.0608
  925MOL0     H24857   3.874   2.790  10.605 -2.7154  0.2436  1.2594
  925MOL0     H24858   3.686   2.896  10.532  0.7699  0.3070  0.2495
  925MOL0     H24859   3.460   2.996  10.100  0.5709 -2.0940  1.0459
  925MOL0     H24860   3.255   3.108   9.985 -1.9132  0.6773  1.0401
  925MOL0     H24861   1.694   2.126  10.971 -2.5987 -1.8090  1.3378
  925MOL0     H24862   1.784   1.901  11.060 -5.6759  2.0073 -1.8782
  925MOL0     H24863   2.018   1.731  11.488 -0.4696  1.3933 -0.0923
  925MOL0     H24864   2.154   1.576  11.607 -0.6310  0.9768 -0.3783
  925MOL0     H24865   2.518   1.407  11.395 -1.1256 -0.5859 -0.1841
  925MOL0     H24866   2.509   1.293  11.528  0.7144 -1.5906 -0.3254
  925MOL0     H24867   2.455   1.166  11.334  0.5954  1.0498  1.0672
  925MOL0     H24868   2.345   1.289  11.262  2.0561  4.9932  1.4140
  925MOL0     H24869   2.223   1.096  11.358 -1.7551 -0.5320  0.4715
  925MOL0     H24870   2.158   1.228  11.427 -0.3160  0.6415 -3.1109
  925MOL0     H24871   2.314   1.169  11.647 -0.7822 -2.2964  1.4857
  925MOL0     H24872   2.366   1.030  11.555 -0.7354 -1.3001  1.7320
  925MOL0     H24873   1.957   0.953  11.687 -1.0731 -0.3738 -3.6677
  925MOL0     H24874   2.379   1.490  11.252 -0.6870 -0.1395  0.3609
  925MOL0     H24875   2.257   1.672  11.137 -0.9312  0.9399 -0.2110
  926MOL0     O24876   7.241   3.388   3.209 -0.6306 -0.3024  0.0025
  926MOL0     C24877   7.353   3.364   3.157  0.2371  0.2290 -0.2952
  926MOL0     O24878   7.466   3.391   3.218 -0.7905 -0.8697 -0.5123
  926MOL0     C24879   7.472   3.451   3.337 -0.0042 -0.0687 -0.5565
  926MOL0     C24880   7.487   3.388   3.459  0.0651 -0.0670  0.7943
  926MOL0     C24881   7.476   3.454   3.584 -0.4255  0.5676 -0.4533
  926MOL0     C24882   7.449   3.593   3.600  0.9922  0.1708 -0.1968
  926MOL0     O24883   7.416   3.658   3.711  0.0263  0.5891  0.9963
  926MOL0     C24884   7.522   3.644   3.806  0.4317  0.7336 -0.5212
  926MOL0     C24885   7.522   3.767   3.895 -0.2659 -0.1239  0.5351
  926MOL0     C24886   7.607   3.872   3.830 -0.3544 -0.0138  0.3592
  926MOL0     C24887   7.617   4.000   3.920 -0.4577  0.1791 -0.0603
  926MOL0     C24888   7.717   4.097   3.866  0.5473 -0.7974 -0.6617
  926MOL0     C24889   7.759   4.215   3.955  0.5255  0.6526 -0.1076
  926MOL0     C24890   7.866   4.311   3.901 -0.7301 -0.4503  0.6573
  926MOL0     C24891   7.818   4.372   3.772  0.3957  0.2308 -0.0061
  926MOL0     N24892   7.688   4.435   3.779  0.0323 -0.2375  0.0107
  926MOL0     C24893   7.576   4.388   3.724  0.1093  0.7333 -0.7351
  926MOL0     C24894   7.484   4.483   3.755 -0.2184 -0.2432  0.3326
  926MOL0     C24895   7.341   4.481   3.705 -0.2004 -0.0687 -0.6888
  926MOL0     C24896   7.248   4.595   3.764 -0.6152  1.1723 -0.1311
  926MOL0     C24897   7.132   4.647   3.669  0.6985 -0.1907  0.3367
  926MOL0     C24898   7.025   4.541   3.632 -0.2408  1.0307  1.1870
  926MOL0     O24899   6.971   4.484   3.759  0.1812 -0.8580  0.8654
  926MOL0     C24900   6.900   4.361   3.740 -0.1687 -1.2080 -0.3771
  926MOL0     C24901   6.854   4.316   3.617 -0.7826  0.5577 -0.6654
  926MOL0     C24902   6.772   4.200   3.609 -0.6356 -0.1352  1.1687
  926MOL0     C24903   6.715   4.173   3.460 -0.1368  0.6761 -0.2260
  926MOL0     C24904   6.736   4.134   3.726  0.5677 -0.1380  0.8157
  926MOL0     C24905   6.637   4.029   3.727  0.5279  1.0656  0.7770
  926MOL0     O24906   6.626   3.962   3.840 -0.1489 -0.4712  0.3895
  926MOL0     C24907   6.514   3.886   3.854  0.0372  0.1403 -0.0940
  926MOL0     C24908   6.390   3.914   3.813 -0.1792  0.2787 -0.2138
  926MOL0     C24909   6.276   3.839   3.853 -0.7513  0.4326 -0.5839
  926MOL0     C24910   6.297   3.733   3.939  0.7110  0.7179 -0.1464
  926MOL0     O24911   6.199   3.650   3.975 -0.0099 -0.4958  0.2350
  926MOL0     C24912   6.221   3.513   3.941 -0.0360 -0.3891  0.7685
  926MOL0     C24913   6.223   3.447   4.073  0.3789 -0.0885 -0.6077
  926MOL0     C24914   6.262   3.305   4.064  0.0250 -1.0580  1.2162
  926MOL0     C24915   6.398   3.271   3.993  0.2460  0.9997  0.2544
  926MOL0     C24916   6.460   3.137   4.042 -0.0414  0.5495  0.2503
  926MOL0     C24917   6.358   3.013   4.031 -0.6807 -0.2096 -0.4383
  926MOL0     C24918   6.422   2.879   4.013 -0.8967  0.8145  0.2017
  926MOL0     C24919   6.325   2.759   3.961 -0.2671 -0.3181 -0.3824
  926MOL0    Cl24920   6.226   2.717   4.110  0.3981 -0.1418 -0.1909
  926MOL0     C24921   6.426   3.710   3.987 -0.0841  0.4226  0.3965
  926MOL0     C24922   6.533   3.784   3.944  0.0138 -1.0848 -0.0724
  926MOL0     O24923   6.580   3.997   3.629 -0.0855 -0.1033  0.1021
  926MOL0     C24924   6.805   4.161   3.843 -0.1571  0.5348  0.5854
  926MOL0     C24925   6.884   4.279   3.851  0.1923  0.4291  0.1810
  926MOL0     N24926   7.546   4.587   3.819  1.0548 -0.4988  0.4509
  926MOL0     N24927   7.662   4.554   3.840  0.0298 -0.2592 -0.2464
  926MOL0     C24928   7.429   3.655   3.481  0.5362 -0.9010  0.5812
  926MOL0     C24929   7.450   3.594   3.356 -0.4177  0.4609  0.0956
  926MOL0     C24930   7.348   3.282   3.040 -0.9616  0.3012  1.2037
  926MOL0     C24931   7.462   3.257   2.956 -0.1353 -0.3159 -0.2817
  926MOL0     C24932   7.453   3.180   2.836 -0.0236 -0.1130 -0.0571
  926MOL0     C24933   7.338   3.120   2.797  0.1958  0.4813  0.1748
  926MOL0     O24934   7.329   3.040   2.685  0.1562  0.2488 -0.8149
  926MOL0     C24935   7.384   3.091   2.565  0.1063 -0.6597  0.3868
  926MOL0     C24936   7.337   3.241   2.532 -0.3437  1.0132 -0.2855
  926MOL0     C24937   7.458   3.336   2.521  1.2362  0.7544  0.9639
  926MOL0     C24938   7.428   3.489   2.524  0.0192 -0.3316  0.8619
  926MOL0     C24939   7.320   3.522   2.429  0.9440 -0.6513  0.4133
  926MOL0     C24940   7.228   3.543   2.351 -0.0198 -0.0153 -0.2108
  926MOL0     C24941   7.225   3.157   2.877  0.9498 -0.3517  0.0854
  926MOL0     C24942   7.232   3.231   3.000  1.2604 -0.1436  0.6452
  926MOL0     H24943   7.519   3.286   3.441  3.1514  1.0237 -0.6672
  926MOL0     H24944   7.479   3.393   3.673 -1.9558  3.9468  2.1679
  926MOL0     H24945   7.513   3.557   3.873  0.2563  1.9471  1.0942
  926MOL0     H24946   7.619   3.637   3.756  1.2103  1.9604  0.7194
  926MOL0     H24947   7.416   3.793   3.907 -0.1416 -0.4053  2.6802
  926MOL0     H24948   7.569   3.730   3.987 -2.0511 -1.6798  0.9096
  926MOL0     H24949   7.707   3.828   3.820  0.2661  1.4300 -0.0049
  926MOL0     H24950   7.579   3.917   3.735 -0.6312 -1.1397 -0.1033
  926MOL0     H24951   7.517   4.043   3.921 -1.0120 -0.9848 -1.5105
  926MOL0     H24952   7.655   3.960   4.014  0.9927 -0.4998 -0.8981
  926MOL0     H24953   7.816   4.055   3.846  2.8057  3.3588  0.5063
  926MOL0     H24954   7.670   4.134   3.775  0.0373 -0.1717 -0.1585
  926MOL0     H24955   7.673   4.270   3.993  0.1445  0.6575 -0.9710
  926MOL0     H24956   7.816   4.188   4.045  1.4250  1.6952 -0.3410
  926MOL0     H24957   7.890   4.385   3.978 -3.1944  0.0129  1.0470
  926MOL0     H24958   7.961   4.257   3.893  0.7249  1.7260  1.9766
  926MOL0     H24959   7.809   4.297   3.693  1.9218 -0.5063  0.4880
  926MOL0     H24960   7.890   4.449   3.743  0.6036 -0.2700 -0.8317
  926MOL0     H24961   7.569   4.291   3.674 -1.2622  0.5602 -0.2326
  926MOL0     H24962   7.356   4.500   3.598  1.2215  2.1605 -0.1493
  926MOL0     H24963   7.300   4.382   3.727  2.1961 -0.6334  1.7374
  926MOL0     H24964   7.317   4.678   3.783 -1.1050  1.6531 -0.4166
  926MOL0     H24965   7.218   4.555   3.862  0.5446  1.5913  0.4094
  926MOL0     H24966   7.183   4.693   3.585  1.7279  1.1259  1.6295
  926MOL0     H24967   7.080   4.725   3.726 -0.2028  1.1001 -2.1108
  926MOL0     H24968   7.078   4.465   3.573 -2.2090  1.8521 -1.9181
  926MOL0     H24969   6.946   4.590   3.574  1.2273  5.7587  2.7552
  926MOL0     H24970   6.866   4.378   3.529  3.1284 -1.4758 -1.7866
  926MOL0     H24971   6.759   4.254   3.400 -1.7058  3.4470  2.0827
  926MOL0     H24972   6.733   4.077   3.412  2.8663  0.1872  1.6310
  926MOL0     H24973   6.606   4.188   3.456 -0.1777  0.1623 -1.0612
  926MOL0     H24974   6.366   3.996   3.747  0.3465  0.6701  0.0809
  926MOL0     H24975   6.182   3.876   3.811 -0.7814  4.0654  2.1303
  926MOL0     H24976   6.137   3.477   3.882 -1.6401  1.2125  1.9608
  926MOL0     H24977   6.310   3.502   3.877  0.4711 -2.3230  1.7599
  926MOL0     H24978   6.279   3.505   4.146  2.3285 -0.9050 -1.3608
  926MOL0     H24979   6.116   3.452   4.097  1.0820 -1.4236  3.4581
  926MOL0     H24980   6.182   3.252   4.012 -0.8335  1.7563 -0.6075
  926MOL0     H24981   6.278   3.282   4.170 -1.8896  1.5166  2.1766
  926MOL0     H24982   6.374   3.276   3.887  3.6372  3.0571 -0.5599
  926MOL0     H24983   6.464   3.350   4.030  1.3675  0.2080 -0.0229
  926MOL0     H24984   6.503   3.163   4.139  2.1587  0.4367 -0.6552
  926MOL0     H24985   6.552   3.114   3.988  1.5077  2.6092  1.8559
  926MOL0     H24986   6.292   3.019   4.118  0.3020  1.2082  0.2404
  926MOL0     H24987   6.302   3.031   3.939  0.5801 -0.2978 -1.2501
  926MOL0     H24988   6.470   2.856   4.108 -0.9574 -0.3876 -0.0415
  926MOL0     H24989   6.500   2.888   3.936 -0.5877  0.6220  0.4897
  926MOL0     H24990   6.380   2.671   3.926 -2.3761 -0.5496 -3.5628
  926MOL0     H24991   6.256   2.796   3.884 -1.8233 -2.0752  0.0916
  926MOL0     H24992   6.456   3.628   4.052 -0.7284 -1.4508 -1.5195
  926MOL0     H24993   6.624   3.753   3.995  1.3907  3.6643  0.7984
  926MOL0     H24994   6.798   4.104   3.936 -0.7189  2.6472  1.8898
  926MOL0     H24995   6.940   4.311   3.938 -0.1617  2.9573 -0.4174
  926MOL0     H24996   7.390   3.757   3.480 -0.3351 -1.1919 -1.7075
  926MOL0     H24997   7.435   3.653   3.266 -1.6021 -0.8184 -0.5760
  926MOL0     H24998   7.558   3.300   2.981 -0.0539  1.0959 -2.6540
  926MOL0     H24999   7.540   3.171   2.771  2.2253 -0.2343  2.8145
  926MOL0     H25000   7.493   3.086   2.568  0.0490 -1.6671  1.2727
  926MOL0     H25001   7.361   3.027   2.480 -3.0375  0.5278  0.2068
  926MOL0     H25002   7.276   3.282   2.613 -1.8611  0.7812 -1.2831
  926MOL0     H25003   7.283   3.239   2.437  0.1184  1.3166 -0.5619
  926MOL0     H25004   7.499   3.315   2.422  0.9441 -3.6665  1.5811
  926MOL0     H25005   7.548   3.310   2.577  2.4098  1.2261 -0.6436
  926MOL0     H25006   7.520   3.547   2.512 -0.8828  1.3662  1.7142
  926MOL0     H25007   7.397   3.523   2.623 -4.1858  0.5619 -0.5509
  926MOL0     H25008   7.148   3.573   2.286 -0.9990 -0.5146  0.7220
  926MOL0     H25009   7.129   3.112   2.852  1.8428 -2.4065  0.1572
  926MOL0     H25010   7.142   3.244   3.058 -1.0436 -1.6630 -2.2967
  927MOL0     O25011   3.074   8.223   4.343 -0.2149  0.1970 -0.0761
  927MOL0     C25012   3.172   8.260   4.279 -1.1575  0.2902 -0.2823
  927MOL0     O25013   3.297   8.270   4.325 -0.3938  0.7048 -0.0830
  927MOL0     C25014   3.350   8.214   4.440  1.1377 -0.8594 -0.5380
  927MOL0     C25015   3.480   8.257   4.468  0.3443  0.0917  0.7494
  927MOL0     C25016   3.554   8.203   4.573  0.4967 -0.1029 -1.8389
  927MOL0     C25017   3.489   8.101   4.650 -0.4035  1.8271  0.6151
  927MOL0     O25018   3.550   8.027   4.747 -0.9382  0.0151 -0.7322
  927MOL0     C25019   3.544   8.076   4.876  0.1918  0.9063 -0.8694
  927MOL0     C25020   3.440   8.003   4.963 -0.6084  1.2984  0.6833
  927MOL0     C25021   3.428   8.083   5.097  0.2472 -0.5126  0.3195
  927MOL0     C25022   3.302   8.032   5.169  0.4786 -0.2473 -1.0636
  927MOL0     C25023   3.276   8.095   5.302 -0.3000  0.2203 -0.7625
  927MOL0     C25024   3.267   8.240   5.296 -0.4790 -0.1822 -0.3379
  927MOL0     C25025   3.188   8.294   5.417 -0.7745 -0.2634  1.1006
  927MOL0     C25026   3.256   8.284   5.543 -0.3258 -0.8698  0.8835
  927MOL0     N25027   3.239   8.151   5.615 -0.7018 -0.2690 -0.5775
  927MOL0     C25028   3.121   8.099   5.644 -0.2676  0.9092 -0.1990
  927MOL0     C25029   3.155   7.978   5.710 -0.6710 -0.4048 -0.1314
  927MOL0     C25030   3.062   7.887   5.770  0.3912  0.7347  0.0122
  927MOL0     C25031   3.079   7.754   5.700 -0.2807  0.5800  0.7845
  927MOL0     C25032   3.028   7.762   5.553  0.1966  0.1436  1.1940
  927MOL0     C25033   2.880   7.782   5.521 -0.5851 -0.4908  0.2124
  927MOL0     O25034   2.798   7.752   5.637  0.7734 -0.0020  0.5463
  927MOL0     C25035   2.682   7.822   5.652 -0.5757  0.4767  0.8353
  927MOL0     C25036   2.585   7.839   5.549 -0.3474  0.7930  0.0463
  927MOL0     C25037   2.470   7.899   5.572 -0.5452  0.3654 -0.4394
  927MOL0     C25038   2.369   7.873   5.462 -0.2473  0.6081  0.0553
  927MOL0     C25039   2.448   7.962   5.686  0.0879  0.3831 -0.2381
  927MOL0     C25040   2.328   8.044   5.720 -0.2726  0.0384  0.6373
  927MOL0     O25041   2.236   8.073   5.615 -0.0717  0.2513  0.4336
  927MOL0     C25042   2.136   8.170   5.644 -0.1185  0.1512  0.4354
  927MOL0     C25043   2.080   8.225   5.525  0.5554  0.4902  0.3043
  927MOL0     C25044   1.998   8.341   5.523 -0.5801  0.7522  0.1118
  927MOL0     C25045   1.925   8.364   5.642 -0.0080  1.5570  0.5989
  927MOL0     O25046   1.821   8.445   5.638  0.0662  0.4247 -0.1451
  927MOL0     C25047   1.743   8.470   5.758  0.2786  0.1331  0.3159
  927MOL0     C25048   1.641   8.589   5.737  1.3760  0.0477 -0.6920
  927MOL0     C25049   1.565   8.638   5.865  0.3378  0.4345  1.0333
  927MOL0     C25050   1.447   8.734   5.824  0.3747 -0.7052 -0.0532
  927MOL0     C25051   1.510   8.881   5.787  0.3300 -1.2021 -0.8457
  927MOL0     C25052   1.589   8.957   5.887  0.5334  0.0811 -0.6990
  927MOL0     C25053   1.504   8.972   6.017  0.0508  0.2448 -0.1556
  927MOL0     C25054   1.552   9.096   6.102  0.2175 -0.0191  0.1642
  927MOL0    Cl25055   1.479   9.237   6.029 -0.0381  0.2725  0.3886
  927MOL0     C25056   1.967   8.297   5.764 -0.1071 -0.2426  0.1047
  927MOL0     C25057   2.086   8.217   5.769  0.3934 -0.5584 -0.2539
  927MOL0     O25058   2.331   8.094   5.834  0.2437  0.2843  0.0354
  927MOL0     C25059   2.539   7.957   5.784 -0.0761  0.5665 -0.5644
  927MOL0     C25060   2.657   7.888   5.776 -0.4020 -1.0037 -0.8794
  927MOL0     N25061   3.299   7.962   5.709  0.0240  0.6288 -0.6082
  927MOL0     N25062   3.343   8.071   5.652 -0.3101  0.0345 -0.4387
  927MOL0     C25063   3.358   8.057   4.618 -0.6420  0.2495 -0.7513
  927MOL0     C25064   3.290   8.112   4.512 -0.0846  0.3265 -0.6359
  927MOL0     C25065   3.139   8.316   4.144 -0.7116 -0.4084  0.7503
  927MOL0     C25066   3.238   8.289   4.043 -0.1541 -0.5070  0.5962
  927MOL0     C25067   3.211   8.334   3.914  0.8494 -0.6123  0.1291
  927MOL0     C25068   3.095   8.412   3.888 -0.1439 -1.0700  0.3764
  927MOL0     O25069   3.065   8.465   3.770  0.8720 -0.0952  0.2002
  927MOL0     C25070   3.148   8.426   3.656 -0.1547  0.8610  0.3198
  927MOL0     C25071   3.053   8.400   3.535  0.1508  0.6105  0.6285
  927MOL0     C25072   3.116   8.389   3.395 -0.4822  0.0192  0.1065
  927MOL0     C25073   3.188   8.253   3.366  0.1652  0.8656 -0.2077
  927MOL0     C25074   3.240   8.244   3.225  0.0196  0.0576  0.6084
  927MOL0     C25075   3.294   8.230   3.113  0.1669  0.3839 -0.6578
  927MOL0     C25076   3.006   8.445   3.995 -0.8361 -0.0410  0.7111
  927MOL0     C25077   3.028   8.390   4.121 -0.6126  0.5854 -0.1028
  927MOL0     H25078   3.516   8.340   4.407 -0.6651  0.5994  0.8326
  927MOL0     H25079   3.654   8.230   4.604  0.2651 -3.0936  2.3452
  927MOL0     H25080   3.643   8.058   4.919  1.5775  1.9283 -3.3740
  927MOL0     H25081   3.523   8.183   4.870 -1.7256  0.8667  2.6429
  927MOL0     H25082   3.341   7.992   4.918 -0.2243 -0.2951  0.1562
  927MOL0     H25083   3.475   7.901   4.982 -3.0294  0.1433 -0.5411
  927MOL0     H25084   3.507   8.056   5.169  2.1753  0.4350 -1.3369
  927MOL0     H25085   3.418   8.191   5.083  0.4413 -0.3396  1.4234
  927MOL0     H25086   3.211   8.050   5.111 -0.8102  1.3388  1.2602
  927MOL0     H25087   3.313   7.924   5.179  2.2387  0.0216  0.3429
  927MOL0     H25088   3.181   8.056   5.339  1.0004 -1.7685  0.7270
  927MOL0     H25089   3.346   8.052   5.375  0.2440 -3.1291 -3.0008
  927MOL0     H25090   3.365   8.288   5.288 -1.1674  1.6957  1.7815
  927MOL0     H25091   3.215   8.263   5.203  2.2475 -2.7353 -2.7165
  927MOL0     H25092   3.177   8.402   5.402  0.3266 -0.4897 -2.3148
  927MOL0     H25093   3.087   8.251   5.424 -1.1838  0.9803  4.8637
  927MOL0     H25094   3.221   8.365   5.608 -1.5594 -1.7628  1.3740
  927MOL0     H25095   3.359   8.309   5.520 -0.6224 -0.1567  0.3147
  927MOL0     H25096   3.017   8.114   5.618  0.1964  0.7342 -2.3861
  927MOL0     H25097   3.091   7.868   5.873  0.1080  1.9136  0.3173
  927MOL0     H25098   2.961   7.930   5.770 -0.7651 -1.6382 -2.0659
  927MOL0     H25099   3.014   7.681   5.750  0.8954 -1.9931 -1.1950
  927MOL0     H25100   3.177   7.705   5.692 -0.9149 -0.4012 -3.0364
  927MOL0     H25101   3.053   7.663   5.516 -0.0423  1.1218 -1.8557
  927MOL0     H25102   3.092   7.835   5.502 -0.1508 -0.0415  0.4852
  927MOL0     H25103   2.854   7.733   5.427 -0.4189  1.7191 -1.0411
  927MOL0     H25104   2.870   7.889   5.499  1.8104 -0.0033  1.1263
  927MOL0     H25105   2.599   7.789   5.453 -0.0005  1.6641 -0.3711
  927MOL0     H25106   2.383   7.951   5.387 -2.7639  1.2644  0.1809
  927MOL0     H25107   2.395   7.779   5.412  1.0475 -1.0813  3.5568
  927MOL0     H25108   2.270   7.858   5.505  0.7086 -0.7043  1.9655
  927MOL0     H25109   2.105   8.174   5.432  1.9374 -0.5377  1.1906
  927MOL0     H25110   1.992   8.389   5.426 -0.1561  2.1576  0.7553
  927MOL0     H25111   1.693   8.376   5.785 -0.3032 -0.3086 -2.0731
  927MOL0     H25112   1.801   8.504   5.844 -2.5721  0.5250  2.2584
  927MOL0     H25113   1.697   8.673   5.696  1.3478  0.6348  0.4376
  927MOL0     H25114   1.555   8.561   5.675  1.3213 -2.6486  0.4470
  927MOL0     H25115   1.635   8.690   5.932  3.1033  0.5461 -1.7507
  927MOL0     H25116   1.522   8.560   5.929  1.8082  0.0610  1.5941
  927MOL0     H25117   1.386   8.696   5.742  0.3888 -1.1505  0.1417
  927MOL0     H25118   1.376   8.744   5.907  2.7080  2.1434  1.7892
  927MOL0     H25119   1.419   8.943   5.781  1.9787  1.4373 -0.1393
  927MOL0     H25120   1.559   8.880   5.689 -1.3279 -0.2061 -1.7593
  927MOL0     H25121   1.690   8.914   5.894  0.0773 -0.7801  2.4864
  927MOL0     H25122   1.598   9.058   5.846 -0.8439  0.2696 -0.5875
  927MOL0     H25123   1.506   8.882   6.078 -0.1095  0.4847  0.2084
  927MOL0     H25124   1.398   8.991   5.998 -0.7675 -0.9528  2.7201
  927MOL0     H25125   1.660   9.109   6.096 -0.1267  4.1334  0.0727
  927MOL0     H25126   1.519   9.097   6.207 -5.0240  1.9917 -1.1919
  927MOL0     H25127   1.923   8.312   5.862  1.9465 -0.7792  1.1636
  927MOL0     H25128   2.111   8.169   5.863  1.4548 -1.0372 -0.7784
  927MOL0     H25129   2.524   8.007   5.879  1.2837  1.2068 -0.6666
  927MOL0     H25130   2.704   7.871   5.872 -2.3574 -0.2604  0.2647
  927MOL0     H25131   3.305   7.978   4.670  0.1203  0.4839  0.4371
  927MOL0     H25132   3.197   8.068   4.480 -0.3763  0.1823  0.3667
  927MOL0     H25133   3.324   8.234   4.080  0.2066  0.8531  1.8761
  927MOL0     H25134   3.290   8.319   3.840 -0.9821  0.8109 -2.2812
  927MOL0     H25135   3.232   8.495   3.640  1.7387 -0.9325  1.9520
  927MOL0     H25136   3.192   8.326   3.659 -1.2236  0.3540 -0.3693
  927MOL0     H25137   2.996   8.493   3.538 -1.1586 -0.1694  0.9391
  927MOL0     H25138   2.994   8.314   3.569  3.8053 -1.9527  1.0591
  927MOL0     H25139   3.189   8.468   3.377 -0.8809  0.1382 -1.0440
  927MOL0     H25140   3.042   8.412   3.318  0.0952  1.5304 -0.0312
  927MOL0     H25141   3.112   8.177   3.384 -0.8357  2.2397  1.8050
  927MOL0     H25142   3.275   8.241   3.431  1.0178  0.7661 -1.3343
  927MOL0     H25143   3.332   8.224   3.013  0.5951  2.4052 -0.6542
  927MOL0     H25144   2.928   8.511   3.957 -0.5220 -1.9634 -3.8188
  927MOL0     H25145   2.960   8.414   4.202  0.0830  0.0658  0.6453
  928MOL0     O25146   3.046   7.950   6.656  0.7376 -0.4420  0.1877
  928MOL0     C25147   3.163   7.960   6.630 -1.0090 -0.4797 -0.5587
  928MOL0     O25148   3.262   8.027   6.702  0.1489  0.7891  0.0503
  928MOL0     C25149   3.212   8.111   6.800  1.0331  0.2907 -0.5916
  928MOL0     C25150   3.252   8.246   6.789 -0.3385  0.1369  0.0396
  928MOL0     C25151   3.216   8.343   6.883 -0.2821 -0.6825  0.5228
  928MOL0     C25152   3.135   8.312   6.995  0.1157  0.2502 -0.0475
  928MOL0     O25153   3.109   8.407   7.097  0.6826  1.0196  0.5655
  928MOL0     C25154   3.010   8.507   7.061  0.2694  0.0408 -0.8188
  928MOL0     C25155   2.958   8.573   7.183  0.7137 -0.3440 -0.5443
  928MOL0     C25156   3.065   8.599   7.289 -0.3766 -0.2874  0.6923
  928MOL0     C25157   3.004   8.692   7.392  0.1400  0.5061  0.7144
  928MOL0     C25158   3.100   8.731   7.495  0.0030  0.4431 -0.3504
  928MOL0     C25159   3.156   8.616   7.578 -0.1026 -1.0589  0.8954
  928MOL0     C25160   3.216   8.676   7.709 -0.4286  0.3383 -0.1794
  928MOL0     C25161   3.264   8.557   7.799  0.6104  0.0789 -0.2318
  928MOL0     N25162   3.392   8.497   7.747  0.7344 -0.2280 -0.1139
  928MOL0     C25163   3.399   8.407   7.645  0.7641 -1.0395 -0.3790
  928MOL0     C25164   3.520   8.409   7.593  0.0563  0.7164  0.3239
  928MOL0     C25165   3.569   8.315   7.485 -0.0732  0.5497  1.0981
  928MOL0     C25166   3.500   8.359   7.356  0.6182  0.2329 -0.2759
  928MOL0     C25167   3.544   8.505   7.315 -0.5475 -0.0613 -0.3830
  928MOL0     C25168   3.512   8.529   7.171  0.6051 -0.0036  0.4161
  928MOL0     O25169   3.550   8.660   7.116 -0.2490  0.0752 -0.2814
  928MOL0     C25170   3.446   8.749   7.125  0.8361 -0.4696  1.2253
  928MOL0     C25171   3.431   8.835   7.230  0.2636  0.0804 -0.0481
  928MOL0     C25172   3.331   8.934   7.223 -1.4511  0.4662  0.1059
  928MOL0     C25173   3.329   9.027   7.337 -0.5110 -0.1619 -0.6117
  928MOL0     C25174   3.240   8.932   7.119  0.3018  0.3243 -1.0602
  928MOL0     C25175   3.129   9.039   7.109 -0.6267  1.0497  0.0792
  928MOL0     O25176   3.077   9.106   7.214  0.8592 -0.4166 -0.2053
  928MOL0     C25177   2.979   9.205   7.212 -0.2652  0.8748  0.8402
  928MOL0     C25178   2.862   9.186   7.282  0.0248 -0.0406 -0.0392
  928MOL0     C25179   2.772   9.295   7.303 -0.0104  0.3611  0.2614
  928MOL0     C25180   2.800   9.427   7.247 -0.8935  0.3885  0.0150
  928MOL0     O25181   2.716   9.534   7.248  0.2446  0.2129  0.3778
  928MOL0     C25182   2.767   9.669   7.221  0.2500 -0.2995  0.4391
  928MOL0     C25183   2.660   9.783   7.208 -0.0712  0.3285  0.3791
  928MOL0     C25184   2.717   9.930   7.221  0.7930 -0.1196 -0.0553
  928MOL0     C25185   2.622  10.038   7.185  0.3013 -1.2369  0.8638
  928MOL0     C25186   2.683  10.179   7.166 -0.1190 -0.5963 -0.0610
  928MOL0     C25187   2.724  10.248   7.299  0.0230  0.4168 -0.5768
  928MOL0     C25188   2.752  10.400   7.272  0.0848  1.3072 -0.8894
  928MOL0     C25189   2.726  10.497   7.394  0.1977  0.4271  0.0672
  928MOL0    Cl25190   2.872  10.503   7.490 -0.4092 -0.1318  0.1451
  928MOL0     C25191   2.920   9.433   7.171  0.7569 -0.3851  0.0533
  928MOL0     C25192   3.009   9.328   7.168  0.3521  0.0318  0.3164
  928MOL0     O25193   3.075   9.045   7.001 -0.1034 -0.8928  0.0739
  928MOL0     C25194   3.244   8.832   7.021 -0.2158 -0.6261  0.2567
  928MOL0     C25195   3.356   8.743   7.017  0.0845 -0.3728 -1.6507
  928MOL0     N25196   3.578   8.521   7.653 -0.0086  0.5787 -0.0380
  928MOL0     N25197   3.498   8.575   7.745 -0.4249 -0.6023  0.5320
  928MOL0     C25198   3.091   8.180   7.007 -0.2942  0.0856  0.0974
  928MOL0     C25199   3.143   8.083   6.917  0.6386 -0.5143  0.2448
  928MOL0     C25200   3.214   7.897   6.503  0.3065  0.6834  0.3519
  928MOL0     C25201   3.343   7.855   6.492  0.1069  0.0460  0.0468
  928MOL0     C25202   3.385   7.797   6.370 -0.0478 -0.2851 -0.6921
  928MOL0     C25203   3.292   7.776   6.266  0.3972  0.3257 -0.0899
  928MOL0     O25204   3.334   7.703   6.163  1.3439 -0.6719  0.3188
  928MOL0     C25205   3.297   7.753   6.031  0.3442  0.9170 -0.4137
  928MOL0     C25206   3.404   7.715   5.925  0.3850 -0.9128 -0.1581
  928MOL0     C25207   3.431   7.564   5.920  0.0834  0.1043  0.2565
  928MOL0     C25208   3.492   7.513   5.792  0.0315  0.9579 -0.0241
  928MOL0     C25209   3.397   7.500   5.679 -0.0715 -0.9984 -0.5742
  928MOL0     C25210   3.314   7.477   5.596 -1.3773  0.8946  0.2232
  928MOL0     C25211   3.161   7.814   6.276  0.2802  1.0349  1.1653
  928MOL0     C25212   3.124   7.867   6.400 -0.4775 -0.3713  0.4847
  928MOL0     H25213   3.308   8.277   6.702 -0.3356 -0.8619 -0.3165
  928MOL0     H25214   3.242   8.447   6.866  1.6466 -1.0090  1.1844
  928MOL0     H25215   3.056   8.566   6.981 -1.5304 -1.7830 -3.3267
  928MOL0     H25216   2.922   8.466   7.012  1.3421 -2.6169 -0.6850
  928MOL0     H25217   2.897   8.660   7.159  3.4687  1.9911  0.3130
  928MOL0     H25218   2.890   8.503   7.232  0.4352  1.4732  1.8122
  928MOL0     H25219   3.089   8.501   7.332 -3.7314 -2.0674 -1.0826
  928MOL0     H25220   3.147   8.649   7.237 -1.4851  0.7344 -0.1358
  928MOL0     H25221   2.977   8.781   7.334  0.7749  0.6134  0.5748
  928MOL0     H25222   2.907   8.651   7.421 -0.8681  2.0166 -0.3959
  928MOL0     H25223   3.194   8.770   7.455  1.2389 -0.0663  1.9236
  928MOL0     H25224   3.052   8.808   7.555 -2.6350 -1.2570 -0.1046
  928MOL0     H25225   3.070   8.555   7.606 -0.6950 -1.4454 -1.4994
  928MOL0     H25226   3.234   8.566   7.520  1.4214  3.6253 -1.6915
  928MOL0     H25227   3.299   8.747   7.695 -0.2340 -0.1274 -1.4857
  928MOL0     H25228   3.132   8.729   7.755 -0.5684 -0.1513  0.1320
  928MOL0     H25229   3.195   8.472   7.803  2.2120 -1.2612 -0.2089
  928MOL0     H25230   3.287   8.586   7.902  0.8940 -0.8638 -0.0221
  928MOL0     H25231   3.325   8.338   7.607 -0.1361 -0.8517  0.9373
  928MOL0     H25232   3.675   8.342   7.475 -0.9006  3.9415  0.1684
  928MOL0     H25233   3.554   8.208   7.503  0.3959 -0.1486 -2.0687
  928MOL0     H25234   3.393   8.339   7.362  0.8596 -0.8728  1.0065
  928MOL0     H25235   3.554   8.294   7.287  0.3176 -1.8613  1.3494
  928MOL0     H25236   3.647   8.540   7.327 -1.5293  3.3114 -0.6583
  928MOL0     H25237   3.490   8.572   7.383 -0.4500 -0.4313  0.0673
  928MOL0     H25238   3.406   8.508   7.156  1.0263 -1.5224 -0.6747
  928MOL0     H25239   3.560   8.451   7.111  0.6242 -1.2714  1.9996
  928MOL0     H25240   3.499   8.846   7.314  0.3787 -0.3097 -0.0875
  928MOL0     H25241   3.313   9.132   7.308 -0.8305 -0.5014 -1.7214
  928MOL0     H25242   3.251   8.999   7.408 -1.0943 -1.5266 -1.7305
  928MOL0     H25243   3.423   9.027   7.393 -1.3370 -0.2240  0.8001
  928MOL0     H25244   2.868   9.089   7.330  1.6782 -1.5120 -2.9992
  928MOL0     H25245   2.678   9.284   7.355  0.3756 -0.9975  0.7112
  928MOL0     H25246   2.842   9.704   7.293 -0.8472  1.9121  0.6148
  928MOL0     H25247   2.814   9.675   7.122 -0.6287  0.6421  0.0572
  928MOL0     H25248   2.605   9.759   7.117  0.5463  1.0451 -0.1893
  928MOL0     H25249   2.592   9.770   7.293 -0.3109 -1.7216 -0.0692
  928MOL0     H25250   2.797   9.929   7.147  0.1433  3.9586 -1.0066
  928MOL0     H25251   2.763   9.954   7.317  4.7086  0.4346 -1.8665
  928MOL0     H25252   2.586  10.010   7.085 -0.2024 -2.9071  1.4886
  928MOL0     H25253   2.540  10.052   7.256 -0.6222  3.6471 -0.8004
  928MOL0     H25254   2.610  10.245   7.119 -0.6883  0.4442  2.1488
  928MOL0     H25255   2.765  10.178   7.093  0.4303 -0.6782  0.5496
  928MOL0     H25256   2.653  10.230   7.380  0.9913 -1.3386 -0.0578
  928MOL0     H25257   2.820  10.205   7.330  0.1153  0.9143 -0.1444
  928MOL0     H25258   2.699  10.444   7.187 -0.1746  1.0636 -0.8584
  928MOL0     H25259   2.858  10.407   7.246 -0.4792  2.7451 -3.0673
  928MOL0     H25260   2.636  10.471   7.450 -1.5053 -2.2090 -3.4332
  928MOL0     H25261   2.715  10.598   7.352  1.0024  0.4101 -0.2057
  928MOL0     H25262   2.958   9.531   7.143 -0.5661  1.3632  3.7237
  928MOL0     H25263   3.106   9.338   7.121  0.4957 -1.1722  0.3248
  928MOL0     H25264   3.174   8.822   6.939  2.2050 -2.6348 -1.7457
  928MOL0     H25265   3.382   8.675   6.936 -0.4725 -0.3942 -1.8166
  928MOL0     H25266   3.039   8.168   7.101 -1.5612  2.3260 -0.2312
  928MOL0     H25267   3.117   7.980   6.940 -1.1440  0.6779  4.6788
  928MOL0     H25268   3.414   7.869   6.574 -2.5152 -0.7888  2.6154
  928MOL0     H25269   3.491   7.778   6.358  0.3359  1.4224 -0.2123
  928MOL0     H25270   3.197   7.717   6.005 -0.0038 -0.5271  2.4807
  928MOL0     H25271   3.274   7.860   6.030  0.6166  0.9739 -1.3532
  928MOL0     H25272   3.494   7.768   5.958  1.2350 -2.4055  0.0343
  928MOL0     H25273   3.375   7.744   5.824  2.0832  1.4597 -0.0552
  928MOL0     H25274   3.342   7.510   5.952  0.8187 -0.6881  1.0304
  928MOL0     H25275   3.501   7.553   6.004 -1.4052  2.9910  2.0533
  928MOL0     H25276   3.537   7.414   5.810  0.7221  1.4606  1.1192
  928MOL0     H25277   3.579   7.574   5.765  1.2957 -1.3540 -1.6465
  928MOL0     H25278   3.242   7.452   5.521 -0.1403 -1.6877 -0.2257
  928MOL0     H25279   3.105   7.805   6.183  1.8751 -1.0414  0.3003
  928MOL0     H25280   3.016   7.879   6.407 -0.3942 -0.0394  1.2653
  929MOL0     O25281   5.726   6.781   6.068  0.3625 -0.3402 -0.3121
  929MOL0     C25282   5.675   6.783   5.957 -0.6394 -1.0330  0.2070
  929MOL0     O25283   5.589   6.879   5.911  0.1215 -1.2264  0.5393
  929MOL0     C25284   5.522   6.961   5.997 -1.1170  0.3131 -0.6679
  929MOL0     C25285   5.453   6.907   6.107  0.0294 -0.3837  0.8608
  929MOL0     C25286   5.390   6.994   6.195  0.1639 -0.1936  0.0797
  929MOL0     C25287   5.396   7.136   6.166 -0.0722  0.0811  0.8110
  929MOL0     O25288   5.340   7.230   6.251 -0.1600 -0.4345  0.2885
  929MOL0     C25289   5.227   7.292   6.182  0.2791 -0.4386 -0.7430
  929MOL0     C25290   5.102   7.214   6.232  0.2422 -0.2818 -0.8371
  929MOL0     C25291   5.067   7.259   6.375 -0.3230  1.0503  1.2657
  929MOL0     C25292   4.916   7.238   6.415  0.5418 -0.4858 -0.1846
  929MOL0     C25293   4.885   7.241   6.565  0.4816  0.4478 -0.6688
  929MOL0     C25294   4.919   7.384   6.608  0.4239  1.1222  0.3606
  929MOL0     C25295   4.831   7.424   6.730  0.5310 -0.2424  0.0222
  929MOL0     C25296   4.875   7.561   6.774  0.0958  0.4616 -0.3652
  929MOL0     N25297   4.982   7.544   6.876 -0.1602 -0.1186  1.4291
  929MOL0     C25298   4.974   7.545   7.012 -0.4705  0.7126 -0.3904
  929MOL0     C25299   5.097   7.526   7.054 -0.0230  0.7084  0.5672
  929MOL0     C25300   5.138   7.526   7.202  1.0419  0.1727  0.2576
  929MOL0     C25301   5.250   7.622   7.234 -0.0267 -1.1904 -0.3352
  929MOL0     C25302   5.198   7.761   7.207  0.6084  0.1437 -0.3895
  929MOL0     C25303   5.293   7.873   7.264  0.5663 -0.3921 -0.0827
  929MOL0     O25304   5.281   7.878   7.407  0.2969  0.2487 -0.2678
  929MOL0     C25305   5.354   7.976   7.484 -0.4080  1.2284 -0.7778
  929MOL0     C25306   5.449   8.060   7.446 -0.4449  0.1620 -0.5587
  929MOL0     C25307   5.519   8.150   7.533  0.2799  0.0417 -1.0623
  929MOL0     C25308   5.612   8.265   7.486  0.1474  0.1922 -0.4616
  929MOL0     C25309   5.481   8.142   7.671 -0.7626  0.3003 -0.3035
  929MOL0     C25310   5.534   8.221   7.775 -0.1129  0.4850 -0.5135
  929MOL0     O25311   5.590   8.150   7.870 -0.2284  0.2439 -0.6359
  929MOL0     C25312   5.628   8.203   7.991  0.3894 -0.1538 -0.2807
  929MOL0     C25313   5.554   8.293   8.063 -0.5091 -0.1439  0.5214
  929MOL0     C25314   5.601   8.335   8.193 -0.7630 -0.2315  0.6357
  929MOL0     C25315   5.724   8.296   8.239 -0.5774 -0.0713  0.6844
  929MOL0     O25316   5.780   8.353   8.352  0.3237 -0.8441  0.3362
  929MOL0     C25317   5.780   8.497   8.356 -0.0405 -0.8938  1.4076
  929MOL0     C25318   5.873   8.543   8.467 -0.3660 -0.3842  0.5158
  929MOL0     C25319   5.910   8.695   8.444  0.1263 -0.8855 -0.7859
  929MOL0     C25320   6.031   8.722   8.534  0.2623  0.2741  0.4677
  929MOL0     C25321   6.073   8.867   8.513 -0.8321  0.1432  0.5503
  929MOL0     C25322   6.147   8.934   8.629 -0.3452  0.2177  0.1955
  929MOL0     C25323   6.064   8.979   8.748  0.2867 -0.5669 -0.6376
  929MOL0     C25324   6.038   9.136   8.759 -0.1409  0.2826  0.2251
  929MOL0    Cl25325   5.887   9.154   8.845 -0.4486  0.1056  0.1883
  929MOL0     C25326   5.797   8.195   8.175  0.5788 -0.1079 -0.7091
  929MOL0     C25327   5.742   8.144   8.052 -0.2832 -0.6414 -1.0064
  929MOL0     O25328   5.525   8.339   7.773  0.0842 -0.8891 -0.1524
  929MOL0     C25329   5.382   8.052   7.709 -0.0925  0.3331  1.2168
  929MOL0     C25330   5.318   7.972   7.615 -0.1868  0.4570 -0.0065
  929MOL0     N25331   5.182   7.520   6.943 -0.3737 -0.4321 -0.0877
  929MOL0     N25332   5.113   7.534   6.838  0.0629 -0.2544  0.4614
  929MOL0     C25333   5.465   7.187   6.053 -0.5009  0.3765 -0.3895
  929MOL0     C25334   5.537   7.093   5.973 -0.3944 -1.2178  0.6377
  929MOL0     C25335   5.720   6.684   5.856  1.0326  0.0758  0.2173
  929MOL0     C25336   5.799   6.586   5.897 -0.5235  0.0404 -0.0921
  929MOL0     C25337   5.849   6.482   5.810  0.2331 -0.6249 -0.7230
  929MOL0     C25338   5.826   6.491   5.674  0.2797 -0.5409  0.7919
  929MOL0     O25339   5.869   6.384   5.597  0.1384 -0.0541  0.4840
  929MOL0     C25340   5.865   6.388   5.458 -0.3034  0.1449  0.0033
  929MOL0     C25341   5.938   6.254   5.418 -1.2456 -0.5563  0.5898
  929MOL0     C25342   5.897   6.213   5.272 -0.7770  0.1510 -0.2437
  929MOL0     C25343   6.006   6.120   5.212  0.4057 -0.3926  0.0399
  929MOL0     C25344   5.991   6.065   5.075 -0.5765  0.4348 -0.3013
  929MOL0     C25345   6.003   6.008   4.966 -0.8131  0.8052  0.2635
  929MOL0     C25346   5.746   6.603   5.624 -0.2274 -0.1653  1.0593
  929MOL0     C25347   5.682   6.692   5.717 -0.4267  0.2034  0.3199
  929MOL0     H25348   5.455   6.800   6.125  1.5216 -0.5037  0.0998
  929MOL0     H25349   5.351   6.953   6.288  2.7765  0.6404  1.6304
  929MOL0     H25350   5.222   7.396   6.218 -1.3848 -0.4793 -0.7942
  929MOL0     H25351   5.241   7.290   6.073  0.8232 -0.4041 -0.6799
  929MOL0     H25352   5.024   7.234   6.158  0.6598  0.8426 -0.9996
  929MOL0     H25353   5.122   7.107   6.243 -2.9336 -0.6874  3.3437
  929MOL0     H25354   5.137   7.214   6.446  1.0753 -0.4281 -0.8977
  929MOL0     H25355   5.085   7.367   6.372  6.4953  0.4060 -2.4675
  929MOL0     H25356   4.846   7.298   6.356 -1.2620 -2.3538 -0.0539
  929MOL0     H25357   4.888   7.137   6.384 -0.4587 -0.5504  0.8341
  929MOL0     H25358   4.782   7.208   6.577  0.9482 -1.6507 -1.8253
  929MOL0     H25359   4.939   7.162   6.619 -2.2027 -0.2230  1.2567
  929MOL0     H25360   5.025   7.382   6.634  0.6046  1.4912 -0.3148
  929MOL0     H25361   4.909   7.455   6.525 -0.3758  0.2224 -0.3320
  929MOL0     H25362   4.728   7.425   6.692  0.7148 -1.8057 -0.6150
  929MOL0     H25363   4.839   7.348   6.808  0.9224  0.9808  1.2034
  929MOL0     H25364   4.791   7.617   6.816  0.5508  1.1179 -0.3204
  929MOL0     H25365   4.906   7.618   6.686  0.3831  0.6799 -0.1270
  929MOL0     H25366   4.883   7.559   7.070  0.3554 -0.4225  1.2541
  929MOL0     H25367   5.051   7.536   7.267 -2.0004 -3.4314 -2.7982
  929MOL0     H25368   5.163   7.421   7.220  3.1406  0.3708 -1.1593
  929MOL0     H25369   5.333   7.617   7.164 -0.6702  2.6870 -1.6304
  929MOL0     H25370   5.291   7.606   7.334 -0.2334 -1.7129 -0.3309
  929MOL0     H25371   5.097   7.778   7.245 -1.1591 -0.6149 -4.2534
  929MOL0     H25372   5.177   7.780   7.101  0.1950 -0.0475 -0.3423
  929MOL0     H25373   5.277   7.973   7.221  1.0361  0.2561  1.1724
  929MOL0     H25374   5.394   7.839   7.243 -1.1749 -5.2607 -1.8079
  929MOL0     H25375   5.455   8.076   7.339 -3.7663 -2.5065 -1.3116
  929MOL0     H25376   5.701   8.290   7.546 -0.5647  0.2423  0.6023
  929MOL0     H25377   5.656   8.236   7.390  1.5976  0.5656  0.0625
  929MOL0     H25378   5.549   8.354   7.483 -0.7596 -0.3683  1.1229
  929MOL0     H25379   5.457   8.325   8.026  0.6407  2.0855 -0.7806
  929MOL0     H25380   5.544   8.413   8.242 -0.1507 -0.3477  1.5620
  929MOL0     H25381   5.809   8.540   8.259 -0.1410  2.5856  2.7643
  929MOL0     H25382   5.683   8.543   8.378  1.2241  2.9587 -0.2757
  929MOL0     H25383   5.831   8.533   8.567  0.5012 -2.5950  0.7259
  929MOL0     H25384   5.959   8.475   8.456 -2.6683 -3.3364 -0.6076
  929MOL0     H25385   5.834   8.755   8.495  1.7929 -1.6764  2.9507
  929MOL0     H25386   5.915   8.713   8.336 -0.7818 -1.0306 -0.8660
  929MOL0     H25387   6.011   8.706   8.640 -0.5119  2.0889  0.6434
  929MOL0     H25388   6.115   8.660   8.501  2.3575  1.8047  2.6179
  929MOL0     H25389   5.984   8.930   8.498 -0.1830  1.7914  2.9581
  929MOL0     H25390   6.141   8.870   8.427 -1.3298  3.9548  0.0882
  929MOL0     H25391   6.224   8.864   8.663 -1.5767 -1.8740 -1.0773
  929MOL0     H25392   6.188   9.023   8.581 -0.1979  0.5892  1.0112
  929MOL0     H25393   6.105   8.933   8.838  0.6499 -0.4225 -0.7275
  929MOL0     H25394   5.966   8.931   8.745  1.0161 -2.3070  1.2457
  929MOL0     H25395   6.038   9.163   8.653  2.5040 -2.5201 -0.6340
  929MOL0     H25396   6.112   9.196   8.813 -2.4260  1.1432  2.6582
  929MOL0     H25397   5.889   8.151   8.211 -0.9157 -1.6793  1.4167
  929MOL0     H25398   5.789   8.062   7.999 -2.4000 -0.8460 -2.6429
  929MOL0     H25399   5.359   8.040   7.814  3.0637 -1.2253  1.8637
  929MOL0     H25400   5.229   7.912   7.634 -0.6085  0.4178 -1.9664
  929MOL0     H25401   5.454   7.291   6.021 -2.2059  1.0641  2.1717
  929MOL0     H25402   5.585   7.119   5.879  1.8930 -3.2540  1.1343
  929MOL0     H25403   5.840   6.579   5.997  1.3328  1.8699 -0.6383
  929MOL0     H25404   5.912   6.400   5.844  1.0068  0.0338 -0.5115
  929MOL0     H25405   5.761   6.394   5.422  0.0272 -0.5696 -1.1374
  929MOL0     H25406   5.918   6.474   5.417  1.3943 -0.6249  0.5033
  929MOL0     H25407   5.900   6.173   5.480  1.3966 -3.3454 -1.1710
  929MOL0     H25408   6.046   6.259   5.433 -1.0734 -1.1126 -0.4033
  929MOL0     H25409   5.897   6.302   5.208  2.4309 -0.9200 -1.9831
  929MOL0     H25410   5.800   6.165   5.258 -0.3940  0.1098 -3.4617
  929MOL0     H25411   6.025   6.035   5.278  1.0212 -0.0825  0.2694
  929MOL0     H25412   6.097   6.180   5.213  1.6983 -2.1746 -1.8952
  929MOL0     H25413   6.010   5.957   4.872  1.8874  2.6196 -0.6405
  929MOL0     H25414   5.723   6.621   5.520 -0.5285 -2.0568  0.7666
  929MOL0     H25415   5.617   6.773   5.684  0.7279  2.0960  2.4340
  930MOL0     O25416   6.112   5.946   9.785 -0.7960 -1.1825  0.8050
  930MOL0     C25417   6.151   5.923   9.902  0.9498 -1.3105 -0.6075
  930MOL0     O25418   6.268   5.874   9.946 -0.9471  0.2248  0.1131
  930MOL0     C25419   6.374   5.838   9.857 -0.3706 -0.6074  0.5300
  930MOL0     C25420   6.446   5.927   9.770  0.3467  0.1002  0.8743
  930MOL0     C25421   6.563   5.878   9.706  0.3561 -0.1188 -0.1904
  930MOL0     C25422   6.597   5.744   9.719 -0.1082  0.4175  0.0381
  930MOL0     O25423   6.717   5.698   9.674  0.6253  0.1826 -0.3674
  930MOL0     C25424   6.830   5.769   9.711 -0.6622  0.1147  0.2771
  930MOL0     C25425   6.957   5.697   9.653  0.8267  0.5490  0.6352
  930MOL0     C25426   6.973   5.748   9.506 -0.1009 -0.6294 -0.1261
  930MOL0     C25427   7.103   5.702   9.435 -1.0892  0.8729 -0.1108
  930MOL0     C25428   7.113   5.782   9.301 -0.3879  0.7693 -0.2131
  930MOL0     C25429   7.240   5.782   9.220 -1.1134 -0.4080  0.8901
  930MOL0     C25430   7.280   5.635   9.183 -0.3474  0.2037 -0.0160
  930MOL0     C25431   7.207   5.591   9.056 -0.3140  0.2704  0.0197
  930MOL0     N25432   7.062   5.548   9.067  0.4750 -0.7764  1.0769
  930MOL0     C25433   7.015   5.466   9.164 -0.3597  0.9253  0.8113
  930MOL0     C25434   6.878   5.483   9.162 -0.1601  0.2740  0.5801
  930MOL0     C25435   6.792   5.401   9.246 -0.5046 -0.0137  0.5300
  930MOL0     C25436   6.653   5.470   9.274  0.1058 -0.0690  0.1032
  930MOL0     C25437   6.581   5.388   9.384 -0.2580  0.3482 -0.2106
  930MOL0     C25438   6.563   5.245   9.350  0.1268 -0.5439 -0.0266
  930MOL0     O25439   6.518   5.180   9.464  0.2667  0.1031 -0.2887
  930MOL0     C25440   6.411   5.089   9.462 -0.0838  0.2300  0.5351
  930MOL0     C25441   6.337   5.060   9.344 -0.3370 -0.6063 -0.1605
  930MOL0     C25442   6.224   4.982   9.358 -0.0685  0.1906  1.3038
  930MOL0     C25443   6.140   4.963   9.234 -0.1707 -0.1936 -0.8370
  930MOL0     C25444   6.199   4.921   9.483  0.2621 -0.3827 -0.0178
  930MOL0     C25445   6.101   4.811   9.508  0.6306  0.2751 -0.0791
  930MOL0     O25446   6.055   4.743   9.398  0.5870  0.3130  0.0834
  930MOL0     C25447   5.955   4.665   9.429  0.2996 -0.1977 -0.6583
  930MOL0     C25448   5.986   4.528   9.442 -0.0472  0.1297 -0.8032
  930MOL0     C25449   5.871   4.437   9.460 -0.0365 -0.7472 -0.3618
  930MOL0     C25450   5.734   4.480   9.472 -0.2093  0.9071  0.2237
  930MOL0     O25451   5.643   4.387   9.488  0.3150 -0.7073 -0.4548
  930MOL0     C25452   5.501   4.417   9.456  0.0959  0.2781 -0.5273
  930MOL0     C25453   5.422   4.282   9.481 -0.2079 -0.1454  0.9007
  930MOL0     C25454   5.269   4.290   9.486  0.3352 -0.4056 -0.8160
  930MOL0     C25455   5.209   4.350   9.354 -0.8302 -0.1394  0.1358
  930MOL0     C25456   5.061   4.315   9.353 -0.7371  1.1398  0.1755
  930MOL0     C25457   4.982   4.391   9.243 -0.4199 -1.1183 -0.6821
  930MOL0     C25458   4.826   4.369   9.248 -0.2487  0.4172  0.0353
  930MOL0     C25459   4.757   4.484   9.161 -0.4702  0.2023  0.2279
  930MOL0    Cl25460   4.590   4.440   9.124  0.1727 -0.4725 -0.2276
  930MOL0     C25461   5.713   4.619   9.478 -0.5739 -0.2116  0.1244
  930MOL0     C25462   5.825   4.713   9.457 -0.1406 -0.3352 -0.2547
  930MOL0     O25463   6.059   4.802   9.622 -0.0565 -0.2689  0.5323
  930MOL0     C25464   6.264   4.960   9.602  0.1154 -0.0004  0.2682
  930MOL0     C25465   6.363   5.057   9.587 -0.3522  0.0444 -0.1043
  930MOL0     N25466   6.843   5.587   9.072 -0.2482  0.1347 -0.1615
  930MOL0     N25467   6.951   5.613   9.006 -0.6415 -1.1891 -0.7837
  930MOL0     C25468   6.508   5.654   9.779  0.2254 -0.2767 -0.8203
  930MOL0     C25469   6.393   5.698   9.844  0.2440  0.1491 -0.9427
  930MOL0     C25470   6.036   5.946   9.997 -0.0393 -0.2687 -0.3597
  930MOL0     C25471   6.069   5.947  10.128 -0.6303 -0.3548 -0.8649
  930MOL0     C25472   5.975   5.966  10.225  0.0861  0.1051 -0.2295
  930MOL0     C25473   5.841   5.997  10.180 -0.4851 -0.4462  0.3334
  930MOL0     O25474   5.753   6.021  10.282 -0.3342  0.0582  0.7697
  930MOL0     C25475   5.617   6.060  10.249  0.1472 -0.1146  0.5998
  930MOL0     C25476   5.605   6.208  10.203 -0.6766 -0.6367 -0.2546
  930MOL0     C25477   5.605   6.301  10.333 -0.6525  0.1070 -0.1234
  930MOL0     C25478   5.467   6.356  10.377 -0.4648  0.0052 -0.2241
  930MOL0     C25479   5.405   6.245  10.443  0.9536 -0.2790 -0.4445
  930MOL0     C25480   5.368   6.142  10.484  0.0932  0.4106 -0.7731
  930MOL0     C25481   5.807   5.994  10.045  0.1024  0.4607  0.5250
  930MOL0     C25482   5.910   5.980   9.953  0.5319 -0.0522 -0.3355
  930MOL0     H25483   6.407   6.028   9.761 -0.7087 -0.1288  2.4404
  930MOL0     H25484   6.625   5.948   9.651  0.9953 -2.4825 -2.7050
  930MOL0     H25485   6.821   5.875   9.684 -1.9426  0.4558  1.8949
  930MOL0     H25486   6.845   5.764   9.819  4.5613  0.4149 -0.2071
  930MOL0     H25487   7.043   5.734   9.709  1.0000 -0.4100  1.0197
  930MOL0     H25488   6.950   5.588   9.663  0.7836 -0.0309 -3.7902
  930MOL0     H25489   6.890   5.704   9.449  0.4253 -2.2327  0.2692
  930MOL0     H25490   6.968   5.857   9.502  3.6379 -0.3326 -4.2594
  930MOL0     H25491   7.185   5.729   9.502 -2.2324  1.9570  0.9010
  930MOL0     H25492   7.100   5.594   9.416  1.5319  0.8830 -1.0041
  930MOL0     H25493   7.028   5.757   9.238 -1.8925  3.4450  0.6236
  930MOL0     H25494   7.095   5.886   9.329  0.5004  0.4337  1.8556
  930MOL0     H25495   7.219   5.846   9.134 -1.7798 -0.3034  1.1268
  930MOL0     H25496   7.320   5.828   9.279  1.4805 -3.8555  0.3946
  930MOL0     H25497   7.387   5.633   9.162 -0.7160 -1.1906 -2.0906
  930MOL0     H25498   7.266   5.568   9.268  2.4968 -0.1553  0.2481
  930MOL0     H25499   7.259   5.503   9.016  0.0817 -0.0727  1.2458
  930MOL0     H25500   7.217   5.670   8.981  1.0046 -0.6151 -0.7850
  930MOL0     H25501   7.057   5.395   9.235 -1.1263  1.1828  1.5544
  930MOL0     H25502   6.776   5.316   9.179 -2.3766  0.5195  0.2613
  930MOL0     H25503   6.842   5.386   9.343  1.8067  2.1771 -0.2089
  930MOL0     H25504   6.582   5.463   9.191  0.9504  1.6840 -0.8063
  930MOL0     H25505   6.663   5.572   9.310  0.6971  0.0212 -0.3092
  930MOL0     H25506   6.481   5.431   9.390  0.2841  1.4128  2.3919
  930MOL0     H25507   6.629   5.404   9.482 -3.5138 -0.1999  1.6221
  930MOL0     H25508   6.658   5.198   9.324 -0.5471 -0.9690 -1.8456
  930MOL0     H25509   6.508   5.240   9.256  1.9984  1.5983 -1.3534
  930MOL0     H25510   6.356   5.109   9.249 -0.1721 -0.5351 -0.0904
  930MOL0     H25511   6.141   5.050   9.168  3.3685  0.5919  0.0446
  930MOL0     H25512   6.162   4.877   9.170 -1.9334 -0.0583 -1.6841
  930MOL0     H25513   6.035   4.947   9.262  0.8973 -1.0483  3.2312
  930MOL0     H25514   6.089   4.497   9.431 -0.4624 -1.6866 -0.0255
  930MOL0     H25515   5.893   4.331   9.458  1.2854 -0.4798 -0.9440
  930MOL0     H25516   5.466   4.496   9.524  1.5735  0.1248  0.4771
  930MOL0     H25517   5.484   4.449   9.353  0.4745  2.2687 -0.0069
  930MOL0     H25518   5.462   4.216   9.404  1.4962 -2.1826  3.3500
  930MOL0     H25519   5.464   4.249   9.577  0.8581 -3.2000 -0.4743
  930MOL0     H25520   5.234   4.360   9.562  1.5726  0.5795 -1.1153
  930MOL0     H25521   5.248   4.183   9.496  1.7947 -0.5871  0.7480
  930MOL0     H25522   5.231   4.457   9.343 -1.1236 -0.0189  0.6952
  930MOL0     H25523   5.256   4.303   9.267  1.4970 -0.5285  1.5333
  930MOL0     H25524   5.021   4.339   9.452  2.9630 -3.5253  3.2169
  930MOL0     H25525   5.053   4.207   9.339  1.8628  1.1137 -1.8947
  930MOL0     H25526   5.012   4.495   9.262 -0.6768 -0.9782 -1.0358
  930MOL0     H25527   5.020   4.368   9.143  2.2101  0.2196 -0.1067
  930MOL0     H25528   4.785   4.368   9.350 -0.0106  3.9962  0.2879
  930MOL0     H25529   4.813   4.266   9.215  1.7855  0.0195  0.3334
  930MOL0     H25530   4.803   4.480   9.062 -2.1029  3.0446 -0.7568
  930MOL0     H25531   4.770   4.583   9.205  0.7287 -0.8171  2.2828
  930MOL0     H25532   5.616   4.661   9.502 -0.0508  0.4758  1.1314
  930MOL0     H25533   5.811   4.820   9.452  0.2169 -0.0592  2.7763
  930MOL0     H25534   6.245   4.937   9.706  0.5643  3.1118  1.1419
  930MOL0     H25535   6.419   5.093   9.674 -0.6263 -0.2357  0.1882
  930MOL0     H25536   6.545   5.552   9.789  1.5882  0.4191  2.0462
  930MOL0     H25537   6.318   5.635   9.891 -1.0792  1.2444 -1.5199
  930MOL0     H25538   6.169   5.913  10.152 -1.6530 -3.1204 -0.0973
  930MOL0     H25539   5.997   5.949  10.330 -1.5417 -2.3508 -0.2156
  930MOL0     H25540   5.566   5.998  10.174 -1.5434  1.9592 -0.0687
  930MOL0     H25541   5.556   6.045  10.338 -1.8424 -2.1423 -0.9823
  930MOL0     H25542   5.510   6.226  10.151 -1.0018 -2.1621 -0.2150
  930MOL0     H25543   5.677   6.240  10.128 -2.3140  2.5170 -0.6607
  930MOL0     H25544   5.670   6.383  10.302 -1.8981  0.6624 -1.3273
  930MOL0     H25545   5.658   6.251  10.415 -2.5734  1.4880  2.1022
  930MOL0     H25546   5.409   6.406  10.299  0.6515 -0.5508 -1.4499
  930MOL0     H25547   5.493   6.440  10.443  3.1542  0.1368 -1.5855
  930MOL0     H25548   5.337   6.050  10.530  1.3805  2.3249  4.7212
  930MOL0     H25549   5.705   6.011  10.015  0.4782  2.5228  0.2227
  930MOL0     H25550   5.880   5.990   9.849  0.6884  1.8953 -0.2286
  931MOL0     O25551   5.258   5.619   3.496  0.4797 -0.1089 -0.3059
  931MOL0     C25552   5.339   5.640   3.403 -0.5735 -0.8388 -0.5766
  931MOL0     O25553   5.438   5.738   3.401 -0.3924 -0.3820 -0.2826
  931MOL0     C25554   5.411   5.853   3.473 -0.2774 -0.3004  0.2545
  931MOL0     C25555   5.416   5.975   3.410  0.3797  0.0788 -0.5341
  931MOL0     C25556   5.396   6.090   3.482 -0.0623 -0.6003 -0.9311
  931MOL0     C25557   5.374   6.076   3.625  0.2058 -0.4404  0.1857
  931MOL0     O25558   5.354   6.194   3.680  0.3444 -0.9151  0.2004
  931MOL0     C25559   5.309   6.219   3.816  0.6392  0.3814  0.1920
  931MOL0     C25560   5.164   6.269   3.801 -0.2323 -0.0558 -0.3190
  931MOL0     C25561   5.118   6.342   3.932 -0.9305 -0.4470  0.3426
  931MOL0     C25562   4.967   6.383   3.944  0.2437 -0.6714 -0.4088
  931MOL0     C25563   4.941   6.487   3.840  0.1690  0.4907  0.7814
  931MOL0     C25564   4.787   6.519   3.815  0.0029  0.3072 -0.5558
  931MOL0     C25565   4.772   6.633   3.705 -0.4391  0.8341  0.1568
  931MOL0     C25566   4.626   6.649   3.662  0.6370  0.3645 -0.2095
  931MOL0     N25567   4.605   6.765   3.580 -0.0846  0.5768 -0.7772
  931MOL0     C25568   4.701   6.831   3.506  1.2145 -1.1223  0.4331
  931MOL0     C25569   4.630   6.913   3.426  0.9498  0.4845 -1.6525
  931MOL0     C25570   4.666   7.007   3.312  0.0520 -0.7317 -0.1216
  931MOL0     C25571   4.779   7.106   3.343 -1.4009  0.7473  0.3576
  931MOL0     C25572   4.875   7.116   3.226  0.0204 -0.5603  0.2157
  931MOL0     C25573   4.993   7.208   3.262  0.2854 -0.5254 -0.0527
  931MOL0     O25574   4.936   7.337   3.281  0.5728  1.0090  0.3351
  931MOL0     C25575   5.009   7.432   3.334 -0.3672 -0.2862 -0.2449
  931MOL0     C25576   5.077   7.411   3.457  0.0814  0.2094  0.5447
  931MOL0     C25577   5.147   7.509   3.511 -0.0591 -0.4373 -0.6977
  931MOL0     C25578   5.234   7.450   3.628 -1.3692 -0.7797  0.3781
  931MOL0     C25579   5.158   7.638   3.471 -0.5839 -0.0892 -0.4090
  931MOL0     C25580   5.215   7.751   3.545  0.2554 -1.0735  0.1922
  931MOL0     O25581   5.160   7.875   3.514  1.2467 -0.3056  0.4227
  931MOL0     C25582   5.190   7.978   3.603 -1.6824 -0.3613  0.3871
  931MOL0     C25583   5.230   8.096   3.546 -0.4207 -0.2621 -0.2499
  931MOL0     C25584   5.263   8.208   3.622  0.0164 -0.5698  0.2356
  931MOL0     C25585   5.279   8.200   3.761 -0.0934 -0.1541  0.4200
  931MOL0     O25586   5.312   8.309   3.837 -0.0049 -0.3441  0.4301
  931MOL0     C25587   5.274   8.440   3.797  0.2533 -0.2945 -0.3288
  931MOL0     C25588   5.136   8.482   3.806 -0.4180 -0.2232  0.0211
  931MOL0     C25589   5.066   8.438   3.933  0.6360 -0.2727  0.0709
  931MOL0     C25590   5.111   8.537   4.046  0.2145  0.3812 -0.1752
  931MOL0     C25591   5.054   8.516   4.178  0.6532 -0.6289  0.4781
  931MOL0     C25592   5.103   8.392   4.248  1.1549  0.6249  0.5678
  931MOL0     C25593   5.069   8.377   4.396 -0.1308 -0.3000  0.6395
  931MOL0     C25594   5.135   8.256   4.472  0.7103  0.6885  0.0096
  931MOL0    Cl25595   5.157   8.298   4.641 -0.0446 -0.2302  0.1182
  931MOL0     C25596   5.230   8.082   3.820 -1.0366  0.1866 -0.7480
  931MOL0     C25597   5.187   7.978   3.744  0.8403  0.0144 -0.9157
  931MOL0     O25598   5.290   7.732   3.636 -0.2411 -1.1524 -0.2604
  931MOL0     C25599   5.093   7.664   3.350 -0.1933 -0.5980  0.4948
  931MOL0     C25600   5.010   7.563   3.281 -1.0356  0.8384  0.0586
  931MOL0     N25601   4.488   6.890   3.454 -1.2787 -0.1782  0.3912
  931MOL0     N25602   4.479   6.813   3.558  0.4251 -0.3247  0.0745
  931MOL0     C25603   5.373   5.946   3.693 -0.4891  0.2692  0.2743
  931MOL0     C25604   5.395   5.839   3.611 -0.9096 -0.9943 -0.0936
  931MOL0     C25605   5.344   5.551   3.295 -0.2317  0.7878  0.7365
  931MOL0     C25606   5.389   5.590   3.165  0.1893 -0.5311  0.0796
  931MOL0     C25607   5.363   5.500   3.058 -0.5289  0.6749  0.0032
  931MOL0     C25608   5.322   5.372   3.073 -0.2528  0.3103  0.2116
  931MOL0     O25609   5.271   5.291   2.977 -0.3131 -0.3588 -0.1450
  931MOL0     C25610   5.343   5.287   2.855 -0.0066  0.2887  0.1909
  931MOL0     C25611   5.328   5.150   2.780 -0.1496 -0.3543  0.0856
  931MOL0     C25612   5.206   5.130   2.686  0.7676  0.7339 -0.0194
  931MOL0     C25613   5.185   5.216   2.554  0.0299  0.4190 -0.4368
  931MOL0     C25614   5.045   5.221   2.515  0.9944 -0.3671  0.3045
  931MOL0     C25615   4.928   5.214   2.486  0.0260 -0.3365 -0.1028
  931MOL0     C25616   5.287   5.331   3.197 -0.1312  0.6928 -0.0203
  931MOL0     C25617   5.310   5.411   3.305 -0.0880  0.3113 -0.0939
  931MOL0     H25618   5.432   5.999   3.306 -0.8114  1.3031 -0.4595
  931MOL0     H25619   5.406   6.185   3.430  0.9382 -0.0200  0.2687
  931MOL0     H25620   5.315   6.130   3.879 -2.6161 -0.1300 -0.0315
  931MOL0     H25621   5.364   6.304   3.857  1.8288 -0.6447  0.7955
  931MOL0     H25622   5.163   6.327   3.708  0.8240 -0.9232 -0.9090
  931MOL0     H25623   5.095   6.185   3.792  1.3184 -1.2388 -1.8781
  931MOL0     H25624   5.138   6.287   4.025  1.6547 -0.1847 -0.0003
  931MOL0     H25625   5.173   6.436   3.933 -0.5184 -0.6612 -0.7338
  931MOL0     H25626   4.895   6.302   3.926  0.2460 -0.7396 -0.1054
  931MOL0     H25627   4.948   6.426   4.042 -0.7552  3.4142 -2.1986
  931MOL0     H25628   4.981   6.587   3.860  0.6013  0.7468 -1.2093
  931MOL0     H25629   4.988   6.446   3.750 -1.1598  1.1417 -0.2442
  931MOL0     H25630   4.744   6.426   3.780 -0.2128 -0.2691  1.1361
  931MOL0     H25631   4.738   6.548   3.909  0.7533  0.1001 -0.0898
  931MOL0     H25632   4.817   6.723   3.749  1.5018  0.0814 -0.2055
  931MOL0     H25633   4.833   6.602   3.620 -3.2343  1.6169 -2.3038
  931MOL0     H25634   4.563   6.653   3.751  2.1181 -1.7497  1.0496
  931MOL0     H25635   4.587   6.563   3.606  0.1893 -0.7023  1.6338
  931MOL0     H25636   4.809   6.828   3.496  1.2808  0.9056 -0.0070
  931MOL0     H25637   4.690   6.954   3.220  0.9498 -1.3768  0.4730
  931MOL0     H25638   4.575   7.067   3.295 -0.7581 -2.1429 -0.9313
  931MOL0     H25639   4.830   7.074   3.435  0.8658  1.7579 -0.4820
  931MOL0     H25640   4.737   7.207   3.348 -1.7626  0.5574  1.7555
  931MOL0     H25641   4.819   7.164   3.145 -0.7924 -0.4390  0.8404
  931MOL0     H25642   4.914   7.023   3.185  0.1264 -0.1488 -0.6531
  931MOL0     H25643   5.059   7.208   3.176  0.2078  1.6256 -0.1613
  931MOL0     H25644   5.067   7.182   3.339  2.2379  0.6813 -1.4420
  931MOL0     H25645   5.062   7.318   3.511  1.0726 -0.3682 -0.1401
  931MOL0     H25646   5.331   7.496   3.604 -3.1840  2.2348 -1.9109
  931MOL0     H25647   5.207   7.468   3.732  1.7739 -0.8372  1.3278
  931MOL0     H25648   5.253   7.343   3.619  1.2657 -0.3497 -0.1386
  931MOL0     H25649   5.212   8.103   3.439 -0.2667 -1.6858 -0.3855
  931MOL0     H25650   5.272   8.304   3.572 -1.8708  0.6474  2.0795
  931MOL0     H25651   5.326   8.512   3.860 -0.2182 -0.3897  0.1760
  931MOL0     H25652   5.308   8.467   3.696  1.2714 -0.0650  0.0734
  931MOL0     H25653   5.133   8.590   3.793  0.4781 -0.0926  0.7964
  931MOL0     H25654   5.087   8.436   3.719 -2.4287  0.1672  0.8878
  931MOL0     H25655   5.088   8.335   3.961 -0.5379 -1.3695 -2.7197
  931MOL0     H25656   4.959   8.461   3.930  0.8004  1.9457  4.1294
  931MOL0     H25657   5.219   8.560   4.046  0.1107  1.7988 -4.5214
  931MOL0     H25658   5.082   8.635   4.007  1.8298  0.0210 -2.4504
  931MOL0     H25659   4.945   8.510   4.165  0.7770 -0.8849 -0.4997
  931MOL0     H25660   5.074   8.600   4.244  0.8326 -2.0115  2.2826
  931MOL0     H25661   5.047   8.313   4.197 -1.1926  1.4599  1.6932
  931MOL0     H25662   5.210   8.390   4.224  0.8293  2.6663 -1.4397
  931MOL0     H25663   4.962   8.360   4.408 -0.1580 -2.1364 -1.6668
  931MOL0     H25664   5.098   8.467   4.452 -2.4311  2.7861 -2.6822
  931MOL0     H25665   5.230   8.228   4.426 -0.4623 -2.7508 -0.5818
  931MOL0     H25666   5.080   8.165   4.446  1.0912  1.0240 -2.1459
  931MOL0     H25667   5.214   8.089   3.927  2.2809  0.0845 -0.1225
  931MOL0     H25668   5.131   7.891   3.778 -0.8789  0.7703 -1.7008
  931MOL0     H25669   5.102   7.765   3.310  1.0067 -0.7101  0.4454
  931MOL0     H25670   4.948   7.590   3.196 -0.7429 -1.1391 -0.8193
  931MOL0     H25671   5.340   5.926   3.795  0.7686  2.9691  1.3011
  931MOL0     H25672   5.388   5.737   3.647  2.2151 -1.7213 -1.2012
  931MOL0     H25673   5.423   5.690   3.141 -0.6431  0.5800  3.0112
  931MOL0     H25674   5.378   5.549   2.962  0.5310  2.2563  0.9244
  931MOL0     H25675   5.308   5.374   2.799 -4.6998 -1.9490 -0.8576
  931MOL0     H25676   5.450   5.301   2.869 -0.1676  1.0213  0.7357
  931MOL0     H25677   5.325   5.068   2.853  0.5166  0.4659  1.0579
  931MOL0     H25678   5.419   5.140   2.720 -0.1794 -0.0739 -0.0070
  931MOL0     H25679   5.117   5.150   2.748 -0.5736  1.0829 -1.9683
  931MOL0     H25680   5.196   5.028   2.649  3.3886  0.4825 -0.2314
  931MOL0     H25681   5.235   5.150   2.482  0.9388 -0.6680  1.1236
  931MOL0     H25682   5.243   5.308   2.564 -0.0622  0.4903 -0.5435
  931MOL0     H25683   4.822   5.218   2.469  0.3354 -1.0030 -2.5746
  931MOL0     H25684   5.259   5.228   3.217  0.0929  0.7570  0.6477
  931MOL0     H25685   5.289   5.363   3.399  2.4727 -1.9435 -0.5544
  932MOL0     O25686   8.136   1.951   1.002 -0.9449 -0.4818 -0.7870
  932MOL0     C25687   8.152   2.067   1.042  0.3896  0.2852  0.3537
  932MOL0     O25688   8.047   2.158   1.058  0.2223 -0.7636  0.3020
  932MOL0     C25689   7.920   2.143   1.015 -0.4280  0.3202 -0.5661
  932MOL0     C25690   7.841   2.031   1.018 -1.1837 -0.0066 -0.3779
  932MOL0     C25691   7.722   2.034   0.962  0.0735 -0.3168  0.0957
  932MOL0     C25692   7.677   2.146   0.889 -0.3146 -0.3910 -0.0005
  932MOL0     O25693   7.552   2.163   0.832  0.6626 -0.8130 -0.1731
  932MOL0     C25694   7.434   2.094   0.877  0.0133  0.1439  1.3918
  932MOL0     C25695   7.390   2.114   1.022 -0.4771  0.5240  0.4892
  932MOL0     C25696   7.389   2.260   1.052 -0.7990  0.4945  0.0798
  932MOL0     C25697   7.493   2.316   1.148 -0.8965  0.1978  0.0692
  932MOL0     C25698   7.525   2.461   1.120  0.6712  0.0369 -0.1497
  932MOL0     C25699   7.400   2.550   1.153  0.2309 -0.7934 -0.0041
  932MOL0     C25700   7.444   2.703   1.157  0.2236 -0.0646  1.3383
  932MOL0     C25701   7.318   2.794   1.183 -1.0043 -0.6424  1.0064
  932MOL0     N25702   7.345   2.916   1.110  0.4216  0.6760 -0.5778
  932MOL0     C25703   7.336   2.948   0.967  0.4549 -0.7573  0.0295
  932MOL0     C25704   7.393   3.073   0.954 -0.2653 -0.3613 -0.5385
  932MOL0     C25705   7.406   3.147   0.824  0.1331 -0.6812  0.6846
  932MOL0     C25706   7.534   3.234   0.802  0.7113  0.2631  0.0869
  932MOL0     C25707   7.568   3.340   0.913  1.0178  0.2314 -0.2504
  932MOL0     C25708   7.687   3.439   0.884 -0.2400  0.0164  0.6248
  932MOL0     O25709   7.639   3.537   0.794  0.8229  0.6466 -0.2403
  932MOL0     C25710   7.727   3.644   0.757  0.7953 -0.6828 -0.2433
  932MOL0     C25711   7.664   3.762   0.711 -1.2731  1.0688  0.4326
  932MOL0     C25712   7.734   3.874   0.685 -0.0563  1.2367  0.6785
  932MOL0     C25713   7.658   3.997   0.646  0.7631 -0.6710 -0.0816
  932MOL0     C25714   7.876   3.876   0.697  0.8920  0.5748  0.3143
  932MOL0     C25715   7.976   3.985   0.651 -0.4344  0.3198 -0.6943
  932MOL0     O25716   8.108   3.953   0.633  0.1881  0.1826  1.1142
  932MOL0     C25717   8.202   4.055   0.631 -0.9919  0.8557  0.1406
  932MOL0     C25718   8.231   4.137   0.742 -0.1774  0.6579  0.1236
  932MOL0     C25719   8.330   4.229   0.744  0.2673  0.7393  0.2104
  932MOL0     C25720   8.409   4.243   0.626  0.3085  0.5158  0.0991
  932MOL0     O25721   8.523   4.323   0.641  0.1562  1.2878  1.1678
  932MOL0     C25722   8.646   4.304   0.563 -0.2076 -0.3063 -0.7538
  932MOL0     C25723   8.669   4.418   0.469  0.5625 -0.7690  0.1652
  932MOL0     C25724   8.702   4.552   0.549  0.1495  0.4200 -0.4796
  932MOL0     C25725   8.844   4.569   0.597 -0.4934 -0.7262 -0.7963
  932MOL0     C25726   8.865   4.715   0.643  0.7051 -0.1880  0.4871
  932MOL0     C25727   9.002   4.729   0.705 -0.3592 -0.6497  0.3744
  932MOL0     C25728   9.017   4.866   0.766 -0.4894  0.2129  0.6555
  932MOL0     C25729   9.152   4.905   0.788 -1.1530 -0.0000 -0.1371
  932MOL0    Cl25730   9.162   5.061   0.882 -0.2774 -0.2711  0.2917
  932MOL0     C25731   8.387   4.157   0.521 -0.3482 -1.1027  0.6333
  932MOL0     C25732   8.283   4.068   0.512 -0.3352  0.2971  0.1150
  932MOL0     O25733   7.932   4.100   0.628 -0.4556 -1.0211 -0.8728
  932MOL0     C25734   7.938   3.754   0.746  0.4832 -0.5054  1.3441
  932MOL0     C25735   7.866   3.644   0.771  0.5686 -0.3947  0.3875
  932MOL0     N25736   7.417   3.114   1.089 -0.4324  0.5090 -0.0470
  932MOL0     N25737   7.392   3.024   1.171 -0.0388  0.6660 -0.1343
  932MOL0     C25738   7.755   2.262   0.887 -0.0482 -0.2497  0.0326
  932MOL0     C25739   7.880   2.259   0.941  0.9529  0.2096  0.4413
  932MOL0     C25740   8.287   2.092   1.078 -0.2450 -0.7228  0.1636
  932MOL0     C25741   8.392   2.006   1.051 -0.3122 -0.0939  0.2701
  932MOL0     C25742   8.523   2.044   1.080  0.3532  0.8554 -0.6471
  932MOL0     C25743   8.551   2.174   1.139  0.3663 -0.3775 -0.0848
  932MOL0     O25744   8.681   2.223   1.143  0.0763  0.4383  0.6357
  932MOL0     C25745   8.704   2.343   1.068 -0.5021  1.2257 -0.3711
  932MOL0     C25746   8.761   2.458   1.154 -0.2581 -0.1715  0.2399
  932MOL0     C25747   8.895   2.424   1.224  0.0303  0.4235  1.0253
  932MOL0     C25748   9.012   2.489   1.150  1.0546 -0.7416  0.4592
  932MOL0     C25749   9.017   2.631   1.194 -0.2357 -0.1401 -0.8514
  932MOL0     C25750   9.051   2.733   1.236  0.6136  0.5946 -0.4374
  932MOL0     C25751   8.445   2.260   1.172  0.8121 -0.0676  0.9673
  932MOL0     C25752   8.316   2.217   1.140 -0.7631 -0.7733  0.4055
  932MOL0     H25753   7.887   1.945   1.066  2.0286  0.7899 -1.7597
  932MOL0     H25754   7.658   1.946   0.960  1.0106 -1.0466  1.0228
  932MOL0     H25755   7.353   2.118   0.808  0.2094 -3.4180 -0.3097
  932MOL0     H25756   7.441   1.985   0.869  0.0048  0.1359  1.4884
  932MOL0     H25757   7.288   2.073   1.024 -0.6886  1.0367  0.2928
  932MOL0     H25758   7.441   2.047   1.091 -2.7652 -1.4131  0.4532
  932MOL0     H25759   7.392   2.318   0.960 -3.4944 -0.2212 -0.5574
  932MOL0     H25760   7.291   2.281   1.096 -1.5307  1.0728 -1.7698
  932MOL0     H25761   7.471   2.296   1.253 -1.4854 -0.4218 -0.1646
  932MOL0     H25762   7.586   2.261   1.132 -0.6064  0.0217  2.0772
  932MOL0     H25763   7.604   2.493   1.188  0.2786  2.5688 -0.7908
  932MOL0     H25764   7.551   2.474   1.014 -0.7035  1.0070 -0.3916
  932MOL0     H25765   7.320   2.530   1.082  0.8010 -2.2977 -0.2565
  932MOL0     H25766   7.371   2.512   1.252  1.4300 -3.1505 -0.4836
  932MOL0     H25767   7.524   2.721   1.230  0.9251 -0.1424  0.6018
  932MOL0     H25768   7.488   2.732   1.061  1.5558  0.2710  2.0192
  932MOL0     H25769   7.336   2.814   1.289  0.5390  4.2637  0.0553
  932MOL0     H25770   7.219   2.754   1.158 -0.0211 -1.5934 -1.7918
  932MOL0     H25771   7.298   2.880   0.891 -2.4083  0.9585 -0.2174
  932MOL0     H25772   7.408   3.083   0.735 -1.0565  2.4365 -1.7815
  932MOL0     H25773   7.316   3.210   0.826  0.8078  0.2910  2.1379
  932MOL0     H25774   7.508   3.289   0.711 -1.8088  0.7095  0.9953
  932MOL0     H25775   7.623   3.173   0.784  0.8395 -0.1258  1.8261
  932MOL0     H25776   7.606   3.287   1.000  1.8781 -1.3962 -1.5789
  932MOL0     H25777   7.472   3.391   0.932  0.5479 -0.7230 -0.0229
  932MOL0     H25778   7.773   3.383   0.847  0.4554  0.0129  2.1876
  932MOL0     H25779   7.703   3.490   0.980  2.8383 -0.8673  0.6627
  932MOL0     H25780   7.558   3.752   0.692 -0.4846 -1.1641 -4.2557
  932MOL0     H25781   7.553   3.975   0.625 -0.0614  0.5136  2.4165
  932MOL0     H25782   7.675   4.057   0.735  2.0954 -1.8539  0.4979
  932MOL0     H25783   7.712   4.045   0.563  1.1522  1.9776  1.5910
  932MOL0     H25784   8.167   4.122   0.828 -2.4794 -0.9929 -1.7450
  932MOL0     H25785   8.351   4.298   0.825  0.8900  1.1421 -0.2883
  932MOL0     H25786   8.724   4.311   0.639 -1.9878  2.1358  1.0023
  932MOL0     H25787   8.655   4.209   0.509 -2.4090 -1.8853  1.4234
  932MOL0     H25788   8.744   4.384   0.398 -1.0929 -0.3624 -1.8974
  932MOL0     H25789   8.571   4.426   0.420 -0.0695  2.0279  1.6264
  932MOL0     H25790   8.626   4.575   0.624 -0.6016 -2.9680 -0.0140
  932MOL0     H25791   8.667   4.630   0.480 -0.7963  2.1453  1.8455
  932MOL0     H25792   8.870   4.500   0.677  1.5566  1.4248  0.5335
  932MOL0     H25793   8.915   4.542   0.518 -0.1211  1.4553 -1.2754
  932MOL0     H25794   8.787   4.735   0.717 -2.7669 -0.4639 -2.7914
  932MOL0     H25795   8.847   4.778   0.555  1.9778 -1.8646 -1.0455
  932MOL0     H25796   9.014   4.651   0.781 -1.2111 -1.5457 -0.3909
  932MOL0     H25797   9.082   4.715   0.632  3.2698  0.8406  3.6812
  932MOL0     H25798   8.961   4.873   0.860  2.2286  1.1077  2.3119
  932MOL0     H25799   8.974   4.944   0.702  0.2157 -0.7584 -1.0555
  932MOL0     H25800   9.204   4.925   0.693 -0.9283  0.4792  0.0852
  932MOL0     H25801   9.209   4.823   0.832  1.4656  2.3438  1.2068
  932MOL0     H25802   8.460   4.167   0.441  1.5464  2.9926  2.5441
  932MOL0     H25803   8.251   4.007   0.428 -2.5586  0.5297  0.7212
  932MOL0     H25804   8.045   3.738   0.755  0.6146  0.1713  1.0156
  932MOL0     H25805   7.915   3.549   0.789 -4.1559 -2.8040  2.3296
  932MOL0     H25806   7.717   2.345   0.828  1.7196  0.1190 -0.6800
  932MOL0     H25807   7.938   2.346   0.912 -0.2290  0.6637 -0.6355
  932MOL0     H25808   8.371   1.904   1.021  1.8173 -0.6560  0.5388
  932MOL0     H25809   8.608   1.978   1.068  0.3838  0.8015 -0.1545
  932MOL0     H25810   8.774   2.300   0.996  2.5481 -0.1008  3.0719
  932MOL0     H25811   8.615   2.378   1.015 -0.6914  0.4181 -0.5861
  932MOL0     H25812   8.689   2.479   1.234 -0.7245  0.5733 -0.3604
  932MOL0     H25813   8.769   2.540   1.082  2.3826  0.8449  1.5690
  932MOL0     H25814   8.918   2.317   1.235  3.3339  0.6863 -1.7239
  932MOL0     H25815   8.900   2.451   1.329  1.2716  1.3967  0.7287
  932MOL0     H25816   9.002   2.488   1.041 -3.1628 -1.1095  0.6601
  932MOL0     H25817   9.107   2.442   1.176  2.2660  2.1727  1.6034
  932MOL0     H25818   9.073   2.834   1.267  0.2742  0.1110  1.5233
  932MOL0     H25819   8.464   2.360   1.209  4.5721  1.0657 -3.1884
  932MOL0     H25820   8.245   2.299   1.148  1.0851  0.8060  1.7438
  933MOL0     O25821   6.324   6.265   7.984  0.9217 -0.6751 -0.5401
  933MOL0     C25822   6.240   6.220   8.067  0.4679 -0.3198 -0.8465
  933MOL0     O25823   6.229   6.261   8.195  0.6068 -0.2911 -0.7066
  933MOL0     C25824   6.346   6.313   8.249  0.6171  0.2076  0.1644
  933MOL0     C25825   6.430   6.230   8.312 -0.3766 -0.2483 -0.0659
  933MOL0     C25826   6.545   6.275   8.380  0.8032  0.4931  0.0394
  933MOL0     C25827   6.573   6.408   8.376  0.1217 -0.3402 -0.7435
  933MOL0     O25828   6.677   6.441   8.457  0.2833 -0.0579  0.5501
  933MOL0     C25829   6.702   6.581   8.490 -0.8461 -0.2408 -0.6859
  933MOL0     C25830   6.813   6.583   8.596  0.8814  0.2361  0.2235
  933MOL0     C25831   6.832   6.730   8.630  0.2952 -0.9302  0.4473
  933MOL0     C25832   6.731   6.781   8.738  0.3914 -0.0175  0.4199
  933MOL0     C25833   6.789   6.893   8.822  0.2398 -0.6355 -0.4149
  933MOL0     C25834   6.781   7.030   8.768 -0.4980  0.1013  0.5001
  933MOL0     C25835   6.840   7.141   8.858 -0.1620  0.1431  0.3011
  933MOL0     C25836   6.985   7.182   8.834 -0.1246  0.4616  0.3366
  933MOL0     N25837   7.088   7.109   8.904 -0.3047  0.0630  0.1156
  933MOL0     C25838   7.144   7.138   9.026 -0.5957  0.0366 -0.9557
  933MOL0     C25839   7.205   7.023   9.068  0.8384  0.4941 -0.1578
  933MOL0     C25840   7.286   7.014   9.189  0.0775 -0.3733 -0.0575
  933MOL0     C25841   7.384   7.127   9.202 -0.8453 -0.3107  0.1663
  933MOL0     C25842   7.468   7.088   9.332 -0.1169  0.3682  0.5422
  933MOL0     C25843   7.584   7.182   9.363 -0.0120  0.3467 -0.4878
  933MOL0     O25844   7.522   7.313   9.357 -0.1261  0.0953  0.2224
  933MOL0     C25845   7.592   7.396   9.432 -0.8163 -0.2635  0.2772
  933MOL0     C25846   7.536   7.430   9.557 -0.2164  0.0994 -0.4396
  933MOL0     C25847   7.598   7.529   9.633 -0.5594 -0.9414 -0.2717
  933MOL0     C25848   7.546   7.571   9.765  0.9123  0.2544 -1.0112
  933MOL0     C25849   7.725   7.581   9.599 -0.1086 -0.7527  0.0749
  933MOL0     C25850   7.802   7.698   9.663  0.0042  0.7090 -0.8863
  933MOL0     O25851   7.733   7.791   9.729 -0.0851  0.0640 -0.7041
  933MOL0     C25852   7.783   7.891   9.810 -0.5864  0.2776  1.0364
  933MOL0     C25853   7.919   7.914   9.860  0.0054 -1.0325  0.6405
  933MOL0     C25854   7.950   8.041   9.900  0.6078  0.2966 -0.4439
  933MOL0     C25855   7.859   8.144   9.927  0.5327 -0.7006  0.4439
  933MOL0     O25856   7.896   8.259   9.975 -0.5150  0.4519  0.3649
  933MOL0     C25857   7.802   8.362  10.030  0.0790  0.6471  0.0852
  933MOL0     C25858   7.780   8.462   9.925  0.9914 -0.6959  0.2021
  933MOL0     C25859   7.688   8.570   9.975 -0.9254  0.3580 -0.4163
  933MOL0     C25860   7.536   8.548   9.969 -0.3997  0.7763 -0.8715
  933MOL0     C25861   7.464   8.685   9.951  0.0888 -0.0073 -0.3529
  933MOL0     C25862   7.310   8.680   9.953 -0.0721  0.2052 -0.1261
  933MOL0     C25863   7.238   8.809   9.923 -0.1192  0.2264  0.8146
  933MOL0     C25864   7.266   8.930  10.009 -0.0278 -0.1229  0.2444
  933MOL0    Cl25865   7.222   8.899  10.180  0.6533  0.1545  0.0619
  933MOL0     C25866   7.731   8.117   9.890 -0.2608 -1.5539  0.0996
  933MOL0     C25867   7.693   7.990   9.834  0.7415 -0.5883 -0.2118
  933MOL0     O25868   7.916   7.705   9.633  0.5689  0.6791  0.5177
  933MOL0     C25869   7.786   7.517   9.493  0.3142  0.2181  0.8132
  933MOL0     C25870   7.722   7.444   9.393 -0.1009  0.3051 -0.0539
  933MOL0     N25871   7.199   6.928   8.964 -0.8963 -0.2871  0.1086
  933MOL0     N25872   7.130   6.986   8.868  0.0206 -0.5303 -0.3785
  933MOL0     C25873   6.495   6.501   8.295 -0.4716 -0.1099 -0.7299
  933MOL0     C25874   6.374   6.457   8.247 -0.3593  0.9450 -1.1570
  933MOL0     C25875   6.132   6.129   8.004 -0.3020  0.4902 -1.0063
  933MOL0     C25876   6.156   6.054   7.884 -1.6067  0.0658 -0.0519
  933MOL0     C25877   6.058   5.953   7.845 -0.7286 -0.2064  0.1868
  933MOL0     C25878   5.931   5.951   7.908 -0.5631  0.1207 -0.8575
  933MOL0     O25879   5.820   5.873   7.892  0.1014  0.0217 -0.2246
  933MOL0     C25880   5.832   5.777   7.785 -0.6340  0.5661  0.4347
  933MOL0     C25881   5.714   5.668   7.791 -0.0484 -0.2300  0.2578
  933MOL0     C25882   5.572   5.718   7.789 -1.0305 -0.1519 -1.1376
  933MOL0     C25883   5.514   5.760   7.662  0.8149 -0.3477 -0.9025
  933MOL0     C25884   5.386   5.831   7.699  0.2639 -0.4761 -0.1049
  933MOL0     C25885   5.298   5.903   7.747  0.3478  0.0566 -1.1122
  933MOL0     C25886   5.909   6.038   8.016 -0.2032 -0.5328 -0.0116
  933MOL0     C25887   6.009   6.119   8.063  0.2211  0.4977 -0.9188
  933MOL0     H25888   6.381   6.134   8.327 -4.5497  1.7405  0.6671
  933MOL0     H25889   6.603   6.197   8.428 -1.3376  0.4226  2.7338
  933MOL0     H25890   6.744   6.636   8.406 -2.2673 -0.8909 -1.8605
  933MOL0     H25891   6.609   6.630   8.521  0.0401  2.1187 -1.5437
  933MOL0     H25892   6.786   6.529   8.687 -0.1365 -2.9585 -1.8204
  933MOL0     H25893   6.912   6.551   8.562  0.8066 -0.0831  0.3087
  933MOL0     H25894   6.930   6.762   8.667 -0.8448  1.5337  1.6018
  933MOL0     H25895   6.819   6.787   8.537  1.7726 -0.1636  0.6877
  933MOL0     H25896   6.640   6.807   8.684  1.5678 -0.4645 -1.9116
  933MOL0     H25897   6.714   6.697   8.806  2.2790  1.0239  2.3114
  933MOL0     H25898   6.734   6.894   8.916  0.9417  2.7441  0.0925
  933MOL0     H25899   6.891   6.866   8.853 -0.2862 -0.5355  1.5226
  933MOL0     H25900   6.834   7.041   8.672 -0.1107 -2.1495  0.3951
  933MOL0     H25901   6.675   7.054   8.753 -0.2924  0.8372  0.2031
  933MOL0     H25902   6.781   7.226   8.823 -1.6245  0.3861  3.0639
  933MOL0     H25903   6.833   7.122   8.965 -0.1429 -1.0058  0.1197
  933MOL0     H25904   7.001   7.286   8.864 -0.1375  1.1160 -1.7599
  933MOL0     H25905   7.021   7.174   8.731  1.2004  0.2065  0.8059
  933MOL0     H25906   7.128   7.233   9.076 -0.5838  0.1096 -1.0879
  933MOL0     H25907   7.218   7.036   9.271  0.2178  1.1196 -0.3015
  933MOL0     H25908   7.326   6.914   9.202 -0.6598 -1.0911 -2.6811
  933MOL0     H25909   7.325   7.217   9.222  0.2501  0.2033  1.1857
  933MOL0     H25910   7.447   7.143   9.114 -1.5343  0.7378 -0.1664
  933MOL0     H25911   7.509   6.987   9.319 -0.9096 -0.1007  1.5730
  933MOL0     H25912   7.401   7.097   9.417  1.3032  1.7893  1.5810
  933MOL0     H25913   7.654   7.173   9.279 -1.1889  0.4929 -1.5172
  933MOL0     H25914   7.621   7.160   9.463  0.8675  0.8074 -0.7052
  933MOL0     H25915   7.452   7.381   9.606  1.3367  1.4595  4.2030
  933MOL0     H25916   7.470   7.496   9.790 -0.0362  0.7224 -2.3784
  933MOL0     H25917   7.625   7.590   9.838  1.1254  0.0636 -1.1896
  933MOL0     H25918   7.488   7.663   9.758 -0.7149 -0.7619 -1.3571
  933MOL0     H25919   8.000   7.847   9.833 -0.0406 -1.0791  0.6188
  933MOL0     H25920   8.048   8.059   9.945  0.6772  1.5813 -1.0461
  933MOL0     H25921   7.716   8.311  10.074 -0.4039  0.0774 -1.4573
  933MOL0     H25922   7.853   8.419  10.108  1.5266 -1.0055  0.4049
  933MOL0     H25923   7.875   8.498   9.884  0.1673  0.9408 -0.3383
  933MOL0     H25924   7.745   8.419   9.831  1.3410  1.1647 -0.8233
  933MOL0     H25925   7.697   8.658   9.910  2.6143  1.2818  1.0980
  933MOL0     H25926   7.718   8.608  10.073 -2.0952  2.5990 -0.8647
  933MOL0     H25927   7.525   8.497   9.873  3.2420  1.0681 -1.5818
  933MOL0     H25928   7.505   8.490  10.057 -2.1106  0.9999 -1.2932
  933MOL0     H25929   7.498   8.736   9.860  1.9089  2.9213  1.7860
  933MOL0     H25930   7.487   8.757  10.030  1.6003  2.7659 -3.1251
  933MOL0     H25931   7.279   8.600   9.886  0.1780  2.2083 -2.8183
  933MOL0     H25932   7.277   8.635  10.047 -2.6434 -1.2147 -1.6012
  933MOL0     H25933   7.131   8.790   9.919 -0.0055 -0.3975  0.5715
  933MOL0     H25934   7.266   8.842   9.823 -3.1022  1.9683  0.4498
  933MOL0     H25935   7.209   9.017   9.974  0.4895  1.4398  3.0389
  933MOL0     H25936   7.374   8.945  10.003  0.2978 -0.1534  3.8071
  933MOL0     H25937   7.662   8.196   9.918  0.8427 -1.4976  3.0922
  933MOL0     H25938   7.590   7.969   9.810  0.3473 -2.0515  2.3934
  933MOL0     H25939   7.891   7.532   9.470  0.6127  1.5420  2.7966
  933MOL0     H25940   7.757   7.426   9.292 -4.0794 -1.1791 -1.3714
  933MOL0     H25941   6.528   6.604   8.288  1.9138 -0.4098  3.0545
  933MOL0     H25942   6.310   6.540   8.222 -3.8556 -0.1496  2.9331
  933MOL0     H25943   6.248   6.055   7.826 -1.4451 -1.5774  0.1086
  933MOL0     H25944   6.078   5.897   7.754  2.4229  0.1919  0.5101
  933MOL0     H25945   5.827   5.829   7.689  0.9124 -0.1898 -0.0961
  933MOL0     H25946   5.928   5.725   7.794 -1.0981 -0.5979 -0.8728
  933MOL0     H25947   5.726   5.598   7.875 -3.6332 -0.7164  0.5344
  933MOL0     H25948   5.713   5.597   7.708 -2.8527 -1.2668  1.0487
  933MOL0     H25949   5.583   5.797   7.864 -0.1118 -0.8507 -0.5145
  933MOL0     H25950   5.501   5.639   7.816 -1.4824  0.1213 -1.5158
  933MOL0     H25951   5.487   5.675   7.599 -1.1277  0.9580 -1.9301
  933MOL0     H25952   5.588   5.821   7.609  2.4941  0.5027  2.2028
  933MOL0     H25953   5.204   5.946   7.776  0.1825 -0.5411 -0.7392
  933MOL0     H25954   5.814   6.053   8.065 -1.2441  1.6271 -2.4551
  933MOL0     H25955   5.978   6.172   8.152 -0.1540 -1.8084  0.3960
  934MOL0     O25956   9.957   0.354  10.637  0.2424  0.2577 -0.0029
  934MOL0     C25957   9.921   0.320  10.531 -0.1558 -0.2752  0.6246
  934MOL0     O25958   9.966   0.371  10.416 -0.0224  0.2458  0.1790
  934MOL0     C25959  10.077   0.445  10.409 -0.0989 -0.1485  0.1043
  934MOL0     C25960  10.074   0.576  10.360  0.2698  0.5090  0.1622
  934MOL0     C25961  10.194   0.653  10.355 -0.6562  0.3675  0.3235
  934MOL0     C25962  10.319   0.600  10.399  0.4195 -0.1381  0.4042
  934MOL0     O25963  10.429   0.681  10.406  0.2518  0.3164  0.1602
  934MOL0     C25964  10.533   0.638  10.321  0.2189  0.3886  0.2828
  934MOL0     C25965  10.500   0.649  10.179 -0.8259 -0.3771  0.0063
  934MOL0     C25966  10.590   0.555  10.096  0.0015 -0.4310 -0.0314
  934MOL0     C25967  10.625   0.623   9.967  0.1830  1.0785 -0.8414
  934MOL0     C25968  10.718   0.745   9.984 -0.0476 -0.9214  0.0207
  934MOL0     C25969  10.774   0.778   9.850  0.2964 -0.4901 -0.3029
  934MOL0     C25970  10.843   0.915   9.844  0.0840  0.3440  0.1911
  934MOL0     C25971  10.920   0.938   9.710 -0.8140  0.0941  0.7793
  934MOL0     N25972  11.018   1.056   9.714  0.3747 -0.1262  0.3194
  934MOL0     C25973  11.006   1.162   9.803 -0.0834  0.6077 -0.9604
  934MOL0     C25974  11.088   1.255   9.753 -0.0326  0.2545 -0.2971
  934MOL0     C25975  11.120   1.385   9.821 -1.3135 -0.3101  0.4042
  934MOL0     C25976  11.253   1.367   9.888  0.2253  0.9508  0.6213
  934MOL0     C25977  11.271   1.467  10.000 -0.1104 -0.2446 -0.0776
  934MOL0     C25978  11.391   1.441  10.094 -0.0085 -0.2219  0.6035
  934MOL0     O25979  11.513   1.457  10.023 -0.2699 -0.9473 -1.5870
  934MOL0     C25980  11.624   1.461  10.107 -0.6411 -0.5380 -0.1970
  934MOL0     C25981  11.639   1.435  10.242  0.6865  0.4002  1.0868
  934MOL0     C25982  11.762   1.458  10.313  0.5173 -0.5961 -0.5210
  934MOL0     C25983  11.766   1.477  10.460 -0.2427  0.4029  0.2700
  934MOL0     C25984  11.867   1.485  10.224 -0.2576 -0.9075  0.4284
  934MOL0     C25985  12.002   1.533  10.287 -0.0041 -1.3706  0.7276
  934MOL0     O25986  12.096   1.433  10.266 -0.4996 -1.0512  0.2510
  934MOL0     C25987  12.215   1.463  10.321 -0.4658 -0.9161 -0.1546
  934MOL0     C25988  12.253   1.421  10.448 -0.4026 -0.4988 -0.5492
  934MOL0     C25989  12.387   1.455  10.491 -0.4904 -1.1580  0.5291
  934MOL0     C25990  12.484   1.508  10.412 -0.1491  0.7614  0.6449
  934MOL0     O25991  12.597   1.545  10.473  0.3637 -0.4051 -0.2403
  934MOL0     C25992  12.717   1.543  10.395  0.8319 -0.9723  0.5428
  934MOL0     C25993  12.817   1.627  10.477  0.2190  1.0164 -0.3481
  934MOL0     C25994  12.963   1.612  10.429  0.6561  0.5788 -0.8052
  934MOL0     C25995  13.011   1.469  10.469 -0.6189 -0.4129  0.7119
  934MOL0     C25996  13.167   1.482  10.472  0.4796 -0.2194  0.0967
  934MOL0     C25997  13.228   1.511  10.331 -0.3647  0.3452  0.3793
  934MOL0     C25998  13.381   1.481  10.336 -0.2187 -0.1241  0.4555
  934MOL0     C25999  13.463   1.526  10.202 -0.5829 -0.7330 -0.5460
  934MOL0    Cl26000  13.426   1.685  10.128  0.0691  0.2843 -0.0937
  934MOL0     C26001  12.441   1.558  10.294 -0.3065  0.4087 -0.0293
  934MOL0     C26002  12.312   1.529  10.237  0.9936  0.4594  0.3968
  934MOL0     O26003  12.028   1.655  10.297  0.0163 -0.7160 -0.0317
  934MOL0     C26004  11.853   1.506  10.089  0.2895 -0.1361  1.3478
  934MOL0     C26005  11.734   1.488  10.026  0.2713 -0.1129 -0.2051
  934MOL0     N26006  11.145   1.212   9.629 -0.3221  1.7185  0.4708
  934MOL0     N26007  11.090   1.091   9.605 -0.3283 -0.9847 -0.7338
  934MOL0     C26008  10.314   0.475  10.459 -0.8570  0.0501 -0.2323
  934MOL0     C26009  10.196   0.393  10.458 -0.6532 -0.3453  0.4222
  934MOL0     C26010   9.796   0.243  10.522 -0.8012 -0.4193  0.1477
  934MOL0     C26011   9.725   0.240  10.402  0.6141  0.0255  1.2726
  934MOL0     C26012   9.607   0.164  10.407  1.4226 -0.3687 -1.6054
  934MOL0     C26013   9.558   0.093  10.530 -0.1093 -1.3028  0.5625
  934MOL0     O26014   9.435   0.024  10.517  0.1359  0.0561 -0.1996
  934MOL0     C26015   9.416  -0.099  10.588 -0.1457 -0.8203  0.3803
  934MOL0     C26016   9.295  -0.172  10.529 -0.7813  0.0644 -0.3073
  934MOL0     C26017   9.280  -0.158  10.372  0.3037 -0.0533  0.7206
  934MOL0     C26018   9.157  -0.227  10.313  0.0900  0.4101 -0.1497
  934MOL0     C26019   9.012  -0.201  10.354 -0.7638  0.4422  0.8736
  934MOL0     C26020   8.893  -0.188  10.392 -1.1705  0.0526 -0.1062
  934MOL0     C26021   9.647   0.084  10.635 -1.0613 -0.3421  1.0002
  934MOL0     C26022   9.755   0.175  10.635  0.9905  1.0667 -0.0070
  934MOL0     H26023   9.976   0.613  10.331 -0.2203 -0.3204  0.7153
  934MOL0     H26024  10.196   0.747  10.301  1.4620  0.4271  0.3980
  934MOL0     H26025  10.613   0.712  10.333  0.5425  0.1984 -0.6494
  934MOL0     H26026  10.567   0.537  10.342 -0.0300  0.6881  2.3289
  934MOL0     H26027  10.394   0.621  10.171 -1.7285  0.9596  4.3038
  934MOL0     H26028  10.507   0.752  10.143 -2.2988 -0.6577 -1.1656
  934MOL0     H26029  10.682   0.531  10.151 -0.0472  2.4834  1.5526
  934MOL0     H26030  10.538   0.463  10.069 -1.6248  0.7356 -1.0555
  934MOL0     H26031  10.656   0.554   9.888  0.9731 -1.6835  1.7065
  934MOL0     H26032  10.526   0.646   9.927 -1.1954 -0.4524  1.4100
  934MOL0     H26033  10.654   0.826  10.020 -0.8887 -1.1146 -0.9846
  934MOL0     H26034  10.806   0.733  10.047  2.1371 -0.1677 -2.6506
  934MOL0     H26035  10.853   0.706   9.828  0.4223 -0.4445 -0.0119
  934MOL0     H26036  10.702   0.781   9.768  0.5908 -0.5382 -0.5678
  934MOL0     H26037  10.752   0.974   9.848 -0.2060 -0.1791  2.1797
  934MOL0     H26038  10.910   0.925   9.930  1.6809  0.0865 -0.9533
  934MOL0     H26039  10.847   0.951   9.630 -0.8361 -3.9030 -0.0954
  934MOL0     H26040  10.978   0.851   9.679 -0.8344  0.7277 -1.1615
  934MOL0     H26041  10.951   1.181   9.894  2.5676 -3.5285  1.7919
  934MOL0     H26042  11.127   1.469   9.752  2.0172 -0.0603  0.9062
  934MOL0     H26043  11.044   1.414   9.894 -2.4885  0.0071 -0.9058
  934MOL0     H26044  11.329   1.372   9.809 -2.8424 -0.4070 -2.6896
  934MOL0     H26045  11.249   1.268   9.934 -0.8738  1.4763  1.7230
  934MOL0     H26046  11.184   1.457  10.066 -0.5540 -0.1054 -0.6381
  934MOL0     H26047  11.299   1.563   9.955  0.6284 -0.6313 -0.4682
  934MOL0     H26048  11.390   1.335  10.122  3.3899 -0.8575 -1.1295
  934MOL0     H26049  11.389   1.504  10.183 -0.1150 -0.5384  0.8283
  934MOL0     H26050  11.558   1.397  10.302 -0.6420  1.7940  0.2634
  934MOL0     H26051  11.669   1.472  10.509 -1.4716  0.3739 -2.0241
  934MOL0     H26052  11.840   1.404  10.496  0.1657 -0.1321 -1.5387
  934MOL0     H26053  11.809   1.571  10.493 -2.1556  0.8674  1.5700
  934MOL0     H26054  12.189   1.368  10.518  0.6781 -0.5301  0.4396
  934MOL0     H26055  12.402   1.425  10.594  2.4042 -4.0150 -0.5629
  934MOL0     H26056  12.751   1.439  10.390  0.1242 -1.2014  0.4765
  934MOL0     H26057  12.709   1.589  10.296 -1.3442  0.8239  1.4522
  934MOL0     H26058  12.793   1.734  10.471 -0.9739  0.6704 -3.1100
  934MOL0     H26059  12.810   1.593  10.581 -2.2051  3.3474  0.3580
  934MOL0     H26060  13.022   1.691  10.475 -1.0675  2.3698 -1.4790
  934MOL0     H26061  12.978   1.628  10.322  1.6083 -0.1084 -0.7859
  934MOL0     H26062  12.964   1.441  10.564 -0.1744  0.1371  1.1010
  934MOL0     H26063  12.978   1.398  10.393 -1.9564 -0.1594  1.0381
  934MOL0     H26064  13.189   1.380  10.506 -1.1185 -0.5938  0.0997
  934MOL0     H26065  13.197   1.557  10.545  1.5051  1.3369 -1.8317
  934MOL0     H26066  13.185   1.441  10.259  5.3751  0.1639 -3.5797
  934MOL0     H26067  13.224   1.612  10.292 -0.5530 -0.3346 -1.4406
  934MOL0     H26068  13.396   1.374  10.353 -0.1649 -0.6403 -2.4722
  934MOL0     H26069  13.419   1.537  10.422  2.0011  2.8100 -2.1963
  934MOL0     H26070  13.448   1.461  10.115  3.5854  0.5099 -2.4539
  934MOL0     H26071  13.570   1.521  10.220 -0.8255 -1.3389  0.9016
  934MOL0     H26072  12.499   1.633  10.240 -0.0177  0.4819  0.3747
  934MOL0     H26073  12.272   1.579  10.149 -2.4391  1.2424  2.2381
  934MOL0     H26074  11.923   1.547  10.017 -1.9807 -0.2621 -1.0578
  934MOL0     H26075  11.719   1.512   9.921 -2.5770 -0.8165 -0.0525
  934MOL0     H26076  10.399   0.439  10.516 -0.1535  2.3944  0.2949
  934MOL0     H26077  10.204   0.295  10.505 -1.5725 -1.0971 -0.9158
  934MOL0     H26078   9.739   0.294  10.309 -1.2901 -3.0853 -0.9716
  934MOL0     H26079   9.546   0.154  10.318 -1.1931 -2.3914  0.2085
  934MOL0     H26080   9.508  -0.154  10.568  0.5066  0.4241 -0.1799
  934MOL0     H26081   9.401  -0.067  10.692 -1.0009  1.6255 -0.4163
  934MOL0     H26082   9.212  -0.113  10.568  0.4481  1.4714  0.2631
  934MOL0     H26083   9.303  -0.276  10.564  0.7938 -0.7218 -2.6919
  934MOL0     H26084   9.362  -0.209  10.322 -0.8963 -1.2564 -0.1003
  934MOL0     H26085   9.266  -0.051  10.350  0.8533  0.2251  1.7014
  934MOL0     H26086   9.176  -0.334  10.323  0.8939  0.4781 -0.8713
  934MOL0     H26087   9.153  -0.202  10.207 -1.4721  1.0652  0.0281
  934MOL0     H26088   8.789  -0.172  10.414 -0.7156 -0.6624  3.0700
  934MOL0     H26089   9.625   0.015  10.716 -1.6515 -1.7458 -0.2820
  934MOL0     H26090   9.812   0.180  10.727  3.7892 -0.1196 -1.5595
  935MOL0     O26091   7.666  11.505  10.614 -0.6987  0.1487 -0.3902
  935MOL0     C26092   7.766  11.463  10.547  0.1148 -0.4310 -0.3638
  935MOL0     O26093   7.885  11.431  10.606 -0.0574 -0.2555  0.1613
  935MOL0     C26094   7.899  11.444  10.743  0.0392  0.2389  0.0750
  935MOL0     C26095   7.922  11.324  10.827  0.2658  0.1914 -1.2991
  935MOL0     C26096   7.950  11.327  10.965  0.5018  0.5821 -1.1013
  935MOL0     C26097   7.955  11.451  11.027 -0.3469  0.4811  0.4484
  935MOL0     O26098   8.003  11.452  11.155  0.2631  0.2693 -0.9051
  935MOL0     C26099   7.946  11.554  11.237 -0.4721  0.5271  0.2443
  935MOL0     C26100   7.975  11.516  11.382 -0.8992  0.4760  0.8100
  935MOL0     C26101   7.900  11.392  11.433 -0.1282  0.0844 -0.1708
  935MOL0     C26102   7.965  11.337  11.562  0.2639  0.4440  0.9402
  935MOL0     C26103   8.000  11.439  11.677 -0.3375 -0.9498  0.0352
  935MOL0     C26104   8.048  11.378  11.814  0.5860 -0.4952 -0.1832
  935MOL0     C26105   8.109  11.493  11.894  0.5129 -0.1737 -0.3105
  935MOL0     C26106   8.173  11.432  12.022  0.7230 -0.5872  0.8674
  935MOL0     N26107   8.083  11.351  12.112 -0.0426  0.2738  0.9260
  935MOL0     C26108   7.967  11.379  12.183  0.2754 -0.0331  1.4139
  935MOL0     C26109   7.910  11.265  12.216 -0.0718 -0.5828 -0.1925
  935MOL0     C26110   7.780  11.254  12.297  0.3212  0.4008  0.3283
  935MOL0     C26111   7.780  11.337  12.428  0.1224 -1.1769 -0.5077
  935MOL0     C26112   7.845  11.289  12.563  0.6469  0.0225  0.3397
  935MOL0     C26113   7.991  11.330  12.560  0.0400 -1.1220 -0.1912
  935MOL0     O26114   8.070  11.297  12.677  0.4665  0.0324  0.5695
  935MOL0     C26115   8.205  11.322  12.677 -0.0667 -0.3450  0.1006
  935MOL0     C26116   8.258  11.333  12.812  0.4932  0.7023  0.0980
  935MOL0     C26117   8.395  11.361  12.837 -0.7785  0.9070  0.0050
  935MOL0     C26118   8.446  11.387  12.971  0.5461 -0.0189  0.6509
  935MOL0     C26119   8.469  11.386  12.726  0.2831 -0.5694 -0.1747
  935MOL0     C26120   8.608  11.439  12.734  0.4789  0.3348 -0.7255
  935MOL0     O26121   8.612  11.575  12.727  0.0326 -0.2187 -0.5074
  935MOL0     C26122   8.736  11.644  12.746  0.2123 -0.7216 -0.4671
  935MOL0     C26123   8.765  11.703  12.860 -0.8960 -0.6503 -1.3195
  935MOL0     C26124   8.892  11.758  12.885 -0.0708 -0.5993 -0.2382
  935MOL0     C26125   8.989  11.764  12.790 -0.6912  0.4717  0.3149
  935MOL0     O26126   9.114  11.823  12.789  0.6562 -0.4289 -0.1457
  935MOL0     C26127   9.169  11.833  12.916 -0.0203  0.1268 -0.8511
  935MOL0     C26128   9.200  11.694  12.984  0.0340  0.4676  0.4776
  935MOL0     C26129   9.284  11.718  13.112 -0.2175 -0.1368  0.1353
  935MOL0     C26130   9.327  11.590  13.184  0.3386 -0.4610  0.5272
  935MOL0     C26131   9.220  11.531  13.259 -0.3037  0.5105 -0.5280
  935MOL0     C26132   9.256  11.385  13.305  0.4784 -0.2650 -1.0899
  935MOL0     C26133   9.139  11.326  13.376  0.0037  0.1766  0.0363
  935MOL0     C26134   9.147  11.185  13.418 -0.6625  0.1787 -0.5852
  935MOL0    Cl26135   9.151  11.095  13.262 -0.0962 -0.3269 -0.3188
  935MOL0     C26136   8.955  11.708  12.658  0.1628 -0.3825 -0.0094
  935MOL0     C26137   8.824  11.649  12.645  0.7892  0.3225  0.1487
  935MOL0     O26138   8.696  11.357  12.725  0.0939 -0.0584 -0.1199
  935MOL0     C26139   8.419  11.379  12.595 -0.4021  0.3515  0.0895
  935MOL0     C26140   8.289  11.346  12.567  0.1153  0.3725 -0.5248
  935MOL0     N26141   7.996  11.160  12.187 -0.1790 -0.0207 -0.2842
  935MOL0     N26142   8.085  11.213  12.108  0.3258  0.1383  0.8498
  935MOL0     C26143   7.925  11.564  10.952 -0.0208  0.5802 -0.0005
  935MOL0     C26144   7.913  11.563  10.814  0.6167 -0.1425 -0.2577
  935MOL0     C26145   7.771  11.447  10.397  0.4711  0.2514 -0.1682
  935MOL0     C26146   7.654  11.482  10.325 -0.4573  0.0707 -0.9603
  935MOL0     C26147   7.655  11.472  10.185 -0.5095 -0.6036  0.2920
  935MOL0     C26148   7.760  11.406  10.124 -0.6362 -0.3925  0.1503
  935MOL0     O26149   7.766  11.395   9.983 -0.2748  0.0689 -0.2718
  935MOL0     C26150   7.892  11.339   9.920 -0.1218 -0.0883  1.2873
  935MOL0     C26151   7.883  11.374   9.767  0.3062  0.3188 -0.6678
  935MOL0     C26152   7.988  11.323   9.677 -0.2534  0.0136  0.3624
  935MOL0     C26153   8.127  11.393   9.694  1.4880  1.0390 -0.1901
  935MOL0     C26154   8.204  11.351   9.576 -0.5868  1.1345 -0.9031
  935MOL0     C26155   8.282  11.320   9.483  0.0507  0.2392 -0.4139
  935MOL0     C26156   7.871  11.366  10.202 -0.0452 -1.4328 -0.5700
  935MOL0     C26157   7.885  11.395  10.344  0.2943 -0.1985  1.1161
  935MOL0     H26158   7.913  11.228  10.777 -3.7006 -0.9154  1.0657
  935MOL0     H26159   7.985  11.240  11.019  1.7789  0.2411 -2.4071
  935MOL0     H26160   7.971  11.658  11.215 -2.7340  0.3272 -4.4540
  935MOL0     H26161   7.838  11.542  11.223 -0.3634  1.7017 -2.0792
  935MOL0     H26162   8.078  11.480  11.392 -2.1895 -3.8040  0.7440
  935MOL0     H26163   7.948  11.594  11.453 -2.5115 -0.6342  1.4794
  935MOL0     H26164   7.796  11.414  11.461 -0.0276 -1.2243  1.4254
  935MOL0     H26165   7.892  11.313  11.357 -0.1713  0.0349 -0.1156
  935MOL0     H26166   7.888  11.269  11.601  1.7346 -0.7121  1.9399
  935MOL0     H26167   8.061  11.293  11.536 -0.8437 -1.5424 -0.0418
  935MOL0     H26168   8.082  11.500  11.640 -0.0669 -1.4657 -0.2262
  935MOL0     H26169   7.914  11.503  11.700 -0.4282 -0.8230 -0.6485
  935MOL0     H26170   7.961  11.344  11.872  0.7902  0.1140  0.5045
  935MOL0     H26171   8.118  11.295  11.804 -0.3285 -1.4387  0.9146
  935MOL0     H26172   8.184  11.551  11.839  0.2820  0.6939  0.2743
  935MOL0     H26173   8.021  11.555  11.913 -1.8307 -2.6754 -2.2749
  935MOL0     H26174   8.220  11.519  12.070 -3.0187  2.6461 -0.8004
  935MOL0     H26175   8.245  11.361  11.982 -2.2719 -3.0615 -0.4946
  935MOL0     H26176   7.914  11.473  12.177 -2.1216 -1.3832 -0.5892
  935MOL0     H26177   7.700  11.297  12.237  0.6805  1.2944  0.4785
  935MOL0     H26178   7.747  11.157  12.335  1.2889  0.6739  1.9984
  935MOL0     H26179   7.677  11.347  12.463 -0.0192 -1.7701 -0.7328
  935MOL0     H26180   7.815  11.439  12.410  2.2125 -1.9032 -0.7820
  935MOL0     H26181   7.837  11.181  12.574  4.3787 -0.1299  3.8813
  935MOL0     H26182   7.797  11.342  12.646 -2.9799 -1.4634 -0.6144
  935MOL0     H26183   8.011  11.437  12.546 -0.1935 -0.9313  0.8353
  935MOL0     H26184   8.044  11.281  12.478 -0.1079 -3.6568  1.1235
  935MOL0     H26185   8.190  11.313  12.894 -1.0554 -0.4818 -1.4012
  935MOL0     H26186   8.467  11.297  13.029 -1.3582 -0.5986  0.5025
  935MOL0     H26187   8.542  11.438  12.962 -0.8791  2.6485 -0.6082
  935MOL0     H26188   8.369  11.449  13.018 -0.6400 -0.7847 -0.2248
  935MOL0     H26189   8.685  11.711  12.933  0.5674  2.2121  0.1438
  935MOL0     H26190   8.912  11.790  12.986 -2.5163 -1.6073  0.6263
  935MOL0     H26191   9.267  11.881  12.919  0.3328 -0.6031 -0.3750
  935MOL0     H26192   9.097  11.884  12.981  0.2963 -0.6581  0.1514
  935MOL0     H26193   9.107  11.641  13.007  1.3861 -3.1862 -1.5570
  935MOL0     H26194   9.261  11.635  12.916  1.1388  2.2832 -0.1670
  935MOL0     H26195   9.236  11.775  13.192  1.2999  0.9315  0.3382
  935MOL0     H26196   9.373  11.777  13.086  0.0827 -0.7374 -0.2118
  935MOL0     H26197   9.358  11.518  13.108 -1.6298 -1.7610  0.8765
  935MOL0     H26198   9.409  11.599  13.256 -0.5477 -2.9451  1.9628
  935MOL0     H26199   9.122  11.526  13.211 -1.2385  0.9383  1.2251
  935MOL0     H26200   9.209  11.597  13.346  4.0529  2.1052 -0.9514
  935MOL0     H26201   9.287  11.328  13.217 -0.5747 -3.0381  0.2144
  935MOL0     H26202   9.345  11.387  13.369  2.6929  3.4136 -3.8946
  935MOL0     H26203   9.040  11.347  13.335 -0.2370 -2.2413 -0.7452
  935MOL0     H26204   9.148  11.390  13.464  1.2653  1.6687 -1.1294
  935MOL0     H26205   9.071  11.157  13.491  0.9856 -5.1134 -0.4567
  935MOL0     H26206   9.240  11.160  13.469  0.2390 -1.0613 -2.7028
  935MOL0     H26207   9.026  11.707  12.576  1.3548  0.1072  0.9839
  935MOL0     H26208   8.789  11.594  12.559 -2.6304  0.7076  1.1540
  935MOL0     H26209   8.486  11.400  12.512 -1.9766 -0.3644 -1.4525
  935MOL0     H26210   8.248  11.332  12.467  0.2530 -1.6954 -0.3401
  935MOL0     H26211   7.940  11.663  10.995 -3.4102  1.3927 -0.4422
  935MOL0     H26212   7.895  11.660  10.767 -2.5033 -0.4001  0.2231
  935MOL0     H26213   7.562  11.503  10.379  0.5817 -1.0184  1.3683
  935MOL0     H26214   7.575  11.516  10.127 -0.0569 -1.9885 -1.4406
  935MOL0     H26215   7.978  11.390   9.964 -2.7571  3.5282  2.6392
  935MOL0     H26216   7.895  11.231   9.937 -2.7187 -1.1992 -3.3701
  935MOL0     H26217   7.866  11.480   9.751  0.2083  0.5433  0.7334
  935MOL0     H26218   7.790  11.323   9.744  0.5260 -2.5853  3.6066
  935MOL0     H26219   7.958  11.335   9.572 -1.0660 -3.2426  0.1266
  935MOL0     H26220   8.002  11.215   9.686 -0.5897 -0.1567 -0.9219
  935MOL0     H26221   8.184  11.362   9.782 -1.3200 -0.8230  1.0981
  935MOL0     H26222   8.116  11.501   9.705 -0.0131  0.6950  2.3869
  935MOL0     H26223   8.345  11.288   9.403 -0.1383 -1.0450 -0.0834
  935MOL0     H26224   7.950  11.301  10.167 -0.5571 -1.9614 -0.7683
  935MOL0     H26225   7.978  11.379  10.396  0.0782  0.5047  1.7397
  936MOL0     O26226   0.486   7.285   5.899  0.0747 -0.0095 -0.1808
  936MOL0     C26227   0.497   7.392   5.838 -0.2078 -0.5872  0.2491
  936MOL0     O26228   0.609   7.430   5.754 -0.1162  0.9972  0.4006
  936MOL0     C26229   0.685   7.326   5.696  0.1956 -0.5143 -0.9030
  936MOL0     C26230   0.649   7.196   5.671 -0.1978  0.3175 -0.4923
  936MOL0     C26231   0.732   7.097   5.611  0.4501  0.2906 -0.5609
  936MOL0     C26232   0.861   7.148   5.577  0.5161  0.2709  0.1462
  936MOL0     O26233   0.936   7.053   5.527  0.3857  0.0066  0.2883
  936MOL0     C26234   1.074   7.049   5.580  0.7542 -0.0622  0.2493
  936MOL0     C26235   1.085   6.999   5.717  0.9464  0.4662 -0.2364
  936MOL0     C26236   1.080   6.853   5.733  0.0840  0.3679  0.1474
  936MOL0     C26237   1.101   6.810   5.878 -0.7691 -0.2285 -0.0404
  936MOL0     C26238   1.253   6.813   5.919  0.1326 -0.2370 -0.0950
  936MOL0     C26239   1.257   6.752   6.065  0.5972 -0.5328  0.2584
  936MOL0     C26240   1.401   6.752   6.120  0.5818  0.1479 -0.1785
  936MOL0     C26241   1.414   6.741   6.277 -0.6161  1.2499 -0.1941
  936MOL0     N26242   1.329   6.632   6.333  0.0954 -1.1610  0.6096
  936MOL0     C26243   1.195   6.634   6.365 -0.7280  0.2476 -0.7189
  936MOL0     C26244   1.172   6.509   6.410 -0.1362  1.5264 -0.0787
  936MOL0     C26245   1.042   6.461   6.471  0.3197  0.1878 -0.1745
  936MOL0     C26246   0.990   6.564   6.585  0.5521  0.3169  0.2681
  936MOL0     C26247   1.082   6.615   6.694 -0.7141  0.8211  0.7288
  936MOL0     C26248   1.152   6.506   6.765  0.2135 -0.2527  0.6388
  936MOL0     O26249   1.065   6.402   6.820  0.7265 -0.1583 -0.7429
  936MOL0     C26250   1.116   6.299   6.905 -0.2886  0.6570 -0.6148
  936MOL0     C26251   1.030   6.194   6.923 -0.0434 -0.2991 -0.7826
  936MOL0     C26252   1.056   6.089   7.010  0.4248  0.3283  0.4660
  936MOL0     C26253   0.959   5.980   7.037  0.2420 -0.1985  0.3604
  936MOL0     C26254   1.183   6.084   7.078 -0.9356  0.4620 -0.7643
  936MOL0     C26255   1.243   5.991   7.184  0.3269 -0.6476 -0.2659
  936MOL0     O26256   1.365   6.033   7.237 -0.2358 -1.0751 -0.0095
  936MOL0     C26257   1.442   5.946   7.304  0.4360  0.2653 -0.1581
  936MOL0     C26258   1.405   5.886   7.429 -0.1078  0.2471  1.5434
  936MOL0     C26259   1.484   5.781   7.480 -0.0737  0.1090 -0.0911
  936MOL0     C26260   1.616   5.756   7.432 -0.2702  0.4642 -0.3401
  936MOL0     O26261   1.707   5.669   7.491 -0.3284 -0.4473 -0.6439
  936MOL0     C26262   1.670   5.602   7.614 -0.0496  0.4896  0.0542
  936MOL0     C26263   1.798   5.544   7.670 -0.1093  1.2927 -1.1926
  936MOL0     C26264   1.845   5.409   7.603 -0.7134  0.4326  0.4991
  936MOL0     C26265   1.971   5.353   7.681 -0.1083  0.3108  0.3072
  936MOL0     C26266   2.031   5.249   7.591  0.0373 -0.4834 -0.5749
  936MOL0     C26267   2.143   5.179   7.672 -0.5287 -1.4448  0.8267
  936MOL0     C26268   2.232   5.083   7.586  0.4291 -0.3844 -0.6334
  936MOL0     C26269   2.281   5.141   7.455  0.2864  0.2171 -0.0155
  936MOL0    Cl26270   2.408   5.267   7.459 -0.0086  0.0060  0.5094
  936MOL0     C26271   1.654   5.834   7.323  0.9202  0.3719  0.0231
  936MOL0     C26272   1.566   5.925   7.255 -1.0125  0.5027 -0.4731
  936MOL0     O26273   1.191   5.880   7.209 -0.3172  1.2195  0.2090
  936MOL0     C26274   1.273   6.193   7.043 -0.1462 -0.0057  0.6555
  936MOL0     C26275   1.245   6.301   6.956 -0.2003 -0.1379 -0.3004
  936MOL0     N26276   1.290   6.427   6.393  0.3925 -0.3186  0.6827
  936MOL0     N26277   1.383   6.507   6.344 -0.0611 -0.0084  0.5669
  936MOL0     C26278   0.905   7.282   5.603  0.4761  0.2104  0.3955
  936MOL0     C26279   0.813   7.374   5.657  0.1341  0.2858  0.1742
  936MOL0     C26280   0.394   7.503   5.847  0.7191 -0.5564  0.3473
  936MOL0     C26281   0.407   7.635   5.787 -0.4523 -0.1107  0.2666
  936MOL0     C26282   0.303   7.727   5.790  0.2851  0.9562  0.1942
  936MOL0     C26283   0.178   7.685   5.824  0.2611  0.7577 -0.5752
  936MOL0     O26284   0.076   7.778   5.823  1.1316 -0.0518 -0.1811
  936MOL0     C26285   0.073   7.898   5.737  0.4457  0.3546  0.2316
  936MOL0     C26286   0.157   8.014   5.795 -0.0473 -0.4771 -0.1116
  936MOL0     C26287   0.107   8.144   5.731 -0.3819  1.2309  0.0401
  936MOL0     C26288   0.184   8.274   5.788  0.2621 -0.3554 -0.1480
  936MOL0     C26289   0.136   8.297   5.927  0.6444  0.6415  0.1473
  936MOL0     C26290   0.105   8.316   6.044 -0.5639 -0.2018  1.2682
  936MOL0     C26291   0.153   7.552   5.869 -0.5561  0.2104 -0.3009
  936MOL0     C26292   0.264   7.462   5.895 -0.8343 -0.6800 -0.3696
  936MOL0     H26293   0.543   7.173   5.676  0.2151 -1.5998  0.1038
  936MOL0     H26294   0.709   6.995   5.581  3.3051 -1.9113  3.7998
  936MOL0     H26295   1.133   6.993   5.508 -0.6386  2.1727 -2.9148
  936MOL0     H26296   1.109   7.153   5.573 -2.3781  1.0493 -1.6007
  936MOL0     H26297   1.174   7.036   5.768 -1.8160  0.3938  5.3453
  936MOL0     H26298   1.001   7.034   5.777  0.8540  0.2552 -0.2395
  936MOL0     H26299   0.978   6.825   5.703 -0.9148  0.7493  2.8886
  936MOL0     H26300   1.152   6.799   5.671  0.1810 -3.0722  2.9608
  936MOL0     H26301   1.053   6.867   5.958 -1.4196  1.0246 -1.2912
  936MOL0     H26302   1.068   6.706   5.888  0.5776 -0.7459 -0.7727
  936MOL0     H26303   1.316   6.758   5.849 -1.6428  0.4065 -2.3060
  936MOL0     H26304   1.287   6.916   5.932 -0.0470 -0.3401  1.4028
  936MOL0     H26305   1.183   6.803   6.126 -3.1522 -4.5263 -0.4671
  936MOL0     H26306   1.220   6.649   6.063  1.6577 -0.9703  1.6633
  936MOL0     H26307   1.454   6.658   6.103 -0.9633 -0.4736 -1.7649
  936MOL0     H26308   1.459   6.832   6.074  0.3012  0.0614 -0.6814
  936MOL0     H26309   1.381   6.837   6.319  1.4316  2.5770 -1.4524
  936MOL0     H26310   1.517   6.724   6.309 -0.8550 -0.0308 -0.0387
  936MOL0     H26311   1.123   6.713   6.348 -3.6984 -2.5112 -1.8465
  936MOL0     H26312   0.965   6.455   6.394 -0.7609  0.6135  0.8436
  936MOL0     H26313   1.064   6.366   6.520 -0.7661  0.6577  1.3178
  936MOL0     H26314   0.909   6.504   6.628  1.0307 -0.3013  0.3262
  936MOL0     H26315   0.935   6.651   6.547 -2.4931 -0.7224  1.9595
  936MOL0     H26316   1.030   6.670   6.773  0.3364  2.8823  0.0510
  936MOL0     H26317   1.150   6.689   6.652  2.1579 -2.1373 -0.2565
  936MOL0     H26318   1.191   6.549   6.857  2.2554 -2.0342  0.6693
  936MOL0     H26319   1.232   6.457   6.709  2.1257  0.5427  2.5494
  936MOL0     H26320   0.936   6.204   6.870  1.5579 -1.5434 -4.1247
  936MOL0     H26321   0.912   5.982   7.135  0.0447  1.4628  0.2735
  936MOL0     H26322   0.893   5.987   6.950  0.7811  1.1827  0.0300
  936MOL0     H26323   1.011   5.884   7.032  1.7522  0.5893  0.2958
  936MOL0     H26324   1.306   5.916   7.462 -0.4112  1.4483 -0.2659
  936MOL0     H26325   1.443   5.725   7.564 -1.8492 -1.6572 -2.0061
  936MOL0     H26326   1.633   5.673   7.689 -1.0695 -1.3360  1.3880
  936MOL0     H26327   1.587   5.532   7.601 -1.0245  1.5817  0.2582
  936MOL0     H26328   1.882   5.613   7.656  3.1163 -2.0411  0.0632
  936MOL0     H26329   1.778   5.528   7.777  0.5583  1.4039 -1.0446
  936MOL0     H26330   1.867   5.415   7.496 -3.0574  1.1712 -0.0070
  936MOL0     H26331   1.766   5.335   7.616 -0.0325 -0.0282  2.2893
  936MOL0     H26332   2.038   5.434   7.710 -2.7086  2.1123  1.7156
  936MOL0     H26333   1.940   5.306   7.775 -0.4041  3.4939  1.9372
  936MOL0     H26334   2.072   5.292   7.499 -0.7073 -1.4799 -1.4116
  936MOL0     H26335   1.952   5.177   7.568 -2.9578  1.1618  3.4331
  936MOL0     H26336   2.203   5.259   7.717  1.8854  0.0641 -4.2721
  936MOL0     H26337   2.104   5.112   7.749  1.6397 -1.7906  1.7012
  936MOL0     H26338   2.172   4.996   7.559  0.2772 -0.7626  0.8295
  936MOL0     H26339   2.319   5.042   7.639  0.1912 -0.8960 -0.6298
  936MOL0     H26340   2.198   5.177   7.394  0.0215  0.7551  0.6502
  936MOL0     H26341   2.325   5.058   7.398  2.0554 -0.0694  1.6751
  936MOL0     H26342   1.746   5.814   7.269 -0.6449 -1.0988 -2.2470
  936MOL0     H26343   1.581   5.991   7.170  0.0053  3.4206  1.8016
  936MOL0     H26344   1.373   6.187   7.083  1.2461 -3.7455 -2.7023
  936MOL0     H26345   1.311   6.382   6.929 -1.0870  1.1309  1.1718
  936MOL0     H26346   1.002   7.302   5.560 -0.0693 -2.1019 -2.2622
  936MOL0     H26347   0.837   7.480   5.662  0.6455  0.3521 -2.3670
  936MOL0     H26348   0.504   7.650   5.742  0.0801 -4.2544 -0.3527
  936MOL0     H26349   0.308   7.820   5.735 -0.2501  1.5459  1.1260
  936MOL0     H26350   0.105   7.886   5.633 -0.4957 -0.0696 -0.0224
  936MOL0     H26351  -0.032   7.927   5.734  0.1297 -0.6635  0.9402
  936MOL0     H26352   0.263   8.005   5.766 -0.0106  1.5181 -0.7037
  936MOL0     H26353   0.138   8.010   5.903  0.7929  4.0341  0.3902
  936MOL0     H26354   0.002   8.153   5.759 -0.2391  1.3888  0.5327
  936MOL0     H26355   0.122   8.137   5.622 -2.3210 -0.4580 -0.1767
  936MOL0     H26356   0.149   8.364   5.736  1.1556 -0.9155 -1.7735
  936MOL0     H26357   0.292   8.265   5.772  0.0126 -1.5095 -1.3997
  936MOL0     H26358   0.061   8.335   6.140 -3.8028  4.0309 -0.7016
  936MOL0     H26359   0.047   7.531   5.882 -0.5555  0.3749 -0.0042
  936MOL0     H26360   0.243   7.361   5.929 -3.0870 -0.0311  0.3289
  937MOL0     O26361   8.451   2.838  11.361 -0.0844 -0.0709  0.4670
  937MOL0     C26362   8.437   2.713  11.376 -0.6898  0.6549  0.1516
  937MOL0     O26363   8.406   2.634  11.275 -1.0712 -0.1280  0.6982
  937MOL0     C26364   8.346   2.667  11.154 -0.5508 -0.4443 -0.5349
  937MOL0     C26365   8.328   2.548  11.095  0.7170  0.1744 -0.1435
  937MOL0     C26366   8.270   2.538  10.972 -0.3941  0.2775  0.7279
  937MOL0     C26367   8.241   2.652  10.902  0.6355 -1.1682  0.4327
  937MOL0     O26368   8.181   2.662  10.776 -0.1089  0.5304  0.2089
  937MOL0     C26369   8.166   2.549  10.685  0.3177 -0.6934 -0.7546
  937MOL0     C26370   8.255   2.570  10.556  0.4903  0.3176 -0.1705
  937MOL0     C26371   8.407   2.568  10.571 -0.1227  0.5176  0.3238
  937MOL0     C26372   8.474   2.476  10.469 -0.1852 -0.2892  0.3645
  937MOL0     C26373   8.631   2.479  10.479  0.9052  0.1233 -0.1321
  937MOL0     C26374   8.701   2.397  10.368  0.2868 -0.3505  0.5719
  937MOL0     C26375   8.647   2.254  10.334  1.1283  0.3265  0.5458
  937MOL0     C26376   8.649   2.145  10.439 -0.6252 -0.6997 -0.5065
  937MOL0     N26377   8.640   2.013  10.376 -0.4407  0.5065  1.1056
  937MOL0     C26378   8.743   1.934  10.320  0.7412 -0.4275  0.0671
  937MOL0     C26379   8.689   1.812  10.284 -0.8193 -0.8229 -0.7027
  937MOL0     C26380   8.768   1.700  10.224  0.4765  0.0019  0.2316
  937MOL0     C26381   8.686   1.572  10.255 -0.3362 -0.7218  0.1882
  937MOL0     C26382   8.760   1.448  10.202  0.7692 -0.7668 -1.2869
  937MOL0     C26383   8.688   1.323  10.255 -0.9156 -0.2285 -0.3680
  937MOL0     O26384   8.719   1.310  10.396  0.2316  0.4871 -0.0879
  937MOL0     C26385   8.669   1.196  10.447 -0.0508 -0.0098 -0.2972
  937MOL0     C26386   8.539   1.158  10.414 -0.4760  0.0131  0.6404
  937MOL0     C26387   8.486   1.032  10.460  0.6313 -0.2378 -0.7939
  937MOL0     C26388   8.342   0.997  10.418 -0.6137  0.2221  0.3958
  937MOL0     C26389   8.563   0.946  10.541 -0.4575 -0.0352  0.2084
  937MOL0     C26390   8.524   0.811  10.586  0.2059  0.1344  0.3529
  937MOL0     O26391   8.624   0.714  10.596 -0.0436 -0.2018  0.0445
  937MOL0     C26392   8.582   0.583  10.623  0.3010  0.0645 -0.4485
  937MOL0     C26393   8.460   0.533  10.572  0.5194  0.5133 -1.6615
  937MOL0     C26394   8.427   0.397  10.602  1.3857  0.4633  0.3488
  937MOL0     C26395   8.492   0.315  10.694 -0.6824  0.5220 -0.1202
  937MOL0     O26396   8.469   0.181  10.711  0.0026  0.8553 -0.6672
  937MOL0     C26397   8.327   0.142  10.697 -0.4235  0.7258  0.0462
  937MOL0     C26398   8.302   0.085  10.561 -1.0264  0.1435 -0.4102
  937MOL0     C26399   8.351  -0.056  10.539 -0.5411 -0.6944  0.4158
  937MOL0     C26400   8.244  -0.174  10.558 -0.6284 -0.7184  0.5570
  937MOL0     C26401   8.285  -0.308  10.498  0.4787  1.1203  0.4088
  937MOL0     C26402   8.170  -0.399  10.520  0.3051  0.5711 -0.0685
  937MOL0     C26403   8.159  -0.523  10.434  0.6622 -0.7839  0.5500
  937MOL0     C26404   8.275  -0.622  10.438  0.6262 -0.2501  0.0373
  937MOL0    Cl26405   8.308  -0.667  10.617  0.3601 -0.1322  0.0872
  937MOL0     C26406   8.606   0.378  10.751  0.9709 -0.0916 -0.1227
  937MOL0     C26407   8.652   0.509  10.716  0.0659  0.0105  0.2479
  937MOL0     O26408   8.409   0.814  10.627 -0.8133  0.3516 -0.5645
  937MOL0     C26409   8.691   0.997  10.578 -0.9348 -0.3368  0.3037
  937MOL0     C26410   8.740   1.124  10.541 -0.9514  0.1576 -0.1727
  937MOL0     N26411   8.555   1.823  10.309 -0.6202  0.6944 -0.2284
  937MOL0     N26412   8.530   1.931  10.371  0.4952 -0.4189 -0.6154
  937MOL0     C26413   8.259   2.777  10.955  0.2300 -0.2786  0.0719
  937MOL0     C26414   8.311   2.783  11.085 -0.5047  0.1757 -0.3029
  937MOL0     C26415   8.489   2.656  11.509  0.3083 -1.0027  0.3889
  937MOL0     C26416   8.477   2.520  11.542  0.2324 -0.3327 -0.4739
  937MOL0     C26417   8.540   2.471  11.659  0.3795  0.5634  0.4830
  937MOL0     C26418   8.611   2.553  11.749  0.1158 -0.7481  1.3944
  937MOL0     O26419   8.653   2.528  11.876  0.5653 -0.4527 -0.0509
  937MOL0     C26420   8.698   2.390  11.896 -0.9763  0.0397 -0.7756
  937MOL0     C26421   8.749   2.390  12.042  0.0479 -0.6195 -0.3594
  937MOL0     C26422   8.637   2.397  12.148  0.5862 -0.1352  0.3835
  937MOL0     C26423   8.683   2.371  12.285 -0.9902  0.4106  0.5338
  937MOL0     C26424   8.760   2.483  12.336 -0.5972 -0.7278 -0.1945
  937MOL0     C26425   8.845   2.573  12.355 -0.4350 -0.5169 -0.1839
  937MOL0     C26426   8.639   2.681  11.707  0.0077 -0.0444 -0.1650
  937MOL0     C26427   8.573   2.730  11.592 -0.6796  0.1320  0.0274
  937MOL0     H26428   8.363   2.456  11.141  1.1561  0.6551  0.4859
  937MOL0     H26429   8.253   2.445  10.920 -0.9416  1.1086 -0.6449
  937MOL0     H26430   8.192   2.454  10.730  2.3251 -0.4118 -1.2388
  937MOL0     H26431   8.059   2.546  10.661  1.1300 -0.5048 -5.2755
  937MOL0     H26432   8.213   2.505  10.478  1.2169  0.3277 -0.5840
  937MOL0     H26433   8.231   2.665  10.508  1.9163 -0.3434 -2.3860
  937MOL0     H26434   8.440   2.672  10.562 -0.0004  0.3630 -1.5238
  937MOL0     H26435   8.432   2.531  10.671 -2.1889 -0.3872  0.5522
  937MOL0     H26436   8.438   2.374  10.479 -2.3526  0.6130  3.3476
  937MOL0     H26437   8.448   2.518  10.371 -0.3994 -1.7273 -0.2131
  937MOL0     H26438   8.673   2.579  10.492  1.2964 -0.2150  1.2447
  937MOL0     H26439   8.657   2.425  10.570 -0.7810 -3.0928 -1.3849
  937MOL0     H26440   8.698   2.450  10.272 -1.4660 -0.7988  0.3478
  937MOL0     H26441   8.805   2.368  10.381 -0.2077 -1.9691  1.0880
  937MOL0     H26442   8.548   2.266  10.289  1.3873 -1.6122 -0.6594
  937MOL0     H26443   8.717   2.212  10.260  0.9282  0.1837  0.4389
  937MOL0     H26444   8.557   2.158  10.497 -0.0080 -1.1574  0.5822
  937MOL0     H26445   8.735   2.141  10.506  0.6059 -2.0032 -2.0582
  937MOL0     H26446   8.846   1.966  10.312 -0.5580  3.8582 -2.7101
  937MOL0     H26447   8.790   1.719  10.118 -0.1537  1.4878  0.3448
  937MOL0     H26448   8.867   1.686  10.269  1.4862  3.3066 -0.6926
  937MOL0     H26449   8.585   1.573  10.213  0.4801  1.1423 -1.9462
  937MOL0     H26450   8.678   1.551  10.362 -0.5376 -1.4005  0.0398
  937MOL0     H26451   8.869   1.453  10.214  0.7188  3.2808 -0.9771
  937MOL0     H26452   8.741   1.449  10.094  1.4096 -3.2725 -1.4773
  937MOL0     H26453   8.730   1.231  10.212 -0.8693  0.0881 -1.0103
  937MOL0     H26454   8.585   1.325  10.220 -1.0321  2.3374 -0.0431
  937MOL0     H26455   8.474   1.207  10.342  1.6560 -1.2476 -2.3694
  937MOL0     H26456   8.334   0.888  10.421  1.2700  0.0737  1.6519
  937MOL0     H26457   8.266   1.018  10.493  1.2529  1.5556  2.0197
  937MOL0     H26458   8.315   1.044  10.323  1.8059  1.7778  0.3764
  937MOL0     H26459   8.380   0.584  10.518 -0.1470  1.2630 -0.0307
  937MOL0     H26460   8.344   0.361  10.542 -0.7577 -0.5618  3.6180
  937MOL0     H26461   8.304   0.064  10.770 -3.3045  0.2848 -1.2172
  937MOL0     H26462   8.262   0.228  10.718  0.5568  1.2639  0.9950
  937MOL0     H26463   8.193   0.078  10.564 -1.2525  2.8695  0.1150
  937MOL0     H26464   8.334   0.156  10.484  0.1066  0.0817 -0.0177
  937MOL0     H26465   8.444  -0.081  10.591 -0.6787 -0.8889  0.5726
  937MOL0     H26466   8.381  -0.079  10.436 -0.6644 -1.8028  0.6119
  937MOL0     H26467   8.242  -0.191  10.666 -0.4630 -0.5428  0.5884
  937MOL0     H26468   8.149  -0.142  10.514 -0.7801 -0.8920  0.7582
  937MOL0     H26469   8.384  -0.349  10.516 -0.1605 -2.0506 -2.2601
  937MOL0     H26470   8.296  -0.280  10.393  1.6433  1.4960  0.6206
  937MOL0     H26471   8.168  -0.424  10.627  2.6764 -3.6003 -0.7733
  937MOL0     H26472   8.071  -0.352  10.521  0.3826  0.8957  3.2441
  937MOL0     H26473   8.129  -0.497  10.332 -1.1981 -2.1044  0.7096
  937MOL0     H26474   8.077  -0.573  10.486  0.1307  0.4325  0.9247
  937MOL0     H26475   8.372  -0.594  10.394  0.1109 -0.4337 -1.2549
  937MOL0     H26476   8.254  -0.704  10.369 -1.1986  0.7381 -0.6390
  937MOL0     H26477   8.674   0.324  10.817  0.6755 -0.2378  0.0665
  937MOL0     H26478   8.726   0.560  10.777  0.7493  2.2985 -2.3029
  937MOL0     H26479   8.741   0.942  10.657  0.3462 -1.0510 -0.9566
  937MOL0     H26480   8.830   1.164  10.587 -0.1785 -1.3069 -0.3352
  937MOL0     H26481   8.234   2.862  10.893 -2.0723  1.9785  3.7365
  937MOL0     H26482   8.348   2.876  11.126 -0.4096  0.0130 -0.0215
  937MOL0     H26483   8.409   2.451  11.494 -1.1467  1.0529 -0.6198
  937MOL0     H26484   8.520   2.365  11.673  0.1297  0.6472  0.7676
  937MOL0     H26485   8.628   2.306  11.888 -1.3981  0.1640  1.1052
  937MOL0     H26486   8.789   2.372  11.838 -1.1978 -2.5065 -0.4557
  937MOL0     H26487   8.826   2.466  12.060  1.7404 -2.6186  1.2798
  937MOL0     H26488   8.809   2.301  12.062  0.1636 -0.1776  1.4026
  937MOL0     H26489   8.568   2.314  12.127 -0.1559  1.2028 -3.2414
  937MOL0     H26490   8.582   2.490  12.131 -2.7278 -1.8100  1.0813
  937MOL0     H26491   8.748   2.283  12.292 -2.8279 -1.1152 -0.6276
  937MOL0     H26492   8.593   2.359  12.347 -2.2076  1.1962 -1.0210
  937MOL0     H26493   8.926   2.630  12.395 -1.5774 -0.8255  2.8652
  937MOL0     H26494   8.696   2.735  11.782  0.2204 -0.2407 -0.1830
  937MOL0     H26495   8.607   2.828  11.561 -1.6295  1.3473  2.5813
  938MOL0     O26496  11.498   6.248   4.884  0.2069  0.0401  0.2527
  938MOL0     C26497  11.566   6.185   4.961  0.9603  0.2155 -0.1680
  938MOL0     O26498  11.704   6.169   4.954  0.0205 -0.4579 -0.0557
  938MOL0     C26499  11.775   6.194   4.835  0.0635 -0.4311  0.5935
  938MOL0     C26500  11.729   6.163   4.705 -0.8808  0.1016 -0.6247
  938MOL0     C26501  11.805   6.178   4.594  0.2257 -0.5317  0.0574
  938MOL0     C26502  11.930   6.221   4.610 -0.3943  0.4619 -0.1146
  938MOL0     O26503  11.995   6.255   4.493 -0.1422  0.9860  1.1223
  938MOL0     C26504  12.125   6.302   4.506 -0.5661  0.1842 -0.4093
  938MOL0     C26505  12.185   6.342   4.369  0.6424  1.7500 -0.1430
  938MOL0     C26506  12.322   6.401   4.388 -0.1015 -0.5783  0.0778
  938MOL0     C26507  12.411   6.375   4.263  0.3628 -0.4669 -0.9572
  938MOL0     C26508  12.542   6.456   4.265 -0.3076  0.3467 -0.1241
  938MOL0     C26509  12.516   6.607   4.293 -0.2927  0.5048 -0.8360
  938MOL0     C26510  12.638   6.694   4.262  1.3355 -0.1416 -0.3589
  938MOL0     C26511  12.621   6.846   4.269 -0.2523  0.9238  0.5003
  938MOL0     N26512  12.617   6.899   4.409 -0.2038 -0.8573  0.4940
  938MOL0     C26513  12.501   6.930   4.474 -0.0762  0.2904 -1.7470
  938MOL0     C26514  12.542   7.017   4.575 -0.1434 -0.6906  0.5706
  938MOL0     C26515  12.454   7.053   4.690  0.1036  0.1445 -0.3125
  938MOL0     C26516  12.359   7.158   4.635  0.9635 -0.5702 -0.1070
  938MOL0     C26517  12.275   7.199   4.752 -1.1112  0.7644  0.2881
  938MOL0     C26518  12.170   7.302   4.708  0.1548  0.1357 -0.3381
  938MOL0     O26519  12.098   7.346   4.821 -0.1817 -0.7522 -0.3632
  938MOL0     C26520  12.016   7.458   4.803  0.2169 -0.1748 -0.5085
  938MOL0     C26521  11.983   7.526   4.685  0.1568  0.7023 -0.2606
  938MOL0     C26522  11.901   7.634   4.672 -0.2859  0.2527 -0.0237
  938MOL0     C26523  11.924   7.721   4.551 -0.8315 -0.4368 -0.6086
  938MOL0     C26524  11.821   7.672   4.780  0.2956  0.1313 -0.1271
  938MOL0     C26525  11.723   7.786   4.775 -0.2418 -0.3813 -0.4211
  938MOL0     O26526  11.699   7.851   4.883  0.0812  0.2497 -0.3680
  938MOL0     C26527  11.620   7.968   4.881 -0.1368 -0.0808 -0.1884
  938MOL0     C26528  11.481   7.953   4.881  0.1406 -0.1935  0.0822
  938MOL0     C26529  11.391   8.054   4.872  0.5882 -1.0519 -0.3533
  938MOL0     C26530  11.427   8.185   4.896 -0.6004  0.2666 -0.0174
  938MOL0     O26531  11.340   8.282   4.913 -0.0593 -0.1615 -0.4616
  938MOL0     C26532  11.369   8.387   4.996 -0.8581 -0.2383 -0.9726
  938MOL0     C26533  11.396   8.359   5.144  0.5090 -0.1058 -0.3306
  938MOL0     C26534  11.420   8.486   5.225  0.0155 -0.3730  0.0564
  938MOL0     C26535  11.289   8.567   5.240 -0.0052  0.0167  0.6842
  938MOL0     C26536  11.280   8.660   5.363  0.9410  0.1001 -0.5640
  938MOL0     C26537  11.377   8.773   5.352  0.8957 -0.8347  0.3767
  938MOL0     C26538  11.360   8.866   5.473 -0.4842 -0.3149 -0.9740
  938MOL0     C26539  11.455   8.979   5.456 -0.1133  0.4468  0.8225
  938MOL0    Cl26540  11.439   9.081   5.598 -0.0256  0.3188  0.2392
  938MOL0     C26541  11.566   8.204   4.905 -0.0340  0.0823 -0.5111
  938MOL0     C26542  11.660   8.105   4.889  0.8981  0.7213 -0.2326
  938MOL0     O26543  11.671   7.818   4.669 -0.3307  0.6050  0.5127
  938MOL0     C26544  11.846   7.605   4.902 -0.4914 -0.4986  0.0288
  938MOL0     C26545  11.942   7.508   4.914 -0.7361 -0.7044 -0.0952
  938MOL0     N26546  12.674   7.050   4.554  0.0242  0.0546 -0.2955
  938MOL0     N26547  12.718   6.981   4.457  0.6338  0.0947 -0.4729
  938MOL0     C26548  11.980   6.272   4.733 -0.2903 -0.7110 -1.4573
  938MOL0     C26549  11.904   6.250   4.845 -0.3581  0.1458  0.4847
  938MOL0     C26550  11.499   6.124   5.088  0.7631  0.9448 -0.2164
  938MOL0     C26551  11.548   6.153   5.212 -1.0866  0.4621 -0.0779
  938MOL0     C26552  11.470   6.117   5.324  1.3291 -0.7047 -0.4364
  938MOL0     C26553  11.342   6.054   5.304  0.2664  0.8475 -0.0128
  938MOL0     O26554  11.256   6.036   5.414  0.1197 -0.1251 -0.1190
  938MOL0     C26555  11.314   6.026   5.544 -0.1767  0.2509  0.4353
  938MOL0     C26556  11.189   6.032   5.644  0.5012 -0.1611  0.0443
  938MOL0     C26557  11.125   6.178   5.636 -0.1081 -0.8889 -0.3525
  938MOL0     C26558  10.994   6.193   5.717  0.7468  0.6514 -1.0921
  938MOL0     C26559  11.031   6.183   5.862 -0.9354  1.1622  0.4837
  938MOL0     C26560  11.051   6.175   5.977  1.0318 -0.0634  0.8828
  938MOL0     C26561  11.298   6.026   5.176 -0.2015 -0.8546  0.0816
  938MOL0     C26562  11.377   6.064   5.065 -0.5403  0.6046  0.0090
  938MOL0     H26563  11.627   6.124   4.709 -0.6779 -0.3475  0.6235
  938MOL0     H26564  11.767   6.152   4.496 -0.2601 -1.5723  0.5039
  938MOL0     H26565  12.122   6.394   4.564  2.1528  0.2577 -0.2353
  938MOL0     H26566  12.192   6.234   4.560  2.8115  2.9056 -0.8155
  938MOL0     H26567  12.203   6.242   4.328  0.2595  0.3307  2.8912
  938MOL0     H26568  12.118   6.401   4.306 -1.5138 -2.3826 -2.1679
  938MOL0     H26569  12.316   6.509   4.405  3.5668 -0.1819 -0.4826
  938MOL0     H26570  12.374   6.369   4.479  1.9915  0.0179 -0.8573
  938MOL0     H26571  12.428   6.267   4.256 -3.4808 -1.1533 -2.0459
  938MOL0     H26572  12.372   6.404   4.165 -0.3923 -1.1588 -0.8836
  938MOL0     H26573  12.619   6.410   4.328 -0.1186 -0.3617 -0.8605
  938MOL0     H26574  12.580   6.465   4.163  2.0494  2.5633  0.8176
  938MOL0     H26575  12.432   6.652   4.239 -0.7346 -0.4767 -0.9760
  938MOL0     H26576  12.499   6.625   4.400 -1.1999  0.5265 -0.9784
  938MOL0     H26577  12.717   6.667   4.333  0.4590 -2.4233 -0.1548
  938MOL0     H26578  12.684   6.673   4.165  3.9134  1.8603  0.3204
  938MOL0     H26579  12.533   6.868   4.207 -1.5398 -2.1957  1.0387
  938MOL0     H26580  12.704   6.890   4.213 -1.4045  0.0397 -2.0705
  938MOL0     H26581  12.408   6.877   4.456 -0.0140  0.3403 -2.2288
  938MOL0     H26582  12.399   6.969   4.734 -0.6816  1.0925  0.5608
  938MOL0     H26583  12.514   7.068   4.780 -1.0875 -3.8482  1.3383
  938MOL0     H26584  12.304   7.123   4.547  2.1187  1.5880 -1.7835
  938MOL0     H26585  12.415   7.245   4.601 -1.8125  0.9172 -1.1652
  938MOL0     H26586  12.345   7.235   4.827 -0.9751 -1.5954  1.4033
  938MOL0     H26587  12.224   7.117   4.804 -0.4804  1.4195  1.9959
  938MOL0     H26588  12.094   7.260   4.642  0.5590  0.7499 -1.2236
  938MOL0     H26589  12.213   7.373   4.636 -1.0802  0.5157 -0.7150
  938MOL0     H26590  12.031   7.498   4.592  0.6327 -2.1225  0.7282
  938MOL0     H26591  11.844   7.738   4.478  2.2265 -1.3351 -4.5316
  938MOL0     H26592  11.946   7.823   4.584  1.2891 -0.4975 -1.6524
  938MOL0     H26593  12.019   7.697   4.503 -0.2647 -0.0370  0.2858
  938MOL0     H26594  11.437   7.854   4.895  0.9597 -0.1576  4.0688
  938MOL0     H26595  11.286   8.027   4.870  0.6883 -1.7146  1.5095
  938MOL0     H26596  11.451   8.448   4.958  0.2644  1.4314  3.5066
  938MOL0     H26597  11.271   8.436   4.995 -0.0336  1.5211  0.0989
  938MOL0     H26598  11.313   8.299   5.181 -1.0034  1.7844 -0.5227
  938MOL0     H26599  11.479   8.288   5.153  2.1036  1.6267 -0.6751
  938MOL0     H26600  11.499   8.548   5.182 -1.4714 -0.6133 -3.3681
  938MOL0     H26601  11.452   8.451   5.323 -2.2145 -1.7872  0.3644
  938MOL0     H26602  11.274   8.611   5.141  0.2781 -0.6125  0.3570
  938MOL0     H26603  11.218   8.484   5.246 -1.1691  0.9499  0.4088
  938MOL0     H26604  11.283   8.607   5.458 -1.4290  0.8361 -0.0023
  938MOL0     H26605  11.180   8.703   5.356  2.7352  4.6984 -1.2998
  938MOL0     H26606  11.477   8.730   5.342  0.3494 -1.6443 -2.3961
  938MOL0     H26607  11.352   8.820   5.257  0.0182 -1.1088  0.4606
  938MOL0     H26608  11.384   8.808   5.562  0.4176 -0.9192 -1.5858
  938MOL0     H26609  11.257   8.899   5.483 -1.0045 -1.6893 -1.5000
  938MOL0     H26610  11.427   9.031   5.364 -2.1301 -1.6417  0.1851
  938MOL0     H26611  11.561   8.953   5.452  0.0889  0.5717  3.3198
  938MOL0     H26612  11.611   8.303   4.908 -0.4746  0.2808 -0.2482
  938MOL0     H26613  11.766   8.127   4.885  1.0248 -0.0248 -2.4932
  938MOL0     H26614  11.792   7.641   4.988  2.8789 -0.2221  2.1907
  938MOL0     H26615  11.950   7.455   5.009 -0.3073 -1.1523 -0.3755
  938MOL0     H26616  12.080   6.314   4.739  0.3449 -1.9013 -2.9198
  938MOL0     H26617  11.935   6.271   4.947  1.7353  0.7228 -0.2147
  938MOL0     H26618  11.648   6.194   5.218  0.2814 -2.2076 -2.4607
  938MOL0     H26619  11.504   6.148   5.422 -2.1814  0.3420  0.6016
  938MOL0     H26620  11.361   5.928   5.558  2.2197  1.1391 -0.8816
  938MOL0     H26621  11.387   6.098   5.582 -1.3759  1.4764  0.4922
  938MOL0     H26622  11.205   5.991   5.744  1.8661  0.7566  0.2216
  938MOL0     H26623  11.114   5.965   5.600 -0.2743  0.0841  0.9785
  938MOL0     H26624  11.104   6.206   5.532  0.9814 -1.4397 -0.7351
  938MOL0     H26625  11.197   6.249   5.678  1.7983 -2.6863 -0.3942
  938MOL0     H26626  10.915   6.119   5.702  2.0240 -1.6215  2.3192
  938MOL0     H26627  10.952   6.294   5.711 -0.6674  0.2548  1.1532
  938MOL0     H26628  11.085   6.154   6.077 -0.6872 -3.3332  0.9207
  938MOL0     H26629  11.201   5.977   5.163 -0.9620  0.2194  1.4994
  938MOL0     H26630  11.355   6.047   4.960  1.3719  1.8402 -0.6459
  939MOL0     O26631   7.433   2.615   9.856 -0.1926 -0.0212  0.2107
  939MOL0     C26632   7.421   2.691   9.762 -0.0610 -0.2111  0.6769
  939MOL0     O26633   7.494   2.688   9.640  0.5834  0.6098  0.0927
  939MOL0     C26634   7.593   2.592   9.620  0.1793 -0.3504  0.1754
  939MOL0     C26635   7.578   2.453   9.648 -0.9026 -0.4389 -0.4294
  939MOL0     C26636   7.691   2.374   9.647 -1.0343 -0.1066  0.2016
  939MOL0     C26637   7.803   2.427   9.589 -0.6820 -0.4572  1.0588
  939MOL0     O26638   7.906   2.340   9.558  0.4030 -1.3628 -0.4360
  939MOL0     C26639   7.937   2.353   9.411 -0.5597  0.9582  0.8275
  939MOL0     C26640   8.023   2.228   9.364  0.9525 -0.1359 -0.2406
  939MOL0     C26641   8.062   2.228   9.224 -0.3244  0.7292  0.8757
  939MOL0     C26642   8.059   2.085   9.164 -0.1475 -0.2065 -0.0039
  939MOL0     C26643   8.056   2.102   9.010  0.5817 -0.2004  0.4052
  939MOL0     C26644   8.176   2.178   8.947 -0.2151  0.0300 -0.9292
  939MOL0     C26645   8.202   2.148   8.799 -0.2648  0.4508  0.6132
  939MOL0     C26646   8.084   2.181   8.708  0.3633 -0.5669 -0.4864
  939MOL0     N26647   8.085   2.115   8.575  0.1806 -0.3947 -0.3586
  939MOL0     C26648   8.085   1.980   8.553 -0.1149 -0.4505 -0.0774
  939MOL0     C26649   8.069   1.988   8.419  0.6920  0.6473  0.4113
  939MOL0     C26650   8.025   1.865   8.340  0.2168  0.3270  0.9360
  939MOL0     C26651   8.099   1.733   8.369  0.2824 -0.1785 -0.4368
  939MOL0     C26652   8.245   1.740   8.345  0.0383  0.2194 -0.9345
  939MOL0     C26653   8.313   1.594   8.364 -0.3873 -0.4359 -0.5417
  939MOL0     O26654   8.266   1.491   8.271 -0.2952  0.5857  0.6412
  939MOL0     C26655   8.331   1.491   8.145  0.1034 -1.1627 -0.0658
  939MOL0     C26656   8.455   1.426   8.145  0.3515 -0.2598  0.2796
  939MOL0     C26657   8.522   1.396   8.019 -0.2598 -0.6418 -0.2594
  939MOL0     C26658   8.652   1.328   8.028 -0.3092  0.7546  0.1418
  939MOL0     C26659   8.464   1.435   7.893 -0.4291 -0.3221  0.6504
  939MOL0     C26660   8.529   1.436   7.756  0.0731 -0.1996 -0.0054
  939MOL0     O26661   8.666   1.409   7.750 -0.2739 -0.5903  0.3803
  939MOL0     C26662   8.735   1.412   7.628  0.4625 -0.5207  0.6769
  939MOL0     C26663   8.848   1.341   7.639 -0.5963  0.0354  0.0952
  939MOL0     C26664   8.941   1.324   7.536  0.0524 -0.2181 -0.3333
  939MOL0     C26665   8.919   1.391   7.413 -0.5543 -0.7716 -0.7166
  939MOL0     O26666   9.002   1.391   7.303 -0.5756 -0.5374 -0.3625
  939MOL0     C26667   9.093   1.280   7.277 -0.4154 -1.0380 -0.1664
  939MOL0     C26668   9.111   1.285   7.128 -1.3348  0.9184 -0.9066
  939MOL0     C26669   9.229   1.197   7.093  0.4398  0.3589 -0.9258
  939MOL0     C26670   9.272   1.221   6.944  0.8445 -0.3498  0.6486
  939MOL0     C26671   9.340   1.109   6.867 -0.4738 -0.6119  0.3854
  939MOL0     C26672   9.406   1.169   6.745 -1.0739 -1.2525  0.4206
  939MOL0     C26673   9.522   1.098   6.697 -0.5411 -0.5298  0.5978
  939MOL0     C26674   9.639   1.109   6.807 -0.6640  0.8839  0.6008
  939MOL0    Cl26675   9.719   1.261   6.767 -0.4013 -0.0641  0.4637
  939MOL0     C26676   8.799   1.467   7.404 -0.7811  0.5044 -0.1032
  939MOL0     C26677   8.707   1.486   7.515 -1.0739 -0.5567 -0.1319
  939MOL0     O26678   8.460   1.477   7.665 -0.0398  0.0346  0.1868
  939MOL0     C26679   8.335   1.496   7.899 -0.1387 -0.0462  0.2258
  939MOL0     C26680   8.276   1.529   8.020 -0.5784  0.3467 -1.5373
  939MOL0     N26681   8.043   2.108   8.364 -0.2433 -0.2962  0.7092
  939MOL0     N26682   8.050   2.186   8.459  0.3465 -0.5754 -0.0039
  939MOL0     C26683   7.816   2.555   9.551 -0.1107 -0.2407 -0.9159
  939MOL0     C26684   7.706   2.646   9.561  0.3132  0.1675 -1.3343
  939MOL0     C26685   7.322   2.794   9.770 -0.5166 -0.4731 -0.2541
  939MOL0     C26686   7.344   2.913   9.714 -0.2182 -0.0901 -1.0323
  939MOL0     C26687   7.244   3.020   9.722 -1.2200 -0.1320  1.5673
  939MOL0     C26688   7.122   2.995   9.777  0.9723 -0.0799 -1.1576
  939MOL0     O26689   7.039   3.108   9.800 -0.3182  0.8000  0.3879
  939MOL0     C26690   6.915   3.068   9.753  0.7708  0.0801 -0.0063
  939MOL0     C26691   6.803   3.116   9.841 -0.4636  0.9482  0.4198
  939MOL0     C26692   6.804   3.267   9.864 -0.4544 -0.1042 -0.0443
  939MOL0     C26693   6.851   3.324  10.000 -0.0193 -0.1238 -0.3884
  939MOL0     C26694   6.785   3.453  10.009  0.6650 -0.0040 -0.2568
  939MOL0     C26695   6.734   3.563  10.011 -0.4905 -1.6305 -0.1491
  939MOL0     C26696   7.097   2.868   9.833 -0.7256 -0.0530 -0.0530
  939MOL0     C26697   7.201   2.770   9.836  0.3704 -0.0355 -0.1965
  939MOL0     H26698   7.486   2.422   9.698 -0.1226  0.1909  1.4852
  939MOL0     H26699   7.686   2.269   9.677  2.9080 -0.6230 -0.3712
  939MOL0     H26700   7.846   2.374   9.354  0.8338 -3.2673 -3.6845
  939MOL0     H26701   8.006   2.438   9.403  0.8099 -0.2145 -0.4357
  939MOL0     H26702   8.103   2.199   9.433  1.5842 -0.3095 -1.0349
  939MOL0     H26703   7.962   2.139   9.381  2.8052 -0.8571  4.2263
  939MOL0     H26704   8.008   2.300   9.161 -0.8243 -1.0957 -0.8764
  939MOL0     H26705   8.167   2.256   9.218 -0.8762  2.7593 -0.3934
  939MOL0     H26706   8.137   2.022   9.208  0.3345  1.4074  1.5967
  939MOL0     H26707   7.966   2.030   9.182  0.4188 -1.3613 -0.5474
  939MOL0     H26708   8.027   2.006   8.967 -3.6039  1.3582 -0.7835
  939MOL0     H26709   7.964   2.153   8.980 -1.7114 -4.2140 -0.0223
  939MOL0     H26710   8.155   2.285   8.945 -2.2406 -0.1326  2.6203
  939MOL0     H26711   8.268   2.149   8.998 -0.1099  1.0033 -0.5391
  939MOL0     H26712   8.296   2.185   8.758  0.2971  1.3260  2.5539
  939MOL0     H26713   8.217   2.040   8.794  1.8522  0.7666 -0.5369
  939MOL0     H26714   8.087   2.290   8.699  2.6653 -0.4730  0.7502
  939MOL0     H26715   7.993   2.140   8.753  0.6558 -0.2725  0.3843
  939MOL0     H26716   8.102   1.891   8.612  0.6108 -1.5627 -1.8645
  939MOL0     H26717   7.918   1.845   8.352  0.1495  0.7356  1.0274
  939MOL0     H26718   8.048   1.896   8.237 -1.6018  2.3172  1.0609
  939MOL0     H26719   8.072   1.659   8.293 -0.4892 -1.1432  0.7440
  939MOL0     H26720   8.072   1.692   8.467 -0.6956 -0.8441 -0.9664
  939MOL0     H26721   8.289   1.811   8.416  3.9957 -4.7030  2.3104
  939MOL0     H26722   8.259   1.782   8.245 -3.0014  1.9507 -0.7595
  939MOL0     H26723   8.296   1.548   8.462 -1.1218 -1.1455 -0.9876
  939MOL0     H26724   8.422   1.598   8.356 -0.4740 -1.1838 -3.0129
  939MOL0     H26725   8.488   1.396   8.244  0.4425 -2.6901 -0.4083
  939MOL0     H26726   8.691   1.297   8.125 -1.7317  1.0744  0.8360
  939MOL0     H26727   8.659   1.239   7.964  1.1744  0.2298  0.9922
  939MOL0     H26728   8.723   1.404   7.994  0.2545  0.7444  1.2710
  939MOL0     H26729   8.872   1.284   7.728  0.9331  0.5285  0.0113
  939MOL0     H26730   9.027   1.259   7.548 -1.2537 -2.2915 -1.5145
  939MOL0     H26731   9.186   1.280   7.334 -0.9032  0.5311  0.6865
  939MOL0     H26732   9.048   1.183   7.304  1.8601 -2.0671  0.1525
  939MOL0     H26733   9.018   1.247   7.084 -0.4955 -0.7006 -1.3733
  939MOL0     H26734   9.125   1.387   7.091 -1.3738  1.4395  0.4756
  939MOL0     H26735   9.208   1.093   7.119  0.0935  0.6523  0.0179
  939MOL0     H26736   9.314   1.229   7.153 -0.2549  0.6295 -0.0641
  939MOL0     H26737   9.183   1.249   6.886 -0.4633 -4.6898  0.2650
  939MOL0     H26738   9.335   1.311   6.948 -0.4552  0.6199  0.0933
  939MOL0     H26739   9.267   1.039   6.824  0.9542 -0.8375 -1.8333
  939MOL0     H26740   9.412   1.058   6.932  0.8044  1.2982  0.5315
  939MOL0     H26741   9.336   1.182   6.661  0.2664  1.4662 -0.3979
  939MOL0     H26742   9.435   1.270   6.774 -1.4646 -0.4319 -1.8690
  939MOL0     H26743   9.549   1.152   6.606 -1.5853 -1.1609 -0.1167
  939MOL0     H26744   9.479   1.000   6.675 -0.5378 -0.6946  1.3096
  939MOL0     H26745   9.698   1.017   6.803  1.6343  2.0568  3.4222
  939MOL0     H26746   9.597   1.120   6.908 -0.8226 -2.0437  0.9405
  939MOL0     H26747   8.781   1.522   7.312 -1.7247  0.2731 -0.0682
  939MOL0     H26748   8.632   1.565   7.513 -1.6791 -1.0765  0.8277
  939MOL0     H26749   8.288   1.527   7.807  1.3186  0.1767 -0.4777
  939MOL0     H26750   8.190   1.594   8.026 -1.6708 -1.1749  0.9865
  939MOL0     H26751   7.917   2.589   9.527 -0.7361  0.5131 -2.6000
  939MOL0     H26752   7.702   2.752   9.537 -2.0818  0.2839 -0.7170
  939MOL0     H26753   7.435   2.931   9.657 -1.6783  1.0490 -3.1185
  939MOL0     H26754   7.265   3.122   9.692 -2.3808  0.2841  2.1013
  939MOL0     H26755   6.900   3.113   9.654  1.1670  1.6694  0.6211
  939MOL0     H26756   6.892   2.962   9.743  0.8701  0.0645 -0.0631
  939MOL0     H26757   6.806   3.060   9.935  1.1405 -1.1260 -0.7717
  939MOL0     H26758   6.711   3.088   9.788 -1.2070  0.3508  1.9563
  939MOL0     H26759   6.700   3.298   9.848 -0.0273  1.1814 -0.4388
  939MOL0     H26760   6.858   3.307   9.778  0.2035  0.4448  0.6138
  939MOL0     H26761   6.956   3.356  10.005  0.3508 -1.4902  2.2693
  939MOL0     H26762   6.831   3.259  10.086 -3.1421  2.1709  0.7914
  939MOL0     H26763   6.678   3.654  10.012 -0.3982 -1.5620 -0.9249
  939MOL0     H26764   7.010   2.834   9.888  0.3909 -0.5330  1.4912
  939MOL0     H26765   7.170   2.677   9.883 -0.1424  0.4204  0.3888
  940MOL0     O26766   1.764  10.763  10.861 -0.7777 -0.5562 -0.5369
  940MOL0     C26767   1.715  10.663  10.809 -0.0579 -0.3462 -0.0899
  940MOL0     O26768   1.594  10.610  10.847  0.1967  0.0232  0.3142
  940MOL0     C26769   1.504  10.664  10.937 -0.4354  0.0090 -0.7437
  940MOL0     C26770   1.424  10.576  11.014 -1.0909 -0.1100  0.2073
  940MOL0     C26771   1.342  10.629  11.111 -0.4412  0.0287 -0.2242
  940MOL0     C26772   1.334  10.770  11.138 -0.5448  1.0210 -0.0651
  940MOL0     O26773   1.234  10.818  11.219  0.0470 -0.0654  0.0778
  940MOL0     C26774   1.262  10.931  11.304  0.0633  1.5387  0.4709
  940MOL0     C26775   1.340  10.888  11.430  0.5803 -0.2695  0.0741
  940MOL0     C26776   1.260  10.795  11.524 -0.4451  0.0984 -0.0393
  940MOL0     C26777   1.340  10.749  11.641 -0.4150  0.6282  0.7588
  940MOL0     C26778   1.300  10.852  11.747  0.6436  0.1789 -0.2666
  940MOL0     C26779   1.398  10.834  11.857 -0.2465  0.7241  0.2609
  940MOL0     C26780   1.334  10.880  11.991  0.4546 -0.2898  0.7934
  940MOL0     C26781   1.288  11.024  11.983 -0.5562  0.4497  0.3445
  940MOL0     N26782   1.258  11.073  12.116  0.0073 -0.1468  0.2533
  940MOL0     C26783   1.129  11.085  12.162  0.0131 -0.3956  0.1839
  940MOL0     C26784   1.138  11.165  12.270 -0.7003 -0.6343 -0.5736
  940MOL0     C26785   1.022  11.220  12.347 -0.6388  0.8251  0.2792
  940MOL0     C26786   0.943  11.320  12.276  0.2287  0.0289 -0.1079
  940MOL0     C26787   1.021  11.432  12.203 -0.6413  1.2724  0.0575
  940MOL0     C26788   0.944  11.536  12.119 -0.3021  0.2608  0.1925
  940MOL0     O26789   1.045  11.624  12.064 -0.4925  0.1046 -0.3581
  940MOL0     C26790   0.983  11.724  12.005 -0.1033 -1.4390  0.2244
  940MOL0     C26791   1.026  11.745  11.872 -0.0870  0.2652  0.9786
  940MOL0     C26792   0.996  11.866  11.808 -0.2524 -0.1471 -0.0236
  940MOL0     C26793   1.056  11.877  11.672  0.0517 -0.1905 -0.7033
  940MOL0     C26794   0.918  11.966  11.871 -0.2231  0.2993 -0.5652
  940MOL0     C26795   0.899  12.108  11.808 -0.2916  0.1467  0.0620
  940MOL0     O26796   0.878  12.213  11.897  0.3468 -0.1047 -0.4699
  940MOL0     C26797   0.840  12.338  11.849  0.1893  0.6122  0.3955
  940MOL0     C26798   0.705  12.374  11.831 -0.2309 -0.0868 -0.9924
  940MOL0     C26799   0.677  12.509  11.804 -0.1881  0.9097  0.7557
  940MOL0     C26800   0.771  12.604  11.781 -0.7949 -0.1306  0.6718
  940MOL0     O26801   0.728  12.730  11.770  0.3818  0.2083 -0.1780
  940MOL0     C26802   0.683  12.766  11.643 -1.0550 -0.5319 -0.5524
  940MOL0     C26803   0.535  12.808  11.656  0.0778 -0.7854  0.9900
  940MOL0     C26804   0.479  12.848  11.516 -0.1670 -0.0731 -0.2591
  940MOL0     C26805   0.551  12.965  11.463 -0.2149  0.1586 -0.1576
  940MOL0     C26806   0.502  12.977  11.315  0.7488 -0.0550 -0.6238
  940MOL0     C26807   0.499  13.125  11.271  0.3008  0.6320  0.3953
  940MOL0     C26808   0.471  13.157  11.124  0.0888 -0.5922  0.7254
  940MOL0     C26809   0.328  13.221  11.108  0.2351  0.1671 -1.0341
  940MOL0    Cl26810   0.201  13.100  11.163  0.1160 -0.1313  0.4111
  940MOL0     C26811   0.905  12.570  11.793 -0.8974  0.6765 -0.8674
  940MOL0     C26812   0.939  12.438  11.827 -0.0670 -0.2511  0.8411
  940MOL0     O26813   0.913  12.118  11.687  0.1135 -0.2405  1.0526
  940MOL0     C26814   0.864  11.938  11.996 -0.3004  0.7589 -0.3744
  940MOL0     C26815   0.898  11.821  12.059  0.6269  0.1651 -1.1715
  940MOL0     N26816   1.271  11.192  12.293  0.1307  0.6936 -0.2228
  940MOL0     N26817   1.340  11.130  12.204 -0.3120  0.4168 -0.4905
  940MOL0     C26818   1.423  10.852  11.063 -0.3053 -0.6890 -0.4868
  940MOL0     C26819   1.501  10.804  10.966 -0.8868  0.2130  0.6670
  940MOL0     C26820   1.785  10.604  10.696 -1.2251  0.4851 -0.4951
  940MOL0     C26821   1.752  10.476  10.656  0.3715 -0.2226 -0.5625
  940MOL0     C26822   1.798  10.418  10.538 -0.6723  0.6078 -0.6620
  940MOL0     C26823   1.908  10.477  10.465 -0.2053 -1.2671 -1.4495
  940MOL0     O26824   1.970  10.427  10.359  0.4728  1.1510  0.1225
  940MOL0     C26825   2.086  10.355  10.386 -0.0343  0.0744  0.5846
  940MOL0     C26826   2.094  10.241  10.283 -0.6284 -0.2105  0.6176
  940MOL0     C26827   2.019  10.105  10.306 -1.0426 -0.3498  0.4176
  940MOL0     C26828   2.004  10.007  10.189  0.4622 -0.3012  0.3952
  940MOL0     C26829   1.975   9.867  10.237  0.1926 -0.4182 -0.1875
  940MOL0     C26830   1.934   9.761  10.272  0.3389  0.2543  0.2227
  940MOL0     C26831   1.948  10.608  10.511 -0.1577 -0.0333 -0.5650
  940MOL0     C26832   1.895  10.671  10.632  0.3255  0.7529  0.1744
  940MOL0     H26833   1.402  10.471  10.995  0.4262 -0.7230  1.5290
  940MOL0     H26834   1.281  10.567  11.177  0.9372  2.0642  3.2423
  940MOL0     H26835   1.313  11.011  11.249  0.9078  0.4465 -0.3862
  940MOL0     H26836   1.162  10.967  11.328 -0.1964  1.8378 -0.9676
  940MOL0     H26837   1.431  10.845  11.387  0.5259  1.6000 -2.0548
  940MOL0     H26838   1.379  10.976  11.482  3.0296 -0.9558 -0.4873
  940MOL0     H26839   1.162  10.836  11.551 -0.3825  1.2125 -1.3863
  940MOL0     H26840   1.236  10.708  11.462 -2.7918  2.5654 -2.8802
  940MOL0     H26841   1.317  10.646  11.669  0.8334 -0.9251 -3.1374
  940MOL0     H26842   1.446  10.741  11.613 -0.0718  3.4889  0.9763
  940MOL0     H26843   1.310  10.955  11.712  1.5191  1.7060  3.9711
  940MOL0     H26844   1.202  10.827  11.789  2.2323 -1.1047  3.0416
  940MOL0     H26845   1.437  10.732  11.864  0.0471  0.5469 -2.5953
  940MOL0     H26846   1.490  10.885  11.826 -0.3255  1.4110  1.1279
  940MOL0     H26847   1.241  10.823  12.000 -0.5352 -0.0558 -4.4876
  940MOL0     H26848   1.411  10.859  12.065  0.4701  0.6857  1.0545
  940MOL0     H26849   1.190  11.022  11.934  0.7755 -1.5958 -2.4341
  940MOL0     H26850   1.358  11.090  11.931 -1.7540  0.5922 -1.1452
  940MOL0     H26851   1.040  11.047  12.113  0.1951 -1.0021  0.3156
  940MOL0     H26852   0.951  11.138  12.364  1.1188 -0.6514  0.9039
  940MOL0     H26853   1.051  11.258  12.445  0.8631 -1.8067  0.9502
  940MOL0     H26854   0.879  11.365  12.353  4.0679  1.9289  2.2918
  940MOL0     H26855   0.875  11.268  12.208 -3.5714 -0.8638  3.9095
  940MOL0     H26856   1.089  11.379  12.136  0.3239  1.0134  1.2109
  940MOL0     H26857   1.082  11.500  12.263  1.5718 -0.5723  0.0365
  940MOL0     H26858   0.872  11.593  12.179  1.0170 -1.0869  3.2618
  940MOL0     H26859   0.877  11.491  12.045 -0.9032  1.0975  0.2129
  940MOL0     H26860   1.094  11.675  11.824 -1.1263  0.9346 -1.6697
  940MOL0     H26861   1.130  11.957  11.686  0.4039 -0.9779  2.8834
  940MOL0     H26862   1.114  11.790  11.641 -1.0615 -0.1162 -3.2390
  940MOL0     H26863   0.983  11.897  11.594 -0.0967 -0.9761 -0.7719
  940MOL0     H26864   0.624  12.307  11.856 -0.5818  1.2843  1.9647
  940MOL0     H26865   0.575  12.546  11.812 -0.1603  0.9667  0.8501
  940MOL0     H26866   0.752  12.849  11.624  1.0884 -1.6543  1.6537
  940MOL0     H26867   0.702  12.702  11.557 -1.8215 -0.0539 -1.0883
  940MOL0     H26868   0.467  12.729  11.689 -0.8227 -0.3393  0.2584
  940MOL0     H26869   0.525  12.885  11.733  2.4271 -0.4565  1.0232
  940MOL0     H26870   0.375  12.874  11.540 -1.7710 -1.9273 -4.2832
  940MOL0     H26871   0.491  12.769  11.442  1.3161  0.4645 -0.6362
  940MOL0     H26872   0.539  13.058  11.519  3.4142  0.5106  0.2957
  940MOL0     H26873   0.659  12.949  11.464  0.0202  1.4913 -1.1264
  940MOL0     H26874   0.396  12.951  11.308  0.2739  0.1165  3.3403
  940MOL0     H26875   0.560  12.914  11.247  0.6509  0.1306 -0.8812
  940MOL0     H26876   0.424  13.174  11.334 -3.6853 -2.7155 -1.2336
  940MOL0     H26877   0.594  13.166  11.308  2.3201 -1.3485 -2.2001
  940MOL0     H26878   0.494  13.082  11.048  1.3505  0.7364 -0.2763
  940MOL0     H26879   0.536  13.244  11.109  0.1957 -0.9093 -0.7802
  940MOL0     H26880   0.306  13.252  11.006 -2.1510  2.7846  0.1337
  940MOL0     H26881   0.310  13.310  11.169  0.4805  0.9487 -2.0776
  940MOL0     H26882   0.983  12.645  11.780  0.3450  0.7410  4.4096
  940MOL0     H26883   1.045  12.419  11.830 -0.0035 -0.0821 -0.0913
  940MOL0     H26884   0.806  12.007  12.056 -2.1518 -0.4515 -0.6656
  940MOL0     H26885   0.863  11.808  12.160 -0.3996 -0.4792 -1.6025
  940MOL0     H26886   1.424  10.957  11.093 -1.8293 -0.3251 -1.5957
  940MOL0     H26887   1.568  10.871  10.912 -0.4232  1.1341  2.3404
  940MOL0     H26888   1.672  10.429  10.713 -0.1135 -3.5289 -3.6424
  940MOL0     H26889   1.746  10.332  10.498  1.1395 -1.1984  0.6647
  940MOL0     H26890   2.175  10.417  10.373  0.5389 -0.9353 -0.6145
  940MOL0     H26891   2.090  10.305  10.483  0.3341 -1.7588 -0.3130
  940MOL0     H26892   2.197  10.210  10.267 -0.6463  0.7011 -1.5961
  940MOL0     H26893   2.058  10.278  10.186 -1.8716  0.9083  1.4577
  940MOL0     H26894   1.919  10.132  10.341 -0.3427 -0.1103  2.3441
  940MOL0     H26895   2.071  10.051  10.386  0.5589 -0.7101 -0.8087
  940MOL0     H26896   2.082  10.014  10.113 -2.6950  2.6925 -2.9870
  940MOL0     H26897   1.917  10.048  10.137  1.3010  1.7493  0.5297
  940MOL0     H26898   1.895   9.671  10.316  0.9123 -0.1616 -0.0976
  940MOL0     H26899   2.013  10.679  10.461 -1.9383  2.9676  1.0711
  940MOL0     H26900   1.920  10.773  10.659  0.1644  0.6339  0.7780
  941MOL0     O26901  11.024   1.063   5.514 -0.4084 -0.2395 -0.4932
  941MOL0     C26902  10.905   1.051   5.482 -0.6488  0.0197 -0.1857
  941MOL0     O26903  10.796   1.094   5.557  0.7343 -0.3685  0.6026
  941MOL0     C26904  10.819   1.117   5.690  1.0766  0.4552  0.3648
  941MOL0     C26905  10.794   1.243   5.728  0.4860 -0.3275  0.0685
  941MOL0     C26906  10.804   1.285   5.864  0.8466 -0.2101 -0.8204
  941MOL0     C26907  10.839   1.190   5.966 -0.4117  0.1063 -0.4549
  941MOL0     O26908  10.835   1.218   6.096  0.5189 -0.3376  0.0530
  941MOL0     C26909  10.933   1.315   6.140  1.3313 -0.1961 -0.0326
  941MOL0     C26910  11.006   1.278   6.267  0.4649  0.3131 -0.8225
  941MOL0     C26911  11.160   1.248   6.236 -0.6055 -0.8633 -0.0469
  941MOL0     C26912  11.247   1.279   6.365  0.7453 -0.1018 -0.3400
  941MOL0     C26913  11.396   1.235   6.352 -0.2539 -0.0459  0.1575
  941MOL0     C26914  11.489   1.330   6.284 -0.2513 -0.5037 -0.4669
  941MOL0     C26915  11.477   1.483   6.333  0.0711  0.3377 -0.6377
  941MOL0     C26916  11.589   1.570   6.287 -0.7578 -0.0349 -0.0862
  941MOL0     N26917  11.582   1.697   6.363 -0.0619 -0.1095 -0.1540
  941MOL0     C26918  11.653   1.714   6.480  0.5362 -0.9192  0.9402
  941MOL0     C26919  11.606   1.838   6.524  0.5394 -0.0814  0.9049
  941MOL0     C26920  11.653   1.907   6.646  1.1893  0.7855  0.0910
  941MOL0     C26921  11.802   1.943   6.634 -0.8799 -0.6613  0.6865
  941MOL0     C26922  11.847   2.023   6.509 -0.3688  0.1145  0.2251
  941MOL0     C26923  11.754   2.146   6.484  0.9109 -0.1878 -0.4081
  941MOL0     O26924  11.733   2.230   6.601 -0.0792  0.2408  0.2507
  941MOL0     C26925  11.823   2.326   6.632 -0.6319  0.3545 -0.2325
  941MOL0     C26926  11.808   2.400   6.748 -0.5648 -0.8379  0.4933
  941MOL0     C26927  11.899   2.508   6.776 -0.2288 -0.4835  0.2471
  941MOL0     C26928  11.863   2.587   6.903 -0.6856 -0.2066 -0.0787
  941MOL0     C26929  12.015   2.532   6.692  0.3550  0.3823 -0.4651
  941MOL0     C26930  12.107   2.649   6.719 -0.1081 -0.6575  0.8473
  941MOL0     O26931  12.205   2.661   6.626  0.2382 -0.2091  0.5334
  941MOL0     C26932  12.272   2.776   6.586  0.2238 -0.5356 -0.4648
  941MOL0     C26933  12.402   2.756   6.550 -0.2588  0.0580 -0.0391
  941MOL0     C26934  12.476   2.853   6.485  0.0884  0.3412  0.5920
  941MOL0     C26935  12.425   2.982   6.466 -0.4400  1.0941 -0.2544
  941MOL0     O26936  12.505   3.076   6.409  0.3496  1.2354 -0.8030
  941MOL0     C26937  12.502   3.205   6.459  0.0053 -0.0189 -0.7727
  941MOL0     C26938  12.662   3.224   6.482 -0.8119  0.0423  0.1808
  941MOL0     C26939  12.725   3.264   6.350  0.1460  0.9612 -0.2398
  941MOL0     C26940  12.862   3.206   6.321 -0.1441 -0.1808 -0.4772
  941MOL0     C26941  12.968   3.273   6.415  0.7541  0.8929  0.2084
  941MOL0     C26942  13.098   3.190   6.406 -0.2079  0.4854 -1.0804
  941MOL0     C26943  13.110   3.060   6.493  0.7111 -0.0689  0.3285
  941MOL0     C26944  13.172   3.091   6.636  0.3645  0.2102 -0.5024
  941MOL0    Cl26945  13.149   2.945   6.715  0.0211  0.4439 -0.4458
  941MOL0     C26946  12.294   3.000   6.505  0.3296  0.1094 -0.7314
  941MOL0     C26947  12.217   2.903   6.562  0.2318  0.1614 -1.1412
  941MOL0     O26948  12.084   2.730   6.808 -0.1965 -0.3702 -0.1031
  941MOL0     C26949  12.031   2.460   6.580  0.3443 -0.5467  0.1796
  941MOL0     C26950  11.932   2.359   6.547  0.8383 -0.8615 -0.0653
  941MOL0     N26951  11.515   1.887   6.432  0.4408  0.3441  0.5805
  941MOL0     N26952  11.507   1.810   6.331  0.6863  0.5118  0.2595
  941MOL0     C26953  10.853   1.055   5.930 -0.1899 -0.8626  0.0469
  941MOL0     C26954  10.843   1.020   5.791  0.0153  1.3068  0.3449
  941MOL0     C26955  10.873   1.020   5.342  0.3255 -0.1338 -0.4488
  941MOL0     C26956  10.740   1.015   5.298 -0.6956  0.2598 -0.2751
  941MOL0     C26957  10.714   0.997   5.162 -0.6607  0.0917 -0.7377
  941MOL0     C26958  10.820   0.966   5.077 -0.2236  0.5421  0.0438
  941MOL0     O26959  10.782   0.940   4.946 -0.2120  0.2922  0.3436
  941MOL0     C26960  10.865   0.858   4.862  0.6349  0.1695 -0.2596
  941MOL0     C26961  10.797   0.804   4.736 -0.6280 -0.3321  0.3524
  941MOL0     C26962  10.894   0.714   4.662 -0.2330  0.6374  0.1049
  941MOL0     C26963  10.829   0.660   4.544 -0.0909  0.1597  0.3487
  941MOL0     C26964  10.912   0.615   4.433 -0.1849  0.0254 -0.3746
  941MOL0     C26965  10.998   0.592   4.355 -0.6428  0.5920 -0.3232
  941MOL0     C26966  10.954   0.974   5.113  0.7796 -0.0012 -0.2760
  941MOL0     C26967  10.975   0.996   5.249  0.1205  0.2927  0.5693
  941MOL0     H26968  10.785   1.319   5.651 -3.2343 -0.3925  0.2683
  941MOL0     H26969  10.789   1.387   5.897 -1.1793  0.7262 -4.0878
  941MOL0     H26970  10.997   1.340   6.055 -0.2267  0.6996 -0.9799
  941MOL0     H26971  10.881   1.410   6.157  1.0576 -0.3555  0.0312
  941MOL0     H26972  10.992   1.351   6.347  0.3939 -0.5346 -0.0430
  941MOL0     H26973  10.966   1.189   6.317  2.5142 -0.3646 -0.2847
  941MOL0     H26974  11.167   1.142   6.213 -0.7102 -1.0249  0.6628
  941MOL0     H26975  11.185   1.307   6.147 -3.1349  0.4350  0.0240
  941MOL0     H26976  11.254   1.388   6.377 -0.6240  0.1265 -1.3759
  941MOL0     H26977  11.197   1.242   6.455 -3.0211 -0.0570 -2.2103
  941MOL0     H26978  11.430   1.238   6.456  2.1578 -1.9633 -0.4601
  941MOL0     H26979  11.415   1.135   6.311 -0.7966  0.1851 -0.6833
  941MOL0     H26980  11.587   1.299   6.323 -0.4507  0.6239  1.0621
  941MOL0     H26981  11.499   1.322   6.176  1.6376  2.4557 -0.6443
  941MOL0     H26982  11.380   1.520   6.299 -1.7888  0.4256  4.0243
  941MOL0     H26983  11.472   1.495   6.442 -0.9612  0.9038 -0.7300
  941MOL0     H26984  11.590   1.583   6.178 -0.9885 -0.7964 -0.1861
  941MOL0     H26985  11.669   1.507   6.328  0.8137  2.8042  1.5320
  941MOL0     H26986  11.722   1.643   6.525  1.3949 -0.4086  0.4591
  941MOL0     H26987  11.588   1.993   6.666  1.4202  1.8229 -3.1257
  941MOL0     H26988  11.639   1.837   6.729 -0.9911 -1.8636 -2.3272
  941MOL0     H26989  11.866   1.855   6.643 -0.0545 -0.1279  0.2100
  941MOL0     H26990  11.821   2.011   6.718 -1.2682  1.0543 -0.5617
  941MOL0     H26991  11.846   1.954   6.424 -2.2283 -2.0920  1.9058
  941MOL0     H26992  11.948   2.060   6.531  0.5756 -1.3492 -1.3970
  941MOL0     H26993  11.661   2.104   6.444  2.3560 -1.8611 -2.1812
  941MOL0     H26994  11.775   2.207   6.396 -0.6704 -0.1503 -0.7837
  941MOL0     H26995  11.722   2.380   6.811  0.2778 -2.2254  1.2643
  941MOL0     H26996  11.773   2.545   6.949 -2.0842  0.6205 -1.9413
  941MOL0     H26997  11.947   2.571   6.971 -1.9639 -1.5815  1.2451
  941MOL0     H26998  11.855   2.695   6.885 -1.8830  0.1749  2.2819
  941MOL0     H26999  12.437   2.653   6.548 -2.9528 -0.9487  0.4312
  941MOL0     H27000  12.577   2.825   6.456  0.3363 -1.4017  2.8972
  941MOL0     H27001  12.474   3.283   6.387  1.0273 -1.3187 -2.6575
  941MOL0     H27002  12.457   3.206   6.559 -2.7454 -3.0665 -1.8256
  941MOL0     H27003  12.689   3.305   6.550  4.0494 -1.6303  0.5999
  941MOL0     H27004  12.706   3.134   6.526 -1.1093 -0.5112 -0.6278
  941MOL0     H27005  12.732   3.373   6.341  0.9697  1.1211  1.7648
  941MOL0     H27006  12.654   3.244   6.270 -1.6118  4.4736  0.2400
  941MOL0     H27007  12.850   3.098   6.338  0.6559 -0.2760 -0.4923
  941MOL0     H27008  12.885   3.221   6.215  2.8261  0.5733  0.1892
  941MOL0     H27009  12.926   3.275   6.516 -2.3617  0.5410 -0.9557
  941MOL0     H27010  12.991   3.374   6.380  2.1073  0.1464 -1.1867
  941MOL0     H27011  13.112   3.159   6.302 -0.9990 -1.0577 -0.7547
  941MOL0     H27012  13.182   3.259   6.419  0.4484 -0.4665 -0.1267
  941MOL0     H27013  13.180   2.995   6.441  0.0954 -2.6307  2.4562
  941MOL0     H27014  13.017   3.001   6.500  2.0158 -2.2278  0.3577
  941MOL0     H27015  13.109   3.167   6.682 -1.3062  1.1402 -3.9762
  941MOL0     H27016  13.276   3.124   6.633  0.3013  0.4474 -0.1825
  941MOL0     H27017  12.256   3.100   6.486  1.5044  1.6103  3.5997
  941MOL0     H27018  12.115   2.922   6.596  0.9113 -0.4943  1.5142
  941MOL0     H27019  12.110   2.482   6.509  1.1798  1.1455  1.5531
  941MOL0     H27020  11.947   2.319   6.447  4.5334  2.1459 -0.9358
  941MOL0     H27021  10.846   0.974   6.002 -2.3766 -1.2451 -0.5054
  941MOL0     H27022  10.843   0.919   5.751  0.6035  0.9736  1.1487
  941MOL0     H27023  10.650   1.014   5.359 -1.1738 -2.0940 -0.9043
  941MOL0     H27024  10.612   0.991   5.123 -0.5758  0.3851 -1.0102
  941MOL0     H27025  10.955   0.909   4.825  2.5722 -2.7236  0.1312
  941MOL0     H27026  10.904   0.775   4.922  1.2277  0.9187  0.4078
  941MOL0     H27027  10.755   0.885   4.675 -1.0781 -0.4137  0.5516
  941MOL0     H27028  10.712   0.748   4.775 -1.0577  1.1843  1.7298
  941MOL0     H27029  10.931   0.641   4.734  2.4435  0.7610 -1.0431
  941MOL0     H27030  10.990   0.760   4.637 -0.8148  1.6663 -0.3060
  941MOL0     H27031  10.767   0.745   4.513  0.8188  0.6895 -0.0585
  941MOL0     H27032  10.761   0.581   4.578  2.2493 -0.0930  5.1702
  941MOL0     H27033  11.064   0.594   4.270  1.9406 -0.0105  1.5180
  941MOL0     H27034  11.041   0.958   5.049  0.1491  0.6972 -1.3358
  941MOL0     H27035  11.081   1.007   5.270 -0.2737  2.5320  1.6060
  942MOL0     O27036   3.152   2.391   6.643 -0.1885 -0.2490 -0.4267
  942MOL0     C27037   3.260   2.408   6.586 -0.7419 -0.2692 -0.5441
  942MOL0     O27038   3.328   2.305   6.532 -0.4679  0.9882  0.2968
  942MOL0     C27039   3.314   2.179   6.591 -0.2333 -1.0139 -0.0271
  942MOL0     C27040   3.189   2.111   6.591  0.2763  0.1853 -0.3663
  942MOL0     C27041   3.184   1.975   6.638 -0.3998 -0.1089  0.2263
  942MOL0     C27042   3.312   1.912   6.690  0.2290 -0.6657 -0.5735
  942MOL0     O27043   3.315   1.776   6.732 -0.2729  0.3423  0.3258
  942MOL0     C27044   3.203   1.691   6.694 -0.5273 -0.4033  0.7325
  942MOL0     C27045   3.217   1.551   6.732 -0.3315 -0.7108 -0.4176
  942MOL0     C27046   3.088   1.476   6.686 -1.1737  0.1608 -1.4879
  942MOL0     C27047   3.048   1.503   6.535 -0.3193 -0.7890 -0.0294
  942MOL0     C27048   2.951   1.405   6.471  0.1486  1.0012  0.2703
  942MOL0     C27049   3.010   1.282   6.402 -0.0187 -0.2459 -0.6116
  942MOL0     C27050   3.110   1.321   6.293 -0.5953  0.3872  0.7557
  942MOL0     C27051   3.103   1.236   6.167  0.6806 -0.0205  1.7496
  942MOL0     N27052   3.004   1.292   6.073 -0.4420  0.1517 -0.2320
  942MOL0     C27053   3.011   1.411   6.001  0.2849 -0.7065  0.0805
  942MOL0     C27054   2.885   1.431   5.958 -0.4551  0.1439  0.7423
  942MOL0     C27055   2.877   1.545   5.858  0.3928  0.2273  0.1165
  942MOL0     C27056   2.863   1.681   5.921  0.0960  0.7614 -0.9053
  942MOL0     C27057   2.764   1.685   6.041 -0.6225  0.6212 -0.2899
  942MOL0     C27058   2.720   1.821   6.079 -0.0003  0.0265  0.4362
  942MOL0     O27059   2.611   1.834   6.167 -0.3113  0.8621 -1.1826
  942MOL0     C27060   2.642   1.851   6.301 -0.7269 -0.9481 -0.3329
  942MOL0     C27061   2.542   1.895   6.375 -1.1615 -1.1355 -0.2061
  942MOL0     C27062   2.557   1.934   6.510 -0.1511 -0.3380 -0.2610
  942MOL0     C27063   2.433   1.984   6.577  0.4916  0.5175 -0.4471
  942MOL0     C27064   2.681   1.915   6.576  0.7158 -0.1831 -0.0153
  942MOL0     C27065   2.713   1.940   6.719 -0.2685 -0.0462 -0.4756
  942MOL0     O27066   2.628   2.011   6.802 -0.1965 -0.1675 -0.4629
  942MOL0     C27067   2.670   2.051   6.930 -0.4176 -0.3021  0.2926
  942MOL0     C27068   2.646   1.969   7.036  0.0479  0.0373  0.7029
  942MOL0     C27069   2.681   1.999   7.164 -0.7768 -0.7296 -0.0932
  942MOL0     C27070   2.770   2.106   7.185  0.3410 -0.4742 -0.7242
  942MOL0     O27071   2.793   2.136   7.320  0.1137 -0.6260 -0.4616
  942MOL0     C27072   2.928   2.135   7.367  0.6228 -0.4241  1.1879
  942MOL0     C27073   2.950   2.266   7.438  0.7430  0.2397 -1.1243
  942MOL0     C27074   2.840   2.320   7.536  0.3541  0.7132 -0.2971
  942MOL0     C27075   2.887   2.436   7.625 -0.6321 -0.0216  0.1174
  942MOL0     C27076   2.783   2.539   7.670  0.2842  0.3114 -0.1290
  942MOL0     C27077   2.698   2.499   7.797 -0.6520 -0.3692  0.6347
  942MOL0     C27078   2.779   2.509   7.923 -0.3386  0.7163  1.3967
  942MOL0     C27079   2.696   2.563   8.042  0.5241  0.3693 -0.4990
  942MOL0    Cl27080   2.637   2.734   8.015 -0.0995 -0.2294  0.1418
  942MOL0     C27081   2.795   2.197   7.087  0.3226  0.2242  0.3911
  942MOL0     C27082   2.760   2.170   6.954 -0.6373 -0.6876  1.0892
  942MOL0     O27083   2.821   1.907   6.756 -0.3627 -0.3077  0.2924
  942MOL0     C27084   2.781   1.852   6.489 -0.7413 -0.1501 -0.2498
  942MOL0     C27085   2.766   1.843   6.355  0.5483  0.8698  0.4212
  942MOL0     N27086   2.808   1.334   6.020 -0.1464  0.2282  0.0975
  942MOL0     N27087   2.876   1.243   6.080 -0.0248  0.3567 -0.0497
  942MOL0     C27088   3.427   1.989   6.696 -0.3656  0.1868 -0.1093
  942MOL0     C27089   3.430   2.118   6.635 -0.3532  0.0017  0.0832
  942MOL0     C27090   3.305   2.546   6.552  0.1182  0.3208 -0.9607
  942MOL0     C27091   3.439   2.561   6.514  0.3048 -0.0120 -0.3238
  942MOL0     C27092   3.485   2.691   6.473 -0.2141  0.4452 -0.3849
  942MOL0     C27093   3.397   2.804   6.480 -0.0774  0.0129 -0.4457
  942MOL0     O27094   3.433   2.935   6.442  0.0926 -0.2652  0.7913
  942MOL0     C27095   3.567   2.957   6.387 -0.6777  0.1881 -0.9255
  942MOL0     C27096   3.562   3.085   6.319 -0.1720  0.1823  0.1598
  942MOL0     C27097   3.676   3.109   6.227 -0.2735 -0.4430 -0.1606
  942MOL0     C27098   3.817   3.122   6.292  0.1531 -0.0467  0.4848
  942MOL0     C27099   3.923   3.211   6.232 -0.1287  0.2365 -0.7633
  942MOL0     C27100   3.996   3.297   6.178 -0.4932  1.0713  0.0137
  942MOL0     C27101   3.271   2.781   6.521  0.1081 -0.0672  0.3421
  942MOL0     C27102   3.225   2.655   6.559  0.7336 -0.5229 -0.6620
  942MOL0     H27103   3.088   2.148   6.573  0.2233  1.6596  2.4572
  942MOL0     H27104   3.084   1.935   6.650 -1.2340  1.9564  0.4881
  942MOL0     H27105   3.110   1.713   6.746 -1.0160 -1.2901  0.2560
  942MOL0     H27106   3.191   1.694   6.585  1.1663  0.0371  0.5228
  942MOL0     H27107   3.297   1.493   6.685 -1.2501 -1.0959 -1.5558
  942MOL0     H27108   3.229   1.549   6.841 -2.4356 -1.5475 -0.1620
  942MOL0     H27109   3.101   1.369   6.705  2.8045  0.1432 -3.4112
  942MOL0     H27110   3.013   1.507   6.759  0.9832 -1.4438  1.6475
  942MOL0     H27111   3.014   1.607   6.536  0.9956 -0.2002  4.3513
  942MOL0     H27112   3.149   1.505   6.493  0.5196  0.0499  1.8895
  942MOL0     H27113   2.871   1.383   6.542 -0.8119  0.7853 -0.8405
  942MOL0     H27114   2.900   1.451   6.385  3.1928 -1.7943 -3.3904
  942MOL0     H27115   3.054   1.207   6.468 -1.4633 -1.0801 -0.5440
  942MOL0     H27116   2.921   1.224   6.376 -0.5986 -1.3333  3.2459
  942MOL0     H27117   3.103   1.424   6.257  0.2759  0.1572 -0.1407
  942MOL0     H27118   3.204   1.302   6.347 -1.7440 -2.9404  1.8150
  942MOL0     H27119   3.085   1.129   6.181 -0.9126 -0.3404 -1.6707
  942MOL0     H27120   3.196   1.235   6.109 -0.1854 -0.9543  0.2938
  942MOL0     H27121   3.099   1.469   5.975  1.2798 -0.6490  3.1745
  942MOL0     H27122   2.954   1.528   5.783 -0.4268  1.3490 -1.0382
  942MOL0     H27123   2.784   1.518   5.806  0.2286  2.4741 -0.8974
  942MOL0     H27124   2.838   1.758   5.847  1.3699 -0.1737 -2.3698
  942MOL0     H27125   2.957   1.694   5.975 -0.3743 -1.9973  0.7695
  942MOL0     H27126   2.813   1.637   6.127 -1.8369  2.0166  1.2281
  942MOL0     H27127   2.678   1.625   6.010 -0.0865  0.0461 -0.7032
  942MOL0     H27128   2.691   1.867   5.984  0.3999 -0.6204 -0.0077
  942MOL0     H27129   2.815   1.869   6.102  0.5869 -0.6300 -0.5509
  942MOL0     H27130   2.443   1.911   6.333 -2.0348 -1.6039  1.5905
  942MOL0     H27131   2.411   1.924   6.666  0.0960  0.3103 -0.6799
  942MOL0     H27132   2.458   2.085   6.608  5.2692 -1.0885  1.8729
  942MOL0     H27133   2.356   1.992   6.499  0.9513  3.5623 -0.6842
  942MOL0     H27134   2.584   1.882   7.012 -0.0734 -0.7826  3.6612
  942MOL0     H27135   2.633   1.939   7.241  1.4301 -1.8571  0.4944
  942MOL0     H27136   2.951   2.046   7.426  2.8669  2.1547  4.5962
  942MOL0     H27137   2.992   2.138   7.279 -1.8587 -1.2523 -0.7453
  942MOL0     H27138   3.040   2.253   7.499 -0.1275  0.5425  0.2774
  942MOL0     H27139   2.968   2.341   7.361  1.4290  0.1106 -1.1014
  942MOL0     H27140   2.793   2.247   7.601 -0.3703 -0.0139 -1.5978
  942MOL0     H27141   2.765   2.360   7.468  1.7540  0.1561 -2.2741
  942MOL0     H27142   2.954   2.407   7.706 -1.9031 -0.0085  1.2048
  942MOL0     H27143   2.951   2.501   7.564 -3.0523  2.3407 -0.0883
  942MOL0     H27144   2.705   2.552   7.595 -0.6129  2.4185  1.0595
  942MOL0     H27145   2.836   2.632   7.695  0.4054 -0.3610  2.3210
  942MOL0     H27146   2.616   2.571   7.801 -0.8291 -0.4789 -0.7171
  942MOL0     H27147   2.650   2.402   7.778 -0.6941 -0.3187  0.4824
  942MOL0     H27148   2.855   2.586   7.913 -2.1909  2.6573  1.5555
  942MOL0     H27149   2.831   2.414   7.941  0.7553  1.3032  1.3819
  942MOL0     H27150   2.771   2.558   8.122 -0.1651 -2.1515  0.0793
  942MOL0     H27151   2.613   2.497   8.068  0.5531  1.0180  1.3392
  942MOL0     H27152   2.854   2.284   7.112  2.3289 -1.6992  2.8915
  942MOL0     H27153   2.795   2.228   6.870  2.6189 -4.0987 -0.2153
  942MOL0     H27154   2.878   1.821   6.525 -0.8917  0.6144  0.8690
  942MOL0     H27155   2.853   1.806   6.302 -1.6008 -3.1167 -0.7500
  942MOL0     H27156   3.511   1.943   6.747  0.0196  2.0575  1.0263
  942MOL0     H27157   3.512   2.190   6.635 -1.3949  1.2443 -0.6113
  942MOL0     H27158   3.509   2.481   6.492  2.1844  1.8945 -1.7100
  942MOL0     H27159   3.585   2.696   6.431 -1.0625 -2.8925 -3.2486
  942MOL0     H27160   3.648   2.940   6.457 -1.4588 -4.1756 -0.7557
  942MOL0     H27161   3.581   2.888   6.303  3.3898 -0.6277  0.2378
  942MOL0     H27162   3.554   3.173   6.384  2.6573  0.5039  0.2377
  942MOL0     H27163   3.478   3.089   6.249  1.3579  1.4246 -1.7366
  942MOL0     H27164   3.673   3.208   6.182 -0.4913 -0.0136  0.7641
  942MOL0     H27165   3.686   3.033   6.150  1.7362 -0.1430 -0.2509
  942MOL0     H27166   3.861   3.023   6.303 -0.4798 -0.2640  1.1249
  942MOL0     H27167   3.796   3.159   6.393 -0.5062  1.0304 -0.0200
  942MOL0     H27168   4.069   3.365   6.138  1.7464 -0.0729  1.8482
  942MOL0     H27169   3.204   2.862   6.545  2.3620  1.6672  1.0773
  942MOL0     H27170   3.124   2.652   6.599  1.8358 -3.3229  2.3412
  943MOL0     O27171   3.988   8.001   5.154 -1.3843 -0.4720  0.0473
  943MOL0     C27172   4.100   7.935   5.146 -0.1066  0.3010  0.5151
  943MOL0     O27173   4.221   7.990   5.115  0.4673  0.0896  0.7514
  943MOL0     C27174   4.213   8.109   5.054 -0.0986  0.2931  0.9942
  943MOL0     C27175   4.291   8.219   5.100 -0.4518  0.2653  0.8074
  943MOL0     C27176   4.301   8.340   5.024  0.0202 -0.5422 -0.5697
  943MOL0     C27177   4.220   8.357   4.904  0.1211 -0.0148 -0.4038
  943MOL0     O27178   4.211   8.464   4.819 -0.7553 -0.4221  0.2641
  943MOL0     C27179   4.278   8.587   4.851 -0.5167 -0.4226 -0.5022
  943MOL0     C27180   4.263   8.674   4.724 -0.2425  0.2613 -0.4445
  943MOL0     C27181   4.358   8.609   4.619 -0.5552 -0.3205 -0.6456
  943MOL0     C27182   4.404   8.708   4.507  0.5217  0.0759 -0.4738
  943MOL0     C27183   4.301   8.772   4.421  0.4100  0.3299 -0.0147
  943MOL0     C27184   4.361   8.799   4.284  0.3582  0.0599  0.0138
  943MOL0     C27185   4.456   8.918   4.279 -0.0117 -0.5427 -0.3955
  943MOL0     C27186   4.489   8.976   4.135  0.0760  0.7604  0.4524
  943MOL0     N27187   4.611   9.067   4.146  0.3743 -0.8631  0.2134
  943MOL0     C27188   4.727   9.026   4.217  0.7724  0.4689 -0.7639
  943MOL0     C27189   4.804   9.139   4.215 -0.5175  0.3712  0.0543
  943MOL0     C27190   4.944   9.157   4.257  0.4210  0.8790 -0.5267
  943MOL0     C27191   4.978   9.234   4.385 -1.2564 -0.5394 -0.0129
  943MOL0     C27192   5.116   9.207   4.439  0.1235  0.0598 -0.6013
  943MOL0     C27193   5.142   9.277   4.581 -0.5582  0.6184 -0.5550
  943MOL0     O27194   5.282   9.282   4.602  0.0825  0.0758  0.2205
  943MOL0     C27195   5.329   9.183   4.693 -0.2082 -0.6650  0.2549
  943MOL0     C27196   5.435   9.106   4.640  0.1665  0.4978 -0.9278
  943MOL0     C27197   5.492   9.010   4.734  0.3508 -0.0827  0.8423
  943MOL0     C27198   5.591   8.915   4.665 -0.2047  1.0149 -0.0314
  943MOL0     C27199   5.448   9.012   4.874 -0.8075  0.7668  0.3430
  943MOL0     C27200   5.517   8.925   4.979  0.3794  0.3030 -0.1682
  943MOL0     O27201   5.651   8.900   4.961 -0.2805 -0.2525  0.0393
  943MOL0     C27202   5.710   8.830   5.055  0.5115  0.1435  0.5571
  943MOL0     C27203   5.746   8.885   5.174  1.0328 -0.2496 -0.3389
  943MOL0     C27204   5.818   8.814   5.270  0.2281 -0.3532 -0.4539
  943MOL0     C27205   5.860   8.685   5.249 -0.4870  0.9709  0.8242
  943MOL0     O27206   5.949   8.624   5.329 -0.4375 -0.0976  0.7263
  943MOL0     C27207   5.920   8.633   5.462  0.5877  0.4735 -0.0312
  943MOL0     C27208   5.993   8.520   5.529  0.6530 -0.8162  0.1348
  943MOL0     C27209   5.945   8.515   5.678 -0.1662 -0.3336  0.5794
  943MOL0     C27210   6.039   8.417   5.765 -0.3720  0.2857 -0.8134
  943MOL0     C27211   5.958   8.347   5.889 -1.0294  0.1232  0.6661
  943MOL0     C27212   6.065   8.262   5.973 -0.3451 -0.2127 -0.2035
  943MOL0     C27213   6.002   8.184   6.103  0.6454  0.3448  0.7056
  943MOL0     C27214   5.858   8.188   6.143 -0.4001 -0.5368 -0.2651
  943MOL0    Cl27215   5.757   8.069   6.055 -0.2641  0.0162  0.0452
  943MOL0     C27216   5.822   8.630   5.130 -0.0175 -0.7318  0.3834
  943MOL0     C27217   5.753   8.699   5.027  0.5780 -0.2129 -0.0720
  943MOL0     O27218   5.442   8.885   5.070 -1.0216  0.5179 -0.2925
  943MOL0     C27219   5.345   9.085   4.915  0.4268 -0.0947  0.3184
  943MOL0     C27220   5.289   9.176   4.825 -0.3290 -1.4018  0.4008
  943MOL0     N27221   4.734   9.239   4.155 -0.6804 -0.3319  0.5161
  943MOL0     N27222   4.623   9.198   4.112 -0.0755  0.1292 -0.1495
  943MOL0     C27223   4.144   8.245   4.862  0.8014  0.3192  0.3443
  943MOL0     C27224   4.140   8.127   4.936 -0.3737  0.4862 -1.3598
  943MOL0     C27225   4.097   7.795   5.193  0.0539 -0.1311 -1.1876
  943MOL0     C27226   4.201   7.708   5.174  0.2553 -0.3207  0.3735
  943MOL0     C27227   4.203   7.581   5.224 -0.0073  0.8011  0.8489
  943MOL0     C27228   4.094   7.542   5.308  1.2158 -0.5625 -0.0104
  943MOL0     O27229   4.102   7.414   5.355 -0.0077  0.5221  0.0647
  943MOL0     C27230   4.013   7.368   5.450 -0.1441 -0.5425 -0.7473
  943MOL0     C27231   4.038   7.224   5.512  0.3123 -0.5720 -0.0435
  943MOL0     C27232   3.908   7.194   5.587 -0.3053 -0.0937 -0.1082
  943MOL0     C27233   3.922   7.094   5.700 -0.2175 -0.2912  0.0096
  943MOL0     C27234   3.944   6.958   5.654 -0.5605 -0.1286  0.2366
  943MOL0     C27235   3.969   6.846   5.606 -0.0709 -0.4840  0.3311
  943MOL0     C27236   3.988   7.631   5.333  0.1196  0.1105  0.7015
  943MOL0     C27237   3.984   7.749   5.265  0.5604 -0.7389 -0.5271
  943MOL0     H27238   4.360   8.202   5.182 -0.8569  2.7204  1.7246
  943MOL0     H27239   4.380   8.411   5.046 -0.1512 -0.8719  1.3666
  943MOL0     H27240   4.225   8.640   4.931  0.9206  2.7206 -1.4582
  943MOL0     H27241   4.383   8.584   4.882 -1.0039  2.7465  2.0770
  943MOL0     H27242   4.161   8.689   4.690  0.0643 -0.0217 -1.5181
  943MOL0     H27243   4.296   8.774   4.756 -0.9892  0.1836  0.6270
  943MOL0     H27244   4.450   8.569   4.662  0.4669  0.8246 -1.6904
  943MOL0     H27245   4.306   8.529   4.566  0.6318 -0.6807 -1.2917
  943MOL0     H27246   4.458   8.793   4.550 -0.6714 -0.2280  1.7813
  943MOL0     H27247   4.473   8.654   4.441  1.0500  0.7860 -0.5172
  943MOL0     H27248   4.215   8.706   4.413  0.1644  0.5458  0.7640
  943MOL0     H27249   4.269   8.871   4.457 -0.4679  0.4911 -1.1697
  943MOL0     H27250   4.415   8.709   4.252  1.2959 -0.1230  1.9791
  943MOL0     H27251   4.281   8.832   4.217 -0.0596  2.6677  1.6374
  943MOL0     H27252   4.421   9.000   4.343 -0.5036 -0.5384 -0.6652
  943MOL0     H27253   4.546   8.875   4.324  2.3589  3.0758 -1.1538
  943MOL0     H27254   4.410   9.027   4.079 -0.4559 -1.8204 -1.3313
  943MOL0     H27255   4.511   8.888   4.074  3.0666  0.5007  1.7408
  943MOL0     H27256   4.749   8.932   4.265  0.0546  0.1439 -1.0650
  943MOL0     H27257   4.993   9.058   4.257  0.3030  0.7442  1.9788
  943MOL0     H27258   4.989   9.206   4.171 -0.5536  0.7874 -1.0998
  943MOL0     H27259   4.905   9.206   4.462  0.1933 -0.5276  1.4271
  943MOL0     H27260   4.983   9.341   4.363 -0.1055  0.4235  4.0185
  943MOL0     H27261   5.179   9.243   4.358  0.2730 -0.8965 -0.9238
  943MOL0     H27262   5.137   9.101   4.452  1.0991  0.6211  4.5179
  943MOL0     H27263   5.083   9.220   4.654  1.4686  2.3881  2.6852
  943MOL0     H27264   5.099   9.377   4.578  0.4918  1.0605 -1.6987
  943MOL0     H27265   5.459   9.119   4.535 -0.0648 -0.3122 -1.0940
  943MOL0     H27266   5.595   8.814   4.705 -0.2007  1.5325  1.3054
  943MOL0     H27267   5.564   8.893   4.561  2.3509  4.0786 -1.5225
  943MOL0     H27268   5.693   8.946   4.692 -0.0509 -0.2617  0.9551
  943MOL0     H27269   5.717   8.979   5.220 -1.3278 -1.9091  1.8768
  943MOL0     H27270   5.834   8.859   5.367 -4.0145 -0.0329  0.2944
  943MOL0     H27271   5.953   8.728   5.503 -0.9026  1.0653 -0.1545
  943MOL0     H27272   5.817   8.629   5.498  0.7946  5.3821  1.7635
  943MOL0     H27273   5.965   8.428   5.477  1.1505 -0.6691 -0.4024
  943MOL0     H27274   6.095   8.560   5.527  1.4348 -2.7044 -1.3237
  943MOL0     H27275   5.838   8.492   5.681 -0.4054  0.6896  0.5344
  943MOL0     H27276   5.950   8.617   5.718 -1.8220 -0.8727  2.2876
  943MOL0     H27277   6.088   8.354   5.690 -2.0460 -0.6951 -1.1282
  943MOL0     H27278   6.115   8.479   5.814 -0.0518 -2.2690  2.2567
  943MOL0     H27279   5.888   8.283   5.835  0.7413  1.5084 -3.6503
  943MOL0     H27280   5.893   8.423   5.933 -0.5987  0.5639  0.5462
  943MOL0     H27281   6.098   8.178   5.912 -4.7575 -1.0937 -1.7094
  943MOL0     H27282   6.154   8.319   6.001  1.6771 -2.3049 -2.0080
  943MOL0     H27283   6.062   8.240   6.174 -1.7307  2.9655  0.8442
  943MOL0     H27284   6.018   8.076   6.093  1.2867  0.6515 -2.7248
  943MOL0     H27285   5.818   8.290   6.147  1.5236  0.2919 -0.7984
  943MOL0     H27286   5.852   8.138   6.239 -1.0749 -1.5462 -0.8132
  943MOL0     H27287   5.853   8.529   5.106  2.2647  0.3823 -1.7934
  943MOL0     H27288   5.743   8.647   4.933  2.0243  1.5096 -1.2472
  943MOL0     H27289   5.294   9.081   5.011 -0.0110 -1.9897  0.0297
  943MOL0     H27290   5.235   9.263   4.862  4.3597  1.9969  0.1131
  943MOL0     H27291   4.096   8.250   4.765  1.6990  1.2050 -0.0695
  943MOL0     H27292   4.090   8.043   4.890 -1.9828  0.2986  0.5583
  943MOL0     H27293   4.280   7.750   5.112  1.2202  3.4794  3.8043
  943MOL0     H27294   4.283   7.515   5.194  1.7149  2.1440  2.2997
  943MOL0     H27295   4.012   7.453   5.518  1.5996  0.0877 -1.4517
  943MOL0     H27296   3.918   7.362   5.395  1.1298 -2.2638 -2.9329
  943MOL0     H27297   4.125   7.220   5.579 -1.4466 -2.1324  2.3331
  943MOL0     H27298   4.048   7.151   5.432 -0.7497  0.1387 -0.8714
  943MOL0     H27299   3.830   7.163   5.517 -1.4553 -1.0433  1.5196
  943MOL0     H27300   3.869   7.286   5.632 -4.0745 -1.0049 -1.1570
  943MOL0     H27301   3.827   7.094   5.756 -0.2074 -0.0130  0.0294
  943MOL0     H27302   3.995   7.132   5.773 -3.4688  2.2423  2.2729
  943MOL0     H27303   3.974   6.743   5.576 -1.1094 -0.3622 -0.3321
  943MOL0     H27304   3.903   7.594   5.389  0.3348 -2.0675 -0.3000
  943MOL0     H27305   3.897   7.813   5.274  0.7007 -0.6266  0.0671
  944MOL0     O27306   9.993   2.602   6.754  0.2394  1.0680  0.2511
  944MOL0     C27307   9.894   2.547   6.713  0.9728 -0.3011 -0.4448
  944MOL0     O27308   9.871   2.519   6.584  0.2173  0.0533  0.1628
  944MOL0     C27309   9.967   2.545   6.493 -0.2514 -0.3817  0.1878
  944MOL0     C27310  10.109   2.539   6.496 -0.7286 -0.4387  1.2807
  944MOL0     C27311  10.187   2.550   6.385 -0.2761  1.8575  0.1071
  944MOL0     C27312  10.135   2.550   6.253  0.0965  0.2120  0.1967
  944MOL0     O27313  10.226   2.554   6.151 -0.4923 -0.4409 -0.2312
  944MOL0     C27314  10.186   2.616   6.038  0.0033  0.3451 -0.3617
  944MOL0     C27315  10.292   2.600   5.936 -0.4692  0.3653 -0.5640
  944MOL0     C27316  10.272   2.469   5.851 -0.6791 -0.1981 -0.6413
  944MOL0     C27317  10.395   2.461   5.744  0.2936 -0.1650 -0.4295
  944MOL0     C27318  10.400   2.317   5.703  0.7014  0.3818  0.5541
  944MOL0     C27319  10.492   2.288   5.579  0.9506 -0.6072 -0.1394
  944MOL0     C27320  10.428   2.333   5.438  0.4261 -0.2252 -0.0365
  944MOL0     C27321  10.549   2.365   5.349 -0.0518  0.8460  0.3061
  944MOL0     N27322  10.513   2.403   5.210 -0.1295 -0.1145 -0.6874
  944MOL0     C27323  10.403   2.464   5.167  0.2639 -1.1467 -0.5912
  944MOL0     C27324  10.399   2.468   5.025  0.0600  0.3485  0.1652
  944MOL0     C27325  10.292   2.548   4.944 -0.3950 -0.0014 -0.2446
  944MOL0     C27326  10.210   2.452   4.855  1.1648 -0.9534  0.0724
  944MOL0     C27327  10.197   2.521   4.715 -0.3267  0.8230  0.6370
  944MOL0     C27328  10.110   2.445   4.623  0.4933  1.2628 -0.7897
  944MOL0     O27329  10.073   2.524   4.506 -0.0309 -0.3372  0.5208
  944MOL0     C27330   9.949   2.574   4.495  0.4103 -0.0072 -0.3189
  944MOL0     C27331   9.939   2.707   4.456  0.8676 -0.1497 -0.1840
  944MOL0     C27332   9.819   2.777   4.438  0.9609 -0.3394 -0.6108
  944MOL0     C27333   9.834   2.915   4.378 -0.0945 -0.4016 -0.0943
  944MOL0     C27334   9.696   2.711   4.486 -0.1543 -0.8130 -0.7411
  944MOL0     C27335   9.552   2.776   4.491 -0.1235  0.4341 -0.4824
  944MOL0     O27336   9.448   2.685   4.477  0.2745 -1.1102  0.4100
  944MOL0     C27337   9.323   2.742   4.478 -1.4089 -0.6732  0.6675
  944MOL0     C27338   9.217   2.715   4.566 -1.0908 -0.8414  0.5806
  944MOL0     C27339   9.085   2.747   4.533 -0.2080 -0.4772 -0.0413
  944MOL0     C27340   9.051   2.818   4.411 -0.6571  0.0481 -0.4627
  944MOL0     O27341   8.921   2.855   4.370 -0.0325  0.5978  0.3349
  944MOL0     C27342   8.826   2.745   4.375 -0.7434  0.7984  0.0187
  944MOL0     C27343   8.694   2.774   4.307 -0.6255  0.1804 -0.0587
  944MOL0     C27344   8.708   2.818   4.158  0.3049  1.1435  0.2881
  944MOL0     C27345   8.786   2.707   4.077 -0.5244  0.2875 -0.2946
  944MOL0     C27346   8.808   2.746   3.934 -0.1678 -0.3939  1.6093
  944MOL0     C27347   8.883   2.648   3.849 -0.8592  0.5223 -0.8169
  944MOL0     C27348   8.855   2.669   3.702  0.3499 -0.3554  0.0288
  944MOL0     C27349   8.927   2.556   3.621 -0.0786  0.0286 -0.6819
  944MOL0    Cl27350   9.103   2.579   3.648  0.3656 -0.3548  0.3960
  944MOL0     C27351   9.156   2.855   4.332 -0.1892 -0.0973  0.3035
  944MOL0     C27352   9.287   2.828   4.367 -0.2365  0.3840  0.2261
  944MOL0     O27353   9.532   2.895   4.503  0.7545 -0.4177 -0.2061
  944MOL0     C27354   9.703   2.581   4.533  0.3676 -0.4369 -1.2575
  944MOL0     C27355   9.822   2.507   4.522  1.3760 -0.3431 -0.2014
  944MOL0     N27356  10.512   2.401   4.987 -0.6071 -0.5823  0.7674
  944MOL0     N27357  10.583   2.378   5.096 -0.6464 -0.4601 -0.2578
  944MOL0     C27358   9.996   2.563   6.240  0.2469  0.2220 -0.5292
  944MOL0     C27359   9.920   2.563   6.357  0.1488 -0.0907  1.1479
  944MOL0     C27360   9.805   2.509   6.825  0.2692  0.2288 -1.1153
  944MOL0     C27361   9.669   2.494   6.798  0.5902 -0.0554  0.3176
  944MOL0     C27362   9.572   2.466   6.895  0.3114  0.2211 -0.5055
  944MOL0     C27363   9.615   2.455   7.031  0.9071 -0.2643 -0.0885
  944MOL0     O27364   9.519   2.432   7.127  0.0171 -0.3896 -0.4245
  944MOL0     C27365   9.529   2.467   7.270 -0.0210 -0.1191  0.0725
  944MOL0     C27366   9.425   2.567   7.301  0.3429 -0.0269 -0.4889
  944MOL0     C27367   9.278   2.517   7.292  0.5495  1.2228 -0.1285
  944MOL0     C27368   9.263   2.377   7.355 -0.0347  0.2471  0.3225
  944MOL0     C27369   9.322   2.369   7.489 -0.0114 -0.3950  0.0667
  944MOL0     C27370   9.387   2.354   7.587 -0.8707  0.0028  0.8069
  944MOL0     C27371   9.756   2.464   7.059  1.0826 -0.7419 -0.8974
  944MOL0     C27372   9.846   2.485   6.957  0.2751  0.4481 -0.3754
  944MOL0     H27373  10.164   2.519   6.587  1.0531  1.8752  0.8094
  944MOL0     H27374  10.293   2.525   6.393 -0.7395 -0.4368 -0.2348
  944MOL0     H27375  10.093   2.581   5.992 -1.2001  1.7455  0.8860
  944MOL0     H27376  10.174   2.724   6.055 -1.3651  0.2224 -0.4222
  944MOL0     H27377  10.291   2.689   5.872  4.2723  0.5890 -0.6878
  944MOL0     H27378  10.390   2.583   5.982 -1.1044 -0.4488  0.5559
  944MOL0     H27379  10.281   2.379   5.912 -1.5108  0.8439  1.1238
  944MOL0     H27380  10.182   2.481   5.791 -0.8903 -1.3018 -0.5651
  944MOL0     H27381  10.359   2.524   5.662 -0.4566  1.3947  1.0255
  944MOL0     H27382  10.493   2.480   5.788  0.3835 -4.8805  1.9782
  944MOL0     H27383  10.435   2.262   5.790  1.6323  6.0498  4.3051
  944MOL0     H27384  10.298   2.284   5.678  0.1921  1.7967  0.6551
  944MOL0     H27385  10.586   2.341   5.597 -0.7961  2.5164  0.3925
  944MOL0     H27386  10.524   2.184   5.569  2.0976 -0.5640  2.3605
  944MOL0     H27387  10.374   2.249   5.394 -0.6773  0.2562  0.3541
  944MOL0     H27388  10.356   2.411   5.465 -1.2251 -2.2128  1.6003
  944MOL0     H27389  10.606   2.272   5.357  1.3882  1.6887  0.1324
  944MOL0     H27390  10.607   2.455   5.370  0.8389  0.8900 -2.0702
  944MOL0     H27391  10.328   2.502   5.235  0.4448 -1.2021 -0.3615
  944MOL0     H27392  10.230   2.609   5.010 -1.4857  0.0349 -1.2648
  944MOL0     H27393  10.339   2.622   4.879 -0.5462 -1.2360 -1.8313
  944MOL0     H27394  10.109   2.455   4.897  1.8421 -3.3469  2.1868
  944MOL0     H27395  10.249   2.350   4.854  0.6661 -1.1485 -0.0423
  944MOL0     H27396  10.293   2.521   4.662 -0.2269  2.1180  0.7699
  944MOL0     H27397  10.163   2.624   4.730 -0.5979  0.5492  1.9405
  944MOL0     H27398  10.028   2.404   4.683  2.3458  0.9558  1.6718
  944MOL0     H27399  10.166   2.356   4.595  2.3925  1.9837  0.5231
  944MOL0     H27400  10.027   2.768   4.441  1.0593  0.3974  2.5407
  944MOL0     H27401   9.894   2.980   4.442  0.6427 -0.9401 -0.2158
  944MOL0     H27402   9.898   2.911   4.289  1.5383 -1.6307  1.0493
  944MOL0     H27403   9.747   2.965   4.334 -0.6804 -1.3901 -0.0885
  944MOL0     H27404   9.216   2.649   4.653 -1.3811 -3.8318 -1.5546
  944MOL0     H27405   9.004   2.722   4.600 -0.0672 -0.0864  0.2836
  944MOL0     H27406   8.872   2.656   4.333 -1.7890 -0.4776  1.4802
  944MOL0     H27407   8.796   2.716   4.476  2.0994 -3.0854 -0.0457
  944MOL0     H27408   8.623   2.692   4.320 -2.9960  2.5607  4.2875
  944MOL0     H27409   8.638   2.858   4.349  0.6577  0.7915  0.4853
  944MOL0     H27410   8.760   2.914   4.155 -1.0661  1.9093 -2.8623
  944MOL0     H27411   8.609   2.828   4.114 -0.6303 -2.1506  1.3275
  944MOL0     H27412   8.877   2.694   4.137 -2.3763 -0.4335  2.5702
  944MOL0     H27413   8.726   2.617   4.091 -0.6816  0.6325  1.4592
  944MOL0     H27414   8.854   2.845   3.924 -0.1789 -0.3269  2.1564
  944MOL0     H27415   8.706   2.751   3.894  0.1295 -0.8140  0.7769
  944MOL0     H27416   8.988   2.665   3.870 -0.1385 -2.6491 -1.2789
  944MOL0     H27417   8.852   2.544   3.867  0.9524 -0.3499 -2.3821
  944MOL0     H27418   8.880   2.768   3.663  2.3571 -0.7151  0.2920
  944MOL0     H27419   8.747   2.657   3.684  0.0674  1.7286  0.0609
  944MOL0     H27420   8.910   2.570   3.514  0.6405 -0.8437 -0.9255
  944MOL0     H27421   8.892   2.455   3.645  1.8780 -0.2634  1.2321
  944MOL0     H27422   9.140   2.916   4.243 -1.5427 -0.2749  0.3971
  944MOL0     H27423   9.354   2.859   4.288 -2.8721  2.0659 -1.4892
  944MOL0     H27424   9.609   2.533   4.559  0.6918 -2.1111 -3.0254
  944MOL0     H27425   9.825   2.406   4.560  1.1960 -0.7264 -1.1592
  944MOL0     H27426   9.954   2.586   6.143  1.8082 -1.4126 -1.6434
  944MOL0     H27427   9.815   2.567   6.333  0.8238 -0.8784 -2.5276
  944MOL0     H27428   9.648   2.501   6.691  3.0861 -3.2967 -0.5450
  944MOL0     H27429   9.472   2.439   6.863 -0.5855 -0.3598  2.4335
  944MOL0     H27430   9.522   2.379   7.336  1.5169  0.2447  0.7658
  944MOL0     H27431   9.627   2.502   7.301 -1.2497  2.2079  1.6106
  944MOL0     H27432   9.440   2.660   7.246  0.7649  2.1001  2.9481
  944MOL0     H27433   9.448   2.595   7.404 -1.4442  1.3220 -0.4134
  944MOL0     H27434   9.253   2.518   7.185  1.6139  1.3914 -0.3888
  944MOL0     H27435   9.212   2.593   7.334  1.8690  1.3225  1.8913
  944MOL0     H27436   9.326   2.307   7.299  1.1999  1.3049  0.3594
  944MOL0     H27437   9.156   2.361   7.341 -0.2021  2.4915 -1.6749
  944MOL0     H27438   9.438   2.341   7.680 -1.0343  0.5401  0.9704
  944MOL0     H27439   9.777   2.451   7.165  1.3126  4.1631 -0.1301
  944MOL0     H27440   9.951   2.484   6.987  0.2138  0.5407 -0.1552
  945MOL0     O27441   7.580   8.216   5.631 -0.2064  0.0804  0.8390
  945MOL0     C27442   7.474   8.217   5.565 -0.2731  0.9314 -0.0617
  945MOL0     O27443   7.443   8.127   5.464 -0.4170  0.5584 -0.1411
  945MOL0     C27444   7.540   8.026   5.433 -0.1562 -0.8373  0.4460
  945MOL0     C27445   7.609   7.952   5.536  0.4859  0.1297 -0.0334
  945MOL0     C27446   7.714   7.863   5.517  0.9325 -0.1396  0.4045
  945MOL0     C27447   7.743   7.836   5.383 -0.9926  0.6156  0.6771
  945MOL0     O27448   7.831   7.731   5.351  0.0310  0.1582  0.4415
  945MOL0     C27449   7.787   7.605   5.411 -0.1393  1.0699 -0.7036
  945MOL0     C27450   7.829   7.474   5.336  0.9743  0.3814  0.0272
  945MOL0     C27451   7.842   7.358   5.438  0.8274  0.3328  0.4637
  945MOL0     C27452   7.828   7.220   5.368  0.4335 -0.0640 -0.7254
  945MOL0     C27453   7.824   7.111   5.479 -0.9890 -0.8771  0.5522
  945MOL0     C27454   7.970   7.086   5.525  0.8597  0.6483 -0.5767
  945MOL0     C27455   7.959   6.965   5.630 -0.5674  0.1578  0.3997
  945MOL0     C27456   8.086   6.873   5.632  0.5749 -0.0062 -0.8203
  945MOL0     N27457   8.130   6.822   5.506  0.1682 -0.0731  0.5860
  945MOL0     C27458   8.222   6.887   5.419 -0.6979  0.1746  0.3612
  945MOL0     C27459   8.230   6.806   5.311  0.0724 -0.4730  0.4289
  945MOL0     C27460   8.302   6.818   5.178 -0.4347 -0.8745 -0.5611
  945MOL0     C27461   8.214   6.903   5.084  1.1285 -0.1118  0.1069
  945MOL0     C27462   8.280   6.927   4.952 -0.4850 -0.3594  0.3868
  945MOL0     C27463   8.189   6.959   4.842  0.0568  0.5833  0.4799
  945MOL0     O27464   8.254   6.973   4.709  0.3732 -0.1966 -0.3214
  945MOL0     C27465   8.165   6.985   4.601 -0.2858 -0.0231  0.7695
  945MOL0     C27466   8.026   6.992   4.605 -0.3654 -0.1469 -0.5318
  945MOL0     C27467   7.947   7.003   4.491 -0.3759 -1.1445 -0.1367
  945MOL0     C27468   7.793   7.015   4.502  0.2238  0.1867 -0.0402
  945MOL0     C27469   8.011   7.012   4.362  0.7077  0.1331 -0.4282
  945MOL0     C27470   7.939   7.026   4.236 -0.5681 -0.5211 -0.2336
  945MOL0     O27471   7.867   7.139   4.202  0.8072 -0.3501  0.4339
  945MOL0     C27472   7.864   7.169   4.068 -0.6111  1.4708  0.4093
  945MOL0     C27473   7.977   7.194   3.986  0.6846 -0.2455  0.0934
  945MOL0     C27474   7.959   7.236   3.850  0.3380 -0.2991 -0.6191
  945MOL0     C27475   7.829   7.242   3.798 -0.0140  0.1632 -0.9536
  945MOL0     O27476   7.786   7.277   3.678  0.3506 -0.2584 -0.5030
  945MOL0     C27477   7.870   7.339   3.590 -0.2617 -0.4464  0.1820
  945MOL0     C27478   7.922   7.482   3.612  0.7460  0.1177 -0.4637
  945MOL0     C27479   8.054   7.513   3.541 -1.0586  0.1186  0.2389
  945MOL0     C27480   8.100   7.657   3.557  0.1334 -0.5858 -0.2278
  945MOL0     C27481   8.239   7.692   3.507 -0.1768 -0.5585 -0.7615
  945MOL0     C27482   8.345   7.645   3.597  0.5723 -0.6512  0.2042
  945MOL0     C27483   8.484   7.688   3.556 -0.3774 -0.5336  0.2471
  945MOL0     C27484   8.554   7.792   3.642  0.4264  0.4795  0.1226
  945MOL0    Cl27485   8.465   7.941   3.654 -0.2214 -0.1550  0.1193
  945MOL0     C27486   7.722   7.204   3.876  0.1566  0.6825 -0.8915
  945MOL0     C27487   7.736   7.173   4.008  0.5386 -1.2241 -0.2120
  945MOL0     O27488   7.975   6.940   4.155 -0.3463  0.1033 -0.2677
  945MOL0     C27489   8.148   7.014   4.360  0.4228  0.0897  0.0388
  945MOL0     C27490   8.226   7.003   4.476 -0.5764 -0.6542 -0.3112
  945MOL0     N27491   8.133   6.705   5.331 -0.8688 -0.6551 -0.3687
  945MOL0     N27492   8.080   6.715   5.438  0.6108 -0.4267  0.4142
  945MOL0     C27493   7.687   7.911   5.280 -0.2046 -0.3833 -0.1001
  945MOL0     C27494   7.584   8.004   5.300 -0.6338 -0.2244 -0.7404
  945MOL0     C27495   7.377   8.326   5.597  0.6932  0.6086  0.5139
  945MOL0     C27496   7.402   8.419   5.697  0.4307  0.7720  0.3196
  945MOL0     C27497   7.312   8.518   5.722  0.5913  0.4777  0.0332
  945MOL0     C27498   7.200   8.535   5.644  0.1525  0.1455  0.7913
  945MOL0     O27499   7.109   8.641   5.638 -0.4940  1.1997 -0.1313
  945MOL0     C27500   7.167   8.765   5.687 -0.1812 -0.5603 -0.3434
  945MOL0     C27501   7.086   8.877   5.629  0.3401  0.8876 -0.7925
  945MOL0     C27502   7.143   9.012   5.645 -0.2879 -0.1554  0.7105
  945MOL0     C27503   7.294   9.031   5.583  0.2108  0.3942 -1.3068
  945MOL0     C27504   7.380   9.030   5.705  0.2013  0.8179  0.8060
  945MOL0     C27505   7.452   9.030   5.799  0.1075 -0.0273 -0.7749
  945MOL0     C27506   7.175   8.445   5.549 -0.2484 -0.6505 -0.4434
  945MOL0     C27507   7.259   8.335   5.522  0.1953 -0.1107  0.0251
  945MOL0     H27508   7.568   7.962   5.636 -4.7258  1.0885 -1.9396
  945MOL0     H27509   7.766   7.819   5.601  1.4543 -2.9825 -1.2468
  945MOL0     H27510   7.822   7.602   5.515 -1.7161 -3.1845 -0.1040
  945MOL0     H27511   7.680   7.601   5.428 -0.1907  4.3692  0.4560
  945MOL0     H27512   7.756   7.461   5.256 -0.0301  2.4728  0.5313
  945MOL0     H27513   7.923   7.483   5.281 -0.7671 -0.9309 -3.4882
  945MOL0     H27514   7.939   7.373   5.485  0.7468  1.5469  0.2810
  945MOL0     H27515   7.760   7.367   5.510 -0.5542  2.2119 -1.2492
  945MOL0     H27516   7.733   7.215   5.314  0.4318 -0.5955 -0.6787
  945MOL0     H27517   7.912   7.205   5.300  1.4048 -0.6196  0.5475
  945MOL0     H27518   7.759   7.138   5.563 -0.2347  0.2485  0.7908
  945MOL0     H27519   7.779   7.023   5.432  5.1733 -5.0066  1.2512
  945MOL0     H27520   8.035   7.066   5.439 -1.2277  1.4399 -2.4525
  945MOL0     H27521   8.005   7.172   5.582  1.7267  0.5949 -1.0137
  945MOL0     H27522   7.931   7.001   5.730 -0.5356 -3.5558  1.8907
  945MOL0     H27523   7.873   6.904   5.603  0.0876 -1.5456  1.9440
  945MOL0     H27524   8.061   6.786   5.695 -0.9360  2.0770  1.6953
  945MOL0     H27525   8.169   6.921   5.685  0.1396  0.7136 -0.7744
  945MOL0     H27526   8.270   6.983   5.434  2.2343 -1.1284  0.1273
  945MOL0     H27527   8.395   6.862   5.215 -1.4498  2.2799 -1.5148
  945MOL0     H27528   8.326   6.720   5.136  0.1244 -0.7267 -0.5970
  945MOL0     H27529   8.166   6.992   5.126 -2.7962 -1.7051 -0.6685
  945MOL0     H27530   8.134   6.839   5.047  0.3586  0.5557  0.5757
  945MOL0     H27531   8.346   6.845   4.923  1.2788  1.1700 -0.0404
  945MOL0     H27532   8.344   7.014   4.964 -0.6563  0.0323 -1.3869
  945MOL0     H27533   8.149   7.058   4.865 -1.3606 -0.8938  5.5962
  945MOL0     H27534   8.101   6.894   4.839 -2.2487  3.4675 -2.8171
  945MOL0     H27535   7.988   6.973   4.705 -0.5862 -1.7620 -0.8933
  945MOL0     H27536   7.740   6.942   4.440  0.9980  1.1968 -1.9681
  945MOL0     H27537   7.752   7.000   4.602 -3.0930  0.7213 -1.1809
  945MOL0     H27538   7.759   7.113   4.466 -1.2292 -0.0418  0.6323
  945MOL0     H27539   8.077   7.195   4.028  0.1101 -0.9597  1.5468
  945MOL0     H27540   8.037   7.270   3.782  2.8298 -0.9123  1.7546
  945MOL0     H27541   7.961   7.278   3.591  1.6130  2.1317 -0.9054
  945MOL0     H27542   7.822   7.349   3.492  0.8366 -1.3751 -0.4801
  945MOL0     H27543   7.845   7.559   3.606 -1.0713 -1.6187 -0.5685
  945MOL0     H27544   7.950   7.485   3.717  0.8542  0.0718 -0.4910
  945MOL0     H27545   8.042   7.493   3.434 -1.5055  2.0382 -0.1086
  945MOL0     H27546   8.125   7.446   3.592  0.3326 -0.5821 -2.4015
  945MOL0     H27547   8.033   7.715   3.494 -1.0746  0.7523  2.1673
  945MOL0     H27548   8.074   7.682   3.660 -3.2192  0.8066 -1.2901
  945MOL0     H27549   8.239   7.799   3.488  3.0007  0.0345  1.6742
  945MOL0     H27550   8.254   7.629   3.418  0.6810 -4.0294  1.6088
  945MOL0     H27551   8.318   7.686   3.694 -1.5146 -3.6269  1.0018
  945MOL0     H27552   8.337   7.538   3.616 -2.4140 -1.0537 -2.5948
  945MOL0     H27553   8.476   7.746   3.463  2.9667 -2.0519 -1.1258
  945MOL0     H27554   8.549   7.601   3.543  1.6139  0.6195  1.8597
  945MOL0     H27555   8.646   7.811   3.586 -1.0913  0.3926 -2.5612
  945MOL0     H27556   8.580   7.747   3.738  1.4273 -0.0660 -0.3877
  945MOL0     H27557   7.625   7.222   3.832 -0.2656  0.6023 -0.0171
  945MOL0     H27558   7.647   7.149   4.066  0.3132 -0.7736 -0.3648
  945MOL0     H27559   8.194   7.003   4.263 -0.0266 -1.4358 -0.0158
  945MOL0     H27560   8.334   7.007   4.464 -0.7104 -1.8971 -2.3744
  945MOL0     H27561   7.718   7.892   5.178  0.3350 -4.1275  0.6307
  945MOL0     H27562   7.546   8.062   5.217  1.9691  0.1694 -1.7706
  945MOL0     H27563   7.495   8.401   5.749 -0.7756 -1.9670  1.7390
  945MOL0     H27564   7.335   8.587   5.803  0.7262  0.8823 -0.3473
  945MOL0     H27565   7.178   8.775   5.795  0.2592  2.5168 -0.5887
  945MOL0     H27566   7.271   8.773   5.653 -0.3077 -0.0894 -0.6388
  945MOL0     H27567   6.993   8.880   5.687  0.9897  1.0480  0.2737
  945MOL0     H27568   7.074   8.861   5.521 -1.7390  0.8257 -0.5900
  945MOL0     H27569   7.141   9.032   5.752 -0.7585  2.7906  0.2319
  945MOL0     H27570   7.081   9.084   5.591 -2.4868 -2.2638  0.2566
  945MOL0     H27571   7.308   9.129   5.537  0.7547 -0.3285 -2.7346
  945MOL0     H27572   7.312   8.947   5.515  1.6040  0.0291 -0.5304
  945MOL0     H27573   7.514   9.033   5.886  0.6614  2.9890 -1.1658
  945MOL0     H27574   7.101   8.465   5.473 -0.9667  1.6054  0.7626
  945MOL0     H27575   7.240   8.268   5.439 -1.8775  1.8036 -1.1610
  946MOL0     O27576   5.227   4.898   0.730 -0.6156  0.4408  0.1794
  946MOL0     C27577   5.198   5.022   0.747 -0.2926  0.5870  0.0917
  946MOL0     O27578   5.098   5.066   0.829  0.1421  0.2010 -0.2138
  946MOL0     C27579   5.046   4.984   0.930  0.0637 -0.3648  0.2830
  946MOL0     C27580   5.123   4.915   1.021 -0.6137 -0.7119  1.6413
  946MOL0     C27581   5.073   4.863   1.139 -0.0795 -0.8608 -0.6812
  946MOL0     C27582   4.941   4.868   1.170 -0.1799  0.3216  0.4561
  946MOL0     O27583   4.870   4.810   1.268 -1.4132 -1.0642  0.6208
  946MOL0     C27584   4.930   4.779   1.387  0.0583  0.0992 -0.3020
  946MOL0     C27585   4.827   4.736   1.489  0.7847  0.6739 -0.5436
  946MOL0     C27586   4.901   4.727   1.629 -0.5052 -0.1725  0.5949
  946MOL0     C27587   4.800   4.699   1.743  0.5898 -0.0036  0.4561
  946MOL0     C27588   4.859   4.642   1.880  0.2996 -0.0690  1.4758
  946MOL0     C27589   4.753   4.637   1.994 -0.5374  1.0314 -0.0851
  946MOL0     C27590   4.809   4.623   2.134  0.0024 -0.2170 -0.0356
  946MOL0     C27591   4.864   4.487   2.163 -0.2118 -0.0344  0.5324
  946MOL0     N27592   4.921   4.482   2.302  0.4034 -1.2405  1.0212
  946MOL0     C27593   4.876   4.556   2.407 -0.2068  0.0828 -0.1204
  946MOL0     C27594   4.936   4.495   2.520  0.4987  0.0540  0.3194
  946MOL0     C27595   4.920   4.540   2.662 -0.4118 -0.5130  0.6585
  946MOL0     C27596   5.002   4.665   2.685 -0.0656 -0.4038 -0.6677
  946MOL0     C27597   4.948   4.753   2.806 -0.3605 -0.3982 -1.5186
  946MOL0     C27598   4.846   4.865   2.768  0.3642  0.7084 -0.0988
  946MOL0     O27599   4.740   4.827   2.686 -0.4953  0.8376 -0.0921
  946MOL0     C27600   4.647   4.925   2.656  0.1885  0.4727 -0.3662
  946MOL0     C27601   4.664   5.060   2.691 -0.2980  0.7069 -0.3015
  946MOL0     C27602   4.583   5.164   2.653 -1.2589  0.0478  0.0570
  946MOL0     C27603   4.603   5.300   2.719 -0.2855  0.4207  0.0714
  946MOL0     C27604   4.476   5.140   2.566  0.4788  0.0343  0.3495
  946MOL0     C27605   4.376   5.249   2.533  0.3233 -0.4826  0.2414
  946MOL0     O27606   4.254   5.209   2.489  0.1282  0.2264 -0.0329
  946MOL0     C27607   4.163   5.304   2.443 -0.3481  0.0111  0.4299
  946MOL0     C27608   4.105   5.404   2.516  0.3415 -0.3597 -0.9925
  946MOL0     C27609   4.010   5.496   2.466  0.1646  0.4959  0.1423
  946MOL0     C27610   3.989   5.498   2.326 -0.2459 -0.0790  0.4917
  946MOL0     O27611   3.927   5.603   2.265  0.0443 -0.2822 -0.4745
  946MOL0     C27612   3.788   5.613   2.298  0.1569 -0.2783 -0.0206
  946MOL0     C27613   3.685   5.563   2.199 -0.1992  0.4112 -0.7529
  946MOL0     C27614   3.675   5.409   2.196  0.2330 -0.8336 -0.2407
  946MOL0     C27615   3.624   5.326   2.315  0.7960 -0.0904  0.0493
  946MOL0     C27616   3.650   5.184   2.289  0.2771 -0.8028  1.4023
  946MOL0     C27617   3.791   5.141   2.328  0.3738 -0.6033  0.1328
  946MOL0     C27618   3.812   4.993   2.304 -0.3746  0.4027 -0.2532
  946MOL0     C27619   3.887   4.969   2.173  0.1533 -0.5359  0.3358
  946MOL0    Cl27620   4.060   5.011   2.179 -0.1406  0.4623  0.0584
  946MOL0     C27621   4.043   5.398   2.251  0.8969  0.1135 -0.8055
  946MOL0     C27622   4.130   5.301   2.309  0.0339 -0.6035  0.8261
  946MOL0     O27623   4.411   5.369   2.537  0.6396 -0.1814 -0.6754
  946MOL0     C27624   4.447   5.000   2.538 -0.8362  0.1350 -0.4433
  946MOL0     C27625   4.537   4.896   2.573  1.2028 -0.0754 -0.1898
  946MOL0     N27626   5.013   4.383   2.478 -0.5637 -0.1183 -0.5853
  946MOL0     N27627   5.008   4.387   2.348 -0.7615  0.2273  0.0222
  946MOL0     C27628   4.864   4.928   1.072 -0.0280 -0.7032  0.3357
  946MOL0     C27629   4.916   4.994   0.960  0.2366 -1.1501 -0.2316
  946MOL0     C27630   5.286   5.128   0.685 -0.3968 -0.3814 -0.1127
  946MOL0     C27631   5.239   5.267   0.689  0.6107  0.5416  0.5294
  946MOL0     C27632   5.312   5.363   0.609  0.1624 -0.2473  0.3054
  946MOL0     C27633   5.425   5.325   0.529 -0.4466 -0.4544 -0.6986
  946MOL0     O27634   5.461   5.416   0.431 -0.2769  0.6567 -0.6124
  946MOL0     C27635   5.530   5.537   0.468  0.3479  0.6542  0.5670
  946MOL0     C27636   5.633   5.518   0.577 -0.8976 -0.0366  0.0166
  946MOL0     C27637   5.752   5.623   0.574  0.0278  0.1319 -0.5702
  946MOL0     C27638   5.722   5.765   0.588  0.4059 -0.4266 -0.0471
  946MOL0     C27639   5.633   5.787   0.697  0.6172  0.1500  0.2965
  946MOL0     C27640   5.558   5.829   0.786 -1.0242  0.0728  0.1753
  946MOL0     C27641   5.454   5.195   0.519  0.8883 -0.3783  0.4371
  946MOL0     C27642   5.396   5.093   0.604 -0.1520 -0.3061  0.5012
  946MOL0     H27643   5.229   4.898   1.007 -0.7931 -2.3430  2.1035
  946MOL0     H27644   5.157   4.828   1.198  1.6813 -1.3778 -3.2925
  946MOL0     H27645   5.009   4.703   1.385  1.1286  1.1399  0.5739
  946MOL0     H27646   4.982   4.868   1.424 -0.9987 -0.3704  2.5581
  946MOL0     H27647   4.738   4.799   1.490  0.9780  0.9471 -0.4470
  946MOL0     H27648   4.800   4.632   1.471 -2.3065  1.1924  0.5508
  946MOL0     H27649   4.977   4.649   1.630  0.5487  0.8243  1.6040
  946MOL0     H27650   4.959   4.819   1.641 -3.4619  1.9511 -0.0205
  946MOL0     H27651   4.743   4.792   1.755 -4.5102 -2.7496  0.2753
  946MOL0     H27652   4.725   4.629   1.705  0.6359  0.3860 -0.3585
  946MOL0     H27653   4.894   4.539   1.868 -0.5712 -0.4782  2.2786
  946MOL0     H27654   4.944   4.708   1.902  0.3772 -0.0150  1.0193
  946MOL0     H27655   4.690   4.726   1.982 -0.1605  1.2963 -0.0930
  946MOL0     H27656   4.690   4.549   1.977  2.5744 -1.0633 -1.5743
  946MOL0     H27657   4.892   4.692   2.152  0.4290 -0.7918  0.2329
  946MOL0     H27658   4.720   4.633   2.197  0.2600 -2.6422  0.8312
  946MOL0     H27659   4.942   4.460   2.092 -0.1136  2.0873 -0.2349
  946MOL0     H27660   4.783   4.414   2.162 -0.1454 -0.1109  0.7207
  946MOL0     H27661   4.819   4.647   2.396 -0.0439  0.0339 -1.5850
  946MOL0     H27662   4.812   4.558   2.672 -0.8620 -1.2242 -2.0965
  946MOL0     H27663   4.954   4.462   2.731 -3.5321 -1.2446  1.5657
  946MOL0     H27664   5.006   4.731   2.598 -2.1214  0.2298 -0.3273
  946MOL0     H27665   5.103   4.639   2.718  0.4270  0.8439 -1.1477
  946MOL0     H27666   5.041   4.802   2.837 -0.8624 -2.2276  3.7626
  946MOL0     H27667   4.911   4.698   2.892  3.5069  0.0695  0.6804
  946MOL0     H27668   4.915   4.932   2.716  2.1436  0.1283  1.3693
  946MOL0     H27669   4.815   4.915   2.860 -1.0494  3.6276 -2.0280
  946MOL0     H27670   4.732   5.087   2.771  0.3592  1.0882 -0.9864
  946MOL0     H27671   4.687   5.296   2.789 -1.0750  0.4635  1.0470
  946MOL0     H27672   4.625   5.374   2.641 -0.3530 -0.9506 -1.3064
  946MOL0     H27673   4.513   5.330   2.773 -0.9382  0.1893 -0.8521
  946MOL0     H27674   4.140   5.403   2.619  1.6565  2.2125 -1.3349
  946MOL0     H27675   3.970   5.574   2.529 -1.9950 -1.0681  0.8021
  946MOL0     H27676   3.754   5.559   2.386 -2.4258 -4.2215 -3.0840
  946MOL0     H27677   3.759   5.717   2.315 -1.8401 -1.3695  4.7637
  946MOL0     H27678   3.590   5.605   2.233  1.4680  2.3413  1.9950
  946MOL0     H27679   3.713   5.599   2.100 -1.2710 -0.7997 -1.5094
  946MOL0     H27680   3.773   5.377   2.160  1.3044  2.8668 -1.0377
  946MOL0     H27681   3.620   5.385   2.104  0.2418 -2.9279  0.2426
  946MOL0     H27682   3.675   5.360   2.406  2.2918 -1.1444 -0.3538
  946MOL0     H27683   3.518   5.344   2.337  0.4049 -4.0863  2.5610
  946MOL0     H27684   3.634   5.162   2.183 -0.0211 -1.6680  1.6154
  946MOL0     H27685   3.573   5.122   2.336 -0.3802  0.6077  2.2407
  946MOL0     H27686   3.876   5.203   2.299  1.5981 -1.6539  1.3355
  946MOL0     H27687   3.784   5.148   2.437 -1.1522  1.2694 -0.0318
  946MOL0     H27688   3.723   4.932   2.289 -1.3670  1.3640  1.4478
  946MOL0     H27689   3.863   4.949   2.390 -1.0157 -0.4388 -0.2896
  946MOL0     H27690   3.824   5.021   2.101 -1.0215  0.5938  2.0966
  946MOL0     H27691   3.889   4.863   2.148 -1.3944  0.1513 -3.2939
  946MOL0     H27692   4.025   5.394   2.144 -0.3141 -1.1512 -0.5745
  946MOL0     H27693   4.186   5.228   2.253  0.6169  0.7003 -0.3383
  946MOL0     H27694   4.359   4.980   2.478 -1.8307 -1.3523  1.4231
  946MOL0     H27695   4.528   4.800   2.524 -0.7801  0.7209 -1.4829
  946MOL0     H27696   4.759   4.942   1.095  0.0300  0.5150 -0.0920
  946MOL0     H27697   4.863   5.073   0.907  3.7969  0.6254 -1.4485
  946MOL0     H27698   5.159   5.303   0.752  0.7747 -0.1046  1.1126
  946MOL0     H27699   5.277   5.466   0.611 -2.7890 -1.1563  1.9569
  946MOL0     H27700   5.583   5.569   0.378 -0.3371 -0.0459 -0.1009
  946MOL0     H27701   5.460   5.614   0.502 -2.8363 -1.7118 -0.1279
  946MOL0     H27702   5.669   5.415   0.570  1.1147  0.6358 -0.2248
  946MOL0     H27703   5.578   5.515   0.671 -1.5309  0.4882 -0.3275
  946MOL0     H27704   5.818   5.615   0.487 -1.4206  0.2042 -1.7162
  946MOL0     H27705   5.816   5.597   0.658 -1.0320  0.7898  0.4609
  946MOL0     H27706   5.675   5.801   0.496  0.8129  0.2085 -0.0091
  946MOL0     H27707   5.814   5.823   0.594  0.3522 -0.4000  0.5146
  946MOL0     H27708   5.475   5.862   0.845 -3.7449 -1.2546 -2.6417
  946MOL0     H27709   5.526   5.184   0.438  0.3928 -1.7148  0.1580
  946MOL0     H27710   5.435   4.992   0.590 -1.1427 -0.7841  1.0777
  947MOL0     O27711   7.267  10.002   5.993 -0.7019 -0.4566 -0.4508
  947MOL0     C27712   7.256  10.023   6.118  0.5365  0.6260  0.4830
  947MOL0     O27713   7.341   9.970   6.212 -0.1078 -0.4220 -0.8600
  947MOL0     C27714   7.478   9.958   6.179  0.0968  0.4001  0.5643
  947MOL0     C27715   7.565  10.049   6.230 -0.6324  0.4198 -0.7991
  947MOL0     C27716   7.696  10.018   6.218 -0.4303 -0.3931 -0.5953
  947MOL0     C27717   7.755   9.894   6.154  0.6216 -0.9104  0.3817
  947MOL0     O27718   7.885   9.854   6.153  1.0392  0.3626 -0.8073
  947MOL0     C27719   7.984   9.927   6.228  0.7202  0.1058 -0.0006
  947MOL0     C27720   8.093   9.828   6.269 -0.0041 -0.1920 -0.2104
  947MOL0     C27721   8.205   9.826   6.160  0.4066 -0.5571 -0.8361
  947MOL0     C27722   8.322   9.744   6.198 -0.0845 -0.4553 -0.6205
  947MOL0     C27723   8.419   9.729   6.083  1.3129  0.5011 -0.0138
  947MOL0     C27724   8.516   9.839   6.058  0.4632 -0.0978 -0.0519
  947MOL0     C27725   8.615   9.800   5.943 -0.1380 -1.2903  0.7177
  947MOL0     C27726   8.727   9.901   5.929 -0.0626 -0.9727  0.0479
  947MOL0     N27727   8.857   9.860   5.864  0.2264 -0.4197  0.0668
  947MOL0     C27728   8.863   9.764   5.765 -0.4819  0.1519 -0.2747
  947MOL0     C27729   8.978   9.802   5.696 -0.6943  0.1714  0.6705
  947MOL0     C27730   9.035   9.721   5.579 -0.4817  0.6024 -0.4019
  947MOL0     C27731   9.027   9.803   5.443  0.0384  0.4027 -0.3688
  947MOL0     C27732   9.094   9.728   5.329 -0.2098  0.4842 -0.5322
  947MOL0     C27733   8.988   9.629   5.272  0.0667  0.0061 -0.1398
  947MOL0     O27734   8.941   9.542   5.363 -0.2426 -0.1824 -0.2941
  947MOL0     C27735   8.828   9.486   5.329  0.3518  0.3500  0.5644
  947MOL0     C27736   8.820   9.381   5.234 -0.9071  0.2267  0.2092
  947MOL0     C27737   8.695   9.315   5.209 -0.7298  0.0330 -0.5281
  947MOL0     C27738   8.717   9.192   5.116 -0.0478  0.8163  0.2294
  947MOL0     C27739   8.572   9.360   5.272 -0.5426  0.4508 -0.1388
  947MOL0     C27740   8.446   9.273   5.274  0.3437 -1.1510 -0.9311
  947MOL0     O27741   8.453   9.153   5.214 -1.2625 -0.5472  0.8850
  947MOL0     C27742   8.334   9.101   5.178  0.4347 -0.0077  0.5429
  947MOL0     C27743   8.332   8.966   5.170  0.7136  0.3791  0.2977
  947MOL0     C27744   8.215   8.896   5.150 -0.2626  1.2588 -0.5350
  947MOL0     C27745   8.101   8.957   5.117  0.2885  0.9850  0.3807
  947MOL0     O27746   7.996   8.878   5.080  0.4526  0.4475 -0.0667
  947MOL0     C27747   7.870   8.932   5.102  0.1613 -0.4472 -0.5975
  947MOL0     C27748   7.758   8.848   5.035 -0.3346 -0.2056 -0.0179
  947MOL0     C27749   7.626   8.915   5.085  0.4821  0.6110  0.4781
  947MOL0     C27750   7.508   8.831   5.034 -0.3979  0.1249  0.5932
  947MOL0     C27751   7.374   8.872   5.113  0.6261  0.8504  0.4152
  947MOL0     C27752   7.257   8.791   5.057 -0.3339  0.0692  0.8902
  947MOL0     C27753   7.149   8.770   5.168  0.0642  0.0460  0.2936
  947MOL0     C27754   7.030   8.698   5.116  0.0704  0.1190 -0.1830
  947MOL0    Cl27755   7.065   8.520   5.086 -0.1077 -0.4076  0.3795
  947MOL0     C27756   8.100   9.099   5.124 -0.4517  0.2497 -0.0045
  947MOL0     C27757   8.218   9.170   5.146 -0.1539  0.8577 -0.0059
  947MOL0     O27758   8.355   9.308   5.357 -0.3591 -0.1144  0.4777
  947MOL0     C27759   8.588   9.473   5.358 -0.6211 -0.3682 -0.4813
  947MOL0     C27760   8.714   9.540   5.378  0.3138  0.5029  0.1107
  947MOL0     N27761   9.036   9.910   5.760  0.4136  0.8468  0.0832
  947MOL0     N27762   8.961   9.945   5.857 -0.0176 -0.4493 -0.4327
  947MOL0     C27763   7.656   9.811   6.099  0.5173 -0.3047 -0.3543
  947MOL0     C27764   7.528   9.840   6.111  0.4124  1.3511 -0.3619
  947MOL0     C27765   7.148  10.104   6.177 -0.3412 -0.2234  0.0393
  947MOL0     C27766   7.152  10.145   6.312  0.4778 -0.4926 -1.1102
  947MOL0     C27767   7.053  10.230   6.369 -0.3748 -0.2367 -0.1591
  947MOL0     C27768   6.955  10.276   6.291  0.5275  0.0137  0.8357
  947MOL0     O27769   6.850  10.354   6.351  0.8633  0.5525  0.2223
  947MOL0     C27770   6.788  10.460   6.269  0.4872  0.5207 -1.5695
  947MOL0     C27771   6.692  10.544   6.357  0.1530  0.0128 -0.1205
  947MOL0     C27772   6.755  10.586   6.486 -0.0295 -0.1099 -1.2534
  947MOL0     C27773   6.647  10.644   6.571  0.6625 -0.1248  0.6889
  947MOL0     C27774   6.554  10.558   6.647  0.7290 -0.0634  0.4263
  947MOL0     C27775   6.462  10.503   6.707 -0.5531 -0.4105  0.2875
  947MOL0     C27776   6.953  10.240   6.151  0.6355 -0.5387  0.2571
  947MOL0     C27777   7.046  10.148   6.100  0.2581 -0.6352  1.0998
  947MOL0     H27778   7.536  10.140   6.282  1.1814  1.5087 -1.6226
  947MOL0     H27779   7.774  10.085   6.253  1.4644 -2.5940 -0.3511
  947MOL0     H27780   8.019  10.008   6.163 -0.6696  1.6396  1.0789
  947MOL0     H27781   7.942   9.978   6.315 -1.3311 -2.1328  0.4424
  947MOL0     H27782   8.131   9.871   6.362 -1.0809 -0.2631  0.2698
  947MOL0     H27783   8.061   9.727   6.296 -0.3604 -0.6496 -2.1836
  947MOL0     H27784   8.173   9.782   6.065  1.3538 -1.5720 -0.6985
  947MOL0     H27785   8.238   9.930   6.145 -3.7615  1.3072  1.1035
  947MOL0     H27786   8.376   9.769   6.289  0.7064 -0.9231 -0.9500
  947MOL0     H27787   8.287   9.644   6.224  1.8985 -0.9977  0.1117
  947MOL0     H27788   8.473   9.641   6.120  2.7750  2.0060  1.6346
  947MOL0     H27789   8.377   9.703   5.986  1.9187  2.8702 -0.9844
  947MOL0     H27790   8.471   9.937   6.040  0.9171 -0.0273 -0.8656
  947MOL0     H27791   8.581   9.832   6.145  1.7245 -1.2890 -1.0460
  947MOL0     H27792   8.652   9.697   5.954 -0.6164 -1.3950  1.4051
  947MOL0     H27793   8.548   9.804   5.856  0.2614 -1.1123  0.4161
  947MOL0     H27794   8.764   9.937   6.025 -1.6329 -2.3698  1.2386
  947MOL0     H27795   8.686   9.989   5.879  1.0247 -0.3848  0.1470
  947MOL0     H27796   8.792   9.689   5.732 -1.1124 -0.2731  1.9008
  947MOL0     H27797   9.137   9.684   5.593 -0.6548 -0.4431 -1.6728
  947MOL0     H27798   8.969   9.635   5.564 -3.3544  2.9624 -2.6189
  947MOL0     H27799   9.064   9.902   5.469  0.5223 -0.1352  1.1016
  947MOL0     H27800   8.921   9.805   5.415  1.1360 -1.7084 -6.1450
  947MOL0     H27801   9.179   9.670   5.365  0.3519  3.2855  3.2808
  947MOL0     H27802   9.131   9.797   5.252  3.5417  0.9427  1.4585
  947MOL0     H27803   9.023   9.575   5.184  0.8509  0.8257 -0.3362
  947MOL0     H27804   8.904   9.689   5.236  0.0875  2.5153  3.4366
  947MOL0     H27805   8.906   9.326   5.197 -1.5441 -1.1991  0.7786
  947MOL0     H27806   8.743   9.103   5.174 -2.6673 -0.5818 -0.5756
  947MOL0     H27807   8.639   9.176   5.041  1.3758 -2.1100 -0.7703
  947MOL0     H27808   8.799   9.222   5.050 -2.3015  4.1458 -1.3485
  947MOL0     H27809   8.427   8.914   5.182  0.2029 -0.3754  1.1888
  947MOL0     H27810   8.234   8.790   5.136 -0.3266  1.4383 -2.1192
  947MOL0     H27811   7.842   8.932   5.207  0.7237 -0.2391 -0.4440
  947MOL0     H27812   7.865   9.034   5.061 -1.5326 -0.5716 -0.7812
  947MOL0     H27813   7.781   8.848   4.928  0.5911  0.1847  0.1725
  947MOL0     H27814   7.767   8.746   5.075  1.3796  0.2855  0.9348
  947MOL0     H27815   7.611   9.016   5.045 -2.8502 -1.0931 -3.2492
  947MOL0     H27816   7.632   8.910   5.194  2.5605 -1.8517  0.3552
  947MOL0     H27817   7.497   8.843   4.926  2.4350  0.7681  0.3111
  947MOL0     H27818   7.516   8.723   5.052 -0.1238  0.2665  1.3607
  947MOL0     H27819   7.353   8.979   5.121  0.8157  0.7652  2.3550
  947MOL0     H27820   7.394   8.839   5.215 -5.2330  1.6758  2.1987
  947MOL0     H27821   7.216   8.838   4.967  0.3426  0.3924  0.7390
  947MOL0     H27822   7.303   8.697   5.026  0.6900  1.2102 -1.2790
  947MOL0     H27823   7.119   8.866   5.211  0.9969  0.4087  0.1697
  947MOL0     H27824   7.198   8.722   5.253  2.7923 -2.5315 -2.4734
  947MOL0     H27825   6.986   8.739   5.024  0.4254  0.0224 -0.3965
  947MOL0     H27826   6.955   8.693   5.196 -0.4183  0.2919 -0.6200
  947MOL0     H27827   8.015   9.155   5.087  0.8658  0.7084 -2.5435
  947MOL0     H27828   8.215   9.279   5.142 -0.6442  0.8229 -2.7779
  947MOL0     H27829   8.505   9.512   5.415 -0.9394 -0.4400 -0.8994
  947MOL0     H27830   8.728   9.623   5.447  2.7346  1.3775 -1.2932
  947MOL0     H27831   7.666   9.715   6.049 -1.5732 -0.7907  0.0487
  947MOL0     H27832   7.456   9.767   6.077  2.3648 -0.2341 -1.3162
  947MOL0     H27833   7.233  10.108   6.375 -0.8519 -0.1568  0.8917
  947MOL0     H27834   7.063  10.272   6.468  1.6440  2.5701 -1.4088
  947MOL0     H27835   6.871  10.521   6.232  0.6145  2.2053  1.2523
  947MOL0     H27836   6.738  10.406   6.188 -0.7136  1.5568 -1.5377
  947MOL0     H27837   6.598  10.493   6.379  0.1226  0.2530  0.3352
  947MOL0     H27838   6.671  10.631   6.294  2.9520 -1.2974 -3.1720
  947MOL0     H27839   6.836  10.660   6.481 -0.2969  0.4875  1.5959
  947MOL0     H27840   6.790  10.502   6.547 -1.0709 -2.1768 -3.3546
  947MOL0     H27841   6.593  10.710   6.502 -0.6916 -1.4298  0.4272
  947MOL0     H27842   6.699  10.710   6.640 -0.6646  1.5782  0.1169
  947MOL0     H27843   6.375  10.464   6.755 -1.9610  2.9982  0.8250
  947MOL0     H27844   6.892  10.276   6.069  2.1444 -2.2482 -1.7464
  947MOL0     H27845   7.067  10.120   5.997  4.5165  2.2603  0.9481
  948MOL0     O27846   6.723   5.153   0.639  0.3053 -0.2067  0.6187
  948MOL0     C27847   6.700   5.033   0.617 -0.4352 -0.8177  0.4049
  948MOL0     O27848   6.738   4.927   0.700 -0.3372  0.4673  0.5592
  948MOL0     C27849   6.805   4.931   0.813 -0.6673 -0.3576  1.1602
  948MOL0     C27850   6.899   4.834   0.834 -0.7416 -0.4864 -0.4048
  948MOL0     C27851   6.981   4.819   0.947 -0.2773 -0.4228 -0.2411
  948MOL0     C27852   6.966   4.917   1.047 -0.0561  0.0792 -1.2521
  948MOL0     O27853   7.039   4.915   1.163  0.5584  0.1900  0.6678
  948MOL0     C27854   7.143   4.817   1.184  0.1240 -0.2514  0.6063
  948MOL0     C27855   7.215   4.848   1.310  0.5525 -0.1081 -1.2822
  948MOL0     C27856   7.319   4.748   1.349  0.4264 -0.5464 -0.9834
  948MOL0     C27857   7.388   4.794   1.484 -0.2363  0.2892  0.2178
  948MOL0     C27858   7.523   4.725   1.507 -0.5212 -0.7819  0.4948
  948MOL0     C27859   7.619   4.794   1.616  0.2177 -1.6923  1.2673
  948MOL0     C27860   7.741   4.713   1.652 -0.2933 -0.3227  0.0029
  948MOL0     C27861   7.862   4.775   1.700 -0.3917  0.2041 -0.4161
  948MOL0     N27862   7.967   4.680   1.753  0.0556 -0.2387  0.6737
  948MOL0     C27863   7.956   4.581   1.845 -0.2415 -0.3109 -0.8414
  948MOL0     C27864   8.074   4.512   1.851  0.2478  0.0968  0.5204
  948MOL0     C27865   8.119   4.386   1.937  0.4159 -0.8607  0.1136
  948MOL0     C27866   8.098   4.396   2.095 -1.0193  0.0577  0.5115
  948MOL0     C27867   7.960   4.380   2.148  0.0150 -0.0276 -0.1889
  948MOL0     C27868   7.970   4.421   2.294 -0.1504 -1.0861 -0.0832
  948MOL0     O27869   8.071   4.360   2.386  0.3035 -0.1107 -0.0564
  948MOL0     C27870   8.046   4.233   2.440  0.1645  0.1657  0.1037
  948MOL0     C27871   8.049   4.119   2.360  0.2922 -0.1815  0.1891
  948MOL0     C27872   8.036   3.989   2.417  0.5778  1.0004  0.0612
  948MOL0     C27873   8.074   3.880   2.325 -0.3798  0.4316 -0.1836
  948MOL0     C27874   8.001   3.978   2.556  0.4295 -0.6859 -0.0093
  948MOL0     C27875   7.987   3.843   2.624  1.4216  0.0490  0.2979
  948MOL0     O27876   7.963   3.740   2.541  0.2390  0.0979  0.3761
  948MOL0     C27877   7.926   3.624   2.592 -0.3669  0.7588 -0.9413
  948MOL0     C27878   7.797   3.610   2.646  0.3531  0.1155 -0.1112
  948MOL0     C27879   7.775   3.494   2.722 -0.1164 -0.0872  0.9696
  948MOL0     C27880   7.863   3.391   2.736  1.0814 -0.2889 -0.0210
  948MOL0     O27881   7.818   3.284   2.819 -0.7226  0.3221 -0.2715
  948MOL0     C27882   7.912   3.186   2.884  0.8336 -1.2989 -0.6686
  948MOL0     C27883   7.839   3.043   2.881 -0.0954  0.0299  0.4768
  948MOL0     C27884   7.897   2.956   2.995  0.9544 -0.5372  0.1035
  948MOL0     C27885   7.812   2.833   3.022 -0.4448 -0.4708  0.0960
  948MOL0     C27886   7.884   2.731   3.101 -1.2590  1.1008  0.1323
  948MOL0     C27887   7.934   2.627   2.997 -0.5853 -0.7809  0.2330
  948MOL0     C27888   8.039   2.530   3.035 -0.0491 -0.6437  0.7654
  948MOL0     C27889   8.060   2.406   2.958 -0.5221  0.9275 -0.7581
  948MOL0    Cl27890   8.123   2.444   2.793 -0.1441  0.0496  0.5787
  948MOL0     C27891   7.993   3.403   2.682  0.2861  0.7171 -0.5778
  948MOL0     C27892   8.020   3.520   2.607 -1.0501 -0.1905 -0.1802
  948MOL0     O27893   8.003   3.839   2.743 -0.0886  0.5155 -0.3480
  948MOL0     C27894   7.992   4.099   2.637  0.1524  0.1871 -0.8082
  948MOL0     C27895   8.019   4.218   2.575  0.4413  0.3981 -0.3259
  948MOL0     N27896   8.144   4.561   1.738 -0.4623 -0.6897  0.7248
  948MOL0     N27897   8.082   4.671   1.690 -0.3589  0.0318 -0.7705
  948MOL0     C27898   6.874   5.020   1.021  0.1186  0.0636 -1.0730
  948MOL0     C27899   6.797   5.030   0.904  0.5955  0.4494 -0.8712
  948MOL0     C27900   6.622   5.016   0.485  0.0778 -0.1566  0.6159
  948MOL0     C27901   6.591   4.884   0.427 -0.5015 -0.6273  0.3777
  948MOL0     C27902   6.550   4.880   0.292  0.7852  0.7297 -0.2417
  948MOL0     C27903   6.499   4.995   0.229 -0.0167 -0.3301 -0.1795
  948MOL0     O27904   6.424   4.981   0.119 -0.1378 -0.8497  0.2124
  948MOL0     C27905   6.488   5.018  -0.009  0.3004  0.0552 -0.4005
  948MOL0     C27906   6.498   4.914  -0.116 -0.5826  0.2863  0.3735
  948MOL0     C27907   6.393   4.805  -0.106  0.6382 -0.6313  0.1817
  948MOL0     C27908   6.423   4.697  -0.219 -0.7509 -0.1928  0.0464
  948MOL0     C27909   6.530   4.612  -0.175 -0.2309  1.0332 -0.8876
  948MOL0     C27910   6.623   4.536  -0.141 -0.2938  1.1149  0.1715
  948MOL0     C27911   6.519   5.118   0.285  0.4919  0.4027  0.1225
  948MOL0     C27912   6.583   5.123   0.407 -0.2581  0.3997  0.3534
  948MOL0     H27913   6.910   4.764   0.751 -2.6991 -1.0148 -0.2466
  948MOL0     H27914   7.054   4.739   0.954 -0.0855 -0.4150 -1.9002
  948MOL0     H27915   7.107   4.714   1.194 -0.8367 -0.2330 -1.8902
  948MOL0     H27916   7.219   4.830   1.106 -3.5067 -0.1822 -3.2870
  948MOL0     H27917   7.268   4.943   1.302 -1.5124  1.3190  0.5661
  948MOL0     H27918   7.137   4.843   1.387  1.6023  1.7387 -0.0201
  948MOL0     H27919   7.270   4.653   1.369  1.4915 -0.9447 -0.1566
  948MOL0     H27920   7.402   4.735   1.279  0.1879 -0.5855 -1.2599
  948MOL0     H27921   7.399   4.903   1.478 -0.4581  0.2317 -1.8927
  948MOL0     H27922   7.326   4.776   1.573  0.3333 -1.6904  0.2656
  948MOL0     H27923   7.509   4.620   1.537 -2.8954  0.0339  2.6958
  948MOL0     H27924   7.579   4.732   1.413  1.4145 -3.3124  1.3232
  948MOL0     H27925   7.656   4.887   1.572 -3.5340 -0.0791  1.1195
  948MOL0     H27926   7.559   4.820   1.704  0.1122  1.3887  0.4190
  948MOL0     H27927   7.715   4.639   1.729 -1.0612  2.8619  3.0946
  948MOL0     H27928   7.768   4.664   1.559 -0.2657 -0.5223  0.1156
  948MOL0     H27929   7.843   4.852   1.776  1.2007  3.2257 -2.8095
  948MOL0     H27930   7.903   4.839   1.620 -3.2746  1.9396 -0.6821
  948MOL0     H27931   7.879   4.565   1.920  0.4637 -0.1379 -0.0610
  948MOL0     H27932   8.064   4.299   1.902 -0.0700  0.0642 -1.5321
  948MOL0     H27933   8.225   4.369   1.915  1.2144  1.0131  2.0621
  948MOL0     H27934   8.142   4.493   2.118  0.1658  0.1701 -1.9677
  948MOL0     H27935   8.166   4.324   2.141  0.0962  0.0141 -1.1485
  948MOL0     H27936   7.927   4.277   2.140 -0.3920  0.1566 -0.9684
  948MOL0     H27937   7.884   4.446   2.105  0.2563  1.6582  1.7734
  948MOL0     H27938   7.870   4.410   2.337 -1.3877 -3.8487 -3.2266
  948MOL0     H27939   8.001   4.525   2.303 -2.4257 -0.4741  1.3617
  948MOL0     H27940   8.060   4.117   2.252 -2.6974  0.9247 -0.2369
  948MOL0     H27941   7.989   3.817   2.297 -1.1743  0.8960  1.0767
  948MOL0     H27942   8.125   3.920   2.237 -1.0998 -0.6664 -1.1287
  948MOL0     H27943   8.148   3.824   2.383  2.2775  2.5320 -1.3425
  948MOL0     H27944   7.729   3.695   2.642 -0.1042 -0.2643 -0.5176
  948MOL0     H27945   7.674   3.487   2.761 -0.7300 -0.0093 -0.5181
  948MOL0     H27946   8.015   3.184   2.846  1.9522 -2.9281  2.1919
  948MOL0     H27947   7.914   3.228   2.984 -2.0216 -0.9427 -0.6708
  948MOL0     H27948   7.736   3.057   2.915  0.4301 -1.9002  3.3290
  948MOL0     H27949   7.841   2.989   2.786 -1.1478  1.2745 -0.2750
  948MOL0     H27950   7.911   3.018   3.084 -0.3714 -0.0110 -0.0400
  948MOL0     H27951   7.993   2.926   2.952  2.0051  2.6001  0.0027
  948MOL0     H27952   7.723   2.857   3.080  1.9162 -0.1617  3.9088
  948MOL0     H27953   7.777   2.786   2.929  0.9528  1.7059 -1.6336
  948MOL0     H27954   7.820   2.686   3.178  0.7019  1.8410  2.3147
  948MOL0     H27955   7.969   2.771   3.157  0.2275 -0.8689 -0.6110
  948MOL0     H27956   7.847   2.597   2.938 -0.4671  3.1266 -2.3267
  948MOL0     H27957   7.988   2.685   2.921 -0.2883 -2.6094 -1.0153
  948MOL0     H27958   8.015   2.513   3.140 -0.0439  1.6605  1.2071
  948MOL0     H27959   8.133   2.586   3.024 -1.5776  2.0601  0.3914
  948MOL0     H27960   7.968   2.347   2.961  0.2210 -0.2130  1.2302
  948MOL0     H27961   8.129   2.341   3.012 -3.3434 -1.8159 -0.1473
  948MOL0     H27962   8.053   3.312   2.685  0.0115  0.5286 -0.7395
  948MOL0     H27963   8.115   3.520   2.556 -1.7916  0.0851 -1.5990
  948MOL0     H27964   7.969   4.094   2.743  0.7111  1.0511 -0.6301
  948MOL0     H27965   8.020   4.303   2.641  1.0594  0.3616 -0.2830
  948MOL0     H27966   6.874   5.097   1.098 -2.4086 -1.5312  0.6502
  948MOL0     H27967   6.721   5.105   0.885 -0.8113 -0.9759 -0.9895
  948MOL0     H27968   6.601   4.797   0.491 -3.1764 -1.1998  0.1456
  948MOL0     H27969   6.547   4.781   0.249  1.2789  0.3264  0.6307
  948MOL0     H27970   6.414   5.089  -0.046 -2.9357 -2.7238  0.2222
  948MOL0     H27971   6.583   5.068   0.012 -0.1388 -0.0203  2.0017
  948MOL0     H27972   6.599   4.878  -0.094 -0.7056  1.2632  2.8174
  948MOL0     H27973   6.486   4.962  -0.213 -0.3648  1.6413  0.9954
  948MOL0     H27974   6.294   4.844  -0.130  0.7867  0.1351  0.7881
  948MOL0     H27975   6.394   4.760  -0.006  1.2524 -0.6121  0.1908
  948MOL0     H27976   6.437   4.741  -0.318 -0.4867 -0.2561  0.0562
  948MOL0     H27977   6.332   4.638  -0.237 -0.4754 -0.8476  0.7420
  948MOL0     H27978   6.711   4.494  -0.097  0.5147  1.0200 -1.4682
  948MOL0     H27979   6.489   5.207   0.230 -2.6611  1.7657  3.6131
  948MOL0     H27980   6.612   5.225   0.429 -2.1962  0.8735  0.8682
  949MOL0     O27981   6.081   2.328  11.555 -0.5360 -0.2419  0.3309
  949MOL0     C27982   6.030   2.396  11.455 -0.3016  0.1104 -0.3413
  949MOL0     O27983   5.934   2.492  11.466  0.2282  0.1481 -0.0134
  949MOL0     C27984   5.847   2.520  11.568 -0.4802  0.1355 -0.0648
  949MOL0     C27985   5.856   2.469  11.694 -0.0386 -0.8168 -0.6339
  949MOL0     C27986   5.775   2.526  11.797 -1.1530  0.9399 -0.0300
  949MOL0     C27987   5.663   2.593  11.755  0.3332 -0.3302  0.7441
  949MOL0     O27988   5.563   2.645  11.840 -0.9277 -0.3902 -0.4140
  949MOL0     C27989   5.612   2.680  11.967 -0.8384 -0.5756 -0.8839
  949MOL0     C27990   5.519   2.768  12.033  0.8095  0.3480  0.1287
  949MOL0     C27991   5.375   2.709  12.067 -0.7597 -0.3497 -0.4020
  949MOL0     C27992   5.274   2.823  12.094 -0.2183  0.2706 -0.3144
  949MOL0     C27993   5.140   2.780  12.136 -0.6443 -0.0463  0.6193
  949MOL0     C27994   5.061   2.908  12.163  0.1513 -0.1719 -0.0783
  949MOL0     C27995   4.934   2.893  12.251 -0.3991 -0.1814 -0.4895
  949MOL0     C27996   4.818   2.835  12.177  0.5298 -0.4320 -0.1815
  949MOL0     N27997   4.769   2.929  12.070 -1.1516  0.5780  0.0262
  949MOL0     C27998   4.694   3.042  12.093  0.4801  0.2618  0.4678
  949MOL0     C27999   4.669   3.086  11.969 -0.3992  1.0314 -0.1039
  949MOL0     C28000   4.598   3.217  11.925  0.0802 -0.8035  0.1307
  949MOL0     C28001   4.458   3.196  11.851 -0.8512 -0.0596 -0.2859
  949MOL0     C28002   4.370   3.092  11.919 -0.4629  0.0570 -0.5318
  949MOL0     C28003   4.242   3.065  11.852 -1.0370 -0.6271  0.6843
  949MOL0     O28004   4.191   2.952  11.922  0.0836  0.2780 -0.9918
  949MOL0     C28005   4.083   2.891  11.873 -0.1047 -0.3761 -1.0258
  949MOL0     C28006   4.026   2.916  11.752  0.2366  0.1558 -0.6366
  949MOL0     C28007   3.909   2.856  11.711  0.3898 -0.2702  1.2416
  949MOL0     C28008   3.840   2.911  11.581 -0.2701  0.8880 -0.6430
  949MOL0     C28009   3.853   2.756  11.792 -0.5012  0.9826 -0.9949
  949MOL0     C28010   3.745   2.659  11.744 -0.2931 -1.5339 -0.4579
  949MOL0     O28011   3.722   2.648  11.607  0.2580  0.1381  0.4080
  949MOL0     C28012   3.611   2.581  11.559 -0.4876 -0.1233 -0.6036
  949MOL0     C28013   3.516   2.655  11.497  0.6505  0.3553  0.1076
  949MOL0     C28014   3.416   2.586  11.432  0.9947  0.0488 -0.6438
  949MOL0     C28015   3.382   2.448  11.458 -0.7210  0.1468 -0.1210
  949MOL0     O28016   3.290   2.384  11.379 -0.1608 -0.3436 -0.0468
  949MOL0     C28017   3.271   2.430  11.237  0.8779 -0.5727 -0.9255
  949MOL0     C28018   3.309   2.315  11.145 -0.2436 -0.8963  0.2319
  949MOL0     C28019   3.459   2.280  11.158  0.0539 -0.1013  0.5622
  949MOL0     C28020   3.500   2.160  11.063 -0.9631  0.3150  0.2035
  949MOL0     C28021   3.415   2.036  11.068 -0.4035  0.4903  0.2721
  949MOL0     C28022   3.476   1.912  11.010 -0.5195 -0.0676  0.1777
  949MOL0     C28023   3.416   1.791  11.086  0.3001  0.3189 -0.8675
  949MOL0     C28024   3.273   1.754  11.039 -0.5339 -0.8517 -0.4532
  949MOL0    Cl28025   3.262   1.716  10.864  0.2680 -0.3687  0.1235
  949MOL0     C28026   3.470   2.385  11.541  0.2545 -0.2190 -0.1515
  949MOL0     C28027   3.589   2.449  11.591  1.3318 -0.3231  0.5195
  949MOL0     O28028   3.669   2.626  11.827  0.1869 -0.1640 -0.3966
  949MOL0     C28029   3.906   2.738  11.920  0.1794  0.0350  0.3850
  949MOL0     C28030   4.018   2.813  11.963  1.3316  0.1567 -0.6953
  949MOL0     N28031   4.757   3.019  11.882  0.3070 -0.6915  0.2988
  949MOL0     N28032   4.812   2.936  11.944  0.2211  0.3865  0.1872
  949MOL0     C28033   5.657   2.650  11.628 -0.0495 -0.8035  0.0876
  949MOL0     C28034   5.749   2.611  11.533 -0.5573  0.6265 -0.2015
  949MOL0     C28035   6.091   2.359  11.326 -0.1715 -0.6856  0.3083
  949MOL0     C28036   6.163   2.244  11.320  0.7430  0.1476  0.3049
  949MOL0     C28037   6.216   2.203  11.196  0.6853  0.5575 -0.7889
  949MOL0     C28038   6.196   2.289  11.079  1.1120 -0.1074  0.2802
  949MOL0     O28039   6.247   2.255  10.950  0.1975 -0.0945 -0.4991
  949MOL0     C28040   6.199   2.320  10.835  0.1636  0.3444 -0.2090
  949MOL0     C28041   6.224   2.229  10.716 -0.1203  0.0211 -0.4921
  949MOL0     C28042   6.149   2.300  10.607 -0.0889 -0.2276  0.2049
  949MOL0     C28043   6.188   2.242  10.477 -0.4259  0.4486  0.2910
  949MOL0     C28044   6.160   2.097  10.477  0.1489  0.7842 -0.7200
  949MOL0     C28045   6.152   1.973  10.478  0.5710  0.6933 -1.3622
  949MOL0     C28046   6.121   2.407  11.089 -0.7485 -0.6745 -0.0076
  949MOL0     C28047   6.068   2.442  11.213  0.0917 -0.1637  1.0101
  949MOL0     H28048   5.935   2.404  11.731 -0.4189  1.0231  4.1445
  949MOL0     H28049   5.793   2.507  11.902  1.5883 -1.2626 -0.7549
  949MOL0     H28050   5.636   2.596  12.034  0.8498  1.2592  0.9355
  949MOL0     H28051   5.708   2.732  11.961  0.7795 -3.2974 -0.7118
  949MOL0     H28052   5.560   2.810  12.125 -2.0765  2.4101  0.5950
  949MOL0     H28053   5.507   2.854  11.966 -0.8507 -0.2122 -0.3368
  949MOL0     H28054   5.347   2.649  11.980  1.0174 -0.0321 -1.2422
  949MOL0     H28055   5.397   2.641  12.150 -2.8228 -0.9258 -0.2861
  949MOL0     H28056   5.322   2.880  12.175  1.4162 -1.4383 -0.0199
  949MOL0     H28057   5.267   2.889  12.007  0.8311  0.1770 -0.4803
  949MOL0     H28058   5.106   2.731  12.045  1.9879  0.0667 -0.5265
  949MOL0     H28059   5.143   2.709  12.219 -3.0061 -2.7987 -1.4635
  949MOL0     H28060   5.127   2.969  12.225  1.1868 -0.6224 -0.7208
  949MOL0     H28061   5.048   2.946  12.062 -1.3469 -2.6096 -0.9005
  949MOL0     H28062   4.958   2.818  12.327 -1.0447 -0.3340 -0.4330
  949MOL0     H28063   4.916   2.987  12.303 -0.2418  0.0838 -0.9176
  949MOL0     H28064   4.747   2.800  12.253  1.9765 -0.5228  1.1756
  949MOL0     H28065   4.856   2.743  12.133 -0.5104 -0.2222 -1.5965
  949MOL0     H28066   4.647   3.068  12.187  0.3841 -0.0762  0.5153
  949MOL0     H28067   4.585   3.278  12.014 -2.3196 -0.5160 -0.3406
  949MOL0     H28068   4.655   3.268  11.846 -1.5267  1.1134  0.1303
  949MOL0     H28069   4.469   3.156  11.750  0.2403  0.1430 -0.2536
  949MOL0     H28070   4.411   3.293  11.833  1.8517  1.4053  0.0439
  949MOL0     H28071   4.358   3.122  12.024  0.1648 -0.1540 -0.3939
  949MOL0     H28072   4.429   3.000  11.923  3.1832  2.2383  1.2799
  949MOL0     H28073   4.266   3.042  11.748 -2.0200 -2.2151  0.7727
  949MOL0     H28074   4.170   3.147  11.851  0.1544  0.5126  2.9120
  949MOL0     H28075   4.071   2.992  11.689  0.5031  0.0035 -0.6322
  949MOL0     H28076   3.881   3.007  11.551 -1.2884  2.3116  2.1416
  949MOL0     H28077   3.871   2.843  11.501 -0.2617 -0.6008  0.5585
  949MOL0     H28078   3.731   2.922  11.587 -0.6366  1.9611 -5.5308
  949MOL0     H28079   3.510   2.763  11.490 -1.2875  0.4191  1.8314
  949MOL0     H28080   3.341   2.637  11.373 -3.8398 -4.0719  1.2293
  949MOL0     H28081   3.165   2.447  11.216  0.9683  1.1438 -0.1468
  949MOL0     H28082   3.329   2.516  11.202  0.7955 -0.7363 -1.4574
  949MOL0     H28083   3.249   2.230  11.179 -0.6010 -0.1847  1.4557
  949MOL0     H28084   3.274   2.332  11.043 -0.9654 -0.5407  0.5294
  949MOL0     H28085   3.499   2.245  11.253 -1.9175 -3.2542  0.3821
  949MOL0     H28086   3.513   2.363  11.111 -0.1477 -0.3089 -0.0575
  949MOL0     H28087   3.491   2.199  10.961 -3.6880  3.2619  1.4170
  949MOL0     H28088   3.602   2.138  11.095 -1.1478  1.3141  1.5562
  949MOL0     H28089   3.321   2.068  11.021 -0.1194  0.7521 -0.1216
  949MOL0     H28090   3.399   2.025  11.176  1.0218  1.0881  0.5717
  949MOL0     H28091   3.449   1.903  10.904  0.4427  1.4152 -0.2379
  949MOL0     H28092   3.585   1.913  11.019 -0.2595  0.9964 -2.1248
  949MOL0     H28093   3.417   1.811  11.194  2.2405  4.0936 -1.3918
  949MOL0     H28094   3.485   1.711  11.059  0.6220 -0.3895  1.7363
  949MOL0     H28095   3.208   1.841  11.048 -0.3517 -0.5577 -1.7671
  949MOL0     H28096   3.241   1.674  11.106  2.6033 -2.2710 -0.4589
  949MOL0     H28097   3.463   2.281  11.570 -0.4523 -0.3610 -0.8190
  949MOL0     H28098   3.664   2.408  11.657  1.1366  0.1870  1.0650
  949MOL0     H28099   3.858   2.666  11.985  2.1016  1.0194  3.0689
  949MOL0     H28100   4.053   2.821  12.065  1.3011  3.1594 -0.8305
  949MOL0     H28101   5.592   2.732  11.600  0.2883 -0.5552  0.0087
  949MOL0     H28102   5.753   2.659  11.436  0.7157  3.2357  1.0441
  949MOL0     H28103   6.184   2.189  11.411 -1.9212 -1.6407 -0.0265
  949MOL0     H28104   6.270   2.109  11.191 -1.2817 -0.6868  0.0607
  949MOL0     H28105   6.090   2.324  10.840  0.1015 -1.5991  1.2936
  949MOL0     H28106   6.252   2.414  10.819  0.3372  0.0064 -1.7661
  949MOL0     H28107   6.184   2.130  10.740 -1.1855  0.3468 -0.8539
  949MOL0     H28108   6.331   2.216  10.696  0.2728  0.6959  1.0485
  949MOL0     H28109   6.172   2.406  10.609 -2.1760  0.2777  0.0073
  949MOL0     H28110   6.041   2.287  10.624 -0.0968  0.0257  0.3497
  949MOL0     H28111   6.290   2.267  10.445 -0.0892 -2.4686 -1.2815
  949MOL0     H28112   6.126   2.303  10.411  1.5168  2.1169 -0.0753
  949MOL0     H28113   6.146   1.867  10.466  0.3582  0.7130 -1.4371
  949MOL0     H28114   6.107   2.480  11.010  2.6086  0.6300  0.4367
  949MOL0     H28115   6.014   2.536  11.222 -1.2185 -0.8168  0.2229
  950MOL0     O28116   0.394  10.882   6.201 -0.0839 -0.8189  0.4750
  950MOL0     C28117   0.427  10.790   6.122 -1.0816 -0.3478  0.1443
  950MOL0     O28118   0.458  10.805   5.985 -0.3607  0.1017 -0.6801
  950MOL0     C28119   0.426  10.913   5.908  0.5977  0.4111 -0.0268
  950MOL0     C28120   0.442  11.051   5.944  1.0776  0.0012 -0.5763
  950MOL0     C28121   0.406  11.158   5.858  0.5712  0.6939  0.0055
  950MOL0     C28122   0.370  11.124   5.727 -0.3526 -1.2225 -0.6783
  950MOL0     O28123   0.357  11.243   5.644 -0.3775 -0.5966 -0.3907
  950MOL0     C28124   0.328  11.217   5.508  0.6084 -1.1737  0.5522
  950MOL0     C28125   0.307  11.348   5.445 -0.3865 -0.6007  0.7585
  950MOL0     C28126   0.243  11.351   5.306  0.6871  0.0358  0.1132
  950MOL0     C28127   0.246  11.482   5.237  0.0984  0.0749 -0.0026
  950MOL0     C28128   0.159  11.470   5.105  0.4500  0.4522 -0.1001
  950MOL0     C28129   0.188  11.581   5.000 -0.0472  0.1945  0.7871
  950MOL0     C28130   0.141  11.716   5.049  0.5560  0.6940 -0.0851
  950MOL0     C28131   0.275  11.802   5.069  0.8479  0.0302  0.1664
  950MOL0     N28132   0.239  11.915   5.156  0.2584  0.0717  0.4560
  950MOL0     C28133   0.306  11.933   5.271 -0.5928  1.8467 -0.6100
  950MOL0     C28134   0.271  12.064   5.307  0.2492  0.5840  0.0668
  950MOL0     C28135   0.307  12.139   5.428 -0.4757  0.1695  0.2449
  950MOL0     C28136   0.281  12.053   5.551  0.8401 -0.5274  0.8067
  950MOL0     C28137   0.342  12.121   5.676 -0.0602  0.5601  0.5348
  950MOL0     C28138   0.261  12.237   5.735  0.1482 -0.0159 -0.1214
  950MOL0     O28139   0.356  12.342   5.755  0.0133 -0.0162 -0.2746
  950MOL0     C28140   0.314  12.456   5.821 -0.5292  0.5579  0.1162
  950MOL0     C28141   0.200  12.467   5.889 -0.3203 -0.7431  0.2373
  950MOL0     C28142   0.166  12.591   5.947 -0.0032 -0.0927  0.5402
  950MOL0     C28143   0.043  12.596   6.034  1.1489 -0.6999  0.5649
  950MOL0     C28144   0.255  12.703   5.937  0.5519  0.6648  0.4105
  950MOL0     C28145   0.236  12.836   6.002  0.6378 -0.8961 -0.1959
  950MOL0     O28146   0.314  12.936   5.948  0.3972 -0.2015 -0.1481
  950MOL0     C28147   0.279  13.065   5.976 -0.1835 -0.8233  0.0204
  950MOL0     C28148   0.336  13.127   6.086 -0.1596 -0.6682 -0.5281
  950MOL0     C28149   0.294  13.260   6.116 -0.2616 -0.7156 -0.3031
  950MOL0     C28150   0.208  13.329   6.041  0.7338  0.4195  1.2983
  950MOL0     O28151   0.170  13.455   6.071  0.6769 -0.2875 -0.7125
  950MOL0     C28152   0.082  13.534   5.997 -0.3374 -0.1475 -0.8875
  950MOL0     C28153   0.062  13.679   6.065 -0.2787 -0.2382 -0.0070
  950MOL0     C28154   0.192  13.769   6.066  1.0639 -0.4038  0.1603
  950MOL0     C28155   0.156  13.915   6.092  0.8152  1.0061 -0.1303
  950MOL0     C28156   0.265  14.019   6.100 -0.3410  0.9334  0.1515
  950MOL0     C28157   0.378  13.986   5.996 -0.3873 -0.1147  0.4926
  950MOL0     C28158   0.484  14.099   5.992 -0.4605  0.6436  0.7748
  950MOL0     C28159   0.608  14.081   5.904  0.0091  0.1164  1.0289
  950MOL0    Cl28160   0.704  13.937   5.944 -0.0408  0.3219 -0.5105
  950MOL0     C28161   0.152  13.263   5.923 -0.1711  0.2708 -0.8846
  950MOL0     C28162   0.182  13.131   5.897  0.0364 -0.2159  0.1911
  950MOL0     O28163   0.162  12.852   6.099  0.6111  0.1744 -0.0970
  950MOL0     C28164   0.383  12.681   5.870  0.7683  0.0745  0.1370
  950MOL0     C28165   0.404  12.560   5.808  0.1426  0.1336  0.1086
  950MOL0     N28166   0.184  12.109   5.215 -0.2169  0.2092  0.0954
  950MOL0     N28167   0.172  12.024   5.125  0.7620  0.7058 -0.1844
  950MOL0     C28168   0.358  10.992   5.689  0.1513  0.5044 -0.4889
  950MOL0     C28169   0.373  10.886   5.785 -0.6970 -0.4813 -0.0273
  950MOL0     C28170   0.478  10.663   6.175 -1.7000  0.0343 -1.2074
  950MOL0     C28171   0.506  10.649   6.312 -0.0981 -0.2111  0.0696
  950MOL0     C28172   0.532  10.525   6.368 -0.0951  0.4719 -0.4087
  950MOL0     C28173   0.562  10.408   6.294 -0.7886  0.3063  0.6468
  950MOL0     O28174   0.626  10.306   6.364  0.3489 -0.1419 -0.3341
  950MOL0     C28175   0.661  10.192   6.274 -0.0080  0.1930  0.6048
  950MOL0     C28176   0.774  10.105   6.335  0.1941  0.5371  0.8140
  950MOL0     C28177   0.805   9.979   6.243  0.2989 -0.6503  0.1823
  950MOL0     C28178   0.863   9.862   6.320 -0.0110  0.6508 -0.3925
  950MOL0     C28179   0.766   9.781   6.401  0.5861  0.0566  0.5137
  950MOL0     C28180   0.673   9.742   6.475  1.0388 -0.7823  0.5595
  950MOL0     C28181   0.527  10.419   6.158 -0.8995 -0.3095  0.5118
  950MOL0     C28182   0.484  10.546   6.097  0.2801  0.0556 -0.5275
  950MOL0     H28183   0.484  11.067   6.043  2.1386 -3.4793 -0.3065
  950MOL0     H28184   0.428  11.261   5.883  3.8816  1.1833 -3.8616
  950MOL0     H28185   0.404  11.156   5.459  1.2372  1.2210 -1.6341
  950MOL0     H28186   0.225  11.180   5.495 -0.6598  2.4842 -1.2664
  950MOL0     H28187   0.271  11.419   5.520  2.0908  0.0739  1.3966
  950MOL0     H28188   0.410  11.380   5.429 -0.7567  0.7285  0.9508
  950MOL0     H28189   0.293  11.289   5.230 -0.1264 -0.1453 -0.2853
  950MOL0     H28190   0.139  11.317   5.310  0.5605  0.4190  0.0747
  950MOL0     H28191   0.208  11.563   5.300  0.5077  1.6164 -1.6246
  950MOL0     H28192   0.352  11.498   5.216 -0.1833  0.4980 -1.2071
  950MOL0     H28193   0.173  11.370   5.065  0.2625 -0.3896  1.8520
  950MOL0     H28194   0.052  11.467   5.130 -0.2783  2.2045 -2.4930
  950MOL0     H28195   0.290  11.570   4.963  0.4496  0.1221  2.1319
  950MOL0     H28196   0.141  11.551   4.906 -1.1882 -0.4230  1.5312
  950MOL0     H28197   0.076  11.768   4.978  2.0090 -0.2369 -2.1990
  950MOL0     H28198   0.078  11.719   5.139  0.1875  0.0667 -0.3183
  950MOL0     H28199   0.304  11.836   4.969  2.0528 -0.9567  0.1660
  950MOL0     H28200   0.354  11.738   5.109 -0.7124 -0.4575  2.7211
  950MOL0     H28201   0.375  11.865   5.320  0.0386  2.2992 -0.8612
  950MOL0     H28202   0.413  12.167   5.416  0.1273 -1.3468  1.6518
  950MOL0     H28203   0.242  12.224   5.449  0.7262  0.7369  1.8962
  950MOL0     H28204   0.327  11.956   5.527 -3.5161 -3.0053  1.4414
  950MOL0     H28205   0.172  12.047   5.559  0.9550 -1.7971  1.7851
  950MOL0     H28206   0.440  12.148   5.636  0.0755 -2.8165 -1.9123
  950MOL0     H28207   0.347  12.042   5.751 -1.2176  1.5339  1.6743
  950MOL0     H28208   0.220  12.186   5.822 -4.2233  2.5330 -0.4237
  950MOL0     H28209   0.182  12.278   5.671 -0.9384 -2.0822 -0.1578
  950MOL0     H28210   0.129  12.385   5.897 -1.3736 -0.3408 -3.1539
  950MOL0     H28211   0.063  12.616   6.140  0.0677  3.6830  0.1381
  950MOL0     H28212  -0.033  12.671   6.007  1.5749 -0.0367  1.1563
  950MOL0     H28213  -0.022  12.511   6.012 -2.3958  1.0223  3.2722
  950MOL0     H28214   0.393  13.063   6.152  0.5706 -0.5185 -1.0089
  950MOL0     H28215   0.341  13.322   6.191 -0.1514  0.9012 -1.6473
  950MOL0     H28216   0.108  13.548   5.891  2.5202 -0.1402 -0.2689
  950MOL0     H28217  -0.015  13.484   5.986 -0.0728 -1.6480  2.5087
  950MOL0     H28218  -0.021  13.728   6.013 -0.8608 -2.0236 -0.8262
  950MOL0     H28219   0.035  13.665   6.170 -1.6298  0.3994 -0.2453
  950MOL0     H28220   0.234  13.763   5.965  1.1404 -1.1678  0.2269
  950MOL0     H28221   0.270  13.742   6.139  1.2632  0.3868  0.2501
  950MOL0     H28222   0.104  13.938   5.998  3.8618 -0.6795 -2.4116
  950MOL0     H28223   0.073  13.928   6.162  0.8290 -1.5102  0.4464
  950MOL0     H28224   0.306  14.005   6.201 -0.8245  0.3565  0.2760
  950MOL0     H28225   0.217  14.116   6.085 -0.8578  0.2364 -3.5106
  950MOL0     H28226   0.425  13.888   6.013 -0.1312  0.0733  0.8973
  950MOL0     H28227   0.337  13.986   5.895  1.1724  1.4010 -0.1866
  950MOL0     H28228   0.530  14.105   6.092  1.6987 -4.0949  0.3621
  950MOL0     H28229   0.443  14.196   5.963  0.5628  0.3838 -1.8215
  950MOL0     H28230   0.668  14.171   5.918 -0.5555  0.9317 -1.3393
  950MOL0     H28231   0.567  14.078   5.803 -1.8398  1.1133  1.7051
  950MOL0     H28232   0.084  13.323   5.863  0.0485  1.2054 -0.2426
  950MOL0     H28233   0.143  13.078   5.811  2.2209 -0.5278 -0.6640
  950MOL0     H28234   0.459  12.759   5.863 -0.6623  1.8935  3.0082
  950MOL0     H28235   0.496  12.551   5.751  0.9464  2.1085  1.0097
  950MOL0     H28236   0.344  10.967   5.585  0.6294  0.0897 -0.4587
  950MOL0     H28237   0.366  10.783   5.750  0.9505 -0.3712 -0.7288
  950MOL0     H28238   0.495  10.741   6.369  0.7025  0.8622 -1.4558
  950MOL0     H28239   0.543  10.512   6.475 -0.4631  1.8602 -0.1852
  950MOL0     H28240   0.579  10.126   6.244  0.8030 -2.1267  3.0356
  950MOL0     H28241   0.710  10.229   6.184 -1.0356 -1.2752 -0.6252
  950MOL0     H28242   0.730  10.073   6.430  0.6172 -3.2802 -0.1262
  950MOL0     H28243   0.867  10.154   6.365  1.4631 -2.7534  2.7517
  950MOL0     H28244   0.886  10.003   6.173 -1.5443  0.5756 -1.6779
  950MOL0     H28245   0.722   9.941   6.183 -1.1828 -1.1979  2.4866
  950MOL0     H28246   0.947   9.884   6.385  2.8544 -0.5430 -3.3885
  950MOL0     H28247   0.896   9.781   6.254  1.3524  1.2529 -0.4735
  950MOL0     H28248   0.597   9.706   6.541  1.1953 -0.9680  0.6402
  950MOL0     H28249   0.533  10.321   6.112  0.0274 -0.4792  0.9697
  950MOL0     H28250   0.477  10.555   5.989  0.9674  1.6199 -0.4646
  951MOL0     O28251   2.353   3.606   8.242  0.1917  1.1529 -0.2483
  951MOL0     C28252   2.382   3.648   8.349 -0.6404 -0.4471  0.3919
  951MOL0     O28253   2.510   3.684   8.396  0.8714  0.5070  0.4977
  951MOL0     C28254   2.628   3.675   8.332  0.3041  0.7743  0.6004
  951MOL0     C28255   2.740   3.695   8.415 -0.0546 -0.2378 -0.3438
  951MOL0     C28256   2.861   3.673   8.361 -0.6486  0.0328  0.1362
  951MOL0     C28257   2.876   3.642   8.224  0.9680  0.1877  0.8329
  951MOL0     O28258   2.994   3.651   8.159  0.0606 -0.8428 -0.4135
  951MOL0     C28259   3.121   3.663   8.235 -1.5925 -0.0546  1.0054
  951MOL0     C28260   3.215   3.601   8.127 -0.4732 -0.3614 -0.0774
  951MOL0     C28261   3.357   3.669   8.120 -1.1956  0.3513 -0.5739
  951MOL0     C28262   3.443   3.630   8.233 -0.4953 -0.3499 -0.1378
  951MOL0     C28263   3.596   3.668   8.199 -0.5055 -0.4041  0.3298
  951MOL0     C28264   3.691   3.640   8.311  0.4603  0.3382 -0.5674
  951MOL0     C28265   3.669   3.486   8.336 -0.8985 -0.4394 -0.0337
  951MOL0     C28266   3.786   3.419   8.405  0.2286 -0.4270  0.1473
  951MOL0     N28267   3.922   3.458   8.351  0.4754 -0.8683  0.3808
  951MOL0     C28268   3.955   3.491   8.217 -0.2635 -0.4096 -0.1169
  951MOL0     C28269   4.065   3.564   8.227 -0.0620  0.2894  0.6791
  951MOL0     C28270   4.158   3.610   8.124  1.1454 -0.7138  0.4886
  951MOL0     C28271   4.282   3.524   8.105  0.0310  0.1550 -0.3657
  951MOL0     C28272   4.369   3.589   7.998 -1.0170  0.4116  0.4257
  951MOL0     C28273   4.503   3.509   7.966 -0.2096  0.4119  0.1895
  951MOL0     O28274   4.586   3.517   8.086 -0.8496  0.1266 -0.1232
  951MOL0     C28275   4.716   3.492   8.056  0.6695 -0.8114 -0.5771
  951MOL0     C28276   4.781   3.368   8.092  0.4392  0.5686  0.1694
  951MOL0     C28277   4.908   3.328   8.045 -0.6882 -0.6201 -0.1652
  951MOL0     C28278   4.935   3.180   8.071 -0.4332 -0.0471  0.7322
  951MOL0     C28279   4.976   3.427   7.968  0.1813 -0.0461 -0.0340
  951MOL0     C28280   5.117   3.419   7.926  0.0149 -0.2014  0.1341
  951MOL0     O28281   5.192   3.327   7.986 -0.5310 -0.3955  0.3600
  951MOL0     C28282   5.320   3.306   7.929  1.1575  0.8420  0.1709
  951MOL0     C28283   5.339   3.206   7.849  0.5014  0.3497 -1.0397
  951MOL0     C28284   5.467   3.153   7.818  0.0573 -0.2581  0.4158
  951MOL0     C28285   5.594   3.218   7.857 -0.1188  0.5484  0.4153
  951MOL0     O28286   5.711   3.159   7.829 -0.0513  0.8465  0.1490
  951MOL0     C28287   5.799   3.237   7.750 -0.6572 -0.2688  0.3500
  951MOL0     C28288   5.946   3.177   7.763 -0.0989 -0.0846  1.5855
  951MOL0     C28289   5.981   3.048   7.690  1.2328  0.2153  0.4627
  951MOL0     C28290   6.133   3.026   7.676 -0.4034  0.4677 -0.5425
  951MOL0     C28291   6.196   3.091   7.554 -0.2013 -0.7290 -0.1792
  951MOL0     C28292   6.164   3.016   7.419  0.5478  0.2452 -0.1813
  951MOL0     C28293   6.272   3.043   7.320 -0.5951  1.0319  0.2339
  951MOL0     C28294   6.235   2.987   7.175  1.5919 -0.6432  0.0854
  951MOL0    Cl28295   6.091   3.081   7.107 -0.4217 -0.6168 -0.1425
  951MOL0     C28296   5.570   3.335   7.933 -0.0061  0.2773 -0.3294
  951MOL0     C28297   5.434   3.379   7.962 -0.5449  0.2035  0.2652
  951MOL0     O28298   5.154   3.491   7.835 -0.0200  1.3390 -0.6211
  951MOL0     C28299   4.906   3.545   7.925 -0.7975  0.4394  0.9597
  951MOL0     C28300   4.788   3.579   7.975 -0.3411  1.0068  0.5206
  951MOL0     N28301   4.110   3.574   8.358 -0.2389 -0.9951 -0.0264
  951MOL0     N28302   4.030   3.498   8.426  0.5547  0.6259  0.2216
  951MOL0     C28303   2.759   3.637   8.132  0.7561 -0.7878 -0.4674
  951MOL0     C28304   2.637   3.646   8.196 -0.3755 -0.0507  0.1590
  951MOL0     C28305   2.263   3.680   8.436 -1.4047  0.4780 -0.0386
  951MOL0     C28306   2.280   3.744   8.563 -0.0892  1.8405 -0.0751
  951MOL0     C28307   2.173   3.749   8.646 -0.3528 -0.8745  0.1167
  951MOL0     C28308   2.043   3.701   8.610 -0.5733  0.2007 -0.7447
  951MOL0     O28309   1.946   3.712   8.706 -0.0035  0.2445  0.2912
  951MOL0     C28310   1.805   3.681   8.670  0.4934  0.2279 -0.0168
  951MOL0     C28311   1.733   3.800   8.612 -0.3742  0.9285  0.5507
  951MOL0     C28312   1.721   3.937   8.686 -0.2888 -0.6352 -0.1699
  951MOL0     C28313   1.665   3.934   8.828 -0.5559  0.3053  0.6252
  951MOL0     C28314   1.529   3.879   8.832  0.5791 -0.1542  0.5566
  951MOL0     C28315   1.415   3.831   8.857 -0.0410 -0.2326 -0.0689
  951MOL0     C28316   2.022   3.645   8.485 -0.7285 -0.0554 -1.4520
  951MOL0     C28317   2.133   3.629   8.405 -0.6194 -0.2041  0.5802
  951MOL0     H28318   2.727   3.722   8.520  1.0302 -2.9927  0.5900
  951MOL0     H28319   2.953   3.691   8.416 -1.5642  2.7139  0.9716
  951MOL0     H28320   3.146   3.766   8.261 -3.0447  0.4546  0.4944
  951MOL0     H28321   3.131   3.612   8.331  0.0849  1.7113  1.8186
  951MOL0     H28322   3.233   3.494   8.138 -1.6121 -0.7440 -1.5512
  951MOL0     H28323   3.164   3.619   8.032 -2.9092 -1.4196  0.9544
  951MOL0     H28324   3.399   3.648   8.021 -0.1256 -2.2770  0.3582
  951MOL0     H28325   3.327   3.774   8.132  0.9256  1.3071 -2.6562
  951MOL0     H28326   3.420   3.683   8.325  1.4105 -2.3833  1.6180
  951MOL0     H28327   3.435   3.523   8.253 -3.0294  0.1041  1.8935
  951MOL0     H28328   3.631   3.639   8.100  1.9536  2.6630  0.1536
  951MOL0     H28329   3.595   3.777   8.185 -0.1237  0.0048  2.9907
  951MOL0     H28330   3.794   3.675   8.298 -0.4413  2.7108 -2.1182
  951MOL0     H28331   3.651   3.688   8.401  0.6913 -2.0244  0.8573
  951MOL0     H28332   3.584   3.481   8.405 -0.9057  4.1651  0.6500
  951MOL0     H28333   3.647   3.438   8.241 -2.3562  0.8650 -0.3872
  951MOL0     H28334   3.771   3.315   8.375 -0.2632  0.8758 -5.2069
  951MOL0     H28335   3.788   3.438   8.512  1.2588  2.3497 -0.2871
  951MOL0     H28336   3.905   3.456   8.127 -1.0768  0.6585 -0.1064
  951MOL0     H28337   4.102   3.618   8.031  0.2786  1.7750  1.1461
  951MOL0     H28338   4.188   3.712   8.148  3.7687 -2.0021  3.4304
  951MOL0     H28339   4.249   3.423   8.078  1.4291 -0.0963 -1.2391
  951MOL0     H28340   4.350   3.511   8.190  0.7932  1.6267 -0.7223
  951MOL0     H28341   4.392   3.691   8.032 -0.1350 -0.1379  1.5307
  951MOL0     H28342   4.310   3.583   7.906  0.9083 -5.0452 -0.8259
  951MOL0     H28343   4.548   3.553   7.876 -1.9172 -0.0624 -0.9667
  951MOL0     H28344   4.484   3.406   7.933  2.1800  0.5218 -1.8151
  951MOL0     H28345   4.719   3.300   8.149 -2.4747  3.5683  0.8974
  951MOL0     H28346   4.994   3.145   7.986 -1.9933  1.0461 -0.8737
  951MOL0     H28347   4.980   3.164   8.169  1.8819 -0.7264 -0.3623
  951MOL0     H28348   4.845   3.118   8.075 -0.3935 -0.2487 -0.8337
  951MOL0     H28349   5.245   3.157   7.828 -1.0593  3.8924 -3.1691
  951MOL0     H28350   5.463   3.056   7.769 -2.4183  0.7613 -1.6039
  951MOL0     H28351   5.768   3.235   7.646  1.9305  0.7416 -0.5280
  951MOL0     H28352   5.811   3.341   7.783  1.5325 -0.1864 -0.5024
  951MOL0     H28353   6.021   3.250   7.732  0.9662 -1.6526  0.3082
  951MOL0     H28354   5.963   3.148   7.868  0.2810 -1.8311  1.0682
  951MOL0     H28355   5.934   3.041   7.591  2.7433 -0.2041 -0.2520
  951MOL0     H28356   5.931   2.964   7.738  4.4719 -0.9587  2.1137
  951MOL0     H28357   6.184   3.066   7.764  1.3212 -1.1431 -0.7495
  951MOL0     H28358   6.146   2.918   7.675  1.2819  0.6420 -1.2609
  951MOL0     H28359   6.303   3.090   7.580 -0.7703  0.7007  2.5646
  951MOL0     H28360   6.157   3.192   7.540  1.6449 -0.0220 -0.6030
  951MOL0     H28361   6.161   2.908   7.435 -0.5834  0.1950 -0.6331
  951MOL0     H28362   6.068   3.050   7.379  0.7425 -0.4651 -1.2930
  951MOL0     H28363   6.365   3.001   7.360 -0.7096  2.0095  1.6105
  951MOL0     H28364   6.292   3.148   7.295 -0.4968  0.1537 -3.9306
  951MOL0     H28365   6.205   2.883   7.186  1.9152 -0.8471 -0.8224
  951MOL0     H28366   6.314   2.999   7.099  0.6960  0.5454 -0.7017
  951MOL0     H28367   5.654   3.397   7.963  0.1174 -0.1734  0.2726
  951MOL0     H28368   5.410   3.466   8.023 -2.4570  1.9234 -2.6760
  951MOL0     H28369   4.959   3.618   7.865 -0.3593  1.0835  2.0909
  951MOL0     H28370   4.736   3.664   7.931 -2.7462 -1.3503 -1.4747
  951MOL0     H28371   2.771   3.646   8.024  0.9128  2.9852 -0.2450
  951MOL0     H28372   2.553   3.641   8.128  0.1527 -0.1352 -0.5035
  951MOL0     H28373   2.382   3.773   8.585  0.2339 -0.4300  1.7156
  951MOL0     H28374   2.200   3.787   8.744  1.2575  3.3985 -1.7167
  951MOL0     H28375   1.788   3.590   8.612 -1.3288 -0.6028  1.6936
  951MOL0     H28376   1.747   3.659   8.760  0.3110  0.9639  0.0513
  951MOL0     H28377   1.642   3.757   8.571  0.8089 -1.1226 -0.1139
  951MOL0     H28378   1.791   3.815   8.521 -1.3583  1.3814 -0.0134
  951MOL0     H28379   1.674   4.013   8.623  0.1819  1.5753  1.9624
  951MOL0     H28380   1.821   3.981   8.695 -1.5731  3.2019 -2.4149
  951MOL0     H28381   1.665   4.038   8.860  1.2933  0.9300 -1.1921
  951MOL0     H28382   1.725   3.877   8.900 -1.4945  1.9112  2.8292
  951MOL0     H28383   1.311   3.807   8.862 -0.9842  1.9644 -4.3618
  951MOL0     H28384   1.926   3.604   8.454 -2.3489  0.4890  2.3006
  951MOL0     H28385   2.122   3.577   8.311 -4.8794 -1.0905  1.3396
  952MOL0     O28386   6.635   1.363   3.619  0.3260 -0.5669 -0.4234
  952MOL0     C28387   6.613   1.329   3.502 -0.7850 -0.1358 -0.2233
  952MOL0     O28388   6.677   1.227   3.434 -0.2176  0.2926  0.5600
  952MOL0     C28389   6.754   1.128   3.497  0.5450  0.5543  0.4959
  952MOL0     C28390   6.817   1.121   3.631 -0.2994  0.0378  1.5617
  952MOL0     C28391   6.889   1.003   3.673  0.7720 -0.7311 -0.1493
  952MOL0     C28392   6.894   0.893   3.587 -0.6513 -1.1879  0.1967
  952MOL0     O28393   6.946   0.771   3.626 -0.0351 -0.4707 -0.7265
  952MOL0     C28394   7.060   0.772   3.723 -0.3816  0.3524  0.7765
  952MOL0     C28395   7.025   0.764   3.873  0.5332 -0.1039 -0.3622
  952MOL0     C28396   6.939   0.635   3.901  0.1181 -0.5347  1.0439
  952MOL0     C28397   6.925   0.612   4.050 -0.0479 -0.2684  0.5915
  952MOL0     C28398   6.869   0.482   4.093  0.5133  0.1535  0.2488
  952MOL0     C28399   6.827   0.490   4.245  0.6002  0.0933  0.7899
  952MOL0     C28400   6.746   0.361   4.276 -0.7082  0.1192  0.0506
  952MOL0     C28401   6.715   0.350   4.429  0.7305 -0.5679 -0.6774
  952MOL0     N28402   6.633   0.227   4.453 -0.5287  0.7799  0.1424
  952MOL0     C28403   6.500   0.240   4.447 -0.0968 -0.1531 -0.1451
  952MOL0     C28404   6.443   0.115   4.457  0.2117 -0.0136  1.2889
  952MOL0     C28405   6.300   0.075   4.462 -1.1526 -0.2064  1.1835
  952MOL0     C28406   6.277  -0.008   4.590 -0.1949  1.2391  0.3530
  952MOL0     C28407   6.128  -0.042   4.608 -0.2894  0.0415  0.3249
  952MOL0     C28408   6.117  -0.127   4.735  0.2297 -0.6398 -0.8844
  952MOL0     O28409   6.105  -0.039   4.848 -0.5233 -0.1218  0.9055
  952MOL0     C28410   6.001   0.049   4.868  0.3994 -0.0640 -0.8086
  952MOL0     C28411   5.872   0.034   4.809 -0.4184 -0.7880 -0.2448
  952MOL0     C28412   5.770   0.128   4.829  0.4079 -0.1880  0.8858
  952MOL0     C28413   5.629   0.094   4.790  0.0721 -0.8665  0.2936
  952MOL0     C28414   5.805   0.255   4.886  0.1624  0.2778  0.2386
  952MOL0     C28415   5.717   0.373   4.878 -0.7835 -0.5051 -0.1502
  952MOL0     O28416   5.733   0.459   4.985  0.1317 -0.3111 -0.0752
  952MOL0     C28417   5.659   0.573   4.976  0.5161 -0.2957 -0.5600
  952MOL0     C28418   5.542   0.583   5.045  0.3528  0.0258  0.4059
  952MOL0     C28419   5.477   0.701   5.060  0.4537 -1.0027 -0.3322
  952MOL0     C28420   5.520   0.823   5.007  1.0260  0.3802  0.3636
  952MOL0     O28421   5.458   0.944   5.026  0.1624 -0.0718 -0.5764
  952MOL0     C28422   5.550   1.053   5.034 -0.3853  0.2913  0.0011
  952MOL0     C28423   5.561   1.112   5.171 -0.3530  0.2416  0.3182
  952MOL0     C28424   5.670   1.219   5.186  0.2374 -0.1638 -0.4345
  952MOL0     C28425   5.673   1.290   5.322  0.4137  0.0245  0.7304
  952MOL0     C28426   5.788   1.397   5.323 -0.2798 -0.1397 -1.2707
  952MOL0     C28427   5.796   1.458   5.465 -0.6402 -0.5637  0.3822
  952MOL0     C28428   5.856   1.369   5.567  0.0835 -0.2797  0.5456
  952MOL0     C28429   5.993   1.313   5.538 -0.3945  0.2724 -1.0403
  952MOL0    Cl28430   6.115   1.421   5.463 -0.2415 -0.0447 -0.2394
  952MOL0     C28431   5.614   0.800   4.902 -1.0391  0.3766  0.1131
  952MOL0     C28432   5.696   0.683   4.900  0.6906 -1.1289  0.2525
  952MOL0     O28433   5.643   0.391   4.779  0.1496 -0.0171 -0.3765
  952MOL0     C28434   5.932   0.264   4.952  0.2500  0.7710  0.6823
  952MOL0     C28435   6.027   0.154   4.938 -0.1327 -0.0174 -0.4011
  952MOL0     N28436   6.547   0.028   4.471 -0.5144  1.1763 -0.6355
  952MOL0     N28437   6.665   0.097   4.487  0.8255  0.2945 -0.4397
  952MOL0     C28438   6.850   0.908   3.458 -0.8264 -0.5202 -0.2633
  952MOL0     C28439   6.778   1.015   3.414 -0.4929  0.4745  0.1856
  952MOL0     C28440   6.533   1.422   3.413  0.1570 -0.3361 -0.1355
  952MOL0     C28441   6.499   1.386   3.284  0.7760 -0.4902  0.1707
  952MOL0     C28442   6.422   1.475   3.210 -0.3731  0.1923 -0.3785
  952MOL0     C28443   6.388   1.603   3.259  0.0946  0.6777 -0.7349
  952MOL0     O28444   6.295   1.685   3.204  0.4379 -0.0797 -0.4835
  952MOL0     C28445   6.292   1.697   3.064  0.2292  0.0470 -0.0118
  952MOL0     C28446   6.399   1.808   3.029  0.2865  0.5194 -0.7740
  952MOL0     C28447   6.361   1.949   3.085 -0.3988  0.0370  0.4029
  952MOL0     C28448   6.296   2.030   2.981  0.2066  0.2506 -0.8276
  952MOL0     C28449   6.286   2.162   3.020  0.6208 -0.2540  0.1103
  952MOL0     C28450   6.307   2.273   3.064  0.2395 -0.4669 -0.1612
  952MOL0     C28451   6.430   1.639   3.391  0.8542 -1.1851 -0.1719
  952MOL0     C28452   6.513   1.552   3.461  0.1181 -0.5021  0.6496
  952MOL0     H28453   6.788   1.200   3.700  0.4540  0.9355  0.8855
  952MOL0     H28454   6.908   0.987   3.779  0.3833  0.1487  0.0627
  952MOL0     H28455   7.129   0.691   3.696 -0.8304  0.1774  0.1092
  952MOL0     H28456   7.117   0.863   3.701 -0.5803  0.3395  0.1716
  952MOL0     H28457   7.110   0.764   3.942 -2.8921  3.4018  4.6226
  952MOL0     H28458   6.969   0.854   3.904 -2.0165 -1.3718 -0.9940
  952MOL0     H28459   6.843   0.637   3.849 -0.2550 -3.9621  1.4101
  952MOL0     H28460   6.989   0.550   3.854 -2.3797 -0.5665 -1.8197
  952MOL0     H28461   7.025   0.627   4.093  0.9262  0.3960 -1.7216
  952MOL0     H28462   6.865   0.689   4.099 -0.3152 -0.5909  0.7727
  952MOL0     H28463   6.784   0.465   4.025  0.1237  0.7767  0.5689
  952MOL0     H28464   6.934   0.395   4.079  1.7531  1.2633 -1.2235
  952MOL0     H28465   6.915   0.500   4.309  0.4372  0.8843  0.9097
  952MOL0     H28466   6.767   0.580   4.263  0.7173 -0.0040  1.7127
  952MOL0     H28467   6.649   0.360   4.226 -0.6486  0.2954 -0.0691
  952MOL0     H28468   6.806   0.274   4.247 -0.1767 -2.0209  6.1458
  952MOL0     H28469   6.657   0.433   4.470 -2.0429 -1.7431 -1.9283
  952MOL0     H28470   6.804   0.349   4.492 -1.4690  1.7119  2.8294
  952MOL0     H28471   6.446   0.332   4.428  0.0016 -0.0519  0.0728
  952MOL0     H28472   6.239   0.166   4.452 -1.4656 -0.6594 -4.0962
  952MOL0     H28473   6.275   0.021   4.370  0.0532  1.6687 -0.3254
  952MOL0     H28474   6.332   0.028   4.677 -0.5290 -1.2682  1.6995
  952MOL0     H28475   6.334  -0.096   4.558  1.5020  2.3154  0.3162
  952MOL0     H28476   6.088  -0.086   4.516  0.5956  1.2607 -0.6715
  952MOL0     H28477   6.075   0.053   4.613  3.6693  2.5263 -0.7226
  952MOL0     H28478   6.200  -0.197   4.751  0.2214 -0.9718 -2.1483
  952MOL0     H28479   6.036  -0.199   4.721 -1.4944  1.3548 -1.7699
  952MOL0     H28480   5.856  -0.057   4.752 -0.4041 -0.4130 -0.8584
  952MOL0     H28481   5.628  -0.016   4.790  2.3486 -0.9626 -0.7093
  952MOL0     H28482   5.563   0.133   4.868  0.1768 -0.3511  0.1299
  952MOL0     H28483   5.596   0.140   4.696 -0.8538 -1.7589  0.1649
  952MOL0     H28484   5.509   0.496   5.100  3.2048 -1.3195  0.1105
  952MOL0     H28485   5.386   0.703   5.119  1.4667  3.6364  1.4981
  952MOL0     H28486   5.654   1.030   5.009  0.0653 -3.1299  3.9366
  952MOL0     H28487   5.521   1.135   4.967  3.1481  1.2835 -0.5006
  952MOL0     H28488   5.466   1.160   5.195  0.4002  1.9956 -0.0420
  952MOL0     H28489   5.574   1.039   5.252 -4.4424 -1.8163 -0.6367
  952MOL0     H28490   5.641   1.300   5.119  0.5769  2.0227  1.9201
  952MOL0     H28491   5.765   1.167   5.169  0.1455 -0.3706 -0.3175
  952MOL0     H28492   5.574   1.335   5.340 -1.1688 -1.7371 -2.5979
  952MOL0     H28493   5.698   1.217   5.400 -0.7292 -2.3182 -0.9651
  952MOL0     H28494   5.755   1.475   5.254 -4.6823  2.6588  3.2489
  952MOL0     H28495   5.888   1.369   5.290  0.8672 -0.8949  2.3295
  952MOL0     H28496   5.861   1.545   5.471  0.0241 -1.0998  1.1211
  952MOL0     H28497   5.697   1.493   5.497 -0.8501  0.3589 -1.1493
  952MOL0     H28498   5.790   1.285   5.591  2.9028 -2.2670  1.8507
  952MOL0     H28499   5.863   1.416   5.665  0.5914  0.5037  0.1510
  952MOL0     H28500   5.970   1.226   5.476 -0.6663 -0.6417  0.2895
  952MOL0     H28501   6.028   1.255   5.624 -1.0843 -0.8133 -1.4625
  952MOL0     H28502   5.634   0.885   4.837 -2.8783  1.2428  0.6168
  952MOL0     H28503   5.774   0.691   4.825  1.3306  0.6002  1.0453
  952MOL0     H28504   5.973   0.354   4.996  0.8852  2.0836 -2.3421
  952MOL0     H28505   6.125   0.156   4.984  0.4708 -1.6507 -1.5073
  952MOL0     H28506   6.865   0.834   3.380 -0.3727 -0.1911 -0.4933
  952MOL0     H28507   6.738   1.019   3.313 -2.1667  2.1550  0.8663
  952MOL0     H28508   6.522   1.294   3.231  1.5907 -0.7087  0.8915
  952MOL0     H28509   6.386   1.441   3.113 -6.1385  2.6443  0.5052
  952MOL0     H28510   6.323   1.606   3.012  3.0892  1.1259 -0.3739
  952MOL0     H28511   6.188   1.709   3.030 -0.3935  3.0012  2.4709
  952MOL0     H28512   6.404   1.811   2.920 -0.0813  1.6623 -0.7728
  952MOL0     H28513   6.501   1.782   3.060  0.1568 -0.7340 -1.3288
  952MOL0     H28514   6.446   1.996   3.135 -0.6422 -2.5364  3.5765
  952MOL0     H28515   6.283   1.957   3.161  0.3340  2.9048  0.9761
  952MOL0     H28516   6.194   1.991   2.969 -1.3629  3.0417  2.1422
  952MOL0     H28517   6.344   2.016   2.883 -0.6336  1.0964 -1.3716
  952MOL0     H28518   6.320   2.372   3.102 -0.7159  0.6410 -2.4781
  952MOL0     H28519   6.404   1.738   3.426 -2.4975 -2.3481  1.0455
  952MOL0     H28520   6.556   1.590   3.553 -0.4356  2.4579 -0.2106
  953MOL0     O28521  10.338   4.878   5.436 -0.3731 -0.0733  0.0378
  953MOL0     C28522  10.363   4.760   5.410  0.3269 -0.2277  0.1754
  953MOL0     O28523  10.399   4.670   5.497  0.3238  0.5837  0.2570
  953MOL0     C28524  10.422   4.715   5.619 -0.0376  0.3005 -1.1277
  953MOL0     C28525  10.547   4.785   5.627 -0.3441 -0.0715 -0.1497
  953MOL0     C28526  10.607   4.797   5.757 -0.5162 -0.3140 -0.4618
  953MOL0     C28527  10.531   4.766   5.872 -0.2648 -0.5658  0.7907
  953MOL0     O28528  10.571   4.778   5.999  0.0315 -0.2744  0.7291
  953MOL0     C28529  10.672   4.881   6.019  0.1898  0.1447 -1.2344
  953MOL0     C28530  10.811   4.816   6.017 -0.1905 -0.4790  0.6486
  953MOL0     C28531  10.908   4.925   6.068 -0.6328 -0.0870  0.7770
  953MOL0     C28532  10.918   4.914   6.216  0.7580 -0.0539  0.6646
  953MOL0     C28533  11.027   5.003   6.268 -0.1832 -1.1289  0.8131
  953MOL0     C28534  10.980   5.155   6.285 -1.0241  0.6861 -0.4218
  953MOL0     C28535  11.093   5.242   6.347 -0.2348  0.5254 -0.4629
  953MOL0     C28536  11.125   5.366   6.264  0.2914 -1.2159 -0.1173
  953MOL0     N28537  11.213   5.336   6.152 -0.3112 -0.8960 -0.0702
  953MOL0     C28538  11.350   5.302   6.132 -0.1303  0.0760  0.6339
  953MOL0     C28539  11.380   5.352   6.012 -0.0084 -0.1734 -0.2088
  953MOL0     C28540  11.503   5.322   5.933  1.0635  0.1622 -0.5209
  953MOL0     C28541  11.648   5.308   6.007  0.7177 -0.4852  0.4338
  953MOL0     C28542  11.762   5.306   5.896  0.2599 -0.4329 -0.0486
  953MOL0     C28543  11.887   5.238   5.946 -1.3824 -0.8560 -0.8058
  953MOL0     O28544  11.869   5.091   5.946 -0.9765 -0.4998 -0.2297
  953MOL0     C28545  11.899   5.023   5.833 -0.5289  0.2513  0.0977
  953MOL0     C28546  11.926   4.886   5.851  0.0538 -0.3443 -0.0191
  953MOL0     C28547  11.944   4.798   5.743  0.1032  0.3455 -0.0466
  953MOL0     C28548  11.944   4.650   5.769  0.4833 -0.5059  0.5739
  953MOL0     C28549  11.952   4.858   5.610 -0.5079 -0.2317 -0.5198
  953MOL0     C28550  11.965   4.783   5.489 -0.4096 -0.3853 -0.5340
  953MOL0     O28551  11.858   4.794   5.409  0.5391  0.3167  0.2596
  953MOL0     C28552  11.842   4.719   5.302 -0.5993 -0.3252 -0.6092
  953MOL0     C28553  11.945   4.698   5.203 -0.4269 -0.3820  0.3509
  953MOL0     C28554  11.925   4.604   5.103 -0.8379  0.1515 -0.3466
  953MOL0     C28555  11.807   4.540   5.084  0.1408 -0.9245  0.6876
  953MOL0     O28556  11.788   4.449   4.986  0.6173  0.4291  0.0401
  953MOL0     C28557  11.838   4.472   4.857 -0.4294 -0.4550  0.0073
  953MOL0     C28558  11.765   4.413   4.737  0.3195 -0.0283  0.3704
  953MOL0     C28559  11.688   4.288   4.774 -0.2403 -0.1466  0.4183
  953MOL0     C28560  11.619   4.231   4.650  0.4818  0.1627  0.3756
  953MOL0     C28561  11.619   4.078   4.627  0.8960  0.1773 -0.5008
  953MOL0     C28562  11.549   4.002   4.749 -0.2683 -0.7908 -0.5447
  953MOL0     C28563  11.513   3.855   4.724 -0.0500 -0.3370 -0.2151
  953MOL0     C28564  11.623   3.755   4.690 -0.9003  0.6261 -0.0016
  953MOL0    Cl28565  11.743   3.760   4.822 -0.6388 -0.5651  0.1079
  953MOL0     C28566  11.708   4.566   5.175  0.8511  0.0638 -0.0179
  953MOL0     C28567  11.719   4.654   5.281  0.2927 -0.0871  0.1225
  953MOL0     O28568  12.058   4.705   5.480  0.1566 -0.3432  0.0153
  953MOL0     C28569  11.936   4.998   5.596 -0.1886  0.0936 -0.5525
  953MOL0     C28570  11.902   5.072   5.707  0.1402  0.0225 -0.0148
  953MOL0     N28571  11.264   5.399   5.954 -0.0819  0.3639 -0.4346
  953MOL0     N28572  11.171   5.388   6.037 -0.2078  0.0860 -0.4039
  953MOL0     C28573  10.400   4.713   5.857  0.7377 -0.3469  0.1827
  953MOL0     C28574  10.353   4.674   5.733  0.1928  0.0950 -0.5698
  953MOL0     C28575  10.365   4.730   5.263  0.1210 -0.2460  0.8458
  953MOL0     C28576  10.325   4.834   5.165  0.1334  0.6531 -0.0204
  953MOL0     C28577  10.330   4.799   5.026  0.5585 -0.3569  0.0087
  953MOL0     C28578  10.375   4.673   4.986 -0.3635  0.5810  0.7554
  953MOL0     O28579  10.394   4.627   4.853 -0.0266 -0.7779 -0.3070
  953MOL0     C28580  10.332   4.714   4.761 -0.1722  0.7577  0.6231
  953MOL0     C28581  10.329   4.638   4.627  0.4774  0.1629  0.8704
  953MOL0     C28582  10.460   4.564   4.591  1.2779 -0.0324  0.1433
  953MOL0     C28583  10.453   4.476   4.468 -0.6742 -0.0462  0.3754
  953MOL0     C28584  10.496   4.559   4.361  0.1388  0.6848  0.8673
  953MOL0     C28585  10.541   4.635   4.280 -0.0166 -1.1231  0.6963
  953MOL0     C28586  10.418   4.580   5.077 -0.7504  0.2290 -0.7925
  953MOL0     C28587  10.406   4.606   5.213 -0.7832  0.3884  0.1866
  953MOL0     H28588  10.589   4.836   5.541 -0.4982 -0.5089 -0.4840
  953MOL0     H28589  10.693   4.863   5.764  0.0015 -1.0583  0.3067
  953MOL0     H28590  10.675   4.956   5.939  1.6347 -0.6663 -1.9816
  953MOL0     H28591  10.649   4.935   6.112  1.7880  1.2750 -1.4545
  953MOL0     H28592  10.799   4.730   6.084  2.4337 -0.7509  0.8640
  953MOL0     H28593  10.842   4.776   5.920 -2.1623 -4.0164  1.2997
  953MOL0     H28594  11.008   4.926   6.025 -1.4313 -0.3547 -1.1611
  953MOL0     H28595  10.860   5.023   6.060 -3.1165 -1.1534  1.4115
  953MOL0     H28596  10.825   4.937   6.270  0.3906  0.8717 -0.3351
  953MOL0     H28597  10.932   4.810   6.246 -0.3741 -0.6588 -0.8178
  953MOL0     H28598  11.047   4.976   6.372 -0.4114 -1.5073  0.7612
  953MOL0     H28599  11.110   5.001   6.197  0.7702  0.3758  1.8327
  953MOL0     H28600  10.959   5.189   6.183  0.2919 -0.9887 -1.2918
  953MOL0     H28601  10.888   5.163   6.345 -0.6675 -0.7820  0.3631
  953MOL0     H28602  11.053   5.278   6.442 -2.6108 -4.9182  0.9707
  953MOL0     H28603  11.187   5.191   6.373 -0.3008  0.8723  0.4952
  953MOL0     H28604  11.180   5.435   6.328  1.7613 -1.1870 -1.3579
  953MOL0     H28605  11.031   5.412   6.231  1.6551  1.5356 -0.4863
  953MOL0     H28606  11.424   5.252   6.194 -0.3840 -0.4235  0.5377
  953MOL0     H28607  11.470   5.231   5.882 -0.5349  1.8790 -2.7352
  953MOL0     H28608  11.509   5.400   5.857  2.0878 -1.8294 -2.6063
  953MOL0     H28609  11.639   5.210   6.055 -1.7266  0.1205  1.4005
  953MOL0     H28610  11.642   5.392   6.076  1.4201  0.8466 -1.0601
  953MOL0     H28611  11.779   5.407   5.856 -1.5821  0.7156  1.8478
  953MOL0     H28612  11.723   5.241   5.817  2.2830  0.0436 -1.5433
  953MOL0     H28613  11.924   5.277   6.041 -1.2550  0.6826 -1.4617
  953MOL0     H28614  11.968   5.260   5.876  0.2435 -2.5867  0.4351
  953MOL0     H28615  11.910   4.854   5.953  0.2280  0.6815  0.3448
  953MOL0     H28616  11.860   4.620   5.832 -1.2558 -2.2394 -2.3338
  953MOL0     H28617  11.936   4.595   5.675  0.5727 -1.4204  1.0889
  953MOL0     H28618  12.027   4.616   5.832  0.3323 -5.1801 -1.3565
  953MOL0     H28619  12.045   4.741   5.213 -0.0456  0.6746 -4.9743
  953MOL0     H28620  12.017   4.573   5.053 -1.1261 -1.4929  0.1178
  953MOL0     H28621  11.845   4.580   4.843  1.6475 -0.7703 -1.8642
  953MOL0     H28622  11.940   4.435   4.859  0.1119  0.9962  0.8059
  953MOL0     H28623  11.694   4.478   4.687  0.5742 -0.6725 -0.8790
  953MOL0     H28624  11.840   4.386   4.662 -0.7593 -1.8429 -0.1138
  953MOL0     H28625  11.615   4.303   4.854 -1.5955  0.3698 -0.8737
  953MOL0     H28626  11.766   4.218   4.807  1.8863  1.1551 -1.5511
  953MOL0     H28627  11.514   4.263   4.652 -0.2392 -1.4094 -3.0809
  953MOL0     H28628  11.664   4.281   4.563 -0.4772  0.3837 -0.0039
  953MOL0     H28629  11.722   4.046   4.609  1.7102  0.6550  2.6656
  953MOL0     H28630  11.548   4.063   4.546 -0.4875  0.1065  0.6954
  953MOL0     H28631  11.609   4.015   4.840 -3.0689  4.7306  0.9550
  953MOL0     H28632  11.462   4.061   4.778  1.0876  1.7047 -1.3105
  953MOL0     H28633  11.442   3.862   4.640 -0.7824 -0.6936  0.3642
  953MOL0     H28634  11.460   3.809   4.808 -2.3721 -2.5473 -2.6883
  953MOL0     H28635  11.664   3.790   4.594  2.5500  1.7696  1.7126
  953MOL0     H28636  11.586   3.652   4.690 -1.0828  0.6921  0.0020
  953MOL0     H28637  11.619   4.505   5.156  0.1827  1.0069  0.0206
  953MOL0     H28638  11.641   4.661   5.357  0.6424  1.2222  0.3772
  953MOL0     H28639  11.950   5.045   5.499  1.7247  0.6003 -0.0563
  953MOL0     H28640  11.871   5.173   5.681 -1.1035 -0.8729 -2.2816
  953MOL0     H28641  10.341   4.695   5.947 -2.5665 -0.1118 -1.7845
  953MOL0     H28642  10.257   4.625   5.742 -0.3405  1.4560  3.8585
  953MOL0     H28643  10.292   4.926   5.210 -2.6699  0.9662 -2.3921
  953MOL0     H28644  10.306   4.871   4.949 -1.1680 -3.1328 -2.2369
  953MOL0     H28645  10.228   4.734   4.789 -0.0019  0.6287  1.3646
  953MOL0     H28646  10.386   4.809   4.756  2.4453 -0.5638  1.4094
  953MOL0     H28647  10.314   4.727   4.566  1.8491 -0.5999 -0.6778
  953MOL0     H28648  10.244   4.571   4.609 -1.2836  2.3180  0.7163
  953MOL0     H28649  10.487   4.497   4.674  1.1848  2.3261  2.2025
  953MOL0     H28650  10.544   4.633   4.598 -0.7408  2.7383 -1.1117
  953MOL0     H28651  10.358   4.424   4.449 -0.0311 -0.8475 -0.7861
  953MOL0     H28652  10.519   4.389   4.474  1.4809  1.5346  0.7379
  953MOL0     H28653  10.590   4.701   4.212 -0.0998 -1.6742  0.0958
  953MOL0     H28654  10.448   4.481   5.044 -3.1772 -0.3265 -1.5208
  953MOL0     H28655  10.434   4.528   5.283  0.6500  0.3035 -0.4599
  954MOL0     O28656   0.322   5.678   7.690  0.9261 -0.5586  0.4970
  954MOL0     C28657   0.310   5.716   7.573  1.1539  0.1096 -0.7568
  954MOL0     O28658   0.203   5.787   7.524 -0.1939  0.3391  0.1568
  954MOL0     C28659   0.125   5.867   7.593 -0.1932  0.3961  0.2810
  954MOL0     C28660   0.063   5.830   7.717  0.1633  0.4379 -0.8541
  954MOL0     C28661  -0.006   5.917   7.789 -0.1647  0.0203 -0.6360
  954MOL0     C28662  -0.024   6.054   7.738  0.5110  0.1109 -0.7217
  954MOL0     O28663  -0.098   6.139   7.817  0.1416 -1.1901 -0.3899
  954MOL0     C28664  -0.128   6.273   7.771  0.6954 -0.2384  0.1294
  954MOL0     C28665  -0.206   6.352   7.876  0.1971 -0.2841 -0.0386
  954MOL0     C28666  -0.238   6.494   7.848 -0.2914  0.2166  0.3499
  954MOL0     C28667  -0.342   6.554   7.938 -0.6981  0.3046 -0.5626
  954MOL0     C28668  -0.364   6.688   7.908  0.0361  0.1643 -0.2588
  954MOL0     C28669  -0.247   6.788   7.927 -0.2883  0.6170  0.7361
  954MOL0     C28670  -0.295   6.932   7.935 -0.0143 -0.0837 -0.1797
  954MOL0     C28671  -0.170   7.022   7.909  0.0532  0.2446 -0.3450
  954MOL0     N28672  -0.211   7.160   7.893 -0.6198 -0.7929  0.2319
  954MOL0     C28673  -0.151   7.251   7.808  0.0194  0.4903 -0.2565
  954MOL0     C28674  -0.201   7.375   7.836 -0.0462  0.8583  0.9774
  954MOL0     C28675  -0.155   7.501   7.775  1.0244 -0.6706 -0.6828
  954MOL0     C28676  -0.094   7.495   7.631 -0.1965  1.0115  0.3433
  954MOL0     C28677  -0.183   7.490   7.506 -0.5736 -1.1866 -0.3883
  954MOL0     C28678  -0.285   7.382   7.502 -0.3150 -0.1263 -0.0409
  954MOL0     O28679  -0.223   7.252   7.503 -0.8745 -0.9289  0.6371
  954MOL0     C28680  -0.306   7.140   7.501  1.6641 -1.2143 -0.3053
  954MOL0     C28681  -0.440   7.138   7.445 -0.2352 -0.3133 -0.5017
  954MOL0     C28682  -0.516   7.032   7.470  0.6934  1.0658 -0.1756
  954MOL0     C28683  -0.653   7.037   7.407  0.5883  0.1158  0.5655
  954MOL0     C28684  -0.466   6.908   7.524  0.1909  0.4683 -0.0014
  954MOL0     C28685  -0.548   6.784   7.540  0.3934  0.3262 -0.7787
  954MOL0     O28686  -0.683   6.794   7.587  0.5263  0.6272 -0.2720
  954MOL0     C28687  -0.762   6.685   7.586 -0.0402 -0.0107  0.6836
  954MOL0     C28688  -0.799   6.599   7.472  0.0570 -0.8355  0.4422
  954MOL0     C28689  -0.897   6.507   7.494 -0.4056  0.4106 -0.5050
  954MOL0     C28690  -0.954   6.487   7.628  0.5888 -0.0632 -0.0548
  954MOL0     O28691  -1.035   6.382   7.666  0.5006  0.2367  0.9932
  954MOL0     C28692  -1.062   6.277   7.576 -0.0413 -0.1771 -0.7276
  954MOL0     C28693  -1.113   6.166   7.667 -0.5433 -0.3516  0.3361
  954MOL0     C28694  -1.258   6.174   7.732 -0.9251  0.0556  0.1135
  954MOL0     C28695  -1.318   6.316   7.750 -0.2383  0.5131 -0.4560
  954MOL0     C28696  -1.448   6.324   7.821 -0.1347  0.1826 -0.3874
  954MOL0     C28697  -1.566   6.313   7.726  0.4983  0.1587  0.0796
  954MOL0     C28698  -1.572   6.188   7.640 -0.0378  0.1251 -0.5144
  954MOL0     C28699  -1.709   6.163   7.576 -0.2380 -0.9358  0.5195
  954MOL0    Cl28700  -1.734   6.289   7.448  0.7292  0.0369 -0.7438
  954MOL0     C28701  -0.906   6.569   7.737  0.9197 -0.0001  0.1146
  954MOL0     C28702  -0.807   6.659   7.712  0.1468  1.0839  0.9535
  954MOL0     O28703  -0.490   6.682   7.529  0.8172  0.5806  1.1243
  954MOL0     C28704  -0.332   6.908   7.562  0.0424  0.3128  0.3016
  954MOL0     C28705  -0.249   7.022   7.545 -0.1156  0.0942 -0.1426
  954MOL0     N28706  -0.284   7.361   7.942  0.7809  0.7712 -0.3531
  954MOL0     N28707  -0.281   7.238   7.980  0.1716  0.7638  0.1237
  954MOL0     C28708   0.031   6.082   7.614  0.0650 -0.4002  0.8309
  954MOL0     C28709   0.099   5.990   7.536 -1.0073 -0.0789 -0.9125
  954MOL0     C28710   0.410   5.669   7.478  0.1674  0.6454  0.2817
  954MOL0     C28711   0.396   5.667   7.340 -0.0515 -0.4991 -0.1531
  954MOL0     C28712   0.501   5.613   7.253  0.3875 -0.2472  0.8886
  954MOL0     C28713   0.624   5.578   7.312  0.0436  0.0357  0.2475
  954MOL0     O28714   0.746   5.564   7.240  1.3871 -0.1300  0.6847
  954MOL0     C28715   0.745   5.631   7.117  0.9219  0.1767  0.1376
  954MOL0     C28716   0.837   5.571   7.013  0.9034 -0.6375  0.0317
  954MOL0     C28717   0.824   5.417   6.989 -0.0971 -0.2053 -0.6986
  954MOL0     C28718   0.712   5.362   6.890  0.6381 -0.1560 -0.5945
  954MOL0     C28719   0.737   5.445   6.774  0.5025 -0.5634  0.3091
  954MOL0     C28720   0.739   5.519   6.673  0.2016  1.5390  0.2185
  954MOL0     C28721   0.635   5.580   7.450 -0.0417 -0.1945  0.2239
  954MOL0     C28722   0.536   5.626   7.536 -1.2413  1.0674 -0.0210
  954MOL0     H28723   0.082   5.733   7.763  2.0022  0.8024 -0.7394
  954MOL0     H28724  -0.051   5.876   7.879 -0.4167 -1.1182 -1.2585
  954MOL0     H28725  -0.034   6.325   7.754 -0.1915  0.3769 -3.9355
  954MOL0     H28726  -0.189   6.272   7.680 -0.4526  0.0961  0.8670
  954MOL0     H28727  -0.301   6.301   7.898  0.4300 -1.6067 -1.8659
  954MOL0     H28728  -0.156   6.340   7.972 -0.7769 -1.2862  0.3663
  954MOL0     H28729  -0.143   6.545   7.865  1.1428 -2.9090  2.5997
  954MOL0     H28730  -0.278   6.510   7.748  0.8029 -3.2967 -0.7758
  954MOL0     H28731  -0.436   6.498   7.947 -1.4690  1.7009  0.5919
  954MOL0     H28732  -0.310   6.539   8.042 -1.3776  0.8803 -0.2628
  954MOL0     H28733  -0.396   6.694   7.803  3.2623  1.0691 -1.3187
  954MOL0     H28734  -0.441   6.715   7.981 -0.9428 -0.7734 -0.9275
  954MOL0     H28735  -0.183   6.765   8.012 -0.4280 -2.2904  0.1576
  954MOL0     H28736  -0.187   6.779   7.836  1.2762  2.1787  1.5692
  954MOL0     H28737  -0.375   6.940   7.861  0.5877  1.1913 -0.7116
  954MOL0     H28738  -0.340   6.942   8.034  0.5452  1.7082 -0.0805
  954MOL0     H28739  -0.130   6.978   7.817 -0.0812 -1.1489  0.2385
  954MOL0     H28740  -0.096   7.012   7.989  1.4777 -1.5003 -1.7876
  954MOL0     H28741  -0.072   7.235   7.735 -0.9524  2.0176 -1.6915
  954MOL0     H28742  -0.241   7.567   7.767  0.7265 -1.0882 -0.9322
  954MOL0     H28743  -0.082   7.549   7.842  0.1824 -0.3304  0.0079
  954MOL0     H28744  -0.016   7.419   7.618 -0.0915  0.9402  1.3318
  954MOL0     H28745  -0.035   7.587   7.633  0.7063  0.4923  3.3664
  954MOL0     H28746  -0.130   7.467   7.413  2.4187  2.4748  0.1792
  954MOL0     H28747  -0.230   7.588   7.494  0.7151 -0.8104 -3.2718
  954MOL0     H28748  -0.347   7.402   7.414 -0.1786 -0.1997 -0.1528
  954MOL0     H28749  -0.351   7.395   7.588 -1.0776  2.5769 -0.9153
  954MOL0     H28750  -0.476   7.221   7.384 -2.7423 -0.9391  0.0126
  954MOL0     H28751  -0.650   7.118   7.333  3.2956 -0.3862  0.0092
  954MOL0     H28752  -0.684   6.959   7.338  1.8343  0.1061 -0.0095
  954MOL0     H28753  -0.716   7.049   7.495  1.0109 -0.4000  0.9415
  954MOL0     H28754  -0.750   6.600   7.375  0.5885  3.5742  0.5376
  954MOL0     H28755  -0.930   6.446   7.411  5.0258  0.3961 -3.0158
  954MOL0     H28756  -1.128   6.300   7.491 -0.9771 -1.1667 -0.2799
  954MOL0     H28757  -0.977   6.221   7.534  2.6080  1.6272  1.8366
  954MOL0     H28758  -1.115   6.071   7.613 -0.8419  0.1558 -0.5714
  954MOL0     H28759  -1.036   6.148   7.742 -0.3020  1.3911  0.5446
  954MOL0     H28760  -1.247   6.132   7.832 -1.4263  2.2808  1.1755
  954MOL0     H28761  -1.323   6.111   7.671 -1.1452 -0.4706  0.8766
  954MOL0     H28762  -1.248   6.366   7.818  0.1571  0.2520 -0.6677
  954MOL0     H28763  -1.327   6.364   7.652 -2.4516  0.7255 -0.2107
  954MOL0     H28764  -1.458   6.428   7.854 -1.2936 -0.2300  0.6354
  954MOL0     H28765  -1.463   6.246   7.896 -3.7812  0.5150 -0.5805
  954MOL0     H28766  -1.655   6.324   7.789 -0.0620  1.0427 -0.8550
  954MOL0     H28767  -1.580   6.394   7.655 -4.6261 -1.2574 -0.9499
  954MOL0     H28768  -1.556   6.101   7.705 -0.5253  1.4649  1.5119
  954MOL0     H28769  -1.495   6.206   7.565 -0.5317 -2.8942 -1.8879
  954MOL0     H28770  -1.785   6.167   7.655  0.7237 -1.7006  1.5189
  954MOL0     H28771  -1.688   6.066   7.530 -0.3969  0.1177 -1.9325
  954MOL0     H28772  -0.931   6.541   7.839 -0.4687 -1.2563 -0.5188
  954MOL0     H28773  -0.773   6.723   7.792  1.1950  2.8441 -0.8073
  954MOL0     H28774  -0.281   6.816   7.591 -1.0716 -0.6266 -0.6262
  954MOL0     H28775  -0.151   7.018   7.591  0.1438  0.5343 -0.6467
  954MOL0     H28776   0.001   6.175   7.568  0.1762 -0.4246  0.7066
  954MOL0     H28777   0.138   6.003   7.435  1.2600  0.4124 -0.0285
  954MOL0     H28778   0.307   5.712   7.297  1.1530  1.5508 -0.6402
  954MOL0     H28779   0.484   5.602   7.147  2.3894 -1.6910  0.6413
  954MOL0     H28780   0.646   5.641   7.071 -0.8067  3.8556  3.9935
  954MOL0     H28781   0.767   5.735   7.140 -0.0945  0.2590  0.7932
  954MOL0     H28782   0.933   5.604   7.055  0.3626  1.1409 -0.0293
  954MOL0     H28783   0.830   5.627   6.919  4.6851  0.1600  0.0789
  954MOL0     H28784   0.799   5.372   7.085  3.3434  0.0427  0.4195
  954MOL0     H28785   0.923   5.380   6.961  0.1781 -0.5720  0.6889
  954MOL0     H28786   0.616   5.380   6.939 -0.0158  1.2946 -2.2933
  954MOL0     H28787   0.745   5.258   6.880 -1.1637 -0.8052 -0.1903
  954MOL0     H28788   0.738   5.587   6.590  2.8940  1.0565 -0.2998
  954MOL0     H28789   0.736   5.574   7.487 -0.1317  0.0591  0.5154
  954MOL0     H28790   0.555   5.621   7.643  0.3957  1.1503 -0.2930
  955MOL0     O28791  11.391   2.681  11.452 -0.0435 -0.0724  0.3074
  955MOL0     C28792  11.323   2.586  11.414 -0.1227  0.6459 -0.5146
  955MOL0     O28793  11.261   2.499  11.498  0.4374  0.2378  0.3979
  955MOL0     C28794  11.268   2.536  11.626 -0.2718 -0.1104  0.6382
  955MOL0     C28795  11.372   2.492  11.710 -0.7379  0.0078 -0.1141
  955MOL0     C28796  11.376   2.529  11.844 -0.4022 -0.3065  0.2780
  955MOL0     C28797  11.275   2.615  11.898 -0.6032  0.5947  0.3739
  955MOL0     O28798  11.273   2.642  12.038  0.3417  0.0129  0.0268
  955MOL0     C28799  11.372   2.740  12.067 -1.2075 -0.0477 -0.6838
  955MOL0     C28800  11.387   2.778  12.217 -0.4400 -0.1141  0.1555
  955MOL0     C28801  11.267   2.764  12.319 -0.6121 -0.4400  1.2506
  955MOL0     C28802  11.237   2.892  12.398 -0.2015 -0.2837  0.8063
  955MOL0     C28803  11.182   3.010  12.304 -0.5060  0.0738 -0.4795
  955MOL0     C28804  11.177   3.150  12.386 -0.1951 -0.7668 -0.6598
  955MOL0     C28805  11.105   3.267  12.310 -1.1470 -0.5406 -0.4121
  955MOL0     C28806  11.122   3.402  12.387  0.3711 -0.6620 -0.9134
  955MOL0     N28807  11.055   3.517  12.326  0.4904  0.0923 -0.0473
  955MOL0     C28808  10.918   3.526  12.294  0.0429  0.2878  0.6845
  955MOL0     C28809  10.907   3.633  12.220 -0.3634  0.7061 -1.0354
  955MOL0     C28810  10.761   3.664  12.192  0.5542  0.2364 -0.7726
  955MOL0     C28811  10.753   3.774  12.091  0.3325  0.4365  0.6328
  955MOL0     C28812  10.610   3.792  12.031  0.1577 -0.5278  0.4393
  955MOL0     C28813  10.629   3.891  11.909 -0.2349  0.1433 -0.5063
  955MOL0     O28814  10.678   4.020  11.957 -0.9130 -0.2937 -0.9536
  955MOL0     C28815  10.669   4.138  11.891  0.1864  0.0442  0.0442
  955MOL0     C28816  10.668   4.266  11.953 -0.3214 -0.5733 -0.1540
  955MOL0     C28817  10.665   4.387  11.876  0.8507  0.1167  0.0250
  955MOL0     C28818  10.668   4.519  11.944  0.1673 -0.9940  0.4703
  955MOL0     C28819  10.661   4.384  11.736 -0.4735  0.3743 -0.5939
  955MOL0     C28820  10.644   4.503  11.648  1.2899  0.3912 -0.0975
  955MOL0     O28821  10.607   4.471  11.515 -0.1112 -0.0339 -0.7731
  955MOL0     C28822  10.668   4.538  11.415  0.1403 -1.4230  0.3180
  955MOL0     C28823  10.804   4.568  11.422 -0.2784  0.0226 -0.0584
  955MOL0     C28824  10.860   4.619  11.303 -0.0544 -0.2914  0.6899
  955MOL0     C28825  10.799   4.635  11.180  0.2227  0.5656 -0.2766
  955MOL0     O28826  10.894   4.673  11.082  0.1748  0.6470 -0.6533
  955MOL0     C28827  10.863   4.676  10.949  0.7475 -0.9253  0.4076
  955MOL0     C28828  10.910   4.806  10.877 -0.0117 -0.3672 -0.4686
  955MOL0     C28829  10.855   4.795  10.736  0.0673 -0.1726  0.5453
  955MOL0     C28830  10.955   4.746  10.633 -0.4589  0.1926 -0.6851
  955MOL0     C28831  10.895   4.755  10.488  0.0951  0.5868 -0.0578
  955MOL0     C28832  10.779   4.671  10.466  0.7828  0.3936 -0.3647
  955MOL0     C28833  10.737   4.702  10.311 -0.3027  1.2908 -0.2643
  955MOL0     C28834  10.645   4.596  10.258 -0.4573  0.5551 -0.1420
  955MOL0    Cl28835  10.492   4.600  10.365 -0.3990  0.1215 -0.4922
  955MOL0     C28836  10.661   4.599  11.175 -0.9002  0.2746  0.0238
  955MOL0     C28837  10.604   4.546  11.295  0.6469 -0.0725  0.5597
  955MOL0     O28838  10.655   4.614  11.687  0.3093 -0.4600 -1.1149
  955MOL0     C28839  10.650   4.253  11.677 -0.2686  0.9592  0.4048
  955MOL0     C28840  10.652   4.136  11.751 -0.5562 -0.1510  0.0904
  955MOL0     N28841  11.030   3.695  12.204  0.5609  0.6126  0.3658
  955MOL0     N28842  11.116   3.631  12.274 -0.1454 -1.0139 -0.4119
  955MOL0     C28843  11.169   2.661  11.813 -0.1436  0.9395  0.1054
  955MOL0     C28844  11.166   2.609  11.683  0.0313 -0.1511 -0.4034
  955MOL0     C28845  11.319   2.552  11.268 -0.7901 -0.4736 -0.3661
  955MOL0     C28846  11.359   2.635  11.169 -0.5258  0.7964 -0.6882
  955MOL0     C28847  11.338   2.610  11.033  0.2067  0.1374  1.1978
  955MOL0     C28848  11.287   2.482  10.992 -0.6752 -0.5083  0.2492
  955MOL0     O28849  11.273   2.456  10.857 -0.7815  0.4040 -0.3179
  955MOL0     C28850  11.184   2.538  10.776 -0.1843 -0.1771  0.2215
  955MOL0     C28851  11.034   2.482  10.765  0.7635  0.6616 -0.1234
  955MOL0     C28852  10.965   2.558  10.637  0.9832  0.1920  0.6715
  955MOL0     C28853  10.814   2.578  10.641  0.6802  0.6167 -0.0061
  955MOL0     C28854  10.743   2.442  10.647  0.1671 -0.9612 -0.4502
  955MOL0     C28855  10.715   2.327  10.646  0.6983  0.5996 -0.7782
  955MOL0     C28856  11.249   2.391  11.090 -0.0210 -0.8843  0.2522
  955MOL0     C28857  11.258   2.431  11.232  0.7026  0.1286  0.3271
  955MOL0     H28858  11.442   2.422  11.665 -2.1215 -2.4179  1.3273
  955MOL0     H28859  11.456   2.480  11.899  1.5666 -0.5502 -2.6176
  955MOL0     H28860  11.472   2.721  12.027 -0.6542 -1.3762  1.1505
  955MOL0     H28861  11.330   2.832  12.027 -1.1935 -0.1314 -0.8934
  955MOL0     H28862  11.468   2.714  12.251  0.2620  0.3579 -0.6041
  955MOL0     H28863  11.414   2.884  12.213 -1.6347  0.3138  2.1533
  955MOL0     H28864  11.183   2.730  12.257  1.0337 -2.3561 -0.0340
  955MOL0     H28865  11.299   2.693  12.396 -0.7220  1.7087  3.3992
  955MOL0     H28866  11.175   2.880  12.488  0.0013 -1.7764  0.7682
  955MOL0     H28867  11.332   2.929  12.436 -1.5585  3.5066  0.8946
  955MOL0     H28868  11.248   3.027  12.219  0.9416 -0.3615  0.5173
  955MOL0     H28869  11.083   2.981  12.266 -0.3691 -0.1557 -0.6632
  955MOL0     H28870  11.122   3.129  12.478 -2.3778 -0.4001 -1.8047
  955MOL0     H28871  11.279   3.186  12.400  0.0960  0.6570 -4.8502
  955MOL0     H28872  11.141   3.277  12.207 -2.2583  0.8791 -0.6878
  955MOL0     H28873  10.998   3.246  12.309 -0.7377 -2.9730 -0.4261
  955MOL0     H28874  11.227   3.433  12.387 -0.2430  1.7852  1.8128
  955MOL0     H28875  11.073   3.398  12.484 -0.5775 -2.3402 -1.4244
  955MOL0     H28876  10.837   3.458  12.317 -2.3472  2.5433 -0.5189
  955MOL0     H28877  10.707   3.572  12.166 -0.0619  0.5465 -0.6025
  955MOL0     H28878  10.705   3.695  12.281  0.0331 -1.7291 -0.3533
  955MOL0     H28879  10.829   3.745  12.018  0.2201 -2.9451  1.6658
  955MOL0     H28880  10.777   3.866  12.145  0.0890  1.5520 -1.0808
  955MOL0     H28881  10.551   3.845  12.107  1.7924 -1.3507  2.3889
  955MOL0     H28882  10.562   3.698  12.005  2.3980 -1.5824 -0.1355
  955MOL0     H28883  10.534   3.909  11.857  0.9985  1.4317 -2.4143
  955MOL0     H28884  10.702   3.844  11.843 -0.9430  0.5930 -1.6504
  955MOL0     H28885  10.672   4.281  12.060 -1.3820  3.1916 -0.4989
  955MOL0     H28886  10.664   4.510  12.053 -0.9409  0.7302  0.6192
  955MOL0     H28887  10.757   4.579  11.924  0.0089 -0.8161  0.2883
  955MOL0     H28888  10.576   4.569  11.910  0.4688 -1.2583 -0.7839
  955MOL0     H28889  10.860   4.520  11.502  1.0487 -2.4367 -2.2874
  955MOL0     H28890  10.965   4.648  11.296 -0.3903  0.5836 -1.3266
  955MOL0     H28891  10.906   4.582  10.911  3.2111 -1.3342  3.7160
  955MOL0     H28892  10.755   4.684  10.938  0.8487  3.8859  0.8286
  955MOL0     H28893  10.882   4.896  10.932 -0.6263 -0.0063 -1.3481
  955MOL0     H28894  11.018   4.818  10.891 -0.1431  0.7394 -0.3222
  955MOL0     H28895  10.823   4.889  10.691 -0.2344 -0.4753  0.1142
  955MOL0     H28896  10.762   4.738  10.724  0.9487 -1.2737 -1.6850
  955MOL0     H28897  11.048   4.800  10.652 -1.5134  2.0651 -0.6157
  955MOL0     H28898  10.966   4.638  10.650  2.1103 -0.1092 -3.3832
  955MOL0     H28899  10.980   4.732  10.422  0.3555  0.7843  0.2052
  955MOL0     H28900  10.877   4.855  10.449  1.0755  1.3815  1.4477
  955MOL0     H28901  10.809   4.568  10.486 -0.7457 -0.6126 -2.8100
  955MOL0     H28902  10.695   4.687  10.534  0.5095 -1.0828 -0.3225
  955MOL0     H28903  10.830   4.708  10.254 -0.2892  2.3464 -0.1581
  955MOL0     H28904  10.685   4.798  10.318 -0.8129  1.0212 -0.2491
  955MOL0     H28905  10.684   4.496  10.275  1.6283  0.9033 -2.3146
  955MOL0     H28906  10.611   4.609  10.155 -1.7491  2.4226  0.4524
  955MOL0     H28907  10.594   4.624  11.094  0.0221  1.6192 -0.3603
  955MOL0     H28908  10.500   4.516  11.293  0.1982  0.5396 -5.7023
  955MOL0     H28909  10.652   4.240  11.569 -1.1709 -1.7521  0.6516
  955MOL0     H28910  10.661   4.046  11.690  1.1801  1.2603 -1.8926
  955MOL0     H28911  11.094   2.723  11.860  1.0918  1.8457  0.9461
  955MOL0     H28912  11.090   2.644  11.613  1.6778  1.0052 -1.7023
  955MOL0     H28913  11.393   2.733  11.201  0.1959  0.7954 -1.4269
  955MOL0     H28914  11.364   2.687  10.961 -0.7058 -1.1599 -0.6042
  955MOL0     H28915  11.175   2.644  10.805  1.8999  0.0805  0.1087
  955MOL0     H28916  11.241   2.565  10.686  1.1174  2.1095  1.6122
  955MOL0     H28917  10.980   2.495  10.859 -0.8345  2.8127 -1.2253
  955MOL0     H28918  11.039   2.376  10.741  1.9865  1.0980 -2.0680
  955MOL0     H28919  10.992   2.524  10.536  0.4672  0.6353  0.3792
  955MOL0     H28920  10.999   2.661  10.647 -0.2238  0.6376  0.3912
  955MOL0     H28921  10.782   2.624  10.547 -1.4266 -2.2784 -0.8561
  955MOL0     H28922  10.779   2.634  10.728  0.6918 -1.6584  1.5462
  955MOL0     H28923  10.708   2.220  10.656 -0.3211  0.8841  4.9358
  955MOL0     H28924  11.201   2.298  11.063  1.1644 -1.1948 -0.8879
  955MOL0     H28925  11.210   2.356  11.295 -1.8969  0.7829 -0.7708
  956MOL0     O28926  10.156   2.426  10.855 -0.8464 -0.3273  0.8347
  956MOL0     C28927  10.127   2.333  10.930 -0.4167 -0.6864  1.0811
  956MOL0     O28928  10.186   2.312  11.054  0.4518  0.0181  0.4598
  956MOL0     C28929  10.302   2.383  11.080 -0.4267 -0.8603 -1.1442
  956MOL0     C28930  10.346   2.368  11.216  0.1974 -0.0688  0.0645
  956MOL0     C28931  10.474   2.427  11.256  0.6349  0.0108 -0.9456
  956MOL0     C28932  10.563   2.466  11.153 -0.2106 -1.8483 -0.4764
  956MOL0     O28933  10.682   2.515  11.197 -0.2595 -0.5791 -0.1545
  956MOL0     C28934  10.778   2.567  11.106 -0.7753 -0.9752 -0.3712
  956MOL0     C28935  10.741   2.709  11.079 -0.1528  0.3486 -0.7046
  956MOL0     C28936  10.861   2.803  11.060 -1.2775  0.2496 -0.0511
  956MOL0     C28937  10.806   2.952  11.069 -0.0748  0.5483 -0.4802
  956MOL0     C28938  10.911   3.057  11.066 -0.2729 -1.0690  0.0165
  956MOL0     C28939  10.864   3.195  11.116 -0.6148  0.5197 -0.0545
  956MOL0     C28940  10.800   3.265  11.000 -0.0506 -0.2237  0.3801
  956MOL0     C28941  10.685   3.360  11.028 -0.1813  0.1564  0.8041
  956MOL0     N28942  10.571   3.275  11.069 -0.6451 -0.2171 -0.0738
  956MOL0     C28943  10.515   3.171  10.992 -0.0546  0.6569  0.6281
  956MOL0     C28944  10.423   3.126  11.079 -0.8292  0.6490  0.2277
  956MOL0     C28945  10.327   3.014  11.051 -0.8517  0.4891  0.5058
  956MOL0     C28946  10.377   2.866  11.071 -0.2502  0.4730  0.0081
  956MOL0     C28947  10.379   2.833  11.221 -0.2550  1.0669 -0.1583
  956MOL0     C28948  10.251   2.763  11.280 -0.0973 -0.0378  0.7455
  956MOL0     O28949  10.230   2.764  11.418  0.0820 -0.7661 -0.1824
  956MOL0     C28950  10.165   2.874  11.483 -0.7148 -0.4253  0.6415
  956MOL0     C28951  10.091   2.836  11.593 -0.7549  0.2519 -0.7974
  956MOL0     C28952  10.023   2.931  11.672  0.2415  0.6002  0.1936
  956MOL0     C28953   9.965   2.880  11.797 -0.6675 -0.1605  1.1234
  956MOL0     C28954  10.022   3.067  11.644  0.2509  0.4318  0.0318
  956MOL0     C28955   9.925   3.173  11.707 -0.3546  1.4447 -0.4952
  956MOL0     O28956   9.827   3.124  11.788  0.1896 -0.0524  0.2294
  956MOL0     C28957   9.705   3.191  11.806 -1.3664  0.2050  1.0992
  956MOL0     C28958   9.599   3.107  11.832  0.2886  0.6880 -0.2930
  956MOL0     C28959   9.468   3.154  11.824 -0.5578 -0.3677 -0.4493
  956MOL0     C28960   9.439   3.288  11.810  0.3380  0.5199 -0.0498
  956MOL0     O28961   9.305   3.328  11.817  0.1219  0.3625 -0.0116
  956MOL0     C28962   9.287   3.472  11.798  1.8096 -0.5917 -0.1695
  956MOL0     C28963   9.142   3.507  11.834 -0.9801  0.3517  0.6561
  956MOL0     C28964   9.038   3.437  11.742  0.2124 -0.1603 -0.1854
  956MOL0     C28965   8.887   3.484  11.746 -0.2813  0.2427 -0.6321
  956MOL0     C28966   8.812   3.456  11.880  0.1867 -0.6192 -0.4821
  956MOL0     C28967   8.665   3.411  11.850 -0.6689  0.8207  0.8561
  956MOL0     C28968   8.660   3.280  11.763  0.5301 -0.7429 -0.1423
  956MOL0     C28969   8.620   3.155  11.853 -0.0502 -0.0399  0.5596
  956MOL0    Cl28970   8.609   3.019  11.737  0.1288  0.1218 -0.2707
  956MOL0     C28971   9.550   3.374  11.786 -0.9581 -0.2659  0.6164
  956MOL0     C28972   9.681   3.323  11.783  0.5062 -0.0740 -0.0547
  956MOL0     O28973   9.954   3.289  11.685 -0.0420  0.0998 -0.0495
  956MOL0     C28974  10.100   3.113  11.535  0.7296  0.6728  0.3025
  956MOL0     C28975  10.170   3.022  11.453  0.3215  0.4659  0.6686
  956MOL0     N28976  10.412   3.207  11.188 -0.2224  0.7267 -0.7721
  956MOL0     N28977  10.503   3.286  11.186 -0.4742 -0.7384  0.0660
  956MOL0     C28978  10.526   2.457  11.018  0.5093 -0.2494  0.7785
  956MOL0     C28979  10.395   2.425  10.989 -0.2728 -0.1799 -0.3018
  956MOL0     C28980  10.011   2.255  10.872 -0.9072 -0.7325  0.4513
  956MOL0     C28981   9.918   2.193  10.961  0.1522 -0.1521 -0.0206
  956MOL0     C28982   9.809   2.114  10.927 -0.3054 -1.8353  0.2133
  956MOL0     C28983   9.776   2.113  10.781 -0.1182  0.1193 -0.1931
  956MOL0     O28984   9.664   2.046  10.720 -0.7983  0.1812  0.0210
  956MOL0     C28985   9.557   1.994  10.802 -0.2167 -0.4012  0.3981
  956MOL0     C28986   9.461   1.939  10.694 -0.5732  0.3120 -0.4516
  956MOL0     C28987   9.388   1.815  10.750  0.4377  0.4156 -0.1982
  956MOL0     C28988   9.465   1.670  10.734  0.6668 -1.1555  0.8258
  956MOL0     C28989   9.431   1.584  10.842  0.4982  0.9373 -0.1090
  956MOL0     C28990   9.417   1.518  10.943 -0.0801  0.2126  0.6325
  956MOL0     C28991   9.864   2.179  10.690 -0.5015  0.1263 -0.1643
  956MOL0     C28992   9.974   2.256  10.739 -0.5543  0.3143  0.0703
  956MOL0     H28993  10.280   2.309  11.278 -1.4230 -2.1453 -3.3339
  956MOL0     H28994  10.507   2.432  11.360 -2.9748 -0.2724  0.3764
  956MOL0     H28995  10.875   2.569  11.155 -1.3278  1.1140  0.7611
  956MOL0     H28996  10.794   2.511  11.013 -0.6261 -1.3186 -0.1434
  956MOL0     H28997  10.681   2.710  10.987 -5.3084 -2.6162  2.1453
  956MOL0     H28998  10.677   2.755  11.155 -1.4903 -0.7627 -1.1034
  956MOL0     H28999  10.928   2.774  11.141 -3.7543 -1.3921  1.5908
  956MOL0     H29000  10.919   2.778  10.971  0.4553 -4.9164  2.1057
  956MOL0     H29001  10.737   2.988  10.992  0.5390  0.6819 -0.9819
  956MOL0     H29002  10.755   2.960  11.165  0.5209 -3.6586  0.4099
  956MOL0     H29003  10.996   3.014  11.119 -0.9079 -0.6912  1.3915
  956MOL0     H29004  10.950   3.079  10.966  3.6586  2.0395  1.9418
  956MOL0     H29005  10.794   3.191  11.200  1.5868  2.6494  2.0256
  956MOL0     H29006  10.952   3.253  11.142 -0.0705 -0.9967  1.7368
  956MOL0     H29007  10.879   3.327  10.958  3.1240 -3.2143  1.4832
  956MOL0     H29008  10.760   3.190  10.930 -1.1612 -0.0131  0.7671
  956MOL0     H29009  10.656   3.410  10.935 -1.3666 -0.2941  0.9161
  956MOL0     H29010  10.709   3.446  11.091 -0.7837  0.5211  0.5442
  956MOL0     H29011  10.533   3.145  10.888  3.0428 -0.5504  1.3463
  956MOL0     H29012  10.237   3.034  11.110 -0.6813  1.2131  0.5317
  956MOL0     H29013  10.299   3.020  10.945  1.7687 -3.0244 -0.5634
  956MOL0     H29014  10.476   2.865  11.023 -1.3819  2.1081 -2.5973
  956MOL0     H29015  10.314   2.804  11.007  0.6343  0.1573 -0.5717
  956MOL0     H29016  10.419   2.916  11.280  0.8262  1.2016 -1.0457
  956MOL0     H29017  10.453   2.755  11.244 -1.1171  0.4421  0.5935
  956MOL0     H29018  10.246   2.659  11.247  0.8426  0.0819  0.2037
  956MOL0     H29019  10.166   2.823  11.245 -0.5027  0.1609  2.0158
  956MOL0     H29020  10.097   2.728  11.609  1.3097  0.4226 -0.2196
  956MOL0     H29021  10.015   2.787  11.824  1.3359 -0.1506 -2.0096
  956MOL0     H29022   9.971   2.957  11.874 -0.6475  0.8724  0.1223
  956MOL0     H29023   9.860   2.851  11.790 -0.4048 -0.8718 -0.3256
  956MOL0     H29024   9.608   2.999  11.836 -3.9084  0.0436 -2.8774
  956MOL0     H29025   9.381   3.089  11.832 -2.9490  2.7310  0.8550
  956MOL0     H29026   9.350   3.514  11.877 -1.1716 -3.1612  3.9406
  956MOL0     H29027   9.314   3.511  11.699  1.1594 -0.4418 -0.2899
  956MOL0     H29028   9.121   3.496  11.940 -0.8743  1.0658  0.7541
  956MOL0     H29029   9.144   3.614  11.811 -2.6498  0.3981  0.6429
  956MOL0     H29030   9.049   3.330  11.760  3.4697  0.1895  0.4637
  956MOL0     H29031   9.057   3.456  11.636 -0.2044  2.4259  0.1446
  956MOL0     H29032   8.902   3.592  11.738 -2.0961  0.6765  0.9438
  956MOL0     H29033   8.822   3.448  11.666  0.3891 -0.3497 -0.9120
  956MOL0     H29034   8.797   3.556  11.923  2.0812 -0.5545  0.1045
  956MOL0     H29035   8.866   3.388  11.946  0.4469  0.3869  0.3633
  956MOL0     H29036   8.617   3.379  11.943 -0.0688  4.5247  2.6406
  956MOL0     H29037   8.605   3.492  11.808 -2.2407 -0.6704  0.0867
  956MOL0     H29038   8.751   3.255  11.707  0.1385 -0.9544 -0.6918
  956MOL0     H29039   8.574   3.301  11.698  1.9825  0.3042 -1.8246
  956MOL0     H29040   8.525   3.180  11.902  0.1899 -0.4443  1.2459
  956MOL0     H29041   8.702   3.130  11.921  1.3648  1.3305 -0.5595
  956MOL0     H29042   9.539   3.480  11.768  0.4182 -0.5687 -2.7783
  956MOL0     H29043   9.758   3.397  11.765  2.4793 -2.2040 -0.8097
  956MOL0     H29044  10.108   3.217  11.504 -2.5478  0.4154 -1.9110
  956MOL0     H29045  10.233   3.068  11.377 -0.4593 -2.3879 -1.9134
  956MOL0     H29046  10.583   2.491  10.931 -0.5580  0.3902  0.3109
  956MOL0     H29047  10.388   2.414  10.881 -0.2095 -1.6618 -0.1736
  956MOL0     H29048   9.948   2.200  11.065 -0.8276  4.7402  0.1705
  956MOL0     H29049   9.750   2.048  10.989 -0.6080  1.1325  3.3735
  956MOL0     H29050   9.586   1.920  10.877 -1.7812  1.1768  2.6959
  956MOL0     H29051   9.514   2.073  10.863  0.3706 -0.0210  0.3365
  956MOL0     H29052   9.514   1.909  10.603 -1.0563 -4.1659  0.4775
  956MOL0     H29053   9.385   2.013  10.668  0.5245  0.2501 -4.5152
  956MOL0     H29054   9.295   1.797  10.696  0.4193  0.9588 -0.3579
  956MOL0     H29055   9.353   1.829  10.852 -2.9300  0.1463 -1.1890
  956MOL0     H29056   9.573   1.684  10.739  0.4927  0.9541 -0.4240
  956MOL0     H29057   9.441   1.619  10.640 -2.2336  0.6033  0.4699
  956MOL0     H29058   9.411   1.466  11.037  3.5450 -0.8568  0.4235
  956MOL0     H29059   9.838   2.175  10.585 -0.6825  0.7665 -0.1494
  956MOL0     H29060  10.035   2.312  10.669 -0.6823  0.2757 -0.0705
  957MOL0     O29061  11.437   2.044  11.540 -0.6721  0.0634 -0.3440
  957MOL0     C29062  11.506   2.135  11.494 -1.0677  0.2248 -0.4762
  957MOL0     O29063  11.580   2.223  11.562 -0.3877 -1.0980  0.6574
  957MOL0     C29064  11.580   2.209  11.699  1.0409  0.3316 -1.7495
  957MOL0     C29065  11.472   2.203  11.790  0.3588  0.9731 -0.0301
  957MOL0     C29066  11.488   2.184  11.932 -1.0597 -0.2621 -0.2041
  957MOL0     C29067  11.619   2.171  11.979  0.1211 -0.0839  0.7962
  957MOL0     O29068  11.647   2.157  12.114  1.4683 -0.5757 -0.2549
  957MOL0     C29069  11.591   2.256  12.200  0.7335 -1.5427 -0.4263
  957MOL0     C29070  11.667   2.236  12.332  0.3192 -0.1699 -0.2604
  957MOL0     C29071  11.660   2.343  12.446  0.5026 -0.2100  0.2068
  957MOL0     C29072  11.735   2.286  12.576  0.8939 -0.2555 -0.5076
  957MOL0     C29073  11.778   2.403  12.667  0.2391 -0.1729  0.2901
  957MOL0     C29074  11.673   2.494  12.727  0.8469  0.0123  0.1152
  957MOL0     C29075  11.725   2.590  12.832 -0.7372 -0.0623  0.5139
  957MOL0     C29076  11.769   2.723  12.764 -0.4139  0.5888  0.4732
  957MOL0     N29077  11.646   2.804  12.737  0.6407 -0.9175 -0.0345
  957MOL0     C29078  11.555   2.851  12.833  0.3029 -0.2063  0.3914
  957MOL0     C29079  11.455   2.914  12.759 -0.0724 -0.5388  0.1865
  957MOL0     C29080  11.339   2.979  12.824  0.4167  0.5801  0.6889
  957MOL0     C29081  11.233   2.883  12.869  0.2027  0.3529 -0.3152
  957MOL0     C29082  11.105   2.981  12.894  0.5764  0.2085 -1.0194
  957MOL0     C29083  10.971   2.894  12.885 -0.0873  0.4009 -0.0483
  957MOL0     O29084  10.960   2.832  12.760 -0.1501 -0.4790 -0.5862
  957MOL0     C29085  10.922   2.896  12.646 -0.0797  0.7891 -0.1621
  957MOL0     C29086  10.929   2.811  12.537  0.8326 -0.3851  0.0651
  957MOL0     C29087  10.875   2.861  12.415  0.1181  0.5654  0.4166
  957MOL0     C29088  10.891   2.760  12.303  0.3868  0.0475 -0.1640
  957MOL0     C29089  10.817   2.994  12.405 -0.0521 -0.3965  0.3256
  957MOL0     C29090  10.761   3.055  12.280 -0.3334 -0.5306 -0.0401
  957MOL0     O29091  10.783   3.192  12.262  0.1219 -0.5644 -0.0178
  957MOL0     C29092  10.731   3.260  12.153  0.2329  0.3322  0.1870
  957MOL0     C29093  10.809   3.315  12.051 -0.3164  0.0755 -0.6415
  957MOL0     C29094  10.751   3.391  11.953  0.7583  0.8159  1.1008
  957MOL0     C29095  10.608   3.398  11.945 -0.2513  0.8729 -0.2007
  957MOL0     O29096  10.551   3.481  11.860 -0.1040 -0.5157  0.0164
  957MOL0     C29097  10.421   3.463  11.804  0.4093  0.1710  0.1629
  957MOL0     C29098  10.435   3.505  11.655 -0.0876 -0.7364 -0.1012
  957MOL0     C29099  10.549   3.459  11.569  0.5453 -0.0810 -0.0283
  957MOL0     C29100  10.670   3.546  11.558  1.2920  0.6611 -0.6615
  957MOL0     C29101  10.771   3.484  11.460 -0.1757 -0.1006 -1.2503
  957MOL0     C29102  10.889   3.581  11.425  0.2227  0.9672  0.7537
  957MOL0     C29103  10.980   3.518  11.307  0.1193 -0.3238 -0.1094
  957MOL0     C29104  11.054   3.400  11.348  0.1096 -0.5843  0.6521
  957MOL0    Cl29105  11.182   3.375  11.230  0.4277  0.4824 -0.3295
  957MOL0     C29106  10.531   3.335  12.045 -0.0517 -0.5982  0.3263
  957MOL0     C29107  10.595   3.285  12.155  0.5232  0.4954  0.3871
  957MOL0     O29108  10.721   2.988  12.189  0.2114  0.1687  0.0702
  957MOL0     C29109  10.815   3.075  12.526 -0.0366  0.1809 -0.9594
  957MOL0     C29110  10.862   3.019  12.647  0.1365 -0.4284  0.4917
  957MOL0     N29111  11.485   2.910  12.622  0.4264 -0.1083 -1.2302
  957MOL0     N29112  11.591   2.832  12.612 -0.5165 -0.7345  0.1137
  957MOL0     C29113  11.725   2.177  11.891 -0.1218  0.4274 -0.9355
  957MOL0     C29114  11.700   2.199  11.756  0.8132  0.3415 -0.0584
  957MOL0     C29115  11.530   2.141  11.354  0.3769 -0.6733  0.5108
  957MOL0     C29116  11.573   2.262  11.285  0.1823 -0.3116 -0.1868
  957MOL0     C29117  11.604   2.265  11.144 -0.0933 -0.9697  0.1864
  957MOL0     C29118  11.581   2.148  11.067  0.6095 -0.4028  0.5502
  957MOL0     O29119  11.610   2.146  10.933 -0.0447  0.1106  0.3560
  957MOL0     C29120  11.699   2.044  10.882 -0.1463  0.3633  0.3338
  957MOL0     C29121  11.700   2.049  10.730  0.3084 -0.1986 -0.4307
  957MOL0     C29122  11.569   2.019  10.670 -0.0243 -0.4060  0.1080
  957MOL0     C29123  11.576   1.995  10.517  0.3322 -0.6743 -0.7285
  957MOL0     C29124  11.689   1.914  10.476 -0.7613 -0.0319 -0.1043
  957MOL0     C29125  11.791   1.866  10.437 -0.3723  0.4357  0.4272
  957MOL0     C29126  11.525   2.035  11.124  0.4020 -0.5340  0.0503
  957MOL0     C29127  11.498   2.035  11.262 -0.4664  0.3454  0.2028
  957MOL0     H29128  11.376   2.200  11.740 -0.3709 -2.9036  1.2175
  957MOL0     H29129  11.403   2.175  11.999 -2.2355 -0.2279 -1.6563
  957MOL0     H29130  11.600   2.358  12.162  0.6098 -1.5876 -0.5751
  957MOL0     H29131  11.488   2.241  12.234 -0.2146  0.5946 -2.1290
  957MOL0     H29132  11.630   2.145  12.381 -3.3024 -0.0208 -2.3727
  957MOL0     H29133  11.770   2.216  12.301  0.7409  1.5329 -0.0581
  957MOL0     H29134  11.709   2.438  12.424 -0.9450  0.5723  0.2376
  957MOL0     H29135  11.555   2.364  12.468  0.6626  0.8269  0.0230
  957MOL0     H29136  11.660   2.225  12.628 -0.2063  2.0413  0.7267
  957MOL0     H29137  11.823   2.230  12.543  0.7804  1.8752 -5.1145
  957MOL0     H29138  11.858   2.376  12.736  2.0218  0.0828 -1.5693
  957MOL0     H29139  11.835   2.462  12.594  2.1315 -2.0228  0.1571
  957MOL0     H29140  11.614   2.545  12.651  4.0870 -1.5490 -3.7757
  957MOL0     H29141  11.596   2.434  12.777  0.5741 -0.2560 -0.6176
  957MOL0     H29142  11.654   2.617  12.911  0.1584  0.9592  1.0204
  957MOL0     H29143  11.806   2.537  12.883 -4.9730 -6.0592  2.0673
  957MOL0     H29144  11.823   2.702  12.672  2.5661  1.4362  1.9007
  957MOL0     H29145  11.834   2.773  12.836  1.3822 -1.9250  0.7577
  957MOL0     H29146  11.551   2.841  12.941 -2.8200 -1.3973  0.2621
  957MOL0     H29147  11.371   3.032  12.914 -0.5908 -1.4173  2.3100
  957MOL0     H29148  11.299   3.046  12.747  0.8458 -1.0274 -0.9843
  957MOL0     H29149  11.268   2.836  12.961  0.5248  0.1218 -0.5546
  957MOL0     H29150  11.216   2.800  12.801  2.3154  1.8267 -2.8020
  957MOL0     H29151  11.096   3.068  12.828 -5.4809  0.2644 -0.7521
  957MOL0     H29152  11.118   3.029  12.991  3.1481  1.7838 -2.0443
  957MOL0     H29153  10.889   2.961  12.911  0.5247  0.9709  0.4689
  957MOL0     H29154  10.969   2.811  12.956  2.9858  0.7041  0.5388
  957MOL0     H29155  10.974   2.713  12.542  2.4442  0.1726 -1.9083
  957MOL0     H29156  10.793   2.734  12.263  1.8487 -2.3097 -2.4803
  957MOL0     H29157  10.944   2.808  12.220  2.2670 -1.3321  0.1630
  957MOL0     H29158  10.943   2.665  12.318  1.7406  0.4749 -1.7968
  957MOL0     H29159  10.917   3.306  12.051 -0.0083  2.7839  0.6672
  957MOL0     H29160  10.818   3.442  11.884  0.5651  2.9093  2.3645
  957MOL0     H29161  10.394   3.357  11.810  0.1483  0.3166  2.6104
  957MOL0     H29162  10.352   3.525  11.862  2.8615  2.8864  0.4301
  957MOL0     H29163  10.338   3.468  11.619  0.7448 -3.4372  0.2360
  957MOL0     H29164  10.448   3.613  11.641  1.0419 -1.1435 -2.8328
  957MOL0     H29165  10.514   3.437  11.468 -3.0030  2.0029  0.5874
  957MOL0     H29166  10.571   3.364  11.619 -2.5362 -0.8503  0.0674
  957MOL0     H29167  10.640   3.645  11.521  0.5060  0.2379 -1.2048
  957MOL0     H29168  10.727   3.563  11.649 -0.9690 -1.2434  1.2207
  957MOL0     H29169  10.716   3.456  11.369 -0.4220  0.5405 -1.3116
  957MOL0     H29170  10.810   3.389  11.496  1.1989  1.0305  0.3748
  957MOL0     H29171  10.836   3.666  11.382 -1.7704  0.0897  1.3547
  957MOL0     H29172  10.943   3.612  11.515  1.0635  2.0434 -0.1002
  957MOL0     H29173  11.046   3.586  11.252  1.5284 -3.0157 -1.9359
  957MOL0     H29174  10.918   3.476  11.228  1.0162  2.4536 -2.4696
  957MOL0     H29175  10.999   3.308  11.371 -2.8021  1.5342  2.9464
  957MOL0     H29176  11.103   3.429  11.441  0.9083 -1.6508  0.5775
  957MOL0     H29177  10.423   3.330  12.051 -0.2509 -0.7291 -2.1293
  957MOL0     H29178  10.548   3.246  12.245  0.6334 -3.1836 -0.9761
  957MOL0     H29179  10.774   3.175  12.529 -1.5741 -0.4109  1.7583
  957MOL0     H29180  10.849   3.077  12.737 -4.6084  1.1935 -0.9634
  957MOL0     H29181  11.830   2.172  11.917 -0.6886  0.4068  1.6470
  957MOL0     H29182  11.782   2.207  11.686  2.1798  2.5151  1.6485
  957MOL0     H29183  11.579   2.352  11.345 -2.9181 -2.3339  3.6044
  957MOL0     H29184  11.624   2.351  11.081 -0.0809 -0.1827  1.2409
  957MOL0     H29185  11.798   2.075  10.916  0.0984  2.1332 -1.8122
  957MOL0     H29186  11.681   1.940  10.913 -1.7654  0.6117  0.3247
  957MOL0     H29187  11.778   1.980  10.694 -0.4193  1.0157 -4.9152
  957MOL0     H29188  11.741   2.146  10.701  1.1772  0.1675  1.8159
  957MOL0     H29189  11.508   2.109  10.671 -0.2132 -0.4272 -2.3987
  957MOL0     H29190  11.537   1.932  10.728  4.1555 -1.9025  0.4878
  957MOL0     H29191  11.583   2.087  10.459  2.0724  0.0579  0.5495
  957MOL0     H29192  11.482   1.944  10.492 -0.5285  0.6750 -0.3255
  957MOL0     H29193  11.875   1.820  10.388  1.1584  1.9740  1.5043
  957MOL0     H29194  11.498   1.948  11.065 -2.9484  0.5631 -0.2610
  957MOL0     H29195  11.462   1.935  11.288  1.6015 -0.4609  0.1145
  958MOL0     O29196   0.099   0.807  11.307 -0.5541  0.2286 -0.4578
  958MOL0     C29197   0.127   0.754  11.416 -0.5551  0.0438 -0.3656
  958MOL0     O29198   0.130   0.615  11.437 -0.7405  0.1756 -0.0013
  958MOL0     C29199   0.077   0.535  11.341 -0.4241  0.4665  0.2408
  958MOL0     C29200  -0.065   0.538  11.329  0.2202 -0.5030  0.1121
  958MOL0     C29201  -0.132   0.451  11.251  0.4540  0.9875  0.1290
  958MOL0     C29202  -0.060   0.350  11.184  0.0793 -0.0394  0.0555
  958MOL0     O29203  -0.124   0.265  11.096  0.1423 -0.3582  0.0413
  958MOL0     C29204  -0.191   0.159  11.172 -0.5190 -0.1012 -0.2135
  958MOL0     C29205  -0.255   0.071  11.060 -0.0983 -0.8753  0.1127
  958MOL0     C29206  -0.325  -0.056  11.090 -0.8090  0.3027 -0.5583
  958MOL0     C29207  -0.234  -0.169  11.140  0.6003  0.3634 -0.4210
  958MOL0     C29208  -0.328  -0.298  11.138 -0.1881  0.1258  1.1561
  958MOL0     C29209  -0.248  -0.421  11.115 -0.6750  0.5608  0.5971
  958MOL0     C29210  -0.146  -0.444  11.213 -0.6653  0.1005  0.2005
  958MOL0     C29211  -0.078  -0.578  11.219 -0.7997 -0.0659  0.2682
  958MOL0     N29212   0.003  -0.604  11.091 -0.2661 -0.8788 -0.4693
  958MOL0     C29213   0.050  -0.502  11.010 -0.1466  0.0773  0.3256
  958MOL0     C29214   0.094  -0.568  10.902 -0.4905  0.1201  1.2197
  958MOL0     C29215   0.177  -0.520  10.788 -0.0284 -0.1707  0.0968
  958MOL0     C29216   0.309  -0.456  10.839 -0.2667  0.5328  0.4212
  958MOL0     C29217   0.399  -0.564  10.917  0.3117  0.1864 -0.8363
  958MOL0     C29218   0.426  -0.696  10.833 -0.1332 -0.1164 -0.3558
  958MOL0     O29219   0.456  -0.807  10.922 -0.1605  0.1599  0.1412
  958MOL0     C29220   0.505  -0.921  10.862  0.6735  0.1809  0.7594
  958MOL0     C29221   0.554  -0.931  10.734  0.5439  0.3051  0.1697
  958MOL0     C29222   0.595  -1.044  10.668 -0.3736 -0.3067  0.5332
  958MOL0     C29223   0.638  -1.019  10.525  0.3873  0.6221 -0.0145
  958MOL0     C29224   0.597  -1.163  10.742 -0.0170  0.4545 -0.4003
  958MOL0     C29225   0.652  -1.294  10.691  0.5801 -0.0852 -0.8104
  958MOL0     O29226   0.639  -1.402  10.772  0.2756  0.0717 -0.3649
  958MOL0     C29227   0.705  -1.517  10.739 -0.5128 -0.0969 -0.1283
  958MOL0     C29228   0.842  -1.529  10.691  0.0679 -0.7328  0.1626
  958MOL0     C29229   0.887  -1.652  10.639 -0.3245  0.0479  0.1412
  958MOL0     C29230   0.808  -1.762  10.660 -0.1045  0.2118 -0.2007
  958MOL0     O29231   0.861  -1.878  10.607 -0.4199  0.3216  0.3706
  958MOL0     C29232   0.982  -1.897  10.534 -0.1637  0.1889  0.9178
  958MOL0     C29233   0.981  -1.891  10.378  0.3494 -0.6233 -0.0856
  958MOL0     C29234   1.124  -1.919  10.310 -0.1368  0.0534 -0.5816
  958MOL0     C29235   1.197  -1.790  10.323  0.8803 -0.5395  0.1857
  958MOL0     C29236   1.312  -1.771  10.221 -0.4584 -0.4637 -1.0221
  958MOL0     C29237   1.433  -1.851  10.244  0.4228  0.0479 -0.0827
  958MOL0     C29238   1.434  -1.994  10.179  0.8657 -0.5458  0.3736
  958MOL0     C29239   1.575  -2.032  10.157 -0.3376 -0.1477 -0.3080
  958MOL0    Cl29240   1.636  -2.084  10.325 -0.1730  0.0806 -0.1361
  958MOL0     C29241   0.675  -1.765  10.699  0.0197  0.4737 -0.5368
  958MOL0     C29242   0.617  -1.640  10.746 -0.3925  0.1332  0.6494
  958MOL0     O29243   0.722  -1.291  10.592  0.2863 -0.3991 -0.0583
  958MOL0     C29244   0.548  -1.163  10.871  0.6391  0.5317 -0.7210
  958MOL0     C29245   0.504  -1.041  10.934 -0.9770 -0.3991 -0.1089
  958MOL0     N29246   0.072  -0.705  10.922  0.3751  0.5640  0.4908
  958MOL0     N29247   0.021  -0.724  11.036  0.3844 -0.8717  0.5204
  958MOL0     C29248   0.079   0.346  11.206  0.4570 -0.0691  0.4902
  958MOL0     C29249   0.149   0.438  11.280  0.5715  0.5280 -0.1231
  958MOL0     C29250   0.133   0.850  11.535 -0.9732 -0.0776  0.1187
  958MOL0     C29251   0.135   0.799  11.662  0.6448  0.3817 -0.2248
  958MOL0     C29252   0.160   0.891  11.761  0.7585 -0.0242 -0.6546
  958MOL0     C29253   0.194   1.023  11.740  0.3362  0.1911  0.7903
  958MOL0     O29254   0.227   1.111  11.837  0.1685  0.6003  0.2603
  958MOL0     C29255   0.251   1.062  11.975  0.6231 -0.0296 -0.8019
  958MOL0     C29256   0.300   1.186  12.062 -1.3972 -0.1302  0.8890
  958MOL0     C29257   0.454   1.194  12.043 -0.1358 -0.6569  0.1617
  958MOL0     C29258   0.504   1.301  12.140  0.4010  0.6374  0.1060
  958MOL0     C29259   0.493   1.254  12.273 -0.7961  0.0972  0.4421
  958MOL0     C29260   0.457   1.211  12.377 -0.5946  0.4159 -0.5692
  958MOL0     C29261   0.196   1.067  11.606  0.2209  1.3019  0.0609
  958MOL0     C29262   0.157   0.979  11.504 -0.7317  0.5403  0.5754
  958MOL0     H29263  -0.105   0.636  11.355  0.7447  0.3063 -1.9153
  958MOL0     H29264  -0.240   0.452  11.242  0.2089  0.4274  2.4743
  958MOL0     H29265  -0.132   0.104  11.245 -3.9560 -1.1775  1.9644
  958MOL0     H29266  -0.271   0.209  11.227  0.8620  3.6219 -1.2252
  958MOL0     H29267  -0.340   0.127  11.020 -1.0703 -1.6427  1.0732
  958MOL0     H29268  -0.170   0.049  10.995  2.2721 -0.9442  2.9973
  958MOL0     H29269  -0.415  -0.049  11.151 -1.9824 -1.1856 -2.0382
  958MOL0     H29270  -0.361  -0.088  10.992 -1.2104  2.6805 -1.2503
  958MOL0     H29271  -0.144  -0.182  11.079 -0.8119  1.7094 -2.9487
  958MOL0     H29272  -0.206  -0.146  11.243 -6.5311 -0.5017  2.2763
  958MOL0     H29273  -0.392  -0.315  11.225 -1.0204 -3.0870  0.0663
  958MOL0     H29274  -0.387  -0.299  11.046  0.9521  0.6348  0.3977
  958MOL0     H29275  -0.315  -0.507  11.124  2.3441 -1.9559  0.8081
  958MOL0     H29276  -0.197  -0.406  11.020 -0.6407  1.4075  0.7422
  958MOL0     H29277  -0.075  -0.361  11.206 -0.2370 -0.1572  1.2614
  958MOL0     H29278  -0.184  -0.437  11.315 -1.8953  1.7269 -0.3304
  958MOL0     H29279  -0.151  -0.658  11.232  0.0585 -1.3056 -2.0558
  958MOL0     H29280  -0.010  -0.590  11.304  1.1232 -3.1639 -1.5185
  958MOL0     H29281   0.058  -0.397  11.037  2.1568 -0.5681  2.4416
  958MOL0     H29282   0.182  -0.602  10.717  3.7623 -1.1117  1.2154
  958MOL0     H29283   0.123  -0.447  10.727  2.2047  1.8116  0.3668
  958MOL0     H29284   0.297  -0.372  10.909  0.5267  0.7995  0.2407
  958MOL0     H29285   0.355  -0.407  10.753 -1.6481 -0.0440 -0.6902
  958MOL0     H29286   0.344  -0.582  11.010 -0.8780 -1.3611 -1.7900
  958MOL0     H29287   0.493  -0.520  10.952 -0.1735  0.3027  0.3555
  958MOL0     H29288   0.508  -0.677  10.763  0.3445  0.5876  0.3686
  958MOL0     H29289   0.330  -0.722  10.789 -0.5457 -1.5811  1.3250
  958MOL0     H29290   0.565  -0.843  10.671  1.7248  0.6065  0.7655
  958MOL0     H29291   0.583  -0.939  10.472 -0.0164 -0.6408 -1.5737
  958MOL0     H29292   0.746  -1.013  10.516  0.4014 -2.0698 -3.3505
  958MOL0     H29293   0.612  -1.109  10.469  2.0869  0.4927 -0.6514
  958MOL0     H29294   0.918  -1.457  10.666  1.0264 -2.4496 -2.1909
  958MOL0     H29295   0.977  -1.650  10.580  0.4270  2.5074  1.2648
  958MOL0     H29296   1.059  -1.826  10.564 -0.4064  0.9270 -0.1195
  958MOL0     H29297   1.036  -1.988  10.559 -1.3811 -0.2272  2.1466
  958MOL0     H29298   0.911  -1.967  10.343  0.1871 -0.0164 -1.1119
  958MOL0     H29299   0.926  -1.799  10.355  0.9521 -0.3903 -0.6081
  958MOL0     H29300   1.103  -1.942  10.205  1.0764 -1.2306 -0.5753
  958MOL0     H29301   1.179  -2.000  10.359 -1.2210  1.2096  2.8620
  958MOL0     H29302   1.129  -1.704  10.318 -1.1385 -2.1342 -1.0441
  958MOL0     H29303   1.238  -1.786  10.425  3.9761  2.8175 -0.9975
  958MOL0     H29304   1.348  -1.670  10.245 -1.2940 -0.8695  2.5230
  958MOL0     H29305   1.294  -1.776  10.114  1.1962  1.5567 -1.4396
  958MOL0     H29306   1.512  -1.786  10.206  1.1390  0.4873  1.9826
  958MOL0     H29307   1.448  -1.853  10.353 -2.3846  2.9151  0.5256
  958MOL0     H29308   1.374  -1.981  10.089 -4.2700 -0.1613  3.4678
  958MOL0     H29309   1.379  -2.071  10.234 -0.8885 -0.5622 -1.2898
  958MOL0     H29310   1.636  -1.952  10.112  1.5626 -2.0896 -1.3539
  958MOL0     H29311   1.580  -2.102  10.073 -1.4251  3.7376 -4.0360
  958MOL0     H29312   0.619  -1.858  10.696 -2.1033  1.5752  1.7195
  958MOL0     H29313   0.512  -1.638  10.771 -0.1913  0.7334  1.4950
  958MOL0     H29314   0.542  -1.261  10.917  1.0719  0.8120 -0.0510
  958MOL0     H29315   0.452  -1.046  11.029 -1.7241 -2.4656 -0.5637
  958MOL0     H29316   0.149   0.274  11.165  0.3905 -0.5220  1.1414
  958MOL0     H29317   0.257   0.433  11.277  0.7335  3.0957 -0.3570
  958MOL0     H29318   0.104   0.700  11.692  1.3086  0.7100  1.6903
  958MOL0     H29319   0.167   0.853  11.863 -2.5175 -4.0647 -1.6649
  958MOL0     H29320   0.166   1.017  12.026  2.1663 -3.4181 -0.9282
  958MOL0     H29321   0.320   0.977  11.969 -0.9223 -1.3683 -0.3490
  958MOL0     H29322   0.276   1.156  12.165  0.6471 -0.5648  1.2799
  958MOL0     H29323   0.240   1.274  12.037 -0.1884  0.5648  0.3847
  958MOL0     H29324   0.474   1.216  11.938 -0.1526  0.5535  0.4028
  958MOL0     H29325   0.507   1.100  12.060  1.5432  0.7515  3.9442
  958MOL0     H29326   0.443   1.392  12.138 -1.8127 -0.7694 -0.6680
  958MOL0     H29327   0.605   1.329  12.110 -1.3150  3.5266 -3.9501
  958MOL0     H29328   0.443   1.163  12.472 -1.4897  0.7982 -0.4982
  958MOL0     H29329   0.209   1.172  11.582 -3.1439  1.3689 -2.2966
  958MOL0     H29330   0.161   1.027  11.407 -1.5947 -0.0586  0.2302
  959MOL0     O29331  10.531   7.178   1.106 -0.0570 -0.1953  0.6281
  959MOL0     C29332  10.635   7.131   1.063 -0.4466 -0.8326 -0.4439
  959MOL0     O29333  10.662   7.086   0.944  0.0332  0.6664  0.3363
  959MOL0     C29334  10.557   7.040   0.864 -0.5194  0.7362 -0.4685
  959MOL0     C29335  10.463   6.946   0.908 -0.1185 -0.3861 -0.9105
  959MOL0     C29336  10.364   6.893   0.822 -0.5339  0.3002 -0.5598
  959MOL0     C29337  10.350   6.946   0.693  0.1772 -0.2394  0.2189
  959MOL0     O29338  10.252   6.890   0.614 -0.5367 -1.0506 -0.6393
  959MOL0     C29339  10.198   6.966   0.511  0.0545  0.2327  0.2592
  959MOL0     C29340  10.108   6.901   0.409 -0.0914 -0.9150 -0.6236
  959MOL0     C29341  10.158   6.786   0.320  0.1762  0.6150  0.5348
  959MOL0     C29342  10.051   6.685   0.294  0.9978  1.4243  0.3924
  959MOL0     C29343  10.103   6.584   0.186  0.6923 -0.3097 -0.0246
  959MOL0     C29344   9.997   6.507   0.087 -0.5216 -0.6568  0.2026
  959MOL0     C29345   9.945   6.383   0.160 -0.1150  0.0638 -0.7723
  959MOL0     C29346   9.813   6.347   0.093  0.2412 -0.0801 -0.4400
  959MOL0     N29347   9.826   6.305  -0.053 -0.2503  0.4294 -0.7151
  959MOL0     C29348   9.914   6.196  -0.083 -0.8127 -0.5724  0.1822
  959MOL0     C29349   9.894   6.179  -0.217  0.4093  0.1012 -0.0596
  959MOL0     C29350   9.979   6.107  -0.308 -0.0276  1.0364  0.1230
  959MOL0     C29351  10.030   6.203  -0.418 -0.7105 -0.5045  0.4561
  959MOL0     C29352  10.108   6.143  -0.536  1.1844  0.0603 -0.4805
  959MOL0     C29353  10.169   6.248  -0.624 -1.2149 -0.6061 -0.5013
  959MOL0     O29354  10.275   6.323  -0.561 -0.5627  0.3985  0.1757
  959MOL0     C29355  10.358   6.260  -0.473 -1.4588  0.9911 -0.1834
  959MOL0     C29356  10.392   6.335  -0.362  0.5499  0.3425  0.9153
  959MOL0     C29357  10.470   6.274  -0.267 -0.8972  0.5521 -0.1101
  959MOL0     C29358  10.478   6.341  -0.134  0.5668  0.6011  0.3727
  959MOL0     C29359  10.518   6.138  -0.282 -0.3428  0.5335 -0.1799
  959MOL0     C29360  10.588   6.066  -0.176 -0.8376  1.1277 -0.0212
  959MOL0     O29361  10.701   6.130  -0.142  1.1124 -0.2938 -0.1396
  959MOL0     C29362  10.765   6.114  -0.024  0.4661  0.4044  0.5960
  959MOL0     C29363  10.899   6.148  -0.028 -0.4042 -1.0908  0.3425
  959MOL0     C29364  10.967   6.161   0.095 -0.7563  0.3913 -0.0167
  959MOL0     C29365  10.917   6.104   0.207 -0.5926  0.2500  0.9346
  959MOL0     O29366  10.984   6.072   0.321  0.0304 -0.2065 -0.8004
  959MOL0     C29367  11.124   6.025   0.310 -0.0174 -0.4731 -0.5018
  959MOL0     C29368  11.132   5.890   0.378 -0.1294 -0.4233  0.1235
  959MOL0     C29369  11.056   5.783   0.308  0.3239  0.5977  0.2612
  959MOL0     C29370  10.989   5.685   0.406  0.3171  0.4880  0.0818
  959MOL0     C29371  10.867   5.726   0.472  0.2289 -0.2035  0.3429
  959MOL0     C29372  10.751   5.677   0.406  0.5422 -0.3908  0.2768
  959MOL0     C29373  10.616   5.741   0.448  0.3246  0.7856  0.3920
  959MOL0     C29374  10.502   5.709   0.356 -1.0944 -0.0700  0.6869
  959MOL0    Cl29375  10.357   5.669   0.442  0.2197 -0.0022 -0.2284
  959MOL0     C29376  10.789   6.050   0.206  0.0116  0.4695  0.5138
  959MOL0     C29377  10.711   6.060   0.094 -0.0858  0.0735  0.7374
  959MOL0     O29378  10.554   5.957  -0.128  0.0369 -0.3776  0.0228
  959MOL0     C29379  10.494   6.066  -0.406 -0.3798 -0.5244 -0.2898
  959MOL0     C29380  10.414   6.130  -0.498  0.2147 -0.0415 -0.9675
  959MOL0     N29381   9.785   6.250  -0.267  0.4549  1.0025  0.2967
  959MOL0     N29382   9.743   6.319  -0.156  0.0976  0.6697  0.0958
  959MOL0     C29383  10.446   7.037   0.650  0.8469 -0.7828  0.1499
  959MOL0     C29384  10.546   7.077   0.731 -0.4567  0.3902  0.0517
  959MOL0     C29385  10.742   7.125   1.168  1.1941 -0.2250  0.7148
  959MOL0     C29386  10.704   7.123   1.308 -0.3613 -0.8579  0.4015
  959MOL0     C29387  10.799   7.082   1.409 -0.5168  0.0268  0.1890
  959MOL0     C29388  10.936   7.057   1.369 -0.8121  0.3745 -0.4803
  959MOL0     O29389  11.031   7.017   1.469  0.7320 -0.3020  0.0971
  959MOL0     C29390  11.159   6.970   1.436  0.4946 -0.3741  0.2215
  959MOL0     C29391  11.241   6.993   1.564  0.4466 -0.3668  0.8785
  959MOL0     C29392  11.386   6.945   1.543 -0.1174  0.8554 -0.0479
  959MOL0     C29393  11.464   7.047   1.465 -0.1242 -0.8219  0.3384
  959MOL0     C29394  11.584   7.113   1.523 -0.1278  0.0068 -0.1459
  959MOL0     C29395  11.676   7.187   1.562 -0.5608 -0.3439  0.8149
  959MOL0     C29396  10.966   7.051   1.237 -0.4871  0.2949  0.8143
  959MOL0     C29397  10.877   7.095   1.139  0.8736 -0.9064  0.2151
  959MOL0     H29398  10.470   6.904   1.008 -0.3083 -0.5378 -0.9615
  959MOL0     H29399  10.295   6.815   0.853  1.9154 -0.6365  3.2828
  959MOL0     H29400  10.142   7.039   0.570  1.5136 -0.4527  2.5929
  959MOL0     H29401  10.277   7.014   0.451  0.5606 -2.5853 -1.5161
  959MOL0     H29402  10.024   6.867   0.470  1.1637 -1.5338  0.8032
  959MOL0     H29403  10.073   6.980   0.342 -0.3998  0.1299  0.7387
  959MOL0     H29404  10.192   6.830   0.226 -3.6210  2.0071 -0.3934
  959MOL0     H29405  10.226   6.738   0.390 -0.5468  0.7632  1.3506
  959MOL0     H29406  10.009   6.623   0.374 -1.7138  1.5728 -0.7830
  959MOL0     H29407   9.972   6.748   0.252  0.6869  1.0359  0.3910
  959MOL0     H29408  10.164   6.646   0.120  1.7453  1.0263  2.1034
  959MOL0     H29409  10.175   6.510   0.220  0.1247 -0.2073  1.4837
  959MOL0     H29410   9.914   6.564   0.045  0.8329 -0.7971 -2.9646
  959MOL0     H29411  10.039   6.474  -0.008 -1.7573 -3.0927  0.4187
  959MOL0     H29412  10.018   6.302   0.151  0.9802  1.1952 -2.8974
  959MOL0     H29413   9.928   6.411   0.264  2.1692  1.8619 -0.7828
  959MOL0     H29414   9.741   6.429   0.104  0.4557  0.0526  0.0540
  959MOL0     H29415   9.767   6.262   0.145 -0.6050  1.0175  0.6847
  959MOL0     H29416  10.002   6.153  -0.036 -1.3876 -4.4274 -1.8608
  959MOL0     H29417  10.060   6.050  -0.263  2.3380  0.3721 -4.3743
  959MOL0     H29418   9.910   6.040  -0.361 -2.1877  2.2280  1.2793
  959MOL0     H29419  10.098   6.278  -0.378  2.8752 -2.5539 -1.2791
  959MOL0     H29420   9.944   6.259  -0.455 -0.0385  0.6010  0.5248
  959MOL0     H29421  10.037   6.086  -0.597  0.2379 -1.3898  1.8580
  959MOL0     H29422  10.186   6.072  -0.507  0.0179 -1.0510  0.0133
  959MOL0     H29423  10.099   6.325  -0.660  2.2168  1.0556 -4.3976
  959MOL0     H29424  10.189   6.198  -0.719 -1.4821 -0.8700 -0.4211
  959MOL0     H29425  10.358   6.437  -0.349 -0.3962  0.4711 -1.8798
  959MOL0     H29426  10.451   6.260  -0.064  1.4925  0.8760  1.0746
  959MOL0     H29427  10.580   6.377  -0.115  1.9212 -2.1540 -1.0102
  959MOL0     H29428  10.420   6.431  -0.113  4.8376  3.5861  0.4997
  959MOL0     H29429  10.947   6.185  -0.118  1.5461 -2.7487  0.6286
  959MOL0     H29430  11.071   6.189   0.109 -0.6694  0.2302 -0.3321
  959MOL0     H29431  11.160   6.032   0.207 -0.1506 -0.3298 -0.5385
  959MOL0     H29432  11.190   6.080   0.379  1.7184 -1.3299 -1.4103
  959MOL0     H29433  11.240   5.869   0.374 -0.0261  0.2046 -1.2733
  959MOL0     H29434  11.111   5.896   0.485  3.3289 -1.0435  0.9759
  959MOL0     H29435  11.118   5.716   0.248  0.2269  0.0019  0.8171
  959MOL0     H29436  10.988   5.819   0.230 -1.4373 -1.3332  0.8212
  959MOL0     H29437  10.980   5.586   0.360  0.3700  0.7080 -0.3997
  959MOL0     H29438  11.061   5.658   0.484 -0.7850 -1.2442  0.5518
  959MOL0     H29439  10.862   5.835   0.480 -2.9489 -0.2545  0.4010
  959MOL0     H29440  10.865   5.678   0.570 -1.1394 -3.0966 -0.9919
  959MOL0     H29441  10.749   5.692   0.298  3.0830  0.6642  0.3006
  959MOL0     H29442  10.748   5.568   0.409 -0.7600 -0.3627  0.6243
  959MOL0     H29443  10.631   5.849   0.446 -1.1735  1.0099 -2.2317
  959MOL0     H29444  10.586   5.714   0.550  1.9794 -0.1816  0.6608
  959MOL0     H29445  10.532   5.631   0.284  0.4623  2.1571 -1.2232
  959MOL0     H29446  10.502   5.793   0.287  2.4240 -1.0966 -0.8221
  959MOL0     H29447  10.745   5.993   0.287 -3.1764  1.6176 -0.2727
  959MOL0     H29448  10.607   6.032   0.103  0.1981 -1.7549 -0.9489
  959MOL0     H29449  10.540   5.970  -0.429 -1.1163 -0.0680 -4.4437
  959MOL0     H29450  10.382   6.078  -0.587 -0.1296  0.7674 -1.3228
  959MOL0     H29451  10.425   7.093   0.559  4.0928 -0.7318 -0.6966
  959MOL0     H29452  10.622   7.145   0.694 -0.4528  1.8322  2.5362
  959MOL0     H29453  10.602   7.147   1.334 -1.0544 -2.4317 -0.7827
  959MOL0     H29454  10.767   7.079   1.513 -1.8899 -0.6073 -0.2275
  959MOL0     H29455  11.148   6.862   1.427 -1.4675 -0.1499 -0.5950
  959MOL0     H29456  11.208   7.018   1.350 -1.3149 -1.3496 -1.4259
  959MOL0     H29457  11.203   6.929   1.644  2.5378 -4.4391 -1.0858
  959MOL0     H29458  11.240   7.091   1.613  1.4209 -1.1747  2.6264
  959MOL0     H29459  11.398   6.848   1.495  1.8260  1.7869 -1.6296
  959MOL0     H29460  11.446   6.934   1.634  0.2089  0.3907 -0.3160
  959MOL0     H29461  11.387   7.117   1.431 -0.4841 -1.1418  0.4775
  959MOL0     H29462  11.511   7.000   1.379  0.1747  2.3073 -1.3476
  959MOL0     H29463  11.756   7.252   1.593 -1.0351 -0.7813  3.1211
  959MOL0     H29464  11.066   7.018   1.210 -0.0872 -0.3038  2.8000
  959MOL0     H29465  10.897   7.104   1.033  2.8307  0.1915  0.6418
  960MOL0     O29466   6.212   9.839   1.159 -0.3977  0.4292  0.7765
  960MOL0     C29467   6.278   9.739   1.140  0.5145  0.6882 -0.0717
  960MOL0     O29468   6.243   9.630   1.062 -0.7764 -0.7655 -0.4635
  960MOL0     C29469   6.180   9.661   0.946  0.0545  0.5986  0.0744
  960MOL0     C29470   6.045   9.700   0.935  0.1584 -0.5111 -0.6674
  960MOL0     C29471   6.001   9.746   0.808 -0.4906 -0.1554 -0.2850
  960MOL0     C29472   6.078   9.739   0.697 -0.2189 -0.1907 -0.1180
  960MOL0     O29473   6.029   9.803   0.582  0.6525  0.2579 -0.7908
  960MOL0     C29474   6.057   9.732   0.461 -0.2108  0.1579 -0.2703
  960MOL0     C29475   6.044   9.828   0.343 -0.0102 -1.1918  0.6157
  960MOL0     C29476   6.099   9.969   0.365 -0.6549 -0.2715  0.3226
  960MOL0     C29477   6.040  10.060   0.253  0.2900 -0.4178  0.2852
  960MOL0     C29478   6.114  10.065   0.120 -0.1117  0.1834 -0.3969
  960MOL0     C29479   6.044  10.139   0.010  0.2821 -0.5187 -0.1482
  960MOL0     C29480   6.052  10.290   0.032  0.5888  0.2649  0.5711
  960MOL0     C29481   5.981  10.367  -0.082  0.4361 -0.1216 -0.7296
  960MOL0     N29482   6.025  10.351  -0.218  0.4521 -1.1309 -0.7032
  960MOL0     C29483   6.148  10.382  -0.272  0.2171  0.3676  0.4757
  960MOL0     C29484   6.137  10.392  -0.402 -1.1419  0.7674  0.7322
  960MOL0     C29485   6.243  10.448  -0.495 -0.0518  0.0125 -0.7087
  960MOL0     C29486   6.333  10.331  -0.542 -0.9425 -0.1640 -0.6331
  960MOL0     C29487   6.247  10.235  -0.628  0.3302  0.2593 -0.4852
  960MOL0     C29488   6.333  10.121  -0.674 -0.7404 -0.2983 -0.0783
  960MOL0     O29489   6.337  10.029  -0.566 -1.4299  0.0284  0.1882
  960MOL0     C29490   6.456   9.999  -0.492 -0.8114 -0.1123 -0.2119
  960MOL0     C29491   6.577  10.071  -0.486 -0.7220  0.6300 -0.0872
  960MOL0     C29492   6.683  10.029  -0.394  0.0948  0.6523  0.4124
  960MOL0     C29493   6.807  10.122  -0.395  0.3768  0.2896 -0.8126
  960MOL0     C29494   6.670   9.914  -0.306  0.7864 -0.1194  0.6179
  960MOL0     C29495   6.781   9.872  -0.210  0.5902  0.2768 -0.5143
  960MOL0     O29496   6.740   9.782  -0.117 -0.4556  0.4479 -0.0037
  960MOL0     C29497   6.826   9.755  -0.010 -0.2008 -0.2049  0.1080
  960MOL0     C29498   6.947   9.689  -0.009 -0.0818  0.1708  1.4099
  960MOL0     C29499   7.021   9.662   0.110 -0.2495 -0.0838  1.3307
  960MOL0     C29500   6.973   9.700   0.235  0.5836  0.0800 -0.7381
  960MOL0     O29501   7.041   9.678   0.360  0.1353 -0.3737  0.7548
  960MOL0     C29502   7.177   9.737   0.354 -0.2813 -0.6914  0.4436
  960MOL0     C29503   7.247   9.686   0.480 -0.3913 -0.0189  0.0101
  960MOL0     C29504   7.269   9.527   0.473 -0.2140  0.4056 -0.1628
  960MOL0     C29505   7.390   9.491   0.571 -0.6171  0.8369  0.4013
  960MOL0     C29506   7.402   9.340   0.566 -0.4562  0.6865 -0.7528
  960MOL0     C29507   7.537   9.303   0.616 -0.5967  0.7751  0.0082
  960MOL0     C29508   7.561   9.154   0.619 -0.9376 -0.6247 -0.0438
  960MOL0     C29509   7.707   9.117   0.565 -0.3166 -0.5903 -0.6914
  960MOL0    Cl29510   7.831   9.189   0.674  0.3880  0.0724  0.1456
  960MOL0     C29511   6.851   9.767   0.244  0.3391 -0.8682  1.1207
  960MOL0     C29512   6.788   9.794   0.122 -0.6346  0.2717 -0.1857
  960MOL0     O29513   6.894   9.917  -0.217  0.0163  0.0770 -0.1798
  960MOL0     C29514   6.548   9.855  -0.315 -0.0976  0.5900  1.2282
  960MOL0     C29515   6.448   9.896  -0.405  0.1667 -0.0841  0.6460
  960MOL0     N29516   6.001  10.358  -0.428 -0.3070 -0.6756  0.1627
  960MOL0     N29517   5.939  10.330  -0.321  0.7216  0.2674  0.3259
  960MOL0     C29518   6.211   9.696   0.702  0.3980 -0.0510  0.7165
  960MOL0     C29519   6.251   9.655   0.828 -0.4708 -0.1064 -0.0815
  960MOL0     C29520   6.408   9.720   1.215 -0.2977 -0.4613 -0.6716
  960MOL0     C29521   6.468   9.597   1.234 -0.6789 -0.6745  0.1314
  960MOL0     C29522   6.580   9.589   1.310 -0.1299  0.9962 -0.4620
  960MOL0     C29523   6.624   9.696   1.392 -0.3067  0.3476 -1.0015
  960MOL0     O29524   6.731   9.676   1.479  0.0879  0.0977 -0.9973
  960MOL0     C29525   6.742   9.765   1.590  0.4494  0.1444 -0.1589
  960MOL0     C29526   6.793   9.691   1.713 -0.3436  0.3104  0.8656
  960MOL0     C29527   6.949   9.658   1.700 -0.1051  0.1336 -0.3719
  960MOL0     C29528   6.970   9.518   1.633 -0.9166 -1.3021  0.5216
  960MOL0     C29529   7.111   9.490   1.598 -0.1266 -0.9921  0.3956
  960MOL0     C29530   7.223   9.446   1.572 -0.4947 -1.0904  0.1245
  960MOL0     C29531   6.566   9.816   1.374  0.4954  0.0948 -0.1058
  960MOL0     C29532   6.464   9.832   1.283 -0.2959  0.3670  0.6439
  960MOL0     H29533   5.982   9.714   1.022 -1.3463 -2.7331 -1.3033
  960MOL0     H29534   5.898   9.779   0.803 -0.4873 -0.2342 -1.1134
  960MOL0     H29535   6.160   9.695   0.455  0.3281  1.7945 -2.1044
  960MOL0     H29536   5.981   9.655   0.441  0.5261 -0.4849 -0.6344
  960MOL0     H29537   6.097   9.771   0.266 -2.2664 -0.7845 -1.3483
  960MOL0     H29538   5.939   9.843   0.316  0.5247  1.9949 -0.1039
  960MOL0     H29539   6.056  10.000   0.461  0.0797 -1.4932  1.0738
  960MOL0     H29540   6.208   9.974   0.375 -0.5029  0.2022 -1.2838
  960MOL0     H29541   5.941  10.024   0.226  0.5309 -1.6870  0.9795
  960MOL0     H29542   6.021  10.155   0.304  0.3451 -1.7036  2.8973
  960MOL0     H29543   6.211  10.113   0.135  0.1901 -0.8146  1.0003
  960MOL0     H29544   6.119   9.958   0.099  0.3632 -0.0110  0.6877
  960MOL0     H29545   6.082  10.102  -0.085  1.1020 -0.9926  0.3443
  960MOL0     H29546   5.941  10.104   0.016  0.4791 -1.0831  0.0780
  960MOL0     H29547   5.992  10.312   0.120 -1.3994  0.1214 -0.6998
  960MOL0     H29548   6.154  10.321   0.059 -0.3464  1.8076  2.5644
  960MOL0     H29549   5.985  10.476  -0.072 -2.4894  0.1074 -1.0090
  960MOL0     H29550   5.875  10.340  -0.071  0.2209  1.2247  0.9020
  960MOL0     H29551   6.236  10.398  -0.210 -0.0503  2.4721  0.3969
  960MOL0     H29552   6.194  10.501  -0.577 -0.5084 -0.5399 -0.7930
  960MOL0     H29553   6.298  10.525  -0.439 -0.9196 -0.0954  0.3444
  960MOL0     H29554   6.386  10.290  -0.456 -0.4460 -1.5622 -1.5747
  960MOL0     H29555   6.414  10.364  -0.607 -2.2247  1.8919 -1.2920
  960MOL0     H29556   6.195  10.275  -0.716  0.9963  2.0212 -0.1088
  960MOL0     H29557   6.166  10.195  -0.568  0.1378  1.8751  0.3836
  960MOL0     H29558   6.430  10.157  -0.709 -1.1419  1.2777  0.3394
  960MOL0     H29559   6.275  10.067  -0.748  1.5187 -2.2053 -0.5798
  960MOL0     H29560   6.591  10.159  -0.549 -3.2991  1.0810 -0.1272
  960MOL0     H29561   6.891  10.069  -0.441  1.3092  0.7608  0.3173
  960MOL0     H29562   6.778  10.213  -0.449 -1.7652  0.1985  0.0766
  960MOL0     H29563   6.837  10.155  -0.296  1.0159  0.8661 -1.1898
  960MOL0     H29564   6.995   9.662  -0.103 -4.3826 -2.3707 -0.3183
  960MOL0     H29565   7.118   9.614   0.097  0.1818  0.9654  0.4563
  960MOL0     H29566   7.243   9.709   0.272  1.4217 -3.0577  2.4708
  960MOL0     H29567   7.152   9.842   0.334 -0.7378 -1.0195 -0.7888
  960MOL0     H29568   7.348   9.728   0.483  0.1625 -1.3019  0.3454
  960MOL0     H29569   7.193   9.718   0.570  0.4833 -2.9990  1.7387
  960MOL0     H29570   7.281   9.495   0.369  0.8897 -0.1099  0.1058
  960MOL0     H29571   7.176   9.478   0.505  0.2276 -3.1162 -3.5527
  960MOL0     H29572   7.481   9.540   0.535 -0.1480 -0.8366 -0.8288
  960MOL0     H29573   7.375   9.519   0.675 -0.4310  2.0766  0.1118
  960MOL0     H29574   7.395   9.300   0.464  1.0354  1.7893 -1.3192
  960MOL0     H29575   7.325   9.287   0.623  1.2327 -1.3640 -0.2926
  960MOL0     H29576   7.613   9.344   0.549 -0.1378  1.0523  0.6863
  960MOL0     H29577   7.554   9.352   0.712 -0.7260  0.1617  0.3460
  960MOL0     H29578   7.477   9.102   0.571  0.5895  1.0571 -5.2430
  960MOL0     H29579   7.552   9.111   0.719 -2.9032 -0.6149 -0.1719
  960MOL0     H29580   7.728   9.147   0.462  0.3070  0.7606 -0.1841
  960MOL0     H29581   7.734   9.012   0.578  0.4778 -0.4550 -1.2075
  960MOL0     H29582   6.815   9.787   0.344  1.2126  1.5106  1.0228
  960MOL0     H29583   6.697   9.853   0.135 -2.0854 -1.9351  0.2215
  960MOL0     H29584   6.525   9.774  -0.247  4.3312  0.5466  3.0134
  960MOL0     H29585   6.348   9.855  -0.414 -0.8561  0.6280  5.8270
  960MOL0     H29586   6.287   9.699   0.625  1.9190 -0.7551  2.1254
  960MOL0     H29587   6.352   9.621   0.845 -0.5192  0.8334  2.6252
  960MOL0     H29588   6.417   9.519   1.179  0.0150  1.3783 -3.8165
  960MOL0     H29589   6.636   9.497   1.322  0.3737  1.2938 -0.4717
  960MOL0     H29590   6.802   9.854   1.569  1.2810  0.2610  2.3433
  960MOL0     H29591   6.644   9.805   1.619  0.2878 -0.6062  0.3567
  960MOL0     H29592   6.734   9.599   1.712 -1.2568  0.8465 -1.4394
  960MOL0     H29593   6.788   9.751   1.805 -3.7441 -1.1798  1.8204
  960MOL0     H29594   7.004   9.664   1.795 -1.8363 -1.1828  0.7785
  960MOL0     H29595   7.001   9.735   1.642 -0.8474  1.2691  0.4221
  960MOL0     H29596   6.907   9.525   1.544  0.2709 -0.1515 -0.2648
  960MOL0     H29597   6.935   9.458   1.718 -1.2451  1.1957  2.2651
  960MOL0     H29598   7.322   9.411   1.549 -0.2058 -0.5553  0.5371
  960MOL0     H29599   6.596   9.899   1.438 -1.3364 -1.0167  2.3369
  960MOL0     H29600   6.423   9.931   1.266  2.6284  1.6727  0.5795
  961MOL0     O29601   0.016   8.947  11.165 -0.3478 -0.1903  0.6192
  961MOL0     C29602  -0.044   8.861  11.089 -0.7696 -1.4925  0.2460
  961MOL0     O29603  -0.174   8.818  11.113  0.0969  0.0831 -0.9184
  961MOL0     C29604  -0.240   8.896  11.212 -0.8218 -0.2030 -0.4753
  961MOL0     C29605  -0.210   8.870  11.350 -0.3972 -0.0154  0.4906
  961MOL0     C29606  -0.265   8.952  11.454  0.5854 -1.0253  0.1778
  961MOL0     C29607  -0.364   9.043  11.419 -0.7912 -0.6489  0.1137
  961MOL0     O29608  -0.422   9.128  11.511 -0.9547  0.5450  0.0890
  961MOL0     C29609  -0.457   9.055  11.633 -0.6231  0.7151 -0.4859
  961MOL0     C29610  -0.591   9.092  11.698 -0.8759 -0.7150  0.9001
  961MOL0     C29611  -0.592   9.240  11.745 -0.3226  0.6284 -1.0163
  961MOL0     C29612  -0.738   9.270  11.768 -0.0407  0.3641  1.3411
  961MOL0     C29613  -0.758   9.398  11.846 -0.5644  0.8807 -0.1840
  961MOL0     C29614  -0.681   9.522  11.778  0.6926  0.0652 -0.5706
  961MOL0     C29615  -0.707   9.651  11.854  0.3281 -0.3815  0.2875
  961MOL0     C29616  -0.613   9.766  11.814  0.1781  0.5537 -0.9412
  961MOL0     N29617  -0.648   9.826  11.687  0.9186  0.0846 -1.1877
  961MOL0     C29618  -0.635   9.768  11.560  0.4085 -0.0620  0.3448
  961MOL0     C29619  -0.661   9.871  11.472 -0.5827 -0.5904  0.5622
  961MOL0     C29620  -0.656   9.871  11.321 -0.0081 -0.2673  0.6304
  961MOL0     C29621  -0.586   9.991  11.267 -0.3339 -0.2252 -0.5363
  961MOL0     C29622  -0.437   9.972  11.316 -0.0304 -0.4059 -0.2625
  961MOL0     C29623  -0.366  10.093  11.261  0.5349  0.1988 -1.0849
  961MOL0     O29624  -0.430  10.212  11.309 -0.0994 -0.8695 -0.1138
  961MOL0     C29625  -0.440  10.318  11.221  0.1827  1.6888  0.6765
  961MOL0     C29626  -0.366  10.429  11.260  0.3312  0.8697  1.1194
  961MOL0     C29627  -0.372  10.546  11.188 -1.1668  0.5187 -1.4691
  961MOL0     C29628  -0.307  10.676  11.242 -0.2462  0.0684 -0.5253
  961MOL0     C29629  -0.466  10.555  11.077 -0.9923  0.5496 -0.2926
  961MOL0     C29630  -0.472  10.676  10.994  1.0190  0.4286  0.4668
  961MOL0     O29631  -0.362  10.743  10.974 -0.1132 -0.2885  0.5246
  961MOL0     C29632  -0.358  10.845  10.882  0.0862  0.0993 -0.6054
  961MOL0     C29633  -0.252  10.864  10.794 -0.8077  0.7752  0.4879
  961MOL0     C29634  -0.245  10.975  10.708  0.1659  0.9651  0.0964
  961MOL0     C29635  -0.333  11.077  10.725  0.9563 -0.3578 -0.2959
  961MOL0     O29636  -0.311  11.182  10.641  0.0378 -0.4256  0.2534
  961MOL0     C29637  -0.329  11.314  10.696  0.1692  0.0211  0.2545
  961MOL0     C29638  -0.200  11.348  10.766  0.4166  0.2909 -0.5596
  961MOL0     C29639  -0.089  11.385  10.667  0.1780 -0.4082  0.0973
  961MOL0     C29640   0.045  11.428  10.728  1.1480 -0.4225 -0.4997
  961MOL0     C29641   0.138  11.481  10.608  0.4590 -0.4604  0.0887
  961MOL0     C29642   0.291  11.456  10.634 -0.0218 -0.3246 -0.4322
  961MOL0     C29643   0.389  11.470  10.509  0.5799  0.8037 -0.1617
  961MOL0     C29644   0.361  11.606  10.444  0.3765 -0.5003 -0.1793
  961MOL0    Cl29645   0.490  11.606  10.311 -0.0730 -0.0309 -0.0335
  961MOL0     C29646  -0.434  11.064  10.824 -0.8019 -0.1499  0.4996
  961MOL0     C29647  -0.450  10.950  10.899  0.0787 -0.3784 -0.8138
  961MOL0     O29648  -0.586  10.706  10.949 -0.2367  0.1365  0.7779
  961MOL0     C29649  -0.543  10.439  11.040 -0.3467 -0.7059  0.5984
  961MOL0     C29650  -0.522  10.320  11.108 -0.6285  0.4748 -0.0781
  961MOL0     N29651  -0.685   9.987  11.542  0.2650  0.3094 -0.5289
  961MOL0     N29652  -0.688   9.962  11.668 -0.5237  0.1390  0.1678
  961MOL0     C29653  -0.395   9.072  11.289 -0.1007 -0.0241  0.2639
  961MOL0     C29654  -0.336   8.992  11.191  0.2052 -0.4232  0.0745
  961MOL0     C29655   0.020   8.795  10.977  0.0852  0.7082 -0.8205
  961MOL0     C29656   0.157   8.804  10.955  0.1529 -0.1413  0.0117
  961MOL0     C29657   0.221   8.744  10.843 -0.4751 -0.2454 -0.0054
  961MOL0     C29658   0.141   8.682  10.740  0.2654 -0.4936 -0.5546
  961MOL0     O29659   0.185   8.612  10.630  0.0083 -0.0524  0.9923
  961MOL0     C29660   0.324   8.588  10.631  1.1031  0.7763  0.1936
  961MOL0     C29661   0.347   8.498  10.507 -0.8664 -0.3571 -0.5364
  961MOL0     C29662   0.483   8.491  10.455 -0.0094 -0.5268  0.1149
  961MOL0     C29663   0.501   8.592  10.335  0.1895  0.2481  0.1050
  961MOL0     C29664   0.445   8.725  10.354 -0.3819 -0.7704  0.6440
  961MOL0     C29665   0.413   8.841  10.372  0.1451 -0.5427  0.5263
  961MOL0     C29666   0.004   8.691  10.768 -0.1001  0.9328  0.3367
  961MOL0     C29667  -0.053   8.738  10.882 -0.3111  0.7313  0.1104
  961MOL0     H29668  -0.142   8.793  11.386 -1.6659 -1.4518 -0.0719
  961MOL0     H29669  -0.233   8.944  11.558  0.8950 -1.4059  0.0578
  961MOL0     H29670  -0.471   8.948  11.614  0.2397  0.6035 -0.5307
  961MOL0     H29671  -0.373   9.076  11.700  1.2185  0.8183 -2.6900
  961MOL0     H29672  -0.669   9.076  11.623 -1.0793 -1.0661  1.1846
  961MOL0     H29673  -0.609   9.017  11.775 -2.1075 -3.1479 -1.5847
  961MOL0     H29674  -0.542   9.233  11.842 -1.3838 -3.0738 -0.5933
  961MOL0     H29675  -0.545   9.317  11.684  2.1755  1.5016  1.7759
  961MOL0     H29676  -0.786   9.283  11.670 -1.2003  0.1206  1.8509
  961MOL0     H29677  -0.796   9.189  11.813 -1.9585 -0.5941 -2.4485
  961MOL0     H29678  -0.863   9.427  11.843 -0.5388  0.8624 -2.9194
  961MOL0     H29679  -0.725   9.382  11.950 -1.2687  1.8578  0.2094
  961MOL0     H29680  -0.572   9.508  11.771  1.0710 -0.5530  3.6183
  961MOL0     H29681  -0.728   9.514  11.680 -3.4235 -4.6102  1.3829
  961MOL0     H29682  -0.809   9.690  11.848  0.9262  1.0370 -1.0178
  961MOL0     H29683  -0.670   9.628  11.955  0.4389  2.8392  1.0898
  961MOL0     H29684  -0.510   9.728  11.818 -0.2948 -0.6700  1.8520
  961MOL0     H29685  -0.629   9.838  11.895  2.6021 -2.1847  2.2807
  961MOL0     H29686  -0.606   9.666  11.535  1.5010  0.7091 -1.8081
  961MOL0     H29687  -0.597   9.786  11.288 -1.8247 -0.6466 -1.8868
  961MOL0     H29688  -0.751   9.846  11.274  0.8616 -2.2192 -0.1785
  961MOL0     H29689  -0.635  10.085  11.294  2.4177  0.5731  2.2169
  961MOL0     H29690  -0.596   9.978  11.159  4.4528  0.6616 -1.3031
  961MOL0     H29691  -0.398   9.881  11.270  1.4228  0.9802 -1.9263
  961MOL0     H29692  -0.409   9.978  11.421  3.5099  3.1147 -1.1576
  961MOL0     H29693  -0.377  10.088  11.152 -1.0891  0.3575 -0.9509
  961MOL0     H29694  -0.262  10.073  11.289 -0.5600 -3.2229  1.1618
  961MOL0     H29695  -0.287  10.413  11.332  1.8237 -2.2305 -0.9390
  961MOL0     H29696  -0.263  10.667  11.342 -1.0504 -0.4658 -0.2039
  961MOL0     H29697  -0.215  10.700  11.188  0.4517  2.4044  1.4968
  961MOL0     H29698  -0.388  10.748  11.232  0.6649  1.1160 -0.6114
  961MOL0     H29699  -0.174  10.790  10.810 -0.5306  0.9754  0.0785
  961MOL0     H29700  -0.164  10.991  10.638 -0.5184  0.3257 -0.8814
  961MOL0     H29701  -0.353  11.390  10.621 -2.1555  3.8776  4.3969
  961MOL0     H29702  -0.412  11.325  10.766  1.8647 -1.4321  2.6534
  961MOL0     H29703  -0.209  11.436  10.831  0.7028 -0.5592  0.6658
  961MOL0     H29704  -0.177  11.261  10.829 -1.7429  0.5992  0.7585
  961MOL0     H29705  -0.124  11.473  10.612  1.0909  2.1807  3.3105
  961MOL0     H29706  -0.084  11.302  10.596 -2.4670 -0.9794  0.4900
  961MOL0     H29707   0.034  11.507  10.804  0.0677 -2.4320  1.5510
  961MOL0     H29708   0.080  11.333  10.770 -0.9659 -1.3828 -0.7977
  961MOL0     H29709   0.115  11.588  10.595 -2.9227 -1.2740 -2.0686
  961MOL0     H29710   0.128  11.428  10.513  2.6985 -0.8328  0.0204
  961MOL0     H29711   0.319  11.531  10.709  1.9562 -2.7586  1.4649
  961MOL0     H29712   0.304  11.362  10.689  3.5680  0.3563  0.1357
  961MOL0     H29713   0.358  11.386  10.446  0.6043  0.8635 -0.2521
  961MOL0     H29714   0.494  11.458  10.537  0.8594  4.2877  0.6939
  961MOL0     H29715   0.370  11.696  10.504 -1.3402 -2.1460  2.7858
  961MOL0     H29716   0.259  11.612  10.406  0.4880 -0.7137 -0.5253
  961MOL0     H29717  -0.511  11.131  10.859  2.2744  1.2166  5.8439
  961MOL0     H29718  -0.518  10.939  10.982  0.4710 -0.9116 -0.5521
  961MOL0     H29719  -0.619  10.460  10.966 -1.3164 -0.1685  1.7098
  961MOL0     H29720  -0.589  10.235  11.091 -0.8987 -0.2662  3.8314
  961MOL0     H29721  -0.473   9.137  11.250  0.3200  0.3623  0.0637
  961MOL0     H29722  -0.364   9.009  11.087  0.1177 -1.0686 -0.0068
  961MOL0     H29723   0.221   8.832  11.038  0.5451  0.1730 -0.3975
  961MOL0     H29724   0.329   8.743  10.846 -0.4580 -1.4355 -0.4696
  961MOL0     H29725   0.382   8.681  10.627  2.8831 -0.2006  1.5436
  961MOL0     H29726   0.352   8.531  10.720  0.6726 -4.7901 -2.7809
  961MOL0     H29727   0.282   8.536  10.427  0.8797  1.7927 -1.0292
  961MOL0     H29728   0.320   8.395  10.531  1.6274 -0.6473  1.3292
  961MOL0     H29729   0.492   8.393  10.408 -1.4803  0.4383 -2.3225
  961MOL0     H29730   0.551   8.500  10.540  1.6063  1.2077 -1.3032
  961MOL0     H29731   0.469   8.550  10.239 -1.9253 -1.2555  1.3678
  961MOL0     H29732   0.606   8.603  10.307  0.0820 -2.3357 -1.6992
  961MOL0     H29733   0.391   8.945  10.391 -0.2244 -0.2161 -1.4324
  961MOL0     H29734  -0.052   8.641  10.690  0.5885  0.5441  0.0748
  961MOL0     H29735  -0.161   8.741  10.877 -0.2834  1.5008 -0.1465
  962MOL0     O29736   2.270   2.330   4.573 -0.0518  0.4251  0.0078
  962MOL0     C29737   2.237   2.271   4.678  1.0288  0.5104 -0.4936
  962MOL0     O29738   2.113   2.226   4.707 -0.0282 -1.2307  0.1329
  962MOL0     C29739   2.020   2.231   4.601  0.0878  0.8391  0.0296
  962MOL0     C29740   2.045   2.191   4.472  0.2490  0.1129  0.4046
  962MOL0     C29741   1.943   2.174   4.384  0.5731  0.8078  0.3043
  962MOL0     C29742   1.808   2.199   4.429  1.0418 -0.8099  0.2196
  962MOL0     O29743   1.706   2.177   4.331 -0.1735  0.2000  0.2809
  962MOL0     C29744   1.576   2.153   4.379  0.0027 -0.7037 -0.2612
  962MOL0     C29745   1.460   2.116   4.285 -0.3522 -0.4133 -0.6887
  962MOL0     C29746   1.321   2.108   4.360  1.0429 -1.0695 -0.4884
  962MOL0     C29747   1.209   2.112   4.251 -0.0460 -1.0475 -1.0678
  962MOL0     C29748   1.071   2.115   4.317  0.1476 -0.0875  0.1715
  962MOL0     C29749   0.950   2.142   4.223 -0.8940  0.7451 -1.1417
  962MOL0     C29750   0.822   2.075   4.259  0.3473 -0.2089  0.2096
  962MOL0     C29751   0.813   1.931   4.225 -0.0579  0.0977  0.6414
  962MOL0     N29752   0.793   1.904   4.077 -0.0392 -0.6912  0.8271
  962MOL0     C29753   0.805   1.787   4.016  0.5901 -0.4322  0.8033
  962MOL0     C29754   0.753   1.805   3.896  0.6616  0.0682  0.9890
  962MOL0     C29755   0.756   1.705   3.779 -0.1622  0.3728 -0.8392
  962MOL0     C29756   0.652   1.592   3.828  0.1609 -0.5645  0.6731
  962MOL0     C29757   0.568   1.541   3.716  0.8062  0.8166  0.5666
  962MOL0     C29758   0.490   1.423   3.762  0.8896  0.0187  0.0465
  962MOL0     O29759   0.425   1.372   3.646 -0.5624  0.6141 -0.9989
  962MOL0     C29760   0.294   1.409   3.620  0.6545 -0.6603  0.3100
  962MOL0     C29761   0.216   1.498   3.705 -0.4316 -0.3166  0.3681
  962MOL0     C29762   0.089   1.544   3.666  1.1127 -0.0860 -0.3818
  962MOL0     C29763   0.009   1.638   3.762  0.9446 -0.1404  0.6524
  962MOL0     C29764   0.036   1.491   3.546  0.8471 -0.1828 -0.3962
  962MOL0     C29765  -0.104   1.526   3.501 -0.7256  0.8788 -0.5358
  962MOL0     O29766  -0.197   1.429   3.527 -0.2889 -0.0599  0.7837
  962MOL0     C29767  -0.313   1.426   3.462 -0.8694  1.0403 -0.3078
  962MOL0     C29768  -0.417   1.521   3.472  0.1897  0.0285  0.5678
  962MOL0     C29769  -0.534   1.510   3.383  0.3186  0.2782 -1.4748
  962MOL0     C29770  -0.547   1.406   3.297 -0.2402  0.1754  1.3151
  962MOL0     O29771  -0.649   1.379   3.213 -0.3048 -0.4358 -0.1678
  962MOL0     C29772  -0.769   1.339   3.279  0.3947 -0.0108 -0.6312
  962MOL0     C29773  -0.897   1.327   3.197  0.1030  0.6859  0.2467
  962MOL0     C29774  -0.880   1.224   3.084  0.0744 -0.0972 -0.4832
  962MOL0     C29775  -1.004   1.173   3.019  0.2785  0.1230 -0.1389
  962MOL0     C29776  -0.970   1.089   2.898  1.1224 -0.8727 -0.0356
  962MOL0     C29777  -1.093   1.091   2.797  0.7685  0.2182  0.2396
  962MOL0     C29778  -1.074   1.007   2.670 -0.1317  0.4337  0.2648
  962MOL0     C29779  -1.188   1.013   2.580 -0.8183  0.5732 -0.0913
  962MOL0    Cl29780  -1.146   0.916   2.437 -0.2611 -0.1694 -0.2620
  962MOL0     C29781  -0.450   1.313   3.288 -0.3196 -0.0429 -0.6438
  962MOL0     C29782  -0.335   1.331   3.364  0.1002  0.5197 -0.8361
  962MOL0     O29783  -0.128   1.620   3.433 -0.5219  0.1380 -0.2581
  962MOL0     C29784   0.108   1.399   3.468 -0.8446 -0.0878  0.1686
  962MOL0     C29785   0.243   1.366   3.494 -0.2652  0.0662 -0.3469
  962MOL0     N29786   0.723   1.946   3.878  0.4228 -0.2524 -0.8717
  962MOL0     N29787   0.741   1.996   3.993 -0.0907  0.5352 -0.5444
  962MOL0     C29788   1.786   2.242   4.559  0.0205  0.8258 -0.2550
  962MOL0     C29789   1.893   2.265   4.644  0.4579 -0.6785  0.5956
  962MOL0     C29790   2.332   2.273   4.787  0.1664  0.3979 -0.2670
  962MOL0     C29791   2.304   2.205   4.902  0.1484 -0.2162  1.3696
  962MOL0     C29792   2.401   2.179   4.999 -0.5632  0.3052  0.5340
  962MOL0     C29793   2.525   2.255   4.990 -0.0355  1.6497  0.9661
  962MOL0     O29794   2.631   2.236   5.084  0.1212 -0.8097  0.1801
  962MOL0     C29795   2.590   2.213   5.223 -0.0440  0.2078  0.9464
  962MOL0     C29796   2.701   2.252   5.321 -0.3845 -0.1846 -0.0798
  962MOL0     C29797   2.772   2.387   5.290  0.0290  0.6661  0.9237
  962MOL0     C29798   2.864   2.428   5.402  0.6034  0.6201 -0.7840
  962MOL0     C29799   3.001   2.384   5.386  0.1107 -0.1565 -0.6942
  962MOL0     C29800   3.120   2.368   5.345 -0.1249 -0.0651 -0.1897
  962MOL0     C29801   2.555   2.317   4.867 -0.3185  0.5612 -1.0469
  962MOL0     C29802   2.458   2.336   4.766  0.4101 -0.6956 -0.1517
  962MOL0     H29803   2.136   2.172   4.417 -1.1305  0.5641 -2.1594
  962MOL0     H29804   1.948   2.150   4.279  0.2408 -1.4720  0.7662
  962MOL0     H29805   1.586   2.069   4.448 -0.2676  0.1871  0.8800
  962MOL0     H29806   1.533   2.232   4.441 -1.0825  0.2553 -2.1709
  962MOL0     H29807   1.455   2.194   4.208 -2.7181  1.5359  1.2191
  962MOL0     H29808   1.489   2.024   4.234 -1.4778 -2.4486  2.0625
  962MOL0     H29809   1.315   2.012   4.414  0.8868 -1.3761 -1.0479
  962MOL0     H29810   1.302   2.187   4.433  2.3170  0.6232 -1.9115
  962MOL0     H29811   1.216   2.206   4.195 -0.2738 -0.0221  0.5559
  962MOL0     H29812   1.206   2.026   4.182 -2.0957  0.2283 -2.6870
  962MOL0     H29813   1.052   2.019   4.366 -1.0882 -0.2451 -0.5786
  962MOL0     H29814   1.070   2.193   4.394 -1.8186  1.3954 -1.2667
  962MOL0     H29815   0.949   2.247   4.191  1.7403  1.2618  0.1143
  962MOL0     H29816   0.981   2.093   4.130  0.0612  0.7108 -0.8211
  962MOL0     H29817   0.794   2.092   4.363  1.0132  2.8034 -0.0205
  962MOL0     H29818   0.741   2.133   4.215 -0.7199 -2.1462 -0.4941
  962MOL0     H29819   0.731   1.887   4.282 -0.1894  2.6543  2.6169
  962MOL0     H29820   0.900   1.871   4.254  2.0424  1.1569 -2.8093
  962MOL0     H29821   0.847   1.692   4.049  0.7343  0.0829  2.1695
  962MOL0     H29822   0.709   1.750   3.691 -0.6994  2.2277  0.3402
  962MOL0     H29823   0.858   1.679   3.751 -0.2381 -1.2960  0.2899
  962MOL0     H29824   0.589   1.636   3.906 -1.5055  1.2876 -1.5690
  962MOL0     H29825   0.710   1.503   3.853  0.5667 -0.5387 -0.1667
  962MOL0     H29826   0.620   1.524   3.621  0.7672  3.4073 -0.0055
  962MOL0     H29827   0.497   1.623   3.700 -1.2874 -0.7876  1.2862
  962MOL0     H29828   0.422   1.447   3.844 -0.8156 -0.6749 -1.1005
  962MOL0     H29829   0.549   1.337   3.796 -2.6158 -2.1795  1.1121
  962MOL0     H29830   0.254   1.540   3.797 -2.4989 -3.5922  2.9641
  962MOL0     H29831  -0.087   1.656   3.714 -0.5020 -0.8449  3.1049
  962MOL0     H29832  -0.025   1.597   3.858  0.4455  2.8690  1.8837
  962MOL0     H29833   0.062   1.734   3.763 -1.4415  1.3049 -1.3489
  962MOL0     H29834  -0.404   1.604   3.540  1.2714  2.7796 -2.7561
  962MOL0     H29835  -0.614   1.583   3.385 -0.0085 -0.0859  0.1340
  962MOL0     H29836  -0.751   1.245   3.333 -1.1417  0.6473  1.1461
  962MOL0     H29837  -0.795   1.418   3.350  0.4940 -1.5894  1.2658
  962MOL0     H29838  -0.981   1.298   3.261 -1.7165  2.6280 -1.1116
  962MOL0     H29839  -0.916   1.431   3.169  2.8536  1.7159  1.8258
  962MOL0     H29840  -0.828   1.133   3.115 -5.4534 -3.9204 -0.9047
  962MOL0     H29841  -0.830   1.288   3.010 -2.2446  0.1678 -1.9165
  962MOL0     H29842  -1.059   1.114   3.094 -0.8571 -0.6840 -1.5560
  962MOL0     H29843  -1.069   1.254   2.984 -1.7312 -0.4224  2.0635
  962MOL0     H29844  -0.953   0.985   2.927 -1.8064 -0.7698  2.6670
  962MOL0     H29845  -0.875   1.126   2.860  2.8412 -3.9808  0.9229
  962MOL0     H29846  -1.180   1.056   2.853  1.9654 -2.5091  0.5556
  962MOL0     H29847  -1.115   1.196   2.774 -0.5247  0.4476  2.3015
  962MOL0     H29848  -1.068   0.901   2.697 -4.1069 -0.1666 -0.5277
  962MOL0     H29849  -0.979   1.047   2.634 -1.1154  3.5082  0.7544
  962MOL0     H29850  -1.207   1.115   2.547  3.1272  1.0717 -1.3424
  962MOL0     H29851  -1.281   0.970   2.617 -1.4299 -0.5866 -2.7483
  962MOL0     H29852  -0.442   1.223   3.227  3.8551 -0.2078 -0.1833
  962MOL0     H29853  -0.253   1.260   3.353 -1.5668 -1.6920  0.3319
  962MOL0     H29854   0.057   1.358   3.381 -5.3814  3.3437  0.8289
  962MOL0     H29855   0.313   1.322   3.425  0.5837  0.1718  0.4241
  962MOL0     H29856   1.687   2.254   4.602 -0.2683  0.8595 -0.9211
  962MOL0     H29857   1.882   2.297   4.747  3.9177 -1.0486  1.2262
  962MOL0     H29858   2.217   2.141   4.913  2.2854 -4.4808 -3.0124
  962MOL0     H29859   2.382   2.109   5.079  1.3932  0.1226  0.8944
  962MOL0     H29860   2.494   2.264   5.237 -1.6137 -2.1655 -0.5104
  962MOL0     H29861   2.570   2.106   5.237  1.6102 -0.0684  1.3836
  962MOL0     H29862   2.780   2.178   5.331 -1.5713 -1.2938  1.8136
  962MOL0     H29863   2.652   2.259   5.419  0.0521  0.0545  0.1243
  962MOL0     H29864   2.687   2.455   5.275  0.3012  0.3442 -2.8612
  962MOL0     H29865   2.825   2.378   5.195  0.0316  2.1935  0.7525
  962MOL0     H29866   2.828   2.376   5.492  2.0272 -1.3258 -1.2515
  962MOL0     H29867   2.841   2.532   5.424 -2.7058 -0.5258  2.1784
  962MOL0     H29868   3.224   2.357   5.322 -0.7292 -2.8225 -2.0461
  962MOL0     H29869   2.653   2.363   4.866  0.4140 -0.4445  3.1248
  962MOL0     H29870   2.487   2.382   4.672 -3.7327  0.6820 -0.9731
  963MOL0     O29871   3.135   2.457  10.832  0.1272 -0.1137 -0.2725
  963MOL0     C29872   3.093   2.577  10.837  0.4811 -0.6506 -1.0269
  963MOL0     O29873   2.999   2.634  10.765 -0.0061  0.2857 -0.1672
  963MOL0     C29874   2.945   2.565  10.658 -0.0129 -0.3957 -0.1747
  963MOL0     C29875   2.950   2.428  10.620  0.3224  0.0663  0.6649
  963MOL0     C29876   2.878   2.394  10.498 -0.7495 -0.8756  1.0111
  963MOL0     C29877   2.800   2.484  10.430  0.3794 -0.2835  0.4449
  963MOL0     O29878   2.708   2.446  10.343 -0.6491 -0.0380 -0.0442
  963MOL0     C29879   2.763   2.421  10.212  0.5309  0.0912  0.2393
  963MOL0     C29880   2.756   2.272  10.171 -0.1376 -0.0951 -0.1189
  963MOL0     C29881   2.817   2.238  10.030 -0.1466  0.2553  0.0137
  963MOL0     C29882   2.747   2.287   9.906  0.5355  0.2326 -0.7033
  963MOL0     C29883   2.655   2.170   9.852 -0.5909 -0.3247 -0.2226
  963MOL0     C29884   2.737   2.082   9.748  0.9426 -0.0047 -0.4804
  963MOL0     C29885   2.678   1.941   9.745 -0.3374 -0.7095 -0.1467
  963MOL0     C29886   2.749   1.857   9.624 -0.0049 -0.3167  0.4165
  963MOL0     N29887   2.727   1.714   9.640 -0.0705 -0.0631 -0.6474
  963MOL0     C29888   2.599   1.655   9.618  0.3558 -0.8017  0.7699
  963MOL0     C29889   2.615   1.525   9.661 -0.7416 -0.8716 -0.4617
  963MOL0     C29890   2.503   1.428   9.694 -0.6526  0.8609  0.0162
  963MOL0     C29891   2.366   1.460   9.626  0.8126 -0.6769 -0.1202
  963MOL0     C29892   2.354   1.422   9.474  0.9124  0.2027  0.5347
  963MOL0     C29893   2.215   1.413   9.427  1.1245  0.8917 -0.2571
  963MOL0     O29894   2.126   1.320   9.498  0.8288  0.4409  0.8044
  963MOL0     C29895   2.001   1.291   9.443  0.7226 -0.1166  0.4964
  963MOL0     C29896   1.922   1.196   9.519  0.8088  0.6036 -0.8744
  963MOL0     C29897   1.792   1.163   9.479 -0.1035  0.2135  0.5279
  963MOL0     C29898   1.701   1.080   9.573  0.0096 -0.3062 -0.2820
  963MOL0     C29899   1.742   1.216   9.353 -0.9441 -0.2285 -0.2725
  963MOL0     C29900   1.607   1.200   9.315 -0.0555 -0.6506  0.0106
  963MOL0     O29901   1.583   1.084   9.239 -0.7047  0.2086 -0.4003
  963MOL0     C29902   1.470   1.092   9.159 -0.3799 -0.7198 -0.4665
  963MOL0     C29903   1.460   1.174   9.042 -0.1327  0.0216 -0.0374
  963MOL0     C29904   1.334   1.180   8.976  1.1746 -0.2588  0.0004
  963MOL0     C29905   1.216   1.114   9.019  0.5287 -0.1099  0.5150
  963MOL0     O29906   1.087   1.126   8.972  0.2012  0.9344  1.2035
  963MOL0     C29907   1.080   1.081   8.834  0.3088 -0.5528 -0.3132
  963MOL0     C29908   0.991   1.166   8.746 -0.0382  0.7943  0.3359
  963MOL0     C29909   1.007   1.132   8.601  0.0603 -0.1078 -0.5614
  963MOL0     C29910   0.984   1.248   8.494  0.4465  0.8867 -0.7871
  963MOL0     C29911   0.982   1.184   8.353 -0.9754 -0.0754  0.3123
  963MOL0     C29912   0.987   1.289   8.251  0.3842 -0.2468  0.0280
  963MOL0     C29913   1.005   1.235   8.111  1.0637  0.8108  0.1493
  963MOL0     C29914   1.129   1.164   8.090  0.0547  0.3323  0.8504
  963MOL0    Cl29915   1.255   1.292   8.051  0.1858  0.0838 -0.4189
  963MOL0     C29916   1.233   1.035   9.132  1.0894  0.5651 -0.4758
  963MOL0     C29917   1.354   1.036   9.206  0.2550 -1.0009  0.2953
  963MOL0     O29918   1.524   1.279   9.347 -0.2754  0.0149  0.1973
  963MOL0     C29919   1.821   1.309   9.285  0.4785 -0.6854 -0.9976
  963MOL0     C29920   1.946   1.349   9.327  0.7081 -0.4325 -0.5956
  963MOL0     N29921   2.747   1.510   9.705 -1.2074  0.2039  0.2337
  963MOL0     N29922   2.809   1.614   9.679 -0.9218  0.5128 -0.0309
  963MOL0     C29923   2.790   2.613  10.471 -0.1009  1.1328  0.2124
  963MOL0     C29924   2.868   2.662  10.579  0.4493  1.0560 -0.2177
  963MOL0     C29925   3.165   2.669  10.938 -0.3453  0.7939  0.2152
  963MOL0     C29926   3.098   2.782  10.986 -0.2613  1.1366 -0.4138
  963MOL0     C29927   3.173   2.864  11.072 -0.0153 -0.6386 -0.8130
  963MOL0     C29928   3.301   2.837  11.103 -1.2295 -0.6428  0.1489
  963MOL0     O29929   3.377   2.917  11.190  1.0340 -0.3123  0.5510
  963MOL0     C29930   3.313   3.024  11.264 -0.3599  0.2890 -0.4904
  963MOL0     C29931   3.420   3.096  11.334  0.2523  0.6851  0.3017
  963MOL0     C29932   3.378   3.206  11.437 -0.6500  0.0068 -0.0232
  963MOL0     C29933   3.481   3.323  11.437  0.3002  0.7885  0.0696
  963MOL0     C29934   3.624   3.279  11.459 -0.0243  0.1893  0.1044
  963MOL0     C29935   3.738   3.242  11.469 -0.5892 -0.0071  0.9297
  963MOL0     C29936   3.370   2.721  11.062 -0.6319  1.6102 -1.1787
  963MOL0     C29937   3.301   2.641  10.966  0.5546  0.0086  0.3172
  963MOL0     H29938   3.001   2.361  10.688 -0.1051  1.1607  2.1104
  963MOL0     H29939   2.890   2.289  10.470  0.7245 -0.4543 -0.1061
  963MOL0     H29940   2.699   2.462  10.133 -1.6574 -3.1114  0.1187
  963MOL0     H29941   2.868   2.449  10.209  2.1952 -4.9280  1.3169
  963MOL0     H29942   2.804   2.217  10.252 -0.0318  1.7575  1.1425
  963MOL0     H29943   2.649   2.254  10.179  0.4213 -3.5889  1.0513
  963MOL0     H29944   2.917   2.281  10.043 -0.4391  0.3231  2.4747
  963MOL0     H29945   2.813   2.129  10.019  1.4083  0.3982 -3.0452
  963MOL0     H29946   2.695   2.378   9.937 -3.9244 -1.7620 -1.5450
  963MOL0     H29947   2.814   2.311   9.823  0.0805 -1.5187 -1.6351
  963MOL0     H29948   2.620   2.110   9.936 -1.3203 -1.5728 -1.3663
  963MOL0     H29949   2.560   2.203   9.807 -0.1447 -1.2847 -1.9808
  963MOL0     H29950   2.723   2.129   9.650 -3.7664  1.6044  0.7321
  963MOL0     H29951   2.844   2.087   9.772  0.9293  0.2709 -0.4754
  963MOL0     H29952   2.685   1.887   9.840 -5.9588 -3.7217 -1.0421
  963MOL0     H29953   2.569   1.934   9.738 -0.4312 -0.0315  0.4286
  963MOL0     H29954   2.856   1.863   9.646  0.0904 -0.1426 -0.0843
  963MOL0     H29955   2.723   1.893   9.524 -1.6510  0.3277  1.0324
  963MOL0     H29956   2.516   1.712   9.577  2.1547  1.5257  0.1294
  963MOL0     H29957   2.529   1.322   9.685  1.3461  1.4482 -2.1229
  963MOL0     H29958   2.484   1.426   9.801  0.2058 -0.9464  0.1745
  963MOL0     H29959   2.359   1.565   9.653  1.0292 -0.2670 -1.5838
  963MOL0     H29960   2.291   1.399   9.677 -0.9635  1.2253 -0.3209
  963MOL0     H29961   2.393   1.321   9.463 -2.8435 -1.2232 -1.3337
  963MOL0     H29962   2.396   1.501   9.411 -0.6781  2.0780  1.7010
  963MOL0     H29963   2.232   1.396   9.320  0.2266  1.5462 -0.5203
  963MOL0     H29964   2.163   1.509   9.427 -0.1513  0.2217 -0.6125
  963MOL0     H29965   1.957   1.156   9.613 -1.5536  0.4827  0.0101
  963MOL0     H29966   1.656   1.155   9.638  1.2406  0.1620  0.0603
  963MOL0     H29967   1.621   1.022   9.527 -1.7352  1.4726  0.3819
  963MOL0     H29968   1.768   1.017   9.632  1.2122  1.5499  0.4190
  963MOL0     H29969   1.531   1.241   8.996 -1.0715 -0.4667 -2.3099
  963MOL0     H29970   1.329   1.235   8.883  0.6833 -1.2775 -0.5987
  963MOL0     H29971   1.182   1.082   8.793  1.0810  2.2490  1.4266
  963MOL0     H29972   1.040   0.979   8.838 -4.2609  1.0520  0.5825
  963MOL0     H29973   0.886   1.150   8.772  0.8184 -0.7521  3.2183
  963MOL0     H29974   1.016   1.273   8.750  0.4443  0.7649 -1.1869
  963MOL0     H29975   0.941   1.049   8.577  0.1978 -0.5338  0.4602
  963MOL0     H29976   1.098   1.073   8.590  1.1416  1.1102  1.1960
  963MOL0     H29977   0.884   1.292   8.504 -0.9879 -1.7361 -2.3879
  963MOL0     H29978   1.058   1.328   8.503  0.9276  0.3241  0.5296
  963MOL0     H29979   0.899   1.116   8.332  0.8580 -2.1598 -0.5365
  963MOL0     H29980   1.068   1.117   8.348  1.4986  2.7444  1.7835
  963MOL0     H29981   0.886   1.332   8.254  0.5284  0.0777  0.2696
  963MOL0     H29982   1.054   1.375   8.258  0.2121  0.1391 -2.2137
  963MOL0     H29983   0.987   1.311   8.035 -1.6640 -1.2354 -1.4675
  963MOL0     H29984   0.928   1.162   8.082  1.9843  1.1447 -3.7342
  963MOL0     H29985   1.127   1.091   8.008 -2.1726 -1.5593  2.4448
  963MOL0     H29986   1.163   1.094   8.167 -2.5068  1.0219  2.7302
  963MOL0     H29987   1.148   0.980   9.172  3.5429 -3.7033 -0.5182
  963MOL0     H29988   1.367   0.967   9.288  1.2110 -3.5774 -1.8918
  963MOL0     H29989   1.776   1.358   9.200  0.5868  2.1143  0.4604
  963MOL0     H29990   1.988   1.429   9.267 -0.8667  1.3869  0.6010
  963MOL0     H29991   2.743   2.687  10.407 -0.7563  1.2869  0.8728
  963MOL0     H29992   2.865   2.770  10.585 -1.4905  1.2439 -2.6736
  963MOL0     H29993   2.994   2.795  10.955 -0.0574  1.0452 -1.1521
  963MOL0     H29994   3.115   2.953  11.095  0.6984  0.3812 -2.7192
  963MOL0     H29995   3.261   3.100  11.205 -1.6772  0.2807  0.6155
  963MOL0     H29996   3.249   2.981  11.342  2.9654 -1.7879  1.3538
  963MOL0     H29997   3.495   3.134  11.265 -2.9145  0.4447 -3.6551
  963MOL0     H29998   3.455   3.008  11.389 -0.9519 -0.0268 -0.0052
  963MOL0     H29999   3.373   3.163  11.538 -1.2900  1.6938  0.7033
  963MOL0     H30000   3.280   3.251  11.424 -0.8972 -0.4851  0.1073
  963MOL0     H30001   3.459   3.395  11.517  2.2301 -0.7742  2.1245
  963MOL0     H30002   3.466   3.383  11.347  1.6648  1.9318  0.5645
  963MOL0     H30003   3.840   3.220  11.494 -1.0792 -0.9225  2.2124
  963MOL0     H30004   3.478   2.712  11.073  0.2308  2.6667 -6.2359
  963MOL0     H30005   3.340   2.548  10.925  6.9767  2.3339  0.0425
  964MOL0     O30006   5.855   1.206   6.700  0.4440  0.9205 -0.2682
  964MOL0     C30007   5.931   1.302   6.696  0.2042 -0.3731 -0.2047
  964MOL0     O30008   5.926   1.414   6.771 -0.5768  0.1179 -0.2857
  964MOL0     C30009   5.847   1.427   6.881 -0.7771 -0.8366 -0.2694
  964MOL0     C30010   5.720   1.391   6.885  0.1556  0.0129  0.4247
  964MOL0     C30011   5.644   1.404   7.002 -1.0618  0.8363 -0.1027
  964MOL0     C30012   5.700   1.449   7.119 -0.2740  0.8639 -0.1895
  964MOL0     O30013   5.612   1.455   7.232  0.2269 -0.0223  0.1918
  964MOL0     C30014   5.654   1.433   7.359 -0.2648  0.2622  0.2569
  964MOL0     C30015   5.527   1.403   7.441 -0.3099  0.9061 -0.9678
  964MOL0     C30016   5.564   1.371   7.587 -0.5546 -0.7730 -0.4538
  964MOL0     C30017   5.457   1.288   7.653 -0.6162 -0.4914 -0.4332
  964MOL0     C30018   5.324   1.355   7.670 -0.0177  0.7153 -0.4739
  964MOL0     C30019   5.323   1.498   7.724  0.4076  1.0890  0.3728
  964MOL0     C30020   5.176   1.535   7.780 -0.6904  1.6936  0.1885
  964MOL0     C30021   5.183   1.648   7.878  0.2867  0.4356 -0.9345
  964MOL0     N30022   5.041   1.677   7.916  0.6350 -0.5734 -0.3626
  964MOL0     C30023   4.969   1.640   8.030 -0.0874  1.2414  0.2722
  964MOL0     C30024   4.846   1.697   8.009 -0.5875  0.5312 -0.6953
  964MOL0     C30025   4.740   1.678   8.114 -0.0659  0.1271  0.6932
  964MOL0     C30026   4.652   1.554   8.076  0.2203  0.9208  0.2792
  964MOL0     C30027   4.715   1.422   8.128  0.0362  0.3389  0.9452
  964MOL0     C30028   4.786   1.358   8.001  0.2589 -0.0433  0.7943
  964MOL0     O30029   4.919   1.309   8.037 -0.2110  0.2185  0.3940
  964MOL0     C30030   4.978   1.216   7.962 -0.3205 -0.9197 -0.2593
  964MOL0     C30031   4.940   1.172   7.837 -0.1764  0.0539  0.0738
  964MOL0     C30032   5.027   1.092   7.759 -0.3097  0.8839  0.2901
  964MOL0     C30033   4.967   1.057   7.615  0.3549 -0.2137 -0.1880
  964MOL0     C30034   5.148   1.044   7.806 -0.0698  0.8908  0.0906
  964MOL0     C30035   5.254   0.955   7.746  0.6863  0.2479 -0.7281
  964MOL0     O30036   5.349   0.887   7.825 -0.4183  0.0242 -0.3945
  964MOL0     C30037   5.445   0.810   7.756  0.7490 -0.4155 -0.7665
  964MOL0     C30038   5.433   0.672   7.740  0.3446  0.4100 -0.3100
  964MOL0     C30039   5.544   0.603   7.698 -0.6620 -0.7303 -0.1854
  964MOL0     C30040   5.655   0.678   7.657 -0.1462  0.0633 -0.2062
  964MOL0     O30041   5.756   0.609   7.595  0.0226 -0.3358 -0.1565
  964MOL0     C30042   5.863   0.675   7.514 -0.1995  0.6392 -0.4330
  964MOL0     C30043   5.966   0.577   7.458 -0.6567  0.2531 -0.2567
  964MOL0     C30044   6.088   0.558   7.554  0.6826  0.1988  0.9664
  964MOL0     C30045   6.217   0.494   7.482  0.2806  0.0390 -0.8663
  964MOL0     C30046   6.328   0.446   7.586 -0.2097  0.1318  0.8690
  964MOL0     C30047   6.369   0.547   7.691  0.6469  0.4496 -0.0954
  964MOL0     C30048   6.466   0.667   7.656  0.6532  0.1362  0.5860
  964MOL0     C30049   6.498   0.750   7.782  1.0208 -0.5380 -0.4127
  964MOL0    Cl30050   6.350   0.825   7.871 -0.0330 -0.4851  0.0415
  964MOL0     C30051   5.654   0.819   7.665 -0.1079  0.0610 -0.4603
  964MOL0     C30052   5.552   0.882   7.716 -0.4154  0.0544  0.9324
  964MOL0     O30053   5.263   0.968   7.630 -0.6770  1.0314 -0.6567
  964MOL0     C30054   5.187   1.098   7.921 -0.8272 -0.1786  0.2789
  964MOL0     C30055   5.109   1.177   7.998  0.0523 -1.4987 -0.7517
  964MOL0     N30056   4.833   1.759   7.892 -0.2733  0.2802  1.1128
  964MOL0     N30057   4.954   1.750   7.833  0.2778  0.5629  0.3742
  964MOL0     C30058   5.831   1.489   7.111 -0.6491  0.1875 -0.2669
  964MOL0     C30059   5.903   1.482   6.989 -0.0851  0.7637 -0.5896
  964MOL0     C30060   6.043   1.297   6.589 -0.2369 -0.2508  0.9618
  964MOL0     C30061   6.118   1.414   6.566  0.1524 -1.1304 -0.5585
  964MOL0     C30062   6.216   1.413   6.469  0.1037 -1.0699 -0.7278
  964MOL0     C30063   6.235   1.308   6.383  1.0341  0.5646 -0.7875
  964MOL0     O30064   6.331   1.305   6.281  1.1905 -0.5706  0.1905
  964MOL0     C30065   6.347   1.418   6.190  0.3170  0.0568  0.9853
  964MOL0     C30066   6.453   1.390   6.070  0.0773 -0.9332  0.4373
  964MOL0     C30067   6.448   1.253   5.995 -0.1564 -0.4524  0.2582
  964MOL0     C30068   6.507   1.121   6.075  1.0473 -0.2402 -0.3648
  964MOL0     C30069   6.423   1.037   6.159 -0.9336 -0.7582 -0.6354
  964MOL0     C30070   6.362   0.957   6.235 -0.3904 -0.1846  0.7040
  964MOL0     C30071   6.165   1.195   6.409  0.8631 -0.2660 -0.3022
  964MOL0     C30072   6.066   1.185   6.509  0.2280 -0.1410  0.5025
  964MOL0     H30073   5.668   1.345   6.802 -1.8770 -2.0829  2.6679
  964MOL0     H30074   5.542   1.368   7.007 -0.2324 -1.7756 -0.2692
  964MOL0     H30075   5.728   1.353   7.368 -1.7338 -0.8819  4.6087
  964MOL0     H30076   5.715   1.516   7.394 -0.9162  1.2398 -0.8416
  964MOL0     H30077   5.450   1.480   7.428 -0.4309  0.9029 -0.3038
  964MOL0     H30078   5.476   1.315   7.402  1.3583 -0.3555 -0.4170
  964MOL0     H30079   5.658   1.315   7.587 -0.5396 -0.7467 -0.6794
  964MOL0     H30080   5.580   1.464   7.643  1.2040 -0.7930 -0.8558
  964MOL0     H30081   5.429   1.194   7.607  1.6090 -0.5326 -1.8546
  964MOL0     H30082   5.509   1.274   7.749  2.3847 -0.4842 -1.9568
  964MOL0     H30083   5.280   1.349   7.570  0.4617 -2.1928 -0.5926
  964MOL0     H30084   5.276   1.286   7.739  0.1749 -0.1594 -1.1892
  964MOL0     H30085   5.407   1.513   7.793  2.5626 -1.6064 -1.4775
  964MOL0     H30086   5.345   1.568   7.643  2.9208 -0.4865 -0.4129
  964MOL0     H30087   5.115   1.568   7.696 -0.2532 -5.0376 -3.4474
  964MOL0     H30088   5.133   1.452   7.838  2.8351 -0.3477  0.1887
  964MOL0     H30089   5.218   1.745   7.841  0.0239  1.5455  1.5235
  964MOL0     H30090   5.231   1.616   7.972 -1.1483 -1.8135 -0.8863
  964MOL0     H30091   4.995   1.565   8.103 -0.7575  2.8892  2.2980
  964MOL0     H30092   4.771   1.679   8.219 -1.5464  2.9026  1.2028
  964MOL0     H30093   4.680   1.768   8.098 -1.9899 -1.2489 -0.2299
  964MOL0     H30094   4.625   1.553   7.970 -1.0125 -1.3044  0.5562
  964MOL0     H30095   4.557   1.554   8.131  0.4936  2.6530  0.8135
  964MOL0     H30096   4.645   1.347   8.167  1.5415 -0.4154  2.3161
  964MOL0     H30097   4.777   1.446   8.215  2.3042 -1.3594 -0.1063
  964MOL0     H30098   4.799   1.423   7.914 -2.7994  1.7034  1.4703
  964MOL0     H30099   4.718   1.282   7.962  0.6578  1.5643 -3.6029
  964MOL0     H30100   4.839   1.190   7.802  0.1406 -0.7829 -1.3405
  964MOL0     H30101   4.999   0.957   7.583  1.8831  0.7765 -1.9650
  964MOL0     H30102   4.858   1.049   7.605  0.4057  1.1254 -2.4792
  964MOL0     H30103   5.021   1.122   7.545 -1.0408 -0.3376 -1.4270
  964MOL0     H30104   5.343   0.618   7.768 -0.1491 -0.0057 -2.5249
  964MOL0     H30105   5.547   0.494   7.694 -0.1404 -0.8823  2.6327
  964MOL0     H30106   5.810   0.732   7.436 -0.1232  2.1402  0.5568
  964MOL0     H30107   5.914   0.754   7.571 -0.0776  0.0147  0.3390
  964MOL0     H30108   5.907   0.486   7.443 -0.7423  0.0564  1.1220
  964MOL0     H30109   6.009   0.624   7.369  3.0833 -2.2486  0.0238
  964MOL0     H30110   6.065   0.489   7.636  7.3209 -1.9518  1.6353
  964MOL0     H30111   6.121   0.652   7.599  1.7946  1.5105 -2.3087
  964MOL0     H30112   6.185   0.405   7.426 -1.0484 -2.2206  3.0601
  964MOL0     H30113   6.260   0.576   7.424  2.3519  0.3214  0.9348
  964MOL0     H30114   6.414   0.398   7.540  1.6885  3.4887  0.5924
  964MOL0     H30115   6.271   0.371   7.641 -1.0978  0.8360  0.9352
  964MOL0     H30116   6.274   0.586   7.730 -0.1089  0.0400 -1.4555
  964MOL0     H30117   6.417   0.493   7.774  1.4772 -0.9417 -1.4260
  964MOL0     H30118   6.417   0.738   7.588 -0.0973  0.4329  1.4120
  964MOL0     H30119   6.558   0.630   7.609  0.4868 -1.3413  1.3640
  964MOL0     H30120   6.559   0.837   7.756 -1.8279  2.3867  1.8278
  964MOL0     H30121   6.559   0.688   7.849  1.0952 -0.1123 -0.0816
  964MOL0     H30122   5.736   0.878   7.624  0.2178  0.4626  0.7347
  964MOL0     H30123   5.556   0.989   7.734  1.0769  0.2339 -0.3017
  964MOL0     H30124   5.293   1.090   7.945 -0.5974 -1.4905 -1.0491
  964MOL0     H30125   5.153   1.220   8.087  1.1233 -0.5130 -1.7293
  964MOL0     H30126   5.878   1.544   7.192 -0.7897  2.3725 -1.5828
  964MOL0     H30127   6.005   1.518   7.003 -0.3744  0.6779  2.3112
  964MOL0     H30128   6.110   1.499   6.633  4.4355  0.0174 -1.2234
  964MOL0     H30129   6.286   1.495   6.456 -0.0948 -0.7768 -0.0227
  964MOL0     H30130   6.248   1.431   6.146  0.1039  0.9214  1.6938
  964MOL0     H30131   6.374   1.508   6.246  0.9987  0.5611 -0.1102
  964MOL0     H30132   6.553   1.418   6.104 -0.6858  1.1472  1.1603
  964MOL0     H30133   6.418   1.465   5.999 -1.0730 -1.9157 -0.0675
  964MOL0     H30134   6.511   1.260   5.906 -0.8436 -1.5556 -0.3440
  964MOL0     H30135   6.347   1.238   5.956 -0.8476  0.1267  1.7420
  964MOL0     H30136   6.594   1.158   6.131  2.9710 -1.5523 -2.3351
  964MOL0     H30137   6.550   1.055   6.000  1.5392 -1.2065  0.7378
  964MOL0     H30138   6.302   0.901   6.305  1.2838 -2.1131  0.6803
  964MOL0     H30139   6.168   1.110   6.341 -1.2146  0.4765 -1.4086
  964MOL0     H30140   6.036   1.083   6.529  4.1518 -0.6973  5.6190
  965MOL0     O30141  11.070   6.503   9.724 -0.4524 -0.9682  0.3418
  965MOL0     C30142  11.129   6.575   9.800 -1.2553  0.2433 -0.4471
  965MOL0     O30143  11.085   6.694   9.851  0.1364  0.9598  0.3580
  965MOL0     C30144  10.961   6.745   9.818 -0.9825 -0.1595  0.1795
  965MOL0     C30145  10.909   6.850   9.901 -0.5150  0.1920  0.2993
  965MOL0     C30146  10.788   6.909   9.893  0.3507  0.9360 -0.1991
  965MOL0     C30147  10.705   6.864   9.790  0.9220  0.3374  0.4462
  965MOL0     O30148  10.593   6.937   9.767  0.3197 -0.5691  0.8724
  965MOL0     C30149  10.480   6.882   9.705  0.8719 -1.0837 -0.4989
  965MOL0     C30150  10.368   6.993   9.716 -0.1068  0.9162 -0.1710
  965MOL0     C30151  10.349   7.028   9.868 -0.1629 -0.1440 -0.1222
  965MOL0     C30152  10.410   7.167   9.894 -0.0649  0.0442  0.2331
  965MOL0     C30153  10.396   7.217  10.037  0.0677 -0.4610 -0.0563
  965MOL0     C30154  10.499   7.325  10.059  0.1261 -0.4754  0.3903
  965MOL0     C30155  10.480   7.408  10.194 -0.7884  0.8352  0.8823
  965MOL0     C30156  10.475   7.322  10.321  0.0543 -0.6574 -0.8543
  965MOL0     N30157  10.595   7.245  10.360  0.6306 -0.6574  0.3272
  965MOL0     C30158  10.662   7.163  10.275  0.4953 -0.0565  0.5525
  965MOL0     C30159  10.771   7.133  10.347 -0.3713 -0.2238 -0.8080
  965MOL0     C30160  10.880   7.034  10.299 -0.2290 -0.2936  0.2227
  965MOL0     C30161  11.020   7.085  10.286  0.1577 -0.5718 -0.7933
  965MOL0     C30162  11.035   7.194  10.171 -0.4228 -0.5722 -0.3296
  965MOL0     C30163  11.165   7.275  10.188 -0.2141  0.7172 -0.6387
  965MOL0     O30164  11.184   7.330  10.326 -0.0500 -0.8617 -0.4916
  965MOL0     C30165  11.119   7.451  10.345 -0.1362 -0.2956  0.3220
  965MOL0     C30166  11.170   7.571  10.290 -0.5331 -0.1173 -0.3054
  965MOL0     C30167  11.102   7.699  10.313 -0.6167 -0.0757  1.2695
  965MOL0     C30168  11.158   7.812  10.219 -0.2320  0.1421 -0.0270
  965MOL0     C30169  10.989   7.706  10.394 -0.4356 -0.2070 -0.0231
  965MOL0     C30170  10.925   7.833  10.442  0.4937 -0.3079 -0.7193
  965MOL0     O30171  10.797   7.821  10.497 -0.4522  0.3404  0.0791
  965MOL0     C30172  10.715   7.934  10.505  0.2453 -0.1458 -0.0157
  965MOL0     C30173  10.712   8.049  10.418 -0.8943  0.0003 -0.4519
  965MOL0     C30174  10.611   8.140  10.431  0.2030 -1.3678  0.3833
  965MOL0     C30175  10.507   8.121  10.516 -0.8150 -1.2603 -0.8023
  965MOL0     O30176  10.405   8.210  10.526  0.4103 -0.0809  0.2831
  965MOL0     C30177  10.449   8.348  10.534 -0.0279 -0.6091  0.9462
  965MOL0     C30178  10.333   8.417  10.594  0.4076 -0.1940  0.0830
  965MOL0     C30179  10.219   8.434  10.499 -0.1366  0.4631 -0.6031
  965MOL0     C30180  10.112   8.533  10.556 -0.1397 -0.0614 -0.0285
  965MOL0     C30181   9.989   8.529  10.475  0.0052  0.0350  0.8256
  965MOL0     C30182   9.993   8.621  10.351  0.3739 -0.1468  0.4126
  965MOL0     C30183   9.901   8.557  10.243 -1.0721 -0.8691  0.4764
  965MOL0     C30184   9.838   8.647  10.140 -0.0471 -0.1267 -0.9634
  965MOL0    Cl30185   9.962   8.691  10.011 -0.0295  0.0679 -0.4372
  965MOL0     C30186  10.499   8.002  10.587  0.9063 -0.4270 -0.0410
  965MOL0     C30187  10.606   7.916  10.593 -0.1584 -0.0685 -0.9470
  965MOL0     O30188  10.988   7.945  10.434  0.0889  0.7215  0.3532
  965MOL0     C30189  10.948   7.588  10.455 -0.3721  0.2227  0.6502
  965MOL0     C30190  11.019   7.467  10.437  0.9153 -0.2715  0.1965
  965MOL0     N30191  10.777   7.202  10.466  0.9060 -0.5673 -0.1715
  965MOL0     N30192  10.664   7.262  10.474  0.0437  0.0813  0.0909
  965MOL0     C30193  10.741   6.757   9.710  0.1976 -0.2682 -0.0161
  965MOL0     C30194  10.870   6.697   9.720 -0.5961 -0.0211  0.0630
  965MOL0     C30195  11.268   6.542   9.844  0.1650 -0.1270 -0.5256
  965MOL0     C30196  11.331   6.605   9.948  0.3853 -0.5810 -0.3458
  965MOL0     C30197  11.447   6.556   9.999 -0.6812 -0.1197  1.0992
  965MOL0     C30198  11.509   6.442   9.942  0.4077 -0.1703 -0.8037
  965MOL0     O30199  11.623   6.391   9.999 -0.2286 -0.1574 -1.2639
  965MOL0     C30200  11.716   6.314   9.923  0.2174  0.4118  0.5214
  965MOL0     C30201  11.856   6.312   9.993  0.2142 -0.1635 -0.2810
  965MOL0     C30202  11.876   6.203  10.106  0.7155  0.2231  0.9356
  965MOL0     C30203  12.019   6.215  10.176  0.0544  0.3578  0.6165
  965MOL0     C30204  12.072   6.078  10.200  0.8826 -0.2894  0.0929
  965MOL0     C30205  12.098   5.958  10.225  1.0399 -0.8994  0.7368
  965MOL0     C30206  11.460   6.385   9.825  1.4304  0.5550  0.8395
  965MOL0     C30207  11.338   6.434   9.782 -0.7383 -0.0995  0.3162
  965MOL0     H30208  10.978   6.864   9.984  2.6774 -4.4884 -1.1403
  965MOL0     H30209  10.763   6.998   9.949  1.5678  2.3496 -1.7946
  965MOL0     H30210  10.497   6.857   9.600  1.0073  3.2407 -1.6987
  965MOL0     H30211  10.441   6.793   9.757  1.2097 -1.2391 -0.5100
  965MOL0     H30212  10.398   7.082   9.660  1.8226  1.4707  1.5976
  965MOL0     H30213  10.277   6.943   9.681 -0.0155 -0.0453  0.8952
  965MOL0     H30214  10.242   7.027   9.892  0.1996  2.7181  2.2433
  965MOL0     H30215  10.405   6.958   9.931 -1.4853 -2.8675 -1.7920
  965MOL0     H30216  10.513   7.175   9.858 -0.6134  3.7351 -0.9118
  965MOL0     H30217  10.368   7.242   9.826  3.3094 -0.3351 -2.5069
  965MOL0     H30218  10.294   7.254  10.051 -0.3904 -1.5366 -0.4137
  965MOL0     H30219  10.418   7.151  10.121 -1.3206 -0.6038  0.2114
  965MOL0     H30220  10.601   7.286  10.059  1.5697  2.9539  0.1702
  965MOL0     H30221  10.488   7.393   9.974 -2.7987 -3.7127 -2.1144
  965MOL0     H30222  10.555   7.485  10.210 -0.2300 -0.0709  2.9684
  965MOL0     H30223  10.378   7.447  10.179 -1.3802 -1.1159 -0.5813
  965MOL0     H30224  10.381   7.266  10.315 -0.3943  0.0368 -0.4547
  965MOL0     H30225  10.453   7.389  10.405  0.7008 -1.3448 -0.1229
  965MOL0     H30226  10.626   7.107  10.189 -0.8033 -0.2281  1.1867
  965MOL0     H30227  10.912   6.960  10.373 -2.1914 -0.4738  0.9745
  965MOL0     H30228  10.848   6.981  10.209  1.2271  4.1947 -3.3433
  965MOL0     H30229  11.091   7.003  10.276  0.3002 -0.6164  0.5113
  965MOL0     H30230  11.041   7.135  10.381 -3.5930 -0.2541  0.0344
  965MOL0     H30231  10.951   7.260  10.193 -0.9712 -1.7445  1.2929
  965MOL0     H30232  11.027   7.157  10.068 -3.7741  0.2677 -0.4966
  965MOL0     H30233  11.166   7.349  10.108 -1.3080 -2.2934 -3.6709
  965MOL0     H30234  11.251   7.210  10.172 -1.5643 -1.0652 -0.9411
  965MOL0     H30235  11.244   7.569  10.211 -1.4922  0.0352 -1.2215
  965MOL0     H30236  11.229   7.784  10.141 -1.2377 -2.9498  0.0420
  965MOL0     H30237  11.086   7.872  10.162  1.8372  2.1134 -0.7147
  965MOL0     H30238  11.205   7.881  10.290 -2.2075 -1.6080  3.2271
  965MOL0     H30239  10.789   8.069  10.345 -1.6553  0.6759 -1.0962
  965MOL0     H30240  10.614   8.239  10.388 -3.0705  0.0072  2.8171
  965MOL0     H30241  10.536   8.360  10.599  0.8770  0.5816 -0.4340
  965MOL0     H30242  10.475   8.386  10.435  1.0269 -1.1968  0.9756
  965MOL0     H30243  10.307   8.360  10.683 -1.3826  0.6509  0.1478
  965MOL0     H30244  10.375   8.515  10.620 -3.4827  1.0555  2.4902
  965MOL0     H30245  10.181   8.338  10.464  1.2533 -0.1205 -0.5601
  965MOL0     H30246  10.268   8.482  10.414  0.0624  1.1057 -0.1378
  965MOL0     H30247  10.086   8.503  10.658  3.5890 -0.5029  0.9238
  965MOL0     H30248  10.152   8.633  10.575 -1.0528  0.1781  0.7308
  965MOL0     H30249   9.902   8.560  10.534 -0.7792  2.3665 -1.3505
  965MOL0     H30250   9.954   8.429  10.449 -4.7490  0.5913  3.8238
  965MOL0     H30251   9.965   8.725  10.369  1.1271 -0.4504  3.9688
  965MOL0     H30252  10.095   8.628  10.312 -0.2208 -1.2902 -1.4965
  965MOL0     H30253   9.812   8.518  10.292 -1.8547  1.6562  1.2191
  965MOL0     H30254   9.957   8.485  10.182  2.6435  0.5097  1.9543
  965MOL0     H30255   9.790   8.738  10.177  1.1685 -0.4543  1.6600
  965MOL0     H30256   9.750   8.602  10.094 -1.4612 -0.3985  1.8139
  965MOL0     H30257  10.407   7.990  10.645 -1.4557 -2.1459 -3.7686
  965MOL0     H30258  10.596   7.820  10.644 -1.5665 -0.2832 -1.5796
  965MOL0     H30259  10.877   7.591  10.537 -2.2354  3.2814 -0.8834
  965MOL0     H30260  10.996   7.384  10.503 -1.5537  1.5137  1.7306
  965MOL0     H30261  10.689   6.725   9.620  1.2780 -1.2426 -0.3195
  965MOL0     H30262  10.901   6.624   9.646  3.0003  0.6058  0.7641
  965MOL0     H30263  11.296   6.697   9.994  3.4615  1.6701 -2.1393
  965MOL0     H30264  11.494   6.611  10.080  5.6222  2.7968 -3.6564
  965MOL0     H30265  11.678   6.213   9.905  0.9333  0.3860 -1.0885
  965MOL0     H30266  11.744   6.359   9.827 -1.0701  1.1195  0.4667
  965MOL0     H30267  11.870   6.416  10.025 -3.0169 -0.0017  1.0086
  965MOL0     H30268  11.931   6.290   9.917 -0.4912  1.6063 -1.5337
  965MOL0     H30269  11.863   6.113  10.045 -1.6319  1.6507 -0.8137
  965MOL0     H30270  11.789   6.209  10.171  0.4938  0.4954  0.6132
  965MOL0     H30271  11.996   6.254  10.276 -0.0192 -2.0000  1.6075
  965MOL0     H30272  12.086   6.272  10.112 -3.0712  3.7647  0.0601
  965MOL0     H30273  12.125   5.859  10.253 -2.6550 -1.7567  1.7833
  965MOL0     H30274  11.503   6.306   9.765 -2.1086 -1.5732  0.8434
  965MOL0     H30275  11.307   6.381   9.693  0.9656  1.0812 -1.0602
  966MOL0     O30276   6.508  10.177   0.307  0.9446  0.1319 -0.1227
  966MOL0     C30277   6.424  10.175   0.401 -0.2940 -0.5473 -0.2124
  966MOL0     O30278   6.420  10.094   0.498 -0.0406  0.2764 -0.9080
  966MOL0     C30279   6.509  10.005   0.520 -0.5292  0.5401  0.2150
  966MOL0     C30280   6.507   9.872   0.470 -0.0013 -0.1854 -0.6013
  966MOL0     C30281   6.576   9.764   0.525 -0.1010  0.6448 -0.2053
  966MOL0     C30282   6.679   9.786   0.612  0.8757  0.2121 -0.2606
  966MOL0     O30283   6.749   9.672   0.652  0.4284 -0.2495  0.3071
  966MOL0     C30284   6.797   9.673   0.786 -0.4189 -0.0113 -0.5055
  966MOL0     C30285   6.824   9.539   0.840  0.6771  0.0370 -0.6814
  966MOL0     C30286   6.720   9.435   0.848 -0.8146 -0.4071  0.0746
  966MOL0     C30287   6.595   9.460   0.932 -0.3696  0.8742 -0.3221
  966MOL0     C30288   6.501   9.332   0.934  0.0471 -0.2829 -0.7001
  966MOL0     C30289   6.477   9.263   0.796 -0.6021  0.7523  0.0671
  966MOL0     C30290   6.406   9.345   0.692 -0.1847 -0.5381 -0.1801
  966MOL0     C30291   6.382   9.273   0.558  0.9263 -0.1958  0.8026
  966MOL0     N30292   6.375   9.366   0.440  0.2273  0.4697 -1.0664
  966MOL0     C30293   6.492   9.407   0.377  0.6512 -0.1963  0.4484
  966MOL0     C30294   6.445   9.514   0.299 -1.2355 -0.0806 -0.2211
  966MOL0     C30295   6.512   9.595   0.197  0.1211  0.2647  0.0742
  966MOL0     C30296   6.443   9.572   0.062  1.2534  0.3706 -0.1658
  966MOL0     C30297   6.496   9.448  -0.005  0.3978  0.2313 -0.5060
  966MOL0     C30298   6.414   9.430  -0.135 -0.8202 -0.3917  0.4077
  966MOL0     O30299   6.483   9.509  -0.238 -0.2100  0.4480 -0.1191
  966MOL0     C30300   6.473   9.472  -0.371 -0.2442  0.2676  0.3602
  966MOL0     C30301   6.351   9.468  -0.431 -0.2879 -0.5256 -0.2007
  966MOL0     C30302   6.328   9.446  -0.570  0.6909 -0.4520 -0.3361
  966MOL0     C30303   6.181   9.450  -0.611  0.6242  0.2211 -0.0876
  966MOL0     C30304   6.438   9.417  -0.655  0.3524  0.7051  0.4339
  966MOL0     C30305   6.437   9.403  -0.800 -0.8744 -0.0250  0.2322
  966MOL0     O30306   6.326   9.438  -0.873 -1.1145 -0.0516  0.1241
  966MOL0     C30307   6.322   9.361  -0.994  0.6921  0.8182 -0.6232
  966MOL0     C30308   6.241   9.246  -1.002  0.5085 -0.6929 -0.7179
  966MOL0     C30309   6.239   9.168  -1.112  0.0775 -0.2537  0.9059
  966MOL0     C30310   6.297   9.214  -1.237  0.0036 -1.0656  0.4986
  966MOL0     O30311   6.279   9.156  -1.363  0.0050  0.6017  0.8600
  966MOL0     C30312   6.182   9.045  -1.367 -0.5233 -0.2090 -0.3990
  966MOL0     C30313   6.150   8.982  -1.496 -0.3217 -0.2420  0.1885
  966MOL0     C30314   6.273   8.931  -1.562 -0.7217 -0.0217 -0.3300
  966MOL0     C30315   6.328   9.029  -1.662 -0.2122  0.1603 -0.2017
  966MOL0     C30316   6.226   9.077  -1.771 -0.5079  0.3722 -0.1517
  966MOL0     C30317   6.281   9.142  -1.895 -0.2515  0.6205  0.6030
  966MOL0     C30318   6.160   9.196  -1.982  0.6030 -0.5747  0.9893
  966MOL0     C30319   6.207   9.243  -2.122  0.0700 -0.1820 -0.7908
  966MOL0    Cl30320   6.197   9.104  -2.236 -0.2186  0.0194  0.2893
  966MOL0     C30321   6.376   9.327  -1.226  0.1281 -0.1720 -0.4368
  966MOL0     C30322   6.394   9.392  -1.105 -0.6728  0.2042  0.1835
  966MOL0     O30323   6.541   9.351  -0.845 -0.0951 -0.5925  0.1325
  966MOL0     C30324   6.567   9.409  -0.593 -0.5506  0.2580  0.1975
  966MOL0     C30325   6.584   9.435  -0.454 -0.1729 -0.9090  0.1641
  966MOL0     N30326   6.314   9.547   0.330 -1.2986 -0.0775  0.0481
  966MOL0     N30327   6.279   9.462   0.426  0.8366 -0.2022 -0.2461
  966MOL0     C30328   6.696   9.917   0.657  0.2601 -0.3825  0.8984
  966MOL0     C30329   6.614  10.020   0.612 -0.2060  0.6790 -0.3479
  966MOL0     C30330   6.326  10.296   0.398 -0.0996  0.4139  0.2593
  966MOL0     C30331   6.248  10.327   0.514 -0.0389 -0.0007  0.1961
  966MOL0     C30332   6.138  10.423   0.505 -0.9165 -0.6234 -0.6778
  966MOL0     C30333   6.130  10.507   0.388 -0.0435  1.3374  0.0559
  966MOL0     O30334   6.033  10.604   0.399  0.9597  0.4135  0.2278
  966MOL0     C30335   6.057  10.735   0.363  0.1577 -0.8963  0.6134
  966MOL0     C30336   5.990  10.767   0.237 -0.0679 -0.3444 -0.4340
  966MOL0     C30337   5.841  10.727   0.237  0.1014  0.4252  0.0119
  966MOL0     C30338   5.760  10.787   0.124 -0.7949 -0.8094  0.9118
  966MOL0     C30339   5.799  10.720   0.001  0.5560  0.5345  0.4722
  966MOL0     C30340   5.832  10.657  -0.102  0.7677  0.0200 -0.9400
  966MOL0     C30341   6.217  10.479   0.282  0.3331  0.2111  0.8009
  966MOL0     C30342   6.305  10.372   0.282  1.0832 -0.1660 -0.1580
  966MOL0     H30343   6.421   9.856   0.406  0.1698 -0.7805 -0.6886
  966MOL0     H30344   6.574   9.662   0.488  1.0193  0.1441  1.0190
  966MOL0     H30345   6.895   9.720   0.785 -0.4529  0.2460  1.6449
  966MOL0     H30346   6.736   9.739   0.849  2.6370  2.9896 -0.4272
  966MOL0     H30347   6.912   9.488   0.798  0.4626 -2.6657  1.7897
  966MOL0     H30348   6.848   9.553   0.946 -2.4517  0.4298  0.0743
  966MOL0     H30349   6.694   9.414   0.744 -2.3930  2.7552 -0.3153
  966MOL0     H30350   6.762   9.346   0.895  2.2196  0.3998 -0.8543
  966MOL0     H30351   6.619   9.465   1.039 -2.5811 -4.1676  0.7039
  966MOL0     H30352   6.541   9.545   0.889 -0.5545  0.3735 -1.0891
  966MOL0     H30353   6.557   9.270   1.005  1.7208  2.4682  0.5436
  966MOL0     H30354   6.411   9.364   0.988  0.9424  3.9726 -1.3682
  966MOL0     H30355   6.572   9.228   0.756 -0.5223  0.7337  0.2712
  966MOL0     H30356   6.417   9.172   0.808  2.6583 -1.6882 -0.8337
  966MOL0     H30357   6.308   9.365   0.737 -0.1786  0.9042 -0.7447
  966MOL0     H30358   6.461   9.440   0.687  1.7054 -1.2831  3.2797
  966MOL0     H30359   6.288   9.217   0.559  0.9729 -0.2597  1.6894
  966MOL0     H30360   6.463   9.201   0.540  0.9635  0.4504 -2.1001
  966MOL0     H30361   6.593   9.368   0.377  0.9940  0.5557 -1.6321
  966MOL0     H30362   6.490   9.695   0.236 -1.8119 -0.1489  0.1489
  966MOL0     H30363   6.616   9.568   0.177  0.4395  2.4204 -1.5870
  966MOL0     H30364   6.471   9.648  -0.011 -2.7047  0.2511 -2.0818
  966MOL0     H30365   6.334   9.578   0.070  1.3298  1.3643  0.3648
  966MOL0     H30366   6.482   9.361   0.060  1.4182 -2.4115 -3.5577
  966MOL0     H30367   6.605   9.437  -0.012  0.5145 -3.4558  2.9910
  966MOL0     H30368   6.310   9.461  -0.123 -0.1749  2.4124 -0.2954
  966MOL0     H30369   6.426   9.328  -0.171  1.3930  0.2070 -0.7749
  966MOL0     H30370   6.265   9.480  -0.366 -1.6237  1.9129 -2.2173
  966MOL0     H30371   6.117   9.439  -0.523 -0.5723 -1.2905 -1.0905
  966MOL0     H30372   6.153   9.546  -0.656 -0.3753 -0.5893 -1.2605
  966MOL0     H30373   6.153   9.368  -0.678  0.0343 -0.7260  1.2709
  966MOL0     H30374   6.187   9.217  -0.912 -0.0464 -0.3023 -0.9197
  966MOL0     H30375   6.187   9.073  -1.109 -0.2032 -0.4324 -3.6714
  966MOL0     H30376   6.215   8.966  -1.300 -0.6659 -0.7239 -0.9259
  966MOL0     H30377   6.083   9.080  -1.337 -0.6698 -0.0008 -1.1066
  966MOL0     H30378   6.096   8.890  -1.470  0.2134 -1.0085 -1.3098
  966MOL0     H30379   6.092   9.056  -1.553 -1.4763 -0.5162  0.9631
  966MOL0     H30380   6.257   8.844  -1.626  2.6403 -1.4176  0.5113
  966MOL0     H30381   6.340   8.908  -1.479 -1.9217  1.1268  1.0166
  966MOL0     H30382   6.344   9.123  -1.609 -2.7827  0.5436  0.0419
  966MOL0     H30383   6.411   8.977  -1.711 -0.9978  0.1736 -1.6161
  966MOL0     H30384   6.159   9.144  -1.717 -1.4312 -0.3775 -0.3516
  966MOL0     H30385   6.174   8.987  -1.803 -1.6790  0.5089  1.2904
  966MOL0     H30386   6.352   9.221  -1.869  1.5523  0.3743 -3.0105
  966MOL0     H30387   6.342   9.063  -1.940 -1.1785  1.4109 -2.2199
  966MOL0     H30388   6.121   9.288  -1.937 -1.3446 -1.4238  1.1146
  966MOL0     H30389   6.084   9.118  -1.992  2.1228 -2.1786  1.4252
  966MOL0     H30390   6.303   9.291  -2.103 -0.9370  0.2526  4.8690
  966MOL0     H30391   6.136   9.311  -2.171  0.3662  0.2233 -0.6605
  966MOL0     H30392   6.415   9.370  -1.318  2.5203  3.0160  1.8184
  966MOL0     H30393   6.470   9.470  -1.101  1.7846 -2.1004  2.0297
  966MOL0     H30394   6.659   9.391  -0.648 -2.9215 -1.3178 -3.6939
  966MOL0     H30395   6.680   9.446  -0.404 -1.5245 -0.9052  2.9300
  966MOL0     H30396   6.770   9.949   0.730  0.7958  2.8833 -0.8861
  966MOL0     H30397   6.623  10.117   0.660  1.1772 -1.0639  3.2190
  966MOL0     H30398   6.256  10.269   0.606 -0.5978  2.0944  1.6442
  966MOL0     H30399   6.080  10.440   0.595 -0.2283 -0.0853 -0.3254
  966MOL0     H30400   5.997  10.789   0.437 -0.0869  2.0862 -1.5844
  966MOL0     H30401   6.154  10.784   0.379 -0.5061  0.6222  0.1672
  966MOL0     H30402   6.040  10.716   0.154  3.8959  3.4070 -0.6726
  966MOL0     H30403   6.016  10.872   0.221 -0.6263  0.4811  3.2383
  966MOL0     H30404   5.793  10.758   0.331 -2.3503 -1.0481 -0.6568
  966MOL0     H30405   5.826  10.618   0.241  1.1246  0.3042  1.6878
  966MOL0     H30406   5.771  10.896   0.117  0.5769 -0.7244  3.2832
  966MOL0     H30407   5.653  10.774   0.141 -1.6335  1.6740 -1.7287
  966MOL0     H30408   5.847  10.594  -0.187 -1.4181 -0.9408 -0.6986
  966MOL0     H30409   6.196  10.531   0.189  0.4985 -0.5004  0.3602
  966MOL0     H30410   6.356  10.329   0.196  3.7129 -1.0846  1.7698
  967MOL0     O30411   2.072   1.819   2.239 -0.3011  0.3415 -0.0584
  967MOL0     C30412   1.976   1.868   2.295  0.0702  0.4023 -0.1722
  967MOL0     O30413   1.961   1.844   2.421  0.6784 -0.3054 -0.3206
  967MOL0     C30414   2.045   1.759   2.484  0.6024  0.9611  0.0880
  967MOL0     C30415   1.997   1.641   2.549  0.0176  0.1080  0.6757
  967MOL0     C30416   2.085   1.556   2.623  0.7221 -0.1466  0.1374
  967MOL0     C30417   2.218   1.598   2.640 -0.0519  0.7218  0.0090
  967MOL0     O30418   2.309   1.525   2.717  0.3062  0.7581 -0.2578
  967MOL0     C30419   2.373   1.418   2.651 -0.1932 -1.1914  0.7993
  967MOL0     C30420   2.353   1.284   2.714 -0.0382  0.0986  0.1437
  967MOL0     C30421   2.416   1.162   2.637 -0.0924 -0.6815  0.0282
  967MOL0     C30422   2.571   1.178   2.618 -0.5814 -0.2706  0.9946
  967MOL0     C30423   2.667   1.169   2.741 -0.6558 -0.9296 -1.4692
  967MOL0     C30424   2.665   1.036   2.823 -0.2405  0.6049 -0.2497
  967MOL0     C30425   2.771   1.034   2.930  0.9206 -0.3831  0.8138
  967MOL0     C30426   2.917   1.055   2.897 -0.6954 -0.6170  0.5273
  967MOL0     N30427   3.010   1.034   3.005 -0.1862  0.0263  0.8665
  967MOL0     C30428   3.041   1.136   3.092 -0.3267 -0.1673  0.4380
  967MOL0     C30429   3.152   1.091   3.156 -0.5717  0.4890 -0.1049
  967MOL0     C30430   3.229   1.148   3.277 -0.1593 -0.1144  1.2034
  967MOL0     C30431   3.337   1.256   3.248  0.8440 -0.5676 -0.3421
  967MOL0     C30432   3.436   1.277   3.362  0.6275 -0.2599 -0.0212
  967MOL0     C30433   3.553   1.370   3.327 -0.7221 -0.0978 -0.2492
  967MOL0     O30434   3.656   1.315   3.235  0.1548  0.1413 -0.1231
  967MOL0     C30435   3.778   1.307   3.297 -0.0890  0.5488 -0.3197
  967MOL0     C30436   3.801   1.224   3.399 -0.7482 -0.0491 -0.9318
  967MOL0     C30437   3.919   1.221   3.475  0.0859  0.0978 -0.3063
  967MOL0     C30438   3.940   1.117   3.586  0.6351 -0.5105  1.1187
  967MOL0     C30439   4.031   1.300   3.422  0.3695  0.4413  1.0385
  967MOL0     C30440   4.167   1.301   3.494 -0.5843 -0.0987  0.1625
  967MOL0     O30441   4.286   1.318   3.424  0.0693 -0.5112  0.0024
  967MOL0     C30442   4.302   1.238   3.305 -0.3718 -0.4226 -0.4236
  967MOL0     C30443   4.272   1.111   3.295 -1.2481  0.6714 -0.5018
  967MOL0     C30444   4.292   1.047   3.172 -0.2581  0.4926  0.8688
  967MOL0     C30445   4.333   1.124   3.051 -0.4504 -0.8762 -0.8002
  967MOL0     O30446   4.360   1.081   2.927 -0.7463  0.6746 -0.2633
  967MOL0     C30447   4.260   1.088   2.825 -0.0743 -0.0312 -0.3268
  967MOL0     C30448   4.321   1.111   2.689  0.4275  0.7221 -0.5549
  967MOL0     C30449   4.336   1.261   2.660 -0.1915 -0.4720  0.1376
  967MOL0     C30450   4.457   1.277   2.566 -0.7462  0.6317  0.1306
  967MOL0     C30451   4.465   1.422   2.508  0.7547  0.2600 -0.7435
  967MOL0     C30452   4.596   1.467   2.437 -0.4336 -0.3814 -0.5701
  967MOL0     C30453   4.582   1.618   2.420  0.9578  0.5411 -0.1301
  967MOL0     C30454   4.703   1.686   2.395  0.2339  0.6059 -0.1334
  967MOL0    Cl30455   4.767   1.640   2.235 -0.1892 -0.2896 -0.2157
  967MOL0     C30456   4.370   1.256   3.075  0.1462  0.2791 -0.0457
  967MOL0     C30457   4.354   1.314   3.199  0.1121 -0.7214 -0.1647
  967MOL0     O30458   4.157   1.307   3.614 -0.2254 -0.5337 -0.2873
  967MOL0     C30459   4.016   1.368   3.298  0.0219 -0.6697  0.2598
  967MOL0     C30460   3.889   1.368   3.233 -0.9977 -0.4435 -0.6437
  967MOL0     N30461   3.197   0.985   3.081 -0.5772  0.3349 -0.1237
  967MOL0     N30462   3.116   0.948   2.997  0.8944  0.0873  0.4993
  967MOL0     C30463   2.265   1.710   2.577  0.7762  0.7910 -0.1068
  967MOL0     C30464   2.178   1.794   2.500 -0.4276 -0.2990  0.2376
  967MOL0     C30465   1.880   1.955   2.227 -0.0653 -0.2653  0.4484
  967MOL0     C30466   1.892   1.976   2.088  1.1606  0.0674  0.3047
  967MOL0     C30467   1.801   2.064   2.032  0.2312 -0.4509 -1.3158
  967MOL0     C30468   1.713   2.157   2.101  0.9094 -0.3045  0.4530
  967MOL0     O30469   1.629   2.246   2.023  0.6531 -0.5593  0.2129
  967MOL0     C30470   1.513   2.311   2.084 -0.7778 -0.8582 -0.2382
  967MOL0     C30471   1.414   2.370   1.984  0.0180 -0.6986  0.3842
  967MOL0     C30472   1.462   2.449   1.863  0.9843 -0.1266  0.8843
  967MOL0     C30473   1.532   2.583   1.889 -0.2387  0.2631  1.0542
  967MOL0     C30474   1.435   2.688   1.896  0.1221 -0.0051  0.2659
  967MOL0     C30475   1.361   2.783   1.880  0.0074 -0.2622 -1.0342
  967MOL0     C30476   1.704   2.131   2.231 -0.4397 -0.1897 -0.3054
  967MOL0     C30477   1.786   2.037   2.302 -1.0853 -0.3701  0.2594
  967MOL0     H30478   1.890   1.624   2.537 -0.2101  1.6779  0.1983
  967MOL0     H30479   2.061   1.465   2.677  0.0504 -0.2228 -0.2764
  967MOL0     H30480   2.343   1.418   2.546  1.5163 -2.3649  0.2642
  967MOL0     H30481   2.480   1.441   2.661 -0.7157  0.9107  2.0333
  967MOL0     H30482   2.386   1.283   2.819 -1.7362 -0.1081  0.7060
  967MOL0     H30483   2.246   1.269   2.730  0.4411 -1.4961  2.4280
  967MOL0     H30484   2.394   1.078   2.704  1.0526 -0.2021  1.0638
  967MOL0     H30485   2.378   1.150   2.535 -1.1412  1.9500  0.0294
  967MOL0     H30486   2.610   1.104   2.547  1.5821  1.8676 -0.2054
  967MOL0     H30487   2.580   1.266   2.553 -0.1772 -0.7974  0.3188
  967MOL0     H30488   2.768   1.182   2.702  0.3443 -1.3688  0.8016
  967MOL0     H30489   2.646   1.252   2.810 -1.0902 -3.9381  2.3326
  967MOL0     H30490   2.565   1.034   2.868  0.3488  0.2146  1.1128
  967MOL0     H30491   2.675   0.955   2.750  1.0830 -0.4500  1.0324
  967MOL0     H30492   2.742   1.106   3.006  2.6397  1.0794  0.1623
  967MOL0     H30493   2.763   0.935   2.975  0.9633 -2.2210 -2.8021
  967MOL0     H30494   2.943   1.153   2.857  0.4840 -0.4139  1.7017
  967MOL0     H30495   2.950   0.986   2.819 -0.5618  2.5524 -2.4262
  967MOL0     H30496   2.977   1.220   3.117  1.1161  1.4121 -0.9057
  967MOL0     H30497   3.154   1.178   3.351  2.1063  1.2476  3.0734
  967MOL0     H30498   3.276   1.058   3.317 -1.7137 -1.3890  0.2784
  967MOL0     H30499   3.286   1.351   3.233  0.1397 -0.9972 -0.7173
  967MOL0     H30500   3.378   1.229   3.150  1.5887  4.8231 -1.8298
  967MOL0     H30501   3.482   1.189   3.409 -0.7282  0.4577  2.8930
  967MOL0     H30502   3.369   1.313   3.440  1.2610  0.2505  0.3019
  967MOL0     H30503   3.588   1.405   3.424 -1.1930  0.4835 -0.2774
  967MOL0     H30504   3.509   1.460   3.283 -1.3651 -0.4084 -0.2570
  967MOL0     H30505   3.715   1.160   3.415 -0.3515 -0.7905 -1.7007
  967MOL0     H30506   4.029   1.053   3.584  2.5837  1.8403  3.9004
  967MOL0     H30507   3.931   1.176   3.678  0.3127 -1.4408  1.7080
  967MOL0     H30508   3.848   1.058   3.591  0.0086  0.0358 -1.9683
  967MOL0     H30509   4.241   1.042   3.372  0.1167 -1.8947 -2.1055
  967MOL0     H30510   4.272   0.941   3.163  1.3137  0.2696 -0.2764
  967MOL0     H30511   4.214   0.989   2.814 -0.5527  0.2623 -1.0084
  967MOL0     H30512   4.171   1.146   2.850 -0.2222  1.3719 -3.6440
  967MOL0     H30513   4.413   1.053   2.676 -0.2705 -0.9487  1.4143
  967MOL0     H30514   4.251   1.073   2.614 -0.2380  0.0467  0.3856
  967MOL0     H30515   4.349   1.319   2.752 -1.9357  0.9278 -0.4489
  967MOL0     H30516   4.238   1.300   2.633  0.0184  1.0094  1.4056
  967MOL0     H30517   4.549   1.264   2.624  1.3769 -3.2057 -3.5090
  967MOL0     H30518   4.451   1.203   2.486  0.9504 -1.7078  2.0200
  967MOL0     H30519   4.460   1.486   2.596  2.8449  0.6074 -0.8244
  967MOL0     H30520   4.375   1.441   2.448 -1.4232 -0.2796  2.1487
  967MOL0     H30521   4.675   1.448   2.509 -3.7818  1.2974  4.0246
  967MOL0     H30522   4.609   1.417   2.340 -2.2152 -0.2614 -0.9113
  967MOL0     H30523   4.537   1.659   2.511 -2.0068  2.0103 -2.1170
  967MOL0     H30524   4.513   1.636   2.337  0.4094  0.1234  0.2282
  967MOL0     H30525   4.778   1.663   2.471  0.1376  1.1894  0.1485
  967MOL0     H30526   4.691   1.794   2.383 -0.0295  0.4714 -1.2017
  967MOL0     H30527   4.405   1.324   2.998 -0.6825  1.3618  0.4936
  967MOL0     H30528   4.381   1.417   3.218  0.3869 -1.0350  1.2910
  967MOL0     H30529   4.103   1.422   3.261  0.3720 -0.8650  0.7994
  967MOL0     H30530   3.874   1.419   3.138 -0.2950  3.7494  1.2463
  967MOL0     H30531   2.370   1.738   2.578  0.8493  0.8478 -2.8763
  967MOL0     H30532   2.219   1.887   2.462  0.8505  0.1214  2.4716
  967MOL0     H30533   1.974   1.950   2.023 -1.3927  0.9902 -3.6290
  967MOL0     H30534   1.810   2.091   1.928 -1.3415  2.0541 -0.9064
  967MOL0     H30535   1.464   2.230   2.138  0.1943  0.0016  2.0397
  967MOL0     H30536   1.537   2.386   2.159  3.3732 -0.9205 -1.2236
  967MOL0     H30537   1.351   2.444   2.035  0.7253 -0.3777  0.8171
  967MOL0     H30538   1.366   2.292   1.925  1.5773 -0.3415 -1.4546
  967MOL0     H30539   1.381   2.465   1.792  0.2213  0.4995  1.8631
  967MOL0     H30540   1.515   2.386   1.790 -3.9542  0.1437 -3.5431
  967MOL0     H30541   1.601   2.606   1.806  2.0529  0.0508  2.8058
  967MOL0     H30542   1.588   2.573   1.982  1.3462  0.2794  0.1406
  967MOL0     H30543   1.301   2.872   1.874  1.6150  1.3856  3.4070
  967MOL0     H30544   1.632   2.191   2.286 -1.1172 -0.3810 -0.9650
  967MOL0     H30545   1.785   2.036   2.410  1.9662  0.3353  0.3879
  968MOL0     O30546   8.717   8.618   4.103  0.3981  0.3307  0.6374
  968MOL0     C30547   8.768   8.716   4.053  0.9185  0.5162 -0.2601
  968MOL0     O30548   8.899   8.740   4.048  0.6251 -0.2623 -0.0364
  968MOL0     C30549   8.992   8.647   4.087 -0.8315 -0.3784  0.9182
  968MOL0     C30550   9.117   8.693   4.125 -1.2771  0.3238  0.5663
  968MOL0     C30551   9.222   8.610   4.163 -0.1984  0.4145  0.4640
  968MOL0     C30552   9.214   8.471   4.158 -0.8178 -0.4950 -0.3106
  968MOL0     O30553   9.320   8.406   4.213 -0.1525 -0.1595  0.8482
  968MOL0     C30554   9.282   8.276   4.266  0.3773  0.0293  0.2508
  968MOL0     C30555   9.370   8.256   4.394 -0.1111  1.0245  0.2562
  968MOL0     C30556   9.375   8.373   4.493  0.7805 -0.1152 -0.4173
  968MOL0     C30557   9.464   8.324   4.603 -0.3318  0.1795 -0.0494
  968MOL0     C30558   9.507   8.451   4.678 -0.6684  0.9086  0.5964
  968MOL0     C30559   9.535   8.434   4.830 -0.2839  1.0742  0.9134
  968MOL0     C30560   9.563   8.567   4.905  0.9867 -1.6390 -0.6686
  968MOL0     C30561   9.549   8.540   5.061  0.2651  0.2904 -0.6434
  968MOL0     N30562   9.407   8.576   5.108 -0.1897 -0.5067 -0.5868
  968MOL0     C30563   9.297   8.512   5.077 -0.2588  0.0919 -0.6016
  968MOL0     C30564   9.199   8.580   5.135  0.1472 -0.0351  0.3675
  968MOL0     C30565   9.046   8.579   5.126 -0.1304 -0.0517  0.1349
  968MOL0     C30566   8.993   8.494   5.244 -0.1029  1.0510 -0.2376
  968MOL0     C30567   8.947   8.571   5.375  0.6903 -0.4775  0.0023
  968MOL0     C30568   8.938   8.480   5.496  1.2089 -0.7553  1.1267
  968MOL0     O30569   8.892   8.343   5.480  0.0733  0.1528 -0.6849
  968MOL0     C30570   8.869   8.254   5.579  0.0068 -0.4836  0.0500
  968MOL0     C30571   8.903   8.274   5.707 -0.6727  1.2959  0.1083
  968MOL0     C30572   8.890   8.176   5.814 -1.1635 -0.0441  0.1474
  968MOL0     C30573   8.944   8.211   5.961 -0.9987  0.5346 -0.3943
  968MOL0     C30574   8.838   8.049   5.775 -0.0359  0.1073 -0.4438
  968MOL0     C30575   8.805   7.938   5.874 -0.4812  0.4184  0.0387
  968MOL0     O30576   8.742   7.823   5.814  0.1204  0.4508  1.1974
  968MOL0     C30577   8.664   7.751   5.896  0.1971 -0.0200  0.2443
  968MOL0     C30578   8.525   7.757   5.871 -0.6461 -0.3062  0.7546
  968MOL0     C30579   8.436   7.688   5.945 -0.1402 -0.1295  0.3653
  968MOL0     C30580   8.478   7.615   6.056 -0.1675  0.6861  0.6770
  968MOL0     O30581   8.388   7.553   6.145  0.5402  0.2041 -1.0038
  968MOL0     C30582   8.249   7.558   6.117 -0.3134 -0.0112 -0.3190
  968MOL0     C30583   8.163   7.470   6.223 -0.0354 -0.7573 -0.3663
  968MOL0     C30584   8.227   7.331   6.254 -0.6306 -0.5257 -0.0858
  968MOL0     C30585   8.117   7.233   6.271 -0.3864  1.3943 -0.8108
  968MOL0     C30586   8.165   7.083   6.300  0.4315 -0.2906 -0.3802
  968MOL0     C30587   8.127   6.997   6.179  0.0762  1.1381 -0.0577
  968MOL0     C30588   7.978   6.974   6.163  0.4942  0.5453  0.0430
  968MOL0     C30589   7.972   6.903   6.032  0.4919  0.2208  0.2580
  968MOL0    Cl30590   7.823   6.826   6.000  0.1578  0.3045  0.5712
  968MOL0     C30591   8.613   7.626   6.084  0.2302  0.3874 -0.6195
  968MOL0     C30592   8.714   7.675   6.000  0.1934  1.2020 -0.3734
  968MOL0     O30593   8.822   7.959   5.990  0.2494  0.4902 -0.9741
  968MOL0     C30594   8.809   8.023   5.645 -0.2127  0.8425 -0.1182
  968MOL0     C30595   8.820   8.124   5.546 -0.7122 -0.8549 -0.3217
  968MOL0     N30596   9.257   8.691   5.198  0.7982  0.5047 -0.1900
  968MOL0     N30597   9.382   8.681   5.194 -0.3833 -0.1489  0.4624
  968MOL0     C30598   9.086   8.425   4.123  0.5152 -0.3100 -0.5853
  968MOL0     C30599   8.983   8.505   4.079  0.4375  0.3879 -0.5373
  968MOL0     C30600   8.665   8.820   4.004  0.1676  0.7477  0.0728
  968MOL0     C30601   8.529   8.775   3.999 -0.1642 -0.5374 -0.0918
  968MOL0     C30602   8.430   8.852   3.943  0.1636 -0.4132 -1.1716
  968MOL0     C30603   8.460   8.981   3.894  0.0657  0.0571 -0.4072
  968MOL0     O30604   8.378   9.079   3.835 -0.2397  0.6421  0.1693
  968MOL0     C30605   8.235   9.057   3.810 -1.1160 -0.3880 -1.0069
  968MOL0     C30606   8.212   9.011   3.671 -0.7939  0.6241  0.7680
  968MOL0     C30607   8.198   9.136   3.584 -0.9704 -0.1378  1.1870
  968MOL0     C30608   8.196   9.104   3.445  1.1518 -0.0769  0.3176
  968MOL0     C30609   8.065   9.070   3.387  0.0372 -0.4622  0.2248
  968MOL0     C30610   7.962   9.027   3.344  0.7519  0.2384 -0.5026
  968MOL0     C30611   8.593   9.024   3.911  0.8252 -0.1533  0.3238
  968MOL0     C30612   8.697   8.940   3.955 -0.0380 -0.9138 -0.2031
  968MOL0     H30613   9.125   8.801   4.130 -1.9828  0.5633 -1.9726
  968MOL0     H30614   9.319   8.643   4.200 -1.1404  0.7050  2.8692
  968MOL0     H30615   9.181   8.269   4.309 -0.2644  0.6068 -1.1019
  968MOL0     H30616   9.282   8.195   4.193  1.5028  0.0155  0.2560
  968MOL0     H30617   9.318   8.176   4.446 -0.8767  2.4552  1.7927
  968MOL0     H30618   9.468   8.212   4.374  0.0349  0.7718  1.4435
  968MOL0     H30619   9.419   8.462   4.445  1.2779 -0.1845 -0.0952
  968MOL0     H30620   9.278   8.408   4.530 -0.6083 -3.0907 -0.9710
  968MOL0     H30621   9.415   8.255   4.672 -1.8799  3.9168  2.9504
  968MOL0     H30622   9.548   8.269   4.560  1.3581  1.0650  1.9725
  968MOL0     H30623   9.595   8.487   4.625  2.0035 -0.6573  3.6390
  968MOL0     H30624   9.426   8.525   4.672 -1.2088  0.3667  1.1022
  968MOL0     H30625   9.442   8.384   4.858 -2.0888  1.4852 -3.5942
  968MOL0     H30626   9.612   8.360   4.853 -0.6155  0.9397  1.6179
  968MOL0     H30627   9.667   8.594   4.885  1.0543 -2.4203 -1.4380
  968MOL0     H30628   9.484   8.640   4.885  2.0468  0.4015  1.9851
  968MOL0     H30629   9.625   8.597   5.114 -3.1210  1.6073  3.3478
  968MOL0     H30630   9.558   8.432   5.077  2.0986  0.4002 -0.7704
  968MOL0     H30631   9.295   8.438   4.998 -0.5963  1.1478 -1.6063
  968MOL0     H30632   9.017   8.684   5.133  0.6809  0.0771  2.1929
  968MOL0     H30633   9.014   8.530   5.034  0.5366 -0.1161 -0.0692
  968MOL0     H30634   9.058   8.406   5.258 -0.4130  0.8513 -0.0403
  968MOL0     H30635   8.899   8.444   5.221  2.0979 -4.2722  0.8210
  968MOL0     H30636   8.846   8.608   5.355  1.2690 -0.0410 -2.3767
  968MOL0     H30637   9.021   8.650   5.393  0.9894 -0.2599 -1.9652
  968MOL0     H30638   8.883   8.537   5.572  0.5898 -2.6107  2.1341
  968MOL0     H30639   9.042   8.469   5.530  1.4595 -3.3174 -0.1941
  968MOL0     H30640   8.960   8.362   5.737  2.9286 -1.2838  1.4894
  968MOL0     H30641   9.032   8.155   5.995 -0.4985  0.7659 -1.2882
  968MOL0     H30642   8.975   8.315   5.973  1.6146 -0.4523  3.4291
  968MOL0     H30643   8.866   8.190   6.035  0.6899 -2.1853  0.8157
  968MOL0     H30644   8.493   7.817   5.786  0.6360  1.3167  1.3508
  968MOL0     H30645   8.333   7.711   5.920  0.4191  2.7369  0.4214
  968MOL0     H30646   8.219   7.663   6.116 -3.0299 -0.6967 -0.3379
  968MOL0     H30647   8.231   7.508   6.021  1.4685  2.6979 -2.1895
  968MOL0     H30648   8.150   7.523   6.317  0.3929 -0.8325 -0.2628
  968MOL0     H30649   8.065   7.454   6.177  1.5898 -1.6601 -3.9127
  968MOL0     H30650   8.300   7.333   6.335 -0.3361 -0.8698 -0.3433
  968MOL0     H30651   8.276   7.299   6.161  1.2580  2.5484 -0.2896
  968MOL0     H30652   8.050   7.268   6.350  0.1504  2.1708 -0.6875
  968MOL0     H30653   8.062   7.236   6.177  1.8828  0.4984 -2.2608
  968MOL0     H30654   8.114   7.049   6.391 -1.9545  2.9386 -0.3254
  968MOL0     H30655   8.273   7.084   6.315  0.2366 -1.1863  1.3634
  968MOL0     H30656   8.178   7.025   6.086 -1.8597  1.0204 -1.2207
  968MOL0     H30657   8.182   6.907   6.205  2.5773  2.8508  0.9016
  968MOL0     H30658   7.928   7.072   6.157  3.5224  2.7131  4.4338
  968MOL0     H30659   7.938   6.931   6.255 -0.9791  1.4116 -0.1543
  968MOL0     H30660   8.043   6.820   6.035  0.1566 -0.0654  0.5480
  968MOL0     H30661   8.005   6.965   5.949 -0.9729  1.0377  0.2555
  968MOL0     H30662   8.641   7.573   6.175 -2.2620  0.6811  0.4040
  968MOL0     H30663   8.818   7.665   6.029 -0.0271 -1.6860 -0.2530
  968MOL0     H30664   8.773   7.927   5.609  1.9708 -0.4772  1.0632
  968MOL0     H30665   8.794   8.099   5.444  1.6030 -0.1800 -1.1190
  968MOL0     H30666   9.061   8.319   4.123 -0.4724 -0.0872 -1.3410
  968MOL0     H30667   8.891   8.470   4.033 -1.2008  2.7471  0.7304
  968MOL0     H30668   8.502   8.679   4.042  0.1326  0.5077  2.6326
  968MOL0     H30669   8.327   8.822   3.961  0.0797  1.3224  1.8662
  968MOL0     H30670   8.207   8.978   3.879  1.7219 -0.2240  0.5151
  968MOL0     H30671   8.182   9.150   3.834 -0.5981  0.2293 -2.1631
  968MOL0     H30672   8.114   8.963   3.682 -1.2071  1.2989  0.0684
  968MOL0     H30673   8.279   8.932   3.635 -0.9199  0.4929  0.8167
  968MOL0     H30674   8.289   9.194   3.602 -0.5312 -1.2078  2.4850
  968MOL0     H30675   8.109   9.195   3.609 -1.0602  0.4642 -0.3927
  968MOL0     H30676   8.266   9.021   3.428  1.7792  1.2070 -4.9453
  968MOL0     H30677   8.236   9.185   3.384 -0.6995 -0.9260 -2.1707
  968MOL0     H30678   7.862   9.014   3.308 -0.7015  1.4470  2.6476
  968MOL0     H30679   8.625   9.120   3.872  0.6533 -0.4215 -0.5165
  968MOL0     H30680   8.794   8.988   3.952 -1.8501  3.2844  0.4669
  969MOL0     O30681   2.707   8.315   6.830 -0.5850 -0.1287 -0.5560
  969MOL0     C30682   2.694   8.188   6.826  0.6533 -0.5205 -0.1048
  969MOL0     O30683   2.654   8.120   6.721 -0.3386 -0.1754  1.3615
  969MOL0     C30684   2.638   8.177   6.594  0.0433  0.0695  0.8177
  969MOL0     C30685   2.594   8.306   6.561 -0.3216  0.3321 -0.0134
  969MOL0     C30686   2.600   8.349   6.431  0.2814 -0.1216  0.7561
  969MOL0     C30687   2.636   8.258   6.332  0.4595  0.4464  0.5473
  969MOL0     O30688   2.635   8.308   6.201  1.0746  0.2462  0.7207
  969MOL0     C30689   2.750   8.268   6.117  0.1693  0.2243  0.7536
  969MOL0     C30690   2.893   8.280   6.171  0.2068 -0.0696 -0.8872
  969MOL0     C30691   2.994   8.263   6.051  0.6161 -0.4116 -0.7260
  969MOL0     C30692   3.132   8.252   6.113  0.1470  0.1970  0.6006
  969MOL0     C30693   3.237   8.210   6.002 -0.4363  0.1414  0.1197
  969MOL0     C30694   3.372   8.189   6.063  0.4423  0.4006 -0.5687
  969MOL0     C30695   3.479   8.150   5.965 -0.9039 -0.4087 -0.4031
  969MOL0     C30696   3.604   8.112   6.040  0.3482  0.1621 -0.0436
  969MOL0     N30697   3.696   8.040   5.948 -0.1512 -0.7988 -0.0208
  969MOL0     C30698   3.737   8.088   5.825  0.0266  0.1910 -1.2425
  969MOL0     C30699   3.841   8.005   5.786  0.9224 -0.6307 -0.8127
  969MOL0     C30700   3.893   7.969   5.650  0.5658  0.6967 -0.4558
  969MOL0     C30701   3.779   7.931   5.547 -0.7082  0.3215 -0.3313
  969MOL0     C30702   3.706   7.798   5.582  0.8471  0.1900 -0.6612
  969MOL0     C30703   3.561   7.782   5.506 -0.2255 -0.7047 -1.1739
  969MOL0     O30704   3.584   7.787   5.362  0.1273  0.0292 -0.3116
  969MOL0     C30705   3.608   7.669   5.291  0.6425  0.3969 -0.9551
  969MOL0     C30706   3.596   7.536   5.323  0.1970 -0.3555  0.0868
  969MOL0     C30707   3.639   7.429   5.231 -0.2411  0.0141 -1.0885
  969MOL0     C30708   3.633   7.290   5.287 -0.2452  0.3584 -1.1101
  969MOL0     C30709   3.693   7.462   5.103 -0.1236 -0.0671 -0.6530
  969MOL0     C30710   3.739   7.364   5.002  0.4134  0.0532  0.6680
  969MOL0     O30711   3.826   7.268   5.049 -0.7559 -0.3088  1.1120
  969MOL0     C30712   3.860   7.161   4.965  0.2902 -0.4140  0.7928
  969MOL0     C30713   3.974   7.077   5.000 -0.0949  0.1127 -0.0386
  969MOL0     C30714   4.024   6.972   4.924  0.0386  0.1871  0.4500
  969MOL0     C30715   3.969   6.943   4.793 -0.0950 -0.1663 -0.0340
  969MOL0     O30716   4.035   6.853   4.710  0.5423 -0.5327 -0.4514
  969MOL0     C30717   3.984   6.796   4.595 -0.0093 -0.0937 -0.4916
  969MOL0     C30718   4.021   6.898   4.489  0.4495  0.4830 -0.1978
  969MOL0     C30719   4.164   6.947   4.481  0.4303 -1.3789 -0.1440
  969MOL0     C30720   4.183   7.058   4.378  0.6591 -1.2261  0.7766
  969MOL0     C30721   4.328   7.101   4.371  0.1604 -0.0868  0.3086
  969MOL0     C30722   4.349   7.151   4.218 -0.2106  0.7854  1.4119
  969MOL0     C30723   4.483   7.216   4.193 -0.2287 -0.1728 -0.9650
  969MOL0     C30724   4.612   7.137   4.227  0.2350 -0.7259 -0.3003
  969MOL0    Cl30725   4.638   7.143   4.402  0.0329 -0.0631  0.3461
  969MOL0     C30726   3.852   7.013   4.758 -0.9729 -0.1289  0.3399
  969MOL0     C30727   3.797   7.117   4.843  0.3413 -0.0770 -0.4882
  969MOL0     O30728   3.708   7.390   4.888  0.4531 -0.0896 -0.0982
  969MOL0     C30729   3.704   7.597   5.069  0.9278  0.3994 -0.2167
  969MOL0     C30730   3.656   7.687   5.163 -0.9684 -0.0714  0.2902
  969MOL0     N30731   3.861   7.920   5.885 -0.1157 -0.7248 -0.3348
  969MOL0     N30732   3.777   7.939   5.976 -0.3020  0.5479  0.0258
  969MOL0     C30733   2.678   8.129   6.365  0.9550  0.0579  0.5748
  969MOL0     C30734   2.678   8.089   6.497  0.1899  1.2825  0.1932
  969MOL0     C30735   2.710   8.109   6.949 -0.3193 -0.5749 -0.3811
  969MOL0     C30736   2.776   7.986   6.954  0.1085  0.4077  0.6015
  969MOL0     C30737   2.777   7.909   7.069  0.0778  1.0184  0.0524
  969MOL0     C30738   2.734   7.960   7.188 -0.0496 -0.4305  0.1264
  969MOL0     O30739   2.747   7.880   7.300 -0.6154 -0.1382 -0.1687
  969MOL0     C30740   2.738   7.929   7.443 -0.4497 -0.3653  0.3504
  969MOL0     C30741   2.598   7.923   7.493 -0.4326  0.2533  0.5724
  969MOL0     C30742   2.556   7.771   7.498 -0.0651  0.1680 -0.1242
  969MOL0     C30743   2.407   7.761   7.534 -0.4673  0.2415  0.6310
  969MOL0     C30744   2.390   7.629   7.588  1.2161 -0.5435 -0.7887
  969MOL0     C30745   2.358   7.526   7.632  0.6346 -0.4685  0.0233
  969MOL0     C30746   2.669   8.090   7.181  1.1505  0.0815 -0.0013
  969MOL0     C30747   2.647   8.157   7.067  0.5943  0.4348 -0.2783
  969MOL0     H30748   2.567   8.378   6.637 -0.9395 -0.5728  0.6468
  969MOL0     H30749   2.573   8.451   6.407  0.1355 -0.1884  0.6276
  969MOL0     H30750   2.737   8.166   6.083  0.6043 -1.0167  3.9250
  969MOL0     H30751   2.743   8.339   6.034  0.0583 -1.7754 -1.0241
  969MOL0     H30752   2.903   8.378   6.220 -3.4247  0.0309 -0.0479
  969MOL0     H30753   2.903   8.204   6.249  0.4457 -0.4324 -1.2694
  969MOL0     H30754   2.963   8.174   5.996 -5.0803 -0.4849  1.8991
  969MOL0     H30755   2.999   8.342   5.974  0.8490 -1.5845 -1.9485
  969MOL0     H30756   3.162   8.348   6.157 -0.0648  0.8206 -0.5812
  969MOL0     H30757   3.119   8.172   6.186  0.2700  2.2075  2.9689
  969MOL0     H30758   3.199   8.115   5.963 -0.1123  0.2671 -0.5042
  969MOL0     H30759   3.237   8.291   5.929  0.4365 -0.0937 -0.1464
  969MOL0     H30760   3.406   8.285   6.104  0.4676  1.1412 -2.2700
  969MOL0     H30761   3.358   8.117   6.144 -0.6954 -0.0044 -1.1090
  969MOL0     H30762   3.445   8.065   5.905  1.1642 -0.4311 -1.6367
  969MOL0     H30763   3.512   8.234   5.904  1.2142  0.8363  2.2492
  969MOL0     H30764   3.581   8.030   6.108 -1.3955  0.0401 -0.7343
  969MOL0     H30765   3.639   8.202   6.092  2.0716 -1.1543  1.2080
  969MOL0     H30766   3.701   8.166   5.760 -0.7593  1.9737  1.1786
  969MOL0     H30767   3.955   8.049   5.609  2.5409 -0.5474 -0.0596
  969MOL0     H30768   3.973   7.895   5.658  0.1364  0.3133  0.5161
  969MOL0     H30769   3.816   7.925   5.444  0.0477  0.0388 -0.0543
  969MOL0     H30770   3.704   8.009   5.545  1.6486  2.7818  0.9814
  969MOL0     H30771   3.689   7.784   5.689 -0.0666  1.0196 -0.6858
  969MOL0     H30772   3.770   7.714   5.552  1.3644  0.2830  0.1591
  969MOL0     H30773   3.503   7.870   5.534 -0.7464 -0.8538 -1.7547
  969MOL0     H30774   3.510   7.697   5.550  0.7129  0.0212  1.5101
  969MOL0     H30775   3.536   7.520   5.412 -2.6204  0.5704 -1.5119
  969MOL0     H30776   3.726   7.257   5.334 -1.4811 -2.4421 -0.4354
  969MOL0     H30777   3.568   7.271   5.373  1.9584  0.3535  0.6363
  969MOL0     H30778   3.610   7.222   5.205  0.2161 -0.2088 -0.7760
  969MOL0     H30779   4.020   7.099   5.096 -1.6163  0.8020  0.5611
  969MOL0     H30780   4.112   6.914   4.951 -0.7491 -0.2217  2.2623
  969MOL0     H30781   4.040   6.707   4.564 -0.4481 -0.8961  0.9360
  969MOL0     H30782   3.879   6.773   4.617  0.0577  1.2314  1.4527
  969MOL0     H30783   3.995   6.850   4.394 -2.3295  1.8068 -0.2020
  969MOL0     H30784   3.951   6.981   4.502  0.7255  1.2435 -2.9139
  969MOL0     H30785   4.244   6.876   4.456  0.4735 -0.9882 -1.1843
  969MOL0     H30786   4.179   6.985   4.582 -3.0403  0.4595 -0.1743
  969MOL0     H30787   4.154   7.013   4.282  0.8148 -2.3258  1.2258
  969MOL0     H30788   4.126   7.147   4.407  2.0306 -0.2941  0.6735
  969MOL0     H30789   4.393   7.018   4.402 -2.7324 -0.8218  5.7347
  969MOL0     H30790   4.347   7.186   4.437  0.4078  0.7542 -0.8226
  969MOL0     H30791   4.346   7.062   4.155 -0.8698  0.2179  2.2212
  969MOL0     H30792   4.270   7.222   4.194  0.1813  1.0803  0.9951
  969MOL0     H30793   4.478   7.311   4.247 -3.1646  1.0330 -3.0956
  969MOL0     H30794   4.473   7.236   4.086  0.3233 -0.5902 -1.0955
  969MOL0     H30795   4.699   7.183   4.179  0.7858 -3.3990 -2.1595
  969MOL0     H30796   4.603   7.033   4.192 -1.2988 -0.7276  0.0275
  969MOL0     H30797   3.798   7.002   4.664 -2.9031 -0.0589  1.3834
  969MOL0     H30798   3.703   7.145   4.798  2.2814 -0.5667 -5.4743
  969MOL0     H30799   3.746   7.622   4.972  3.1046 -1.5590  0.1486
  969MOL0     H30800   3.661   7.791   5.131 -2.4543 -0.3057 -0.8004
  969MOL0     H30801   2.725   8.073   6.284  1.6487  2.7290 -0.9776
  969MOL0     H30802   2.715   7.995   6.537  1.6432  1.2926 -1.0915
  969MOL0     H30803   2.832   7.940   6.873  0.8529  1.1967  0.6532
  969MOL0     H30804   2.806   7.804   7.066 -1.6749  0.4897  0.3812
  969MOL0     H30805   2.799   7.879   7.518  0.5094  0.6163  0.2587
  969MOL0     H30806   2.774   8.032   7.440 -0.3194 -0.4292 -1.3011
  969MOL0     H30807   2.534   7.972   7.418 -1.3164 -0.4492  0.8616
  969MOL0     H30808   2.584   7.976   7.588  1.9199  2.2488 -0.0819
  969MOL0     H30809   2.621   7.735   7.579  2.3430  0.2050 -1.9185
  969MOL0     H30810   2.582   7.715   7.408  0.3889 -0.7731  0.5713
  969MOL0     H30811   2.343   7.773   7.446  2.1613 -2.0712 -1.7915
  969MOL0     H30812   2.382   7.837   7.609 -0.2913 -0.0727  1.0186
  969MOL0     H30813   2.327   7.449   7.700  1.4712 -0.0628  0.8911
  969MOL0     H30814   2.614   8.136   7.262 -1.5989 -0.5180 -1.3988
  969MOL0     H30815   2.589   8.247   7.048 -0.6548 -0.3352 -0.2290
  970MOL0     O30816   5.545   4.980   5.458  0.0429  1.4316  0.5923
  970MOL0     C30817   5.570   4.868   5.408 -0.2202 -1.1947  0.0930
  970MOL0     O30818   5.608   4.758   5.479 -0.2722  0.3374 -0.1494
  970MOL0     C30819   5.566   4.744   5.607  0.1814  0.2316  0.1847
  970MOL0     C30820   5.468   4.645   5.638  0.4121  0.2789  0.1414
  970MOL0     C30821   5.412   4.642   5.769 -0.2010 -0.4394  0.2827
  970MOL0     C30822   5.436   4.751   5.859  0.7199 -0.0836 -0.7040
  970MOL0     O30823   5.375   4.774   5.981 -0.5652 -0.2179  0.1790
  970MOL0     C30824   5.282   4.673   6.031  0.5042 -0.1667 -0.7045
  970MOL0     C30825   5.260   4.697   6.179  1.0141  0.0785 -0.2119
  970MOL0     C30826   5.176   4.825   6.202  0.6745 -0.2704 -0.3941
  970MOL0     C30827   5.055   4.809   6.295 -0.3893  0.5862 -0.3549
  970MOL0     C30828   4.954   4.924   6.301 -0.5052  0.6180  0.3962
  970MOL0     C30829   5.026   5.064   6.317  0.7380  0.0822 -0.4288
  970MOL0     C30830   4.914   5.177   6.312 -0.1133 -0.1105 -0.4031
  970MOL0     C30831   4.813   5.158   6.422  0.6115 -0.3150 -0.6139
  970MOL0     N30832   4.754   5.285   6.474 -0.2003 -0.0007  0.5220
  970MOL0     C30833   4.743   5.403   6.402 -0.1062 -0.5178  1.2163
  970MOL0     C30834   4.679   5.495   6.471 -0.2971  0.3674  0.2273
  970MOL0     C30835   4.660   5.642   6.443  0.5802  1.0650 -0.3232
  970MOL0     C30836   4.722   5.712   6.569  0.5233  0.1168  0.7546
  970MOL0     C30837   4.704   5.867   6.568 -0.7683  0.6550  0.4930
  970MOL0     C30838   4.768   5.913   6.694 -0.7926 -0.0905 -1.0186
  970MOL0     O30839   4.819   6.042   6.652 -0.2264  0.0283 -0.1344
  970MOL0     C30840   4.861   6.126   6.760 -0.0498 -0.8039  0.3887
  970MOL0     C30841   4.916   6.248   6.720 -0.1242  0.1098 -0.1644
  970MOL0     C30842   4.943   6.350   6.809 -0.5022  0.0055 -0.4863
  970MOL0     C30843   4.986   6.488   6.765 -0.2369 -0.7702 -0.5239
  970MOL0     C30844   4.932   6.330   6.951  0.8156 -0.2329  0.3652
  970MOL0     C30845   4.952   6.431   7.063 -0.3910 -0.0301 -0.4009
  970MOL0     O30846   5.011   6.368   7.170  0.5916  0.4407  0.0060
  970MOL0     C30847   5.056   6.430   7.284  0.6694  0.6861  0.5430
  970MOL0     C30848   5.181   6.385   7.338  0.7503 -1.0998 -0.1251
  970MOL0     C30849   5.230   6.419   7.467  0.5017  0.5022 -0.1431
  970MOL0     C30850   5.152   6.504   7.554 -1.2775 -0.6724  0.7739
  970MOL0     O30851   5.196   6.564   7.667 -0.0726 -0.1446  0.3106
  970MOL0     C30852   5.334   6.567   7.708 -0.2111  0.1586  0.0536
  970MOL0     C30853   5.364   6.641   7.846  0.6807  0.7123  0.7054
  970MOL0     C30854   5.469   6.747   7.828  0.9000  0.5245  0.0395
  970MOL0     C30855   5.490   6.825   7.964 -0.6896 -0.0210  0.1865
  970MOL0     C30856   5.594   6.950   7.948 -0.2408  0.0491  0.7733
  970MOL0     C30857   5.579   7.054   8.071 -0.1048 -0.3937  0.1664
  970MOL0     C30858   5.438   7.116   8.075  0.3119 -0.2761 -0.3678
  970MOL0     C30859   5.451   7.260   8.136  0.0854  0.3657 -0.1653
  970MOL0    Cl30860   5.295   7.340   8.155 -0.5671 -0.5442  0.4292
  970MOL0     C30861   5.026   6.547   7.507 -0.1545 -0.3212 -0.5574
  970MOL0     C30862   4.978   6.508   7.379 -0.0202  0.2288 -0.4666
  970MOL0     O30863   4.922   6.544   7.052 -0.7244 -1.1939 -0.1951
  970MOL0     C30864   4.896   6.199   6.990 -0.3259  0.7768 -0.6231
  970MOL0     C30865   4.854   6.111   6.902  0.9409  1.2830  0.0545
  970MOL0     N30866   4.617   5.426   6.580  0.1647 -0.1280  0.6751
  970MOL0     N30867   4.657   5.303   6.572  0.3313  0.0724 -0.1723
  970MOL0     C30868   5.531   4.836   5.826 -0.9568  0.1995  0.8169
  970MOL0     C30869   5.598   4.838   5.705  0.5383 -1.0670 -0.0852
  970MOL0     C30870   5.570   4.866   5.266  0.1993 -0.8786  0.6118
  970MOL0     C30871   5.580   4.743   5.198  0.4701 -0.8969 -0.0920
  970MOL0     C30872   5.580   4.748   5.056  0.4947  0.3431  0.4608
  970MOL0     C30873   5.580   4.870   4.985  0.5524 -0.0596 -0.1187
  970MOL0     O30874   5.595   4.850   4.847  0.7195  0.1466  1.5443
  970MOL0     C30875   5.574   4.949   4.744  0.0804 -0.1772  0.3349
  970MOL0     C30876   5.465   4.929   4.650  0.2016 -0.5003 -0.3460
  970MOL0     C30877   5.346   4.895   4.731 -0.2039  0.6550 -0.7033
  970MOL0     C30878   5.214   4.891   4.645  0.2193  0.4284 -0.2474
  970MOL0     C30879   5.227   4.859   4.500  0.1212  0.5720  0.4623
  970MOL0     C30880   5.252   4.824   4.382  1.0567 -0.5963 -0.4959
  970MOL0     C30881   5.559   4.989   5.057  0.8185  0.3334  0.2130
  970MOL0     C30882   5.553   4.992   5.195 -0.2504 -0.3395  1.2061
  970MOL0     H30883   5.444   4.577   5.557  4.8617 -1.0376 -0.3384
  970MOL0     H30884   5.335   4.567   5.778 -2.3177  0.6206 -5.1923
  970MOL0     H30885   5.187   4.686   5.979  0.4809 -0.3483 -0.7081
  970MOL0     H30886   5.294   4.568   6.005 -2.7316 -0.6452 -0.6185
  970MOL0     H30887   5.209   4.608   6.218 -2.4839  0.9076 -2.3713
  970MOL0     H30888   5.357   4.703   6.228 -0.0328 -1.3514  2.2317
  970MOL0     H30889   5.241   4.901   6.245 -2.9654  3.4235 -0.7507
  970MOL0     H30890   5.151   4.862   6.102  3.0522 -1.2510 -1.4248
  970MOL0     H30891   4.982   4.735   6.261 -1.0999  0.1266  1.9859
  970MOL0     H30892   5.105   4.787   6.390 -0.4572  0.0314 -0.4446
  970MOL0     H30893   4.896   4.922   6.208  1.4014 -1.3322 -0.8492
  970MOL0     H30894   4.898   4.908   6.393 -0.2507  2.2286  0.8621
  970MOL0     H30895   5.090   5.060   6.406  2.1846 -0.3848 -1.4357
  970MOL0     H30896   5.099   5.093   6.241  1.1345  1.4467  0.4326
  970MOL0     H30897   4.970   5.271   6.323  0.0425 -0.3866  1.5817
  970MOL0     H30898   4.865   5.181   6.215 -2.4405  0.3895  0.7241
  970MOL0     H30899   4.869   5.108   6.502 -0.7562 -0.1914  0.4534
  970MOL0     H30900   4.727   5.097   6.393 -0.3398  0.9825 -0.6484
  970MOL0     H30901   4.805   5.442   6.322  0.3113  4.4300  3.5348
  970MOL0     H30902   4.700   5.669   6.346 -0.4303  1.0043 -0.7716
  970MOL0     H30903   4.553   5.664   6.437  0.3227  0.5660  1.5976
  970MOL0     H30904   4.827   5.684   6.569  0.8204  0.6207 -3.4036
  970MOL0     H30905   4.664   5.674   6.653 -0.5103  1.5695  0.7366
  970MOL0     H30906   4.600   5.897   6.556 -0.4565  1.5691 -0.1075
  970MOL0     H30907   4.762   5.903   6.482  0.1943 -0.3836  0.6672
  970MOL0     H30908   4.854   5.854   6.728 -1.4458  0.7002  2.3283
  970MOL0     H30909   4.698   5.915   6.777 -1.5815  1.5539 -1.6662
  970MOL0     H30910   4.935   6.268   6.615 -1.0584  4.3033  0.2868
  970MOL0     H30911   4.999   6.476   6.657 -2.2625 -0.1376 -0.8725
  970MOL0     H30912   4.915   6.569   6.783 -0.8709 -1.1548 -1.2516
  970MOL0     H30913   5.084   6.523   6.801 -0.1698  1.6896 -2.7780
  970MOL0     H30914   5.249   6.335   7.270  0.5225 -0.7694 -0.6053
  970MOL0     H30915   5.320   6.372   7.505 -0.7377 -0.4762  1.7524
  970MOL0     H30916   5.371   6.465   7.721  2.9794  1.2369  0.2406
  970MOL0     H30917   5.383   6.609   7.620  1.0836 -1.1844  0.1109
  970MOL0     H30918   5.273   6.694   7.876  1.9788  1.9435  2.6641
  970MOL0     H30919   5.385   6.577   7.932  0.2578  2.0722  1.8478
  970MOL0     H30920   5.428   6.811   7.750 -2.3435 -0.7493  0.5204
  970MOL0     H30921   5.568   6.707   7.804  2.1559  3.6823 -0.5772
  970MOL0     H30922   5.390   6.863   7.990 -0.7320 -1.3662  2.1615
  970MOL0     H30923   5.527   6.765   8.047  5.0045  1.6596 -0.6799
  970MOL0     H30924   5.582   7.000   7.851 -2.6126  1.3287  1.6510
  970MOL0     H30925   5.698   6.917   7.951  0.9053  3.2822  0.8446
  970MOL0     H30926   5.598   6.996   8.162 -1.9700 -1.0127  0.2025
  970MOL0     H30927   5.666   7.120   8.081  0.1367 -0.8321  1.0944
  970MOL0     H30928   5.374   7.048   8.131 -0.9215  0.0988 -1.2909
  970MOL0     H30929   5.385   7.123   7.980 -0.7103 -2.7952 -0.0566
  970MOL0     H30930   5.516   7.333   8.086 -0.4530  0.1129 -1.2550
  970MOL0     H30931   5.488   7.259   8.239 -0.0438  2.3257 -0.0599
  970MOL0     H30932   4.952   6.612   7.554 -1.3403  0.9930 -3.9393
  970MOL0     H30933   4.879   6.543   7.352 -0.2622 -0.5727 -0.6638
  970MOL0     H30934   4.901   6.173   7.095  1.8770  0.3886 -0.7935
  970MOL0     H30935   4.801   6.024   6.938 -1.6184  1.3245 -3.2016
  970MOL0     H30936   5.547   4.921   5.892 -0.7680 -1.7194  3.4066
  970MOL0     H30937   5.670   4.919   5.694  0.2409 -0.6296  1.0392
  970MOL0     H30938   5.580   4.650   5.253 -1.6923 -0.4738  0.7247
  970MOL0     H30939   5.593   4.653   5.005  0.1879  2.1285 -3.2638
  970MOL0     H30940   5.561   5.049   4.787  1.8932 -0.0086  0.5586
  970MOL0     H30941   5.658   4.951   4.674  0.0407 -0.3149  0.2824
  970MOL0     H30942   5.470   4.847   4.578 -0.9645  2.1615 -3.7187
  970MOL0     H30943   5.448   5.024   4.598 -3.7972  1.0629  3.2223
  970MOL0     H30944   5.327   4.965   4.813 -4.1490 -0.3237 -0.5830
  970MOL0     H30945   5.355   4.798   4.780 -3.9234  0.2801 -0.4496
  970MOL0     H30946   5.159   4.984   4.662  3.2243  1.7773  3.7621
  970MOL0     H30947   5.148   4.815   4.688  0.6162  0.1153 -0.1817
  970MOL0     H30948   5.279   4.788   4.284  2.7218  2.3316 -1.2328
  970MOL0     H30949   5.541   5.087   5.014 -0.3798  0.7618  1.6176
  970MOL0     H30950   5.542   5.087   5.246 -0.8792 -1.0092  2.3650
  971MOL0     O30951   5.053   9.995   7.892 -0.3083  0.2195  0.2016
  971MOL0     C30952   5.120  10.079   7.827  0.6623 -1.4324  0.0376
  971MOL0     O30953   5.180  10.075   7.707 -0.5845 -0.1329 -1.2396
  971MOL0     C30954   5.203   9.957   7.649 -0.3236  0.1636  0.1674
  971MOL0     C30955   5.310   9.870   7.687  0.6880 -0.4262  0.3784
  971MOL0     C30956   5.305   9.740   7.631 -0.2721  0.9307 -0.6608
  971MOL0     C30957   5.204   9.698   7.550  0.3250 -1.3869  0.6292
  971MOL0     O30958   5.207   9.573   7.501 -0.0054  0.8677 -0.1022
  971MOL0     C30959   5.218   9.550   7.355 -0.5199 -1.2666  1.0599
  971MOL0     C30960   5.153   9.419   7.319 -0.8154 -0.1961 -0.2084
  971MOL0     C30961   4.999   9.435   7.307 -0.1105  0.1528 -1.1090
  971MOL0     C30962   4.922   9.312   7.277 -1.1035 -0.1308  1.1325
  971MOL0     C30963   4.961   9.248   7.132 -0.4028  0.6750  0.9471
  971MOL0     C30964   4.884   9.312   7.017 -0.1548 -0.8069 -0.3572
  971MOL0     C30965   4.868   9.209   6.898  0.1889 -0.5012  0.4514
  971MOL0     C30966   4.799   9.270   6.776 -0.0043 -0.2601  0.7797
  971MOL0     N30967   4.792   9.177   6.661  0.3505 -1.4374 -0.0015
  971MOL0     C30968   4.677   9.125   6.631 -0.1282  0.2922  1.3806
  971MOL0     C30969   4.711   9.051   6.521  0.0378  0.0251 -0.8086
  971MOL0     C30970   4.618   8.975   6.441 -0.4790 -0.4048  0.9291
  971MOL0     C30971   4.597   8.825   6.460  0.4764  0.1289  0.2790
  971MOL0     C30972   4.535   8.776   6.593  0.5456 -1.1127  0.4186
  971MOL0     C30973   4.393   8.825   6.612 -0.3587 -0.2893 -0.4646
  971MOL0     O30974   4.346   8.758   6.730 -0.0435  0.8118  0.3146
  971MOL0     C30975   4.351   8.827   6.850 -0.5169  0.8794 -0.5928
  971MOL0     C30976   4.426   8.938   6.878  0.4265  0.3562 -0.0686
  971MOL0     C30977   4.408   9.016   6.989  0.1215  0.4886 -0.0560
  971MOL0     C30978   4.499   9.135   7.008 -0.2677  0.2742  0.5334
  971MOL0     C30979   4.324   8.965   7.093 -0.3741 -0.4112 -0.3607
  971MOL0     C30980   4.294   9.051   7.227  0.3563  0.3806  0.5811
  971MOL0     O30981   4.229   8.977   7.325 -0.5889  0.0362  0.3334
  971MOL0     C30982   4.232   9.042   7.452 -0.3808  0.1044 -0.1148
  971MOL0     C30983   4.312   8.980   7.545 -0.3299 -0.6223 -0.3099
  971MOL0     C30984   4.311   9.018   7.682  1.0750  0.1767  0.2209
  971MOL0     C30985   4.219   9.117   7.726 -0.3047  0.0079  1.3654
  971MOL0     O30986   4.209   9.160   7.855 -0.4985 -0.4961  0.0340
  971MOL0     C30987   4.178   9.063   7.956  0.6294  0.2878 -1.0978
  971MOL0     C30988   4.153   9.137   8.093 -0.4051  0.0077  0.4140
  971MOL0     C30989   4.056   9.253   8.089 -0.1144 -0.5744 -0.2530
  971MOL0     C30990   3.912   9.206   8.038 -0.8400 -0.7670  0.0477
  971MOL0     C30991   3.845   9.334   7.997 -0.8160 -0.5828 -0.4796
  971MOL0     C30992   3.871   9.389   7.861 -0.3118 -0.6270  0.4493
  971MOL0     C30993   3.757   9.492   7.813 -0.0386  1.0188 -0.6579
  971MOL0     C30994   3.778   9.531   7.671 -0.3726  0.2281 -0.2310
  971MOL0    Cl30995   3.743   9.376   7.582 -0.1660  0.2058  0.0839
  971MOL0     C30996   4.138   9.179   7.634  1.0080 -0.0769 -0.2333
  971MOL0     C30997   4.144   9.137   7.498  0.7437  0.1943 -0.3156
  971MOL0     O30998   4.315   9.171   7.240  0.5461  0.0157 -0.0378
  971MOL0     C30999   4.252   8.852   7.069 -1.0045  0.2622 -0.0399
  971MOL0     C31000   4.267   8.779   6.951  1.0754  0.6659 -1.0065
  971MOL0     N31001   4.839   9.073   6.483 -0.9221 -0.2253  0.6203
  971MOL0     N31002   4.891   9.151   6.573 -0.2991  0.9528 -0.1690
  971MOL0     C31003   5.102   9.789   7.507 -0.2741  0.0029  0.0388
  971MOL0     C31004   5.114   9.918   7.550 -0.5095 -0.1707  0.5204
  971MOL0     C31005   5.124  10.216   7.883 -1.0645  0.1457  0.3166
  971MOL0     C31006   5.200  10.313   7.820  0.0434  0.3084 -0.0567
  971MOL0     C31007   5.215  10.439   7.876  0.5109 -0.6664 -0.1932
  971MOL0     C31008   5.152  10.475   8.001 -0.1263 -0.2919  0.8739
  971MOL0     O31009   5.159  10.601   8.046  0.3141  0.0811  0.2779
  971MOL0     C31010   5.284  10.628   8.111  0.5757  0.5619  0.0969
  971MOL0     C31011   5.288  10.576   8.259 -0.0143 -0.0811  0.0353
  971MOL0     C31012   5.185  10.646   8.346  0.6345  0.8467  0.0221
  971MOL0     C31013   5.155  10.578   8.483 -0.0117 -0.3474  0.2890
  971MOL0     C31014   5.233  10.649   8.595  0.6038  0.5340 -0.4129
  971MOL0     C31015   5.284  10.717   8.679 -0.3990 -0.6630 -0.1314
  971MOL0     C31016   5.076  10.378   8.062  1.1938 -1.3167 -0.0038
  971MOL0     C31017   5.063  10.255   8.004  0.1373 -0.7200 -0.4584
  971MOL0     H31018   5.388   9.894   7.759  3.7128 -2.3900 -1.9586
  971MOL0     H31019   5.371   9.660   7.663 -0.6258  1.7273  2.3008
  971MOL0     H31020   5.177   9.633   7.297  3.2225  0.6349  0.8370
  971MOL0     H31021   5.326   9.544   7.334 -0.2075 -1.1137  2.5129
  971MOL0     H31022   5.199   9.372   7.232 -0.3860 -0.0452 -0.0695
  971MOL0     H31023   5.175   9.350   7.402  4.0029  3.0281  1.7024
  971MOL0     H31024   4.962   9.472   7.403 -2.3724 -0.7598 -1.5794
  971MOL0     H31025   4.975   9.510   7.231  0.5605  0.9263 -0.5815
  971MOL0     H31026   4.968   9.245   7.350  1.4547  0.6446  0.3657
  971MOL0     H31027   4.814   9.304   7.289 -1.0390 -1.8254  0.8839
  971MOL0     H31028   5.068   9.264   7.114  0.1092 -3.1385 -0.3800
  971MOL0     H31029   4.937   9.141   7.129  2.1489  0.0691 -0.1895
  971MOL0     H31030   4.786   9.357   7.035 -0.0399  0.0028 -1.5516
  971MOL0     H31031   4.936   9.401   6.980 -2.4175  1.4289  1.4524
  971MOL0     H31032   4.965   9.174   6.861  0.1479  1.4733 -1.7284
  971MOL0     H31033   4.811   9.128   6.945 -3.0025  1.2643 -0.1198
  971MOL0     H31034   4.856   9.362   6.755  0.7097 -0.7070  0.7258
  971MOL0     H31035   4.702   9.311   6.804 -0.9617 -1.9007 -0.0340
  971MOL0     H31036   4.579   9.129   6.677 -2.5809  1.9402 -3.2621
  971MOL0     H31037   4.523   9.029   6.437  1.3056  3.0885  2.2859
  971MOL0     H31038   4.665   8.985   6.342 -1.9396 -0.8952  0.1460
  971MOL0     H31039   4.700   8.791   6.448  1.4789  2.6766  0.9414
  971MOL0     H31040   4.547   8.775   6.376  0.8090 -0.8526  0.6465
  971MOL0     H31041   4.585   8.804   6.686 -0.5987 -0.3846  0.8268
  971MOL0     H31042   4.534   8.666   6.589  0.7259 -1.1093  0.2398
  971MOL0     H31043   4.341   8.785   6.525  0.8986 -1.1949 -0.8308
  971MOL0     H31044   4.373   8.932   6.625  0.0406 -0.5360  3.5011
  971MOL0     H31045   4.503   8.973   6.809  2.3020  5.3155  3.8920
  971MOL0     H31046   4.552   9.141   7.103  0.1524  0.2441  0.3032
  971MOL0     H31047   4.577   9.146   6.932  2.2129  2.6424  3.1659
  971MOL0     H31048   4.435   9.223   7.008 -2.1378 -1.0110  1.3433
  971MOL0     H31049   4.373   8.892   7.528 -0.7201 -1.5965  2.7104
  971MOL0     H31050   4.371   8.968   7.757 -0.1571 -1.7584  0.0087
  971MOL0     H31051   4.094   8.999   7.927  1.2140 -2.0254  1.8258
  971MOL0     H31052   4.266   9.000   7.970 -0.1441 -0.6870 -0.4082
  971MOL0     H31053   4.106   9.060   8.155  0.4028 -0.9815 -0.1693
  971MOL0     H31054   4.248   9.171   8.137  0.2827 -1.4089  0.0712
  971MOL0     H31055   4.097   9.337   8.032  1.1916 -2.8896 -3.0149
  971MOL0     H31056   4.039   9.301   8.185  0.3402  0.3725 -0.6339
  971MOL0     H31057   3.928   9.141   7.952 -0.8624 -0.6054 -0.0790
  971MOL0     H31058   3.846   9.163   8.114  0.0425 -0.7953  0.8192
  971MOL0     H31059   3.868   9.411   8.071  3.5187 -0.6660 -1.4970
  971MOL0     H31060   3.737   9.315   7.996 -0.4636 -3.0214  0.5962
  971MOL0     H31061   3.964   9.446   7.863 -0.1981 -0.5830 -2.0503
  971MOL0     H31062   3.867   9.305   7.790  0.0251 -0.1253 -0.1747
  971MOL0     H31063   3.748   9.583   7.873  2.2931 -0.5398  2.3085
  971MOL0     H31064   3.662   9.440   7.804 -0.1615  0.8988  0.9999
  971MOL0     H31065   3.879   9.567   7.654  0.7671 -3.2049 -1.7652
  971MOL0     H31066   3.704   9.608   7.647 -2.7905 -1.5480  1.0426
  971MOL0     H31067   4.068   9.253   7.671  2.6500  1.7973 -0.7011
  971MOL0     H31068   4.070   9.184   7.434 -1.1572  1.6988  2.7197
  971MOL0     H31069   4.179   8.819   7.142 -0.9649  3.8222  1.8398
  971MOL0     H31070   4.202   8.693   6.940  4.0496 -1.6886 -1.4335
  971MOL0     H31071   5.018   9.757   7.447 -2.6714  3.6247  1.1483
  971MOL0     H31072   5.025   9.978   7.535  1.0084  2.3151  0.9034
  971MOL0     H31073   5.251  10.290   7.727  0.4081 -3.5519  0.9397
  971MOL0     H31074   5.273  10.516   7.827 -2.0031 -0.8879 -3.9385
  971MOL0     H31075   5.357  10.581   8.045 -0.3944  0.1022 -0.6714
  971MOL0     H31076   5.292  10.737   8.105  0.2687  0.7628  2.3649
  971MOL0     H31077   5.390  10.580   8.297  0.0260  0.7943 -0.1385
  971MOL0     H31078   5.273  10.468   8.261 -0.7241 -0.0205 -0.9283
  971MOL0     H31079   5.084  10.648   8.305 -0.0618 -1.0514  1.5173
  971MOL0     H31080   5.214  10.751   8.357  1.1189  0.5282  2.3781
  971MOL0     H31081   5.183  10.473   8.471  0.3977 -0.3443  1.1339
  971MOL0     H31082   5.050  10.574   8.515 -0.0628  2.5088  0.7921
  971MOL0     H31083   5.334  10.761   8.763 -3.0589  0.7539  0.8484
  971MOL0     H31084   5.032  10.403   8.159  3.0152  1.8030  0.1828
  971MOL0     H31085   5.003  10.183   8.058  0.2472 -0.2781  0.2761
  972MOL0     O31086  11.235   8.603   4.817 -0.7025  0.2478  0.0654
  972MOL0     C31087  11.189   8.616   4.700 -0.3432  0.6752 -0.3717
  972MOL0     O31088  11.260   8.572   4.591  0.1579 -0.3093 -0.0920
  972MOL0     C31089  11.385   8.519   4.595 -0.4259  0.1408  1.1819
  972MOL0     C31090  11.503   8.583   4.630  0.8502 -0.0811  0.1649
  972MOL0     C31091  11.614   8.497   4.642  0.6323  0.0849  0.4339
  972MOL0     C31092  11.611   8.364   4.603 -0.0934 -0.2689 -0.3679
  972MOL0     O31093  11.740   8.302   4.615 -0.4005 -0.4533 -0.6492
  972MOL0     C31094  11.761   8.180   4.544 -0.5584 -0.6245 -0.1536
  972MOL0     C31095  11.900   8.143   4.546  0.3854  0.1741  0.3502
  972MOL0     C31096  11.983   8.193   4.428 -0.1110  0.1329 -0.4536
  972MOL0     C31097  12.122   8.134   4.419 -0.6455  0.4520  0.0580
  972MOL0     C31098  12.156   8.106   4.268  0.0199 -0.1199 -0.3799
  972MOL0     C31099  12.056   8.011   4.186  0.6667 -0.0086 -0.4426
  972MOL0     C31100  12.115   7.922   4.075 -0.3601 -0.3056 -0.0170
  972MOL0     C31101  12.036   7.784   4.069  0.6681 -0.7820 -0.4310
  972MOL0     N31102  11.911   7.815   4.000  1.1119 -1.1248  0.2581
  972MOL0     C31103  11.899   7.791   3.863 -0.1379  0.9846 -0.2018
  972MOL0     C31104  11.762   7.805   3.847  0.0621 -0.0538  0.0935
  972MOL0     C31105  11.692   7.763   3.724  0.2597  0.0311 -1.0356
  972MOL0     C31106  11.624   7.887   3.649  0.7610 -0.2027  0.1942
  972MOL0     C31107  11.510   7.955   3.732  0.1367  0.3776 -0.0295
  972MOL0     C31108  11.454   8.086   3.689  0.5777  1.1118  0.3228
  972MOL0     O31109  11.354   8.131   3.793  0.3940 -0.4783 -0.2045
  972MOL0     C31110  11.270   8.238   3.752  0.6307 -0.0531  0.8861
  972MOL0     C31111  11.170   8.276   3.846  0.4481  0.7391 -1.0656
  972MOL0     C31112  11.083   8.378   3.815 -0.3503 -1.1453 -0.0927
  972MOL0     C31113  10.975   8.411   3.914 -0.1991  0.2265 -0.0160
  972MOL0     C31114  11.099   8.448   3.698  1.2507 -0.4907 -0.1071
  972MOL0     C31115  11.025   8.573   3.649 -0.0311  0.3160 -0.1513
  972MOL0     O31116  10.913   8.601   3.728  0.3749 -0.1583 -0.4161
  972MOL0     C31117  10.795   8.663   3.696 -0.1267  0.4874  0.2161
  972MOL0     C31118  10.778   8.740   3.582  0.4852  0.5038 -0.2327
  972MOL0     C31119  10.661   8.822   3.573  0.3955 -0.8312 -0.4643
  972MOL0     C31120  10.567   8.828   3.680 -0.3222 -0.4516 -0.3039
  972MOL0     O31121  10.464   8.923   3.672  0.5554  0.2344 -0.6904
  972MOL0     C31122  10.487   9.063   3.665 -0.6850 -0.6712 -0.7104
  972MOL0     C31123  10.450   9.126   3.532 -0.5090  1.0028  0.6779
  972MOL0     C31124  10.297   9.118   3.493 -0.2255 -0.9109 -0.0012
  972MOL0     C31125  10.216   9.225   3.560  0.4109 -0.0446 -0.5942
  972MOL0     C31126  10.211   9.366   3.505 -0.2953  0.5242 -0.7593
  972MOL0     C31127  10.186   9.370   3.352 -0.4904  0.9444 -0.2671
  972MOL0     C31128  10.149   9.507   3.303 -0.8964 -0.3244 -0.9743
  972MOL0     C31129  10.257   9.620   3.313 -0.2251 -1.5429  0.9508
  972MOL0    Cl31130  10.201   9.735   3.200 -0.4245  0.0426  0.3104
  972MOL0     C31131  10.580   8.730   3.786  0.8202  0.4378 -0.0455
  972MOL0     C31132  10.696   8.650   3.790  0.7789  0.1640  0.3262
  972MOL0     O31133  11.076   8.655   3.583 -0.3212 -0.1014  0.1364
  972MOL0     C31134  11.195   8.412   3.606  0.0186  0.0421 -0.4433
  972MOL0     C31135  11.282   8.307   3.633  0.6249  0.1394 -0.3350
  972MOL0     N31136  11.703   7.857   3.960 -0.5231  0.3919  0.5720
  972MOL0     N31137  11.787   7.849   4.053 -0.5968 -0.2466  0.9332
  972MOL0     C31138  11.498   8.312   4.547  0.1407 -0.8580 -0.1209
  972MOL0     C31139  11.379   8.390   4.541 -1.4242  0.0437  0.5913
  972MOL0     C31140  11.054   8.680   4.687 -0.3280  0.5366  1.0173
  972MOL0     C31141  11.026   8.737   4.560  0.6372 -0.6236 -0.3586
  972MOL0     C31142  10.902   8.788   4.530 -0.1539  0.1644 -0.4418
  972MOL0     C31143  10.791   8.764   4.606 -0.4816  0.8463 -0.8349
  972MOL0     O31144  10.670   8.796   4.557  0.6292  0.0576 -0.0882
  972MOL0     C31145  10.590   8.889   4.637 -1.2546  0.7402 -0.6597
  972MOL0     C31146  10.679   9.014   4.642  0.0816  0.8869 -1.0690
  972MOL0     C31147  10.611   9.136   4.696 -0.2691  0.5336  0.3122
  972MOL0     C31148  10.515   9.206   4.599 -0.2306  0.2861  0.1920
  972MOL0     C31149  10.424   9.297   4.668 -0.4668  1.3205 -0.8530
  972MOL0     C31150  10.342   9.359   4.730 -0.7731 -0.4412 -0.8194
  972MOL0     C31151  10.818   8.713   4.740 -0.1705  1.0280 -0.2695
  972MOL0     C31152  10.945   8.675   4.776  0.3594  1.4465 -0.0127
  972MOL0     H31153  11.497   8.688   4.654  2.4513 -0.5159  2.8761
  972MOL0     H31154  11.710   8.541   4.667  2.5484 -2.1862 -2.2971
  972MOL0     H31155  11.704   8.097   4.588  2.3105 -2.2707  0.7406
  972MOL0     H31156  11.720   8.190   4.443 -1.3732 -0.3105  0.1914
  972MOL0     H31157  11.935   8.176   4.644  1.9495  3.3871 -1.1714
  972MOL0     H31158  11.898   8.033   4.541 -1.4094  0.2340 -1.7170
  972MOL0     H31159  11.930   8.177   4.334 -1.2572  0.6985  0.0690
  972MOL0     H31160  11.995   8.302   4.423  0.6615  0.0143 -1.3807
  972MOL0     H31161  12.196   8.199   4.467 -0.7577 -1.3417  2.8427
  972MOL0     H31162  12.144   8.047   4.480  0.4830  0.4954 -0.2607
  972MOL0     H31163  12.175   8.203   4.221  0.0122  1.4614  2.6218
  972MOL0     H31164  12.257   8.064   4.263 -0.6080 -1.7247 -0.1975
  972MOL0     H31165  12.003   7.945   4.256 -0.8417  2.7958  1.2470
  972MOL0     H31166  11.989   8.074   4.128  0.0659 -2.0066 -2.0379
  972MOL0     H31167  12.122   7.966   3.976 -0.3190 -0.5538 -0.1252
  972MOL0     H31168  12.214   7.893   4.114 -0.6335 -0.7833  0.3426
  972MOL0     H31169  12.012   7.763   4.173 -6.2847  0.6338 -1.2626
  972MOL0     H31170  12.093   7.702   4.023  0.1973 -0.2690 -2.0165
  972MOL0     H31171  11.966   7.731   3.802 -0.0452 -2.2101  2.7007
  972MOL0     H31172  11.763   7.707   3.662 -1.1340 -1.4292 -1.3790
  972MOL0     H31173  11.612   7.710   3.776  0.9387 -0.0670 -0.0674
  972MOL0     H31174  11.588   7.854   3.551 -3.4266  3.6940  0.0946
  972MOL0     H31175  11.700   7.965   3.646 -0.8889  1.4678  0.4774
  972MOL0     H31176  11.562   7.983   3.825  2.0622  1.9789 -1.4910
  972MOL0     H31177  11.429   7.882   3.744  1.8576 -1.9243 -1.6029
  972MOL0     H31178  11.412   8.088   3.588 -2.6274  3.0330  1.5404
  972MOL0     H31179  11.540   8.154   3.691  1.0961  0.4553  0.6161
  972MOL0     H31180  11.156   8.218   3.937  0.2814  2.3411 -0.0478
  972MOL0     H31181  10.971   8.333   3.991  1.3151  0.7457  0.6349
  972MOL0     H31182  10.983   8.510   3.959 -2.3727  1.6981 -2.6332
  972MOL0     H31183  10.880   8.411   3.860  1.4500  1.3243 -3.1858
  972MOL0     H31184  10.836   8.737   3.491 -1.2216  3.2760 -1.5418
  972MOL0     H31185  10.660   8.899   3.496  3.3973 -0.0384  0.1750
  972MOL0     H31186  10.443   9.117   3.749 -0.8032 -0.4179 -0.9318
  972MOL0     H31187  10.594   9.080   3.677 -0.7075 -1.7214  1.4566
  972MOL0     H31188  10.493   9.227   3.530  1.1133  0.3326 -1.8211
  972MOL0     H31189  10.507   9.082   3.450  0.8812  1.3480  1.4253
  972MOL0     H31190  10.251   9.024   3.525  0.0113 -1.3991 -1.0506
  972MOL0     H31191  10.291   9.133   3.385  2.9880  4.7616  0.1902
  972MOL0     H31192  10.111   9.193   3.562  0.3766  0.0693  1.3366
  972MOL0     H31193  10.251   9.228   3.664 -0.3981 -3.6496 -0.0817
  972MOL0     H31194  10.309   9.411   3.526  0.9960 -1.5951 -1.9067
  972MOL0     H31195  10.132   9.410   3.567 -1.0821 -0.1267 -1.2772
  972MOL0     H31196  10.271   9.350   3.286  0.3858 -0.2840  1.1671
  972MOL0     H31197  10.106   9.302   3.324  0.3139  1.7531 -5.5500
  972MOL0     H31198  10.070   9.548   3.367 -1.6833 -1.3571 -1.2526
  972MOL0     H31199  10.101   9.503   3.205 -0.6137  0.3241 -1.1477
  972MOL0     H31200  10.356   9.579   3.292 -0.8672 -2.1693 -1.0985
  972MOL0     H31201  10.260   9.670   3.410 -0.4413 -0.3500  0.3648
  972MOL0     H31202  10.512   8.717   3.870  0.9977 -1.5816 -0.1617
  972MOL0     H31203  10.706   8.587   3.877 -0.8724 -1.8523 -0.8491
  972MOL0     H31204  11.223   8.459   3.512  3.2834  0.1240  0.4387
  972MOL0     H31205  11.361   8.280   3.563 -1.6711 -2.3930 -2.1748
  972MOL0     H31206  11.497   8.210   4.511 -2.9261 -0.0363 -2.8210
  972MOL0     H31207  11.283   8.352   4.508 -1.4662  0.3974  0.3010
  972MOL0     H31208  11.096   8.751   4.478 -2.4327 -2.3711 -3.5626
  972MOL0     H31209  10.869   8.824   4.433  1.3192 -0.8027 -1.3256
  972MOL0     H31210  10.498   8.922   4.588 -1.9413 -0.3589 -0.1387
  972MOL0     H31211  10.568   8.841   4.732  0.8297  1.0463  0.0444
  972MOL0     H31212  10.717   9.052   4.547  0.9564  2.5064 -0.1212
  972MOL0     H31213  10.757   9.003   4.719  0.6520  0.2285 -1.7239
  972MOL0     H31214  10.676   9.217   4.729 -1.6535  1.8463 -0.0566
  972MOL0     H31215  10.553   9.096   4.779 -0.2500  1.5187  0.8149
  972MOL0     H31216  10.457   9.130   4.546  0.3641 -1.3030  1.7549
  972MOL0     H31217  10.572   9.268   4.529 -0.0295  1.4522  1.3468
  972MOL0     H31218  10.261   9.415   4.772 -2.3681 -3.8322  1.1072
  972MOL0     H31219  10.737   8.703   4.812  0.4487  0.5823  0.3763
  972MOL0     H31220  10.957   8.647   4.880 -1.3479 -0.5418 -0.2950
  973MOL0     O31221   7.228   8.654   6.549 -0.4600 -0.1578 -0.4260
  973MOL0     C31222   7.170   8.563   6.493 -0.0197 -0.5814 -0.3855
  973MOL0     O31223   7.047   8.575   6.434  0.2554 -1.3537 -0.1694
  973MOL0     C31224   6.997   8.708   6.422 -0.2832  0.6009  0.2465
  973MOL0     C31225   6.893   8.749   6.509  0.0295 -0.2975  0.7967
  973MOL0     C31226   6.835   8.874   6.500 -1.0199  0.0800 -0.5898
  973MOL0     C31227   6.876   8.960   6.403 -0.0429  0.5381 -0.0159
  973MOL0     O31228   6.783   9.058   6.377  0.1463 -0.0203 -0.0701
  973MOL0     C31229   6.838   9.170   6.311 -0.3227  0.3993  0.2167
  973MOL0     C31230   6.738   9.283   6.316  0.1468  0.2758  0.1000
  973MOL0     C31231   6.620   9.276   6.213  1.1525 -0.0228 -0.2796
  973MOL0     C31232   6.521   9.160   6.245 -0.4481 -0.1383 -0.3764
  973MOL0     C31233   6.422   9.132   6.134  0.4776 -0.0678  0.4682
  973MOL0     C31234   6.339   9.262   6.091  0.7626  0.8992 -0.2829
  973MOL0     C31235   6.221   9.215   6.004 -0.7125  0.1267  0.2860
  973MOL0     C31236   6.145   9.344   5.961 -0.8659 -1.6169  0.0573
  973MOL0     N31237   6.075   9.420   6.065  0.2536 -0.0838 -0.4958
  973MOL0     C31238   6.057   9.560   6.067 -0.2652 -0.1732 -0.2724
  973MOL0     C31239   5.944   9.578   6.138  0.6052  0.0415 -0.1118
  973MOL0     C31240   5.868   9.708   6.177  0.5397  0.4541 -1.2078
  973MOL0     C31241   5.845   9.812   6.075  0.1805  0.1998  0.6658
  973MOL0     C31242   5.883   9.954   6.125 -0.0770  0.4009  0.9427
  973MOL0     C31243   5.808   9.998   6.245 -0.3921 -0.1571  0.4376
  973MOL0     O31244   5.686  10.065   6.199  0.1391  0.2332  0.2431
  973MOL0     C31245   5.572  10.021   6.241  0.9654  0.5392 -0.3444
  973MOL0     C31246   5.528  10.080   6.361 -0.2969  0.0663 -1.8620
  973MOL0     C31247   5.402  10.061   6.425  0.4576 -0.4175  0.5420
  973MOL0     C31248   5.372  10.126   6.559 -0.7525 -0.5040 -0.4806
  973MOL0     C31249   5.319   9.969   6.354 -0.6575 -0.1949 -0.5007
  973MOL0     C31250   5.179   9.950   6.390 -0.0116  0.7197  0.2027
  973MOL0     O31251   5.118  10.058   6.439  0.4024 -0.3932 -0.7297
  973MOL0     C31252   4.991  10.050   6.492  0.3705  0.7679 -0.3868
  973MOL0     C31253   4.882  10.003   6.414 -0.0233  0.3080 -0.0253
  973MOL0     C31254   4.754   9.975   6.473 -0.1944  0.5283 -0.0012
  973MOL0     C31255   4.739   9.993   6.611  0.2475 -0.0392  0.3104
  973MOL0     O31256   4.617   9.957   6.668 -0.5817 -0.2454  0.1971
  973MOL0     C31257   4.593   9.821   6.657 -0.4887  0.3978 -0.3607
  973MOL0     C31258   4.445   9.798   6.657  0.2794 -0.7609  0.1506
  973MOL0     C31259   4.377   9.855   6.541  0.3795  0.7865 -0.4115
  973MOL0     C31260   4.404   9.775   6.406 -1.0945 -0.0665 -0.0548
  973MOL0     C31261   4.282   9.709   6.343 -0.7494  0.3721 -0.9641
  973MOL0     C31262   4.217   9.613   6.450  0.5542  0.8269  0.1430
  973MOL0     C31263   4.109   9.528   6.386 -0.1267  0.8513  0.6400
  973MOL0     C31264   4.162   9.410   6.303  0.4452 -0.1339 -0.6071
  973MOL0    Cl31265   4.052   9.271   6.321 -0.2102 -0.4192 -0.0536
  973MOL0     C31266   4.838  10.061   6.684  0.1064  0.1239  0.0412
  973MOL0     C31267   4.966  10.083   6.628  1.1340  0.3493 -0.4157
  973MOL0     O31268   5.120   9.851   6.353  0.1943 -0.2159 -0.2505
  973MOL0     C31269   5.369   9.903   6.236 -0.5374 -0.6044 -1.0686
  973MOL0     C31270   5.494   9.925   6.182 -0.1867 -0.2774  0.1055
  973MOL0     N31271   5.889   9.459   6.171 -0.3929  1.0248  0.2632
  973MOL0     N31272   5.970   9.365   6.131 -0.0624  0.3999 -1.2788
  973MOL0     C31273   6.973   8.921   6.306  0.0142  0.2270 -0.3274
  973MOL0     C31274   7.035   8.790   6.313  0.3117  0.2503  0.3204
  973MOL0     C31275   7.232   8.426   6.499 -0.3844 -0.2940 -0.1542
  973MOL0     C31276   7.340   8.401   6.586  0.0168  0.3281 -0.9998
  973MOL0     C31277   7.392   8.270   6.595 -0.6751  0.5699  0.8353
  973MOL0     C31278   7.328   8.161   6.532 -0.0332 -0.7483 -0.3049
  973MOL0     O31279   7.374   8.031   6.533  0.0110 -0.1282 -0.3939
  973MOL0     C31280   7.352   7.961   6.654 -1.1399 -0.1760  0.0384
  973MOL0     C31281   7.491   7.915   6.708 -0.4238  0.5569  0.3742
  973MOL0     C31282   7.502   7.927   6.862 -0.1671 -0.0272 -0.9727
  973MOL0     C31283   7.403   7.837   6.944  0.7632  0.2458  0.0347
  973MOL0     C31284   7.402   7.693   6.890 -0.9131 -0.6165 -1.0949
  973MOL0     C31285   7.429   7.580   6.849  0.5521 -0.1547 -0.5996
  973MOL0     C31286   7.223   8.197   6.436 -0.7764  0.8482 -0.4803
  973MOL0     C31287   7.182   8.324   6.418 -0.2275 -0.2698 -0.2187
  973MOL0     H31288   6.860   8.679   6.585  0.6861 -0.8233  0.6093
  973MOL0     H31289   6.747   8.896   6.559  1.2740  1.4667  2.6223
  973MOL0     H31290   6.924   9.213   6.363  0.7125  1.2978 -2.1340
  973MOL0     H31291   6.880   9.146   6.214  3.2579 -1.4280  2.0339
  973MOL0     H31292   6.691   9.279   6.415 -1.9649  5.0734 -0.4408
  973MOL0     H31293   6.794   9.376   6.310  0.8975 -0.1889 -0.1068
  973MOL0     H31294   6.574   9.375   6.214 -0.7653 -0.8314  2.1571
  973MOL0     H31295   6.663   9.266   6.113 -0.2212  0.8844 -0.9867
  973MOL0     H31296   6.590   9.079   6.271  1.5705  1.7322  0.4798
  973MOL0     H31297   6.461   9.178   6.334 -4.8847 -0.2693 -3.0359
  973MOL0     H31298   6.473   9.087   6.048  1.0807 -0.8613  1.2242
  973MOL0     H31299   6.344   9.067   6.176  2.1468 -1.8840  0.9362
  973MOL0     H31300   6.299   9.323   6.172  1.4556 -0.8605  1.4657
  973MOL0     H31301   6.412   9.323   6.036  1.0405 -0.1428 -1.0938
  973MOL0     H31302   6.248   9.148   5.922 -1.1014 -1.2003  1.2163
  973MOL0     H31303   6.155   9.153   6.065  1.4780 -2.5450  0.1323
  973MOL0     H31304   6.068   9.304   5.893 -0.2397 -4.6757  0.9902
  973MOL0     H31305   6.210   9.408   5.902 -1.5077 -1.6012 -0.6650
  973MOL0     H31306   6.123   9.640   6.036 -0.3549 -0.6358 -1.7656
  973MOL0     H31307   5.776   9.684   6.232 -0.9256  1.3774 -3.1224
  973MOL0     H31308   5.932   9.747   6.256  0.4335 -0.8556 -0.4299
  973MOL0     H31309   5.736   9.810   6.061  0.4357 -2.2270 -1.7536
  973MOL0     H31310   5.904   9.792   5.986  2.0106  0.0750  1.8509
  973MOL0     H31311   5.868  10.027   6.045  1.3973 -2.1177 -1.8545
  973MOL0     H31312   5.990   9.947   6.146  0.0058 -0.0504  0.4104
  973MOL0     H31313   5.870  10.076   6.292 -2.6063  1.5403  0.6997
  973MOL0     H31314   5.806   9.918   6.319  0.2659  0.5022  1.1958
  973MOL0     H31315   5.598  10.141   6.417 -1.0420 -0.8622  0.1815
  973MOL0     H31316   5.460  10.099   6.619 -1.0205 -0.5071 -0.0821
  973MOL0     H31317   5.363  10.234   6.544 -0.9228 -0.5027 -0.3704
  973MOL0     H31318   5.277  10.103   6.609 -0.4018  3.1834  2.3755
  973MOL0     H31319   4.900   9.986   6.308  0.6388  0.4517  0.0638
  973MOL0     H31320   4.676   9.934   6.409 -0.0437  2.5370 -1.5783
  973MOL0     H31321   4.649   9.773   6.576 -1.4077 -0.8962 -0.2645
  973MOL0     H31322   4.618   9.776   6.753  1.2863 -1.2482 -1.5209
  973MOL0     H31323   4.417   9.692   6.660  1.3291 -1.0791 -0.5745
  973MOL0     H31324   4.416   9.853   6.747  0.9438 -2.5550  1.5182
  973MOL0     H31325   4.430   9.949   6.524 -0.5260  1.4562  0.3707
  973MOL0     H31326   4.275   9.895   6.548 -0.4465 -1.3965  1.2605
  973MOL0     H31327   4.454   9.837   6.331  4.1592 -1.7775  1.5784
  973MOL0     H31328   4.483   9.700   6.415 -2.8746 -2.1377 -0.8043
  973MOL0     H31329   4.311   9.641   6.262  0.5537 -3.8533  2.6498
  973MOL0     H31330   4.206   9.778   6.305 -0.2424  0.4093 -1.9640
  973MOL0     H31331   4.288   9.555   6.510  0.3290  0.7131  0.3009
  973MOL0     H31332   4.172   9.660   6.537  2.3655 -1.7452  2.6564
  973MOL0     H31333   4.052   9.587   6.313  1.7124  0.7595 -0.9762
  973MOL0     H31334   4.029   9.488   6.448 -0.3218 -2.4263 -1.5217
  973MOL0     H31335   4.259   9.371   6.334 -1.0009 -1.7003  2.3840
  973MOL0     H31336   4.177   9.431   6.196  2.5953 -2.8381 -0.9312
  973MOL0     H31337   4.821  10.101   6.784  0.8215 -1.1546  0.7000
  973MOL0     H31338   5.041  10.130   6.690 -1.7113  3.8813  0.7351
  973MOL0     H31339   5.306   9.845   6.170  0.5341 -0.4849 -2.2435
  973MOL0     H31340   5.543   9.876   6.098 -1.8089 -2.2945  0.2530
  973MOL0     H31341   6.994   8.980   6.217  1.3034  1.2117  0.5917
  973MOL0     H31342   7.108   8.746   6.245  0.2021 -0.8777  0.9097
  973MOL0     H31343   7.399   8.482   6.627  0.9711 -1.6677  1.9355
  973MOL0     H31344   7.480   8.238   6.648 -0.9177  0.1683  0.9991
  973MOL0     H31345   7.306   8.020   6.734 -1.5931 -1.8737  1.0923
  973MOL0     H31346   7.295   7.874   6.621 -0.3045 -0.2620 -1.2477
  973MOL0     H31347   7.565   7.983   6.665  2.2119 -0.7631  2.5220
  973MOL0     H31348   7.520   7.816   6.671  0.5325  0.4940  1.2260
  973MOL0     H31349   7.508   8.031   6.897  1.1485 -0.2973 -0.3093
  973MOL0     H31350   7.603   7.886   6.877  0.2748  1.1443 -0.6076
  973MOL0     H31351   7.308   7.888   6.929  0.6886  1.5174  3.7623
  973MOL0     H31352   7.431   7.844   7.050  1.0541  2.9226 -0.1574
  973MOL0     H31353   7.433   7.482   6.807  1.2937 -0.4649  0.1708
  973MOL0     H31354   7.180   8.105   6.398  0.8204  0.1601 -0.6961
  973MOL0     H31355   7.100   8.338   6.349  1.4323  0.4908 -2.1685
  974MOL0     O31356   6.874   6.057   1.601 -0.7209 -0.4698  0.1207
  974MOL0     C31357   6.947   6.004   1.512  0.8542  0.2045  0.1334
  974MOL0     O31358   6.892   5.909   1.431 -0.0763  0.4654 -0.3669
  974MOL0     C31359   6.766   5.872   1.448  0.3927 -0.1452  0.4993
  974MOL0     C31360   6.717   5.776   1.534  0.2466 -0.0396  0.1869
  974MOL0     C31361   6.584   5.735   1.542  0.4937 -0.1188 -0.0094
  974MOL0     C31362   6.497   5.808   1.461  1.0998 -1.3250 -0.4490
  974MOL0     O31363   6.363   5.797   1.488 -0.0303  0.0105  0.0780
  974MOL0     C31364   6.326   5.796   1.629 -0.4038 -0.2325  0.4126
  974MOL0     C31365   6.184   5.848   1.637 -0.1214 -0.2126  0.1884
  974MOL0     C31366   6.166   5.977   1.563 -1.0705  0.1104 -0.3843
  974MOL0     C31367   6.050   6.064   1.634 -0.6388  0.0506  0.6482
  974MOL0     C31368   6.051   6.202   1.568 -0.1740 -0.2423  0.6370
  974MOL0     C31369   5.986   6.201   1.428 -0.2189 -0.2848 -0.1969
  974MOL0     C31370   5.936   6.335   1.380 -1.0630 -0.7077 -0.1982
  974MOL0     C31371   5.872   6.314   1.240  0.1967 -0.4483  0.2593
  974MOL0     N31372   5.794   6.430   1.204  0.3605 -0.1694 -0.0985
  974MOL0     C31373   5.832   6.528   1.123  0.8001  0.1919 -0.6047
  974MOL0     C31374   5.730   6.612   1.127  0.4893 -0.4296 -0.3592
  974MOL0     C31375   5.728   6.745   1.055  0.3445 -0.1939  0.9499
  974MOL0     C31376   5.681   6.725   0.906 -0.7146  1.4386 -0.3871
  974MOL0     C31377   5.671   6.847   0.814 -0.1749  0.9550 -0.8274
  974MOL0     C31378   5.619   6.970   0.894  0.5368  0.5136  0.2879
  974MOL0     O31379   5.527   7.038   0.802  0.2581 -0.2760 -0.8621
  974MOL0     C31380   5.448   7.139   0.850  0.7763  0.0961 -0.6801
  974MOL0     C31381   5.343   7.179   0.767 -0.1197  0.6641  1.0330
  974MOL0     C31382   5.247   7.280   0.801 -0.3842  0.4065 -0.0042
  974MOL0     C31383   5.130   7.303   0.698 -1.2203 -0.4956  1.3531
  974MOL0     C31384   5.266   7.341   0.925 -0.1802  0.1165  0.4600
  974MOL0     C31385   5.193   7.467   0.960  1.1481  0.6702 -0.3295
  974MOL0     O31386   5.188   7.489   1.089 -0.2732 -0.1094 -0.2642
  974MOL0     C31387   5.154   7.608   1.147  0.5770 -0.9493  0.8525
  974MOL0     C31388   5.105   7.604   1.275 -1.0019 -0.6123 -0.9120
  974MOL0     C31389   5.078   7.719   1.347 -0.0735 -0.4919 -0.2591
  974MOL0     C31390   5.083   7.850   1.285 -1.4822  0.2075  0.5155
  974MOL0     O31391   5.052   7.966   1.347  0.6110  0.2344  0.9800
  974MOL0     C31392   4.992   7.967   1.483  0.3841 -0.6500  0.6759
  974MOL0     C31393   4.958   8.115   1.515 -0.1689 -0.4572 -0.1872
  974MOL0     C31394   4.937   8.155   1.670  0.8472  0.7774  0.7419
  974MOL0     C31395   4.862   8.046   1.747  0.2743 -0.2269 -0.5052
  974MOL0     C31396   4.874   8.085   1.896  0.6013 -0.7173 -0.5104
  974MOL0     C31397   4.802   8.213   1.936 -1.1166  1.2128 -0.4771
  974MOL0     C31398   4.789   8.227   2.087  0.8433  0.0057 -0.0149
  974MOL0     C31399   4.698   8.343   2.123 -0.2957  0.0364 -1.1146
  974MOL0    Cl31400   4.530   8.288   2.142 -0.1344  0.1659  0.2425
  974MOL0     C31401   5.111   7.857   1.146 -0.7656  0.0755 -0.3301
  974MOL0     C31402   5.157   7.740   1.084 -1.1160  0.0700 -0.3624
  974MOL0     O31403   5.131   7.530   0.879 -0.3228  0.0011 -0.3438
  974MOL0     C31404   5.370   7.294   1.014  0.5762  0.1803 -0.2822
  974MOL0     C31405   5.457   7.199   0.979  0.5453  0.6257  0.4617
  974MOL0     N31406   5.636   6.567   1.216 -0.3431  0.1736 -0.6243
  974MOL0     N31407   5.668   6.448   1.249  0.5258 -0.0084  0.0395
  974MOL0     C31408   6.531   5.915   1.378  0.0568 -0.0304 -0.6319
  974MOL0     C31409   6.669   5.948   1.370 -0.4236 -0.5603  0.0163
  974MOL0     C31410   7.091   6.029   1.481  0.0461 -0.8027 -0.3240
  974MOL0     C31411   7.139   5.992   1.356 -0.0369 -1.4028 -0.2983
  974MOL0     C31412   7.265   6.027   1.306  0.3648 -0.7351  1.0540
  974MOL0     C31413   7.347   6.102   1.393 -0.9841  1.1977 -0.3225
  974MOL0     O31414   7.481   6.131   1.373 -0.5812  0.5840 -0.1974
  974MOL0     C31415   7.580   6.047   1.303 -0.4719  1.3430 -0.7661
  974MOL0     C31416   7.658   6.119   1.178 -0.2103  0.1194 -0.2007
  974MOL0     C31417   7.768   6.039   1.114  0.5983  0.7884  0.2911
  974MOL0     C31418   7.891   6.041   1.213 -0.0649 -0.6552 -0.7428
  974MOL0     C31419   8.014   6.008   1.133  0.6409  0.5307 -0.1054
  974MOL0     C31420   8.112   5.983   1.063  0.3101 -0.6225  1.0396
  974MOL0     C31421   7.287   6.150   1.514 -0.7900  1.1990 -0.8896
  974MOL0     C31422   7.163   6.113   1.562 -0.8410  0.2165 -0.1237
  974MOL0     H31423   6.793   5.722   1.590  1.6506  2.3817  0.7685
  974MOL0     H31424   6.563   5.649   1.605  1.6474  0.0418  0.6358
  974MOL0     H31425   6.351   5.710   1.691  0.0283  0.2010  0.8392
  974MOL0     H31426   6.379   5.878   1.678 -2.1169  2.4625 -1.8921
  974MOL0     H31427   6.120   5.768   1.599 -0.9958  0.0772  1.0188
  974MOL0     H31428   6.165   5.863   1.743 -0.7854 -2.6773  0.4969
  974MOL0     H31429   6.258   6.037   1.561 -3.1643  3.5589 -1.6068
  974MOL0     H31430   6.135   5.955   1.461 -1.9164  2.3125 -0.6504
  974MOL0     H31431   5.959   6.005   1.619 -0.7111  0.5596 -1.1818
  974MOL0     H31432   6.067   6.072   1.742 -2.6936  1.9826  0.8921
  974MOL0     H31433   6.000   6.271   1.636 -0.2963  1.3565 -1.0327
  974MOL0     H31434   6.153   6.242   1.561 -0.6288  0.6829 -0.9981
  974MOL0     H31435   6.055   6.149   1.361 -3.5147 -1.3684 -3.0364
  974MOL0     H31436   5.900   6.134   1.434 -1.8565  1.6237 -1.2852
  974MOL0     H31437   5.863   6.389   1.441 -2.7641 -0.9062 -1.9665
  974MOL0     H31438   6.019   6.406   1.390 -0.1461 -1.7743  0.0345
  974MOL0     H31439   5.801   6.232   1.243  2.0002 -2.0835  0.0618
  974MOL0     H31440   5.952   6.286   1.171  0.6734  2.7682 -0.6875
  974MOL0     H31441   5.923   6.527   1.065  1.4760 -3.2449  0.2824
  974MOL0     H31442   5.662   6.802   1.121 -1.9978 -1.0605 -0.5456
  974MOL0     H31443   5.829   6.788   1.053  0.3404  0.2923  4.5703
  974MOL0     H31444   5.586   6.671   0.908  0.3475 -0.5014  0.0271
  974MOL0     H31445   5.751   6.652   0.864  3.0433  3.2942  2.1021
  974MOL0     H31446   5.603   6.818   0.734  1.0869 -4.8565 -0.2703
  974MOL0     H31447   5.777   6.864   0.792  1.5397  1.9774  5.7663
  974MOL0     H31448   5.707   7.025   0.929  0.3084  0.8963  0.2637
  974MOL0     H31449   5.575   6.934   0.988 -0.4726  2.2532  0.5245
  974MOL0     H31450   5.337   7.125   0.673 -2.7595  0.8114  1.0610
  974MOL0     H31451   5.117   7.209   0.644 -0.9680  0.2744 -0.1157
  974MOL0     H31452   5.033   7.325   0.744 -2.2213  2.0264 -1.6120
  974MOL0     H31453   5.161   7.383   0.630  0.4305 -0.6393  1.9050
  974MOL0     H31454   5.066   7.507   1.306 -2.6842  0.4051  0.3127
  974MOL0     H31455   5.038   7.708   1.447  1.2799  1.9124  0.6282
  974MOL0     H31456   4.907   7.902   1.501  0.3424 -0.3093  1.7467
  974MOL0     H31457   5.074   7.942   1.550  0.3501 -0.7065  0.6962
  974MOL0     H31458   5.039   8.179   1.480  1.3712 -0.6425  2.7219
  974MOL0     H31459   4.866   8.137   1.461 -0.9048 -0.6838  0.9371
  974MOL0     H31460   4.882   8.250   1.668  3.3659  2.3171 -0.3219
  974MOL0     H31461   5.034   8.170   1.718  1.2511 -1.1700  0.5990
  974MOL0     H31462   4.762   8.041   1.705 -0.3005 -0.1354  0.8025
  974MOL0     H31463   4.909   7.948   1.742 -2.7895 -1.8560  0.3323
  974MOL0     H31464   4.976   8.097   1.935 -0.1003  1.3637  0.8992
  974MOL0     H31465   4.826   8.019   1.968  2.1841 -0.0478  1.2496
  974MOL0     H31466   4.867   8.297   1.908  1.8006 -0.1740  1.6174
  974MOL0     H31467   4.704   8.212   1.887 -1.5999 -2.0641  0.2980
  974MOL0     H31468   4.888   8.231   2.132  2.0015 -1.9187 -2.1763
  974MOL0     H31469   4.741   8.143   2.139 -1.5550  1.9644  1.1155
  974MOL0     H31470   4.697   8.416   2.041 -1.2834  3.2826  1.5633
  974MOL0     H31471   4.732   8.383   2.219 -2.4412  0.7876 -0.6183
  974MOL0     H31472   5.091   7.953   1.099 -0.8259  1.0121  1.5206
  974MOL0     H31473   5.209   7.751   0.990  1.4350  1.0455  1.0624
  974MOL0     H31474   5.378   7.337   1.113  1.3132  1.2742 -0.8053
  974MOL0     H31475   5.536   7.186   1.052 -0.0202 -3.7002  0.5787
  974MOL0     H31476   6.453   5.969   1.325 -0.6296 -3.0258 -2.9692
  974MOL0     H31477   6.716   6.024   1.309  3.4172 -3.5849 -1.2194
  974MOL0     H31478   7.083   5.942   1.278  0.2201 -2.2972  0.0804
  974MOL0     H31479   7.296   5.992   1.208 -0.3267  1.2191  0.1043
  974MOL0     H31480   7.658   6.020   1.375 -2.5499 -1.7013  0.5587
  974MOL0     H31481   7.534   5.962   1.251 -0.0640  3.3398 -4.7051
  974MOL0     H31482   7.694   6.218   1.208  2.5195 -1.4648  2.2806
  974MOL0     H31483   7.576   6.135   1.107 -1.4330  1.4157  1.4265
  974MOL0     H31484   7.799   6.096   1.026  1.7891  3.8793  2.5132
  974MOL0     H31485   7.740   5.939   1.081  1.7794  0.7973 -0.8082
  974MOL0     H31486   7.877   5.979   1.302  0.2088 -0.3781 -0.5002
  974MOL0     H31487   7.905   6.141   1.255 -0.2161  0.2164 -2.6801
  974MOL0     H31488   8.201   5.955   1.010  1.8093  0.1006  3.0266
  974MOL0     H31489   7.342   6.212   1.585 -0.4490  0.6242 -0.6463
  974MOL0     H31490   7.133   6.164   1.654  0.4543  0.9360 -0.0862
  975MOL0     O31491   9.194  11.408   6.742 -1.0613 -0.2038 -0.6082
  975MOL0     C31492   9.130  11.465   6.828 -0.7332  0.7770  0.5922
  975MOL0     O31493   9.020  11.545   6.803 -0.5192 -0.3478  0.3708
  975MOL0     C31494   8.951  11.558   6.685 -1.0349  0.2363  0.9759
  975MOL0     C31495   8.855  11.664   6.674  0.5760 -0.8472 -0.1713
  975MOL0     C31496   8.788  11.677   6.552 -0.0165 -0.1344  0.2049
  975MOL0     C31497   8.812  11.596   6.444 -0.2190  0.8307 -0.3005
  975MOL0     O31498   8.764  11.616   6.318  0.3598 -0.0146 -0.2174
  975MOL0     C31499   8.626  11.579   6.309 -0.2227  0.4399 -0.3043
  975MOL0     C31500   8.595  11.530   6.174 -0.2326 -0.0827  0.5978
  975MOL0     C31501   8.448  11.552   6.129  0.7339  0.3759 -0.0380
  975MOL0     C31502   8.435  11.503   5.983  0.6820 -0.3687 -1.2548
  975MOL0     C31503   8.305  11.529   5.914  0.2896 -0.2930 -0.0532
  975MOL0     C31504   8.187  11.485   6.003 -0.5320 -0.4651  0.3846
  975MOL0     C31505   8.039  11.486   5.941 -0.1928 -0.2549  0.0513
  975MOL0     C31506   8.025  11.455   5.788 -0.7631  1.6274 -0.5548
  975MOL0     N31507   8.080  11.323   5.760  0.3348 -0.0585  0.5161
  975MOL0     C31508   8.099  11.214   5.838  0.1482 -0.0301  0.2186
  975MOL0     C31509   8.158  11.120   5.755 -0.4754  0.1771 -0.4939
  975MOL0     C31510   8.237  10.997   5.797  1.1760 -0.0242 -0.2625
  975MOL0     C31511   8.353  11.019   5.903 -0.3492  0.4139  0.9946
  975MOL0     C31512   8.474  11.110   5.854  0.7906 -0.2714  0.7150
  975MOL0     C31513   8.570  11.133   5.974  0.8293 -0.2579 -1.2650
  975MOL0     O31514   8.636  11.008   6.008 -0.2062 -1.2261  0.2183
  975MOL0     C31515   8.724  11.012   6.119 -0.6712 -0.4236  0.3115
  975MOL0     C31516   8.778  10.895   6.148  0.2057  0.2393 -0.4395
  975MOL0     C31517   8.878  10.879   6.250  0.6023  1.2669  0.9345
  975MOL0     C31518   8.936  10.746   6.268 -0.5325 -0.1560 -0.4685
  975MOL0     C31519   8.915  10.990   6.320  0.8103  0.1583 -0.0392
  975MOL0     C31520   9.041  10.989   6.394 -0.1692 -0.4425 -0.6801
  975MOL0     O31521   9.109  11.107   6.391  0.4773  0.0528 -0.9885
  975MOL0     C31522   9.239  11.099   6.436 -0.5264 -0.4375  0.5336
  975MOL0     C31523   9.340  11.036   6.360 -0.8861  0.8036  0.4890
  975MOL0     C31524   9.471  11.044   6.377  0.2980  0.1932 -0.1807
  975MOL0     C31525   9.522  11.130   6.478  0.1237  0.3198 -0.3214
  975MOL0     O31526   9.661  11.119   6.504  0.1276  0.0338  0.0240
  975MOL0     C31527   9.709  11.217   6.595  0.1113 -0.4084 -0.4097
  975MOL0     C31528   9.858  11.206   6.629 -0.8358  0.6716  0.1200
  975MOL0     C31529   9.928  11.330   6.693  0.3350 -0.4682 -0.1105
  975MOL0     C31530  10.075  11.325   6.714 -0.1802  0.2017  0.2127
  975MOL0     C31531  10.149  11.298   6.571 -1.0154  0.3419 -0.2976
  975MOL0     C31532  10.296  11.339   6.587  0.4500 -0.6478  0.3070
  975MOL0     C31533  10.365  11.296   6.462 -0.2367  0.1236  0.1687
  975MOL0     C31534  10.483  11.384   6.416  0.2876 -0.1309  0.6027
  975MOL0    Cl31535  10.541  11.337   6.267 -0.6374 -0.4663 -0.4848
  975MOL0     C31536   9.427  11.212   6.550  1.1717 -0.5012  0.4929
  975MOL0     C31537   9.288  11.189   6.530 -0.1943 -0.4951  0.1252
  975MOL0     O31538   9.062  10.894   6.468  0.0415 -0.0729 -0.9846
  975MOL0     C31539   8.849  11.112   6.289  0.0185 -0.3683 -0.6267
  975MOL0     C31540   8.758  11.126   6.189  0.3384  0.5670  0.3291
  975MOL0     N31541   8.144  11.161   5.621 -1.2097 -0.5036 -0.3338
  975MOL0     N31542   8.097  11.280   5.630 -0.2528  0.0281  0.0193
  975MOL0     C31543   8.905  11.481   6.458 -0.0163  0.1656 -0.3498
  975MOL0     C31544   8.960  11.464   6.579 -0.1805 -0.5690 -1.0009
  975MOL0     C31545   9.168  11.443   6.968 -0.1747 -0.0392 -1.1911
  975MOL0     C31546   9.247  11.334   7.004 -0.5761  0.6869 -0.0746
  975MOL0     C31547   9.283  11.310   7.139  0.4642 -0.1056 -0.4156
  975MOL0     C31548   9.228  11.378   7.245  0.4768  0.3254 -1.1042
  975MOL0     O31549   9.250  11.350   7.379 -0.1811 -0.9038 -0.6067
  975MOL0     C31550   9.369  11.292   7.428 -0.3960 -0.4665 -0.7117
  975MOL0     C31551   9.487  11.387   7.421  0.2471 -0.0301 -0.0553
  975MOL0     C31552   9.607  11.329   7.494  0.2927 -0.0916 -0.8919
  975MOL0     C31553   9.729  11.414   7.468 -0.1132 -0.4770 -0.4837
  975MOL0     C31554   9.721  11.539   7.549 -0.9842 -0.6339 -0.5070
  975MOL0     C31555   9.703  11.650   7.589 -0.6940  0.1650  0.5907
  975MOL0     C31556   9.145  11.492   7.211 -0.1790  0.9143 -0.4581
  975MOL0     C31557   9.114  11.521   7.081 -0.8204  0.0798 -0.4287
  975MOL0     H31558   8.825  11.723   6.759  1.5888  0.2912 -0.5776
  975MOL0     H31559   8.728  11.766   6.540  1.9647  1.4552  1.3959
  975MOL0     H31560   8.596  11.517   6.393 -2.3622  0.5571 -0.9113
  975MOL0     H31561   8.568  11.671   6.323  0.2235  0.6140  0.4511
  975MOL0     H31562   8.655  11.585   6.101  0.3326 -0.4121  0.8023
  975MOL0     H31563   8.613  11.428   6.138 -0.8147 -0.0257  0.1286
  975MOL0     H31564   8.395  11.487   6.198  3.1094  2.0673  3.7145
  975MOL0     H31565   8.417  11.657   6.139  0.4388  0.0828  2.8262
  975MOL0     H31566   8.516  11.538   5.918 -0.7831  2.2459 -1.7889
  975MOL0     H31567   8.438  11.394   5.993 -0.2430 -0.4103 -1.3847
  975MOL0     H31568   8.290  11.633   5.885 -0.4649 -0.2924  0.3174
  975MOL0     H31569   8.303  11.472   5.820 -0.1306 -1.7008  0.7718
  975MOL0     H31570   8.206  11.391   6.055  0.2326  0.2055  1.3463
  975MOL0     H31571   8.178  11.558   6.084 -0.0804 -1.7576  1.6475
  975MOL0     H31572   7.986  11.416   6.006 -1.2085  0.6618  0.2471
  975MOL0     H31573   7.990  11.583   5.956 -1.5527 -0.5457 -2.0887
  975MOL0     H31574   8.073  11.527   5.722 -0.0078  1.6032 -0.0506
  975MOL0     H31575   7.918  11.470   5.768 -1.1536 -0.6792 -0.4747
  975MOL0     H31576   8.102  11.212   5.946  4.6787 -0.5047  0.2749
  975MOL0     H31577   8.170  10.928   5.850  4.9729 -1.6065  2.9681
  975MOL0     H31578   8.278  10.950   5.708  1.6559  1.3597 -0.7936
  975MOL0     H31579   8.401  10.924   5.927  1.2240  1.6053  2.8908
  975MOL0     H31580   8.307  11.047   5.999 -0.3735 -1.1259  1.4563
  975MOL0     H31581   8.436  11.204   5.812  2.3197 -0.8323 -2.2351
  975MOL0     H31582   8.531  11.067   5.770  0.2728  3.8233 -2.0349
  975MOL0     H31583   8.517  11.178   6.058  2.7438 -0.0753 -0.0821
  975MOL0     H31584   8.656  11.197   5.952  1.4760  0.8281  3.2996
  975MOL0     H31585   8.746  10.820   6.076 -0.7859  0.6365 -0.4355
  975MOL0     H31586   9.045  10.748   6.272 -0.4228  1.5799 -2.4098
  975MOL0     H31587   8.899  10.690   6.354 -0.9618 -3.0306 -2.4085
  975MOL0     H31588   8.920  10.680   6.182 -1.6703 -0.6454  0.0997
  975MOL0     H31589   9.309  10.958   6.292  2.5649 -0.4808  0.1967
  975MOL0     H31590   9.539  10.989   6.314  0.7281 -1.0594  1.3028
  975MOL0     H31591   9.688  11.317   6.557 -1.0954 -1.5956 -3.2386
  975MOL0     H31592   9.655  11.212   6.690  0.9176  4.0603  0.4976
  975MOL0     H31593   9.872  11.124   6.699  1.6992  3.4759  3.2528
  975MOL0     H31594   9.903  11.193   6.530  0.1511 -0.1751  0.6675
  975MOL0     H31595   9.873  11.354   6.785  2.4285 -0.6375  1.2574
  975MOL0     H31596   9.901  11.413   6.627  0.2438 -0.3291  0.1018
  975MOL0     H31597  10.109  11.419   6.759  0.2814  0.5130 -0.7540
  975MOL0     H31598  10.101  11.252   6.791 -1.7728 -0.2374  0.3712
  975MOL0     H31599  10.109  11.363   6.492  2.5819  1.2966 -1.5240
  975MOL0     H31600  10.134  11.193   6.545 -1.0086  1.2466 -4.6384
  975MOL0     H31601  10.311  11.443   6.616 -1.1047 -0.1686 -0.4749
  975MOL0     H31602  10.336  11.275   6.666 -1.0123 -0.9794  0.8233
  975MOL0     H31603  10.293  11.271   6.384  3.6334 -2.0316 -3.1098
  975MOL0     H31604  10.398  11.194   6.481 -2.7668 -0.7036  0.5098
  975MOL0     H31605  10.568  11.368   6.483  1.5518 -2.1664 -1.3390
  975MOL0     H31606  10.460  11.491   6.415  1.4907  0.1823 -2.0263
  975MOL0     H31607   9.452  11.275   6.635  0.4796  0.2235  0.1856
  975MOL0     H31608   9.213  11.249   6.580 -1.8018 -2.5579  0.3208
  975MOL0     H31609   8.878  11.202   6.341  1.0550  1.6305 -4.2930
  975MOL0     H31610   8.707  11.217   6.158  2.4666  0.5282 -4.0953
  975MOL0     H31611   8.943  11.418   6.378  2.0530  0.1537  0.5936
  975MOL0     H31612   8.999  11.367   6.610  1.7131  0.2349 -0.7626
  975MOL0     H31613   9.299  11.284   6.923  1.2733  1.7604  0.3912
  975MOL0     H31614   9.346  11.225   7.164 -0.7131 -1.1734 -0.9526
  975MOL0     H31615   9.347  11.265   7.532 -3.3210  0.4197 -1.0063
  975MOL0     H31616   9.396  11.207   7.364  1.4625 -1.1543  0.9056
  975MOL0     H31617   9.469  11.483   7.470  2.7332 -0.5848  2.1697
  975MOL0     H31618   9.506  11.403   7.315 -2.3535 -3.2910 -1.1819
  975MOL0     H31619   9.619  11.223   7.474  2.7745 -0.2361  0.9226
  975MOL0     H31620   9.583  11.321   7.600  3.1267  0.0023 -0.1601
  975MOL0     H31621   9.749  11.438   7.363 -1.0004  3.3802  0.0991
  975MOL0     H31622   9.815  11.351   7.491  1.7023  1.1582 -2.4567
  975MOL0     H31623   9.696  11.757   7.601  0.2607  0.7077 -2.7627
  975MOL0     H31624   9.109  11.547   7.297 -2.5433  0.4146 -1.0704
  975MOL0     H31625   9.060  11.612   7.057  1.1751  2.6059  3.6194
  976MOL0     O31626   7.765   8.595   4.243  0.2853  0.1670  0.4860
  976MOL0     C31627   7.807   8.628   4.356 -0.9365  1.2872  0.8506
  976MOL0     O31628   7.913   8.575   4.419  0.3655  0.1614  0.6465
  976MOL0     C31629   8.018   8.512   4.352 -0.1493  0.6319  0.5637
  976MOL0     C31630   8.113   8.583   4.270 -0.3864  0.7019 -0.0957
  976MOL0     C31631   8.221   8.522   4.211 -0.3914  1.2294 -0.5116
  976MOL0     C31632   8.232   8.385   4.219 -0.2906  0.7187  0.5212
  976MOL0     O31633   8.330   8.320   4.138 -0.0366 -0.3203  0.0542
  976MOL0     C31634   8.470   8.348   4.177  0.0229 -0.4136  0.2896
  976MOL0     C31635   8.493   8.300   4.313 -0.0481  0.1511 -0.6220
  976MOL0     C31636   8.478   8.144   4.327 -1.1774  0.2985  0.4322
  976MOL0     C31637   8.488   8.099   4.466 -0.2566 -0.0935  0.2037
  976MOL0     C31638   8.637   8.066   4.507  0.4260  0.4894  0.8263
  976MOL0     C31639   8.704   7.958   4.426 -0.2308 -0.2844 -0.2111
  976MOL0     C31640   8.849   7.940   4.467  0.3895 -0.6189  0.1072
  976MOL0     C31641   8.912   7.841   4.365 -0.5583 -0.3673  0.5577
  976MOL0     N31642   9.059   7.850   4.405 -0.0519  0.4189 -0.1064
  976MOL0     C31643   9.120   7.756   4.483 -1.0606 -0.5969  0.2768
  976MOL0     C31644   9.252   7.782   4.455  0.0476  0.8636 -1.2264
  976MOL0     C31645   9.384   7.726   4.519 -0.6079  0.4987 -0.3920
  976MOL0     C31646   9.442   7.813   4.634 -0.6551 -0.5218 -0.7725
  976MOL0     C31647   9.586   7.755   4.681  0.3543  0.4759 -0.9305
  976MOL0     C31648   9.702   7.770   4.588  0.1974 -0.2323  0.9442
  976MOL0     O31649   9.835   7.740   4.632 -0.1604  0.1470  0.4052
  976MOL0     C31650   9.873   7.796   4.752  0.3528 -1.1227  0.8162
  976MOL0     C31651   9.858   7.935   4.768  0.4431 -0.0043  0.0453
  976MOL0     C31652   9.881   7.994   4.896  0.4960 -0.7044 -0.3628
  976MOL0     C31653   9.895   8.146   4.911 -0.1871 -0.6929  0.2585
  976MOL0     C31654   9.913   7.909   5.004 -0.5522 -0.1608  1.7403
  976MOL0     C31655   9.924   7.962   5.142  0.3254 -0.1052  0.1850
  976MOL0     O31656   9.836   8.063   5.180  0.1580  0.2065 -0.0825
  976MOL0     C31657   9.871   8.119   5.303  0.1935  0.1998  0.3881
  976MOL0     C31658   9.840   8.049   5.422 -0.6494 -0.6993  0.2672
  976MOL0     C31659   9.867   8.104   5.545  0.2965 -0.0177  0.7160
  976MOL0     C31660   9.912   8.234   5.553 -0.6773  1.3042 -0.6941
  976MOL0     O31661   9.962   8.294   5.667  0.2639  0.0682  0.3859
  976MOL0     C31662   9.893   8.274   5.795 -0.1695  0.3598  0.0114
  976MOL0     C31663   9.975   8.340   5.902 -0.1766 -0.9050 -0.7394
  976MOL0     C31664  10.099   8.264   5.934  0.8724  0.2009  0.7860
  976MOL0     C31665  10.163   8.301   6.074 -0.1599 -0.8750  1.9000
  976MOL0     C31666  10.182   8.178   6.158 -0.2379  0.5520 -0.7006
  976MOL0     C31667  10.264   8.059   6.110 -0.2579 -0.2360 -0.1842
  976MOL0     C31668  10.397   8.087   6.047 -1.0886 -0.5417  0.0524
  976MOL0     C31669  10.452   7.951   5.996  0.0474  0.0064  0.0734
  976MOL0    Cl31670  10.615   7.979   5.930 -0.1029 -0.5487 -0.2960
  976MOL0     C31671   9.951   8.301   5.443  1.3180 -0.0186  0.0244
  976MOL0     C31672   9.924   8.245   5.318  1.0761  0.0667  0.3069
  976MOL0     O31673  10.017   7.919   5.205  0.5363 -0.7583  0.0203
  976MOL0     C31674   9.934   7.771   4.988  0.4698 -0.0180 -0.2895
  976MOL0     C31675   9.897   7.718   4.860 -0.4249 -0.1075  0.0068
  976MOL0     N31676   9.275   7.882   4.375  0.7479  0.1668  0.2030
  976MOL0     N31677   9.159   7.925   4.347  0.3437  0.1929  0.2105
  976MOL0     C31678   8.150   8.300   4.298 -0.5397  0.2945  0.2123
  976MOL0     C31679   8.039   8.368   4.369  0.4904 -0.2799 -0.6705
  976MOL0     C31680   7.727   8.722   4.439  1.0905 -0.0346  0.2081
  976MOL0     C31681   7.754   8.763   4.575  0.8159  0.7871 -0.0596
  976MOL0     C31682   7.670   8.849   4.640 -0.4593  0.4834  0.0512
  976MOL0     C31683   7.556   8.897   4.577  1.2835  1.0064 -0.7585
  976MOL0     O31684   7.474   8.984   4.639  0.5473  0.4580  0.6537
  976MOL0     C31685   7.369   9.036   4.560 -0.5553 -0.0127 -1.4412
  976MOL0     C31686   7.271   9.079   4.667  0.2845 -0.4404 -1.1156
  976MOL0     C31687   7.224   9.223   4.635 -0.2135 -0.3118  0.1926
  976MOL0     C31688   7.137   9.273   4.757 -0.4523 -1.0250  0.1004
  976MOL0     C31689   7.227   9.303   4.875  0.2666  0.2267  0.2910
  976MOL0     C31690   7.287   9.338   4.976  0.0490 -0.2047 -0.1183
  976MOL0     C31691   7.533   8.846   4.455 -0.4887 -0.2359  0.9844
  976MOL0     C31692   7.608   8.759   4.383 -0.2116 -0.3432 -0.5243
  976MOL0     H31693   8.100   8.691   4.271  1.4380  0.9661  1.4613
  976MOL0     H31694   8.281   8.586   4.146  1.6956 -0.1662 -0.0685
  976MOL0     H31695   8.542   8.304   4.108 -1.2300 -3.3375  0.6663
  976MOL0     H31696   8.486   8.456   4.181  0.5513 -0.5055  3.9036
  976MOL0     H31697   8.598   8.316   4.337  0.3320 -2.2346 -0.4778
  976MOL0     H31698   8.426   8.357   4.378  1.5439  2.2857 -0.7468
  976MOL0     H31699   8.380   8.109   4.293 -1.7230  0.7789  1.4765
  976MOL0     H31700   8.548   8.098   4.257 -0.7639 -3.3381  2.9596
  976MOL0     H31701   8.454   8.172   4.539 -0.9398  2.0705 -2.1286
  976MOL0     H31702   8.427   8.010   4.482 -0.4990 -0.4725 -2.3844
  976MOL0     H31703   8.706   8.150   4.505  1.7211 -0.4717 -2.8150
  976MOL0     H31704   8.632   8.030   4.610  1.2684 -2.6399 -0.1129
  976MOL0     H31705   8.663   7.859   4.444 -1.4919  0.2277 -0.1525
  976MOL0     H31706   8.703   7.974   4.318  2.1069 -0.9185 -0.3868
  976MOL0     H31707   8.901   8.035   4.456 -1.1999  0.0069 -2.9358
  976MOL0     H31708   8.852   7.899   4.569  0.9704  0.6279  0.6036
  976MOL0     H31709   8.905   7.883   4.264  0.2871 -0.4538  0.4584
  976MOL0     H31710   8.883   7.736   4.361 -0.7776 -0.3358  1.2343
  976MOL0     H31711   9.094   7.688   4.563 -1.3759 -1.2397 -0.3590
  976MOL0     H31712   9.356   7.624   4.549 -2.0328  0.7478 -0.7901
  976MOL0     H31713   9.466   7.713   4.449 -1.1835 -0.5695 -0.8869
  976MOL0     H31714   9.377   7.806   4.722 -1.4285 -2.5048 -1.4449
  976MOL0     H31715   9.445   7.919   4.606 -2.8530 -0.7684 -2.1785
  976MOL0     H31716   9.583   7.646   4.694  3.5274  0.4178  0.2113
  976MOL0     H31717   9.611   7.793   4.780  0.0176 -1.2154 -0.1560
  976MOL0     H31718   9.698   7.869   4.541  0.5731 -0.7346 -0.1814
  976MOL0     H31719   9.684   7.703   4.504  2.5079 -1.1897  1.1514
  976MOL0     H31720   9.818   7.990   4.684 -0.9362 -0.4069  0.4038
  976MOL0     H31721   9.980   8.162   4.978 -2.0629 -2.2833  3.2426
  976MOL0     H31722   9.918   8.177   4.809  0.7268  0.1433  0.7093
  976MOL0     H31723   9.805   8.197   4.949  0.8022 -0.2358  2.1338
  976MOL0     H31724   9.794   7.952   5.405  0.9739 -1.3204 -0.8330
  976MOL0     H31725   9.848   8.041   5.632 -2.7871 -0.2523  0.0119
  976MOL0     H31726   9.791   8.313   5.806  0.4110  1.8510  0.2454
  976MOL0     H31727   9.884   8.166   5.807 -1.6451  0.1006 -2.5705
  976MOL0     H31728   9.998   8.444   5.876  1.6749 -1.1644 -0.2944
  976MOL0     H31729   9.915   8.339   5.994 -0.0688  0.4774 -0.6349
  976MOL0     H31730  10.174   8.296   5.862  0.3398  2.2980  1.0965
  976MOL0     H31731  10.092   8.156   5.920  0.8712  0.2121  0.7043
  976MOL0     H31732  10.264   8.342   6.064 -0.7199  0.2584  0.6413
  976MOL0     H31733  10.110   8.383   6.124 -2.2368 -1.5657  0.9413
  976MOL0     H31734  10.087   8.132   6.185 -0.5793 -0.7163 -3.6572
  976MOL0     H31735  10.224   8.210   6.254  0.0324 -1.0743 -0.2474
  976MOL0     H31736  10.286   8.005   6.203  2.0055 -1.4039 -1.3106
  976MOL0     H31737  10.206   7.994   6.045  2.2399 -0.6670 -2.1584
  976MOL0     H31738  10.471   8.129   6.116 -2.5641 -1.0851  2.0638
  976MOL0     H31739  10.385   8.158   5.965  2.2311  2.3979  1.8403
  976MOL0     H31740  10.394   7.927   5.907  2.6421 -0.3111 -1.6268
  976MOL0     H31741  10.450   7.868   6.068 -2.3696 -1.9835 -2.0922
  976MOL0     H31742   9.994   8.399   5.463 -1.0000  0.7555  1.5747
  976MOL0     H31743   9.959   8.300   5.232  2.0457  2.0975  1.9044
  976MOL0     H31744   9.974   7.710   5.068  1.3070  1.1293  0.1846
  976MOL0     H31745   9.924   7.613   4.849  0.6751  0.2475 -0.8510
  976MOL0     H31746   8.183   8.198   4.286  0.0209  0.5267 -0.2633
  976MOL0     H31747   7.969   8.307   4.426  2.9228 -3.8591 -1.2223
  976MOL0     H31748   7.839   8.727   4.632  0.3015  0.7208  0.6750
  976MOL0     H31749   7.695   8.885   4.740 -1.3550  1.0053  0.0936
  976MOL0     H31750   7.405   9.122   4.503  0.6355  0.7366  0.3474
  976MOL0     H31751   7.315   8.964   4.498  2.3256 -0.4164 -3.6634
  976MOL0     H31752   7.309   9.074   4.769 -3.1739  0.5589  0.3666
  976MOL0     H31753   7.176   9.025   4.657 -2.5195  4.1093 -1.6746
  976MOL0     H31754   7.172   9.227   4.539  0.9537  0.0913 -0.4462
  976MOL0     H31755   7.313   9.287   4.631  0.8553 -1.8118 -2.6942
  976MOL0     H31756   7.059   9.204   4.791 -0.4472 -2.1034 -1.9127
  976MOL0     H31757   7.093   9.368   4.728 -4.1797 -3.3339 -2.6778
  976MOL0     H31758   7.339   9.371   5.064  0.6259 -2.3779  0.4124
  976MOL0     H31759   7.441   8.871   4.404 -0.2708 -1.2896  0.0339
  976MOL0     H31760   7.580   8.737   4.280  3.2059 -0.2963 -1.6040
  977MOL0     O31761   7.430   4.647   9.904 -0.1075 -0.2429 -0.3880
  977MOL0     C31762   7.313   4.637   9.944 -0.2124  0.5198 -0.3552
  977MOL0     O31763   7.247   4.519   9.972  0.2694  0.0895 -0.2788
  977MOL0     C31764   7.306   4.397   9.953  0.3600 -0.1284  0.6141
  977MOL0     C31765   7.276   4.297  10.047  0.3757  0.6439  0.2104
  977MOL0     C31766   7.317   4.162  10.026  0.0609 -0.3776 -0.9694
  977MOL0     C31767   7.404   4.128   9.915 -0.0415  0.7928 -0.4629
  977MOL0     O31768   7.451   3.996   9.901  0.2702 -0.8502  0.0643
  977MOL0     C31769   7.593   3.993   9.858 -0.2772  0.0999  0.1545
  977MOL0     C31770   7.689   4.067   9.938 -0.3847  0.1808  0.7112
  977MOL0     C31771   7.726   3.995  10.073  0.0583 -0.0540  0.8445
  977MOL0     C31772   7.628   4.016  10.188 -0.2990  0.6225  0.4404
  977MOL0     C31773   7.696   3.963  10.320  0.1954  0.5262 -0.3484
  977MOL0     C31774   7.602   3.980  10.432 -0.7825 -0.5673  0.4661
  977MOL0     C31775   7.673   3.910  10.562  0.6855 -0.3430  0.2830
  977MOL0     C31776   7.574   3.894  10.676  0.8132 -0.1378  0.0297
  977MOL0     N31777   7.443   3.839  10.636  0.3483  0.3649  0.0662
  977MOL0     C31778   7.319   3.902  10.615 -0.1476  0.0940 -0.3455
  977MOL0     C31779   7.223   3.810  10.600 -0.2249  0.8006  0.1500
  977MOL0     C31780   7.084   3.818  10.571  0.4263 -1.1177 -0.8832
  977MOL0     C31781   7.065   3.767  10.429  0.8208  0.1399  0.3794
  977MOL0     C31782   7.138   3.845  10.321 -0.6113 -0.0558  0.4290
  977MOL0     C31783   7.162   3.789  10.180  0.4341  0.4454  0.1796
  977MOL0     O31784   7.083   3.852  10.077  0.1773 -0.1469  1.0033
  977MOL0     C31785   7.055   3.781   9.962 -0.4534 -0.4047 -0.3414
  977MOL0     C31786   7.133   3.668   9.924 -0.3552 -1.7008 -0.1668
  977MOL0     C31787   7.103   3.607   9.800 -0.6465 -0.6463  0.3207
  977MOL0     C31788   7.178   3.477   9.782 -0.3224 -0.3271  0.4577
  977MOL0     C31789   7.016   3.662   9.702  0.8674  0.0143  0.3842
  977MOL0     C31790   6.970   3.590   9.576  0.8160  0.2411 -0.7546
  977MOL0     O31791   6.989   3.453   9.570 -0.6756 -0.1719 -0.1198
  977MOL0     C31792   6.980   3.392   9.447 -0.1378 -0.3038  0.5247
  977MOL0     C31793   6.864   3.389   9.381 -0.5997 -0.1422  0.2853
  977MOL0     C31794   6.858   3.343   9.254 -0.0970  0.1096 -0.2396
  977MOL0     C31795   6.967   3.289   9.188 -0.4330  0.4684 -0.4978
  977MOL0     O31796   6.966   3.228   9.063  0.7950 -0.6475  0.4767
  977MOL0     C31797   6.867   3.277   8.971 -0.3512 -0.4987 -0.5782
  977MOL0     C31798   6.890   3.423   8.914 -0.6214 -0.8616 -0.5282
  977MOL0     C31799   7.035   3.448   8.879  0.3781 -0.7826 -0.3865
  977MOL0     C31800   7.046   3.591   8.811  0.1825  0.6339  0.1857
  977MOL0     C31801   7.184   3.622   8.751 -0.1849  0.7509 -0.2474
  977MOL0     C31802   7.174   3.759   8.662  0.3917 -0.3574 -0.6268
  977MOL0     C31803   7.313   3.814   8.601 -0.0120 -0.0134  0.1339
  977MOL0     C31804   7.275   3.932   8.510  0.2457  0.1603  0.3571
  977MOL0    Cl31805   7.163   4.056   8.560  0.0752  0.5143 -0.0623
  977MOL0     C31806   7.091   3.286   9.257 -0.2416 -0.6975  0.1458
  977MOL0     C31807   7.093   3.348   9.383 -0.1599 -0.0183  1.0901
  977MOL0     O31808   6.928   3.658   9.490  0.0414  0.3716 -0.2535
  977MOL0     C31809   6.938   3.768   9.752  0.4611 -0.0910 -0.2759
  977MOL0     C31810   6.955   3.825   9.878 -0.0551  0.4201  0.3704
  977MOL0     N31811   7.290   3.683  10.603 -0.7262  0.0605 -0.2368
  977MOL0     N31812   7.413   3.705  10.624  0.6313 -1.1602  0.9735
  977MOL0     C31813   7.419   4.232   9.824 -0.0230  0.2767 -0.0170
  977MOL0     C31814   7.370   4.353   9.839  0.6273  0.2222  0.3684
  977MOL0     C31815   7.233   4.763   9.967  0.4365  1.2940  0.0243
  977MOL0     C31816   7.288   4.883   9.931 -0.0905 -0.2662 -1.0132
  977MOL0     C31817   7.222   4.998   9.949  0.1228  0.3559  0.2455
  977MOL0     C31818   7.092   5.002  10.001 -0.7375 -0.0842  0.4461
  977MOL0     O31819   7.044   5.127  10.017  0.5088 -0.3619 -0.0801
  977MOL0     C31820   7.021   5.166  10.151 -0.5018  0.2177 -0.2101
  977MOL0     C31821   6.897   5.121  10.228  0.1598  0.9271 -0.5668
  977MOL0     C31822   6.765   5.170  10.179  0.0702  0.6844  0.5218
  977MOL0     C31823   6.722   5.126  10.037  1.2282 -0.2587  0.2859
  977MOL0     C31824   6.574   5.120  10.031  0.3985 -0.5689 -0.0342
  977MOL0     C31825   6.457   5.104  10.016  0.2216  0.5319 -0.9131
  977MOL0     C31826   7.022   4.883  10.019 -0.3205 -0.6104 -2.0931
  977MOL0     C31827   7.095   4.762  10.008 -1.0783 -0.1997 -0.5068
  977MOL0     H31828   7.221   4.317  10.139 -1.4964 -0.8592 -0.5131
  977MOL0     H31829   7.291   4.073  10.083 -1.4263  1.5503  1.6149
  977MOL0     H31830   7.629   3.891   9.873  1.1768  0.3311 -1.4570
  977MOL0     H31831   7.598   4.013   9.750  0.3141  0.1820  0.1935
  977MOL0     H31832   7.789   4.077   9.893 -0.6601  0.9961  0.2672
  977MOL0     H31833   7.665   4.170   9.967 -1.7841  1.0897 -3.1010
  977MOL0     H31834   7.735   3.887  10.056  1.5045  0.3615 -1.4456
  977MOL0     H31835   7.824   4.035  10.102 -0.7542  1.3637  1.7705
  977MOL0     H31836   7.595   4.120  10.195 -1.2440  0.3709 -0.1027
  977MOL0     H31837   7.542   3.951  10.170  0.8595 -1.0558  0.7540
  977MOL0     H31838   7.724   3.859  10.301 -3.4080 -1.0084  1.8075
  977MOL0     H31839   7.787   4.020  10.342  0.4132  0.3142 -0.6966
  977MOL0     H31840   7.574   4.085  10.442 -0.5224 -0.3214 -1.0917
  977MOL0     H31841   7.511   3.926  10.404 -2.9203  3.5636 -1.4715
  977MOL0     H31842   7.719   3.813  10.541  1.2969  0.4592 -2.6998
  977MOL0     H31843   7.755   3.974  10.595 -0.2985  1.9756 -1.4582
  977MOL0     H31844   7.571   3.989  10.731 -0.8073 -1.7523  2.9254
  977MOL0     H31845   7.611   3.825  10.751  3.6436  0.0300 -1.0801
  977MOL0     H31846   7.313   4.010  10.613  0.3540  0.1301  0.1323
  977MOL0     H31847   7.020   3.762  10.641  0.2697  1.7511  1.4401
  977MOL0     H31848   7.051   3.922  10.581  2.8853 -0.3459 -0.1803
  977MOL0     H31849   6.958   3.769  10.407  0.8043 -2.1475 -0.0917
  977MOL0     H31850   7.094   3.661  10.435  0.5737  0.1694  2.9361
  977MOL0     H31851   7.236   3.876  10.360 -0.4297  0.0335 -0.0918
  977MOL0     H31852   7.084   3.939  10.307 -1.6931 -0.9461 -1.7179
  977MOL0     H31853   7.130   3.685  10.188  3.2437 -0.5272  0.1633
  977MOL0     H31854   7.267   3.785  10.149  0.4346  1.0692  0.0975
  977MOL0     H31855   7.214   3.631   9.987 -0.5619  0.6511  1.6377
  977MOL0     H31856   7.218   3.460   9.681  0.4286 -0.6604  0.8096
  977MOL0     H31857   7.252   3.474   9.861 -0.8854  0.1216  1.0122
  977MOL0     H31858   7.113   3.392   9.809 -0.3350 -0.1842  0.8837
  977MOL0     H31859   6.773   3.427   9.427 -0.6792 -1.3614  1.1836
  977MOL0     H31860   6.764   3.358   9.200 -0.7351  0.2433  0.8742
  977MOL0     H31861   6.866   3.208   8.886 -1.4596 -1.5261  0.2328
  977MOL0     H31862   6.770   3.272   9.021  0.2532  0.6896  0.7828
  977MOL0     H31863   6.827   3.440   8.826 -3.6361  1.1335  1.7819
  977MOL0     H31864   6.859   3.492   8.992  0.0598 -0.7513 -0.3521
  977MOL0     H31865   7.077   3.375   8.809  1.1985 -1.0991  0.4174
  977MOL0     H31866   7.101   3.435   8.965  1.9279 -1.7761 -1.6561
  977MOL0     H31867   6.975   3.589   8.728 -3.5764  1.8393  3.1062
  977MOL0     H31868   7.020   3.663   8.889 -0.5633 -1.8559  2.3730
  977MOL0     H31869   7.217   3.542   8.684 -4.7169  2.3824 -5.1852
  977MOL0     H31870   7.261   3.623   8.829 -0.1883  0.7618 -0.2433
  977MOL0     H31871   7.109   3.745   8.576 -0.7491  0.0056  0.1549
  977MOL0     H31872   7.131   3.831   8.733  0.0650 -0.2484 -0.9319
  977MOL0     H31873   7.355   3.733   8.541 -2.9337 -0.7228 -1.1697
  977MOL0     H31874   7.389   3.853   8.669  2.4721 -2.0022 -1.3255
  977MOL0     H31875   7.216   3.898   8.425 -1.0077 -0.7801  1.5532
  977MOL0     H31876   7.361   3.982   8.464 -2.1323  1.3089 -3.2964
  977MOL0     H31877   7.187   3.261   9.211  1.3713  3.7650  0.5813
  977MOL0     H31878   7.176   3.365   9.451 -0.1117 -0.2606  1.0916
  977MOL0     H31879   6.865   3.812   9.685 -2.9233 -1.8984  1.9302
  977MOL0     H31880   6.894   3.911   9.907 -2.9503 -1.3440 -0.1237
  977MOL0     H31881   7.485   4.215   9.739  0.5794  2.1522  0.0441
  977MOL0     H31882   7.378   4.419   9.753  2.4322 -0.4298 -0.0070
  977MOL0     H31883   7.392   4.893   9.900 -0.1899  6.6868 -0.6995
  977MOL0     H31884   7.277   5.090   9.932 -0.0275  0.3615 -0.2281
  977MOL0     H31885   7.113   5.135  10.203  0.3636  1.4241 -0.9474
  977MOL0     H31886   7.016   5.275  10.145 -0.7584  0.1720 -0.8845
  977MOL0     H31887   6.912   5.165  10.327 -0.3303  1.9324 -0.9327
  977MOL0     H31888   6.901   5.012  10.236  0.4738  0.9163 -0.8620
  977MOL0     H31889   6.761   5.280  10.184  2.2477  0.9858 -2.0208
  977MOL0     H31890   6.696   5.128  10.253 -2.6336  1.6889 -1.2778
  977MOL0     H31891   6.752   5.022  10.023  0.0957 -0.6656  0.7315
  977MOL0     H31892   6.788   5.186   9.974  0.7136 -1.1107 -1.1073
  977MOL0     H31893   6.355   5.085   9.989  1.0094 -1.9444 -2.4713
  977MOL0     H31894   6.916   4.871  10.042 -0.4813 -0.4613 -2.7231
  977MOL0     H31895   7.050   4.666  10.032 -0.0122 -0.2379  1.5202
  978MOL0     O31896   2.512   0.761   4.480  0.4788  0.2443 -0.0903
  978MOL0     C31897   2.560   0.870   4.524 -0.6387 -0.2407  0.0191
  978MOL0     O31898   2.604   0.899   4.649 -0.8446 -0.3319  0.3505
  978MOL0     C31899   2.601   0.800   4.747  1.0058 -1.0535  0.8280
  978MOL0     C31900   2.722   0.748   4.808 -0.2057 -0.7138 -0.0986
  978MOL0     C31901   2.718   0.639   4.890  0.4349  0.4825 -0.4690
  978MOL0     C31902   2.598   0.567   4.917  0.5384  1.0385 -0.7096
  978MOL0     O31903   2.579   0.459   5.005  0.8636 -0.1192 -0.5524
  978MOL0     C31904   2.689   0.377   5.046 -0.4099  0.9101 -0.0092
  978MOL0     C31905   2.660   0.239   5.112  0.0883 -0.4139  0.6309
  978MOL0     C31906   2.580   0.265   5.241 -0.5586  0.3021  0.8531
  978MOL0     C31907   2.516   0.134   5.274  0.2504  0.6737  0.4797
  978MOL0     C31908   2.481   0.134   5.423  0.1916  0.0668 -1.0616
  978MOL0     C31909   2.403   0.018   5.490 -0.2030 -0.4213 -0.0286
  978MOL0     C31910   2.407   0.039   5.642 -0.5153  0.0304  0.1895
  978MOL0     C31911   2.266   0.012   5.697 -0.2853  0.5824  0.2541
  978MOL0     N31912   2.263   0.070   5.834 -1.7336 -0.3053  0.1070
  978MOL0     C31913   2.170   0.159   5.880 -0.3417 -0.4840  0.7970
  978MOL0     C31914   2.209   0.179   6.004 -0.1037  0.6805  0.2418
  978MOL0     C31915   2.152   0.290   6.102  0.0574  0.5264  0.1609
  978MOL0     C31916   2.010   0.261   6.140  0.0194 -0.3022  0.4178
  978MOL0     C31917   1.943   0.361   6.230 -0.3930  0.4506 -0.0893
  978MOL0     C31918   1.912   0.490   6.155  0.3597 -0.1013 -0.1392
  978MOL0     O31919   1.786   0.480   6.088 -0.6182  0.2425 -0.1411
  978MOL0     C31920   1.787   0.461   5.954 -0.3320  0.4190  0.2304
  978MOL0     C31921   1.669   0.422   5.888  1.0920  0.3789 -0.3934
  978MOL0     C31922   1.658   0.402   5.749 -0.5387 -1.1779 -0.0435
  978MOL0     C31923   1.533   0.336   5.688  0.4037 -0.0675 -0.2601
  978MOL0     C31924   1.765   0.439   5.666 -0.6013 -0.1897 -0.2691
  978MOL0     C31925   1.749   0.444   5.516 -0.1621 -0.2498  0.2319
  978MOL0     O31926   1.865   0.410   5.454 -0.9309 -1.0129  0.0529
  978MOL0     C31927   1.887   0.416   5.316  0.4185 -0.4146  0.0081
  978MOL0     C31928   2.015   0.366   5.280  0.0250  0.1391 -0.3707
  978MOL0     C31929   2.062   0.377   5.145 -0.5035  0.0003  0.6547
  978MOL0     C31930   1.974   0.415   5.041  0.2109 -0.4645  0.0764
  978MOL0     O31931   1.997   0.425   4.905 -0.3751  0.2519  0.4552
  978MOL0     C31932   2.135   0.434   4.860 -0.0069 -0.3235 -0.1183
  978MOL0     C31933   2.148   0.450   4.709 -0.9358 -0.7309  0.6136
  978MOL0     C31934   2.118   0.594   4.671 -0.0214  0.0278 -0.6733
  978MOL0     C31935   1.973   0.628   4.630  0.3038 -0.4514 -1.4815
  978MOL0     C31936   1.953   0.763   4.555  0.4419 -0.5571 -0.1930
  978MOL0     C31937   1.816   0.825   4.582  0.2452  0.1114  0.9463
  978MOL0     C31938   1.702   0.720   4.547 -0.1512 -0.3125  0.5820
  978MOL0     C31939   1.563   0.791   4.523  0.4830 -0.4102 -0.2489
  978MOL0    Cl31940   1.475   0.703   4.400  0.1463  0.0687 -0.5277
  978MOL0     C31941   1.851   0.457   5.085  0.5098  0.4705  0.7391
  978MOL0     C31942   1.804   0.464   5.216 -0.3224  0.1966  1.1120
  978MOL0     O31943   1.647   0.460   5.454 -0.4622 -0.7654  0.1580
  978MOL0     C31944   1.883   0.481   5.721 -1.3962 -0.3449  0.8439
  978MOL0     C31945   1.893   0.488   5.860 -0.7468  0.1700  0.3112
  978MOL0     N31946   2.321   0.109   6.033 -0.0303 -0.2372  0.3347
  978MOL0     N31947   2.359   0.045   5.929  0.5379 -0.1508 -0.9616
  978MOL0     C31948   2.487   0.614   4.849 -0.3919  1.0292  0.5897
  978MOL0     C31949   2.482   0.732   4.775 -0.4993  0.4778 -0.6957
  978MOL0     C31950   2.583   0.973   4.413 -0.4237 -0.3098  0.0286
  978MOL0     C31951   2.657   1.073   4.446 -1.3331 -0.1696  0.1388
  978MOL0     C31952   2.705   1.155   4.348 -0.1779 -0.3412  0.9102
  978MOL0     C31953   2.670   1.146   4.217 -0.0279  0.1242  0.1898
  978MOL0     O31954   2.717   1.241   4.121 -0.4527 -0.3592  0.0365
  978MOL0     C31955   2.856   1.292   4.129  1.0103  0.0428 -0.0141
  978MOL0     C31956   2.958   1.174   4.119 -0.4025 -1.1923 -1.0704
  978MOL0     C31957   2.935   1.068   3.997 -0.5855 -0.1723 -0.2807
  978MOL0     C31958   2.938   0.930   4.041  0.9120  0.5659  0.4367
  978MOL0     C31959   2.925   0.832   3.934 -0.7919 -1.0058  0.3208
  978MOL0     C31960   2.911   0.775   3.831  0.4627  0.6061  1.1187
  978MOL0     C31961   2.583   1.046   4.182  1.0129 -0.1048  0.4834
  978MOL0     C31962   2.544   0.953   4.279  0.8424  0.1103  0.2504
  978MOL0     H31963   2.813   0.795   4.773 -0.0261 -1.0090 -0.0334
  978MOL0     H31964   2.810   0.623   4.945 -0.0620  1.9667  0.8714
  978MOL0     H31965   2.743   0.362   4.952  2.0934  0.7885  1.3628
  978MOL0     H31966   2.752   0.419   5.125  0.8346 -0.7174 -0.0907
  978MOL0     H31967   2.608   0.185   5.032  3.7945 -2.9395 -0.2738
  978MOL0     H31968   2.760   0.198   5.127  2.3089  4.2724  0.4991
  978MOL0     H31969   2.656   0.290   5.316  0.3280  3.6206 -0.9400
  978MOL0     H31970   2.506   0.345   5.236  0.1654  0.9034 -0.6807
  978MOL0     H31971   2.426   0.118   5.214  2.4035 -3.9334 -2.0467
  978MOL0     H31972   2.569   0.046   5.235 -0.8290  0.6029 -0.9330
  978MOL0     H31973   2.565   0.150   5.491 -1.6559  2.3859  0.8253
  978MOL0     H31974   2.413   0.218   5.438 -0.3571 -0.4710 -0.4772
  978MOL0     H31975   2.299   0.025   5.455 -0.7017  4.5452  1.7163
  978MOL0     H31976   2.443  -0.083   5.475  0.6243  0.2052 -2.5593
  978MOL0     H31977   2.476  -0.030   5.691 -1.7745 -0.9263  0.6792
  978MOL0     H31978   2.435   0.140   5.673  1.2782  0.0912 -1.4275
  978MOL0     H31979   2.256  -0.096   5.707  0.8843  0.2648 -1.4649
  978MOL0     H31980   2.194   0.052   5.625  0.1006 -1.5422 -1.4211
  978MOL0     H31981   2.084   0.205   5.831 -1.0522 -2.2850  0.2719
  978MOL0     H31982   2.205   0.299   6.198  3.3701  1.2045 -1.5854
  978MOL0     H31983   2.168   0.389   6.059 -2.1852  2.3712  3.1324
  978MOL0     H31984   2.021   0.167   6.196 -2.1166 -0.0648  1.3262
  978MOL0     H31985   1.945   0.238   6.055  0.5423 -1.6504  0.3498
  978MOL0     H31986   2.012   0.390   6.310  1.5508  0.8046 -1.7944
  978MOL0     H31987   1.849   0.318   6.266 -0.0172  1.1264  1.8310
  978MOL0     H31988   1.996   0.533   6.099  0.9311 -3.1650 -1.8785
  978MOL0     H31989   1.908   0.569   6.231 -1.0564  0.4532 -0.7470
  978MOL0     H31990   1.571   0.398   5.929  1.4872 -0.3006  0.1622
  978MOL0     H31991   1.477   0.280   5.763 -0.8321  0.6704 -0.6095
  978MOL0     H31992   1.465   0.412   5.649 -0.6733  0.1216  1.8831
  978MOL0     H31993   1.562   0.273   5.604 -0.8216 -0.9709 -0.0254
  978MOL0     H31994   2.085   0.342   5.359 -0.4109  2.5960  0.8453
  978MOL0     H31995   2.168   0.358   5.130 -0.4559 -2.5536  3.2374
  978MOL0     H31996   2.189   0.514   4.912  1.1293 -0.8586 -0.4426
  978MOL0     H31997   2.198   0.351   4.893  0.6617  0.6375  1.0984
  978MOL0     H31998   2.254   0.439   4.682 -1.3615  0.6856 -1.9191
  978MOL0     H31999   2.078   0.386   4.655 -0.1149 -2.3668  1.4057
  978MOL0     H32000   2.180   0.605   4.582 -1.4039  0.4412 -1.6139
  978MOL0     H32001   2.142   0.669   4.748 -2.9606  1.1003 -0.6973
  978MOL0     H32002   1.943   0.538   4.577 -0.5046 -1.3732  0.4580
  978MOL0     H32003   1.930   0.633   4.731  3.2382 -1.5045 -0.0617
  978MOL0     H32004   1.979   0.754   4.449  1.8799  1.2156 -0.0289
  978MOL0     H32005   2.015   0.842   4.597 -2.3266  0.6205  2.0239
  978MOL0     H32006   1.799   0.847   4.688 -1.8831 -0.0491  0.6863
  978MOL0     H32007   1.803   0.911   4.515 -1.7544 -0.8135  0.0745
  978MOL0     H32008   1.690   0.641   4.622  0.4515 -0.1818  0.8240
  978MOL0     H32009   1.708   0.692   4.441 -3.6545 -3.7368  1.0868
  978MOL0     H32010   1.583   0.892   4.485 -0.0858 -0.8760 -1.8938
  978MOL0     H32011   1.513   0.799   4.620  1.2744  1.6159  0.0280
  978MOL0     H32012   1.788   0.490   5.003  0.2515 -1.8911 -0.0803
  978MOL0     H32013   1.706   0.503   5.242 -0.7611  1.0612 -1.4520
  978MOL0     H32014   1.966   0.502   5.655 -0.1529 -2.0094  1.7800
  978MOL0     H32015   1.984   0.529   5.903  0.3940 -1.4721 -0.4353
  978MOL0     H32016   2.401   0.550   4.856  0.5322 -0.2919  0.2052
  978MOL0     H32017   2.394   0.767   4.721 -2.1860 -3.1279 -0.5882
  978MOL0     H32018   2.690   1.087   4.548 -5.7514  3.2522  1.4044
  978MOL0     H32019   2.776   1.234   4.368  0.2927 -0.7118  0.7282
  978MOL0     H32020   2.867   1.366   4.049 -1.5600  0.5258 -0.0203
  978MOL0     H32021   2.875   1.344   4.223 -0.6794 -0.6992  0.7975
  978MOL0     H32022   2.970   1.121   4.213  1.8296 -0.0552 -0.6436
  978MOL0     H32023   3.055   1.226   4.114 -0.9321  0.5140  2.8132
  978MOL0     H32024   3.017   1.093   3.929  0.1307 -0.0131  0.6184
  978MOL0     H32025   2.843   1.088   3.941 -1.4181  2.8866  1.9145
  978MOL0     H32026   2.852   0.917   4.108  0.3488  1.8154 -0.0063
  978MOL0     H32027   3.039   0.912   4.079  2.8173  5.2629 -1.5666
  978MOL0     H32028   2.885   0.739   3.733  2.1264  1.7089  0.2171
  978MOL0     H32029   2.561   1.039   4.076  2.6521 -3.2096  0.2362
  978MOL0     H32030   2.468   0.884   4.244  1.1419 -0.3856  0.5626
  979MOL0     O32031   5.602   1.475   8.043 -0.2301 -0.2582  0.5913
  979MOL0     C32032   5.697   1.460   8.119 -0.1606 -0.4087  1.2876
  979MOL0     O32033   5.702   1.379   8.230 -0.0288  0.2808  0.9638
  979MOL0     C32034   5.588   1.308   8.268  0.0740  0.2218 -0.5293
  979MOL0     C32035   5.514   1.215   8.181  0.9589  0.5455  0.4061
  979MOL0     C32036   5.402   1.162   8.236  0.6486  0.6024  1.0259
  979MOL0     C32037   5.352   1.197   8.363  0.1588 -0.5447 -0.3620
  979MOL0     O32038   5.250   1.116   8.410 -1.2095 -0.0738  0.0673
  979MOL0     C32039   5.165   1.179   8.499  0.1807  0.4702 -0.3157
  979MOL0     C32040   5.041   1.102   8.495 -0.1671  0.6449 -0.5121
  979MOL0     C32041   4.962   1.124   8.367 -0.7679 -0.2170  0.7494
  979MOL0     C32042   4.846   1.036   8.349  0.0094  0.0616  0.1449
  979MOL0     C32043   4.730   1.056   8.453 -0.0485  1.2622  0.6329
  979MOL0     C32044   4.656   1.186   8.432 -0.0129  0.5383 -0.2826
  979MOL0     C32045   4.531   1.193   8.525  0.5598  1.2680 -0.9431
  979MOL0     C32046   4.418   1.301   8.477  0.5961  0.4747  0.2671
  979MOL0     N32047   4.468   1.435   8.463  0.2517  0.5614  0.8333
  979MOL0     C32048   4.545   1.496   8.555 -0.5376  0.3618 -0.1405
  979MOL0     C32049   4.566   1.618   8.498 -0.3290 -1.0537 -0.0637
  979MOL0     C32050   4.656   1.723   8.538 -0.4423  0.2373  0.7065
  979MOL0     C32051   4.792   1.671   8.589  1.0502 -0.1422  0.3765
  979MOL0     C32052   4.883   1.797   8.628 -0.2637  0.1223 -0.3681
  979MOL0     C32053   4.945   1.858   8.503  0.6943 -0.4343 -0.4069
  979MOL0     O32054   4.974   1.764   8.391 -0.4370 -0.3890 -0.0811
  979MOL0     C32055   5.083   1.812   8.315 -0.1256  0.5113 -0.1954
  979MOL0     C32056   5.214   1.763   8.349  0.3624  0.9972  1.2441
  979MOL0     C32057   5.324   1.809   8.279 -0.7342  0.6266 -0.5847
  979MOL0     C32058   5.453   1.762   8.335  0.9791 -0.3784 -0.2383
  979MOL0     C32059   5.314   1.897   8.171  0.3355 -1.6357 -0.7681
  979MOL0     C32060   5.429   1.955   8.092 -0.2882 -0.0886 -0.9074
  979MOL0     O32061   5.541   1.882   8.084 -0.3140  0.5157  0.8035
  979MOL0     C32062   5.636   1.915   7.986 -0.0898  0.8145 -0.5404
  979MOL0     C32063   5.615   1.883   7.856  0.1166 -0.0431  0.6798
  979MOL0     C32064   5.710   1.921   7.755 -0.3759  0.5281  0.5499
  979MOL0     C32065   5.834   1.972   7.788  1.0159 -0.4531  0.5201
  979MOL0     O32066   5.929   1.969   7.692 -0.2264  0.4773  0.0925
  979MOL0     C32067   6.031   2.069   7.697  0.7464 -0.3335 -0.5689
  979MOL0     C32068   6.129   2.050   7.591  0.4494  0.5075  0.7446
  979MOL0     C32069   6.074   2.128   7.467 -0.0013  0.6298 -0.1888
  979MOL0     C32070   6.177   2.132   7.354  0.8039  0.1535  0.8214
  979MOL0     C32071   6.193   2.000   7.295  0.7741  0.4142 -0.3470
  979MOL0     C32072   6.233   2.009   7.148 -0.5820 -0.2282  0.5223
  979MOL0     C32073   6.374   2.060   7.118 -0.3567  0.0226 -1.1820
  979MOL0     C32074   6.386   2.136   6.985  0.0290  0.5168  0.1394
  979MOL0    Cl32075   6.551   2.147   6.925  0.1221  0.0919 -0.0939
  979MOL0     C32076   5.850   2.005   7.929 -0.2077  0.0888  0.7549
  979MOL0     C32077   5.757   1.980   8.020 -0.2491 -0.8134 -0.4539
  979MOL0     O32078   5.408   2.048   8.017  0.7374  1.4830 -0.7038
  979MOL0     C32079   5.187   1.942   8.133 -0.0790 -0.2493  1.2766
  979MOL0     C32080   5.076   1.900   8.210  0.8102  0.5551 -0.0886
  979MOL0     N32081   4.498   1.623   8.377  0.9982  0.7106 -0.5862
  979MOL0     N32082   4.436   1.519   8.364  0.5095 -0.0759  0.0232
  979MOL0     C32083   5.423   1.289   8.433 -0.1945  0.5151 -0.3724
  979MOL0     C32084   5.539   1.344   8.385 -0.1212 -0.3202 -0.3807
  979MOL0     C32085   5.814   1.543   8.085 -0.7202 -0.4695 -0.3044
  979MOL0     C32086   5.930   1.534   8.169 -0.5551 -1.1128  0.6533
  979MOL0     C32087   6.042   1.617   8.143 -0.2872 -0.4235 -0.7164
  979MOL0     C32088   6.044   1.701   8.030 -0.4816 -0.2817 -0.4418
  979MOL0     O32089   6.132   1.796   7.996  0.0342  0.5324  0.1103
  979MOL0     C32090   6.259   1.802   8.041  0.7076  0.3018  0.0596
  979MOL0     C32091   6.345   1.691   7.981  0.5702 -0.1517  0.5940
  979MOL0     C32092   6.462   1.640   8.073  0.7485 -0.2238 -0.6608
  979MOL0     C32093   6.587   1.621   7.976  0.4761  0.6133 -0.1801
  979MOL0     C32094   6.697   1.549   8.044 -0.2165  0.4662  0.6117
  979MOL0     C32095   6.791   1.496   8.100 -0.7207  0.9484  0.4575
  979MOL0     C32096   5.932   1.707   7.947  0.6408  0.6642  0.3162
  979MOL0     C32097   5.818   1.627   7.973 -0.1591 -0.3807 -0.8378
  979MOL0     H32098   5.560   1.195   8.085 -0.1214 -1.9745  0.3345
  979MOL0     H32099   5.359   1.079   8.182  4.3322 -0.5097 -0.5580
  979MOL0     H32100   5.216   1.177   8.596 -2.1727  0.5256  1.0005
  979MOL0     H32101   5.156   1.283   8.466 -2.0817 -0.2551 -2.2217
  979MOL0     H32102   5.059   0.995   8.510 -0.2501  0.6892 -0.0933
  979MOL0     H32103   4.993   1.154   8.578  3.9977  2.6057  0.9390
  979MOL0     H32104   4.933   1.230   8.364  0.0039 -0.0118  0.4994
  979MOL0     H32105   5.037   1.112   8.289 -2.1942 -1.6266 -0.4733
  979MOL0     H32106   4.810   1.057   8.248 -0.4802  3.0490  0.8306
  979MOL0     H32107   4.879   0.932   8.347 -0.7730 -0.1907 -1.1980
  979MOL0     H32108   4.659   0.974   8.439 -0.9521  1.7504  2.1032
  979MOL0     H32109   4.768   1.070   8.554  2.4439 -1.0869  0.1104
  979MOL0     H32110   4.719   1.274   8.450 -0.3669  0.6483  0.4412
  979MOL0     H32111   4.624   1.178   8.328 -2.6823 -2.5466  0.5997
  979MOL0     H32112   4.492   1.091   8.524  0.3966  1.3318 -1.0959
  979MOL0     H32113   4.554   1.215   8.630  1.8320 -3.3066 -0.0304
  979MOL0     H32114   4.332   1.299   8.544  2.4580  0.8803  2.7971
  979MOL0     H32115   4.384   1.261   8.381  2.1293 -0.4214  0.0578
  979MOL0     H32116   4.596   1.449   8.639  2.1669 -1.3276 -2.5372
  979MOL0     H32117   4.666   1.784   8.448 -0.5373  0.5753  0.9257
  979MOL0     H32118   4.609   1.784   8.615 -0.8997  0.5918  0.1579
  979MOL0     H32119   4.844   1.604   8.521  1.4320 -0.2069  0.7268
  979MOL0     H32120   4.785   1.607   8.678 -2.4459 -0.4360  0.0216
  979MOL0     H32121   4.952   1.764   8.705 -1.5647 -0.2193  0.6944
  979MOL0     H32122   4.817   1.868   8.679 -2.0174 -0.4644 -1.6886
  979MOL0     H32123   5.032   1.914   8.540 -0.6813  0.5295  1.5028
  979MOL0     H32124   4.880   1.932   8.454  2.0739  0.7694 -0.5231
  979MOL0     H32125   5.226   1.694   8.431  3.9562  1.5767  1.3517
  979MOL0     H32126   5.435   1.694   8.418  2.0308 -2.3151 -1.5225
  979MOL0     H32127   5.518   1.710   8.263 -1.0634 -1.7997 -1.1515
  979MOL0     H32128   5.503   1.851   8.376 -3.1008  1.1488  1.9985
  979MOL0     H32129   5.520   1.834   7.835  0.1880 -0.6225  1.6550
  979MOL0     H32130   5.691   1.896   7.651 -5.1193 -2.0645  1.7482
  979MOL0     H32131   5.987   2.169   7.708  4.2319  1.4952 -1.9375
  979MOL0     H32132   6.080   2.063   7.794 -2.3276 -0.9110  1.0875
  979MOL0     H32133   6.213   2.107   7.632  2.6271 -1.3958 -0.8009
  979MOL0     H32134   6.152   1.947   7.562 -0.9404  0.9396 -2.2847
  979MOL0     H32135   6.048   2.233   7.486 -0.3759  0.8712 -1.8968
  979MOL0     H32136   5.989   2.084   7.414 -0.9780  5.2684 -3.0378
  979MOL0     H32137   6.152   2.196   7.269  3.4293 -0.0688 -0.2097
  979MOL0     H32138   6.270   2.173   7.395  2.1000 -0.6767 -1.1391
  979MOL0     H32139   6.100   1.941   7.296  0.1694  1.1925 -2.7330
  979MOL0     H32140   6.266   1.954   7.362 -0.3742  0.9490  1.3405
  979MOL0     H32141   6.214   1.910   7.105  0.3774  0.4960 -1.7042
  979MOL0     H32142   6.167   2.081   7.099 -0.3353  2.0765  3.3248
  979MOL0     H32143   6.449   1.982   7.126  2.0498  2.3177  0.2925
  979MOL0     H32144   6.402   2.139   7.189 -1.1619 -1.6285  1.0994
  979MOL0     H32145   6.348   2.238   7.001  1.1851  1.1271 -0.8546
  979MOL0     H32146   6.324   2.090   6.908  2.0485 -0.8130 -0.7573
  979MOL0     H32147   5.943   2.051   7.960 -0.9021  1.0958  1.4044
  979MOL0     H32148   5.786   2.015   8.118 -0.2853 -2.3170  0.1132
  979MOL0     H32149   5.171   1.996   8.040 -1.7461 -1.6306  0.7234
  979MOL0     H32150   4.973   1.929   8.191  0.0929  0.0200  2.5677
  979MOL0     H32151   5.390   1.308   8.535  1.8133 -0.7519  0.5722
  979MOL0     H32152   5.604   1.401   8.452  0.7311 -0.8487 -0.7423
  979MOL0     H32153   5.929   1.486   8.266  1.4117  0.8616  1.7154
  979MOL0     H32154   6.132   1.626   8.204 -0.1938 -1.4113 -0.6821
  979MOL0     H32155   6.306   1.899   8.021  2.0572 -0.7590 -2.2351
  979MOL0     H32156   6.260   1.793   8.150 -0.3293  0.5907  0.1084
  979MOL0     H32157   6.385   1.732   7.888 -1.0701  0.7255  0.2361
  979MOL0     H32158   6.275   1.609   7.960 -0.8624  1.3771 -0.8595
  979MOL0     H32159   6.439   1.541   8.112  0.7832 -0.6230 -1.6250
  979MOL0     H32160   6.478   1.717   8.148 -0.5589  2.5393 -3.0118
  979MOL0     H32161   6.618   1.723   7.952  0.1052  1.5164  2.7144
  979MOL0     H32162   6.554   1.567   7.887 -0.2344 -3.8408  2.4732
  979MOL0     H32163   6.870   1.442   8.148  1.5427  0.2215 -3.6157
  979MOL0     H32164   5.941   1.754   7.850  3.9249 -1.2894 -0.4916
  979MOL0     H32165   5.733   1.633   7.906 -0.3580 -2.0633 -0.7715
  980MOL0     O32166   1.480  11.363   7.067 -0.4370 -0.4908  0.6336
  980MOL0     C32167   1.595  11.322   7.080 -0.4572 -0.2388 -0.2990
  980MOL0     O32168   1.696  11.386   7.163 -0.1300  0.8667  0.2424
  980MOL0     C32169   1.656  11.472   7.257  0.5040 -0.1827 -0.3435
  980MOL0     C32170   1.646  11.425   7.387 -0.5797  0.3834  0.3475
  980MOL0     C32171   1.597  11.501   7.489 -0.6843 -0.4877 -0.7821
  980MOL0     C32172   1.567  11.635   7.461 -0.2447  0.8966 -0.0738
  980MOL0     O32173   1.527  11.702   7.572  0.3942 -0.4364  0.3774
  980MOL0     C32174   1.506  11.840   7.564  0.8549  0.0145 -0.7668
  980MOL0     C32175   1.470  11.880   7.706  0.7009 -0.5950 -0.1913
  980MOL0     C32176   1.602  11.880   7.783  0.1228  0.0513  0.3218
  980MOL0     C32177   1.566  11.931   7.927 -0.0573  0.2029 -0.4795
  980MOL0     C32178   1.688  11.935   8.024 -0.1756  0.2004 -0.0765
  980MOL0     C32179   1.650  11.951   8.166 -0.8758  0.3073  0.2729
  980MOL0     C32180   1.577  12.069   8.209 -0.1042 -0.9847 -0.7059
  980MOL0     C32181   1.650  12.206   8.207  0.9351  0.8354 -0.1541
  980MOL0     N32182   1.570  12.320   8.249 -0.1349  0.1106 -0.1174
  980MOL0     C32183   1.537  12.346   8.376  0.9495 -0.5017 -0.3182
  980MOL0     C32184   1.445  12.446   8.382 -0.3454  0.1224 -0.7399
  980MOL0     C32185   1.376  12.505   8.511  0.0827  0.3303 -0.4169
  980MOL0     C32186   1.442  12.633   8.565  0.5977  0.8562 -0.3091
  980MOL0     C32187   1.407  12.745   8.472 -0.6962 -0.5112 -0.3165
  980MOL0     C32188   1.487  12.873   8.501 -0.3292 -0.4593  0.3732
  980MOL0     O32189   1.483  12.919   8.637  0.4579  0.2987  0.0204
  980MOL0     C32190   1.598  12.950   8.696 -0.2307 -0.3428 -0.5167
  980MOL0     C32191   1.617  13.071   8.765  0.7582 -0.9128  0.0558
  980MOL0     C32192   1.736  13.111   8.824 -0.4820 -0.3861  0.1109
  980MOL0     C32193   1.736  13.240   8.902 -0.3594  0.0539  0.0909
  980MOL0     C32194   1.843  13.022   8.817 -0.5663  0.4885  0.6624
  980MOL0     C32195   1.971  13.046   8.875  0.0196  0.5636 -0.0576
  980MOL0     O32196   2.071  13.045   8.783  0.5607 -0.4417  0.3789
  980MOL0     C32197   2.199  13.052   8.820  0.0558 -0.3769 -0.3071
  980MOL0     C32198   2.257  12.932   8.863 -0.2290  0.1907 -0.0496
  980MOL0     C32199   2.391  12.933   8.901 -0.7933  0.4847 -0.3732
  980MOL0     C32200   2.459  13.060   8.904 -0.9281 -1.0017  1.0090
  980MOL0     O32201   2.594  13.049   8.950  0.7263  0.1925  0.1042
  980MOL0     C32202   2.613  13.004   9.080  0.0766  0.7642  0.1997
  980MOL0     C32203   2.746  13.065   9.137 -0.1460  0.1216  0.5165
  980MOL0     C32204   2.764  13.012   9.283 -0.2259 -0.1985  0.9542
  980MOL0     C32205   2.853  12.893   9.270  0.9669  0.4046 -0.0685
  980MOL0     C32206   2.864  12.800   9.394  0.0272 -0.2207  0.0441
  980MOL0     C32207   2.985  12.700   9.397 -0.0617  0.6592  0.4583
  980MOL0     C32208   2.964  12.578   9.481 -0.7502 -0.8726  0.4337
  980MOL0     C32209   3.051  12.566   9.602 -0.1126 -0.0464  0.4449
  980MOL0    Cl32210   3.040  12.719   9.670  0.1450 -0.0851  0.7434
  980MOL0     C32211   2.412  13.182   8.839  1.4962 -0.1775  0.1000
  980MOL0     C32212   2.269  13.174   8.809 -0.5308 -0.0711  0.0565
  980MOL0     O32213   1.985  13.045   8.996 -0.0999  0.2480  1.0275
  980MOL0     C32214   1.827  12.898   8.747  0.4212 -0.1030 -1.4071
  980MOL0     C32215   1.705  12.860   8.692 -0.5644  0.0743 -0.7685
  980MOL0     N32216   1.427  12.476   8.250  0.5368  0.1762 -0.6003
  980MOL0     N32217   1.514  12.421   8.176  0.3551 -0.2986  0.0914
  980MOL0     C32218   1.581  11.692   7.335 -0.0350  0.1873  0.1760
  980MOL0     C32219   1.625  11.605   7.232 -0.1627  0.1817 -1.2907
  980MOL0     C32220   1.646  11.220   6.986 -0.3783 -0.0797 -0.3904
  980MOL0     C32221   1.551  11.156   6.899 -0.1810 -0.3617 -0.3628
  980MOL0     C32222   1.596  11.064   6.812 -0.3779  0.3301  0.0400
  980MOL0     C32223   1.737  11.032   6.798  0.2501 -0.6211  0.7781
  980MOL0     O32224   1.776  10.934   6.709  0.4170 -0.5365 -1.6993
  980MOL0     C32225   1.682  10.882   6.617  0.4249  0.7656  0.2257
  980MOL0     C32226   1.746  10.769   6.532  0.4113  0.7500 -0.6484
  980MOL0     C32227   1.645  10.655   6.478  0.2962 -0.1549  1.2887
  980MOL0     C32228   1.619  10.537   6.573  0.4167  0.5303  0.0407
  980MOL0     C32229   1.533  10.442   6.513  0.3278 -1.4959  0.7295
  980MOL0     C32230   1.463  10.361   6.452  0.0436  0.3375 -0.2659
  980MOL0     C32231   1.825  11.099   6.881 -1.2808  0.2379 -0.5198
  980MOL0     C32232   1.777  11.194   6.973 -0.4139  0.0237  0.7234
  980MOL0     H32233   1.656  11.319   7.411 -2.8489 -0.0388 -0.3182
  980MOL0     H32234   1.576  11.449   7.581 -0.3913 -1.7476 -1.4039
  980MOL0     H32235   1.595  11.892   7.527  2.2033 -0.2306  1.8760
  980MOL0     H32236   1.424  11.871   7.498 -0.1918 -1.4810 -0.2204
  980MOL0     H32237   1.431  11.982   7.713  0.2646 -0.8538  1.6230
  980MOL0     H32238   1.395  11.808   7.741  0.1604 -0.7612 -1.6202
  980MOL0     H32239   1.638  11.777   7.792 -0.5835 -0.2300 -0.0217
  980MOL0     H32240   1.672  11.942   7.726 -0.9862  0.6383 -0.4221
  980MOL0     H32241   1.528  12.034   7.930 -2.4128 -0.5860 -0.8002
  980MOL0     H32242   1.485  11.870   7.968  1.4098 -0.5508  1.4396
  980MOL0     H32243   1.740  11.839   8.019 -0.8916 -0.3677  2.3204
  980MOL0     H32244   1.752  12.017   7.989 -3.7799  2.0841 -2.9727
  980MOL0     H32245   1.595  11.859   8.189 -0.1424 -0.6675 -1.6922
  980MOL0     H32246   1.735  11.945   8.235 -1.4096  1.2704  1.0406
  980MOL0     H32247   1.487  12.083   8.149  0.1531  0.8653 -0.6910
  980MOL0     H32248   1.550  12.058   8.315 -3.5526  0.9991 -1.2464
  980MOL0     H32249   1.674  12.225   8.102  0.5160  1.0437 -0.2130
  980MOL0     H32250   1.737  12.197   8.273 -0.2323 -1.4439  1.2169
  980MOL0     H32251   1.583  12.290   8.457  0.0631  0.5471  0.9570
  980MOL0     H32252   1.268  12.521   8.501 -0.3640 -2.9912 -2.5557
  980MOL0     H32253   1.376  12.429   8.589  0.7505 -0.6368 -1.3305
  980MOL0     H32254   1.546  12.602   8.565 -0.1690 -1.9976 -1.0599
  980MOL0     H32255   1.408  12.640   8.669 -1.6296 -2.6272 -0.6517
  980MOL0     H32256   1.302  12.770   8.485 -1.3523 -1.0871 -3.4750
  980MOL0     H32257   1.417  12.710   8.368 -2.6206  2.0221 -1.4696
  980MOL0     H32258   1.429  12.944   8.440  1.0085  1.1414  0.8792
  980MOL0     H32259   1.591  12.864   8.467 -1.2632 -0.4135 -2.8900
  980MOL0     H32260   1.525  13.128   8.776  1.4460  1.3467 -4.0775
  980MOL0     H32261   1.776  13.324   8.844 -2.1934  0.3849 -0.7688
  980MOL0     H32262   1.629  13.255   8.921 -1.1348  0.3282 -3.7731
  980MOL0     H32263   1.794  13.221   8.993 -0.6047  1.7439  0.6511
  980MOL0     H32264   2.208  12.836   8.855  0.2789  0.0598 -2.1065
  980MOL0     H32265   2.434  12.838   8.932 -3.5773 -0.4142  0.9743
  980MOL0     H32266   2.533  13.047   9.142  0.9950  0.6493  1.4954
  980MOL0     H32267   2.598  12.897   9.093 -1.8663  1.0999  1.1875
  980MOL0     H32268   2.832  13.045   9.073 -0.4082  0.3036  0.1008
  980MOL0     H32269   2.746  13.175   9.140 -1.4939  0.1237  2.7276
  980MOL0     H32270   2.662  12.984   9.312 -1.1394  3.1057  1.3353
  980MOL0     H32271   2.804  13.089   9.348  1.1834 -1.4149  1.5842
  980MOL0     H32272   2.809  12.828   9.194  1.5094 -1.9594  1.5214
  980MOL0     H32273   2.956  12.917   9.242  1.0785 -2.5182 -2.6701
  980MOL0     H32274   2.775  12.737   9.394  0.3648 -0.7496 -1.6092
  980MOL0     H32275   2.868  12.875   9.474  0.5804  1.2236 -1.2812
  980MOL0     H32276   2.996  12.663   9.294 -0.0544 -3.9992  1.8920
  980MOL0     H32277   3.070  12.756   9.438 -0.2862  1.6620 -0.4305
  980MOL0     H32278   2.984  12.498   9.409 -3.7523  0.9359 -2.7636
  980MOL0     H32279   2.861  12.568   9.516 -0.2879  1.4143  2.7920
  980MOL0     H32280   3.152  12.539   9.573 -0.2831  0.6694 -0.8602
  980MOL0     H32281   3.010  12.491   9.671 -0.5779 -0.8493 -0.6833
  980MOL0     H32282   2.453  13.282   8.829  3.6099 -1.1261 -1.3866
  980MOL0     H32283   2.216  13.266   8.782 -1.4083  0.2299  2.4961
  980MOL0     H32284   1.909  12.832   8.723  0.6037  0.3720 -2.1305
  980MOL0     H32285   1.692  12.761   8.649  0.5546  0.1602 -1.3326
  980MOL0     H32286   1.561  11.797   7.316 -1.3290  0.2905  1.8196
  980MOL0     H32287   1.633  11.640   7.129 -2.0237  3.2237 -0.5544
  980MOL0     H32288   1.444  11.174   6.897  0.1173  2.0837  1.3386
  980MOL0     H32289   1.518  11.007   6.761  0.3659 -3.6649  2.8436
  980MOL0     H32290   1.590  10.838   6.657 -0.7098  1.3340 -1.6122
  980MOL0     H32291   1.640  10.960   6.553 -3.8208 -0.0924  1.6351
  980MOL0     H32292   1.813  10.707   6.592  0.9733  1.8905 -0.0786
  980MOL0     H32293   1.813  10.817   6.461  1.0512  1.9733  0.7184
  980MOL0     H32294   1.688  10.610   6.387 -2.8159  1.5078 -1.2181
  980MOL0     H32295   1.555  10.714   6.460  0.8531 -0.0679 -1.8234
  980MOL0     H32296   1.583  10.582   6.666  5.9961  1.4401  2.1581
  980MOL0     H32297   1.713  10.485   6.590 -1.5168 -2.9711  0.9399
  980MOL0     H32298   1.383  10.303   6.410  1.3969 -1.6462 -0.2485
  980MOL0     H32299   1.929  11.072   6.865 -0.5737  2.3998  0.0587
  980MOL0     H32300   1.849  11.223   7.050  0.6332 -4.8732  1.9128
  981MOL0     O32301   3.431   8.726   8.175  0.0348  0.3216 -1.0627
  981MOL0     C32302   3.517   8.812   8.191  0.0637 -0.5260 -0.5625
  981MOL0     O32303   3.472   8.946   8.204  0.3379 -0.2197  0.9691
  981MOL0     C32304   3.341   8.983   8.196  0.0995 -0.2028 -0.2339
  981MOL0     C32305   3.259   8.978   8.079 -1.0620 -0.1262  0.2071
  981MOL0     C32306   3.128   9.018   8.084  0.2277  0.4996 -0.3501
  981MOL0     C32307   3.078   9.074   8.203  0.5543 -0.2431  0.8762
  981MOL0     O32308   2.948   9.113   8.194 -0.0992  0.3766 -0.8468
  981MOL0     C32309   2.858   9.101   8.312  0.8064  0.1960  0.4161
  981MOL0     C32310   2.715   9.084   8.275  0.1467 -0.0131  0.9040
  981MOL0     C32311   2.641   9.182   8.177 -0.3447 -0.6144 -0.1463
  981MOL0     C32312   2.494   9.167   8.158 -0.3238 -0.1453 -0.0424
  981MOL0     C32313   2.437   9.273   8.067  0.1400  0.4674  0.3146
  981MOL0     C32314   2.285   9.237   8.045 -0.0439  0.0086  0.7217
  981MOL0     C32315   2.198   9.235   8.179  0.5696  0.2848  0.0680
  981MOL0     C32316   2.052   9.259   8.150 -0.5612  0.3767  1.0183
  981MOL0     N32317   2.001   9.136   8.074 -0.2954 -0.1706  0.1790
  981MOL0     C32318   1.862   9.129   8.048  1.3391  1.0744  0.0036
  981MOL0     C32319   1.836   8.994   8.027 -0.3645  0.4877 -0.1584
  981MOL0     C32320   1.705   8.911   8.010 -0.2051  0.1804  0.7637
  981MOL0     C32321   1.731   8.832   7.887  0.1935  0.8922 -0.1360
  981MOL0     C32322   1.610   8.735   7.872  0.3365 -0.4050 -0.0520
  981MOL0     C32323   1.616   8.678   7.731 -0.6470 -0.3323 -0.9752
  981MOL0     O32324   1.480   8.650   7.712  0.1561  0.3448 -0.6998
  981MOL0     C32325   1.454   8.518   7.664  0.2215 -0.0537  0.1917
  981MOL0     C32326   1.484   8.477   7.530 -0.8258 -0.8818 -0.1200
  981MOL0     C32327   1.481   8.351   7.481 -0.5822  0.3630 -0.7809
  981MOL0     C32328   1.522   8.333   7.332  0.1216  0.4313  0.8644
  981MOL0     C32329   1.439   8.252   7.578 -0.2059 -0.2650 -0.0006
  981MOL0     C32330   1.410   8.117   7.535 -0.1618  0.1207 -0.4079
  981MOL0     O32331   1.282   8.062   7.577  0.2056  0.1172 -0.4689
  981MOL0     C32332   1.245   7.931   7.535 -0.7161  0.2783 -0.1514
  981MOL0     C32333   1.173   7.863   7.632  0.2708  0.1873 -0.0166
  981MOL0     C32334   1.145   7.733   7.622  0.3607 -0.0451 -0.6733
  981MOL0     C32335   1.176   7.661   7.508  0.1640 -0.3448  0.0375
  981MOL0     O32336   1.147   7.527   7.494 -0.5063  0.2432  0.5397
  981MOL0     C32337   1.233   7.438   7.561 -0.2984 -0.3999 -0.6919
  981MOL0     C32338   1.178   7.297   7.563 -1.1459 -1.2113 -0.6234
  981MOL0     C32339   1.072   7.293   7.667 -0.2664  0.9681  0.7478
  981MOL0     C32340   0.989   7.156   7.638  0.3285  0.1551  0.2156
  981MOL0     C32341   0.917   7.139   7.775  0.2068  0.1859 -0.4063
  981MOL0     C32342   0.860   6.993   7.789  0.5192 -0.2196 -0.2655
  981MOL0     C32343   0.785   6.987   7.922 -0.0215  0.5575 -0.2418
  981MOL0     C32344   0.722   6.848   7.948  0.5974 -0.0529 -0.3255
  981MOL0    Cl32345   0.673   6.850   8.118 -0.2312 -0.2516  0.3121
  981MOL0     C32346   1.236   7.736   7.402 -1.0821 -0.3715 -0.4864
  981MOL0     C32347   1.272   7.869   7.417  0.7896 -1.0625  0.1858
  981MOL0     O32348   1.486   8.055   7.470  0.2370  0.6807  0.0697
  981MOL0     C32349   1.417   8.278   7.709 -0.2648 -0.0470 -0.0430
  981MOL0     C32350   1.419   8.419   7.752  0.3850 -0.4861  0.2155
  981MOL0     N32351   1.952   8.926   8.040  0.4842 -0.0376  0.3134
  981MOL0     N32352   2.049   9.012   8.053  0.2580  0.3688  0.2204
  981MOL0     C32353   3.150   9.066   8.323 -0.5107  0.3398  0.2629
  981MOL0     C32354   3.281   9.024   8.316  0.0930 -0.5337  0.7552
  981MOL0     C32355   3.656   8.773   8.210  0.5511  0.4482 -1.3334
  981MOL0     C32356   3.761   8.874   8.205 -0.7390 -0.7036  0.2813
  981MOL0     C32357   3.899   8.839   8.223  0.5685 -0.1126  0.7099
  981MOL0     C32358   3.933   8.705   8.257  0.7437  0.2507  0.0444
  981MOL0     O32359   4.054   8.663   8.303  0.6123 -0.6910 -0.7763
  981MOL0     C32360   4.167   8.733   8.255  1.2950 -0.0023  0.6647
  981MOL0     C32361   4.287   8.642   8.271 -0.1484 -0.0749  0.4918
  981MOL0     C32362   4.291   8.512   8.181 -0.5535  0.3589 -0.0526
  981MOL0     C32363   4.341   8.401   8.268 -0.0194 -1.3749  0.1029
  981MOL0     C32364   4.396   8.297   8.192  1.2868  0.7730 -0.0114
  981MOL0     C32365   4.448   8.199   8.133 -0.3940 -0.7459 -0.1075
  981MOL0     C32366   3.829   8.613   8.267  0.2652 -0.2560  0.3155
  981MOL0     C32367   3.693   8.643   8.242  0.0754  0.2113  0.2594
  981MOL0     H32368   3.307   8.945   7.988 -0.6027  2.3733 -0.5537
  981MOL0     H32369   3.061   9.005   7.999 -2.6538  1.1923  1.6814
  981MOL0     H32370   2.881   9.008   8.365 -1.1001  0.3616  1.6254
  981MOL0     H32371   2.865   9.181   8.386 -0.1872  1.1463 -0.4821
  981MOL0     H32372   2.709   8.996   8.210 -3.1486  1.2279 -0.7041
  981MOL0     H32373   2.666   9.074   8.373  0.5549 -0.5958  1.0507
  981MOL0     H32374   2.672   9.286   8.196  0.4671 -1.0855  1.2880
  981MOL0     H32375   2.689   9.155   8.083 -0.0899  1.6410 -0.7215
  981MOL0     H32376   2.469   9.064   8.130  0.3861 -0.2350 -0.3850
  981MOL0     H32377   2.453   9.190   8.257  2.7488 -3.7766  2.3754
  981MOL0     H32378   2.449   9.373   8.109  2.6724 -0.5110  2.2078
  981MOL0     H32379   2.483   9.282   7.968 -0.4909  1.2567  0.0831
  981MOL0     H32380   2.242   9.306   7.972 -1.5994 -2.2529 -0.6505
  981MOL0     H32381   2.287   9.137   8.000 -0.3530 -0.4733  1.7566
  981MOL0     H32382   2.207   9.139   8.231 -0.9453  0.4560  0.6986
  981MOL0     H32383   2.230   9.310   8.252 -0.8930  1.2783 -0.2708
  981MOL0     H32384   2.050   9.348   8.085  1.4822  0.8445  1.5040
  981MOL0     H32385   1.985   9.288   8.232 -1.2568  0.8813  0.2857
  981MOL0     H32386   1.784   9.203   8.060  2.0630  2.0050 -0.8773
  981MOL0     H32387   1.688   8.845   8.095 -2.0215 -3.0125 -1.8323
  981MOL0     H32388   1.626   8.985   7.991 -2.1044 -0.9760  3.4198
  981MOL0     H32389   1.823   8.773   7.895 -0.5315 -1.8217 -6.1772
  981MOL0     H32390   1.743   8.892   7.797 -0.2737  0.5588 -0.4258
  981MOL0     H32391   1.519   8.797   7.874 -0.2682 -1.2745  0.8454
  981MOL0     H32392   1.607   8.657   7.949  0.5781  0.8672  1.2965
  981MOL0     H32393   1.684   8.593   7.721  1.3086  1.1780 -1.1834
  981MOL0     H32394   1.651   8.753   7.659  3.1877  1.4333  2.3008
  981MOL0     H32395   1.499   8.560   7.462 -1.7482 -1.0146 -0.5069
  981MOL0     H32396   1.429   8.312   7.278  0.2998 -0.8433  1.0287
  981MOL0     H32397   1.558   8.427   7.290  0.3178  0.2466  0.6216
  981MOL0     H32398   1.591   8.250   7.320 -0.9495 -0.1866 -1.6866
  981MOL0     H32399   1.166   7.904   7.732 -2.0521  3.9772 -1.5295
  981MOL0     H32400   1.078   7.690   7.696 -0.3360 -1.8441 -2.2648
  981MOL0     H32401   1.325   7.434   7.502  0.3536 -4.0235  0.3321
  981MOL0     H32402   1.263   7.475   7.659 -0.4190 -2.1630  0.0432
  981MOL0     H32403   1.131   7.269   7.469 -2.9521  0.6795 -0.3795
  981MOL0     H32404   1.263   7.231   7.581  2.5758  3.2434  0.1003
  981MOL0     H32405   1.002   7.371   7.638 -1.4984 -0.4766 -0.3244
  981MOL0     H32406   1.108   7.289   7.770 -3.0037 -1.0609  1.7564
  981MOL0     H32407   0.930   7.172   7.547  3.2838  0.4592 -1.7800
  981MOL0     H32408   1.052   7.069   7.616 -1.3620 -0.7774 -1.1864
  981MOL0     H32409   0.830   7.205   7.775 -2.3058 -2.8717  1.0238
  981MOL0     H32410   0.989   7.155   7.856 -2.7742 -0.8941  2.7014
  981MOL0     H32411   0.787   6.985   7.709  1.3521  3.2201 -1.5329
  981MOL0     H32412   0.943   6.922   7.796 -0.5011 -1.3162  1.4956
  981MOL0     H32413   0.697   7.051   7.905 -0.0896  0.0883 -1.7864
  981MOL0     H32414   0.847   7.024   8.004 -1.8559 -0.1377  1.5450
  981MOL0     H32415   0.778   6.755   7.931  1.4221  0.4390 -0.3498
  981MOL0     H32416   0.630   6.842   7.889  0.7189  2.5324 -0.9067
  981MOL0     H32417   1.253   7.712   7.298 -2.0294  1.1524 -1.0406
  981MOL0     H32418   1.317   7.921   7.333 -1.3724 -1.4807 -1.3155
  981MOL0     H32419   1.403   8.192   7.773  3.0414 -0.3454  0.4549
  981MOL0     H32420   1.377   8.427   7.852 -4.5215 -5.1061 -0.9748
  981MOL0     H32421   3.102   9.108   8.411 -2.1804  1.1871 -0.9859
  981MOL0     H32422   3.329   9.016   8.413  2.0192 -0.6357 -0.1659
  981MOL0     H32423   3.739   8.979   8.192  0.9655 -0.0513  2.1647
  981MOL0     H32424   3.974   8.916   8.207 -0.2627  0.2401 -2.1366
  981MOL0     H32425   4.159   8.759   8.148  1.1066 -0.4252  0.5756
  981MOL0     H32426   4.189   8.827   8.306  1.1991  1.5517 -1.9470
  981MOL0     H32427   4.289   8.618   8.378 -1.1291  0.3143  0.6072
  981MOL0     H32428   4.377   8.701   8.249  1.9285 -3.0917  0.0776
  981MOL0     H32429   4.349   8.539   8.092 -0.4183  0.2338 -0.0034
  981MOL0     H32430   4.196   8.478   8.140  1.2984 -1.8879 -2.8693
  981MOL0     H32431   4.264   8.355   8.331 -1.7332  0.8242 -0.2830
  981MOL0     H32432   4.415   8.450   8.333 -1.6938  2.4088 -0.5765
  981MOL0     H32433   4.513   8.118   8.109  0.9850 -0.2546  1.7015
  981MOL0     H32434   3.855   8.519   8.314 -2.2033 -0.5549  1.2107
  981MOL0     H32435   3.625   8.559   8.237  0.5237 -0.2053  1.0456
  982MOL0     O32436   9.756   6.597   0.506  0.6490 -0.2621  0.6480
  982MOL0     C32437   9.762   6.697   0.571 -0.1753 -0.0094  0.1396
  982MOL0     O32438   9.770   6.700   0.704  0.1697  0.2992  0.2129
  982MOL0     C32439   9.834   6.588   0.763  0.5125  0.1507 -1.4193
  982MOL0     C32440   9.971   6.562   0.749 -0.2897  0.0051  0.4827
  982MOL0     C32441  10.028   6.462   0.829 -0.3842 -0.3737 -0.0438
  982MOL0     C32442   9.974   6.404   0.943 -0.1010  0.3586 -0.7628
  982MOL0     O32443  10.046   6.337   1.039 -0.2677 -0.4979 -0.2115
  982MOL0     C32444  10.191   6.322   1.027 -1.4588  0.1715  0.0766
  982MOL0     C32445  10.242   6.240   1.151  0.5789  0.3187  1.4338
  982MOL0     C32446  10.397   6.240   1.146 -0.5101 -0.4748  0.2465
  982MOL0     C32447  10.461   6.173   1.268 -0.3520  0.1480  0.3163
  982MOL0     C32448  10.495   6.023   1.234  0.1134 -0.5352 -1.1549
  982MOL0     C32449  10.549   5.929   1.343  0.4901 -0.9096  0.0070
  982MOL0     C32450  10.682   5.994   1.382  0.4772 -0.9533  0.4397
  982MOL0     C32451  10.795   5.956   1.279 -1.3242 -0.2118 -1.1218
  982MOL0     N32452  10.929   5.988   1.336 -0.2638 -0.8757  0.2647
  982MOL0     C32453  10.961   6.059   1.461  0.3470  0.1516 -0.0440
  982MOL0     C32454  11.090   6.070   1.467 -0.8544  0.3270  0.1380
  982MOL0     C32455  11.181   6.144   1.556 -0.4215  0.3676 -0.0942
  982MOL0     C32456  11.141   6.288   1.567  0.1867  0.1206 -0.9451
  982MOL0     C32457  11.160   6.380   1.438 -0.2926  0.2324 -0.9200
  982MOL0     C32458  11.118   6.522   1.460  0.5296  0.5062 -0.9312
  982MOL0     O32459  11.151   6.615   1.366 -0.6928 -0.0491 -0.3829
  982MOL0     C32460  11.074   6.627   1.251 -0.2081  0.8534 -0.4378
  982MOL0     C32461  10.965   6.550   1.219 -0.4711  0.4023 -0.5857
  982MOL0     C32462  10.889   6.575   1.100 -0.0540 -0.0160  0.1059
  982MOL0     C32463  10.769   6.475   1.076 -0.9434 -0.4057 -0.1007
  982MOL0     C32464  10.937   6.679   1.015 -0.1752 -0.2699 -0.4247
  982MOL0     C32465  10.876   6.715   0.879 -0.0964  0.6487 -0.0113
  982MOL0     O32466  10.785   6.636   0.820 -1.5202  0.6128  0.0030
  982MOL0     C32467  10.760   6.666   0.689 -0.5314 -1.4813  0.1976
  982MOL0     C32468  10.646   6.741   0.656  0.4478 -0.6386  0.4782
  982MOL0     C32469  10.598   6.755   0.527  0.6665  0.0059  0.4036
  982MOL0     C32470  10.659   6.692   0.423  0.3413 -0.3446  0.3025
  982MOL0     O32471  10.603   6.732   0.307 -1.2277 -0.1113  0.4974
  982MOL0     C32472  10.584   6.630   0.210  0.0178 -0.2847  0.1234
  982MOL0     C32473  10.564   6.689   0.075  0.2822  0.0273  0.4209
  982MOL0     C32474  10.667   6.789   0.041  0.3462 -1.1090 -0.6690
  982MOL0     C32475  10.663   6.834  -0.102 -0.1407  0.4920 -0.7964
  982MOL0     C32476  10.778   6.922  -0.133 -0.0484 -0.1261 -0.3178
  982MOL0     C32477  10.775   6.975  -0.264 -0.0686 -0.0232  0.7041
  982MOL0     C32478  10.814   6.881  -0.378  0.2478 -0.5119 -0.2675
  982MOL0     C32479  10.841   6.942  -0.519  1.1376  0.7103 -0.4521
  982MOL0    Cl32480  10.682   7.020  -0.588 -0.0548 -0.5572  0.2777
  982MOL0     C32481  10.767   6.614   0.449 -0.4276  0.6931 -0.1156
  982MOL0     C32482  10.819   6.595   0.577 -0.2430  0.2026  0.4722
  982MOL0     O32483  10.925   6.824   0.832  0.2008  0.2688 -0.0544
  982MOL0     C32484  11.063   6.741   1.048 -0.1636 -0.0235 -0.4102
  982MOL0     C32485  11.133   6.721   1.166  0.8158 -0.0067  0.5662
  982MOL0     N32486  11.143   5.985   1.371  0.3148  0.5380 -0.6035
  982MOL0     N32487  11.051   5.937   1.296 -0.3510 -0.3159  0.6063
  982MOL0     C32488   9.839   6.440   0.958 -0.2775  0.2878  0.7000
  982MOL0     C32489   9.770   6.523   0.866 -0.5590  0.4517  0.5462
  982MOL0     C32490   9.756   6.829   0.500 -0.5537  0.3519  0.3729
  982MOL0     C32491   9.763   6.952   0.573  1.2626  0.9037 -0.2605
  982MOL0     C32492   9.750   7.068   0.504 -0.6162 -1.0516  1.0082
  982MOL0     C32493   9.733   7.074   0.361 -0.3485 -0.6839  0.9387
  982MOL0     O32494   9.750   7.197   0.306 -0.4060  0.3459 -0.4200
  982MOL0     C32495   9.662   7.245   0.198 -0.3197  0.4482  0.3716
  982MOL0     C32496   9.736   7.380   0.150 -0.4148 -1.3049 -0.2780
  982MOL0     C32497   9.711   7.493   0.255  0.6046  0.0456 -0.4977
  982MOL0     C32498   9.593   7.576   0.246 -0.2303  0.2422  0.5466
  982MOL0     C32499   9.477   7.503   0.289 -0.0377  0.8736 -0.5573
  982MOL0     C32500   9.393   7.434   0.348 -0.0014 -0.7698 -0.2944
  982MOL0     C32501   9.724   6.964   0.290  0.9581 -0.1923 -0.0981
  982MOL0     C32502   9.713   6.844   0.363  0.0968 -0.0118 -0.4027
  982MOL0     H32503  10.030   6.606   0.670 -0.9923 -4.3229 -2.8428
  982MOL0     H32504  10.136   6.452   0.816  0.0411 -0.2858  2.6994
  982MOL0     H32505  10.207   6.258   0.940 -0.6520  0.9712 -0.3744
  982MOL0     H32506  10.242   6.417   1.008  1.5013 -1.1213  0.9581
  982MOL0     H32507  10.204   6.285   1.243 -1.7101  0.3608  0.5371
  982MOL0     H32508  10.200   6.139   1.153  0.1120  0.3276 -2.2896
  982MOL0     H32509  10.430   6.192   1.054 -1.7665 -1.2858  0.1937
  982MOL0     H32510  10.431   6.343   1.159  0.7084 -0.8965  0.4971
  982MOL0     H32511  10.559   6.221   1.279  0.3978 -0.7997 -1.6738
  982MOL0     H32512  10.403   6.179   1.361  4.8540  0.2168  3.9905
  982MOL0     H32513  10.408   5.974   1.188 -3.9890  2.7083  2.2818
  982MOL0     H32514  10.569   6.030   1.154 -0.4409  1.7873 -1.5486
  982MOL0     H32515  10.477   5.918   1.424 -0.3073  3.1332  0.0880
  982MOL0     H32516  10.559   5.833   1.292 -0.7609 -0.4116 -1.2551
  982MOL0     H32517  10.685   6.099   1.412 -2.4785 -0.1992 -1.4394
  982MOL0     H32518  10.693   5.947   1.480 -0.7562 -0.8784  0.6331
  982MOL0     H32519  10.776   6.005   1.183 -1.3052  3.2801  0.4831
  982MOL0     H32520  10.809   5.850   1.256  3.0036  0.4646 -2.5583
  982MOL0     H32521  10.890   6.101   1.532 -2.5153 -1.9360 -1.4900
  982MOL0     H32522  11.185   6.097   1.655 -0.8375 -1.3361 -0.8512
  982MOL0     H32523  11.282   6.134   1.516  0.0039 -0.8997  1.2068
  982MOL0     H32524  11.190   6.339   1.651 -0.7791  2.2756 -1.5995
  982MOL0     H32525  11.033   6.290   1.582 -0.1926 -0.3815 -3.3367
  982MOL0     H32526  11.113   6.339   1.348 -1.6248 -0.6431  0.1428
  982MOL0     H32527  11.266   6.407   1.432  0.2095 -1.3522  0.1959
  982MOL0     H32528  11.153   6.552   1.559 -4.4898  0.2123  1.2454
  982MOL0     H32529  11.010   6.514   1.471  0.2776  0.0375 -3.2544
  982MOL0     H32530  10.925   6.470   1.281 -5.7225  1.1259 -2.5810
  982MOL0     H32531  10.687   6.525   1.024  0.7037  0.3656 -2.1547
  982MOL0     H32532  10.803   6.395   1.010 -0.5048  1.0732 -1.7434
  982MOL0     H32533  10.736   6.431   1.170  2.0303  1.6686  2.1107
  982MOL0     H32534  10.587   6.774   0.741 -1.1799 -1.7271 -0.1603
  982MOL0     H32535  10.504   6.806   0.509  0.7407 -0.0055 -0.0323
  982MOL0     H32536  10.679   6.575   0.212  1.6326  2.0805 -2.5766
  982MOL0     H32537  10.499   6.570   0.242 -1.5260  1.8812  0.2724
  982MOL0     H32538  10.565   6.616  -0.007  0.5545 -2.0274  2.1629
  982MOL0     H32539  10.463   6.732   0.076  0.8890  1.6981 -1.9222
  982MOL0     H32540  10.763   6.748   0.071 -0.8602 -1.8111  2.6881
  982MOL0     H32541  10.638   6.878   0.098 -1.0832 -0.3521 -2.4410
  982MOL0     H32542  10.674   6.752  -0.174  0.1221  1.5852 -2.0293
  982MOL0     H32543  10.569   6.889  -0.114 -0.5777  0.1085  0.6603
  982MOL0     H32544  10.874   6.872  -0.116  0.0890  1.0092  3.0793
  982MOL0     H32545  10.774   7.011  -0.070 -1.1762  2.1972 -3.4170
  982MOL0     H32546  10.675   7.013  -0.289  0.7239  0.9603 -1.1430
  982MOL0     H32547  10.847   7.057  -0.265 -0.3715  0.3973 -3.5373
  982MOL0     H32548  10.738   6.804  -0.394  1.6069 -1.5945 -1.7424
  982MOL0     H32549  10.903   6.827  -0.345 -0.1419 -1.8766 -1.3781
  982MOL0     H32550  10.886   6.866  -0.584  1.7214  0.8358 -0.2014
  982MOL0     H32551  10.924   7.013  -0.517  4.2889 -2.6238 -1.1091
  982MOL0     H32552  10.818   6.563   0.368  0.3835  0.6775  0.3919
  982MOL0     H32553  10.891   6.517   0.601  2.0381  1.4264 -1.8523
  982MOL0     H32554  11.109   6.807   0.975 -2.6224  1.4335 -0.7707
  982MOL0     H32555  11.224   6.777   1.184 -0.5650  2.2577  0.8446
  982MOL0     H32556   9.797   6.404   1.051  2.2288  0.6852  2.0833
  982MOL0     H32557   9.669   6.550   0.894  0.5841  2.7348  2.9421
  982MOL0     H32558   9.798   6.957   0.676  4.3587  3.3419 -1.2887
  982MOL0     H32559   9.753   7.166   0.552  1.3614 -0.3675 -0.3699
  982MOL0     H32560   9.656   7.172   0.117  4.1832 -1.1993  1.2221
  982MOL0     H32561   9.560   7.261   0.235 -0.4261 -1.5978  1.0859
  982MOL0     H32562   9.699   7.408   0.051 -1.1823  3.0500  1.0485
  982MOL0     H32563   9.844   7.364   0.141 -0.3448 -1.3559  0.6050
  982MOL0     H32564   9.784   7.574   0.253  0.6344  0.0336 -0.0851
  982MOL0     H32565   9.713   7.451   0.356  2.0745  1.9730  0.3224
  982MOL0     H32566   9.596   7.605   0.140  2.7105  0.2878  0.5511
  982MOL0     H32567   9.609   7.654   0.321 -2.8780  1.0916  0.3375
  982MOL0     H32568   9.303   7.382   0.375 -1.8736  1.4040 -1.9634
  982MOL0     H32569   9.707   6.971   0.183  0.3139 -0.2285 -0.0045
  982MOL0     H32570   9.705   6.748   0.313 -0.6206  0.1447 -0.6055
  983MOL0     O32571   5.983   2.496   1.898  0.3391 -0.0156  0.6651
  983MOL0     C32572   5.940   2.473   1.784 -0.9510  0.4492  0.7602
  983MOL0     O32573   5.936   2.352   1.718 -0.6290  0.6228 -1.0141
  983MOL0     C32574   5.951   2.232   1.786 -0.6907  0.2106 -0.3671
  983MOL0     C32575   5.914   2.125   1.716 -0.1836 -0.5579 -0.4564
  983MOL0     C32576   5.931   1.998   1.760  0.2105  0.1211  0.1078
  983MOL0     C32577   5.989   1.967   1.878 -0.1967  0.1410 -1.2109
  983MOL0     O32578   5.985   1.837   1.932  0.2472 -0.8666 -0.0204
  983MOL0     C32579   6.000   1.810   2.075  0.2258  0.4380  0.3064
  983MOL0     C32580   6.047   1.662   2.084 -1.1544  0.2052 -0.0385
  983MOL0     C32581   6.185   1.639   2.009  0.1128 -1.0141  0.6826
  983MOL0     C32582   6.291   1.696   2.107  0.0915 -0.4463  0.7473
  983MOL0     C32583   6.436   1.690   2.052 -0.0728 -0.2918 -0.3683
  983MOL0     C32584   6.473   1.542   2.031  0.0090 -0.2118  0.5882
  983MOL0     C32585   6.612   1.506   1.985  1.1267 -0.4363 -0.0002
  983MOL0     C32586   6.708   1.483   2.096  0.3475 -0.6415 -0.8131
  983MOL0     N32587   6.811   1.583   2.112 -0.1797 -0.6295  0.1597
  983MOL0     C32588   6.801   1.713   2.160 -0.4594 -0.3534  0.1136
  983MOL0     C32589   6.929   1.761   2.139 -0.2001 -0.5057  0.5517
  983MOL0     C32590   6.960   1.900   2.178 -0.7814  0.3071 -0.5969
  983MOL0     C32591   6.900   1.993   2.071 -0.0595 -0.4475 -0.8806
  983MOL0     C32592   6.880   2.143   2.126  1.8415 -0.5316 -0.3177
  983MOL0     C32593   6.843   2.253   2.029  0.0324 -0.0185 -0.2615
  983MOL0     O32594   6.755   2.338   2.106 -0.2075 -0.7215  0.3194
  983MOL0     C32595   6.743   2.478   2.080  0.1628  0.0942 -0.5190
  983MOL0     C32596   6.779   2.530   1.955 -0.5394 -0.1005 -0.5072
  983MOL0     C32597   6.754   2.667   1.924  0.5057  1.0209 -0.4762
  983MOL0     C32598   6.805   2.713   1.789  0.3860  0.6821  0.5001
  983MOL0     C32599   6.686   2.750   2.024 -0.4244 -0.2444  1.5036
  983MOL0     C32600   6.668   2.903   2.023 -0.0970  0.1998 -0.0499
  983MOL0     O32601   6.619   2.971   2.134 -0.0917 -0.3629 -0.0878
  983MOL0     C32602   6.580   3.102   2.116 -0.4451 -0.3562  0.1236
  983MOL0     C32603   6.663   3.197   2.050  0.2821  0.4513  0.1408
  983MOL0     C32604   6.623   3.335   2.055  0.8788  0.3949 -0.0039
  983MOL0     C32605   6.503   3.369   2.124 -0.7489 -0.0919  0.0463
  983MOL0     O32606   6.468   3.499   2.158  0.1641  0.2680  0.1471
  983MOL0     C32607   6.520   3.610   2.074  0.6177 -0.0010 -1.2873
  983MOL0     C32608   6.439   3.729   2.120 -0.0099  0.4041  0.1437
  983MOL0     C32609   6.481   3.863   2.042 -0.1608  1.1750  0.4804
  983MOL0     C32610   6.622   3.916   2.065  0.3786  0.8239  0.6370
  983MOL0     C32611   6.623   4.054   1.996 -0.2408  0.5232 -0.4854
  983MOL0     C32612   6.742   4.139   2.041 -0.3838 -0.6297  0.3987
  983MOL0     C32613   6.768   4.275   1.974  0.4710 -0.2989  0.4390
  983MOL0     C32614   6.652   4.363   1.941 -0.0623  0.0086  0.1933
  983MOL0    Cl32615   6.562   4.386   2.095  0.3870 -0.0016  0.3251
  983MOL0     C32616   6.434   3.269   2.189  0.9350 -0.4495  0.1403
  983MOL0     C32617   6.461   3.135   2.170  0.0710 -0.6136 -0.3700
  983MOL0     O32618   6.679   2.949   1.914  0.1812  0.2784 -0.9556
  983MOL0     C32619   6.633   2.687   2.132 -0.5840 -0.2488  0.5545
  983MOL0     C32620   6.662   2.558   2.163 -0.4675 -1.1705 -0.3812
  983MOL0     N32621   6.997   1.681   2.047 -0.8970 -0.1116  0.8536
  983MOL0     N32622   6.926   1.572   2.037  0.3682 -0.9822 -0.3372
  983MOL0     C32623   6.012   2.078   1.963 -0.3447  0.6749  0.2620
  983MOL0     C32624   5.998   2.212   1.917  0.2656  0.3868 -0.3698
  983MOL0     C32625   5.901   2.587   1.706  0.2134 -1.4039 -0.0511
  983MOL0     C32626   5.907   2.573   1.561 -1.0066 -0.9384 -0.2487
  983MOL0     C32627   5.873   2.691   1.476 -0.6327  0.6724  0.0615
  983MOL0     C32628   5.830   2.814   1.533 -0.7518  0.0618  0.2075
  983MOL0     O32629   5.793   2.930   1.465  0.2571  0.2110  0.7874
  983MOL0     C32630   5.839   2.944   1.329 -0.6908 -1.0711 -0.5832
  983MOL0     C32631   5.989   2.948   1.322 -0.0418 -0.4809  0.6712
  983MOL0     C32632   6.041   2.991   1.183 -0.4435  0.1971 -0.4740
  983MOL0     C32633   6.164   2.911   1.148 -0.9266  0.3659 -0.6021
  983MOL0     C32634   6.220   2.962   1.010 -0.1944  0.0226 -0.7543
  983MOL0     C32635   6.275   2.989   0.908  0.0388 -0.8688 -0.2926
  983MOL0     C32636   5.818   2.820   1.673  0.3283  0.1131 -0.3352
  983MOL0     C32637   5.853   2.705   1.754 -0.6900 -0.6086 -0.2769
  983MOL0     H32638   5.874   2.136   1.616  2.6001  1.2749 -1.4877
  983MOL0     H32639   5.889   1.919   1.699  2.1321  0.0908 -1.2342
  983MOL0     H32640   6.078   1.863   2.130 -0.3426  1.1977  0.4057
  983MOL0     H32641   5.905   1.800   2.128  0.6358 -2.3514  0.6625
  983MOL0     H32642   6.047   1.627   2.188  1.1013 -0.8422 -0.3217
  983MOL0     H32643   5.975   1.597   2.033  0.3263 -2.5831  1.2036
  983MOL0     H32644   6.200   1.532   1.989  2.6591 -0.7328  0.6580
  983MOL0     H32645   6.200   1.676   1.907  0.1805 -1.1289  0.6499
  983MOL0     H32646   6.277   1.804   2.116  0.0105 -0.4088  0.2304
  983MOL0     H32647   6.287   1.657   2.209  2.0558 -1.2329  0.5687
  983MOL0     H32648   6.452   1.738   1.955 -0.2840 -1.1742 -0.8556
  983MOL0     H32649   6.500   1.745   2.122  0.6019  1.3504 -2.1746
  983MOL0     H32650   6.458   1.498   2.130 -0.0750  3.6948  2.5317
  983MOL0     H32651   6.403   1.505   1.956  0.6618 -0.6377  0.1799
  983MOL0     H32652   6.597   1.414   1.928 -0.3880  1.7525 -3.5057
  983MOL0     H32653   6.666   1.574   1.918  0.1153  1.3968  0.9688
  983MOL0     H32654   6.760   1.387   2.093  1.5825  0.0496 -2.3188
  983MOL0     H32655   6.654   1.484   2.191  1.8785  1.4145  0.1303
  983MOL0     H32656   6.723   1.767   2.212  3.5615  3.6274  2.7405
  983MOL0     H32657   6.926   1.916   2.280  0.7819  1.9535 -0.2723
  983MOL0     H32658   7.065   1.929   2.183 -1.1143  1.4362  0.0018
  983MOL0     H32659   6.802   1.960   2.038  0.6187 -3.2668 -0.3453
  983MOL0     H32660   6.966   1.979   1.985  0.0476 -1.6451 -0.6139
  983MOL0     H32661   6.975   2.170   2.174  1.7081  2.7297 -1.6629
  983MOL0     H32662   6.806   2.141   2.206 -0.5200  0.8384 -2.3460
  983MOL0     H32663   6.802   2.235   1.930 -2.7389  3.3785  0.0857
  983MOL0     H32664   6.932   2.313   2.010  0.4203 -1.0741 -1.9305
  983MOL0     H32665   6.829   2.466   1.884 -0.0822 -0.4070  0.0875
  983MOL0     H32666   6.867   2.803   1.794 -0.3728  1.3572 -1.2950
  983MOL0     H32667   6.881   2.643   1.751 -0.4709 -0.0305  0.0593
  983MOL0     H32668   6.733   2.706   1.707  3.3237 -1.6147 -2.1531
  983MOL0     H32669   6.756   3.163   2.005  1.3429 -0.0706  2.5530
  983MOL0     H32670   6.676   3.412   2.000 -3.4885  2.1516 -2.2265
  983MOL0     H32671   6.624   3.629   2.100  0.5802 -1.5731  0.1887
  983MOL0     H32672   6.516   3.598   1.965  3.5494  1.5197 -1.6457
  983MOL0     H32673   6.335   3.705   2.096  0.2923 -1.5887  0.6705
  983MOL0     H32674   6.445   3.735   2.229  1.6810  0.6964  0.0584
  983MOL0     H32675   6.410   3.938   2.081 -1.5869 -0.1113  0.4484
  983MOL0     H32676   6.448   3.847   1.939 -4.5494  2.0558  1.5420
  983MOL0     H32677   6.649   3.925   2.171  1.8935 -0.1614  0.3580
  983MOL0     H32678   6.695   3.849   2.019 -1.9217 -1.3075 -0.1555
  983MOL0     H32679   6.527   4.106   2.002 -1.0137 -0.7052 -1.6378
  983MOL0     H32680   6.642   4.019   1.894  1.1144 -0.1503 -0.0179
  983MOL0     H32681   6.730   4.146   2.150 -0.9938 -0.5774  0.3351
  983MOL0     H32682   6.828   4.082   2.004 -0.2324 -0.7683  0.9612
  983MOL0     H32683   6.826   4.244   1.887 -0.8410 -1.9463  0.0964
  983MOL0     H32684   6.835   4.338   2.034  1.7688  0.3294 -1.5577
  983MOL0     H32685   6.588   4.313   1.867  0.2838  1.4968 -1.1647
  983MOL0     H32686   6.688   4.458   1.903 -0.0600  1.0495  2.5968
  983MOL0     H32687   6.342   3.308   2.230  1.1062 -0.9417  1.0273
  983MOL0     H32688   6.397   3.057   2.209 -2.1457  1.7411  0.9865
  983MOL0     H32689   6.574   2.734   2.210  0.5575 -0.0467  1.3225
  983MOL0     H32690   6.619   2.506   2.248  0.1488  2.9121  2.7322
  983MOL0     H32691   6.057   2.057   2.060 -1.1844 -1.5811  0.2236
  983MOL0     H32692   6.025   2.287   1.990 -0.9834  0.3034  0.2126
  983MOL0     H32693   5.945   2.485   1.511  0.0769  0.5787 -2.2203
  983MOL0     H32694   5.876   2.681   1.368  3.0154 -2.6496  0.2555
  983MOL0     H32695   5.803   2.876   1.252 -0.2034  1.3628 -3.1387
  983MOL0     H32696   5.796   3.039   1.297  0.5223 -0.6494 -1.0496
  983MOL0     H32697   6.027   2.851   1.354 -2.8700 -1.9156 -0.0009
  983MOL0     H32698   6.022   3.026   1.391  1.2000  0.4976 -0.9555
  983MOL0     H32699   6.073   3.096   1.181 -4.0970  1.4952  0.3348
  983MOL0     H32700   5.971   2.983   1.100  1.3712  0.9935 -2.1523
  983MOL0     H32701   6.135   2.806   1.154  1.2046 -0.3130 -1.5599
  983MOL0     H32702   6.236   2.939   1.225 -1.3845  2.4878 -0.8544
  983MOL0     H32703   6.312   3.020   0.813  2.1144 -0.0895  0.7114
  983MOL0     H32704   5.770   2.907   1.717 -0.6527 -0.3465 -0.4749
  983MOL0     H32705   5.852   2.721   1.862 -0.2798 -0.9525 -0.2205
  984MOL0     O32706   1.053   1.733   2.096  0.0810 -0.1815  0.1647
  984MOL0     C32707   1.153   1.664   2.128  0.1071 -0.4011  0.3798
  984MOL0     O32708   1.157   1.578   2.236 -0.2569  0.0283 -0.5648
  984MOL0     C32709   1.047   1.596   2.316  0.1134 -0.7047  0.2521
  984MOL0     C32710   1.077   1.626   2.451  1.3079 -0.8461  0.7396
  984MOL0     C32711   0.976   1.627   2.550  0.2714  0.5980 -0.5388
  984MOL0     C32712   0.841   1.611   2.502  0.5332  0.3793 -0.4982
  984MOL0     O32713   0.745   1.594   2.603 -0.9000  0.1064  0.8730
  984MOL0     C32714   0.608   1.594   2.558  0.0004 -0.0405  0.1649
  984MOL0     C32715   0.523   1.603   2.681 -0.7067 -0.6771  0.7063
  984MOL0     C32716   0.514   1.737   2.751  0.0369  0.2795  0.3192
  984MOL0     C32717   0.607   1.765   2.871 -0.3461 -0.3627  0.1013
  984MOL0     C32718   0.573   1.891   2.950  0.3284 -0.2428  0.6175
  984MOL0     C32719   0.455   1.860   3.041 -1.1016 -0.3107  0.1757
  984MOL0     C32720   0.397   1.991   3.113 -1.0415  0.9912  0.7726
  984MOL0     C32721   0.428   1.992   3.259 -0.3523 -0.8481  0.0213
  984MOL0     N32722   0.560   1.947   3.298 -0.9043  0.7405 -0.1610
  984MOL0     C32723   0.667   2.038   3.305 -0.1503  0.7218  0.8530
  984MOL0     C32724   0.759   1.978   3.379 -0.4799  0.3324  0.0532
  984MOL0     C32725   0.894   2.033   3.402 -0.1520  0.8405 -0.6255
  984MOL0     C32726   0.903   2.160   3.492 -0.0427 -0.1437 -0.2978
  984MOL0     C32727   0.877   2.135   3.639  0.0109  0.8913  0.3847
  984MOL0     C32728   0.840   2.258   3.704  1.0454 -1.4791  0.3443
  984MOL0     O32729   0.812   2.265   3.846 -0.5445  0.6998 -0.4847
  984MOL0     C32730   0.741   2.372   3.894 -0.1346 -0.7986  0.2750
  984MOL0     C32731   0.659   2.364   4.000  0.1303 -0.2093  0.6258
  984MOL0     C32732   0.576   2.459   4.052  0.0725 -0.5696  0.1408
  984MOL0     C32733   0.484   2.426   4.175  0.4514  0.8016 -0.0931
  984MOL0     C32734   0.577   2.592   3.990 -1.1847 -0.2904  0.6372
  984MOL0     C32735   0.494   2.706   4.027  0.5588 -0.5339  1.1753
  984MOL0     O32736   0.482   2.806   3.924 -0.4596 -0.0427 -0.7082
  984MOL0     C32737   0.449   2.934   3.946 -0.1227 -0.6079  0.8366
  984MOL0     C32738   0.380   3.008   3.839 -0.1456  0.0668  0.1829
  984MOL0     C32739   0.370   3.147   3.850  0.0863 -0.4027  0.6528
  984MOL0     C32740   0.409   3.222   3.968  0.1172 -0.5279  0.2034
  984MOL0     O32741   0.389   3.353   3.973 -0.9319 -0.4987 -0.5684
  984MOL0     C32742   0.479   3.422   3.892  0.1410  0.1498  0.0041
  984MOL0     C32743   0.404   3.544   3.833 -0.6558  0.0050 -0.0144
  984MOL0     C32744   0.332   3.631   3.935  0.1123 -0.9751 -0.7242
  984MOL0     C32745   0.305   3.777   3.878  0.4219 -0.3283  0.1003
  984MOL0     C32746   0.237   3.873   3.981  0.3062 -0.2508  0.1760
  984MOL0     C32747   0.315   3.914   4.105 -0.9298  0.6881 -0.7362
  984MOL0     C32748   0.264   4.033   4.178 -0.2109  0.4765  0.3410
  984MOL0     C32749   0.112   4.019   4.213 -0.1410  0.3396 -0.1067
  984MOL0    Cl32750   0.108   3.863   4.315 -0.3225 -0.3681  0.2022
  984MOL0     C32751   0.472   3.148   4.071 -0.4561  0.7043  0.0718
  984MOL0     C32752   0.496   3.011   4.057  0.4669  0.3275  0.3569
  984MOL0     O32753   0.432   2.717   4.137 -0.4294  0.0046 -0.0843
  984MOL0     C32754   0.669   2.601   3.878  0.7085  0.2093 -0.9494
  984MOL0     C32755   0.747   2.499   3.827  1.2214 -0.3907 -0.2536
  984MOL0     N32756   0.721   1.849   3.409  0.3346 -0.2047 -0.3168
  984MOL0     N32757   0.600   1.830   3.369  0.4926 -0.9352  0.2010
  984MOL0     C32758   0.807   1.582   2.365 -0.9392 -0.5065 -0.2962
  984MOL0     C32759   0.914   1.574   2.272  0.5368 -0.1734  0.2815
  984MOL0     C32760   1.279   1.663   2.044 -1.0766 -0.7900  0.6688
  984MOL0     C32761   1.288   1.726   1.913  0.2988  0.1567 -0.4890
  984MOL0     C32762   1.414   1.735   1.848 -0.8848 -0.7341 -0.4009
  984MOL0     C32763   1.534   1.681   1.903 -0.6269  0.0569  1.8621
  984MOL0     O32764   1.661   1.721   1.839 -0.1338  0.4464  0.0907
  984MOL0     C32765   1.785   1.664   1.904  0.4899 -0.0798 -0.2187
  984MOL0     C32766   1.909   1.703   1.824  0.7818  0.5498  0.1871
  984MOL0     C32767   2.030   1.619   1.886 -0.3116 -0.1337  0.3399
  984MOL0     C32768   2.157   1.681   1.824  0.8116  0.1455 -0.2024
  984MOL0     C32769   2.227   1.790   1.898 -0.1551  0.6954 -0.9218
  984MOL0     C32770   2.284   1.858   1.987 -0.8059 -0.1521 -0.1439
  984MOL0     C32771   1.525   1.603   2.027 -0.5208  0.0314  0.3270
  984MOL0     C32772   1.399   1.608   2.096 -0.1182  0.5907  0.2945
  984MOL0     H32773   1.179   1.629   2.489 -0.0102  1.4231  4.8024
  984MOL0     H32774   1.003   1.626   2.655 -2.0459 -1.5954  0.1344
  984MOL0     H32775   0.591   1.662   2.474 -0.8982 -1.7602 -1.1164
  984MOL0     H32776   0.576   1.498   2.514 -0.8363  0.7053 -0.9121
  984MOL0     H32777   0.423   1.584   2.641 -0.0500  1.9551 -2.6886
  984MOL0     H32778   0.566   1.528   2.748 -2.1081  0.6371  3.2299
  984MOL0     H32779   0.521   1.825   2.687 -0.4292  0.9499  1.1657
  984MOL0     H32780   0.412   1.750   2.790 -1.8152 -1.3736 -3.5055
  984MOL0     H32781   0.604   1.686   2.947  3.3471 -1.0503 -0.2732
  984MOL0     H32782   0.711   1.774   2.838  0.8644 -3.1477  2.6884
  984MOL0     H32783   0.654   1.921   3.017 -0.5884 -3.1626  3.2907
  984MOL0     H32784   0.545   1.976   2.887 -0.0413 -1.4245 -0.8827
  984MOL0     H32785   0.373   1.816   2.983 -3.4704  1.2112  2.1531
  984MOL0     H32786   0.476   1.783   3.115  1.6897  0.2373  0.0504
  984MOL0     H32787   0.437   2.083   3.069 -1.2348 -0.2523 -2.3078
  984MOL0     H32788   0.292   2.004   3.088 -0.9271  1.8615  0.7100
  984MOL0     H32789   0.357   1.919   3.300  0.0662 -0.9064  0.6674
  984MOL0     H32790   0.410   2.084   3.315  2.1470  0.0754 -0.5585
  984MOL0     H32791   0.670   2.132   3.250  0.0450  0.8505  1.0831
  984MOL0     H32792   0.948   1.953   3.453 -2.5522 -2.1204 -2.3942
  984MOL0     H32793   0.924   2.060   3.300 -0.3144  2.9934 -0.1591
  984MOL0     H32794   0.844   2.242   3.450 -0.5254 -0.1257  0.3967
  984MOL0     H32795   1.006   2.198   3.487 -0.4708  1.4962  1.9143
  984MOL0     H32796   0.965   2.107   3.698 -1.0903  1.6615  2.4641
  984MOL0     H32797   0.790   2.070   3.650  0.8376 -0.1302  1.0953
  984MOL0     H32798   0.748   2.286   3.651 -1.3115 -2.5681  3.5465
  984MOL0     H32799   0.906   2.342   3.685 -0.1226 -0.0296  2.3324
  984MOL0     H32800   0.650   2.267   4.046 -1.6698  0.7810  2.4827
  984MOL0     H32801   0.376   2.426   4.154  0.7243  0.4461 -1.6119
  984MOL0     H32802   0.506   2.328   4.219 -0.0815 -0.3895 -2.3355
  984MOL0     H32803   0.499   2.510   4.244 -2.0862  2.1713 -1.0718
  984MOL0     H32804   0.347   2.955   3.751  3.4327 -0.5285 -0.9644
  984MOL0     H32805   0.323   3.195   3.765 -2.0980 -3.7922 -0.2350
  984MOL0     H32806   0.563   3.444   3.959  0.4756 -4.5229  1.5040
  984MOL0     H32807   0.530   3.359   3.818 -0.1312  2.7184 -2.5741
  984MOL0     H32808   0.477   3.609   3.783  2.7667 -4.0523 -0.9441
  984MOL0     H32809   0.323   3.512   3.767 -1.0617 -0.7809  0.8496
  984MOL0     H32810   0.398   3.662   4.016  0.2220 -1.2515 -0.7039
  984MOL0     H32811   0.243   3.582   3.976 -0.2419  1.4718  1.6698
  984MOL0     H32812   0.405   3.808   3.846  2.4467 -3.6936  2.4855
  984MOL0     H32813   0.237   3.769   3.792  1.0124  3.6562 -0.9008
  984MOL0     H32814   0.140   3.827   4.002 -1.9858  2.2158 -3.6549
  984MOL0     H32815   0.222   3.963   3.921 -0.2474  0.9821  2.1043
  984MOL0     H32816   0.312   3.828   4.172 -2.2810  2.7712  2.1238
  984MOL0     H32817   0.417   3.939   4.075 -0.1863  0.6377  1.5660
  984MOL0     H32818   0.289   4.122   4.120  0.9045 -0.1390 -0.1496
  984MOL0     H32819   0.323   4.043   4.269  0.7908  2.0522 -0.4485
  984MOL0     H32820   0.064   4.018   4.115  0.0057 -1.8643 -0.2054
  984MOL0     H32821   0.069   4.095   4.279  1.1509  0.6787  0.3744
  984MOL0     H32822   0.512   3.200   4.158 -0.7372 -0.5081  0.9489
  984MOL0     H32823   0.540   2.956   4.139 -0.8084 -2.6422 -0.8275
  984MOL0     H32824   0.683   2.693   3.823  4.2007  0.6440  0.4353
  984MOL0     H32825   0.812   2.511   3.741 -0.9377 -0.0999 -1.9277
  984MOL0     H32826   0.709   1.565   2.323 -0.9936 -0.9278 -0.0079
  984MOL0     H32827   0.902   1.562   2.165  4.1007  3.1631 -0.7274
  984MOL0     H32828   1.195   1.758   1.869 -1.4700 -3.1604  0.4674
  984MOL0     H32829   1.418   1.804   1.764  1.0985  1.9413  1.6826
  984MOL0     H32830   1.787   1.702   2.007 -0.5292  3.3166 -1.3325
  984MOL0     H32831   1.776   1.555   1.908 -1.1697 -0.1319 -3.0157
  984MOL0     H32832   1.921   1.812   1.819  3.1179  0.3731  0.9622
  984MOL0     H32833   1.891   1.669   1.722 -0.1043  0.4624  0.3633
  984MOL0     H32834   2.022   1.511   1.877  2.0986 -0.6223  2.9220
  984MOL0     H32835   2.036   1.641   1.993 -0.2223 -0.0486  0.3172
  984MOL0     H32836   2.132   1.700   1.719 -2.2463 -1.3161  0.1348
  984MOL0     H32837   2.226   1.597   1.816  0.5508 -0.0799 -0.1231
  984MOL0     H32838   2.343   1.917   2.054 -0.3547 -1.2787  0.4841
  984MOL0     H32839   1.612   1.555   2.071 -2.4572 -1.2596  3.0732
  984MOL0     H32840   1.391   1.560   2.193  3.0277  0.8772  0.8058
  985MOL0     O32841  10.552   8.480   3.430  0.4377  0.0047 -0.2751
  985MOL0     C32842  10.441   8.498   3.466 -0.2207 -0.1915  0.4043
  985MOL0     O32843  10.373   8.432   3.568 -0.1684 -0.3405  0.2610
  985MOL0     C32844  10.433   8.360   3.667  0.0636  0.0375 -1.1759
  985MOL0     C32845  10.336   8.293   3.746  0.3522  0.1436 -1.3130
  985MOL0     C32846  10.377   8.198   3.844  0.6721 -0.2391 -0.7330
  985MOL0     C32847  10.518   8.171   3.866 -1.0111 -0.5112 -0.8484
  985MOL0     O32848  10.557   8.100   3.968 -0.7452  0.3792  0.1106
  985MOL0     C32849  10.681   8.021   3.945 -0.0754  0.9165  0.4088
  985MOL0     C32850  10.712   7.942   4.073 -0.5393 -1.0964  0.1517
  985MOL0     C32851  10.629   7.826   4.089 -0.2989 -0.5773 -0.7821
  985MOL0     C32852  10.684   7.701   4.164 -0.3895 -0.3545 -0.9835
  985MOL0     C32853  10.729   7.724   4.316 -1.7329 -0.2683 -0.1935
  985MOL0     C32854  10.785   7.600   4.393 -0.3210 -0.0343 -0.0851
  985MOL0     C32855  10.885   7.506   4.329  1.3329 -0.3714 -0.8920
  985MOL0     C32856  11.028   7.558   4.303  0.6725  0.5451  0.1078
  985MOL0     N32857  11.062   7.691   4.369  0.4005  0.1184 -0.0835
  985MOL0     C32858  11.073   7.716   4.511 -0.3001 -0.3208  0.6890
  985MOL0     C32859  11.135   7.839   4.516  0.8249 -0.5726 -0.4363
  985MOL0     C32860  11.153   7.931   4.628 -0.8553  0.4556  0.5832
  985MOL0     C32861  11.034   8.006   4.685 -0.5673 -0.5065 -0.5032
  985MOL0     C32862  10.964   8.095   4.584 -0.7521  0.8394  0.5598
  985MOL0     C32863  10.825   8.115   4.639  0.4345 -0.7152 -0.3050
  985MOL0     O32864  10.831   8.232   4.719  0.1181 -0.1610 -0.8441
  985MOL0     C32865  10.706   8.288   4.721  0.3845 -0.6433 -0.1581
  985MOL0     C32866  10.605   8.244   4.805  0.3163 -0.4491  0.7687
  985MOL0     C32867  10.472   8.302   4.810 -0.4293  0.9526  1.4515
  985MOL0     C32868  10.375   8.239   4.904  0.9121  1.0206  0.6584
  985MOL0     C32869  10.437   8.409   4.722  0.0676  0.5968  0.1102
  985MOL0     C32870  10.303   8.485   4.726  0.5612  0.3395 -0.1924
  985MOL0     O32871  10.287   8.568   4.622  0.9864  0.4920  1.0994
  985MOL0     C32872  10.231   8.689   4.619  0.0806 -0.0765 -0.1964
  985MOL0     C32873  10.235   8.739   4.488 -0.6079  0.1632  0.0844
  985MOL0     C32874  10.175   8.868   4.465 -1.0840 -0.0969  0.4421
  985MOL0     C32875  10.132   8.945   4.566 -0.0488  0.1597  0.5592
  985MOL0     O32876  10.086   9.066   4.523  0.5133 -1.1623 -0.7957
  985MOL0     C32877  10.046   9.151   4.632 -0.2477 -0.9570 -0.1756
  985MOL0     C32878   9.968   9.278   4.578 -0.2197  0.3590  0.2555
  985MOL0     C32879   9.911   9.356   4.694 -0.2808  0.3862 -0.2517
  985MOL0     C32880   9.775   9.289   4.737 -0.8624 -0.3734  0.6165
  985MOL0     C32881   9.671   9.393   4.793 -0.7449 -0.3034  0.3257
  985MOL0     C32882   9.563   9.329   4.870  1.4184  0.2594  0.3271
  985MOL0     C32883   9.448   9.430   4.900  0.7849 -0.0574 -0.1444
  985MOL0     C32884   9.359   9.375   5.025 -0.2914 -0.0352 -0.9076
  985MOL0    Cl32885   9.259   9.502   5.102  0.3743  0.4706  0.0406
  985MOL0     C32886  10.127   8.893   4.700 -0.7969  0.1845  1.5325
  985MOL0     C32887  10.177   8.763   4.726  0.5460  0.8260  0.3860
  985MOL0     O32888  10.232   8.478   4.824  0.2187 -0.5014 -0.1690
  985MOL0     C32889  10.546   8.461   4.643  0.0787 -0.2071 -1.1256
  985MOL0     C32890  10.676   8.398   4.642  0.1272 -0.2073 -0.3942
  985MOL0     N32891  11.155   7.882   4.386  0.5623 -0.4240  0.2370
  985MOL0     N32892  11.115   7.792   4.306 -0.7780 -0.5404  0.2470
  985MOL0     C32893  10.611   8.236   3.773 -0.5827 -0.5847  0.8549
  985MOL0     C32894  10.576   8.332   3.681  0.6224 -0.3261 -0.9470
  985MOL0     C32895  10.363   8.601   3.388 -0.0560  0.7842 -0.2505
  985MOL0     C32896  10.226   8.593   3.365  0.7073 -0.1224  0.2147
  985MOL0     C32897  10.153   8.699   3.305  0.1173  0.0679 -0.1202
  985MOL0     C32898  10.217   8.811   3.258 -0.2928 -0.5439 -0.4116
  985MOL0     O32899  10.151   8.915   3.199 -0.4922 -0.1724 -0.8689
  985MOL0     C32900  10.038   8.905   3.119  0.3800  0.4602  0.3996
  985MOL0     C32901  10.050   9.005   3.004  0.4536  0.0392 -0.6733
  985MOL0     C32902  10.099   9.145   3.048  0.0357  0.3789  0.4290
  985MOL0     C32903  10.090   9.238   2.921 -0.4940  0.1539  0.1890
  985MOL0     C32904  10.145   9.372   2.939 -0.3167  0.3419  0.3761
  985MOL0     C32905  10.185   9.490   2.917 -0.3445 -0.1445 -1.0281
  985MOL0     C32906  10.359   8.820   3.278  0.3997  0.9514 -0.6401
  985MOL0     C32907  10.427   8.713   3.352  0.1206  0.1105  0.3289
  985MOL0     H32908  10.238   8.333   3.724  0.9002  2.1192 -0.3385
  985MOL0     H32909  10.314   8.143   3.913 -0.4519  0.4098 -1.2272
  985MOL0     H32910  10.674   7.949   3.862  2.1183 -1.8079  2.3770
  985MOL0     H32911  10.768   8.080   3.916 -0.7437  3.2303  2.7776
  985MOL0     H32912  10.819   7.917   4.069  0.5303  2.9961 -2.0298
  985MOL0     H32913  10.709   8.010   4.159  1.5022 -0.7481  0.0162
  985MOL0     H32914  10.533   7.866   4.122  0.0236  0.0370 -0.5754
  985MOL0     H32915  10.597   7.782   3.994 -0.5038 -3.0302  0.3338
  985MOL0     H32916  10.602   7.629   4.173 -1.6010  0.6125 -3.4401
  985MOL0     H32917  10.775   7.661   4.119  0.4694  0.1327  0.2408
  985MOL0     H32918  10.797   7.809   4.304  0.0378 -1.7356 -1.2830
  985MOL0     H32919  10.644   7.769   4.367 -3.1092 -3.9318  1.0452
  985MOL0     H32920  10.823   7.633   4.490 -1.2265 -3.0138  1.4038
  985MOL0     H32921  10.694   7.549   4.425 -2.6264  2.6503 -1.8211
  985MOL0     H32922  10.885   7.418   4.395 -3.6752 -0.8667 -1.2229
  985MOL0     H32923  10.844   7.478   4.232 -1.4839  1.9236 -0.4955
  985MOL0     H32924  11.045   7.567   4.195 -0.6879 -2.0951 -0.4098
  985MOL0     H32925  11.105   7.485   4.329  1.7338  1.1741 -1.0978
  985MOL0     H32926  11.032   7.642   4.579 -1.2481 -0.0214  0.4606
  985MOL0     H32927  11.201   7.866   4.703 -0.6349  0.2382  0.2546
  985MOL0     H32928  11.231   7.995   4.587 -1.4079  0.3237 -0.6924
  985MOL0     H32929  11.067   8.063   4.773 -0.5189 -1.0407 -0.1758
  985MOL0     H32930  10.969   7.934   4.734 -1.7196  0.2623 -0.8539
  985MOL0     H32931  10.939   8.041   4.492 -1.7059 -0.3931  1.5069
  985MOL0     H32932  11.029   8.184   4.580  0.3603  0.0306 -2.9555
  985MOL0     H32933  10.786   8.026   4.689  3.6869 -2.3501 -0.4100
  985MOL0     H32934  10.759   8.145   4.556 -0.6250  2.3584  1.4960
  985MOL0     H32935  10.630   8.174   4.885  1.5473 -0.9343 -0.0039
  985MOL0     H32936  10.274   8.226   4.863  0.8050 -0.3598  1.3161
  985MOL0     H32937  10.413   8.144   4.944 -2.5009 -0.2962  1.1645
  985MOL0     H32938  10.361   8.305   4.990 -0.9696 -0.2930  1.4325
  985MOL0     H32939  10.268   8.681   4.403 -0.3734  1.3882 -0.6749
  985MOL0     H32940  10.176   8.900   4.361  0.8973 -1.8825 -0.1765
  985MOL0     H32941   9.975   9.097   4.695 -1.2892 -1.0139 -1.3613
  985MOL0     H32942  10.139   9.181   4.681  0.5201  0.1845 -2.2011
  985MOL0     H32943  10.053   9.330   4.533 -0.4872  0.7083  0.1504
  985MOL0     H32944   9.894   9.252   4.501 -0.8284 -3.9492  2.0095
  985MOL0     H32945   9.893   9.459   4.660  2.4844  0.9018 -0.4392
  985MOL0     H32946   9.978   9.363   4.781 -0.1286  0.0828 -0.3436
  985MOL0     H32947   9.726   9.246   4.649  0.0507 -0.0839 -0.0528
  985MOL0     H32948   9.790   9.206   4.807  0.3549  0.2306  1.1083
  985MOL0     H32949   9.642   9.454   4.707  2.4387  0.7812 -0.1194
  985MOL0     H32950   9.733   9.457   4.857 -0.3069  1.9577 -2.2048
  985MOL0     H32951   9.520   9.253   4.804 -3.4173  2.2311  0.7950
  985MOL0     H32952   9.596   9.276   4.959  0.4534 -1.8476 -0.4970
  985MOL0     H32953   9.386   9.445   4.812 -0.3984 -0.1606  0.6555
  985MOL0     H32954   9.489   9.530   4.919  0.2825  0.0877  0.1922
  985MOL0     H32955   9.421   9.336   5.106 -1.1641  0.3502 -0.0277
  985MOL0     H32956   9.290   9.297   4.990 -2.1741  2.2683 -2.6070
  985MOL0     H32957  10.084   8.955   4.777  1.4022  0.8304  2.3343
  985MOL0     H32958  10.165   8.722   4.825  0.6697 -1.4273 -0.4800
  985MOL0     H32959  10.527   8.547   4.580 -2.0466  1.5794  1.7049
  985MOL0     H32960  10.758   8.443   4.586 -2.5014  3.4969 -1.7115
  985MOL0     H32961  10.716   8.229   3.796 -0.5658  2.3899  2.0999
  985MOL0     H32962  10.652   8.395   3.636  1.5568  0.0892  1.1052
  985MOL0     H32963  10.180   8.503   3.403  3.3392 -1.8412 -0.3770
  985MOL0     H32964  10.047   8.691   3.284 -0.0182  0.9832  0.1662
  985MOL0     H32965  10.034   8.804   3.078  1.8190  0.7971 -0.6806
  985MOL0     H32966   9.949   8.932   3.177 -1.5067 -0.3709 -1.9051
  985MOL0     H32967   9.958   9.014   2.946  0.7071 -0.9522 -1.2471
  985MOL0     H32968  10.133   8.974   2.940 -1.7068 -0.7810 -3.2376
  985MOL0     H32969  10.193   9.149   3.103 -0.7550 -1.7482  2.0960
  985MOL0     H32970  10.028   9.184   3.122  0.9875  2.7846  0.1826
  985MOL0     H32971   9.986   9.254   2.890 -1.1428  0.0063  2.1227
  985MOL0     H32972  10.144   9.185   2.842 -0.7093  0.5285 -0.2102
  985MOL0     H32973  10.238   9.576   2.881  1.0308 -0.9601 -1.0202
  985MOL0     H32974  10.423   8.902   3.246 -0.5769  1.9337 -0.1403
  985MOL0     H32975  10.534   8.728   3.364  0.3066 -0.6804 -0.2621
  986MOL0     O32976   2.160  10.159   5.016  0.7012  0.1492 -0.5814
  986MOL0     C32977   2.180  10.277   5.009 -0.5691 -0.4393  0.4294
  986MOL0     O32978   2.302  10.327   4.986 -0.5811  0.5151 -0.7482
  986MOL0     C32979   2.416  10.260   4.977  0.0363  0.4410 -0.5984
  986MOL0     C32980   2.489  10.251   4.854  0.5540 -0.2036 -0.5297
  986MOL0     C32981   2.618  10.202   4.832  0.0751  0.3499  0.9449
  986MOL0     C32982   2.687  10.166   4.954 -1.2606 -0.1764  0.8614
  986MOL0     O32983   2.821  10.117   4.934  0.2625 -0.1770  0.8220
  986MOL0     C32984   2.916  10.130   5.032 -0.0042  0.1647  0.4494
  986MOL0     C32985   2.946  10.017   5.114 -0.7013 -0.6259 -0.1994
  986MOL0     C32986   2.967   9.881   5.029 -0.0177  0.4047  0.4784
  986MOL0     C32987   3.016   9.758   5.105 -0.4043  0.1989 -0.6139
  986MOL0     C32988   3.072   9.641   5.020 -0.3274  0.1743  0.8028
  986MOL0     C32989   3.110   9.523   5.112 -1.1380  0.1158 -0.2389
  986MOL0     C32990   3.198   9.415   5.034  0.0862  0.4338 -0.3354
  986MOL0     C32991   3.312   9.363   5.118  0.5308  1.2415 -0.1150
  986MOL0     N32992   3.268   9.259   5.211  0.7370  0.4355  0.1215
  986MOL0     C32993   3.231   9.282   5.341  0.0496 -0.6424 -1.1610
  986MOL0     C32994   3.211   9.160   5.402  1.3417  0.1495  0.3552
  986MOL0     C32995   3.184   9.142   5.545 -0.6184 -0.1031 -0.1684
  986MOL0     C32996   3.309   9.165   5.626  0.0431 -0.8318  0.5182
  986MOL0     C32997   3.282   9.168   5.785 -0.0128  0.3641 -0.3966
  986MOL0     C32998   3.411   9.169   5.864  0.1073  0.2436 -0.6695
  986MOL0     O32999   3.509   9.244   5.800  0.0059 -0.3702  0.0893
  986MOL0     C33000   3.642   9.216   5.837  0.1904 -0.4437  0.3688
  986MOL0     C33001   3.693   9.171   5.963 -1.3879  0.7543  0.1916
  986MOL0     C33002   3.829   9.157   5.977  0.1900  0.4682 -0.2639
  986MOL0     C33003   3.862   9.085   6.106 -0.0279 -0.1133  0.1706
  986MOL0     C33004   3.926   9.202   5.879  0.7443 -0.2388  0.7246
  986MOL0     C33005   4.070   9.188   5.880 -1.2156 -0.3353  0.6374
  986MOL0     O33006   4.119   9.144   5.999 -0.0882 -0.3187  1.1597
  986MOL0     C33007   4.260   9.139   6.010 -0.2881  0.3320 -1.0710
  986MOL0     C33008   4.312   9.024   6.067  0.4964 -0.3905 -0.4959
  986MOL0     C33009   4.448   8.996   6.068 -1.1364  0.5661 -0.6428
  986MOL0     C33010   4.546   9.096   6.031  0.4585 -0.0137  0.8920
  986MOL0     O33011   4.676   9.065   6.046 -0.8401  0.0368 -0.7432
  986MOL0     C33012   4.763   9.176   6.097  0.4096 -0.5378 -1.3035
  986MOL0     C33013   4.909   9.131   6.136  0.6628 -0.7006 -0.1010
  986MOL0     C33014   4.955   9.029   6.027 -0.6252 -0.8006  0.3226
  986MOL0     C33015   4.994   9.089   5.886 -0.3731 -1.3159 -0.4446
  986MOL0     C33016   5.031   8.964   5.796  0.4317  0.6846  0.9677
  986MOL0     C33017   5.061   9.023   5.657  0.4746  1.2668  0.5718
  986MOL0     C33018   5.114   8.918   5.552  0.3186  0.2672 -0.1101
  986MOL0     C33019   5.101   8.981   5.421  0.1760 -0.4073  0.9304
  986MOL0    Cl33020   4.979   8.903   5.330  0.0937  0.9151  0.2214
  986MOL0     C33021   4.494   9.218   5.981 -0.7904 -0.0632 -0.2455
  986MOL0     C33022   4.356   9.229   5.964  0.4396  0.8119 -0.8596
  986MOL0     O33023   4.138   9.229   5.787 -0.2215  0.0582  0.1024
  986MOL0     C33024   3.870   9.259   5.756  0.6581 -0.2863 -0.4552
  986MOL0     C33025   3.727   9.268   5.744  0.1839  0.4270 -0.0996
  986MOL0     N33026   3.219   9.065   5.299 -0.2850  0.1737  0.2112
  986MOL0     N33027   3.260   9.121   5.192  0.4142 -0.1068  0.5826
  986MOL0     C33028   2.630  10.173   5.078 -0.8905  0.6445  0.0759
  986MOL0     C33029   2.499  10.217   5.091 -0.4336  0.2730 -0.5971
  986MOL0     C33030   2.061  10.364   4.997  0.6316  0.5229 -1.1277
  986MOL0     C33031   1.939  10.314   4.944  0.9497 -0.4770  0.1858
  986MOL0     C33032   1.832  10.401   4.922  0.0581  0.4592  0.1660
  986MOL0     C33033   1.838  10.538   4.952 -0.2860 -1.2094  0.3480
  986MOL0     O33034   1.730  10.622   4.953 -1.1428  0.5399 -0.3939
  986MOL0     C33035   1.671  10.651   4.823  0.0596 -1.0520 -0.5110
  986MOL0     C33036   1.764  10.716   4.728  0.1864  0.4834 -0.0672
  986MOL0     C33037   1.825  10.624   4.625  0.9202  0.3635 -0.1134
  986MOL0     C33038   1.917  10.692   4.526 -0.7374 -1.0857  0.4916
  986MOL0     C33039   1.855  10.810   4.455  0.0499  1.1996 -0.4298
  986MOL0     C33040   1.785  10.901   4.404 -0.1443  1.0764  0.1469
  986MOL0     C33041   1.957  10.584   5.017  0.3701 -0.1132  0.7244
  986MOL0     C33042   2.069  10.501   5.032 -0.1830  0.3620  0.2389
  986MOL0     H33043   2.446  10.285   4.761 -0.1709  0.8284  0.1537
  986MOL0     H33044   2.659  10.200   4.732 -0.0451  0.4031  0.8940
  986MOL0     H33045   3.004  10.147   4.969 -1.2059  1.3561 -0.9878
  986MOL0     H33046   2.886  10.223   5.081  0.3475  1.2142 -1.2758
  986MOL0     H33047   3.038  10.044   5.167 -2.1349  1.6903  1.2438
  986MOL0     H33048   2.875   9.994   5.194 -0.7230  0.5585  0.1319
  986MOL0     H33049   2.879   9.847   4.973 -1.1594 -0.5095  2.6861
  986MOL0     H33050   3.038   9.902   4.949 -2.3357  1.6469 -1.3539
  986MOL0     H33051   3.091   9.781   5.181 -2.0133 -6.2200  3.6990
  986MOL0     H33052   2.931   9.717   5.160  1.4180 -2.1164  0.5918
  986MOL0     H33053   2.991   9.626   4.948 -0.4795  2.5474  0.3987
  986MOL0     H33054   3.167   9.659   4.970  0.6679 -1.2564  2.0848
  986MOL0     H33055   3.171   9.562   5.194  1.5127 -0.2116 -1.9146
  986MOL0     H33056   3.014   9.485   5.147 -0.4102  0.3180  2.1736
  986MOL0     H33057   3.137   9.336   4.990 -1.1930  2.8842 -3.3483
  986MOL0     H33058   3.251   9.459   4.950  0.1601 -0.8765 -0.9992
  986MOL0     H33059   3.347   9.444   5.182 -2.1667 -0.7315  4.3711
  986MOL0     H33060   3.397   9.313   5.073  0.2262 -0.1311  0.7590
  986MOL0     H33061   3.229   9.378   5.392  1.0241 -2.2547  2.1864
  986MOL0     H33062   3.104   9.208   5.579  0.3032  0.1915  1.5116
  986MOL0     H33063   3.154   9.038   5.564  6.2493 -2.1815  2.1771
  986MOL0     H33064   3.362   9.250   5.582 -0.3112 -0.0933  1.4863
  986MOL0     H33065   3.382   9.085   5.608 -1.5973 -2.8107  2.0741
  986MOL0     H33066   3.228   9.077   5.814 -0.6355  0.7358 -0.3810
  986MOL0     H33067   3.224   9.255   5.815 -0.2430  1.3841 -3.4169
  986MOL0     H33068   3.444   9.065   5.874  0.4959  0.5265  1.4707
  986MOL0     H33069   3.394   9.201   5.967 -0.1783 -2.5714  0.2444
  986MOL0     H33070   3.628   9.127   6.038 -2.4728  0.1585 -1.0662
  986MOL0     H33071   3.925   9.142   6.174  1.0780 -2.1165  0.9183
  986MOL0     H33072   3.768   9.066   6.158 -2.2652  1.0479 -3.1148
  986MOL0     H33073   3.922   8.994   6.090  2.4070  1.2471  1.0251
  986MOL0     H33074   4.244   8.943   6.093 -0.9937  1.2140  0.9716
  986MOL0     H33075   4.481   8.905   6.117 -0.7045 -0.6176 -2.9903
  986MOL0     H33076   4.761   9.251   6.018 -4.0901  0.0436 -0.8763
  986MOL0     H33077   4.713   9.221   6.183  0.0080 -0.8852 -1.3527
  986MOL0     H33078   4.980   9.212   6.155  0.3905 -0.9223  2.2988
  986MOL0     H33079   4.909   9.085   6.236  0.3941  0.7650  0.6058
  986MOL0     H33080   4.878   8.951   6.017 -0.3651 -0.9452 -0.7812
  986MOL0     H33081   5.042   8.972   6.059 -1.7354 -2.1664  1.0675
  986MOL0     H33082   4.909   9.136   5.835 -1.7304  1.7785  4.0070
  986MOL0     H33083   5.077   9.159   5.902 -1.3845 -0.3484  0.7944
  986MOL0     H33084   4.950   8.890   5.804  1.6949 -0.7212  1.2073
  986MOL0     H33085   5.124   8.923   5.836  0.8472 -1.0267 -1.4987
  986MOL0     H33086   4.972   9.065   5.609  1.6971  0.2596 -2.8464
  986MOL0     H33087   5.139   9.100   5.664  0.6911  1.2571 -1.4162
  986MOL0     H33088   5.040   8.837   5.554  0.5944 -0.0708 -1.9198
  986MOL0     H33089   5.218   8.884   5.563  0.3531  0.5639  0.5462
  986MOL0     H33090   5.198   8.970   5.371 -0.4364  0.3872 -0.5152
  986MOL0     H33091   5.080   9.088   5.428  0.1853 -0.5138  2.9486
  986MOL0     H33092   4.563   9.298   5.958  0.0748 -0.6452  0.3041
  986MOL0     H33093   4.336   9.323   5.914  0.6569 -0.8485 -4.3511
  986MOL0     H33094   3.929   9.294   5.672 -0.5614  0.7660 -0.9137
  986MOL0     H33095   3.680   9.326   5.665 -1.5969  2.1459  2.0958
  986MOL0     H33096   2.693  10.147   5.163 -1.0731 -0.5952 -0.1457
  986MOL0     H33097   2.460  10.231   5.192  0.8261  0.6855 -0.1523
  986MOL0     H33098   1.925  10.210   4.914  1.2716 -0.4104 -0.1892
  986MOL0     H33099   1.736  10.379   4.877 -0.8922  3.9801  0.1507
  986MOL0     H33100   1.631  10.554   4.793 -0.6107 -0.4984 -1.4665
  986MOL0     H33101   1.592  10.725   4.842 -0.4158 -1.9975  1.5374
  986MOL0     H33102   1.850  10.765   4.774  1.7021 -0.4309 -1.8100
  986MOL0     H33103   1.705  10.788   4.670  1.3614  2.6311  1.2672
  986MOL0     H33104   1.748  10.563   4.576  2.7471 -2.8712  0.7400
  986MOL0     H33105   1.881  10.552   4.686 -0.8648 -0.8074  0.2377
  986MOL0     H33106   1.949  10.626   4.444 -0.4567  3.2729 -3.3162
  986MOL0     H33107   2.008  10.723   4.579 -1.4326  0.5817  0.7653
  986MOL0     H33108   1.738  10.989   4.366 -2.8114  1.7993  4.5259
  986MOL0     H33109   1.949  10.684   5.059 -0.8841  0.2628 -0.3230
  986MOL0     H33110   2.160  10.529   5.085 -0.7886  1.8714  0.5318
  987MOL0     O33111   5.883  10.665   0.730  0.2855  0.1918 -0.1088
  987MOL0     C33112   5.864  10.727   0.827  1.6043 -0.3968  0.2535
  987MOL0     O33113   5.958  10.790   0.897 -0.2108  0.8794 -0.6075
  987MOL0     C33114   6.088  10.767   0.862 -0.4397 -1.0727  0.0640
  987MOL0     C33115   6.140  10.633   0.847 -0.2581 -0.1160  0.4123
  987MOL0     C33116   6.283  10.616   0.818  0.3183 -0.2920  0.2234
  987MOL0     C33117   6.364  10.732   0.805  0.1393  0.8837 -0.1875
  987MOL0     O33118   6.492  10.723   0.770 -0.5057  0.4975  0.3472
  987MOL0     C33119   6.510  10.660   0.640  0.5287 -1.1294 -0.5538
  987MOL0     C33120   6.651  10.681   0.585 -0.0327  0.8106 -0.4615
  987MOL0     C33121   6.684  10.581   0.463  0.1483  0.0013  0.2842
  987MOL0     C33122   6.586  10.576   0.336 -0.1825 -0.1851 -1.0002
  987MOL0     C33123   6.583  10.718   0.268 -0.0180 -0.1830 -0.0627
  987MOL0     C33124   6.467  10.747   0.167  0.0484  0.2344  0.5525
  987MOL0     C33125   6.451  10.898   0.126  0.1734 -0.1557  0.0037
  987MOL0     C33126   6.308  10.927   0.067  0.0478 -0.2139 -0.6789
  987MOL0     N33127   6.286  11.068   0.037  0.5749 -0.1660 -0.0695
  987MOL0     C33128   6.176  11.130  -0.025  1.5218  0.6853 -1.6657
  987MOL0     C33129   6.206  11.259  -0.053 -0.6033  0.1636  0.6645
  987MOL0     C33130   6.106  11.341  -0.119 -0.1085 -0.1324  1.2232
  987MOL0     C33131   6.098  11.335  -0.272  0.1351 -0.0436  0.9199
  987MOL0     C33132   6.237  11.340  -0.345 -0.1809 -0.5807  0.3374
  987MOL0     C33133   6.220  11.357  -0.500  0.3647 -0.8274 -0.6840
  987MOL0     O33134   6.199  11.233  -0.569 -0.5138 -0.1710  0.1947
  987MOL0     C33135   6.301  11.140  -0.586 -0.4435  0.3648 -0.0066
  987MOL0     C33136   6.251  11.019  -0.648  0.0872  0.4220 -0.9931
  987MOL0     C33137   6.336  10.908  -0.668  0.3196  0.9903  0.6836
  987MOL0     C33138   6.275  10.784  -0.735 -0.5928  1.1065 -0.1538
  987MOL0     C33139   6.468  10.917  -0.628 -0.4293 -0.3584  0.3147
  987MOL0     C33140   6.563  10.801  -0.643 -0.2845 -0.6647 -2.0917
  987MOL0     O33141   6.600  10.747  -0.757 -1.1997  0.2002  0.0327
  987MOL0     C33142   6.654  10.629  -0.761  0.4282 -0.3874  0.8014
  987MOL0     C33143   6.570  10.529  -0.813  0.1477 -0.2699  0.6071
  987MOL0     C33144   6.618  10.390  -0.832 -0.3291 -0.0915 -0.1813
  987MOL0     C33145   6.759  10.365  -0.815 -0.0158 -0.2369 -1.3364
  987MOL0     O33146   6.803  10.235  -0.819  0.6619 -1.0727 -0.0267
  987MOL0     C33147   6.936  10.222  -0.858  0.1700  0.4533 -0.1121
  987MOL0     C33148   6.964  10.303  -0.988  0.1168 -0.0722  0.2334
  987MOL0     C33149   6.902  10.246  -1.122 -0.6791  0.5943 -0.0626
  987MOL0     C33150   6.932  10.348  -1.233 -0.7881 -0.6816  0.2640
  987MOL0     C33151   6.905  10.294  -1.377 -0.0759 -1.3140 -0.5140
  987MOL0     C33152   6.965  10.391  -1.481 -0.8430 -0.5238  0.0115
  987MOL0     C33153   6.869  10.512  -1.491  0.5878 -0.0975 -0.7210
  987MOL0     C33154   6.894  10.599  -1.617  0.4931 -0.6395 -0.4847
  987MOL0    Cl33155   7.056  10.665  -1.623  0.2513 -0.2857 -0.2737
  987MOL0     C33156   6.837  10.463  -0.746  0.0100 -0.1124  0.9022
  987MOL0     C33157   6.788  10.596  -0.733  0.4377  0.1285  0.7376
  987MOL0     O33158   6.621  10.774  -0.536  0.3065  0.6757  0.0426
  987MOL0     C33159   6.515  11.040  -0.572  0.1694 -0.2210  0.1190
  987MOL0     C33160   6.433  11.155  -0.551  0.7004  1.1207 -0.1028
  987MOL0     N33161   6.339  11.275  -0.014  0.7945  0.8068 -0.1557
  987MOL0     N33162   6.379  11.166   0.033  0.1498 -0.3999  0.1220
  987MOL0     C33163   6.307  10.858   0.816 -0.5928  1.4658 -1.3895
  987MOL0     C33164   6.174  10.874   0.853  0.0042  0.5954 -0.5102
  987MOL0     C33165   5.723  10.754   0.865  1.0575 -0.1109 -1.2223
  987MOL0     C33166   5.618  10.661   0.819 -0.8116  1.3719 -0.5062
  987MOL0     C33167   5.484  10.694   0.827  0.3057  0.0416  0.3646
  987MOL0     C33168   5.445  10.809   0.898 -0.9769 -0.2977 -0.1888
  987MOL0     O33169   5.313  10.829   0.919 -0.0364  0.2729 -0.2602
  987MOL0     C33170   5.235  10.903   0.821 -1.1922  0.2954 -0.1935
  987MOL0     C33171   5.141  10.804   0.750  0.2119  0.2960 -0.2865
  987MOL0     C33172   5.054  10.890   0.661  1.0227 -0.1513  0.0409
  987MOL0     C33173   4.940  10.814   0.613  0.3527  0.4540 -0.1358
  987MOL0     C33174   4.990  10.716   0.517 -0.3347 -0.4468  0.5476
  987MOL0     C33175   5.035  10.649   0.426  0.3663  0.4137 -0.5162
  987MOL0     C33176   5.550  10.897   0.947 -0.2172  0.1879 -0.2887
  987MOL0     C33177   5.687  10.872   0.936 -0.0235  0.4100 -0.5877
  987MOL0     H33178   6.073  10.547   0.848 -0.8061  0.2483  3.1973
  987MOL0     H33179   6.314  10.517   0.786  0.2403 -0.7106  1.3826
  987MOL0     H33180   6.491  10.553   0.651 -1.1764 -0.6042  3.6683
  987MOL0     H33181   6.431  10.692   0.572 -0.0707 -2.1425 -0.3541
  987MOL0     H33182   6.660  10.787   0.562 -1.1981  1.0751  0.2088
  987MOL0     H33183   6.722  10.659   0.666  1.2780  0.8352 -1.5701
  987MOL0     H33184   6.785  10.601   0.424 -1.6183  4.0572 -2.8873
  987MOL0     H33185   6.687  10.484   0.514  2.2789  0.3228  0.8862
  987MOL0     H33186   6.613  10.500   0.263 -1.7699 -0.6740 -1.1232
  987MOL0     H33187   6.486  10.551   0.374  0.3743 -2.0161 -0.6282
  987MOL0     H33188   6.572  10.793   0.347  1.4721 -0.4271  0.4054
  987MOL0     H33189   6.674  10.741   0.212 -1.5857  3.1481 -1.5338
  987MOL0     H33190   6.478  10.687   0.076  0.9873  2.7447 -1.1159
  987MOL0     H33191   6.376  10.724   0.223  0.0628  2.8252  1.7886
  987MOL0     H33192   6.474  10.965   0.210  1.7108 -1.1587  0.4139
  987MOL0     H33193   6.527  10.934   0.057 -1.8251  2.7101 -0.8695
  987MOL0     H33194   6.227  10.896   0.134  0.2276  1.2358  0.2582
  987MOL0     H33195   6.296  10.869  -0.025  0.0286 -1.7378  0.2345
  987MOL0     H33196   6.078  11.090  -0.049  1.4231  0.3201 -0.6874
  987MOL0     H33197   6.006  11.308  -0.088 -0.6827 -0.9326 -1.2971
  987MOL0     H33198   6.118  11.445  -0.087 -2.1603 -0.2349  2.5589
  987MOL0     H33199   6.050  11.429  -0.296  1.1311  1.0889  3.0201
  987MOL0     H33200   6.038  11.250  -0.305 -0.5922  0.3058  1.3102
  987MOL0     H33201   6.286  11.245  -0.323 -2.1728 -1.0837  3.0458
  987MOL0     H33202   6.289  11.429  -0.307 -0.9392  0.0600 -0.0944
  987MOL0     H33203   6.309  11.409  -0.535 -1.0205  2.9150  0.8114
  987MOL0     H33204   6.138  11.429  -0.513  1.6552  0.9726  0.6035
  987MOL0     H33205   6.145  11.022  -0.673 -0.2729  0.1467  0.3882
  987MOL0     H33206   6.169  10.767  -0.714 -0.2585 -0.9337  0.0720
  987MOL0     H33207   6.274  10.789  -0.844 -4.0256  1.2171 -0.2163
  987MOL0     H33208   6.331  10.697  -0.699  2.8671  1.9512 -2.8929
  987MOL0     H33209   6.467  10.554  -0.837 -0.3637 -0.5124  2.4335
  987MOL0     H33210   6.554  10.310  -0.869  2.8322 -4.3490  2.6170
  987MOL0     H33211   7.006  10.257  -0.781 -1.3259  0.7349  1.1768
  987MOL0     H33212   6.960  10.118  -0.880  1.5584  0.6167  0.5100
  987MOL0     H33213   6.937  10.406  -0.964 -2.3841 -0.4099 -0.8160
  987MOL0     H33214   7.073  10.302  -1.005  0.2043 -1.4560  0.7771
  987MOL0     H33215   6.794  10.240  -1.106 -0.5811  2.5255  1.8645
  987MOL0     H33216   6.957  10.156  -1.151  0.0411  1.0969 -0.3085
  987MOL0     H33217   6.875  10.441  -1.219  1.1868  0.3389  2.1107
  987MOL0     H33218   7.038  10.375  -1.227 -1.0877  0.3714  1.0975
  987MOL0     H33219   6.797  10.289  -1.389 -0.2234 -2.2742  0.9515
  987MOL0     H33220   6.952  10.196  -1.382  0.7001 -0.8908 -3.0288
  987MOL0     H33221   7.061  10.426  -1.442 -1.9801  1.9602  0.7678
  987MOL0     H33222   6.978  10.339  -1.577  0.4940 -3.0544  1.4456
  987MOL0     H33223   6.886  10.584  -1.411 -0.8056  0.1550 -0.6412
  987MOL0     H33224   6.765  10.478  -1.495  1.2918 -3.0879  1.9510
  987MOL0     H33225   6.813  10.672  -1.611  0.1665 -0.9879 -0.6430
  987MOL0     H33226   6.880  10.537  -1.706  1.5599 -1.6345  0.0086
  987MOL0     H33227   6.938  10.456  -0.708  0.1933 -0.1144  0.4277
  987MOL0     H33228   6.869  10.649  -0.685  0.0124 -0.8895  2.6825
  987MOL0     H33229   6.620  11.036  -0.543  0.6501 -3.0983 -1.6943
  987MOL0     H33230   6.479  11.242  -0.505  2.7727  0.1725 -0.2404
  987MOL0     H33231   6.369  10.945   0.802  0.7603  1.1242  1.7172
  987MOL0     H33232   6.135  10.975   0.860 -1.1361  0.2237 -1.3118
  987MOL0     H33233   5.639  10.561   0.783  0.8435  0.9692  1.4341
  987MOL0     H33234   5.414  10.622   0.787 -0.5389  2.4762 -2.8665
  987MOL0     H33235   5.186  10.988   0.869 -0.2641  0.2459  0.8754
  987MOL0     H33236   5.309  10.937   0.748  0.2059 -0.4169  0.8539
  987MOL0     H33237   5.082  10.753   0.827  0.7514 -1.3854 -0.9382
  987MOL0     H33238   5.195  10.737   0.682  2.8914  0.4610  1.4965
  987MOL0     H33239   5.115  10.932   0.580  1.3453 -0.9880 -0.1672
  987MOL0     H33240   5.008  10.970   0.719 -1.8448 -1.4390 -0.2981
  987MOL0     H33241   4.866  10.884   0.573 -1.1399 -1.9187 -1.7414
  987MOL0     H33242   4.901  10.752   0.695  1.8513 -1.3053 -0.7001
  987MOL0     H33243   5.081  10.586   0.352 -0.3639  0.5728 -1.1185
  987MOL0     H33244   5.528  11.000   0.973 -0.2114  1.5606 -4.8592
  987MOL0     H33245   5.760  10.948   0.963 -0.0263  1.4817 -3.2770
  988MOL0     O33246   4.506   1.706   1.376  0.6582  0.4437  0.4030
  988MOL0     C33247   4.442   1.695   1.479 -0.1685 -0.4123 -0.2384
  988MOL0     O33248   4.326   1.761   1.502 -0.6603 -0.1826 -0.4498
  988MOL0     C33249   4.269   1.845   1.417  0.7857 -0.2564  0.1057
  988MOL0     C33250   4.186   1.811   1.312  0.6941  0.5701 -0.4516
  988MOL0     C33251   4.124   1.907   1.237  0.0591  0.1000 -1.1219
  988MOL0     C33252   4.144   2.042   1.274  0.7239  0.0820 -0.0293
  988MOL0     O33253   4.095   2.125   1.174 -0.2012 -0.1545  0.1244
  988MOL0     C33254   4.040   2.254   1.210 -0.7177  0.4365 -0.4368
  988MOL0     C33255   3.900   2.252   1.277 -0.2864 -0.7733 -0.5069
  988MOL0     C33256   3.801   2.214   1.174  1.2551  0.2259  0.8273
  988MOL0     C33257   3.661   2.205   1.233  0.1538 -0.1642  0.4881
  988MOL0     C33258   3.549   2.159   1.137  0.0424  1.3868  0.3890
  988MOL0     C33259   3.517   2.273   1.047  0.2039  1.0359  0.0492
  988MOL0     C33260   3.392   2.230   0.966 -0.3773  1.2125  0.7245
  988MOL0     C33261   3.363   2.322   0.854 -0.2946 -0.4673  0.4923
  988MOL0     N33262   3.245   2.286   0.772 -0.4929 -0.0945 -0.1909
  988MOL0     C33263   3.229   2.185   0.688 -0.3610 -0.6812  0.8509
  988MOL0     C33264   3.101   2.174   0.661  0.1874 -0.6815  0.1356
  988MOL0     C33265   3.048   2.085   0.554  0.5748 -0.4503 -0.3548
  988MOL0     C33266   2.898   2.107   0.536  0.5750 -0.0443  0.7976
  988MOL0     C33267   2.833   1.985   0.468 -0.9510  0.3597  0.1557
  988MOL0     C33268   2.688   2.031   0.423 -0.3718  0.2355 -0.2581
  988MOL0     O33269   2.607   2.046   0.534  0.1395  0.4823  0.1277
  988MOL0     C33270   2.482   2.091   0.522  0.4338 -0.3082 -0.5600
  988MOL0     C33271   2.444   2.180   0.415 -0.4196 -0.7362  0.0213
  988MOL0     C33272   2.315   2.233   0.408  0.5368 -0.0739  1.5215
  988MOL0     C33273   2.290   2.337   0.303 -0.8486  0.6991  1.4255
  988MOL0     C33274   2.209   2.185   0.491  0.6571 -0.5579 -0.2241
  988MOL0     C33275   2.068   2.235   0.478  0.2633  0.1458 -0.2588
  988MOL0     O33276   2.050   2.370   0.468 -0.9267 -0.3315  0.8046
  988MOL0     C33277   1.924   2.417   0.434  1.2373 -0.1440 -0.5053
  988MOL0     C33278   1.822   2.424   0.526  0.0506 -0.1685 -0.4731
  988MOL0     C33279   1.694   2.458   0.486 -0.0778  0.0692  0.5579
  988MOL0     C33280   1.676   2.508   0.355 -0.4019  0.8190  0.6471
  988MOL0     O33281   1.540   2.535   0.332 -0.7706 -0.2253  0.1459
  988MOL0     C33282   1.497   2.541   0.196 -0.8716 -0.4915  0.8697
  988MOL0     C33283   1.357   2.594   0.187  0.1182 -0.0377 -0.7887
  988MOL0     C33284   1.255   2.498   0.238  0.1300 -1.0271 -0.5325
  988MOL0     C33285   1.104   2.540   0.220 -0.1684 -0.3204 -0.5271
  988MOL0     C33286   1.065   2.679   0.279 -0.2164 -0.5199 -0.4715
  988MOL0     C33287   1.109   2.717   0.418 -0.2571  0.4741 -0.3584
  988MOL0     C33288   1.086   2.863   0.457 -0.6285  0.8055  0.0484
  988MOL0     C33289   0.952   2.878   0.537 -0.0404 -0.2353 -0.6525
  988MOL0    Cl33290   0.933   2.785   0.679  0.3084  0.0417 -0.1110
  988MOL0     C33291   1.782   2.517   0.258 -0.9357  0.4951 -1.0450
  988MOL0     C33292   1.910   2.467   0.299  0.1083  1.0887 -0.2527
  988MOL0     O33293   1.977   2.157   0.485 -0.7931 -0.1364  0.0252
  988MOL0     C33294   2.247   2.089   0.593  0.0789  0.8056 -0.1601
  988MOL0     C33295   2.385   2.041   0.606 -0.0592  0.4216 -0.3559
  988MOL0     N33296   3.034   2.275   0.721  0.0060 -0.1890  0.8535
  988MOL0     N33297   3.119   2.343   0.799 -0.4282 -0.3850 -0.3319
  988MOL0     C33298   4.216   2.080   1.382  0.5660 -0.2621  1.0703
  988MOL0     C33299   4.283   1.982   1.450  0.9084 -0.7738  0.4559
  988MOL0     C33300   4.515   1.623   1.583  0.2175 -0.5885 -0.1986
  988MOL0     C33301   4.574   1.503   1.553 -1.1413 -0.0799 -0.1248
  988MOL0     C33302   4.658   1.438   1.653 -0.3587 -0.7493  0.1752
  988MOL0     C33303   4.671   1.488   1.780 -0.5226 -0.0094 -0.5424
  988MOL0     O33304   4.734   1.424   1.886 -0.2656 -0.6362  0.6762
  988MOL0     C33305   4.882   1.414   1.857  0.4273 -0.4079  0.0997
  988MOL0     C33306   4.946   1.399   1.995 -1.0045 -0.7678 -0.8710
  988MOL0     C33307   4.926   1.266   2.059  0.8125  0.3883 -0.1108
  988MOL0     C33308   5.004   1.148   2.005 -0.7835 -0.2018  0.0112
  988MOL0     C33309   4.964   1.026   2.081 -0.6099 -0.1505  0.5931
  988MOL0     C33310   4.933   0.926   2.138 -0.3148  0.4604 -0.5469
  988MOL0     C33311   4.607   1.607   1.805 -0.4269 -0.5211  0.1078
  988MOL0     C33312   4.540   1.674   1.708  0.0485 -0.6992 -1.2503
  988MOL0     H33313   4.174   1.707   1.283  1.1456  0.6251 -0.8399
  988MOL0     H33314   4.058   1.874   1.158 -0.1236 -0.0938 -0.8890
  988MOL0     H33315   4.111   2.294   1.282  2.6840  0.6026 -3.6010
  988MOL0     H33316   4.038   2.326   1.128 -0.7413 -2.7095 -3.4222
  988MOL0     H33317   3.906   2.175   1.355  0.9220  1.4947  1.8224
  988MOL0     H33318   3.876   2.349   1.322  1.3793 -0.5425 -0.0317
  988MOL0     H33319   3.792   2.290   1.096 -3.0394 -2.9040 -2.2068
  988MOL0     H33320   3.833   2.116   1.137 -1.5080 -1.2483  2.0559
  988MOL0     H33321   3.661   2.156   1.331 -2.9353  2.8738  2.2297
  988MOL0     H33322   3.630   2.304   1.267  0.9936 -0.0578  0.9767
  988MOL0     H33323   3.574   2.062   1.093 -1.0195  0.6218  1.4212
  988MOL0     H33324   3.461   2.149   1.201 -2.0564  0.6586 -2.4179
  988MOL0     H33325   3.483   2.363   1.100  1.0301 -0.2108  2.8770
  988MOL0     H33326   3.602   2.301   0.984 -0.4915 -0.2070 -1.5174
  988MOL0     H33327   3.412   2.131   0.924 -1.9787  1.0382  0.2732
  988MOL0     H33328   3.298   2.224   1.021  0.9929 -0.0885  3.0492
  988MOL0     H33329   3.445   2.321   0.781  0.1075 -1.1514  0.9406
  988MOL0     H33330   3.365   2.421   0.900  3.6264 -0.8376  1.5328
  988MOL0     H33331   3.301   2.110   0.656  1.2159  1.4371 -0.8464
  988MOL0     H33332   3.107   2.097   0.462  1.5102 -1.0902  0.1476
  988MOL0     H33333   3.065   1.983   0.587  1.5065 -0.5466 -1.0864
  988MOL0     H33334   2.881   2.189   0.466  1.2629 -0.2571  0.3783
  988MOL0     H33335   2.846   2.132   0.629 -1.5050 -1.5029  0.1044
  988MOL0     H33336   2.828   1.904   0.541  1.2613 -0.5387 -0.6379
  988MOL0     H33337   2.887   1.955   0.378  1.2964  1.3486  1.1016
  988MOL0     H33338   2.631   1.952   0.372 -1.8269  1.0964 -0.0059
  988MOL0     H33339   2.689   2.115   0.353 -4.1156 -0.2331 -1.0846
  988MOL0     H33340   2.519   2.227   0.351  0.3414  0.4595  1.7140
  988MOL0     H33341   2.193   2.318   0.256  0.4969  1.4781 -1.9595
  988MOL0     H33342   2.300   2.441   0.334  3.9743 -0.0424  3.0977
  988MOL0     H33343   2.361   2.323   0.222 -1.3672 -1.4636  1.2795
  988MOL0     H33344   1.839   2.398   0.630 -1.3022  0.4785 -0.0570
  988MOL0     H33345   1.613   2.446   0.557  0.3123  1.5576  1.2940
  988MOL0     H33346   1.560   2.611   0.141 -1.4484 -0.9273 -0.3699
  988MOL0     H33347   1.499   2.440   0.154  0.0389  0.0711 -0.5064
  988MOL0     H33348   1.350   2.693   0.233 -1.1789 -1.4593  2.3933
  988MOL0     H33349   1.333   2.599   0.081 -1.6252 -2.6668 -0.6234
  988MOL0     H33350   1.269   2.473   0.344  2.6322 -0.1768 -0.5882
  988MOL0     H33351   1.254   2.408   0.177 -4.7121 -1.4460 -0.1511
  988MOL0     H33352   1.066   2.530   0.118 -0.3533  0.8618 -0.5957
  988MOL0     H33353   1.036   2.468   0.267 -1.6270 -0.4412 -2.6852
  988MOL0     H33354   0.958   2.702   0.285 -0.0867 -0.2020  1.3611
  988MOL0     H33355   1.110   2.753   0.213  0.3355 -0.0858  0.3698
  988MOL0     H33356   1.077   2.647   0.495 -0.2688  0.3584 -0.4667
  988MOL0     H33357   1.216   2.692   0.414 -0.8361 -2.6654  1.0037
  988MOL0     H33358   1.097   2.934   0.376 -1.8944  1.2449  0.2350
  988MOL0     H33359   1.157   2.883   0.538 -2.5906 -1.0861  2.4219
  988MOL0     H33360   0.864   2.845   0.480 -2.1733  1.5150  1.4490
  988MOL0     H33361   0.931   2.979   0.572  2.0443 -0.2826  0.8746
  988MOL0     H33362   1.762   2.565   0.163 -1.8839  1.5512 -0.3314
  988MOL0     H33363   1.998   2.475   0.236  0.7255 -0.6781  0.3213
  988MOL0     H33364   2.172   2.053   0.663  2.4243 -1.7828  1.2019
  988MOL0     H33365   2.415   1.978   0.688 -0.2970 -0.5076 -0.9672
  988MOL0     H33366   4.240   2.183   1.406  0.8100  0.9966 -3.5138
  988MOL0     H33367   4.334   2.006   1.542  3.8209 -2.2580 -0.6554
  988MOL0     H33368   4.590   1.450   1.459  3.3743  2.3100 -0.9750
  988MOL0     H33369   4.704   1.342   1.631 -0.2898 -0.7018  0.1113
  988MOL0     H33370   4.903   1.322   1.801  3.8733  1.0110 -1.1943
  988MOL0     H33371   4.929   1.491   1.795  0.7205 -2.7799 -2.8498
  988MOL0     H33372   4.894   1.470   2.060 -4.7016 -1.8417 -2.4288
  988MOL0     H33373   5.054   1.416   1.993 -0.9979 -0.2893  1.1977
  988MOL0     H33374   4.821   1.238   2.070 -0.0882  2.3435 -2.5650
  988MOL0     H33375   4.960   1.276   2.162 -0.1041  3.4146 -0.0167
  988MOL0     H33376   5.112   1.162   2.016  0.1498 -3.5117 -3.1486
  988MOL0     H33377   4.988   1.141   1.897  1.7952  2.4510 -0.6740
  988MOL0     H33378   4.894   0.843   2.194 -1.2262  1.1638 -0.1276
  988MOL0     H33379   4.608   1.658   1.901 -3.4877 -2.8085  1.5322
  988MOL0     H33380   4.507   1.776   1.726  1.3468 -0.5460  0.5847
  989MOL0     O33381   8.540  10.153   8.862 -0.2817  0.1113 -0.0664
  989MOL0     C33382   8.612  10.250   8.865  0.1603  0.3701  0.3721
  989MOL0     O33383   8.685  10.294   8.759 -0.6296  0.0705  0.8713
  989MOL0     C33384   8.639  10.266   8.634 -0.2916  0.8889  1.3416
  989MOL0     C33385   8.505  10.232   8.596  0.8936 -0.0842 -0.1254
  989MOL0     C33386   8.471  10.221   8.462  0.3413 -0.3053 -1.1066
  989MOL0     C33387   8.576  10.227   8.365  0.5117  0.4074 -0.1670
  989MOL0     O33388   8.564  10.185   8.230 -0.6384  0.9672  0.0915
  989MOL0     C33389   8.473  10.080   8.214 -0.6863  1.1481 -0.5670
  989MOL0     C33390   8.490  10.019   8.066  0.2401  0.0958 -0.8753
  989MOL0     C33391   8.589   9.911   8.062 -0.7100  0.6092 -0.2377
  989MOL0     C33392   8.726   9.979   8.034 -0.0033 -0.4539 -0.0619
  989MOL0     C33393   8.805   9.856   7.992  0.8219 -0.1537  0.5901
  989MOL0     C33394   8.952   9.910   7.980 -0.6485 -1.0805  0.4861
  989MOL0     C33395   8.969  10.006   7.848  0.5212 -0.0539 -0.1848
  989MOL0     C33396   9.083   9.973   7.757 -0.4392 -0.0267 -0.3827
  989MOL0     N33397   9.221  10.005   7.809  0.0832  0.3380  0.1698
  989MOL0     C33398   9.337   9.970   7.749  0.4079 -0.3480  0.9242
  989MOL0     C33399   9.425  10.066   7.787 -0.1482 -0.8538  0.0993
  989MOL0     C33400   9.559  10.084   7.717 -0.3259 -0.4176 -0.1130
  989MOL0     C33401   9.618   9.941   7.718 -0.1163 -0.1571  0.0736
  989MOL0     C33402   9.639   9.884   7.855 -0.2913  0.6633  0.3249
  989MOL0     C33403   9.749   9.775   7.861 -1.2717 -0.1201 -0.3243
  989MOL0     O33404   9.711   9.663   7.941  0.3204  0.1996  0.1900
  989MOL0     C33405   9.787   9.640   8.053 -0.1383  0.2762 -0.8109
  989MOL0     C33406   9.931   9.641   8.048  0.7171 -0.2755 -0.0974
  989MOL0     C33407  10.011   9.629   8.162  0.0195  0.1354 -0.0169
  989MOL0     C33408  10.155   9.666   8.151 -0.4876  0.2077 -0.5505
  989MOL0     C33409   9.950   9.595   8.288  0.3142  0.1746  0.8906
  989MOL0     C33410  10.018   9.582   8.418  0.0035  0.0927 -0.3611
  989MOL0     O33411  10.139   9.517   8.408 -0.2075  0.4001 -0.0761
  989MOL0     C33412  10.204   9.488   8.531  0.2018  0.4970  0.9178
  989MOL0     C33413  10.275   9.590   8.595 -0.7292 -0.7976  0.0940
  989MOL0     C33414  10.348   9.564   8.708 -0.9338 -0.7672  0.3468
  989MOL0     C33415  10.347   9.435   8.763 -0.5675 -0.0588 -0.9102
  989MOL0     O33416  10.422   9.421   8.872 -0.1901  0.6915  0.5689
  989MOL0     C33417  10.348   9.368   8.982  0.5697 -0.7533  0.3361
  989MOL0     C33418  10.431   9.348   9.106  0.1432  0.3259  0.8776
  989MOL0     C33419  10.528   9.228   9.104 -0.0689 -0.2857 -0.3689
  989MOL0     C33420  10.626   9.215   9.233  1.2159 -0.3954 -0.1173
  989MOL0     C33421  10.725   9.103   9.201  0.1948  0.0924  0.2618
  989MOL0     C33422  10.809   9.063   9.321 -0.0446 -0.3323 -1.0322
  989MOL0     C33423  10.909   8.949   9.288  0.0059 -0.0652  0.0580
  989MOL0     C33424  10.996   8.905   9.412  0.0582 -0.6350 -0.5411
  989MOL0    Cl33425  11.130   8.810   9.337 -0.3459  0.0361  0.3523
  989MOL0     C33426  10.274   9.334   8.695  0.7004  0.4386 -0.0779
  989MOL0     C33427  10.204   9.360   8.575  0.5515 -0.6797  0.9816
  989MOL0     O33428   9.958   9.600   8.523 -0.6193 -0.4552  0.6390
  989MOL0     C33429   9.807   9.578   8.280  0.1034 -0.3642 -0.5900
  989MOL0     C33430   9.730   9.602   8.172 -0.0468 -0.9790  0.9250
  989MOL0     N33431   9.359  10.137   7.882 -0.0987 -0.5186 -0.1899
  989MOL0     N33432   9.237  10.099   7.902  0.2929  0.5927 -0.5531
  989MOL0     C33433   8.695  10.266   8.409 -0.4941 -0.0216  0.1585
  989MOL0     C33434   8.730  10.295   8.537 -0.8456 -0.2662  0.2287
  989MOL0     C33435   8.638  10.332   8.996 -0.2962 -0.3861  0.7532
  989MOL0     C33436   8.712  10.456   9.003  1.4513  0.1554  0.2595
  989MOL0     C33437   8.706  10.536   9.118 -0.6968  0.3285 -0.8141
  989MOL0     C33438   8.637  10.484   9.232 -0.7031  0.7661  1.1157
  989MOL0     O33439   8.647  10.555   9.343 -0.4600  0.2080 -0.6526
  989MOL0     C33440   8.607  10.492   9.471  0.5804  0.0988  0.6539
  989MOL0     C33441   8.653  10.587   9.579 -0.3699 -0.1178  0.0682
  989MOL0     C33442   8.546  10.696   9.598  0.9201  0.6060  0.6124
  989MOL0     C33443   8.596  10.802   9.698 -0.3860 -0.1076  0.3494
  989MOL0     C33444   8.508  10.925   9.709  0.5955  0.1290  0.5908
  989MOL0     C33445   8.447  11.032   9.708  0.2124  1.2099  0.5119
  989MOL0     C33446   8.561  10.370   9.222 -0.4102  0.3281 -0.2342
  989MOL0     C33447   8.565  10.291   9.103  0.9106 -0.0373  1.0470
  989MOL0     H33448   8.419  10.232   8.662 -0.9597 -0.5228 -2.4227
  989MOL0     H33449   8.371  10.194   8.428 -0.5115  1.6703 -0.2752
  989MOL0     H33450   8.501  10.005   8.288 -0.4561 -0.4271 -2.1864
  989MOL0     H33451   8.369  10.109   8.225 -0.4987  2.2301 -1.4623
  989MOL0     H33452   8.395   9.971   8.044  1.2976 -1.6731 -1.7993
  989MOL0     H33453   8.503  10.089   7.983 -0.6627 -0.2082 -1.2859
  989MOL0     H33454   8.601   9.859   8.158  2.6416  3.9604  1.4060
  989MOL0     H33455   8.565   9.843   7.980  0.4046  1.5190 -1.3639
  989MOL0     H33456   8.732  10.051   7.951 -1.4020  1.4688  1.4054
  989MOL0     H33457   8.769  10.024   8.124  1.6825 -4.3288  1.2911
  989MOL0     H33458   8.800   9.781   8.071  0.1879 -1.1625 -0.3806
  989MOL0     H33459   8.765   9.819   7.898  0.7792  3.5146 -1.0141
  989MOL0     H33460   8.973   9.976   8.065 -4.6582  0.1897  0.6737
  989MOL0     H33461   9.021   9.825   7.987  0.8235  0.0176 -0.1995
  989MOL0     H33462   8.880   9.996   7.786  1.1845 -3.6540 -0.7707
  989MOL0     H33463   8.980  10.112   7.871  1.5625  0.0513 -1.0873
  989MOL0     H33464   9.059  10.031   7.668  1.2057  0.3889 -0.5901
  989MOL0     H33465   9.071   9.866   7.736  3.2925 -0.6959  0.2214
  989MOL0     H33466   9.349   9.889   7.678  3.4995  1.6632 -1.1260
  989MOL0     H33467   9.534  10.108   7.613  0.0336 -0.9986 -0.3336
  989MOL0     H33468   9.624  10.166   7.751 -1.7202  0.0664  1.5673
  989MOL0     H33469   9.709   9.949   7.658 -3.9786  1.5326 -6.6713
  989MOL0     H33470   9.551   9.871   7.666  1.8237 -2.2796  0.2625
  989MOL0     H33471   9.546   9.843   7.894 -0.5956  0.0070 -1.0327
  989MOL0     H33472   9.673   9.966   7.919  1.5377 -0.6405  1.1044
  989MOL0     H33473   9.831   9.824   7.913  0.8450 -2.6254 -1.0941
  989MOL0     H33474   9.781   9.758   7.758  1.0736  0.5768  0.2359
  989MOL0     H33475   9.976   9.655   7.950  1.1830 -0.8631  0.0216
  989MOL0     H33476  10.207   9.571   8.135 -2.0049 -1.3665  2.8661
  989MOL0     H33477  10.180   9.738   8.072  2.0175  0.2398  0.1735
  989MOL0     H33478  10.189   9.717   8.242  0.2193  0.6742 -1.0638
  989MOL0     H33479  10.290   9.679   8.534  0.9015 -1.4709 -0.5323
  989MOL0     H33480  10.418   9.629   8.760 -2.4003 -0.6218  2.2441
  989MOL0     H33481  10.263   9.435   9.001  0.9916 -0.3626  0.8522
  989MOL0     H33482  10.307   9.272   8.948 -3.1435 -0.8556  4.1409
  989MOL0     H33483  10.490   9.440   9.110 -2.0950  2.4987 -5.0311
  989MOL0     H33484  10.371   9.328   9.195 -0.1162  1.8423  1.0558
  989MOL0     H33485  10.582   9.231   9.009  1.3427 -1.2693  0.3761
  989MOL0     H33486  10.477   9.131   9.097  2.7863 -2.0560  1.5798
  989MOL0     H33487  10.677   9.308   9.259 -1.2103  1.2510 -0.8166
  989MOL0     H33488  10.564   9.199   9.321  1.0069  2.2990  0.3287
  989MOL0     H33489  10.776   9.117   9.105 -1.2155  1.2102 -0.3516
  989MOL0     H33490  10.651   9.026   9.182 -0.3959  0.3141  1.5441
  989MOL0     H33491  10.853   9.157   9.355 -1.9974  1.4222 -2.9844
  989MOL0     H33492  10.744   9.029   9.402  0.0883  2.6442  0.4397
  989MOL0     H33493  10.971   8.989   9.208  0.0048  3.8516  1.7717
  989MOL0     H33494  10.858   8.866   9.238  0.4837 -1.9809  2.5518
  989MOL0     H33495  10.937   8.848   9.483  0.8115 -1.3335 -0.4567
  989MOL0     H33496  11.032   8.988   9.474 -2.1570  2.1003 -2.6449
  989MOL0     H33497  10.273   9.238   8.745 -1.6948  2.5110  4.4034
  989MOL0     H33498  10.166   9.276   8.517  4.0197 -1.3290 -0.6470
  989MOL0     H33499   9.750   9.573   8.372  2.5723  0.6180  1.0963
  989MOL0     H33500   9.622   9.589   8.177  0.1287 -1.9634  3.9961
  989MOL0     H33501   8.781  10.271   8.342 -0.8564 -1.9985 -0.5017
  989MOL0     H33502   8.833  10.316   8.563 -0.3603 -2.6067  0.3576
  989MOL0     H33503   8.762  10.481   8.910 -0.6740  2.0060 -0.4645
  989MOL0     H33504   8.758  10.630   9.135  0.1034 -0.2029 -0.3139
  989MOL0     H33505   8.498  10.480   9.473  0.4826  0.9585  0.7373
  989MOL0     H33506   8.646  10.391   9.486 -0.4649 -0.6394 -1.2266
  989MOL0     H33507   8.753  10.627   9.561  1.4484 -4.7587 -1.6949
  989MOL0     H33508   8.655  10.541   9.678 -1.8011  2.7128  1.5635
  989MOL0     H33509   8.443  10.668   9.620  0.7929 -0.6425 -1.3041
  989MOL0     H33510   8.535  10.752   9.504 -3.0859  0.1444  0.6385
  989MOL0     H33511   8.698  10.835   9.681 -0.1289 -0.2691  1.4914
  989MOL0     H33512   8.615  10.766   9.800  4.9576 -1.0709 -0.7032
  989MOL0     H33513   8.398  11.127   9.703 -0.6035  0.7505 -0.9498
  989MOL0     H33514   8.495  10.330   9.298 -0.3946  2.2739  0.8772
  989MOL0     H33515   8.506  10.201   9.089  0.4901  0.1587  1.5085
  990MOL0     O33516   9.918   2.327   4.953  0.6017  0.2990  0.2783
  990MOL0     C33517   9.955   2.227   5.015  0.3517  0.0290 -0.8396
  990MOL0     O33518   9.993   2.105   4.963 -0.8742  0.6233 -0.5019
  990MOL0     C33519   9.970   2.090   4.828  0.3537  0.7844 -0.1984
  990MOL0     C33520  10.075   2.046   4.753  0.4746  0.0452 -0.2293
  990MOL0     C33521  10.067   2.048   4.615 -0.4118  0.6228 -0.3445
  990MOL0     C33522   9.948   2.078   4.555 -0.3118 -0.8888 -0.4547
  990MOL0     O33523   9.948   2.092   4.418 -0.7370 -0.0763  0.2772
  990MOL0     C33524   9.838   2.150   4.361 -0.0009  0.5922  0.3939
  990MOL0     C33525   9.861   2.165   4.216  0.0734 -0.5336  0.0298
  990MOL0     C33526   9.744   2.217   4.139 -0.0865  0.3854  0.1961
  990MOL0     C33527   9.696   2.359   4.189  0.2040  1.1204 -0.0566
  990MOL0     C33528   9.607   2.416   4.078 -0.2523  0.7124  0.1445
  990MOL0     C33529   9.521   2.527   4.128  0.6172 -0.4430  0.2779
  990MOL0     C33530   9.449   2.589   4.004 -0.0195  0.1984 -0.1397
  990MOL0     C33531   9.297   2.605   4.025  0.6577 -0.6995  0.2716
  990MOL0     N33532   9.265   2.725   3.949  0.5712  0.4281 -0.5397
  990MOL0     C33533   9.299   2.755   3.819 -0.8792  0.5107  0.0712
  990MOL0     C33534   9.248   2.878   3.786  0.0190 -0.6922  0.6350
  990MOL0     C33535   9.287   2.964   3.667  0.5743  0.7128  0.7128
  990MOL0     C33536   9.152   2.991   3.594 -0.1607  0.0613 -0.3644
  990MOL0     C33537   9.096   3.129   3.624  0.2631 -0.0451 -1.3288
  990MOL0     C33538   9.021   3.124   3.755  0.0284  0.5943 -0.6380
  990MOL0     O33539   8.893   3.190   3.747 -0.8466  0.5213  0.0597
  990MOL0     C33540   8.831   3.227   3.863  0.4409  0.0762  0.1423
  990MOL0     C33541   8.738   3.332   3.851  0.7982 -0.8092  0.0443
  990MOL0     C33542   8.667   3.378   3.957 -1.6054  0.5376 -0.7601
  990MOL0     C33543   8.582   3.500   3.941  0.5247  0.5202 -0.7487
  990MOL0     C33544   8.677   3.302   4.075 -1.1059 -0.0280 -0.0476
  990MOL0     C33545   8.592   3.335   4.202  0.0783  0.0581 -0.2965
  990MOL0     O33546   8.579   3.236   4.291 -0.1022  0.0953 -0.1347
  990MOL0     C33547   8.474   3.253   4.389 -0.4837  0.5453 -0.1507
  990MOL0     C33548   8.523   3.281   4.512  0.2346 -0.3409  0.6910
  990MOL0     C33549   8.447   3.269   4.630 -0.4491 -0.2438  0.4299
  990MOL0     C33550   8.313   3.221   4.630 -1.2039  0.5574  0.7050
  990MOL0     O33551   8.238   3.208   4.747 -0.1379 -0.4575  0.0826
  990MOL0     C33552   8.270   3.276   4.862  0.1746  0.2821  0.4276
  990MOL0     C33553   8.239   3.430   4.857 -0.6058  0.2201 -0.9311
  990MOL0     C33554   8.216   3.496   4.986  0.3418  0.1680  0.4665
  990MOL0     C33555   8.114   3.621   4.978 -0.6921  0.1145  0.8579
  990MOL0     C33556   8.018   3.637   5.093 -0.3833  0.0515 -0.8107
  990MOL0     C33557   7.944   3.772   5.084 -0.6024 -0.8686 -0.0728
  990MOL0     C33558   7.849   3.776   4.968 -0.2552 -0.2725 -0.0819
  990MOL0     C33559   7.767   3.909   4.982 -0.3404  1.0324 -0.9782
  990MOL0    Cl33560   7.648   3.929   4.849 -0.2331  0.0573 -0.1244
  990MOL0     C33561   8.260   3.192   4.501 -0.1995  0.8129  1.1350
  990MOL0     C33562   8.349   3.198   4.382  0.5019  0.1936 -0.1841
  990MOL0     O33563   8.535   3.450   4.210 -0.1775  0.3417 -0.1158
  990MOL0     C33564   8.771   3.201   4.097  0.0622 -0.1611 -0.4750
  990MOL0     C33565   8.851   3.163   3.991 -0.5133  0.2439 -0.7448
  990MOL0     N33566   9.182   2.918   3.901  0.6887 -0.3003 -0.0629
  990MOL0     N33567   9.209   2.837   4.005  0.1449  0.0297  0.1219
  990MOL0     C33568   9.829   2.113   4.627 -0.0389  0.6257 -0.0320
  990MOL0     C33569   9.846   2.113   4.767 -0.0470  0.6268  0.5949
  990MOL0     C33570   9.927   2.219   5.159  0.4579  0.6554  0.0595
  990MOL0     C33571   9.910   2.102   5.221 -0.3503 -0.5443 -0.4174
  990MOL0     C33572   9.882   2.096   5.355 -0.0301 -0.7370 -0.4911
  990MOL0     C33573   9.876   2.217   5.434 -0.1254  0.7254  1.0092
  990MOL0     O33574   9.847   2.203   5.564 -0.0450 -0.6605  0.2829
  990MOL0     C33575   9.820   2.320   5.642  0.3277  0.3922 -0.5537
  990MOL0     C33576   9.815   2.302   5.799  0.9704  0.4553  0.1699
  990MOL0     C33577   9.678   2.247   5.846  0.5977  0.9473  0.0228
  990MOL0     C33578   9.584   2.365   5.875 -0.5314 -1.0051 -0.7974
  990MOL0     C33579   9.453   2.320   5.909 -0.1201  0.0666  0.5268
  990MOL0     C33580   9.333   2.295   5.934 -0.7188 -0.3924  0.0696
  990MOL0     C33581   9.895   2.332   5.370 -0.6065 -0.8589 -0.0277
  990MOL0     C33582   9.908   2.340   5.231 -0.7450  0.2029 -0.7362
  990MOL0     H33583  10.169   2.030   4.805  1.8490 -2.1638 -3.0797
  990MOL0     H33584  10.156   2.034   4.555  0.4235  2.4405  0.3650
  990MOL0     H33585   9.747   2.090   4.368 -1.2866  2.0365 -2.2348
  990MOL0     H33586   9.829   2.247   4.410  1.6052 -0.0728  2.1319
  990MOL0     H33587   9.953   2.216   4.189  2.0846 -3.3398  1.0961
  990MOL0     H33588   9.882   2.060   4.193  2.4865 -0.3594  1.1363
  990MOL0     H33589   9.767   2.219   4.032  0.3062  0.4647  0.2794
  990MOL0     H33590   9.669   2.138   4.137  0.1794  0.0699  1.4462
  990MOL0     H33591   9.637   2.353   4.281 -0.2251 -0.2602 -0.4051
  990MOL0     H33592   9.769   2.439   4.204  1.1503  0.8175 -2.6459
  990MOL0     H33593   9.671   2.455   3.999 -0.5724  1.3374  0.1866
  990MOL0     H33594   9.549   2.342   4.023  2.3659  0.4558 -2.5107
  990MOL0     H33595   9.448   2.498   4.204  1.2600  0.6525  1.3555
  990MOL0     H33596   9.573   2.599   4.192 -0.1774  1.8568 -1.5350
  990MOL0     H33597   9.502   2.684   3.992 -0.3487  0.1882 -2.1116
  990MOL0     H33598   9.474   2.534   3.913  1.6998  0.5292  0.0896
  990MOL0     H33599   9.273   2.620   4.131 -1.8096 -0.8337 -0.2080
  990MOL0     H33600   9.238   2.528   3.974 -0.2059  0.4968 -0.6121
  990MOL0     H33601   9.374   2.700   3.763 -0.7767  1.4196 -0.6916
  990MOL0     H33602   9.341   3.057   3.688  0.3053  1.2671 -0.8870
  990MOL0     H33603   9.348   2.915   3.589 -0.8954 -2.4262  1.3786
  990MOL0     H33604   9.077   2.916   3.622 -1.0660  2.1956  3.5936
  990MOL0     H33605   9.158   3.005   3.485 -0.0301  3.5064 -0.0266
  990MOL0     H33606   9.025   3.158   3.547 -2.6816  1.1498  1.5952
  990MOL0     H33607   9.172   3.208   3.621  1.9114 -1.4932  0.0961
  990MOL0     H33608   9.081   3.158   3.841 -1.9031 -1.5966  1.7410
  990MOL0     H33609   9.003   3.018   3.772  2.7651 -0.0506 -1.2698
  990MOL0     H33610   8.719   3.385   3.759 -2.4289  3.8294  2.9949
  990MOL0     H33611   8.484   3.467   3.977  1.0972 -1.4121 -0.8835
  990MOL0     H33612   8.626   3.579   4.002  0.9827 -0.7086  0.5566
  990MOL0     H33613   8.573   3.534   3.837  0.0822 -0.2092 -0.9579
  990MOL0     H33614   8.631   3.296   4.509 -0.1840  3.7649 -2.5450
  990MOL0     H33615   8.498   3.295   4.723  2.7539 -1.0411 -0.9702
  990MOL0     H33616   8.222   3.222   4.945  1.2318 -1.5487 -0.0878
  990MOL0     H33617   8.373   3.247   4.886 -0.0296 -3.3921 -2.2154
  990MOL0     H33618   8.314   3.485   4.801 -1.1019  2.1240  0.1828
  990MOL0     H33619   8.156   3.433   4.787  0.4171 -1.2786 -2.2728
  990MOL0     H33620   8.311   3.532   5.027 -0.2581  1.6986  0.5979
  990MOL0     H33621   8.185   3.416   5.053  3.1542 -2.4770 -1.1655
  990MOL0     H33622   8.167   3.715   4.961 -0.7141 -0.3598 -2.5446
  990MOL0     H33623   8.060   3.619   4.883 -0.8884  3.7114  0.7640
  990MOL0     H33624   8.076   3.623   5.184  0.2920 -0.3450 -1.2983
  990MOL0     H33625   7.945   3.556   5.083 -0.7125 -0.4763  3.7460
  990MOL0     H33626   7.888   3.783   5.177 -2.5707 -3.4315 -0.8291
  990MOL0     H33627   8.011   3.857   5.068 -2.5907  0.8950  0.4657
  990MOL0     H33628   7.795   3.682   4.979  2.2356 -1.6756  0.8385
  990MOL0     H33629   7.903   3.768   4.873 -0.1299 -0.9090  0.0417
  990MOL0     H33630   7.845   3.985   4.973 -0.0210  0.6684 -1.3327
  990MOL0     H33631   7.717   3.916   5.079 -0.3691 -1.6693 -0.7131
  990MOL0     H33632   8.155   3.169   4.492  0.0768 -0.3547  0.6800
  990MOL0     H33633   8.307   3.177   4.285  1.2231 -0.3983 -0.3830
  990MOL0     H33634   8.782   3.153   4.194 -1.5070 -3.2072 -1.6697
  990MOL0     H33635   8.915   3.079   4.014  0.6601  1.2935 -0.0278
  990MOL0     H33636   9.734   2.143   4.584  0.1071 -2.5492 -2.9731
  990MOL0     H33637   9.760   2.126   4.833 -0.9676  1.0069 -0.6458
  990MOL0     H33638   9.913   2.006   5.171 -2.1417 -1.1685  0.6090
  990MOL0     H33639   9.870   2.003   5.409 -0.3224 -0.9642 -0.9415
  990MOL0     H33640   9.904   2.390   5.634  1.5054 -0.8974 -0.1043
  990MOL0     H33641   9.735   2.369   5.594  0.4553  1.0235 -0.1374
  990MOL0     H33642   9.830   2.401   5.844  0.5709  0.6011 -0.0146
  990MOL0     H33643   9.895   2.232   5.827  0.4203  0.0752  0.8229
  990MOL0     H33644   9.683   2.178   5.931 -1.4957 -1.6919 -1.8089
  990MOL0     H33645   9.645   2.196   5.755 -2.3060  1.1817  0.8384
  990MOL0     H33646   9.575   2.433   5.790 -1.4928  0.0548  0.1178
  990MOL0     H33647   9.619   2.420   5.962 -1.8403 -0.1491 -0.7792
  990MOL0     H33648   9.233   2.281   5.970 -0.8389 -1.5804 -0.6733
  990MOL0     H33649   9.890   2.427   5.422  1.2048  1.0109 -2.9580
  990MOL0     H33650   9.886   2.438   5.191  0.8033 -0.2630 -2.9162
  991MOL0     O33651   8.103   6.577   3.571 -0.0054 -0.1498  0.3104
  991MOL0     C33652   8.037   6.634   3.650  0.3369 -0.2725 -0.0079
  991MOL0     O33653   7.994   6.761   3.636  0.2296 -0.3645 -0.0229
  991MOL0     C33654   7.999   6.849   3.533  0.4540  0.3452 -0.1675
  991MOL0     C33655   8.082   6.842   3.426  0.5085  0.0544  0.8819
  991MOL0     C33656   8.090   6.947   3.329  0.8588 -0.0253 -0.4790
  991MOL0     C33657   8.000   7.055   3.339  0.0801 -0.8919  0.3248
  991MOL0     O33658   8.016   7.172   3.259 -0.0961  0.7988  0.2167
  991MOL0     C33659   8.105   7.169   3.152  0.8754 -0.3176  0.4628
  991MOL0     C33660   8.084   7.300   3.068 -0.2349  0.8682  0.6017
  991MOL0     C33661   7.955   7.286   2.990  0.5366  0.4022 -0.1662
  991MOL0     C33662   7.916   7.410   2.908 -0.5443  0.7164  0.7683
  991MOL0     C33663   7.896   7.377   2.755 -0.5510  0.1800  0.8986
  991MOL0     C33664   7.829   7.486   2.666  0.5990  0.4136 -0.2547
  991MOL0     C33665   7.850   7.441   2.514  0.0693 -0.2171  0.6399
  991MOL0     C33666   7.738   7.503   2.428 -0.1265  0.3631  0.7612
  991MOL0     N33667   7.598   7.446   2.421  0.1349  0.2195 -0.1087
  991MOL0     C33668   7.572   7.319   2.457 -0.3067  0.0608 -0.5250
  991MOL0     C33669   7.434   7.315   2.434 -0.3150  0.0592  1.1603
  991MOL0     C33670   7.346   7.189   2.442 -0.2593 -0.0959  0.3060
  991MOL0     C33671   7.409   7.055   2.416 -0.0086 -0.5514  0.1428
  991MOL0     C33672   7.329   6.923   2.408  0.2685  0.3915  0.4648
  991MOL0     C33673   7.412   6.801   2.386 -0.1629 -0.0047  0.2952
  991MOL0     O33674   7.478   6.764   2.510 -0.4268  0.8588  0.0606
  991MOL0     C33675   7.576   6.668   2.520 -0.4786 -0.8659  0.6591
  991MOL0     C33676   7.636   6.648   2.648  0.4034  1.2676 -0.3114
  991MOL0     C33677   7.741   6.555   2.671 -0.2986 -0.3039 -0.5320
  991MOL0     C33678   7.798   6.545   2.809 -0.1702 -0.6014  0.9032
  991MOL0     C33679   7.778   6.467   2.568  0.8865 -0.0849 -0.1957
  991MOL0     C33680   7.890   6.371   2.577 -0.5420 -0.8005 -1.3434
  991MOL0     O33681   7.847   6.238   2.558  0.7083 -0.1565 -0.5052
  991MOL0     C33682   7.938   6.134   2.565 -0.0213  0.7305 -0.5429
  991MOL0     C33683   8.075   6.129   2.527 -0.8883  0.7347 -0.5565
  991MOL0     C33684   8.159   6.015   2.555 -0.2057  0.7293  0.1641
  991MOL0     C33685   8.103   5.896   2.608 -0.6397  0.3535 -0.3791
  991MOL0     O33686   8.175   5.789   2.650 -0.9296 -0.1768  0.0973
  991MOL0     C33687   8.318   5.796   2.661 -0.4460  0.3270 -0.5667
  991MOL0     C33688   8.381   5.661   2.700  0.5240  0.5190  0.0907
  991MOL0     C33689   8.279   5.599   2.808 -1.0502  0.4114  0.7849
  991MOL0     C33690   8.365   5.510   2.902 -0.6824 -0.4783 -0.5947
  991MOL0     C33691   8.272   5.426   2.989  0.0042  0.2031 -0.2725
  991MOL0     C33692   8.200   5.319   2.896 -0.2048 -0.1381 -1.3439
  991MOL0     C33693   8.096   5.244   2.990 -0.4606 -0.1906  0.4863
  991MOL0     C33694   7.993   5.158   2.921  0.1785  0.6006 -0.5832
  991MOL0    Cl33695   8.063   5.023   2.828  0.2277  0.0478  0.1270
  991MOL0     C33696   7.970   5.897   2.640  0.5532  1.5482 -0.7144
  991MOL0     C33697   7.888   6.014   2.611 -0.2354  0.1000 -0.5127
  991MOL0     O33698   7.999   6.413   2.593 -0.6770  0.1406  0.7961
  991MOL0     C33699   7.710   6.484   2.446 -0.2959 -0.0237  0.6267
  991MOL0     C33700   7.615   6.589   2.421 -0.2779  0.0562  0.4573
  991MOL0     N33701   7.385   7.442   2.393 -0.3558 -0.5837 -0.8202
  991MOL0     N33702   7.490   7.510   2.379  0.3970  0.0149 -0.5250
  991MOL0     C33703   7.902   7.049   3.441  0.1630  0.2439 -0.2488
  991MOL0     C33704   7.914   6.957   3.544  0.6155  0.7866  0.0560
  991MOL0     C33705   8.012   6.579   3.782 -0.5421  0.3932 -0.0896
  991MOL0     C33706   7.957   6.656   3.892 -0.3705  0.1648  0.8126
  991MOL0     C33707   7.924   6.597   4.012 -0.2854 -0.2055 -1.2497
  991MOL0     C33708   7.951   6.457   4.034  1.6713  0.1029 -0.0503
  991MOL0     O33709   7.926   6.386   4.149  0.1673 -1.0180 -0.2411
  991MOL0     C33710   7.834   6.423   4.254  0.6883  0.2609  1.0692
  991MOL0     C33711   7.805   6.296   4.332  0.4022 -0.4859 -0.4106
  991MOL0     C33712   7.904   6.274   4.447 -0.1340  0.0771  0.3813
  991MOL0     C33713   7.903   6.116   4.477 -0.1270 -0.2943  0.4913
  991MOL0     C33714   7.773   6.058   4.503  0.4784 -0.8622 -0.1075
  991MOL0     C33715   7.664   6.015   4.535 -0.4923  0.3328 -0.4374
  991MOL0     C33716   8.002   6.374   3.925  0.2740  0.1985 -0.2912
  991MOL0     C33717   8.026   6.439   3.807 -0.6247  0.1709  0.9878
  991MOL0     H33718   8.157   6.764   3.423 -1.0983 -1.6719  2.6487
  991MOL0     H33719   8.174   6.952   3.261 -0.4636  2.3510 -2.0962
  991MOL0     H33720   8.208   7.157   3.188  1.0385  0.1870  0.1779
  991MOL0     H33721   8.084   7.081   3.092 -0.6563  0.1614  0.2533
  991MOL0     H33722   8.093   7.384   3.137  4.2705  2.2030 -1.2498
  991MOL0     H33723   8.161   7.303   2.990 -0.9867 -0.7533 -0.2600
  991MOL0     H33724   7.964   7.202   2.920  0.9568  0.9340 -0.7583
  991MOL0     H33725   7.866   7.267   3.051 -0.9815  0.9898 -2.1120
  991MOL0     H33726   7.820   7.437   2.953  0.1694 -1.4472  3.9752
  991MOL0     H33727   7.973   7.503   2.915  1.2260 -0.1786 -0.7510
  991MOL0     H33728   7.997   7.359   2.718 -0.2089  0.0617  1.8550
  991MOL0     H33729   7.832   7.289   2.740  1.0120 -0.9842  0.7447
  991MOL0     H33730   7.725   7.482   2.699  0.2349  0.2937 -1.3981
  991MOL0     H33731   7.866   7.588   2.681  0.9337  0.2847 -0.1835
  991MOL0     H33732   7.946   7.482   2.482 -1.1424  2.0249 -0.3160
  991MOL0     H33733   7.851   7.331   2.510  4.1987 -0.3543  0.8857
  991MOL0     H33734   7.772   7.496   2.324 -1.0867  1.9656  0.3034
  991MOL0     H33735   7.733   7.608   2.458  2.1947  0.0554  2.5391
  991MOL0     H33736   7.641   7.239   2.479  0.0593  0.1847 -1.2027
  991MOL0     H33737   7.322   7.190   2.549  2.0078  0.9851  0.8598
  991MOL0     H33738   7.258   7.207   2.380 -1.0705  0.5940  1.6076
  991MOL0     H33739   7.494   7.043   2.483 -0.8939 -1.9132  1.0745
  991MOL0     H33740   7.446   7.067   2.314  3.8699  0.2815  1.4731
  991MOL0     H33741   7.257   6.920   2.325 -0.4333 -3.1892  1.0304
  991MOL0     H33742   7.267   6.890   2.491 -0.3193 -4.1657 -1.5169
  991MOL0     H33743   7.475   6.807   2.296  0.6177 -6.2386  0.0127
  991MOL0     H33744   7.336   6.723   2.376  1.4831 -1.8231  1.2552
  991MOL0     H33745   7.607   6.713   2.730 -0.3844  2.1417 -1.2601
  991MOL0     H33746   7.757   6.619   2.879 -1.3054 -1.1926  0.8818
  991MOL0     H33747   7.779   6.445   2.848 -0.2413 -1.7775 -1.9588
  991MOL0     H33748   7.906   6.552   2.790 -0.6729  0.4289 -2.0756
  991MOL0     H33749   8.133   6.213   2.490  0.4036 -0.0297 -0.3342
  991MOL0     H33750   8.263   6.005   2.527 -0.2528  0.7611 -0.0237
  991MOL0     H33751   8.364   5.834   2.569 -0.9707  2.2344 -0.0900
  991MOL0     H33752   8.344   5.871   2.736 -0.5156  3.4944 -3.4545
  991MOL0     H33753   8.376   5.592   2.616  4.1961 -3.0751  2.5060
  991MOL0     H33754   8.484   5.680   2.729  0.5311  0.4251  0.1276
  991MOL0     H33755   8.208   5.541   2.749 -2.9202  2.2261  1.1404
  991MOL0     H33756   8.209   5.660   2.866 -0.4050  0.6242  1.3538
  991MOL0     H33757   8.436   5.454   2.840  2.1682  2.6991 -0.4590
  991MOL0     H33758   8.410   5.577   2.975 -0.5076 -1.7599  0.5257
  991MOL0     H33759   8.194   5.486   3.037  0.5288  1.3860 -0.8547
  991MOL0     H33760   8.332   5.372   3.063 -0.4663  0.0664  0.0161
  991MOL0     H33761   8.150   5.368   2.812 -0.2399 -0.3237 -1.4326
  991MOL0     H33762   8.268   5.242   2.859 -0.3704 -0.5751 -0.7630
  991MOL0     H33763   8.042   5.318   3.050 -4.3085 -1.6559 -0.8231
  991MOL0     H33764   8.158   5.179   3.052 -1.9903 -0.0137  2.3112
  991MOL0     H33765   7.929   5.220   2.859  0.0874  0.1081 -0.9900
  991MOL0     H33766   7.926   5.112   2.994  0.0578  0.1771 -0.9546
  991MOL0     H33767   7.943   5.806   2.691  0.4630  2.2962  0.6124
  991MOL0     H33768   7.787   6.016   2.650 -0.6494  0.1896 -1.5671
  991MOL0     H33769   7.740   6.421   2.362  0.1221  1.0726 -0.0731
  991MOL0     H33770   7.569   6.590   2.322 -0.7256  0.8964  0.6734
  991MOL0     H33771   7.810   7.107   3.435  0.9573  1.4564 -1.4067
  991MOL0     H33772   7.845   6.954   3.628 -0.0996 -0.9765 -0.5675
  991MOL0     H33773   7.903   6.750   3.886 -3.4563 -1.5566 -0.2106
  991MOL0     H33774   7.864   6.648   4.086 -1.4713 -2.1635 -0.7871
  991MOL0     H33775   7.875   6.504   4.316 -1.7306  1.0368  1.7642
  991MOL0     H33776   7.747   6.453   4.195  1.4809 -1.2003 -0.9610
  991MOL0     H33777   7.802   6.212   4.263 -2.5120  0.4354 -1.5513
  991MOL0     H33778   7.702   6.324   4.358  1.0198  1.3247  0.2097
  991MOL0     H33779   7.887   6.339   4.534 -4.2630  0.3974 -0.4322
  991MOL0     H33780   8.005   6.302   4.416  0.0150  0.9365  1.5545
  991MOL0     H33781   7.954   6.090   4.570  1.2708  0.7313  0.0331
  991MOL0     H33782   7.949   6.063   4.394 -0.2048  0.8256 -0.2908
  991MOL0     H33783   7.571   5.979   4.574 -0.7575  1.2601 -0.1888
  991MOL0     H33784   8.003   6.265   3.929  2.3312  0.2107  0.4502
  991MOL0     H33785   8.051   6.377   3.721  0.4241  2.2820 -0.3108
  992MOL0     O33786   0.173   2.642   4.797  0.4316 -0.1248 -0.0541
  992MOL0     C33787   0.080   2.718   4.780  0.0355  0.2294 -1.6375
  992MOL0     O33788  -0.044   2.691   4.738  0.0398  0.4240 -0.2296
  992MOL0     C33789  -0.063   2.559   4.694  0.3438  1.0150  0.3550
  992MOL0     C33790   0.007   2.498   4.592  0.6053  0.8605  0.0075
  992MOL0     C33791  -0.016   2.365   4.546  0.2233 -0.0000  0.0905
  992MOL0     C33792  -0.116   2.282   4.604 -0.3270  0.6722 -0.8636
  992MOL0     O33793  -0.148   2.156   4.556 -0.2490  0.2025 -0.1957
  992MOL0     C33794  -0.078   2.062   4.637 -0.3947 -0.2578 -0.7516
  992MOL0     C33795  -0.105   1.916   4.599 -0.0335 -0.0902 -1.0020
  992MOL0     C33796  -0.072   1.879   4.466 -0.7404  0.1752  0.3119
  992MOL0     C33797  -0.086   1.738   4.414 -0.2389 -0.5457 -0.5920
  992MOL0     C33798  -0.067   1.734   4.265 -0.1384 -0.2268 -0.6512
  992MOL0     C33799   0.068   1.777   4.204  0.0912 -0.6650 -0.8201
  992MOL0     C33800   0.169   1.674   4.242  0.0003 -0.4165  0.0997
  992MOL0     C33801   0.308   1.702   4.193 -0.3946  0.0191  1.0636
  992MOL0     N33802   0.406   1.593   4.178  0.5728  0.1060  0.3299
  992MOL0     C33803   0.498   1.567   4.280 -0.2278 -0.0119  0.2395
  992MOL0     C33804   0.557   1.447   4.243 -0.7810  0.2307 -0.1899
  992MOL0     C33805   0.653   1.364   4.331  0.9269  0.3772 -0.7144
  992MOL0     C33806   0.804   1.399   4.292 -0.9992 -0.1172 -0.7606
  992MOL0     C33807   0.863   1.501   4.401  0.6134  0.0251 -0.8336
  992MOL0     C33808   1.011   1.484   4.409  0.2497  0.3503 -0.1471
  992MOL0     O33809   1.094   1.582   4.336  0.5125  0.0644  0.0145
  992MOL0     C33810   1.104   1.606   4.203 -0.3509  0.5932 -0.1759
  992MOL0     C33811   1.058   1.528   4.094 -0.2741  0.5073 -0.6459
  992MOL0     C33812   1.072   1.561   3.962  0.3648  1.1411 -0.4433
  992MOL0     C33813   1.045   1.445   3.868 -0.7557  0.3693  0.0304
  992MOL0     C33814   1.132   1.680   3.928 -0.3398 -0.5013  0.0586
  992MOL0     C33815   1.176   1.710   3.788 -0.2703  0.4742  1.4721
  992MOL0     O33816   1.288   1.792   3.775 -0.8465  0.5157  0.1629
  992MOL0     C33817   1.318   1.848   3.655  0.1244  0.3561 -0.2363
  992MOL0     C33818   1.391   1.769   3.558  0.2046 -0.6070  0.9175
  992MOL0     C33819   1.438   1.833   3.444  0.3637  0.6917  0.5830
  992MOL0     C33820   1.419   1.974   3.420  0.1637 -0.4993  0.3967
  992MOL0     O33821   1.441   2.044   3.297 -0.1189  0.3511 -0.3789
  992MOL0     C33822   1.494   1.981   3.180  0.7026 -0.2332 -0.0331
  992MOL0     C33823   1.467   2.072   3.062 -0.3884  0.2900  0.3368
  992MOL0     C33824   1.509   2.009   2.927  0.2951  0.4801 -0.1100
  992MOL0     C33825   1.501   2.118   2.817  0.1778 -0.6286 -0.7026
  992MOL0     C33826   1.525   2.057   2.680 -0.5223  0.1130 -0.4777
  992MOL0     C33827   1.521   2.162   2.565 -0.1930 -0.1499  0.2581
  992MOL0     C33828   1.388   2.229   2.556 -0.4734  1.0260 -0.9976
  992MOL0     C33829   1.363   2.309   2.434  0.0058  0.1569 -0.1861
  992MOL0    Cl33830   1.216   2.418   2.460  0.0378 -0.1347 -0.8579
  992MOL0     C33831   1.350   2.052   3.517 -0.2792  0.5041 -0.7124
  992MOL0     C33832   1.301   1.982   3.626  0.6244  0.5684 -0.1322
  992MOL0     O33833   1.118   1.666   3.690  0.6741 -0.5391 -0.3840
  992MOL0     C33834   1.173   1.775   4.033 -1.5299 -0.0542 -0.6262
  992MOL0     C33835   1.160   1.733   4.165 -0.2091 -0.8161  0.5134
  992MOL0     N33836   0.499   1.414   4.111 -0.2878 -0.3810 -0.8901
  992MOL0     N33837   0.406   1.496   4.079 -0.6760 -0.6143 -0.4407
  992MOL0     C33838  -0.188   2.339   4.715 -1.2244  0.0006  0.5957
  992MOL0     C33839  -0.154   2.473   4.762  0.6582  0.5449  0.2727
  992MOL0     C33840   0.117   2.850   4.796  0.4786 -0.4265 -0.2811
  992MOL0     C33841   0.018   2.945   4.818 -0.0049 -0.1431 -0.5816
  992MOL0     C33842   0.051   3.075   4.859 -0.0975 -0.0280 -0.7446
  992MOL0     C33843   0.184   3.122   4.877 -0.1349  0.4666  0.0365
  992MOL0     O33844   0.220   3.253   4.914  0.4621  0.3770 -0.0695
  992MOL0     C33845   0.158   3.365   4.846 -0.2734  1.2192 -0.2115
  992MOL0     C33846   0.030   3.411   4.930  0.2586 -0.3419 -0.5951
  992MOL0     C33847   0.046   3.518   5.040 -0.0687 -0.0475  0.2057
  992MOL0     C33848   0.171   3.507   5.123 -0.0293 -1.4254  0.6875
  992MOL0     C33849   0.159   3.602   5.239  0.6239 -0.2183  0.2600
  992MOL0     C33850   0.119   3.685   5.319  0.6265 -0.1601 -0.2431
  992MOL0     C33851   0.286   3.025   4.849 -0.1296 -0.3669  0.3024
  992MOL0     C33852   0.251   2.891   4.807 -0.0728  0.2342  0.0194
  992MOL0     H33853   0.076   2.567   4.545 -0.4008 -0.0333 -3.0047
  992MOL0     H33854   0.045   2.331   4.463  0.4707  2.0023 -0.5886
  992MOL0     H33855   0.028   2.089   4.636  0.4175 -3.0473  0.5008
  992MOL0     H33856  -0.106   2.081   4.741  2.0349 -0.7971  0.0520
  992MOL0     H33857  -0.051   1.860   4.676  1.9969  2.8846 -0.0769
  992MOL0     H33858  -0.213   1.898   4.605  0.1640 -1.9692 -2.3762
  992MOL0     H33859  -0.133   1.937   4.396 -1.3355 -2.0415 -1.1023
  992MOL0     H33860   0.033   1.909   4.464 -1.3790  2.8397  1.8660
  992MOL0     H33861  -0.007   1.672   4.450  0.8695  1.2913  0.5370
  992MOL0     H33862  -0.184   1.702   4.446  0.1348 -1.7067 -0.7211
  992MOL0     H33863  -0.086   1.633   4.227  0.6677 -0.1079 -1.4156
  992MOL0     H33864  -0.144   1.798   4.221  0.7540  2.0177  0.8743
  992MOL0     H33865   0.071   1.790   4.095  2.1427  3.2611 -0.4957
  992MOL0     H33866   0.108   1.873   4.239  1.6327 -0.2366 -3.4914
  992MOL0     H33867   0.172   1.669   4.352 -2.2376 -1.8399  0.1508
  992MOL0     H33868   0.147   1.575   4.202 -0.4111  0.3055 -1.5491
  992MOL0     H33869   0.358   1.773   4.261  4.0596 -0.7603 -0.9999
  992MOL0     H33870   0.306   1.752   4.095  1.0870 -0.6176  0.6782
  992MOL0     H33871   0.515   1.620   4.374  1.7050 -0.0107 -0.0685
  992MOL0     H33872   0.636   1.366   4.439  0.4514  0.5930 -0.7910
  992MOL0     H33873   0.634   1.259   4.308 -2.1006  1.1280 -2.1517
  992MOL0     H33874   0.801   1.444   4.193  0.4602  3.0949  0.5486
  992MOL0     H33875   0.877   1.318   4.281 -1.6245 -0.6568 -1.1163
  992MOL0     H33876   0.824   1.474   4.500  0.5612 -0.8379 -1.0835
  992MOL0     H33877   0.837   1.606   4.382 -1.4729  0.1208  1.8988
  992MOL0     H33878   1.045   1.384   4.382  1.7264  1.1737 -1.5001
  992MOL0     H33879   1.035   1.510   4.513 -0.6488 -0.7054  0.3407
  992MOL0     H33880   1.006   1.438   4.124 -1.1379  1.5168  1.0838
  992MOL0     H33881   0.953   1.475   3.817 -1.7839  0.2774  1.7247
  992MOL0     H33882   1.127   1.434   3.796 -2.8140 -0.4860 -2.3247
  992MOL0     H33883   1.029   1.347   3.914  2.2836  0.1560  0.8158
  992MOL0     H33884   1.399   1.661   3.565 -1.3804 -1.0375 -2.1315
  992MOL0     H33885   1.488   1.771   3.370  0.3870  1.4432 -0.0500
  992MOL0     H33886   1.600   1.965   3.201  0.8920 -0.7687 -1.2627
  992MOL0     H33887   1.453   1.882   3.159  0.9742 -0.4962  0.6576
  992MOL0     H33888   1.358   2.059   3.059 -0.2426 -0.9651 -1.4563
  992MOL0     H33889   1.496   2.176   3.080  0.0019  0.2554 -0.0668
  992MOL0     H33890   1.454   1.915   2.914  3.1280 -1.5691  1.4167
  992MOL0     H33891   1.610   1.967   2.929 -0.7417 -2.2583  1.0455
  992MOL0     H33892   1.398   2.154   2.824 -0.2421 -2.1023  2.0657
  992MOL0     H33893   1.566   2.203   2.841 -2.0738  0.6695  1.1759
  992MOL0     H33894   1.457   1.973   2.669 -1.6927  0.5440  2.4841
  992MOL0     H33895   1.626   2.016   2.669 -0.4711  0.0317  0.2401
  992MOL0     H33896   1.596   2.239   2.584 -0.9402  0.7948 -0.4986
  992MOL0     H33897   1.540   2.126   2.463 -1.1473 -0.7338  0.2673
  992MOL0     H33898   1.364   2.283   2.649 -3.3214 -1.1596 -0.3397
  992MOL0     H33899   1.316   2.148   2.545  0.6765  0.1807 -2.5779
  992MOL0     H33900   1.349   2.247   2.345  0.7183  0.1560 -0.2996
  992MOL0     H33901   1.456   2.359   2.406  1.0874 -1.6771  0.0101
  992MOL0     H33902   1.343   2.159   3.502 -2.1710  0.6266  0.6737
  992MOL0     H33903   1.249   2.040   3.702 -1.0981  1.9284 -2.2344
  992MOL0     H33904   1.195   1.878   4.006  0.3845  0.4336  2.3227
  992MOL0     H33905   1.188   1.810   4.236  3.3534 -1.3586 -0.1439
  992MOL0     H33906  -0.279   2.290   4.746 -1.7253  0.5446  0.0151
  992MOL0     H33907  -0.214   2.511   4.844 -1.2896 -0.0294 -0.7967
  992MOL0     H33908  -0.086   2.921   4.800 -0.6603  2.8996 -1.4926
  992MOL0     H33909  -0.027   3.146   4.885 -0.2239  0.1687 -1.6388
  992MOL0     H33910   0.235   3.442   4.829  0.3187  1.6586  3.4966
  992MOL0     H33911   0.126   3.343   4.744  1.3382 -3.6734  0.0535
  992MOL0     H33912  -0.020   3.324   4.976  0.1981  0.0598  0.1185
  992MOL0     H33913  -0.038   3.454   4.857 -0.5417  0.9062  0.8303
  992MOL0     H33914  -0.043   3.520   5.104  1.3554  3.0381  2.3274
  992MOL0     H33915   0.048   3.617   4.993  1.6777 -0.5677 -0.9036
  992MOL0     H33916   0.253   3.549   5.064 -3.5469 -0.9418 -4.4979
  992MOL0     H33917   0.195   3.405   5.153  0.8991 -0.5474  3.1679
  992MOL0     H33918   0.105   3.754   5.400  2.2960  0.5019 -0.4838
  992MOL0     H33919   0.390   3.054   4.862 -0.4964  0.5959  1.2481
  992MOL0     H33920   0.323   2.810   4.802  0.9540  1.0645  0.7191
  993MOL0     O33921   3.424   3.920   7.775  0.0359 -0.4915  0.3146
  993MOL0     C33922   3.336   3.948   7.851  0.2149  1.2275 -1.6859
  993MOL0     O33923   3.340   4.046   7.953  0.0251 -0.1603  0.3300
  993MOL0     C33924   3.456   4.125   7.956  1.3440  0.0403  0.4275
  993MOL0     C33925   3.446   4.261   7.937  0.3797 -0.2272  0.4006
  993MOL0     C33926   3.552   4.349   7.929  1.3453  0.2566  0.0431
  993MOL0     C33927   3.682   4.298   7.949  0.2021 -0.6481 -0.4858
  993MOL0     O33928   3.783   4.390   7.943  0.1467 -0.2505 -0.4306
  993MOL0     C33929   3.917   4.338   7.920  0.4838  0.5284  1.1694
  993MOL0     C33930   3.987   4.336   8.052 -0.0224  0.0575 -0.7054
  993MOL0     C33931   4.036   4.471   8.100 -1.0354  0.5751  0.0912
  993MOL0     C33932   4.082   4.468   8.247 -0.1491 -0.1849  0.6797
  993MOL0     C33933   4.201   4.375   8.267  0.6647 -0.2128  1.2247
  993MOL0     C33934   4.303   4.438   8.365  0.8220  0.2815 -0.5285
  993MOL0     C33935   4.450   4.391   8.341 -1.1958 -0.2272 -0.5299
  993MOL0     C33936   4.545   4.434   8.453 -0.3222 -0.1314 -0.2707
  993MOL0     N33937   4.671   4.375   8.420 -0.3132 -0.2937 -0.6901
  993MOL0     C33938   4.722   4.274   8.503 -0.8279  0.2473 -0.1451
  993MOL0     C33939   4.849   4.249   8.445 -1.0166 -0.4357 -0.1246
  993MOL0     C33940   4.945   4.148   8.499  0.0495 -0.0231 -1.0071
  993MOL0     C33941   5.097   4.152   8.468  0.5700 -0.3041  0.6789
  993MOL0     C33942   5.154   4.020   8.515 -0.0867 -0.0026  0.7368
  993MOL0     C33943   5.294   4.004   8.456  0.0866  0.8046 -0.2331
  993MOL0     O33944   5.380   4.076   8.544  0.0939  1.1763  0.2275
  993MOL0     C33945   5.515   4.079   8.520 -0.8936  0.0700  0.0209
  993MOL0     C33946   5.588   4.093   8.635 -0.1077 -0.0757 -0.2999
  993MOL0     C33947   5.732   4.087   8.622  0.4429 -0.2978  0.6336
  993MOL0     C33948   5.805   4.142   8.745  0.6370  0.6547  0.1869
  993MOL0     C33949   5.801   4.067   8.500  0.6350 -0.0942 -0.3588
  993MOL0     C33950   5.951   4.062   8.478  1.3115 -0.1045 -0.5595
  993MOL0     O33951   6.034   4.073   8.582 -0.5690  0.1052  0.5061
  993MOL0     C33952   6.175   4.073   8.553  0.1991  0.7010 -0.1707
  993MOL0     C33953   6.252   4.187   8.568  0.0946  0.5034  0.7154
  993MOL0     C33954   6.391   4.191   8.534  0.8810 -0.0674 -0.1369
  993MOL0     C33955   6.459   4.072   8.501  0.0539  1.0503  0.1935
  993MOL0     O33956   6.590   4.062   8.480  0.1400  0.1709 -0.3866
  993MOL0     C33957   6.683   4.170   8.459  0.7306 -0.8739  0.2249
  993MOL0     C33958   6.802   4.141   8.540  0.7662 -0.0214 -0.9174
  993MOL0     C33959   6.762   4.134   8.693 -0.5035  0.0041 -0.4211
  993MOL0     C33960   6.879   4.170   8.783 -0.6263 -0.1797  0.5119
  993MOL0     C33961   6.942   4.311   8.760 -1.0400 -0.4817  0.9199
  993MOL0     C33962   6.976   4.369   8.896  0.8979 -0.6093 -0.7284
  993MOL0     C33963   7.029   4.515   8.899  0.5605  0.8873 -0.3278
  993MOL0     C33964   7.047   4.567   9.045 -0.0640  0.2929  0.0369
  993MOL0    Cl33965   6.881   4.580   9.118  0.3492 -0.4280  0.0954
  993MOL0     C33966   6.380   3.953   8.487  0.5365 -0.7691  0.4170
  993MOL0     C33967   6.243   3.962   8.509  0.3649  0.3005  1.2768
  993MOL0     O33968   5.988   4.041   8.360 -0.9198 -0.2774 -0.6947
  993MOL0     C33969   5.713   4.041   8.386 -0.6558  0.3181 -1.0519
  993MOL0     C33970   5.577   4.054   8.399 -0.4930 -0.9726  0.1428
  993MOL0     N33971   4.870   4.342   8.344  0.8425  0.4093 -0.4921
  993MOL0     N33972   4.766   4.416   8.332  0.1087  0.1113 -0.4622
  993MOL0     C33973   3.690   4.158   7.974 -0.0331 -1.0768  1.0440
  993MOL0     C33974   3.581   4.081   7.984 -0.4573  0.1434 -0.7256
  993MOL0     C33975   3.202   3.894   7.810  0.2215 -0.3541  0.5691
  993MOL0     C33976   3.092   3.887   7.901 -0.3884 -0.9505 -0.1246
  993MOL0     C33977   2.970   3.854   7.843  0.7203 -0.0149  0.3658
  993MOL0     C33978   2.945   3.825   7.708 -0.4197 -0.6940 -0.1984
  993MOL0     O33979   2.824   3.789   7.646 -0.7079  0.0170  0.4504
  993MOL0     C33980   2.709   3.815   7.723 -0.3963 -0.7756 -0.9325
  993MOL0     C33981   2.582   3.790   7.646  0.2874 -0.1680  0.5227
  993MOL0     C33982   2.586   3.674   7.546  0.4504 -0.6992  0.3078
  993MOL0     C33983   2.572   3.727   7.402 -0.5447  0.5849  0.4648
  993MOL0     C33984   2.546   3.625   7.295 -0.2256  0.1898  0.1069
  993MOL0     C33985   2.524   3.554   7.198 -0.5667  0.0606  0.1612
  993MOL0     C33986   3.060   3.821   7.623  0.4450 -0.1228 -0.1654
  993MOL0     C33987   3.187   3.859   7.674 -0.1548 -0.1497 -0.4084
  993MOL0     H33988   3.349   4.310   7.924  1.2742  1.4627 -0.1893
  993MOL0     H33989   3.532   4.456   7.922 -2.5702 -0.4413 -2.4569
  993MOL0     H33990   3.917   4.241   7.870 -0.9800  0.0181  2.0915
  993MOL0     H33991   3.970   4.405   7.852  1.2407  0.0810  1.3032
  993MOL0     H33992   3.925   4.291   8.130  0.4633  4.3829  2.5513
  993MOL0     H33993   4.076   4.273   8.046 -0.3274 -0.7937  2.1513
  993MOL0     H33994   4.110   4.520   8.037 -2.9942 -0.1428 -2.9905
  993MOL0     H33995   3.945   4.532   8.102 -0.7754  0.9375  1.4403
  993MOL0     H33996   4.106   4.575   8.248 -2.7523  0.6677 -3.2795
  993MOL0     H33997   3.997   4.450   8.314  0.8550  1.7456  2.5749
  993MOL0     H33998   4.169   4.289   8.328  2.6020  0.7070  3.7378
  993MOL0     H33999   4.244   4.342   8.172 -2.4660 -0.3011 -0.2930
  993MOL0     H34000   4.305   4.547   8.367  0.3256  0.2956 -0.8275
  993MOL0     H34001   4.268   4.404   8.463  0.9372 -3.2335 -1.5588
  993MOL0     H34002   4.431   4.284   8.332 -0.9257 -0.3947  0.7093
  993MOL0     H34003   4.478   4.433   8.244  1.5926 -0.1788  0.2139
  993MOL0     H34004   4.506   4.389   8.545  3.5351  0.0540  1.6591
  993MOL0     H34005   4.554   4.542   8.470 -0.0546 -0.2051  0.0718
  993MOL0     H34006   4.681   4.214   8.584  0.6384  1.9065  1.9523
  993MOL0     H34007   4.931   4.155   8.607 -1.2207  3.3583 -1.2682
  993MOL0     H34008   4.897   4.054   8.470 -2.2791  0.6963  0.2164
  993MOL0     H34009   5.135   4.239   8.521 -0.9934 -0.6557  2.4757
  993MOL0     H34010   5.101   4.166   8.359 -0.5142 -0.3245  0.6260
  993MOL0     H34011   5.104   3.929   8.481  1.1540  0.3690 -2.5066
  993MOL0     H34012   5.161   4.021   8.624 -0.0475 -1.3323  0.7590
  993MOL0     H34013   5.291   4.045   8.354 -3.8595 -2.4374 -1.7013
  993MOL0     H34014   5.332   3.901   8.449  1.3898  1.3233 -1.2966
  993MOL0     H34015   5.548   4.126   8.731  1.9206  1.6770  0.0236
  993MOL0     H34016   5.744   4.158   8.834  0.2957 -2.8258  0.7300
  993MOL0     H34017   5.893   4.083   8.773 -0.8465 -0.7738  2.0435
  993MOL0     H34018   5.847   4.240   8.718 -1.9847  1.8231  0.0332
  993MOL0     H34019   6.207   4.283   8.594  0.1055  0.6553  0.1716
  993MOL0     H34020   6.450   4.280   8.554 -2.6734  2.5198 -0.3653
  993MOL0     H34021   6.720   4.179   8.356  0.7796 -0.1216  0.3003
  993MOL0     H34022   6.643   4.269   8.483  0.7396 -1.2783  2.0222
  993MOL0     H34023   6.859   4.051   8.512  0.6428 -1.2329  2.3367
  993MOL0     H34024   6.865   4.229   8.523 -3.4548  2.9749 -2.8143
  993MOL0     H34025   6.718   4.035   8.710  1.6481 -0.7772  0.8922
  993MOL0     H34026   6.684   4.210   8.706 -1.3518 -0.8946 -0.1732
  993MOL0     H34027   6.846   4.158   8.887 -0.4238 -1.3785  0.4596
  993MOL0     H34028   6.965   4.108   8.760  0.4008  1.8423 -1.3917
  993MOL0     H34029   6.883   4.390   8.712  0.8964 -0.7153 -2.1474
  993MOL0     H34030   7.037   4.304   8.706 -1.2067  1.2046  0.3369
  993MOL0     H34031   6.880   4.374   8.948  0.8710 -1.5361 -0.6704
  993MOL0     H34032   7.038   4.297   8.950  3.1443  1.1693 -0.7952
  993MOL0     H34033   6.967   4.584   8.841  1.3088  2.1305  0.3141
  993MOL0     H34034   7.126   4.511   8.848 -0.6053  1.7777 -2.7625
  993MOL0     H34035   7.100   4.663   9.039  1.6385 -0.6142  0.1069
  993MOL0     H34036   7.104   4.496   9.105  1.1887  0.8148 -0.4936
  993MOL0     H34037   6.433   3.861   8.465 -0.4891 -1.5063  0.9335
  993MOL0     H34038   6.174   3.880   8.496  0.6729 -0.7814  5.1783
  993MOL0     H34039   5.750   4.009   8.289  1.1693  2.4690 -1.1455
  993MOL0     H34040   5.518   4.035   8.310 -0.3213  0.4885 -0.3070
  993MOL0     H34041   3.787   4.112   7.966  0.8362  0.9434 -1.7733
  993MOL0     H34042   3.596   3.976   8.003  0.4861  0.5993  1.2668
  993MOL0     H34043   3.092   3.926   8.002 -0.0455 -2.3005  0.4186
  993MOL0     H34044   2.885   3.857   7.910 -0.2232  1.1336 -0.8206
  993MOL0     H34045   2.720   3.743   7.805  1.4583  1.0218  0.4753
  993MOL0     H34046   2.710   3.921   7.748 -1.7187 -0.4493 -2.1020
  993MOL0     H34047   2.555   3.881   7.592  2.6730 -0.4668 -1.3725
  993MOL0     H34048   2.496   3.775   7.712 -0.2300  1.5743  0.2839
  993MOL0     H34049   2.503   3.605   7.560 -3.2182  2.9134 -1.5512
  993MOL0     H34050   2.678   3.615   7.552  1.0480  0.2351  0.6512
  993MOL0     H34051   2.665   3.784   7.395  1.3793 -2.4931 -4.1545
  993MOL0     H34052   2.485   3.790   7.385 -2.8716 -2.1850  1.2934
  993MOL0     H34053   2.512   3.493   7.111 -0.3587  0.5537 -0.2216
  993MOL0     H34054   3.044   3.781   7.523 -0.1830  0.7123 -0.4074
  993MOL0     H34055   3.263   3.872   7.598 -0.4466 -0.1686 -0.7081
  994MOL0     O34056   5.752   7.245  10.089  0.2094 -0.0543  0.4302
  994MOL0     C34057   5.806   7.196   9.990 -0.6449  0.6999 -0.6061
  994MOL0     O34058   5.936   7.152   9.979  0.2743 -0.8069 -0.1809
  994MOL0     C34059   6.017   7.175  10.088  0.1605 -1.4091 -0.2887
  994MOL0     C34060   6.103   7.286  10.078  0.0667  0.8865 -0.1564
  994MOL0     C34061   6.204   7.311  10.184  0.3849 -0.2692  0.2907
  994MOL0     C34062   6.201   7.231  10.302  0.2110  0.0708  0.2324
  994MOL0     O34063   6.276   7.283  10.404  0.4312  0.2565 -0.5975
  994MOL0     C34064   6.365   7.198  10.472 -0.1244  0.4150  0.6522
  994MOL0     C34065   6.448   7.289  10.572 -0.3438 -0.1713  0.7147
  994MOL0     C34066   6.512   7.187  10.682 -0.1471 -0.6363  1.0045
  994MOL0     C34067   6.425   7.169  10.806  0.8445  0.5069  0.7308
  994MOL0     C34068   6.446   7.055  10.889 -0.0412  1.2945 -0.1467
  994MOL0     C34069   6.374   7.081  11.031 -0.5075  0.0020  0.3454
  994MOL0     C34070   6.330   6.951  11.106 -0.1081 -1.0935  0.2589
  994MOL0     C34071   6.218   6.887  11.033  0.8838 -0.2638 -0.0568
  994MOL0     N34072   6.155   6.773  11.106  0.0980 -0.3329  0.6284
  994MOL0     C34073   6.102   6.780  11.230  0.2273  0.4072 -0.2047
  994MOL0     C34074   6.063   6.649  11.260 -0.7808  0.0205  0.0440
  994MOL0     C34075   6.014   6.606  11.391  0.0804 -0.8883  0.0183
  994MOL0     C34076   5.887   6.687  11.423 -1.1066  0.7559  0.3146
  994MOL0     C34077   5.827   6.634  11.546  0.3619 -0.0658 -0.6583
  994MOL0     C34078   5.907   6.582  11.667 -0.3213  0.1156  0.4699
  994MOL0     O34079   5.972   6.456  11.635  0.7177 -0.4907  0.4218
  994MOL0     C34080   6.067   6.431  11.725 -0.5550  0.3426 -0.1998
  994MOL0     C34081   6.179   6.375  11.675 -0.7314  0.4642  0.2763
  994MOL0     C34082   6.285   6.344  11.765 -0.3255  0.4526 -0.2513
  994MOL0     C34083   6.402   6.279  11.694  0.0064 -0.5255  0.7058
  994MOL0     C34084   6.267   6.359  11.906 -0.3174 -0.5141 -0.6667
  994MOL0     C34085   6.375   6.340  12.011  0.3127  0.1247  1.6848
  994MOL0     O34086   6.335   6.310  12.140 -0.7457  0.3843  1.0482
  994MOL0     C34087   6.436   6.297  12.228 -0.3339  0.2812 -0.7985
  994MOL0     C34088   6.445   6.168  12.283 -0.4318 -0.2682 -0.4399
  994MOL0     C34089   6.556   6.136  12.366  0.0854  0.1097  0.8583
  994MOL0     C34090   6.645   6.228  12.402 -0.0184 -1.3237 -0.1227
  994MOL0     O34091   6.755   6.207  12.478 -0.7341  0.7062 -0.3128
  994MOL0     C34092   6.794   6.075  12.527  1.3658  0.0394 -0.5713
  994MOL0     C34093   6.918   6.109  12.622 -0.0864  1.0482  1.1439
  994MOL0     C34094   7.037   6.156  12.529 -0.3625  0.1307 -0.0403
  994MOL0     C34095   7.100   6.052  12.442  0.7943  0.3341  0.2498
  994MOL0     C34096   7.241   6.084  12.389 -0.2815  0.4161  0.1150
  994MOL0     C34097   7.240   6.219  12.310 -0.2689 -0.1273  0.2823
  994MOL0     C34098   7.120   6.244  12.213  0.3769 -0.5282  1.2927
  994MOL0     C34099   7.164   6.322  12.086  0.1708 -0.1433  0.4056
  994MOL0    Cl34100   7.287   6.230  11.981  0.4368 -0.2022 -0.0569
  994MOL0     C34101   6.629   6.365  12.358  0.2871 -0.0547  0.2272
  994MOL0     C34102   6.526   6.394  12.271 -0.1202 -0.5645  0.2209
  994MOL0     O34103   6.494   6.355  11.968  0.9331 -0.1035 -1.1251
  994MOL0     C34104   6.147   6.404  11.947  0.1227  0.2801 -0.0608
  994MOL0     C34105   6.045   6.434  11.860  0.5592  0.1342  0.4187
  994MOL0     N34106   6.087   6.570  11.140  0.1975  0.4899 -0.5279
  994MOL0     N34107   6.145   6.647  11.053  0.0511  0.2706 -0.7900
  994MOL0     C34108   6.101   7.128  10.312 -0.3369 -0.3104 -0.1910
  994MOL0     C34109   6.014   7.101  10.208  0.8363  0.0396 -0.0007
  994MOL0     C34110   5.710   7.172   9.885  0.4565  0.5801  0.7860
  994MOL0     C34111   5.757   7.108   9.768  0.1243 -0.6512 -0.0633
  994MOL0     C34112   5.675   7.076   9.667 -0.0171  0.5254 -0.0622
  994MOL0     C34113   5.536   7.106   9.673 -0.6811  0.4679  0.5500
  994MOL0     O34114   5.462   7.051   9.569  0.5735 -0.2909  0.5044
  994MOL0     C34115   5.317   7.061   9.551 -0.4661  0.3570 -0.8745
  994MOL0     C34116   5.267   6.997   9.422  0.1734  0.7177 -0.1870
  994MOL0     C34117   5.315   7.074   9.299 -0.5666 -1.0693  0.2154
  994MOL0     C34118   5.463   7.037   9.254 -0.3866 -0.6549 -1.0537
  994MOL0     C34119   5.471   7.001   9.111  0.5877  0.1537 -0.7424
  994MOL0     C34120   5.485   6.955   8.996  0.0163  0.6836 -0.3446
  994MOL0     C34121   5.491   7.178   9.773  1.2891 -0.4206  0.0145
  994MOL0     C34122   5.573   7.195   9.887 -0.2795 -0.0286 -0.4825
  994MOL0     H34123   6.117   7.340   9.985 -1.4910 -0.7228 -1.4027
  994MOL0     H34124   6.265   7.399  10.172 -2.7182  1.9245 -0.6803
  994MOL0     H34125   6.320   7.126  10.541 -0.4265 -0.5749 -0.5400
  994MOL0     H34126   6.429   7.143  10.402  0.5801  0.4230  1.2825
  994MOL0     H34127   6.522   7.344  10.515 -0.2401 -3.1869 -2.4020
  994MOL0     H34128   6.370   7.350  10.619 -3.0721 -3.7566  1.3810
  994MOL0     H34129   6.523   7.087  10.639  1.2865 -0.1718  0.2512
  994MOL0     H34130   6.615   7.212  10.709  0.1204  1.7693 -1.6952
  994MOL0     H34131   6.422   7.263  10.862  0.0205 -1.8462  5.1023
  994MOL0     H34132   6.319   7.163  10.780 -0.2383 -2.6220  4.7853
  994MOL0     H34133   6.421   6.960  10.840  1.1555  0.6391  0.4772
  994MOL0     H34134   6.553   7.053  10.908 -0.2530 -0.7821  1.0291
  994MOL0     H34135   6.448   7.143  11.082 -0.0888  1.5099 -1.9121
  994MOL0     H34136   6.286   7.145  11.021 -2.2424 -2.3974 -0.7786
  994MOL0     H34137   6.411   6.880  11.123 -2.8937 -4.7252 -0.4411
  994MOL0     H34138   6.301   6.986  11.206 -0.4295  0.6041 -0.3856
  994MOL0     H34139   6.234   6.852  10.931 -1.1228  1.0324 -0.8867
  994MOL0     H34140   6.128   6.950  11.024  0.7555 -0.5121 -0.5085
  994MOL0     H34141   6.105   6.868  11.294 -2.3294  0.4713 -0.0648
  994MOL0     H34142   5.986   6.502  11.374  0.3765 -1.0267  0.3561
  994MOL0     H34143   6.088   6.612  11.471  0.2505 -0.9386 -0.1365
  994MOL0     H34144   5.831   6.681  11.329 -0.4680 -0.7582 -0.0023
  994MOL0     H34145   5.922   6.790  11.441 -1.2320  0.6665  1.1053
  994MOL0     H34146   5.758   6.554  11.520  1.5841 -1.5699  0.5165
  994MOL0     H34147   5.763   6.714  11.586 -0.2836 -1.5617  1.4858
  994MOL0     H34148   5.833   6.563  11.746 -0.1189 -0.3146  0.5626
  994MOL0     H34149   5.984   6.651  11.701 -1.8225  1.7100  0.7777
  994MOL0     H34150   6.190   6.376  11.567 -1.7288  2.5674  0.1329
  994MOL0     H34151   6.380   6.260  11.588  0.6132  2.7550 -0.1170
  994MOL0     H34152   6.491   6.341  11.704 -1.8612  2.9201 -1.6768
  994MOL0     H34153   6.420   6.179  11.736 -0.5375 -0.6673  0.6190
  994MOL0     H34154   6.385   6.082  12.256  0.0123  0.5177 -4.5141
  994MOL0     H34155   6.575   6.033  12.396 -4.8664 -1.4208 -0.3504
  994MOL0     H34156   6.707   6.027  12.574  2.6094 -1.9886 -0.2270
  994MOL0     H34157   6.815   6.012  12.439 -1.8740  0.6863 -1.9744
  994MOL0     H34158   6.886   6.171  12.707 -3.0055 -2.2135  2.6671
  994MOL0     H34159   6.942   6.018  12.677 -2.2788 -1.1794 -1.3093
  994MOL0     H34160   7.112   6.192  12.600  1.0730 -0.1715 -1.3538
  994MOL0     H34161   7.008   6.248  12.479 -0.4564 -0.0232 -0.2695
  994MOL0     H34162   7.108   5.968  12.510 -0.9025  2.0275  2.7188
  994MOL0     H34163   7.033   6.024  12.359  1.9225 -0.9349 -0.2629
  994MOL0     H34164   7.267   5.999  12.325 -1.0509 -0.9341  1.5298
  994MOL0     H34165   7.310   6.088  12.473  0.9275 -1.5931 -0.7256
  994MOL0     H34166   7.241   6.290  12.393 -0.0497  1.1414 -0.7756
  994MOL0     H34167   7.335   6.238  12.259  0.0148 -1.7332  0.1791
  994MOL0     H34168   7.033   6.288  12.263 -1.5010 -1.5706 -0.8744
  994MOL0     H34169   7.080   6.150  12.174 -1.0776 -0.0418  1.5424
  994MOL0     H34170   7.216   6.415  12.112  2.1875 -0.8232 -0.9805
  994MOL0     H34171   7.075   6.330  12.023  0.2080  1.9662  0.5225
  994MOL0     H34172   6.698   6.448  12.364 -0.8771  0.8914  0.8715
  994MOL0     H34173   6.533   6.488  12.219 -4.1081 -0.2066  0.0331
  994MOL0     H34174   6.129   6.416  12.053 -3.4769 -0.7058 -0.4476
  994MOL0     H34175   5.951   6.472  11.898  0.8324  3.6718 -2.0051
  994MOL0     H34176   6.105   7.066  10.402  4.0103 -0.5695 -0.3291
  994MOL0     H34177   5.946   7.020  10.232  0.1165  0.3813 -0.8070
  994MOL0     H34178   5.861   7.081   9.755 -0.5746 -2.7262 -2.0145
  994MOL0     H34179   5.710   7.030   9.575 -1.0315  0.5667 -0.4750
  994MOL0     H34180   5.253   7.030   9.635 -0.4060 -0.8030 -1.2379
  994MOL0     H34181   5.289   7.166   9.552 -4.2984 -0.5094  0.2529
  994MOL0     H34182   5.158   6.995   9.435  0.5031 -0.2952  3.2801
  994MOL0     H34183   5.285   6.890   9.410  1.9390  1.1916 -2.5686
  994MOL0     H34184   5.301   7.182   9.314  2.9212 -0.0752 -2.2529
  994MOL0     H34185   5.245   7.053   9.218 -0.8840  1.2679 -0.1925
  994MOL0     H34186   5.499   6.945   9.302  0.1615  0.6284  1.1557
  994MOL0     H34187   5.513   7.130   9.283 -2.0105 -0.2240  0.4848
  994MOL0     H34188   5.499   6.935   8.891 -2.6543 -0.5529 -0.5391
  994MOL0     H34189   5.387   7.212   9.773  0.2387 -3.3134  0.9425
  994MOL0     H34190   5.529   7.238   9.977 -0.0314  0.3037 -0.5156
  995MOL0     O34191   2.556  11.081   2.697 -0.2056 -0.2102  0.2065
  995MOL0     C34192   2.559  11.179   2.774 -0.0483  0.4189  0.3196
  995MOL0     O34193   2.619  11.297   2.759 -0.3603  0.3052  0.8357
  995MOL0     C34194   2.687  11.315   2.638 -0.0725  0.3190 -0.5968
  995MOL0     C34195   2.794  11.228   2.609 -0.1515  0.1438  1.0261
  995MOL0     C34196   2.851  11.227   2.482  0.0297 -0.5579 -0.7150
  995MOL0     C34197   2.797  11.315   2.389 -0.5810  0.4575  0.2289
  995MOL0     O34198   2.828  11.308   2.261 -0.0602  0.0374 -0.0777
  995MOL0     C34199   2.810  11.191   2.190  0.2313  1.0636 -0.3363
  995MOL0     C34200   2.859  11.233   2.047  0.4391 -0.2307 -0.2534
  995MOL0     C34201   2.863  11.112   1.950  0.0249 -0.0264 -0.1769
  995MOL0     C34202   2.899  11.146   1.806 -1.1476  0.2974 -0.4744
  995MOL0     C34203   2.930  11.025   1.720  0.5769  0.1044  0.1155
  995MOL0     C34204   3.072  10.971   1.753  0.3090 -0.3413  0.2570
  995MOL0     C34205   3.107  10.875   1.626 -0.6544  0.0123 -0.0483
  995MOL0     C34206   3.007  10.767   1.615 -0.4370  0.6409 -0.0349
  995MOL0     N34207   3.046  10.672   1.511  0.1843  0.2671  0.3480
  995MOL0     C34208   2.988  10.666   1.393  0.1231 -0.3479 -1.2099
  995MOL0     C34209   3.049  10.562   1.323  1.0462 -0.7873 -0.3391
  995MOL0     C34210   3.009  10.500   1.189 -0.6027 -0.7906  0.2253
  995MOL0     C34211   2.901  10.574   1.109  0.6356  0.9084 -0.0516
  995MOL0     C34212   2.959  10.709   1.056 -0.1365 -0.7492  0.1751
  995MOL0     C34213   2.852  10.813   1.022 -0.3452  0.2827  0.7344
  995MOL0     O34214   2.745  10.817   1.116 -0.0458  0.0097  0.1245
  995MOL0     C34215   2.634  10.881   1.075  0.1287  0.2238  0.1623
  995MOL0     C34216   2.517  10.836   1.142  0.0947 -0.1502 -0.0324
  995MOL0     C34217   2.387  10.889   1.119  0.0692 -1.2164  0.1626
  995MOL0     C34218   2.272  10.826   1.185 -0.6986 -0.1599  0.0295
  995MOL0     C34219   2.382  10.995   1.031  0.3890  0.0536  0.7205
  995MOL0     C34220   2.250  11.057   0.996  0.5230  1.1540  0.4266
  995MOL0     O34221   2.142  11.028   1.072  0.8109  0.9042  0.4116
  995MOL0     C34222   2.022  11.055   1.029  0.4764 -0.6607  0.9335
  995MOL0     C34223   1.934  10.960   0.973  0.4157  1.3523 -0.0067
  995MOL0     C34224   1.791  10.990   0.970  0.1944  0.4743  0.3359
  995MOL0     C34225   1.744  11.112   1.009 -0.4660  0.3824  0.4034
  995MOL0     O34226   1.610  11.145   1.004  0.2516  0.2034  0.4361
  995MOL0     C34227   1.503  11.055   1.018 -0.0164  0.2417 -1.0522
  995MOL0     C34228   1.398  11.104   1.118 -0.3480 -0.0076  0.3087
  995MOL0     C34229   1.449  11.133   1.262  0.3708  0.3239 -0.0265
  995MOL0     C34230   1.330  11.164   1.354 -0.4698  0.4676  0.5726
  995MOL0     C34231   1.371  11.179   1.494  0.3102  0.3003  0.3580
  995MOL0     C34232   1.484  11.282   1.534 -0.3794 -0.1044 -1.0872
  995MOL0     C34233   1.523  11.272   1.682 -0.0307  0.3908 -0.7722
  995MOL0     C34234   1.674  11.331   1.701  0.4878  0.6277 -0.1896
  995MOL0    Cl34235   1.738  11.308   1.866 -0.3492  0.0005 -0.5142
  995MOL0     C34236   1.837  11.208   1.058  0.1103  0.5747 -0.2519
  995MOL0     C34237   1.975  11.177   1.059  0.6306  0.0105  0.4680
  995MOL0     O34238   2.252  11.131   0.897 -0.7010  0.5766  0.1675
  995MOL0     C34239   2.498  11.045   0.970  0.9715  0.2433 -0.3520
  995MOL0     C34240   2.623  10.992   0.990 -0.4300 -0.2009 -0.0403
  995MOL0     N34241   3.148  10.508   1.406 -0.6128 -0.8274  0.3819
  995MOL0     N34242   3.145  10.572   1.518  0.5405 -1.2186  0.2211
  995MOL0     C34243   2.711  11.420   2.424  0.6209  0.7858  0.0887
  995MOL0     C34244   2.658  11.417   2.549 -0.7092 -0.2625 -0.1089
  995MOL0     C34245   2.496  11.159   2.905 -0.1399 -0.5895  0.0689
  995MOL0     C34246   2.485  11.263   2.992  0.0493 -0.8003  0.1056
  995MOL0     C34247   2.429  11.238   3.119 -0.8659 -0.6633  0.0539
  995MOL0     C34248   2.366  11.117   3.154 -0.2850  0.2121 -0.8851
  995MOL0     O34249   2.305  11.101   3.273  0.5377  0.4436  0.7070
  995MOL0     C34250   2.187  11.176   3.283 -0.1535 -0.9665 -0.2953
  995MOL0     C34251   2.041  11.124   3.256 -0.5215 -0.0601  0.5620
  995MOL0     C34252   2.011  10.983   3.316 -0.7259 -0.1571 -0.2618
  995MOL0     C34253   1.859  10.942   3.294  0.0631 -1.9495 -0.8240
  995MOL0     C34254   1.775  11.049   3.362  0.5365 -0.3396 -0.0336
  995MOL0     C34255   1.706  11.113   3.445 -0.2142 -0.9710 -0.3865
  995MOL0     C34256   2.378  11.015   3.064 -0.2987  0.0774 -0.5406
  995MOL0     C34257   2.452  11.032   2.948 -0.3768 -0.2663  0.0273
  995MOL0     H34258   2.813  11.143   2.674 -0.5937 -2.5499 -2.1027
  995MOL0     H34259   2.929  11.162   2.446  1.5044  0.1739  1.0165
  995MOL0     H34260   2.871  11.114   2.237 -3.1526 -1.1081  0.8608
  995MOL0     H34261   2.708  11.151   2.193  1.1928 -1.9634 -2.8334
  995MOL0     H34262   2.800  11.313   2.002  2.6109  0.1161 -2.7216
  995MOL0     H34263   2.959  11.269   2.072 -0.3135  1.6422  0.2736
  995MOL0     H34264   2.942  11.043   1.982 -1.0489 -0.8946  0.6967
  995MOL0     H34265   2.761  11.072   1.957 -1.1061  1.7600 -3.8877
  995MOL0     H34266   2.824  11.211   1.758  0.4604  1.8992 -0.9399
  995MOL0     H34267   2.988  11.209   1.812 -0.3379 -0.9504  2.2409
  995MOL0     H34268   2.854  10.950   1.745  1.1305  0.3177  2.7064
  995MOL0     H34269   2.920  11.047   1.613 -0.4612 -1.0668 -0.0532
  995MOL0     H34270   3.154  11.044   1.754  1.2446 -1.3578  0.1939
  995MOL0     H34271   3.076  10.915   1.847  0.8705 -1.4483 -0.4050
  995MOL0     H34272   3.101  10.942   1.540  0.3975  0.1079 -0.0536
  995MOL0     H34273   3.209  10.837   1.616 -1.1841 -1.4371 -0.1352
  995MOL0     H34274   2.907  10.804   1.588 -1.1301 -1.0631  0.0540
  995MOL0     H34275   3.001  10.716   1.712 -2.1659  2.7300  1.0704
  995MOL0     H34276   2.909  10.730   1.356 -1.9011 -2.4303 -0.6740
  995MOL0     H34277   3.099  10.496   1.126 -0.9309 -1.7600 -0.2112
  995MOL0     H34278   2.980  10.398   1.217 -0.7966 -0.6513  0.5298
  995MOL0     H34279   2.812  10.581   1.173  0.8224  0.8939  0.2086
  995MOL0     H34280   2.883  10.508   1.024 -3.0213  0.1502  1.1022
  995MOL0     H34281   3.009  10.683   0.963 -1.2422  0.8440 -0.9145
  995MOL0     H34282   3.029  10.759   1.124 -0.7092 -0.6550  0.7117
  995MOL0     H34283   2.808  10.793   0.924  2.9378 -1.2768 -0.5738
  995MOL0     H34284   2.903  10.909   1.010  2.9668 -1.4102  0.3170
  995MOL0     H34285   2.524  10.756   1.215  1.8656 -1.4653 -1.5444
  995MOL0     H34286   2.221  10.897   1.251 -2.9042 -2.2878  0.7432
  995MOL0     H34287   2.200  10.785   1.114 -0.4800 -2.8227  1.2558
  995MOL0     H34288   2.310  10.747   1.249 -0.7940 -2.2044 -2.3039
  995MOL0     H34289   1.974  10.861   0.955 -1.7115  0.0693  1.8566
  995MOL0     H34290   1.743  10.904   0.922  1.3249 -0.5028  0.9016
  995MOL0     H34291   1.448  11.039   0.925  1.3873 -1.4615 -1.6356
  995MOL0     H34292   1.537  10.957   1.053  1.2437  1.9235  3.0879
  995MOL0     H34293   1.366  11.202   1.079  1.6074 -0.3730 -2.5239
  995MOL0     H34294   1.314  11.035   1.111 -0.3889  0.1076 -0.3597
  995MOL0     H34295   1.517  11.218   1.256 -0.0595  0.6473 -0.3869
  995MOL0     H34296   1.504  11.050   1.307 -1.0092  0.4290  2.0136
  995MOL0     H34297   1.275  11.251   1.315 -3.4460 -0.9781  1.2527
  995MOL0     H34298   1.261  11.079   1.355  1.1329 -0.9312  2.9601
  995MOL0     H34299   1.400  11.083   1.537 -0.2053  0.1735  0.4249
  995MOL0     H34300   1.278  11.206   1.545 -0.1647  2.1157 -1.3464
  995MOL0     H34301   1.571  11.267   1.470  0.8543  3.2179 -0.3463
  995MOL0     H34302   1.462  11.387   1.513 -0.4081  0.0630 -0.2665
  995MOL0     H34303   1.515  11.170   1.721  0.1997  0.3449 -0.8400
  995MOL0     H34304   1.448  11.334   1.732  0.9855  0.5757  0.5980
  995MOL0     H34305   1.669  11.438   1.679 -0.1309  0.7472  0.4789
  995MOL0     H34306   1.738  11.283   1.626 -1.0685  0.8606 -1.7234
  995MOL0     H34307   1.791  11.303   1.081 -0.6947  0.3159 -0.7140
  995MOL0     H34308   2.054  11.247   1.085  1.2245 -0.5811  0.2687
  995MOL0     H34309   2.487  11.139   0.917  0.0249  0.6349  0.5018
  995MOL0     H34310   2.709  11.045   0.951 -0.1828 -0.7496 -0.2466
  995MOL0     H34311   2.686  11.499   2.354 -1.5998 -1.1004 -1.4147
  995MOL0     H34312   2.607  11.508   2.579  1.3802  0.2153  2.3818
  995MOL0     H34313   2.508  11.364   2.958  1.0193 -1.2085 -0.4979
  995MOL0     H34314   2.419  11.327   3.180  3.1472  0.7221 -1.0267
  995MOL0     H34315   2.197  11.235   3.374  1.7062 -1.5488 -0.0832
  995MOL0     H34316   2.188  11.258   3.210  0.6127  0.8266  1.6417
  995MOL0     H34317   2.014  11.125   3.151 -0.8308  1.6921  0.6233
  995MOL0     H34318   1.983  11.201   3.309  1.5458  1.0411  1.3557
  995MOL0     H34319   2.038  10.985   3.422  1.8406 -1.9271 -0.7932
  995MOL0     H34320   2.076  10.909   3.269 -2.2987  0.0158 -2.9075
  995MOL0     H34321   1.817  10.844   3.316 -0.2826 -1.6186  0.0521
  995MOL0     H34322   1.838  10.954   3.188 -1.5906  0.2871 -0.3289
  995MOL0     H34323   1.640  11.170   3.506 -0.1280 -1.6491  0.3611
  995MOL0     H34324   2.335  10.919   3.090  0.9555  0.5460  4.1384
  995MOL0     H34325   2.475  10.946   2.885 -1.9762 -0.1247 -0.7852
  996MOL0     O34326   3.034   5.278   6.692 -0.3020 -0.5740  0.2260
  996MOL0     C34327   3.061   5.298   6.813  0.5429 -0.4565  0.6026
  996MOL0     O34328   2.975   5.290   6.918  0.3857 -0.2373  0.4529
  996MOL0     C34329   2.835   5.328   6.903  0.4936  0.3430 -0.5072
  996MOL0     C34330   2.781   5.402   6.794  0.1841  0.0840 -0.5370
  996MOL0     C34331   2.640   5.397   6.787 -0.6210  0.8001  0.6698
  996MOL0     C34332   2.556   5.330   6.884  0.0818 -0.5769  0.1518
  996MOL0     O34333   2.417   5.325   6.851 -0.0462 -0.0602  0.0222
  996MOL0     C34334   2.330   5.222   6.903 -0.7182 -1.1160 -0.3146
  996MOL0     C34335   2.185   5.264   6.921 -0.3783  0.2225  1.1844
  996MOL0     C34336   2.175   5.404   6.981 -0.7441  0.0863 -0.8959
  996MOL0     C34337   2.182   5.408   7.137  0.2932  0.5829 -0.3618
  996MOL0     C34338   2.136   5.546   7.191  0.1842  0.5853  0.4549
  996MOL0     C34339   2.187   5.554   7.335  0.3638  0.2609 -1.1004
  996MOL0     C34340   2.149   5.695   7.388 -0.5368 -0.7758  0.2811
  996MOL0     C34341   2.183   5.701   7.534 -0.1944 -0.5982 -0.2910
  996MOL0     N34342   2.328   5.688   7.561 -0.3471 -0.2529  0.4082
  996MOL0     C34343   2.426   5.770   7.501 -0.1694  0.9899  0.6214
  996MOL0     C34344   2.548   5.717   7.541  0.7406  0.5556 -0.0336
  996MOL0     C34345   2.680   5.761   7.490  0.6149 -0.4953  0.2711
  996MOL0     C34346   2.777   5.806   7.599 -0.8197 -0.1230  0.8494
  996MOL0     C34347   2.782   5.960   7.635  0.4504 -0.0577  0.8165
  996MOL0     C34348   2.645   6.011   7.676 -0.3653 -0.4806  0.0592
  996MOL0     O34349   2.642   6.012   7.818  0.1528  0.0264  0.1865
  996MOL0     C34350   2.526   6.057   7.873 -0.8845 -0.5212  0.5304
  996MOL0     C34351   2.413   5.977   7.856  0.2378 -0.7250 -0.0361
  996MOL0     C34352   2.291   6.017   7.904  0.3712  0.1539 -0.5130
  996MOL0     C34353   2.178   5.933   7.884  0.7609 -0.3587  0.1344
  996MOL0     C34354   2.287   6.136   7.982  0.0882  0.5060 -0.5134
  996MOL0     C34355   2.160   6.189   8.023  0.4105  0.7344 -0.3334
  996MOL0     O34356   2.092   6.133   8.130  0.4298 -0.2470  0.3599
  996MOL0     C34357   1.964   6.179   8.154 -0.7451 -0.1494 -0.2864
  996MOL0     C34358   1.845   6.120   8.126  0.1187 -0.5342  0.1042
  996MOL0     C34359   1.712   6.165   8.162 -0.6508  0.0110  0.3023
  996MOL0     C34360   1.703   6.282   8.240  0.2404  0.4046  0.5908
  996MOL0     O34361   1.582   6.336   8.271  0.3118  1.0628  0.1799
  996MOL0     C34362   1.582   6.470   8.311 -1.1242 -0.9378  0.3507
  996MOL0     C34363   1.439   6.507   8.347  0.6354 -0.9977  0.2067
  996MOL0     C34364   1.344   6.492   8.233  0.1607 -0.2689  0.8275
  996MOL0     C34365   1.205   6.530   8.288  0.5559  0.2373  0.5525
  996MOL0     C34366   1.087   6.525   8.176  0.3594  0.7499 -0.9700
  996MOL0     C34367   1.070   6.389   8.106  0.7815  0.8986  0.7989
  996MOL0     C34368   0.928   6.380   8.039 -0.1757  0.2971 -0.4737
  996MOL0     C34369   0.908   6.233   7.987 -0.5050 -0.1589  0.3703
  996MOL0    Cl34370   1.007   6.215   7.841 -0.1869  0.2409  0.1853
  996MOL0     C34371   1.825   6.354   8.268  0.9240 -1.0284  0.4979
  996MOL0     C34372   1.954   6.303   8.221  0.3785 -0.6828 -0.4949
  996MOL0     O34373   2.120   6.273   7.945  0.0655 -0.5386  1.3092
  996MOL0     C34374   2.404   6.209   8.009  0.6554  0.3176  0.7535
  996MOL0     C34375   2.527   6.172   7.951 -0.3356  0.1613  0.5031
  996MOL0     N34376   2.523   5.599   7.613 -0.4961 -0.3750  0.0789
  996MOL0     N34377   2.394   5.577   7.613 -0.1045 -0.3537 -0.3665
  996MOL0     C34378   2.615   5.281   6.995 -0.1663  0.2947 -0.8414
  996MOL0     C34379   2.751   5.271   7.004  0.8824  0.4035  0.3539
  996MOL0     C34380   3.207   5.307   6.842  0.2569  0.1763 -0.2889
  996MOL0     C34381   3.309   5.246   6.760  0.1491  0.5868 -1.5020
  996MOL0     C34382   3.442   5.234   6.815  0.8287 -0.1618  0.8347
  996MOL0     C34383   3.478   5.314   6.927 -0.6754  0.9732  0.0839
  996MOL0     O34384   3.616   5.319   6.961 -0.2396  0.1650 -0.2977
  996MOL0     C34385   3.727   5.258   6.894 -0.2458 -0.3481  0.4899
  996MOL0     C34386   3.859   5.300   6.954  0.7717 -0.9047 -0.0382
  996MOL0     C34387   3.861   5.273   7.103 -0.6484  0.4071  0.3531
  996MOL0     C34388   3.996   5.318   7.166 -0.0289  0.3433 -0.0455
  996MOL0     C34389   4.005   5.271   7.304 -0.6809 -1.0930  0.4631
  996MOL0     C34390   4.030   5.210   7.408 -0.2161  0.8565 -0.2696
  996MOL0     C34391   3.374   5.373   7.002  0.2465  0.7977  0.4895
  996MOL0     C34392   3.239   5.375   6.963  0.5435  0.6817  1.0189
  996MOL0     H34393   2.840   5.435   6.709 -3.2438  2.4253 -2.2542
  996MOL0     H34394   2.601   5.453   6.702 -1.6177  4.0678  3.0821
  996MOL0     H34395   2.334   5.144   6.827 -0.6610 -1.7212  0.2942
  996MOL0     H34396   2.368   5.188   7.000  1.6715  1.6134 -0.1735
  996MOL0     H34397   2.143   5.264   6.821  2.9734  3.7449 -0.5282
  996MOL0     H34398   2.136   5.187   6.980  3.9546 -1.3052  3.2291
  996MOL0     H34399   2.239   5.478   6.931  0.3826  0.6699  1.2568
  996MOL0     H34400   2.069   5.425   6.963 -0.6366  0.4056 -1.1629
  996MOL0     H34401   2.110   5.344   7.188  1.6763 -1.1385 -0.5030
  996MOL0     H34402   2.279   5.370   7.171 -1.3282 -0.9644  3.0325
  996MOL0     H34403   2.183   5.619   7.124  1.9656  0.4126  1.4543
  996MOL0     H34404   2.027   5.555   7.180  0.1254  2.1125  1.8262
  996MOL0     H34405   2.156   5.476   7.404  0.7298  1.4974  0.5170
  996MOL0     H34406   2.295   5.539   7.325  0.7402  1.3649  0.9276
  996MOL0     H34407   2.191   5.775   7.327 -0.0838 -2.8411 -2.3465
  996MOL0     H34408   2.041   5.716   7.385 -0.4756 -0.5237 -0.3940
  996MOL0     H34409   2.134   5.613   7.578 -4.2621  0.4897 -2.1577
  996MOL0     H34410   2.155   5.799   7.574  1.4699 -1.0393  2.1830
  996MOL0     H34411   2.425   5.857   7.437  0.2115  0.4434 -0.1431
  996MOL0     H34412   2.738   5.677   7.450 -1.2154 -1.5354 -0.2875
  996MOL0     H34413   2.676   5.837   7.412 -0.4101 -0.0804  0.7105
  996MOL0     H34414   2.880   5.787   7.567 -2.0979 -1.6825 -2.8504
  996MOL0     H34415   2.760   5.735   7.681 -1.7380 -0.9305 -0.0250
  996MOL0     H34416   2.819   6.014   7.547 -1.4429  1.3556  0.8143
  996MOL0     H34417   2.855   5.971   7.715  2.0677  0.9525 -0.7157
  996MOL0     H34418   2.560   5.962   7.628 -1.9137  1.5064  0.6389
  996MOL0     H34419   2.644   6.117   7.648  2.3188 -0.5204 -0.4599
  996MOL0     H34420   2.428   5.886   7.800 -1.7095 -1.2916  0.2581
  996MOL0     H34421   2.199   5.842   7.828 -1.6241 -1.2944  0.6326
  996MOL0     H34422   2.152   5.901   7.985 -0.6941 -2.5076 -0.8573
  996MOL0     H34423   2.098   5.986   7.832  0.2229 -0.7381  0.5648
  996MOL0     H34424   1.845   6.027   8.069 -2.4826 -0.5968  0.0504
  996MOL0     H34425   1.626   6.116   8.118 -1.8420  1.9971  0.2949
  996MOL0     H34426   1.637   6.491   8.403 -0.2126 -2.4118  0.1734
  996MOL0     H34427   1.618   6.534   8.229 -1.4369 -1.6658 -0.3697
  996MOL0     H34428   1.405   6.440   8.427  0.3643 -0.4598  0.5490
  996MOL0     H34429   1.438   6.609   8.385 -0.5014 -1.8308  2.6029
  996MOL0     H34430   1.337   6.385   8.209 -1.4892  0.0120 -0.0863
  996MOL0     H34431   1.383   6.551   8.150  0.8548 -1.2276  0.4422
  996MOL0     H34432   1.189   6.455   8.366  0.5370  1.1982  1.5072
  996MOL0     H34433   1.203   6.633   8.326 -2.3738  0.7522 -0.6887
  996MOL0     H34434   1.104   6.597   8.096  2.8354 -0.1474 -1.3414
  996MOL0     H34435   0.997   6.547   8.234 -1.0943 -3.3834 -1.3783
  996MOL0     H34436   1.146   6.384   8.028 -0.5062  0.9085 -0.4957
  996MOL0     H34437   1.091   6.306   8.174  3.0110 -0.0391 -0.9254
  996MOL0     H34438   0.933   6.444   7.950  0.8845  0.6259 -0.1843
  996MOL0     H34439   0.844   6.403   8.106 -4.7694 -0.5656 -5.3033
  996MOL0     H34440   0.806   6.210   7.954  0.5251 -5.5490 -0.0539
  996MOL0     H34441   0.921   6.158   8.065  0.1601 -1.0852 -0.6019
  996MOL0     H34442   1.823   6.450   8.319 -2.1566 -1.2431  0.9803
  996MOL0     H34443   2.048   6.357   8.233 -0.0263  0.2118 -1.1797
  996MOL0     H34444   2.395   6.311   8.046  1.7282  1.5223 -2.1084
  996MOL0     H34445   2.614   6.236   7.962 -0.1888 -0.1260  1.0283
  996MOL0     H34446   2.548   5.229   7.063 -0.6573 -0.9597 -2.2527
  996MOL0     H34447   2.807   5.221   7.082  1.0963  0.9417  0.5516
  996MOL0     H34448   3.299   5.198   6.663  1.4647 -1.4523 -0.6972
  996MOL0     H34449   3.517   5.183   6.754  0.1739 -0.3842  0.2043
  996MOL0     H34450   3.711   5.150   6.897 -2.3834 -0.0547  1.2448
  996MOL0     H34451   3.723   5.295   6.791 -1.6334 -2.2449 -0.2131
  996MOL0     H34452   3.869   5.408   6.945  6.7521 -1.2776 -2.1356
  996MOL0     H34453   3.944   5.257   6.901  0.4173 -1.1115 -0.4501
  996MOL0     H34454   3.840   5.168   7.125  0.7506 -0.2007 -1.0164
  996MOL0     H34455   3.788   5.342   7.146 -2.4325  1.4094 -3.7704
  996MOL0     H34456   4.017   5.424   7.154 -0.4885  0.4360 -0.0260
  996MOL0     H34457   4.074   5.266   7.108 -2.9585 -1.8023 -2.3659
  996MOL0     H34458   4.073   5.155   7.489 -1.3826  3.2679  2.1809
  996MOL0     H34459   3.382   5.425   7.096 -0.6511  0.3209  0.8416
  996MOL0     H34460   3.154   5.423   7.010 -2.0766 -3.7478  1.3515
  997MOL0     O34461  10.648   8.220   7.176 -1.0122 -0.1449 -0.1849
  997MOL0     C34462  10.739   8.135   7.193  0.5515  0.3304 -0.6012
  997MOL0     O34463  10.876   8.158   7.207 -0.0521 -0.1462  0.3544
  997MOL0     C34464  10.919   8.284   7.186 -0.1316  0.4171  0.2356
  997MOL0     C34465  10.900   8.343   7.056  0.3801 -0.6868  0.2865
  997MOL0     C34466  10.947   8.477   7.030  0.1989  0.5241 -1.2341
  997MOL0     C34467  11.036   8.542   7.122 -0.0918 -0.3115  0.0715
  997MOL0     O34468  11.080   8.669   7.072 -0.4484  0.4351  0.8535
  997MOL0     C34469  11.210   8.707   7.119  0.2164 -0.4099 -0.5286
  997MOL0     C34470  11.289   8.754   7.000  0.5360 -0.1288 -0.2374
  997MOL0     C34471  11.427   8.797   7.051 -0.0323 -0.6429  0.0944
  997MOL0     C34472  11.496   8.919   6.975 -0.7383  0.1853  0.0030
  997MOL0     C34473  11.640   8.949   7.020  0.6656  0.7419 -0.1678
  997MOL0     C34474  11.695   9.082   6.967 -0.5115 -0.4065 -0.2101
  997MOL0     C34475  11.661   9.110   6.821 -0.0609 -0.2410 -0.1943
  997MOL0     C34476  11.745   9.231   6.768  1.3555 -0.8538 -0.8253
  997MOL0     N34477  11.673   9.284   6.649  0.4710  0.7820 -0.4644
  997MOL0     C34478  11.598   9.401   6.641  0.7331  0.4474  0.0172
  997MOL0     C34479  11.577   9.410   6.506 -0.8086  0.2296  0.1567
  997MOL0     C34480  11.494   9.518   6.438  0.8269  0.2939 -0.6124
  997MOL0     C34481  11.364   9.464   6.364  0.1032  0.3595  0.1509
  997MOL0     C34482  11.378   9.463   6.213  0.0965 -0.2516  0.6103
  997MOL0     C34483  11.255   9.404   6.139  0.1019  0.2895 -0.3790
  997MOL0     O34484  11.127   9.461   6.174 -0.1632  0.5769 -0.3160
  997MOL0     C34485  11.098   9.578   6.105  0.0113 -0.4279 -0.4761
  997MOL0     C34486  11.165   9.636   6.001 -0.3998 -0.8781 -0.0121
  997MOL0     C34487  11.132   9.768   5.945  0.3105  0.2486 -0.4435
  997MOL0     C34488  11.218   9.826   5.845  0.7678 -0.2729  0.0034
  997MOL0     C34489  10.997   9.821   5.978  0.0373 -0.1324 -0.0746
  997MOL0     C34490  10.948   9.950   5.932 -0.6207  0.4726  0.2545
  997MOL0     O34491  11.040  10.052   5.925 -0.5517  0.1715  0.3994
  997MOL0     C34492  11.002  10.162   5.853  0.5556  0.8542  0.0031
  997MOL0     C34493  10.974  10.166   5.717 -0.2266  0.0559  0.6601
  997MOL0     C34494  10.941  10.285   5.663 -0.5612  0.6037 -0.5195
  997MOL0     C34495  10.911  10.393   5.742 -0.0643  0.2421  0.9588
  997MOL0     O34496  10.853  10.512   5.697 -0.1407 -0.5428  0.0821
  997MOL0     C34497  10.869  10.556   5.556 -0.0780  0.2880 -0.9395
  997MOL0     C34498  10.829  10.699   5.540  1.2915  0.2859 -0.8312
  997MOL0     C34499  10.687  10.734   5.484 -0.3855 -0.8548  0.5152
  997MOL0     C34500  10.631  10.865   5.536  0.7078  0.2351  0.5908
  997MOL0     C34501  10.480  10.889   5.495  0.1683 -0.2288  0.0709
  997MOL0     C34502  10.436  11.027   5.555 -0.1591 -0.1970 -0.6637
  997MOL0     C34503  10.294  11.073   5.503 -0.1895  0.6360 -0.4498
  997MOL0     C34504  10.243  11.212   5.531  0.1824  1.3354  0.1786
  997MOL0    Cl34505  10.343  11.340   5.469 -0.4933  0.1517 -0.4894
  997MOL0     C34506  10.942  10.394   5.882  0.8707 -0.3409 -0.5194
  997MOL0     C34507  10.984  10.281   5.932 -0.7834  0.5156 -0.1020
  997MOL0     O34508  10.828   9.963   5.908  0.3613  0.1056  0.2174
  997MOL0     C34509  10.922   9.756   6.077  0.5922 -0.5198  0.0907
  997MOL0     C34510  10.972   9.643   6.134  0.7221  0.2169  1.0030
  997MOL0     N34511  11.626   9.297   6.441 -0.6083 -0.8199 -0.5451
  997MOL0     N34512  11.685   9.229   6.534  0.2524  0.2885  0.9954
  997MOL0     C34513  11.060   8.474   7.242 -0.7026  0.3898 -1.0766
  997MOL0     C34514  11.002   8.346   7.278 -1.0182 -0.6694  0.5043
  997MOL0     C34515  10.696   7.991   7.219 -0.2598 -0.0467 -0.3132
  997MOL0     C34516  10.782   7.885   7.187 -0.3763 -0.2168 -0.0605
  997MOL0     C34517  10.743   7.753   7.200 -0.4814 -0.0742 -0.4765
  997MOL0     C34518  10.630   7.724   7.270 -0.0832 -0.4134  0.2319
  997MOL0     O34519  10.579   7.608   7.311 -0.0799 -0.1532 -0.5742
  997MOL0     C34520  10.650   7.484   7.285  0.3062  0.2917 -0.8540
  997MOL0     C34521  10.594   7.415   7.172  0.2026 -0.2598  0.8699
  997MOL0     C34522  10.570   7.500   7.054  1.0399  0.4766 -0.0437
  997MOL0     C34523  10.520   7.407   6.937 -0.4561  0.1667  0.0186
  997MOL0     C34524  10.477   7.487   6.818  0.6902  0.0141  0.5767
  997MOL0     C34525  10.454   7.566   6.734 -0.1589 -0.7052  1.4640
  997MOL0     C34526  10.535   7.828   7.298  0.0051 -0.0603  0.0721
  997MOL0     C34527  10.570   7.961   7.268  0.8328 -0.2521 -0.4342
  997MOL0     H34528  10.849   8.296   6.973 -0.0529 -1.3607  0.9158
  997MOL0     H34529  10.921   8.540   6.944 -1.4803  0.8633 -0.5222
  997MOL0     H34530  11.198   8.770   7.208  3.7509 -0.6984  0.3271
  997MOL0     H34531  11.258   8.616   7.157 -0.2471 -0.5247 -0.2063
  997MOL0     H34532  11.286   8.672   6.928  1.0562  2.2060 -3.1002
  997MOL0     H34533  11.229   8.836   6.959  1.1916  0.0029 -0.9661
  997MOL0     H34534  11.424   8.837   7.153 -2.6883  1.9517 -0.8576
  997MOL0     H34535  11.489   8.708   7.044  0.3007 -0.2799 -2.0804
  997MOL0     H34536  11.497   8.893   6.868  1.6802  0.8462 -0.1983
  997MOL0     H34537  11.430   9.002   7.000 -1.3043  0.3319 -1.8268
  997MOL0     H34538  11.647   8.951   7.129  0.2821  1.1620 -0.1484
  997MOL0     H34539  11.709   8.873   6.982 -1.6661 -0.4817 -2.2341
  997MOL0     H34540  11.643   9.160   7.023 -1.4354 -1.3680  0.3054
  997MOL0     H34541  11.802   9.077   6.989 -0.5947 -0.8734  0.1025
  997MOL0     H34542  11.666   9.018   6.763 -4.4141 -1.3173  0.8282
  997MOL0     H34543  11.556   9.138   6.826 -0.3896 -1.3387 -0.7211
  997MOL0     H34544  11.844   9.190   6.745  1.7398 -1.6328  1.9244
  997MOL0     H34545  11.756   9.312   6.841  0.4141 -1.1675 -0.3182
  997MOL0     H34546  11.576   9.472   6.720  0.3669 -0.0265  0.3519
  997MOL0     H34547  11.463   9.581   6.521 -0.3326 -2.1479  0.9190
  997MOL0     H34548  11.565   9.576   6.379  0.8696  0.2372 -0.6166
  997MOL0     H34549  11.286   9.536   6.391 -0.1538  0.3223 -0.4840
  997MOL0     H34550  11.340   9.359   6.385  0.6045  0.2935  0.3989
  997MOL0     H34551  11.459   9.391   6.199  0.8801  0.7743 -0.3552
  997MOL0     H34552  11.411   9.554   6.163  2.7170 -2.3287 -1.7692
  997MOL0     H34553  11.250   9.301   6.176 -0.1484  0.6752  0.6978
  997MOL0     H34554  11.261   9.402   6.030 -2.0405 -1.1255 -0.5278
  997MOL0     H34555  11.251   9.589   5.954 -1.0204 -2.0853  0.0222
  997MOL0     H34556  11.243   9.930   5.869 -1.7117  0.5187 -0.5983
  997MOL0     H34557  11.310   9.768   5.832  1.6784  0.2454  3.3038
  997MOL0     H34558  11.172   9.829   5.746  2.0091 -0.2331 -0.5976
  997MOL0     H34559  10.999  10.085   5.649  0.9228  1.4896 -0.7277
  997MOL0     H34560  10.918  10.291   5.557 -6.3350  3.9788  0.4512
  997MOL0     H34561  10.976  10.554   5.531 -0.4958 -0.8420 -2.7803
  997MOL0     H34562  10.801  10.497   5.495  0.8734  0.3441 -2.1028
  997MOL0     H34563  10.833  10.751   5.636 -0.4926 -0.5923 -0.2409
  997MOL0     H34564  10.908  10.743   5.479 -0.6384  3.5662 -1.1655
  997MOL0     H34565  10.637  10.642   5.517 -0.0089 -0.7287  1.4387
  997MOL0     H34566  10.681  10.735   5.375  0.6755  1.7970  0.4072
  997MOL0     H34567  10.623  10.861   5.645  1.5708 -1.4974  0.6086
  997MOL0     H34568  10.687  10.958   5.518 -1.9092  2.7443  4.0715
  997MOL0     H34569  10.414  10.809   5.531 -2.0879  0.7280 -1.7648
  997MOL0     H34570  10.467  10.906   5.388 -2.8134  2.3455  0.7095
  997MOL0     H34571  10.432  11.018   5.664  0.0025 -0.7184 -0.6978
  997MOL0     H34572  10.506  11.110   5.540  0.0900  0.5642  3.4593
  997MOL0     H34573  10.221  11.000   5.539 -0.6483  1.8752  1.2642
  997MOL0     H34574  10.290  11.076   5.393 -0.0298  1.0269 -0.4448
  997MOL0     H34575  10.237  11.238   5.637  1.5308 -0.5219  0.7691
  997MOL0     H34576  10.137  11.225   5.507 -0.5215 -3.1828 -0.0391
  997MOL0     H34577  10.928  10.482   5.944  0.5017  0.4121 -1.6337
  997MOL0     H34578  11.019  10.279   6.035 -0.7214  1.7359 -0.0867
  997MOL0     H34579  10.822   9.789   6.102  0.1673 -1.3004 -0.5367
  997MOL0     H34580  10.909   9.588   6.203 -0.4701 -2.1792 -1.8268
  997MOL0     H34581  11.101   8.516   7.333 -0.4192  2.1082 -1.9399
  997MOL0     H34582  11.030   8.312   7.377  1.7175  1.5961  0.6551
  997MOL0     H34583  10.874   7.920   7.141  0.5808 -0.6717  1.4133
  997MOL0     H34584  10.799   7.670   7.159  2.0363  1.5967 -0.6802
  997MOL0     H34585  10.756   7.505   7.266 -0.0721  4.3946  0.4398
  997MOL0     H34586  10.650   7.419   7.372  0.0787 -1.3038 -1.9921
  997MOL0     H34587  10.496   7.377   7.201 -1.4523  0.2433 -3.3717
  997MOL0     H34588  10.654   7.326   7.152 -0.5078 -0.3685 -0.9521
  997MOL0     H34589  10.663   7.545   7.019  0.7153  1.8959  0.8437
  997MOL0     H34590  10.497   7.580   7.070  1.8171  1.2743 -0.3570
  997MOL0     H34591  10.447   7.338   6.981 -0.2992  0.0069  0.0291
  997MOL0     H34592  10.605   7.344   6.912 -0.2897 -0.6943  2.5468
  997MOL0     H34593  10.420   7.636   6.660  1.9989 -0.9631  0.1565
  997MOL0     H34594  10.437   7.815   7.343 -0.5557 -0.3670 -1.1920
  997MOL0     H34595  10.505   8.042   7.300  2.4821  1.0529 -0.2481
  998MOL0     O34596   4.401  10.258   9.568  0.3901 -0.6986  0.4278
  998MOL0     C34597   4.430  10.141   9.537  0.2815  0.0959  0.3780
  998MOL0     O34598   4.341  10.046   9.487  0.6983  0.3905 -0.4230
  998MOL0     C34599   4.208  10.067   9.508  0.8326  0.7318  0.8018
  998MOL0     C34600   4.125  10.113   9.404  0.2355 -0.2496  0.5979
  998MOL0     C34601   3.996  10.158   9.427 -0.1611 -0.3173 -0.1062
  998MOL0     C34602   3.937  10.147   9.557  0.5946 -0.3103 -0.2261
  998MOL0     O34603   3.802  10.174   9.572  0.3584 -1.1424  0.5897
  998MOL0     C34604   3.734  10.208   9.696 -0.1055 -0.1949  0.3372
  998MOL0     C34605   3.583  10.179   9.694 -0.2923  0.8105  0.4969
  998MOL0     C34606   3.514  10.295   9.619 -0.0320  0.2344 -0.8874
  998MOL0     C34607   3.365  10.265   9.595  0.4855 -0.3936 -0.0144
  998MOL0     C34608   3.288  10.287   9.730 -0.4624  0.3018 -0.8747
  998MOL0     C34609   3.141  10.287   9.725  0.3008  0.3897 -0.2182
  998MOL0     C34610   3.073  10.396   9.638 -0.1133  0.4869  0.6721
  998MOL0     C34611   2.988  10.488   9.720  0.9673 -0.1989 -0.3421
  998MOL0     N34612   2.944  10.610   9.656  0.1030  0.2984  0.4705
  998MOL0     C34613   2.912  10.617   9.525  0.1563  1.0647 -0.3579
  998MOL0     C34614   2.906  10.752   9.495 -1.3163  0.2473 -0.0423
  998MOL0     C34615   2.839  10.798   9.370  0.4902  0.4947 -0.1695
  998MOL0     C34616   2.715  10.870   9.422  0.5565  0.0277 -0.2428
  998MOL0     C34617   2.620  10.889   9.307 -0.1124  0.2731 -0.5161
  998MOL0     C34618   2.485  10.893   9.360  0.5216 -0.1704  0.5385
  998MOL0     O34619   2.400  10.934   9.252 -0.1771 -0.6187  0.0963
  998MOL0     C34620   2.262  10.926   9.280 -0.0938  1.0817  0.0501
  998MOL0     C34621   2.206  10.823   9.366  0.9358  0.4118 -0.1989
  998MOL0     C34622   2.065  10.820   9.403  0.7710  1.1249  0.6238
  998MOL0     C34623   2.014  10.696   9.484 -0.0208 -0.5760 -0.7561
  998MOL0     C34624   1.981  10.918   9.334  0.3219 -0.4851 -1.2552
  998MOL0     C34625   1.835  10.917   9.353  0.3974  0.1585  0.4906
  998MOL0     O34626   1.762  10.965   9.259  0.4598  0.4172 -0.1394
  998MOL0     C34627   1.618  10.967   9.258 -0.5571 -0.1875  0.3821
  998MOL0     C34628   1.540  10.973   9.143 -0.9183 -1.0534  0.4641
  998MOL0     C34629   1.408  10.958   9.144  0.0916  0.3417 -0.2404
  998MOL0     C34630   1.339  10.940   9.259 -0.4189  0.1331  0.1616
  998MOL0     O34631   1.203  10.938   9.256 -1.1622 -0.0254  0.5267
  998MOL0     C34632   1.142  10.810   9.231  0.7028 -0.3182 -0.3066
  998MOL0     C34633   0.994  10.798   9.270 -0.3990 -0.8048 -0.4236
  998MOL0     C34634   0.982  10.767   9.416  0.7414 -0.8021 -0.5683
  998MOL0     C34635   1.026  10.625   9.448 -0.5872  0.4223  0.5101
  998MOL0     C34636   0.971  10.513   9.356 -0.1655 -0.0346 -0.3141
  998MOL0     C34637   0.979  10.366   9.392  0.0165 -0.5173 -0.0336
  998MOL0     C34638   1.127  10.308   9.363  0.5089  0.1365 -0.7984
  998MOL0     C34639   1.154  10.169   9.428  0.0636  0.3660  1.3144
  998MOL0    Cl34640   1.214  10.186   9.604  0.3215 -0.2323  0.1705
  998MOL0     C34641   1.410  10.959   9.374  0.5511  0.2594  0.7576
  998MOL0     C34642   1.544  10.964   9.379  0.0951 -0.4108  0.5439
  998MOL0     O34643   1.791  10.883   9.461  0.0725 -0.2686  0.2504
  998MOL0     C34644   2.037  11.012   9.243 -0.2544  0.6818 -0.5776
  998MOL0     C34645   2.181  11.008   9.217  0.2239  0.3888  0.0085
  998MOL0     N34646   2.937  10.817   9.616 -0.1356  0.6834 -0.3775
  998MOL0     N34647   2.940  10.729   9.713 -0.8420  0.3656  1.0487
  998MOL0     C34648   4.018  10.089   9.661 -0.4149 -0.0620  0.3861
  998MOL0     C34649   4.154  10.055   9.634 -0.4354 -0.0706  0.2283
  998MOL0     C34650   4.570  10.113   9.533  0.8364  0.0768 -0.4179
  998MOL0     C34651   4.611   9.978   9.529  0.3340 -0.1380  0.0654
  998MOL0     C34652   4.744   9.948   9.549  0.3919  0.2332  0.5943
  998MOL0     C34653   4.851  10.039   9.547 -0.2831 -0.6216  0.0155
  998MOL0     O34654   4.982  10.000   9.543  0.3488 -0.2430 -1.3747
  998MOL0     C34655   5.046  10.038   9.426  0.4960  0.1011 -0.1297
  998MOL0     C34656   5.142  10.158   9.445 -0.1454 -0.0547 -0.3147
  998MOL0     C34657   5.269  10.106   9.500 -0.0240 -0.3861  0.2018
  998MOL0     C34658   5.357  10.212   9.569 -0.4310  1.1688 -1.7844
  998MOL0     C34659   5.435  10.294   9.467  0.3475 -0.4955  0.7345
  998MOL0     C34660   5.500  10.342   9.375 -0.8093  0.2151  0.7108
  998MOL0     C34661   4.800  10.172   9.522 -0.0954 -1.0363  0.3977
  998MOL0     C34662   4.666  10.210   9.528 -0.0606  0.0228 -0.2342
  998MOL0     H34663   4.168  10.140   9.308  0.2223  2.4252  1.2655
  998MOL0     H34664   3.927  10.195   9.352 -0.9305 -2.2176 -0.3784
  998MOL0     H34665   3.783  10.162   9.782 -0.5252 -0.8583  0.2287
  998MOL0     H34666   3.746  10.317   9.698 -0.3777 -0.1682  1.5863
  998MOL0     H34667   3.553  10.085   9.647 -0.1577  3.0406 -4.7838
  998MOL0     H34668   3.537  10.181   9.793 -0.3108  3.3535  0.5283
  998MOL0     H34669   3.540  10.389   9.668  0.3096 -1.2724  2.0487
  998MOL0     H34670   3.562  10.308   9.521  1.8652 -0.0893 -0.0498
  998MOL0     H34671   3.332  10.348   9.533  1.3149 -0.3024 -0.3374
  998MOL0     H34672   3.348  10.174   9.537  2.4479 -1.1762  0.5361
  998MOL0     H34673   3.322  10.221   9.811 -0.4675 -0.4723 -1.4912
  998MOL0     H34674   3.317  10.385   9.769  1.0063 -1.5819  3.4831
  998MOL0     H34675   3.117  10.190   9.680 -2.9232  1.5113 -1.2242
  998MOL0     H34676   3.110  10.285   9.830  3.2156 -1.7037  0.7287
  998MOL0     H34677   3.153  10.451   9.587  0.4675  1.1040  2.2022
  998MOL0     H34678   3.027  10.338   9.558  1.1488 -1.6957  1.4365
  998MOL0     H34679   3.044  10.500   9.813 -0.1308 -0.5862  0.3862
  998MOL0     H34680   2.896  10.433   9.739  0.3602  0.9325  0.1332
  998MOL0     H34681   2.889  10.533   9.460  1.5079  1.4575 -1.3856
  998MOL0     H34682   2.908  10.864   9.316  1.6054  1.1331  1.9249
  998MOL0     H34683   2.832  10.715   9.299  1.4305 -0.5140  0.8773
  998MOL0     H34684   2.740  10.969   9.459  0.4706  0.0699 -0.2977
  998MOL0     H34685   2.657  10.806   9.490 -1.7404  1.1923 -0.9751
  998MOL0     H34686   2.625  10.807   9.235  1.9217  1.2213 -1.5278
  998MOL0     H34687   2.651  10.975   9.247 -2.6330  0.0275 -2.3139
  998MOL0     H34688   2.481  10.968   9.440 -0.2878  1.0012 -0.5764
  998MOL0     H34689   2.452  10.797   9.400 -1.4837  1.3462  2.7886
  998MOL0     H34690   2.266  10.743   9.407  1.3545  1.5453  1.4750
  998MOL0     H34691   2.004  10.732   9.586 -1.1765 -1.8467 -0.3935
  998MOL0     H34692   1.919  10.653   9.451 -0.5529 -1.8398  2.1977
  998MOL0     H34693   2.088  10.616   9.488  2.0997  1.2890 -0.5198
  998MOL0     H34694   1.581  10.993   9.044 -2.8416  0.1606 -0.1406
  998MOL0     H34695   1.376  10.964   9.041  2.9650  3.0450 -1.1400
  998MOL0     H34696   1.136  10.805   9.122  3.1396  0.2694 -0.5227
  998MOL0     H34697   1.211  10.730   9.259  2.3781  1.3283  0.4934
  998MOL0     H34698   0.940  10.891   9.248  2.8234  1.2055 -0.4665
  998MOL0     H34699   0.941  10.727   9.207 -0.2978 -1.3005  0.0425
  998MOL0     H34700   0.880  10.790   9.449  2.2883  2.6696  2.4997
  998MOL0     H34701   1.058  10.834   9.456  0.8079 -0.9849 -0.3876
  998MOL0     H34702   1.135  10.625   9.435 -0.5098  1.7614  1.0052
  998MOL0     H34703   1.001  10.588   9.548 -3.5743  0.5217 -0.1069
  998MOL0     H34704   0.998  10.531   9.252 -3.3221  0.4612 -1.1667
  998MOL0     H34705   0.862  10.521   9.348 -0.0836 -0.4350 -2.1450
  998MOL0     H34706   0.940  10.361   9.494  1.1397  2.8910  0.7137
  998MOL0     H34707   0.908  10.316   9.326 -0.5479 -0.8808  0.8282
  998MOL0     H34708   1.194  10.381   9.408  0.1705  0.4522 -0.8073
  998MOL0     H34709   1.114  10.306   9.254 -7.1066  2.2446 -0.5524
  998MOL0     H34710   1.223  10.115   9.364 -0.9544  2.6773 -1.9888
  998MOL0     H34711   1.054  10.125   9.426  1.2562 -2.5742 -1.7115
  998MOL0     H34712   1.352  10.950   9.466  2.0419 -0.0981  1.6809
  998MOL0     H34713   1.591  10.986   9.474 -1.1799 -2.4868  1.6994
  998MOL0     H34714   1.972  11.081   9.192 -0.5960 -0.1960 -1.3390
  998MOL0     H34715   2.223  11.081   9.150  2.2514 -0.4159  0.3202
  998MOL0     H34716   3.975  10.051   9.752  2.5848 -0.3001  1.8221
  998MOL0     H34717   4.226  10.046   9.714 -0.1924  1.1698  0.1659
  998MOL0     H34718   4.535   9.901   9.516  0.2108 -0.3827  1.9362
  998MOL0     H34719   4.780   9.846   9.559 -0.5522 -0.1995 -0.3272
  998MOL0     H34720   5.090   9.946   9.387  2.4679  1.3115 -0.9298
  998MOL0     H34721   4.968  10.053   9.351  1.0937 -0.7817 -0.9539
  998MOL0     H34722   5.101  10.231   9.516 -1.1920 -1.7093  0.8954
  998MOL0     H34723   5.169  10.210   9.354  0.9589  0.1420  0.1079
  998MOL0     H34724   5.323  10.038   9.434  2.2935 -0.0226  1.6313
  998MOL0     H34725   5.242  10.038   9.582 -1.4213 -1.7739 -1.3421
  998MOL0     H34726   5.432  10.168   9.636 -1.7496  3.0552  1.1595
  998MOL0     H34727   5.303  10.281   9.635 -0.0515 -1.7200  1.8456
  998MOL0     H34728   5.552  10.373   9.287  2.0156 -0.6248  1.9636
  998MOL0     H34729   4.873  10.249   9.498 -1.5744  0.5457  0.7691
  998MOL0     H34730   4.643  10.316   9.533 -4.4045 -0.6687 -1.4277
  999MOL0     O34731  11.450   8.956   9.893  0.4148 -0.0310 -0.4981
  999MOL0     C34732  11.385   9.057   9.874 -0.0147  0.5067 -0.1962
  999MOL0     O34733  11.347   9.141   9.974 -0.2152  0.4868  0.0392
  999MOL0     C34734  11.422   9.165  10.096 -0.1604 -0.3516  0.5545
  999MOL0     C34735  11.566   9.146  10.102 -0.6985  1.2075 -0.2030
  999MOL0     C34736  11.628   9.183  10.221 -0.3640 -0.0473  0.6835
  999MOL0     C34737  11.562   9.237  10.329  1.1349 -0.9470  0.2156
  999MOL0     O34738  11.624   9.286  10.440 -0.4579 -0.5007 -0.0203
  999MOL0     C34739  11.764   9.266  10.451 -1.0582 -0.3081  0.9526
  999MOL0     C34740  11.861   9.369  10.389  0.2640 -0.5514  0.2070
  999MOL0     C34741  11.829   9.515  10.425 -0.3221  0.7930 -0.5248
  999MOL0     C34742  11.915   9.572  10.546  0.2159 -0.0265  0.3689
  999MOL0     C34743  11.871   9.713  10.605  0.2915  1.0343 -0.4494
  999MOL0     C34744  11.893   9.829  10.512  0.9236  0.7555  0.1684
  999MOL0     C34745  11.812   9.947  10.565 -0.0605 -0.2049  0.8099
  999MOL0     C34746  11.870  10.085  10.515  0.5913  0.0294 -1.0224
  999MOL0     N34747  11.785  10.193  10.573  0.0798  0.3187 -0.7148
  999MOL0     C34748  11.809  10.265  10.688  0.2522  0.6317  0.2513
  999MOL0     C34749  11.700  10.343  10.708  0.2128  0.1955  0.4923
  999MOL0     C34750  11.660  10.415  10.832  0.1105 -0.6970  0.8832
  999MOL0     C34751  11.515  10.391  10.883 -0.1284  0.0182  0.0843
  999MOL0     C34752  11.473  10.449  11.013  0.3263  0.7584 -0.0508
  999MOL0     C34753  11.564  10.427  11.140  0.6687 -0.5120 -0.2382
  999MOL0     O34754  11.670  10.525  11.149  0.5680 -0.7159 -0.1131
  999MOL0     C34755  11.769  10.500  11.243 -0.4113 -0.0462 -0.7599
  999MOL0     C34756  11.759  10.415  11.358  0.1194 -0.0914  0.9849
  999MOL0     C34757  11.869  10.407  11.446 -0.5787  0.2870 -0.9653
  999MOL0     C34758  11.852  10.301  11.565 -0.4219 -0.6155 -1.2246
  999MOL0     C34759  11.986  10.484  11.432  1.0913 -0.3166 -0.0343
  999MOL0     C34760  12.097  10.490  11.531  0.5420  0.1400 -0.3072
  999MOL0     O34761  12.215  10.552  11.488  0.6988  0.2649  0.4537
  999MOL0     C34762  12.321  10.558  11.577  0.1227  0.5517  0.2522
  999MOL0     C34763  12.378  10.437  11.639 -0.9514  0.5016  0.4703
  999MOL0     C34764  12.492  10.449  11.716  0.9423 -0.5325  0.3414
  999MOL0     C34765  12.555  10.577  11.731 -0.6103  0.1633 -0.9422
  999MOL0     O34766  12.668  10.589  11.815  0.0194 -0.0978 -0.3538
  999MOL0     C34767  12.640  10.544  11.947 -0.7650  0.2074 -0.0314
  999MOL0     C34768  12.508  10.571  12.015 -0.0182  0.2817  0.2022
  999MOL0     C34769  12.513  10.581  12.162 -1.5460  0.0435 -0.1617
  999MOL0     C34770  12.591  10.704  12.212 -0.5123 -0.2425  0.2803
  999MOL0     C34771  12.608  10.708  12.363  0.0330  0.0840 -0.3147
  999MOL0     C34772  12.732  10.628  12.420  0.3768 -0.7824 -0.0840
  999MOL0     C34773  12.725  10.650  12.575  0.4239  0.1211 -0.0964
  999MOL0     C34774  12.864  10.658  12.634  1.0815 -0.7610 -0.5927
  999MOL0    Cl34775  12.965  10.525  12.562 -0.6545 -0.1142  0.1105
  999MOL0     C34776  12.502  10.693  11.672 -0.1924 -0.2092 -0.1171
  999MOL0     C34777  12.381  10.685  11.599  0.6247  1.2478  0.8840
  999MOL0     O34778  12.084  10.434  11.634  0.2363  0.8271  0.4838
  999MOL0     C34779  11.983  10.572  11.319  0.5496  0.5817  0.5263
  999MOL0     C34780  11.884  10.582  11.220 -0.4146 -0.8628 -1.3976
  999MOL0     N34781  11.610  10.314  10.601 -0.8901  0.3017 -0.1417
  999MOL0     N34782  11.661  10.223  10.528 -0.0461  0.3359 -0.2234
  999MOL0     C34783  11.419   9.254  10.324 -0.0792  0.3838 -0.8364
  999MOL0     C34784  11.350   9.229  10.203 -0.0086  0.2604 -0.2180
  999MOL0     C34785  11.332   9.081   9.734 -0.1916  0.3625  0.1438
  999MOL0     C34786  11.227   9.174   9.703 -0.6687 -0.4052 -0.5225
  999MOL0     C34787  11.212   9.215   9.571 -0.1007 -0.6556  0.2848
  999MOL0     C34788  11.286   9.166   9.465 -0.1889 -0.1943  0.8344
  999MOL0     O34789  11.267   9.217   9.339 -0.6190  0.6902 -0.0554
  999MOL0     C34790  11.382   9.287   9.298 -0.6727 -0.3007 -0.0217
  999MOL0     C34791  11.359   9.433   9.259  0.8274 -0.0089 -0.5517
  999MOL0     C34792  11.272   9.509   9.360  0.1269  0.0137 -0.3593
  999MOL0     C34793  11.246   9.649   9.330 -0.8866 -0.2030  0.3373
  999MOL0     C34794  11.373   9.713   9.289  0.0372 -0.7521  0.7893
  999MOL0     C34795  11.481   9.753   9.253 -0.2196 -0.9946  0.3840
  999MOL0     C34796  11.370   9.061   9.498  0.6096 -0.2683 -0.5392
  999MOL0     C34797  11.397   9.015   9.624 -0.0506 -0.0958  0.5825
  999MOL0     H34798  11.630   9.105  10.025 -2.3765  0.2738 -1.1501
  999MOL0     H34799  11.736   9.169  10.220 -0.3394  0.0545  1.5652
  999MOL0     H34800  11.776   9.275  10.560 -2.9308  1.8647  1.0706
  999MOL0     H34801  11.797   9.168  10.416  1.8218  1.5375 -2.0724
  999MOL0     H34802  11.965   9.356  10.418  0.6432  0.9579 -0.4280
  999MOL0     H34803  11.862   9.363  10.280  2.3875 -1.5278  0.2357
  999MOL0     H34804  11.874   9.574  10.345  1.2311  0.9142  0.4166
  999MOL0     H34805  11.723   9.532  10.446 -0.1875 -1.9721  3.3153
  999MOL0     H34806  11.907   9.499  10.627 -2.0746 -0.6493 -0.3616
  999MOL0     H34807  12.020   9.575  10.515 -0.2810 -3.1458 -2.1364
  999MOL0     H34808  11.766   9.699  10.633  0.1300  3.0857  0.1343
  999MOL0     H34809  11.920   9.732  10.701 -2.3694  2.6777  0.6843
  999MOL0     H34810  11.999   9.855  10.505  0.6163  2.2000  0.5684
  999MOL0     H34811  11.857   9.798  10.413 -5.0192 -0.7389  2.3691
  999MOL0     H34812  11.711   9.928  10.529  0.8933 -1.6519 -1.3055
  999MOL0     H34813  11.813   9.949  10.675 -0.4939  1.3522  0.8050
  999MOL0     H34814  11.853  10.087  10.407 -1.2477  0.9939 -0.7524
  999MOL0     H34815  11.976  10.101  10.535  0.0647  2.6126 -0.0328
  999MOL0     H34816  11.895  10.240  10.749  1.2215  2.0824 -0.4573
  999MOL0     H34817  11.733  10.378  10.905  1.9032 -1.4387 -1.1892
  999MOL0     H34818  11.672  10.523  10.819  0.1465 -0.9919 -2.1402
  999MOL0     H34819  11.489  10.285  10.877 -1.4935  0.3730 -0.5182
  999MOL0     H34820  11.453  10.437  10.806 -0.1658 -1.2862 -0.6961
  999MOL0     H34821  11.375  10.411  11.045 -0.3897  2.7431  0.2584
  999MOL0     H34822  11.455  10.556  11.003  3.8983  1.9018  3.3048
  999MOL0     H34823  11.597  10.323  11.148 -0.6319 -0.9986 -0.9342
  999MOL0     H34824  11.491  10.444  11.220  0.8453 -0.8153 -0.0131
  999MOL0     H34825  11.666  10.359  11.366  0.6897 -1.3597 -0.6117
  999MOL0     H34826  11.931  10.225  11.568 -0.0502 -0.2597  2.2311
  999MOL0     H34827  11.842  10.340  11.667 -0.8443  0.2992 -1.6036
  999MOL0     H34828  11.761  10.242  11.553 -2.1575  1.1103  1.9667
  999MOL0     H34829  12.341  10.335  11.639  0.8765 -0.2091  0.7365
  999MOL0     H34830  12.551  10.362  11.744 -1.4436 -1.6465  2.3063
  999MOL0     H34831  12.653  10.436  11.937  1.5044  0.3250  1.1369
  999MOL0     H34832  12.732  10.577  11.997  1.7387 -0.0662 -4.0376
  999MOL0     H34833  12.466  10.668  11.986  2.4610  0.6086 -2.8910
  999MOL0     H34834  12.433  10.503  11.974 -1.0693  2.3696 -1.6090
  999MOL0     H34835  12.562  10.489  12.195 -1.1366  0.4924  0.5032
  999MOL0     H34836  12.417  10.580  12.214  0.3069  2.8094  3.8163
  999MOL0     H34837  12.690  10.715  12.167  0.6374 -1.4862  2.3249
  999MOL0     H34838  12.535  10.794  12.184  2.5460  2.1423  1.2255
  999MOL0     H34839  12.515  10.667  12.403  1.0548 -2.6047 -0.4929
  999MOL0     H34840  12.615  10.815  12.384  0.4869 -0.3698  2.1213
  999MOL0     H34841  12.735  10.520  12.401  0.5719 -1.5459  3.5581
  999MOL0     H34842  12.808  10.688  12.370 -2.1253  2.7429 -0.0280
  999MOL0     H34843  12.655  10.580  12.621  2.6895 -1.0077  1.8632
  999MOL0     H34844  12.685  10.747  12.605  0.4419 -0.2373  1.1177
  999MOL0     H34845  12.868  10.650  12.743 -1.8534 -1.3002 -0.4635
  999MOL0     H34846  12.915  10.750  12.603 -0.7217  0.9944  1.2580
  999MOL0     H34847  12.546  10.792  11.684  0.4487 -0.6565  1.4376
  999MOL0     H34848  12.334  10.771  11.553 -0.9448  0.3015  0.6623
  999MOL0     H34849  12.059  10.645  11.291  0.2438  0.5446 -0.4542
  999MOL0     H34850  11.890  10.661  11.146  1.9362  1.8146  1.3321
  999MOL0     H34851  11.366   9.291  10.412  0.9873  2.1338 -0.8805
  999MOL0     H34852  11.247   9.264  10.211  1.4214  4.7373  3.8932
  999MOL0     H34853  11.173   9.230   9.778  1.7379  0.5022  0.6668
  999MOL0     H34854  11.130   9.278   9.539  0.6969 -0.4202 -1.3892
  999MOL0     H34855  11.464   9.268   9.368 -2.4991 -1.2866  1.9774
  999MOL0     H34856  11.415   9.232   9.210 -1.0153  0.7377 -0.8202
  999MOL0     H34857  11.306   9.433   9.163 -1.4002 -0.5612  0.6149
  999MOL0     H34858  11.462   9.469   9.252  2.6775 -4.2568  1.3471
  999MOL0     H34859  11.322   9.501   9.457 -1.4059 -3.7699  0.2571
  999MOL0     H34860  11.182   9.448   9.358  2.6264 -4.1073  0.6427
  999MOL0     H34861  11.202   9.706   9.413 -1.3555  0.6812 -0.4966
  999MOL0     H34862  11.167   9.654   9.254  1.4708  0.1645 -2.2335
  999MOL0     H34863  11.569   9.805   9.221 -1.6695  1.6761  0.4118
  999MOL0     H34864  11.422   9.015   9.414 -2.7041 -4.1136 -0.8181
  999MOL0     H34865  11.479   8.946   9.639 -0.7393 -1.2008 -0.5322
 1000MOL0     O34866   2.359  10.815  10.535 -0.3645 -0.1975 -0.0599
 1000MOL0     C34867   2.390  10.761  10.642  0.0226  0.3295 -0.2161
 1000MOL0     O34868   2.357  10.793  10.768  0.0798 -0.1139  0.4610
 1000MOL0     C34869   2.284  10.907  10.768  0.6083  0.2893  0.1956
 1000MOL0     C34870   2.347  11.009  10.836 -0.0248 -0.2944  0.2269
 1000MOL0     C34871   2.285  11.125  10.884 -0.3241 -0.1280  0.7686
 1000MOL0     C34872   2.146  11.131  10.865  0.0009 -0.2931 -0.9255
 1000MOL0     O34873   2.092  11.247  10.911 -0.0383 -0.0888 -0.0110
 1000MOL0     C34874   1.974  11.292  10.836  1.1981  0.2407 -1.2169
 1000MOL0     C34875   1.944  11.445  10.868  0.5542 -0.9633 -0.2660
 1000MOL0     C34876   1.820  11.515  10.797 -0.4486 -0.4847 -0.1478
 1000MOL0     C34877   1.854  11.549  10.648  0.2627 -0.1559  0.1684
 1000MOL0     C34878   1.734  11.611  10.572  0.5925 -0.3451 -0.5020
 1000MOL0     C34879   1.740  11.574  10.426  0.0005 -0.3445 -0.9867
 1000MOL0     C34880   1.607  11.611  10.355 -0.6649 -0.1104  0.3229
 1000MOL0     C34881   1.575  11.519  10.232 -0.0555 -1.1708  0.3612
 1000MOL0     N34882   1.431  11.520  10.196  0.3903  0.2258  1.0679
 1000MOL0     C34883   1.372  11.618  10.126  0.0508  0.1436  1.2282
 1000MOL0     C34884   1.244  11.600  10.158 -0.1929 -0.5399  0.1097
 1000MOL0     C34885   1.128  11.680  10.101 -0.5424 -0.7984  0.3946
 1000MOL0     C34886   1.047  11.786  10.184 -0.3343 -0.2390 -0.0488
 1000MOL0     C34887   0.905  11.745  10.219  0.6745  0.3993  0.3711
 1000MOL0     C34888   0.884  11.622  10.305 -0.4862  0.0893 -0.0441
 1000MOL0     O34889   0.834  11.513  10.236 -0.0921  1.1095  1.3679
 1000MOL0     C34890   0.837  11.400  10.305 -0.8132  0.5962 -0.9034
 1000MOL0     C34891   0.945  11.319  10.317  0.4432  0.3583 -0.4995
 1000MOL0     C34892   0.946  11.192  10.386  0.0252 -0.3013  0.5103
 1000MOL0     C34893   1.068  11.116  10.384 -0.2077 -1.4864  0.1181
 1000MOL0     C34894   0.830  11.148  10.457 -0.6696  0.1970  0.0583
 1000MOL0     C34895   0.820  11.029  10.545 -0.8574  0.2850 -1.2145
 1000MOL0     O34896   0.914  10.926  10.543 -0.1474 -0.5337 -1.2838
 1000MOL0     C34897   0.892  10.825  10.451 -0.3752 -0.2674  0.7509
 1000MOL0     C34898   0.984  10.725  10.440 -0.3961 -0.9591  0.2582
 1000MOL0     C34899   0.982  10.629  10.332  0.3579 -0.3547 -0.5977
 1000MOL0     C34900   0.883  10.650  10.232  0.0554 -0.4541  0.2190
 1000MOL0     O34901   0.881  10.574  10.115 -0.1159 -1.1702  0.0134
 1000MOL0     C34902   0.930  10.648  10.003  0.2927 -0.1928  0.3146
 1000MOL0     C34903   1.070  10.591   9.951  0.4492 -0.1519 -0.2073
 1000MOL0     C34904   1.118  10.634   9.820 -0.0974 -0.5364  0.5428
 1000MOL0     C34905   1.260  10.586   9.800 -0.5665 -0.2535 -0.1076
 1000MOL0     C34906   1.326  10.639   9.671 -0.9072  0.9233 -0.8796
 1000MOL0     C34907   1.472  10.583   9.627 -0.6496 -0.8232  0.0527
 1000MOL0     C34908   1.471  10.446   9.582  0.2539 -0.0511 -0.1267
 1000MOL0     C34909   1.596  10.373   9.586 -0.2976  0.2663  0.3092
 1000MOL0    Cl34910   1.584  10.201   9.531  0.4333 -0.3687 -0.2178
 1000MOL0     C34911   0.791  10.755  10.240  0.0483 -0.4471 -0.3553
 1000MOL0     C34912   0.789  10.839  10.358  0.4296  0.4827 -0.9421
 1000MOL0     O34913   0.724  11.033  10.624 -0.3594  0.8069 -0.2648
 1000MOL0     C34914   0.715  11.225  10.439 -0.5258  1.2278 -0.6720
 1000MOL0     C34915   0.723  11.347  10.368  0.5224 -0.5159 -0.7836
 1000MOL0     N34916   1.229  11.478  10.233  0.6582 -0.9323  0.5407
 1000MOL0     N34917   1.342  11.434  10.260 -0.0537 -0.5630  0.2494
 1000MOL0     C34918   2.080  11.032  10.791 -0.4202 -0.8100  0.5447
 1000MOL0     C34919   2.151  10.920  10.736 -0.0681  0.0592  0.0369
 1000MOL0     C34920   2.471  10.639  10.624  0.2908  0.0859  0.5169
 1000MOL0     C34921   2.513  10.580  10.503  0.1108 -0.3501  0.0701
 1000MOL0     C34922   2.604  10.470  10.494 -0.6223  0.2137  0.2867
 1000MOL0     C34923   2.658  10.408  10.610 -0.4352 -0.3887  1.0163
 1000MOL0     O34924   2.732  10.295  10.606  0.2237  0.2237 -0.3598
 1000MOL0     C34925   2.876  10.308  10.606 -0.3627 -0.5363 -0.6919
 1000MOL0     C34926   2.944  10.181  10.584  0.1193  0.0056 -0.5633
 1000MOL0     C34927   3.090  10.174  10.623  0.2450  0.0973  1.0774
 1000MOL0     C34928   3.170  10.047  10.582 -0.0045  0.0020 -0.8640
 1000MOL0     C34929   3.319  10.069  10.606  0.2010 -0.2740  0.0798
 1000MOL0     C34930   3.433  10.095  10.629 -0.0345  0.9269 -0.8370
 1000MOL0     C34931   2.596  10.456  10.724 -0.9387  0.2265 -0.5333
 1000MOL0     C34932   2.505  10.563  10.738 -0.6256 -0.7657  0.0140
 1000MOL0     H34933   2.454  11.008  10.852 -0.1734  3.0049  2.4798
 1000MOL0     H34934   2.345  11.198  10.939  3.0173 -2.3105  0.2715
 1000MOL0     H34935   1.965  11.273  10.728 -4.0026 -0.5061 -0.8815
 1000MOL0     H34936   1.895  11.238  10.889  0.5904  1.3292 -0.9987
 1000MOL0     H34937   1.932  11.460  10.976  2.7178  3.7447 -0.4159
 1000MOL0     H34938   2.039  11.494  10.844 -0.4603  1.3803  0.2584
 1000MOL0     H34939   1.735  11.446  10.808  0.6954 -1.9023  0.1536
 1000MOL0     H34940   1.798  11.606  10.852  1.9459 -0.0921  0.2355
 1000MOL0     H34941   1.941  11.612  10.628  0.5564  0.3402  2.7335
 1000MOL0     H34942   1.877  11.449  10.608 -4.5589 -1.4274 -0.0678
 1000MOL0     H34943   1.640  11.575  10.616 -0.7189  0.4951 -2.4920
 1000MOL0     H34944   1.745  11.719  10.577 -1.3168 -0.1786  1.9863
 1000MOL0     H34945   1.820  11.625  10.372 -1.7552  0.4437 -2.9673
 1000MOL0     H34946   1.755  11.466  10.426  1.8342 -0.2741  2.8990
 1000MOL0     H34947   1.522  11.612  10.424 -3.5442  1.1031 -2.9935
 1000MOL0     H34948   1.629  11.713  10.321  1.8714 -0.9214 -0.7053
 1000MOL0     H34949   1.599  11.413  10.245 -0.9966 -1.5773 -1.0654
 1000MOL0     H34950   1.638  11.547  10.147 -1.8974  1.7805 -0.1637
 1000MOL0     H34951   1.421  11.689  10.060 -2.8426 -1.0683 -2.6281
 1000MOL0     H34952   1.180  11.737  10.023  2.2388 -1.2302  1.8326
 1000MOL0     H34953   1.074  11.605  10.042 -0.5327 -0.2992 -0.2629
 1000MOL0     H34954   1.029  11.880  10.131  0.2354  0.8365  1.5915
 1000MOL0     H34955   1.098  11.825  10.273 -0.1412 -0.3205 -0.1242
 1000MOL0     H34956   0.850  11.731  10.126 -0.6686 -0.3015  1.2432
 1000MOL0     H34957   0.873  11.836  10.270 -1.7909 -0.9734  1.4188
 1000MOL0     H34958   0.816  11.650  10.386 -1.6520  4.2137 -2.1666
 1000MOL0     H34959   0.984  11.601  10.345 -0.8052 -0.0659  0.6890
 1000MOL0     H34960   1.034  11.357  10.268  1.2481  1.0174  1.3662
 1000MOL0     H34961   1.106  11.102  10.486  2.7141  3.1953 -0.0202
 1000MOL0     H34962   1.053  11.018  10.338  4.7906 -2.3587 -0.2188
 1000MOL0     H34963   1.146  11.161  10.322 -2.5035  1.1566 -1.0773
 1000MOL0     H34964   1.052  10.709  10.522  2.4065  2.8799 -1.0136
 1000MOL0     H34965   1.054  10.550  10.349  0.2151  0.2034  3.9129
 1000MOL0     H34966   0.863  10.631   9.918  1.8725  0.5748 -1.1451
 1000MOL0     H34967   0.950  10.751  10.036  1.3052 -0.7868  1.6254
 1000MOL0     H34968   1.142  10.617  10.028 -0.2202  0.5407  0.1924
 1000MOL0     H34969   1.047  10.484   9.942 -0.7301  0.2470 -4.5380
 1000MOL0     H34970   1.130  10.742   9.821 -0.2497 -0.4842 -1.3875
 1000MOL0     H34971   1.051  10.602   9.740  3.8782 -0.3551 -3.2244
 1000MOL0     H34972   1.321  10.611   9.887 -0.7106 -0.1671 -0.0297
 1000MOL0     H34973   1.256  10.478   9.781 -1.9559 -0.2924  0.3203
 1000MOL0     H34974   1.326  10.748   9.665 -4.6840  1.3568  2.4603
 1000MOL0     H34975   1.272  10.605   9.582  1.9063 -2.3098 -1.5544
 1000MOL0     H34976   1.497  10.650   9.544 -2.0840 -1.2553 -0.7679
 1000MOL0     H34977   1.541  10.593   9.711  0.1697  0.8034 -0.7690
 1000MOL0     H34978   1.433  10.443   9.480  0.5802 -3.6771 -0.2726
 1000MOL0     H34979   1.399  10.400   9.651  1.1852 -0.0850  0.8640
 1000MOL0     H34980   1.635  10.368   9.688  2.5124 -3.0113 -0.7473
 1000MOL0     H34981   1.662  10.424   9.515 -1.6574 -1.3298 -2.2616
 1000MOL0     H34982   0.715  10.778  10.165  0.5058  1.9467 -0.1751
 1000MOL0     H34983   0.714  10.916  10.362 -0.8778 -0.7703 -0.4930
 1000MOL0     H34984   0.619  11.183  10.465  0.7949 -1.8713 -0.3428
 1000MOL0     H34985   0.626  11.392  10.356 -0.2636 -2.5599 -2.9608
 1000MOL0     H34986   1.974  11.029  10.765 -0.8938  1.1337  2.0176
 1000MOL0     H34987   2.098  10.849  10.674  2.1412  0.1223 -2.0827
 1000MOL0     H34988   2.479  10.620  10.408  0.0281 -1.4510 -0.3846
 1000MOL0     H34989   2.615  10.431  10.393 -1.1245  0.0896  0.2740
 1000MOL0     H34990   2.894  10.390  10.536 -2.4977  3.4031  2.8192
 1000MOL0     H34991   2.910  10.351  10.701 -1.8740  0.3185 -0.5076
 1000MOL0     H34992   2.929  10.147  10.481 -2.8627  0.2090 -0.2600
 1000MOL0     H34993   2.887  10.104  10.635 -0.5860  1.0450  0.2670
 1000MOL0     H34994   3.103  10.190  10.730 -0.4251  1.9574  0.9336
 1000MOL0     H34995   3.141  10.255  10.569 -3.3337  0.7255 -1.7177
 1000MOL0     H34996   3.149  10.014  10.479 -1.4366  1.2264 -1.0034
 1000MOL0     H34997   3.125   9.968  10.642  1.7063 -0.9143 -0.7358
 1000MOL0     H34998   3.537  10.116  10.643  0.2294 -0.0249 -1.3079
 1000MOL0     H34999   2.607  10.389  10.809  3.6811  0.9514 -0.2950
 1000MOL0     H35000   2.459  10.586  10.833  1.1600  0.2226  0.6940
 1001MOL0     O35001   0.424   0.027   2.604  0.0530  0.8752 -0.4366
 1001MOL0     C35002   0.447  -0.095   2.597 -0.3336 -0.9802  0.4440
 1001MOL0     O35003   0.425  -0.187   2.693 -0.1402 -0.3704 -0.8521
 1001MOL0     C35004   0.392  -0.145   2.823  0.7031 -0.1492 -0.3791
 1001MOL0     C35005   0.254  -0.141   2.852  0.1829 -1.0347  0.4197
 1001MOL0     C35006   0.211  -0.103   2.975 -0.5817 -0.2723  0.2299
 1001MOL0     C35007   0.310  -0.062   3.071  0.8986 -0.0781 -0.4182
 1001MOL0     O35008   0.289  -0.026   3.209  0.0125  0.1629 -0.4605
 1001MOL0     C35009   0.157   0.003   3.247  0.5358  1.1489  0.0751
 1001MOL0     C35010   0.150   0.028   3.394  0.1061  0.1618 -0.5841
 1001MOL0     C35011   0.239   0.154   3.429 -0.0431  0.1537 -0.1805
 1001MOL0     C35012   0.235   0.179   3.574 -0.2884 -0.6531 -0.1330
 1001MOL0     C35013   0.312   0.306   3.628  1.0207 -0.9915  0.1377
 1001MOL0     C35014   0.462   0.315   3.593  0.4331 -0.3930 -0.9596
 1001MOL0     C35015   0.527   0.432   3.670 -0.3244 -0.8311  1.1046
 1001MOL0     C35016   0.530   0.569   3.588 -0.1905 -0.1788 -0.2814
 1001MOL0     N35017   0.408   0.648   3.550  0.0088 -0.7783 -0.1122
 1001MOL0     C35018   0.330   0.715   3.642 -0.2152 -0.5885  1.0957
 1001MOL0     C35019   0.234   0.774   3.564 -0.0685 -0.2310 -0.2373
 1001MOL0     C35020   0.104   0.831   3.589 -0.6839 -0.9162  0.2978
 1001MOL0     C35021   0.109   0.984   3.545 -0.5058 -0.1728  0.3797
 1001MOL0     C35022  -0.025   1.052   3.545  0.1511 -0.4365 -0.0964
 1001MOL0     C35023  -0.138   0.961   3.516  0.5861 -0.6105 -0.4080
 1001MOL0     O35024  -0.137   0.924   3.378 -0.0969 -0.0963  0.7222
 1001MOL0     C35025  -0.249   0.865   3.322 -0.4190 -0.0557  0.0447
 1001MOL0     C35026  -0.231   0.816   3.192 -0.7828  0.1638 -0.1577
 1001MOL0     C35027  -0.341   0.779   3.113 -0.0189  1.2292 -1.1460
 1001MOL0     C35028  -0.308   0.737   2.972 -0.7009  0.1793 -0.4982
 1001MOL0     C35029  -0.466   0.774   3.170  0.5922  0.8065 -0.2498
 1001MOL0     C35030  -0.583   0.707   3.103  0.7343 -0.3009 -0.3346
 1001MOL0     O35031  -0.706   0.766   3.137  1.2508  0.2065 -0.4120
 1001MOL0     C35032  -0.826   0.741   3.066  0.6749  0.9140  0.3694
 1001MOL0     C35033  -0.943   0.797   3.107  0.7590  0.4280  0.0858
 1001MOL0     C35034  -1.061   0.787   3.041  0.8811 -0.4279  0.1212
 1001MOL0     C35035  -1.069   0.736   2.911 -0.6214 -0.1432  0.6446
 1001MOL0     O35036  -1.193   0.716   2.855  0.0191  0.2214  0.2115
 1001MOL0     C35037  -1.216   0.632   2.741 -0.9181 -0.4566  0.0422
 1001MOL0     C35038  -1.365   0.641   2.715  0.3490 -0.7694  0.1684
 1001MOL0     C35039  -1.441   0.527   2.776 -0.2754  0.2395  0.1708
 1001MOL0     C35040  -1.599   0.554   2.767 -0.2772  0.0134  0.6817
 1001MOL0     C35041  -1.679   0.428   2.794 -0.7967  0.1673  1.1837
 1001MOL0     C35042  -1.685   0.394   2.932 -0.7409 -0.0276 -1.1206
 1001MOL0     C35043  -1.755   0.268   2.968  0.6736 -0.4446  0.4482
 1001MOL0     C35044  -1.903   0.263   2.913 -0.5241  0.1111  0.1148
 1001MOL0    Cl35045  -1.989   0.110   2.960 -0.4900 -0.7534  0.0702
 1001MOL0     C35046  -0.956   0.695   2.860 -0.1125  0.2794  0.6106
 1001MOL0     C35047  -0.838   0.692   2.936  0.3304  0.8164 -0.8818
 1001MOL0     O35048  -0.569   0.604   3.045 -0.2235  0.5191  1.9234
 1001MOL0     C35049  -0.473   0.805   3.309  0.2087 -0.2845  0.3958
 1001MOL0     C35050  -0.368   0.851   3.381 -0.1960  1.2912  0.4830
 1001MOL0     N35051   0.269   0.753   3.433 -0.1842 -0.1470 -0.0609
 1001MOL0     N35052   0.370   0.679   3.417 -0.5825  0.4713  0.1931
 1001MOL0     C35053   0.441  -0.072   3.042  0.3403 -0.0262  0.5782
 1001MOL0     C35054   0.489  -0.107   2.917 -0.1394  0.9848 -0.7100
 1001MOL0     C35055   0.475  -0.148   2.466 -0.3319 -0.4735  0.4563
 1001MOL0     C35056   0.472  -0.287   2.438  0.4077 -0.3197 -0.5940
 1001MOL0     C35057   0.510  -0.323   2.309 -0.2099  0.2929  1.4427
 1001MOL0     C35058   0.555  -0.235   2.207 -0.8767 -0.3995  0.3664
 1001MOL0     O35059   0.606  -0.269   2.079 -0.9555  0.4025  0.3247
 1001MOL0     C35060   0.629  -0.401   2.050 -0.0448 -0.8316  0.3157
 1001MOL0     C35061   0.700  -0.431   1.910  0.7213 -0.4165 -0.1745
 1001MOL0     C35062   0.617  -0.362   1.799 -0.0984  0.6392  1.1137
 1001MOL0     C35063   0.666  -0.402   1.652 -0.0943 -0.1014 -0.3203
 1001MOL0     C35064   0.670  -0.548   1.625  0.0966 -0.3970 -0.2835
 1001MOL0     C35065   0.660  -0.664   1.605  0.3703 -0.5459 -0.1180
 1001MOL0     C35066   0.543  -0.099   2.228  0.0404  0.0176  0.9041
 1001MOL0     C35067   0.508  -0.061   2.359 -0.5629  0.1688  0.5839
 1001MOL0     H35068   0.186  -0.172   2.773  1.5088 -1.9272 -0.4255
 1001MOL0     H35069   0.106  -0.113   3.003 -0.0049  1.3041  3.5417
 1001MOL0     H35070   0.111   0.088   3.196  0.5707  2.1384  1.6474
 1001MOL0     H35071   0.086  -0.075   3.218 -0.9371  1.1025  3.4421
 1001MOL0     H35072   0.045   0.048   3.419 -0.0311  0.5936 -1.4518
 1001MOL0     H35073   0.190  -0.056   3.451 -1.3525  0.2091  0.5872
 1001MOL0     H35074   0.343   0.137   3.400  0.1627  2.2884 -0.8581
 1001MOL0     H35075   0.188   0.222   3.360  0.7414 -1.6282 -2.6216
 1001MOL0     H35076   0.131   0.172   3.607 -0.6929 -0.8497 -1.3803
 1001MOL0     H35077   0.283   0.096   3.626 -0.4261  0.2096  1.4359
 1001MOL0     H35078   0.272   0.393   3.574  1.3624 -0.4737  0.6970
 1001MOL0     H35079   0.303   0.329   3.735  0.2572 -1.2440  0.1332
 1001MOL0     H35080   0.494   0.214   3.619 -0.0473 -0.5538 -0.9923
 1001MOL0     H35081   0.472   0.323   3.484  1.9270 -1.5175 -0.9375
 1001MOL0     H35082   0.468   0.438   3.762 -2.2985 -0.7780 -0.1038
 1001MOL0     H35083   0.634   0.411   3.676 -0.3303 -1.8081 -1.1467
 1001MOL0     H35084   0.600   0.560   3.505  0.6818 -2.7535  0.6325
 1001MOL0     H35085   0.577   0.632   3.664 -3.1397  1.1760  0.5782
 1001MOL0     H35086   0.329   0.704   3.750 -1.9789 -3.0615  0.9312
 1001MOL0     H35087   0.024   0.773   3.541 -0.6106  0.1228 -1.1709
 1001MOL0     H35088   0.094   0.827   3.698  3.0598  0.9546  0.8943
 1001MOL0     H35089   0.151   0.993   3.444  1.0530  0.3255  1.0282
 1001MOL0     H35090   0.183   1.048   3.595  1.3804 -2.3229  0.5375
 1001MOL0     H35091  -0.025   1.138   3.477  3.1233 -0.8860 -0.8074
 1001MOL0     H35092  -0.033   1.094   3.645 -0.7539 -0.1572 -0.2766
 1001MOL0     H35093  -0.225   1.027   3.517 -0.1255 -1.5123  1.2474
 1001MOL0     H35094  -0.153   0.885   3.593  0.3637  0.1739  0.3446
 1001MOL0     H35095  -0.135   0.810   3.142 -2.4714  0.7850 -3.7666
 1001MOL0     H35096  -0.234   0.656   2.983 -1.3571 -0.2746  0.8451
 1001MOL0     H35097  -0.392   0.711   2.908 -2.1622 -1.7068  1.9825
 1001MOL0     H35098  -0.244   0.816   2.932  1.0076  0.3357  2.2300
 1001MOL0     H35099  -0.934   0.842   3.205  4.0094  1.1569 -0.4375
 1001MOL0     H35100  -1.147   0.835   3.087 -0.2716 -0.8163 -1.5265
 1001MOL0     H35101  -1.155   0.683   2.666 -0.4415  1.9264  1.9041
 1001MOL0     H35102  -1.170   0.535   2.761 -2.3409 -1.2654 -0.5160
 1001MOL0     H35103  -1.401   0.743   2.732 -0.8870 -1.1230 -0.2140
 1001MOL0     H35104  -1.378   0.626   2.608  1.9862  1.0174 -0.3476
 1001MOL0     H35105  -1.410   0.531   2.881  1.6869  0.5441 -0.3899
 1001MOL0     H35106  -1.418   0.430   2.732 -0.3886  0.9641 -1.5525
 1001MOL0     H35107  -1.630   0.631   2.839  0.0625  1.9748 -1.1554
 1001MOL0     H35108  -1.614   0.585   2.663 -0.3576 -0.8905  0.4147
 1001MOL0     H35109  -1.642   0.342   2.737  1.3622  2.2453 -0.7642
 1001MOL0     H35110  -1.779   0.440   2.752 -0.8367 -3.7293 -0.2690
 1001MOL0     H35111  -1.582   0.377   2.966 -1.2577  0.5291  0.8466
 1001MOL0     H35112  -1.741   0.478   2.973  1.2541  0.4932  0.7388
 1001MOL0     H35113  -1.749   0.273   3.077 -1.9204  0.0260  0.6318
 1001MOL0     H35114  -1.695   0.179   2.946  3.2335  0.5729  2.6386
 1001MOL0     H35115  -1.892   0.287   2.807  0.0695  3.5304  0.8330
 1001MOL0     H35116  -1.964   0.338   2.963 -1.5596 -3.1074  4.2315
 1001MOL0     H35117  -0.929   0.659   2.762  2.8500  2.0252  0.6641
 1001MOL0     H35118  -0.748   0.652   2.888 -0.2109 -1.8584  0.1666
 1001MOL0     H35119  -0.573   0.800   3.351 -0.0879 -1.3169 -0.3968
 1001MOL0     H35120  -0.384   0.874   3.486 -0.4815  1.0134  0.5032
 1001MOL0     H35121   0.504  -0.038   3.124  0.6442 -0.8104  0.6810
 1001MOL0     H35122   0.596  -0.100   2.900  0.8281 -3.4664  1.9104
 1001MOL0     H35123   0.433  -0.357   2.511 -0.2521  3.8461  3.4971
 1001MOL0     H35124   0.511  -0.430   2.292  2.6950  0.0598  2.5202
 1001MOL0     H35125   0.703  -0.441   2.120  2.1352  1.2295 -0.6847
 1001MOL0     H35126   0.528  -0.442   2.059 -0.8933  1.2876  1.0714
 1001MOL0     H35127   0.687  -0.538   1.894 -1.3368  0.1072 -2.3832
 1001MOL0     H35128   0.804  -0.396   1.915  0.1218  1.6823 -1.5003
 1001MOL0     H35129   0.617  -0.253   1.795  0.8023  0.6015 -0.8780
 1001MOL0     H35130   0.511  -0.391   1.793  0.4166 -1.2129 -0.2538
 1001MOL0     H35131   0.772  -0.377   1.647  0.6421 -2.7769  0.2725
 1001MOL0     H35132   0.598  -0.355   1.580 -2.8161  0.2255  2.2500
 1001MOL0     H35133   0.665  -0.770   1.593  4.1386 -0.1702 -4.1032
 1001MOL0     H35134   0.574  -0.023   2.156  1.7903  1.2494  2.8416
 1001MOL0     H35135   0.496   0.046   2.370  3.6509  1.1935 -2.3169
 1002MOL0     O35136   3.737   1.492   6.450 -0.1631  0.6719  0.7937
 1002MOL0     C35137   3.701   1.580   6.526 -0.7024  0.4870  0.2285
 1002MOL0     O35138   3.678   1.716   6.504 -0.3021 -0.2941  0.3401
 1002MOL0     C35139   3.703   1.756   6.376 -0.0340 -0.2807 -0.1187
 1002MOL0     C35140   3.591   1.803   6.310 -0.7964  0.3668  0.3138
 1002MOL0     C35141   3.610   1.830   6.174 -0.4680 -0.0353  0.6274
 1002MOL0     C35142   3.738   1.824   6.102  0.7085  0.9932 -1.2343
 1002MOL0     O35143   3.767   1.844   5.975  0.1892 -0.3304 -0.2096
 1002MOL0     C35144   3.663   1.884   5.893  0.6303  0.3237 -0.0561
 1002MOL0     C35145   3.727   1.874   5.752 -0.5499 -0.4599 -0.7720
 1002MOL0     C35146   3.820   1.987   5.714 -0.1889 -1.2424  0.2875
 1002MOL0     C35147   3.734   2.108   5.659 -0.3661 -1.1116 -0.4767
 1002MOL0     C35148   3.821   2.197   5.566 -0.6397  1.9855  0.7607
 1002MOL0     C35149   3.853   2.121   5.426  1.2254  0.8346  0.3392
 1002MOL0     C35150   3.980   2.153   5.352  1.4144  0.1787 -0.1160
 1002MOL0     C35151   3.999   2.303   5.301 -0.5371  0.8453  0.1236
 1002MOL0     N35152   3.906   2.341   5.196  0.1500 -0.9472  0.3414
 1002MOL0     C35153   3.923   2.465   5.134  0.4820  1.0621 -1.2821
 1002MOL0     C35154   3.846   2.454   5.022 -0.9723  0.6584 -0.6612
 1002MOL0     C35155   3.788   2.551   4.925  0.0338  1.4489  0.4781
 1002MOL0     C35156   3.808   2.499   4.785 -0.2612  0.5473 -1.2187
 1002MOL0     C35157   3.717   2.575   4.694 -0.3540  0.6625 -0.7414
 1002MOL0     C35158   3.720   2.535   4.548  0.7873  0.4447  0.0002
 1002MOL0     O35159   3.784   2.626   4.458  0.0006 -0.1350 -0.0436
 1002MOL0     C35160   3.910   2.599   4.412  0.4058  1.1725  0.0984
 1002MOL0     C35161   4.000   2.510   4.467 -0.0630  0.0432 -0.5797
 1002MOL0     C35162   4.134   2.500   4.424 -0.0224 -0.3126 -1.1141
 1002MOL0     C35163   4.223   2.412   4.507  0.2074 -0.7076 -1.1011
 1002MOL0     C35164   4.173   2.566   4.314 -0.1292 -1.3057  0.3260
 1002MOL0     C35165   4.310   2.557   4.255  0.9607  0.1012  0.0101
 1002MOL0     O35166   4.341   2.665   4.184  0.0119  0.0037 -0.5198
 1002MOL0     C35167   4.468   2.679   4.121  0.2424 -0.5454 -0.5844
 1002MOL0     C35168   4.477   2.714   3.993  0.0053  0.5087  0.3263
 1002MOL0     C35169   4.603   2.723   3.933 -0.0053  0.2691 -0.2054
 1002MOL0     C35170   4.727   2.704   3.999  0.2674  0.7152  0.0714
 1002MOL0     O35171   4.840   2.709   3.915  0.5247 -0.3816 -0.3594
 1002MOL0     C35172   4.960   2.703   3.986 -0.0179 -0.4594  0.3737
 1002MOL0     C35173   5.079   2.697   3.883 -0.2111  0.0388 -0.2516
 1002MOL0     C35174   5.074   2.807   3.788  0.8173  0.5126 -0.3964
 1002MOL0     C35175   5.207   2.833   3.722  0.4122 -0.0928  0.1457
 1002MOL0     C35176   5.201   2.951   3.618  0.1857  0.3302 -0.6921
 1002MOL0     C35177   5.337   2.969   3.542 -0.9344  0.4038  0.4174
 1002MOL0     C35178   5.329   2.898   3.403  0.1407 -0.2039  0.2424
 1002MOL0     C35179   5.453   2.835   3.355 -0.2022  0.6108 -0.2163
 1002MOL0    Cl35180   5.603   2.932   3.387 -0.0227 -0.2270  0.2592
 1002MOL0     C35181   4.712   2.682   4.137 -0.1241  0.1263 -0.2861
 1002MOL0     C35182   4.588   2.664   4.197 -0.5494 -0.2714  0.1369
 1002MOL0     O35183   4.383   2.464   4.278  0.2088  0.8128  0.7212
 1002MOL0     C35184   4.084   2.658   4.258  0.2446 -0.6179 -0.3000
 1002MOL0     C35185   3.947   2.677   4.303 -0.1246 -0.6516  0.0094
 1002MOL0     N35186   3.803   2.327   5.023 -0.0276 -0.0732  0.3925
 1002MOL0     N35187   3.833   2.255   5.126  0.0524  0.4277 -0.4539
 1002MOL0     C35188   3.842   1.776   6.183 -0.4547 -0.3994 -0.3367
 1002MOL0     C35189   3.831   1.749   6.315  0.1279  0.0406 -0.6808
 1002MOL0     C35190   3.707   1.552   6.668 -1.3254  1.3920 -0.0544
 1002MOL0     C35191   3.776   1.436   6.714 -0.4280 -0.9520 -0.4420
 1002MOL0     C35192   3.778   1.406   6.848 -0.4040 -0.4564 -1.3249
 1002MOL0     C35193   3.710   1.493   6.943  1.1108 -0.2905 -0.5505
 1002MOL0     O35194   3.705   1.482   7.073 -0.7521  0.2322 -0.4401
 1002MOL0     C35195   3.730   1.360   7.143  1.1259 -0.1657 -0.2776
 1002MOL0     C35196   3.614   1.264   7.100  0.7669 -0.2908  0.0575
 1002MOL0     C35197   3.485   1.315   7.165 -0.2305 -0.5873 -0.1686
 1002MOL0     C35198   3.360   1.314   7.070 -0.0279  0.0253 -0.1620
 1002MOL0     C35199   3.235   1.298   7.146  0.1861 -0.1657  0.4888
 1002MOL0     C35200   3.131   1.286   7.194  0.4108  0.0319  0.5906
 1002MOL0     C35201   3.644   1.600   6.897  0.5523 -0.6613 -0.2347
 1002MOL0     C35202   3.638   1.634   6.763 -0.5945  0.5640 -0.4938
 1002MOL0     H35203   3.490   1.812   6.349 -0.1460  2.5413  1.6765
 1002MOL0     H35204   3.524   1.861   6.116 -1.5344 -0.6986  1.7930
 1002MOL0     H35205   3.583   1.809   5.887 -1.3173  2.3673 -4.9099
 1002MOL0     H35206   3.616   1.978   5.926  3.3139  0.6573  3.4229
 1002MOL0     H35207   3.784   1.781   5.762  0.5706 -0.0003 -2.4776
 1002MOL0     H35208   3.651   1.863   5.674 -2.8472  2.3346  0.8762
 1002MOL0     H35209   3.874   2.015   5.805 -1.0177 -2.6540  1.2592
 1002MOL0     H35210   3.893   1.956   5.639 -1.3121 -0.4459 -1.1799
 1002MOL0     H35211   3.637   2.080   5.619 -1.0984 -1.9099  1.6975
 1002MOL0     H35212   3.719   2.175   5.744  2.0302  2.5580 -2.6407
 1002MOL0     H35213   3.797   2.304   5.553  1.1237  2.3562  0.2988
 1002MOL0     H35214   3.912   2.198   5.625 -1.4267  1.2515  2.0187
 1002MOL0     H35215   3.851   2.012   5.436 -2.0308  0.7280 -0.1851
 1002MOL0     H35216   3.774   2.134   5.351 -0.3507 -1.7311  1.4299
 1002MOL0     H35217   4.053   2.122   5.427 -0.3284  1.0945  2.0398
 1002MOL0     H35218   3.997   2.079   5.272  4.2277  0.3104  0.2598
 1002MOL0     H35219   4.094   2.310   5.247 -1.8797  0.0969 -2.5300
 1002MOL0     H35220   3.982   2.367   5.387  1.8598  1.1064  0.4555
 1002MOL0     H35221   3.972   2.546   5.187 -0.1673 -0.3589  1.6912
 1002MOL0     H35222   3.686   2.585   4.947 -0.5718 -0.1396  0.2624
 1002MOL0     H35223   3.845   2.643   4.913 -0.0264  1.3616 -0.5849
 1002MOL0     H35224   3.784   2.392   4.790  1.5134  0.1645  2.3156
 1002MOL0     H35225   3.912   2.515   4.755  0.9830 -0.6084  2.0658
 1002MOL0     H35226   3.732   2.683   4.703 -0.1346  0.5507  0.4109
 1002MOL0     H35227   3.614   2.548   4.718 -0.9151  1.8543 -1.7077
 1002MOL0     H35228   3.616   2.539   4.514  0.7948  0.1672 -0.0621
 1002MOL0     H35229   3.752   2.430   4.540 -2.5354 -0.9001  2.1511
 1002MOL0     H35230   3.977   2.455   4.558  0.8689  2.7999  1.4328
 1002MOL0     H35231   4.176   2.385   4.602 -1.7815  1.4031 -1.4012
 1002MOL0     H35232   4.234   2.317   4.454  0.7190  0.1968 -2.7165
 1002MOL0     H35233   4.322   2.454   4.527 -0.9053  0.1866  3.5742
 1002MOL0     H35234   4.391   2.721   3.928  0.1655 -1.9179 -0.2565
 1002MOL0     H35235   4.590   2.751   3.829 -2.2872  0.0070 -0.0218
 1002MOL0     H35236   4.962   2.790   4.053  0.6174  0.0689 -0.3083
 1002MOL0     H35237   4.963   2.615   4.050 -0.6498 -2.6866 -2.4431
 1002MOL0     H35238   5.175   2.705   3.936 -0.2179 -1.5405  0.0579
 1002MOL0     H35239   5.066   2.597   3.842 -0.4613  0.3733 -0.9899
 1002MOL0     H35240   5.058   2.900   3.844  3.7113  2.4137 -2.4294
 1002MOL0     H35241   4.999   2.803   3.708  0.0406  1.9831  0.2055
 1002MOL0     H35242   5.283   2.872   3.790  0.8291 -3.7786  2.0601
 1002MOL0     H35243   5.236   2.739   3.673 -1.1220 -0.4744 -0.0869
 1002MOL0     H35244   5.184   3.041   3.678 -3.3893  0.2155 -1.3046
 1002MOL0     H35245   5.119   2.931   3.549  0.1413  0.0378 -0.5600
 1002MOL0     H35246   5.374   3.072   3.538 -0.1592  0.3823  3.6103
 1002MOL0     H35247   5.417   2.917   3.596  0.6699  1.5615 -0.7578
 1002MOL0     H35248   5.291   2.963   3.323 -1.9525 -1.4962  0.1046
 1002MOL0     H35249   5.258   2.815   3.398 -0.7066  0.5193 -0.0952
 1002MOL0     H35250   5.452   2.820   3.247  1.4737  1.3939 -0.3816
 1002MOL0     H35251   5.473   2.741   3.406  2.0250  1.4367  0.5835
 1002MOL0     H35252   4.801   2.675   4.198  0.1821 -0.2976 -0.7749
 1002MOL0     H35253   4.568   2.647   4.303 -1.2732 -2.2541 -0.2794
 1002MOL0     H35254   4.101   2.717   4.169  0.9556  0.6242  0.6383
 1002MOL0     H35255   3.873   2.744   4.259  1.2832  0.4521 -0.8044
 1002MOL0     H35256   3.944   1.765   6.146 -0.2572  3.9275 -1.6009
 1002MOL0     H35257   3.924   1.731   6.369 -0.0107  4.0931  1.3046
 1002MOL0     H35258   3.817   1.373   6.635  1.1570  0.4708 -0.8131
 1002MOL0     H35259   3.823   1.320   6.895  1.2223 -0.1967 -2.3216
 1002MOL0     H35260   3.828   1.321   7.114  1.4680  0.0701  0.5383
 1002MOL0     H35261   3.718   1.367   7.252 -0.5994 -3.2122 -0.1609
 1002MOL0     H35262   3.646   1.161   7.119  1.1543  0.4192  4.0365
 1002MOL0     H35263   3.587   1.276   6.995  0.5496  1.4865  0.2837
 1002MOL0     H35264   3.488   1.418   7.201 -2.1790 -0.8154  0.7425
 1002MOL0     H35265   3.448   1.256   7.249 -2.3172 -0.8801 -1.2254
 1002MOL0     H35266   3.367   1.227   7.004  1.8709  2.1192 -2.9405
 1002MOL0     H35267   3.359   1.407   7.013 -0.4711  1.0423  1.4238
 1002MOL0     H35268   3.029   1.290   7.225  0.0380  3.6801 -0.6359
 1002MOL0     H35269   3.594   1.665   6.967 -0.2683  3.1250 -3.9236
 1002MOL0     H35270   3.570   1.715   6.738 -2.0958 -0.8079 -0.9994
 1003MOL0     O35271   8.255   1.380   0.601 -0.4558 -0.7027 -0.0567
 1003MOL0     C35272   8.331   1.303   0.547 -0.4421  0.4601  0.3640
 1003MOL0     O35273   8.294   1.167   0.523 -0.2924 -0.1587  0.1529
 1003MOL0     C35274   8.162   1.134   0.522  0.5535 -0.6183 -0.5245
 1003MOL0     C35275   8.054   1.183   0.608  0.2109  0.0042 -0.1921
 1003MOL0     C35276   7.923   1.146   0.588 -0.0589  0.4273  0.5458
 1003MOL0     C35277   7.899   1.047   0.493 -0.1730  0.4278  0.5759
 1003MOL0     O35278   7.776   0.987   0.468  0.6444  0.2813 -0.3693
 1003MOL0     C35279   7.681   0.971   0.574 -0.4548 -0.0693  0.0671
 1003MOL0     C35280   7.702   0.856   0.663  0.7892  0.9116 -0.1400
 1003MOL0     C35281   7.658   0.874   0.805  0.1929  1.0954 -0.2936
 1003MOL0     C35282   7.764   0.927   0.898  0.3213 -1.0028 -0.8584
 1003MOL0     C35283   7.731   0.925   1.050  0.9190 -1.3393  0.6061
 1003MOL0     C35284   7.829   1.014   1.137  1.0605  1.5867 -0.2113
 1003MOL0     C35285   7.769   1.032   1.280  0.0907 -0.7465  1.0346
 1003MOL0     C35286   7.890   1.043   1.381 -0.5319  0.3695 -0.4999
 1003MOL0     N35287   7.981   1.140   1.349 -0.1608 -0.8860  0.6610
 1003MOL0     C35288   7.941   1.278   1.331 -0.8122 -1.1057 -0.2001
 1003MOL0     C35289   8.057   1.330   1.286  0.0025  0.0611 -0.0124
 1003MOL0     C35290   8.067   1.469   1.231  0.3624 -0.1186 -0.6146
 1003MOL0     C35291   8.158   1.560   1.320  0.1658 -0.5051  0.4472
 1003MOL0     C35292   8.161   1.701   1.253 -0.1737  0.2386  0.0786
 1003MOL0     C35293   8.273   1.791   1.304 -0.1558 -0.3653 -1.2817
 1003MOL0     O35294   8.224   1.841   1.435 -0.3755 -0.1644 -0.1304
 1003MOL0     C35295   8.217   1.983   1.446  0.4062  0.3270  0.5974
 1003MOL0     C35296   8.129   2.067   1.386 -0.6561 -1.1375  1.0908
 1003MOL0     C35297   8.114   2.203   1.423  1.8725 -0.1346  0.6736
 1003MOL0     C35298   8.000   2.276   1.372  0.1681  0.2545  0.1509
 1003MOL0     C35299   8.206   2.265   1.509 -0.2364 -0.6723  0.8883
 1003MOL0     C35300   8.209   2.409   1.563  0.0790  0.4227 -0.3520
 1003MOL0     O35301   8.097   2.483   1.545  0.3034  0.4757 -0.2581
 1003MOL0     C35302   8.092   2.610   1.612  1.4055 -0.0120 -0.1601
 1003MOL0     C35303   8.124   2.717   1.538  1.0021 -0.3521 -0.7387
 1003MOL0     C35304   8.103   2.849   1.586 -0.4617  0.5056  0.5215
 1003MOL0     C35305   8.069   2.868   1.711  0.7519 -0.1976 -0.1096
 1003MOL0     O35306   8.059   2.998   1.734  0.1449 -0.4702 -0.4006
 1003MOL0     C35307   7.945   3.029   1.808  0.1162 -0.4852 -0.5474
 1003MOL0     C35308   7.977   3.038   1.957  0.1541 -0.1031 -0.6173
 1003MOL0     C35309   7.856   2.990   2.045 -0.5547  0.1914  0.3256
 1003MOL0     C35310   7.733   3.074   2.025 -0.6437 -0.5261 -0.8554
 1003MOL0     C35311   7.612   2.999   2.052 -0.3439 -0.1387 -0.6063
 1003MOL0     C35312   7.570   2.912   1.930  0.8235 -0.1930 -0.9296
 1003MOL0     C35313   7.421   2.895   1.923  0.8147 -0.6868 -0.0467
 1003MOL0     C35314   7.363   2.788   1.831  0.5605 -0.4614  0.5960
 1003MOL0    Cl35315   7.486   2.758   1.683 -0.6004  0.4177  0.3139
 1003MOL0     C35316   8.046   2.766   1.792  0.4110 -0.0424  1.2537
 1003MOL0     C35317   8.047   2.632   1.740 -0.2292 -0.4968 -0.2787
 1003MOL0     O35318   8.320   2.454   1.590 -0.1383 -0.4925 -0.4303
 1003MOL0     C35319   8.303   2.178   1.558  0.2231  0.1542 -0.7687
 1003MOL0     C35320   8.306   2.041   1.531 -0.1816 -1.2101 -0.4485
 1003MOL0     N35321   8.155   1.236   1.259  0.4290  0.1876  0.9661
 1003MOL0     N35322   8.111   1.129   1.287  0.9223  0.9094  0.0043
 1003MOL0     C35323   7.998   1.003   0.398 -0.3268 -0.0976 -0.4194
 1003MOL0     C35324   8.124   1.055   0.413 -0.0709 -0.0090  0.5348
 1003MOL0     C35325   8.475   1.329   0.545  0.0002  0.0916 -0.5482
 1003MOL0     C35326   8.527   1.461   0.560 -0.4312  0.3274 -0.2227
 1003MOL0     C35327   8.661   1.480   0.546 -0.0373  0.6290 -0.0887
 1003MOL0     C35328   8.757   1.376   0.533 -0.1958  0.1730 -0.2910
 1003MOL0     O35329   8.888   1.413   0.525  0.5522  0.1262 -0.9371
 1003MOL0     C35330   8.923   1.453   0.388  0.2991 -0.7059 -0.4292
 1003MOL0     C35331   8.997   1.341   0.310  0.9286  0.2258  0.0029
 1003MOL0     C35332   9.121   1.287   0.369  0.2016 -0.0208 -0.1060
 1003MOL0     C35333   9.228   1.391   0.383  0.8967 -0.2340  0.9497
 1003MOL0     C35334   9.259   1.458   0.256 -0.7887  1.0624  0.3804
 1003MOL0     C35335   9.270   1.523   0.149 -0.0928  1.0863  0.2391
 1003MOL0     C35336   8.709   1.242   0.520  0.5814 -0.2221 -0.5571
 1003MOL0     C35337   8.567   1.220   0.533 -0.7108  0.2910 -0.3392
 1003MOL0     H35338   8.075   1.252   0.688 -1.6005 -0.9171  1.1370
 1003MOL0     H35339   7.859   1.189   0.665 -0.5532  1.5689 -0.4660
 1003MOL0     H35340   7.694   1.059   0.637  0.9920  1.0221 -1.6422
 1003MOL0     H35341   7.577   0.973   0.541 -0.9325 -0.8993  1.4335
 1003MOL0     H35342   7.653   0.769   0.618 -1.4886  1.2215  1.5528
 1003MOL0     H35343   7.809   0.835   0.661  0.5025 -0.7174 -1.4896
 1003MOL0     H35344   7.561   0.922   0.822  0.4954  1.0733  1.7557
 1003MOL0     H35345   7.640   0.770   0.835 -0.9528  0.6953 -2.1702
 1003MOL0     H35346   7.852   0.864   0.884  1.3333  0.1001  0.2745
 1003MOL0     H35347   7.798   1.030   0.883  0.0832 -0.1617  3.1153
 1003MOL0     H35348   7.624   0.940   1.067  0.5762 -2.9954  0.0632
 1003MOL0     H35349   7.759   0.823   1.078  3.0124 -1.1305 -0.5462
 1003MOL0     H35350   7.918   0.951   1.147  0.9130  1.4729  0.4479
 1003MOL0     H35351   7.862   1.108   1.093  0.8647  0.5432 -2.7261
 1003MOL0     H35352   7.700   1.116   1.279 -0.7198 -1.4040  0.5424
 1003MOL0     H35353   7.706   0.944   1.298 -2.1818  0.6842  0.4848
 1003MOL0     H35354   7.928   0.940   1.372 -2.5174 -0.2517 -5.1153
 1003MOL0     H35355   7.846   1.055   1.480  0.7421  2.1783 -0.1163
 1003MOL0     H35356   7.855   1.342   1.340 -1.1268 -1.6689  0.9878
 1003MOL0     H35357   8.118   1.463   1.134  1.9878 -0.3190  0.2093
 1003MOL0     H35358   7.965   1.507   1.228 -0.6138 -2.3424  1.2620
 1003MOL0     H35359   8.261   1.526   1.332  2.2859  1.4672 -7.0508
 1003MOL0     H35360   8.122   1.568   1.423 -2.4007 -0.6139 -0.3576
 1003MOL0     H35361   8.067   1.754   1.268 -0.2380  0.4218 -0.9591
 1003MOL0     H35362   8.177   1.684   1.146  0.9558 -1.6748  0.4918
 1003MOL0     H35363   8.297   1.876   1.240 -0.9286  0.1277 -0.9236
 1003MOL0     H35364   8.362   1.734   1.334 -1.2143 -0.1491  2.7467
 1003MOL0     H35365   8.074   2.020   1.306 -1.6952 -1.2527  1.8448
 1003MOL0     H35366   8.030   2.364   1.314  0.0592  0.5688  0.5667
 1003MOL0     H35367   7.949   2.212   1.299 -0.7399  0.2804  0.7381
 1003MOL0     H35368   7.926   2.302   1.449 -1.9202  0.6855 -1.8749
 1003MOL0     H35369   8.154   2.689   1.438  0.6071 -1.6355 -0.5059
 1003MOL0     H35370   8.115   2.924   1.509  0.1133  1.0411  1.1264
 1003MOL0     H35371   7.900   3.121   1.771 -3.4836 -2.3556 -1.2715
 1003MOL0     H35372   7.869   2.950   1.810 -2.4901  1.7055  4.7156
 1003MOL0     H35373   8.058   2.965   1.966 -1.1068 -1.8620 -2.6815
 1003MOL0     H35374   8.011   3.135   1.995 -0.2148 -0.7100  1.4064
 1003MOL0     H35375   7.889   2.983   2.149 -1.5656  1.5392  0.7667
 1003MOL0     H35376   7.833   2.888   2.014 -2.2347  1.1984 -2.0214
 1003MOL0     H35377   7.743   3.169   2.079 -0.1780  1.0633 -3.5348
 1003MOL0     H35378   7.729   3.108   1.921 -0.6430 -1.8819 -1.3084
 1003MOL0     H35379   7.535   3.077   2.056 -1.3028 -0.6785 -4.5775
 1003MOL0     H35380   7.614   2.941   2.145 -0.0259  1.4034  0.3912
 1003MOL0     H35381   7.600   2.956   1.835 -0.5397 -1.7894 -2.1622
 1003MOL0     H35382   7.609   2.810   1.933 -1.1637 -1.0124 -1.3536
 1003MOL0     H35383   7.393   2.991   1.878  2.2747 -0.7319 -1.1198
 1003MOL0     H35384   7.384   2.899   2.026  0.3622 -0.3611 -0.2158
 1003MOL0     H35385   7.269   2.820   1.784 -0.2200 -0.8408  1.8437
 1003MOL0     H35386   7.341   2.697   1.888 -2.2481  0.4047  1.0519
 1003MOL0     H35387   8.017   2.772   1.896 -0.4381  0.6182  0.9967
 1003MOL0     H35388   8.011   2.547   1.797  2.2577 -0.1255  2.0354
 1003MOL0     H35389   8.374   2.217   1.630 -0.8023 -1.6049  1.3146
 1003MOL0     H35390   8.375   1.977   1.584  0.7318  0.6700  0.7325
 1003MOL0     H35391   7.966   0.928   0.326 -0.1272  0.5865 -1.2331
 1003MOL0     H35392   8.197   1.030   0.337  3.1871  0.1189  3.3754
 1003MOL0     H35393   8.462   1.548   0.564  1.0403  1.4449  3.7768
 1003MOL0     H35394   8.697   1.582   0.535  2.2837 -0.3607 -3.0292
 1003MOL0     H35395   8.830   1.475   0.334 -1.4727 -0.7072  2.4288
 1003MOL0     H35396   8.985   1.544   0.380  0.1076 -0.6467 -1.3668
 1003MOL0     H35397   9.011   1.355   0.203 -0.5822 -0.2618 -0.2922
 1003MOL0     H35398   8.927   1.258   0.319  1.7255 -0.3039  1.8269
 1003MOL0     H35399   9.167   1.209   0.308  2.5357  1.2173 -0.0365
 1003MOL0     H35400   9.097   1.244   0.466 -1.3403  4.2106  1.6625
 1003MOL0     H35401   9.330   1.353   0.393  1.4527  0.7871 -0.5025
 1003MOL0     H35402   9.207   1.471   0.455  0.4072  1.2812 -0.8099
 1003MOL0     H35403   9.287   1.588   0.066 -0.4987 -3.1598 -3.5288
 1003MOL0     H35404   8.779   1.161   0.501  1.4690 -0.3484  2.6773
 1003MOL0     H35405   8.513   1.128   0.551 -1.3743  0.7972  0.3225
 1004MOL0     O35406   7.852  11.018  10.200 -0.7054 -0.1381  0.1292
 1004MOL0     C35407   7.910  10.914  10.241  0.2485 -0.6404  0.7220
 1004MOL0     O35408   8.015  10.848  10.171  0.2022  0.5382  0.4153
 1004MOL0     C35409   8.031  10.877  10.043  0.2547  0.1344  0.0317
 1004MOL0     C35410   8.091  10.989  10.001 -0.3567 -1.1709 -0.1537
 1004MOL0     C35411   8.117  11.010   9.868  0.3074  0.4280 -0.1355
 1004MOL0     C35412   8.086  10.906   9.775  0.5481 -0.2474 -0.4205
 1004MOL0     O35413   8.113  10.937   9.635  0.0965  0.6588 -0.3089
 1004MOL0     C35414   8.164  10.827   9.567  0.2823 -0.5860  0.2850
 1004MOL0     C35415   8.223  10.897   9.438 -0.2330  1.3521 -0.9348
 1004MOL0     C35416   8.113  10.935   9.341 -0.1689 -0.2689  0.8430
 1004MOL0     C35417   8.166  10.942   9.192 -0.2156  0.1991 -0.4021
 1004MOL0     C35418   8.047  10.991   9.110 -0.5037  0.6223  0.1232
 1004MOL0     C35419   8.054  10.966   8.956 -1.8041 -0.8939 -1.4981
 1004MOL0     C35420   8.108  11.099   8.878 -0.1468  0.7988  0.4767
 1004MOL0     C35421   8.005  11.211   8.900  0.1905  0.1253  0.3255
 1004MOL0     N35422   8.012  11.307   8.795 -0.2439  0.1189 -0.2228
 1004MOL0     C35423   7.955  11.311   8.669 -0.2133  0.1645 -0.1476
 1004MOL0     C35424   7.981  11.434   8.622  0.3905  0.2219  0.5402
 1004MOL0     C35425   7.961  11.489   8.474 -0.6178  0.8412 -0.0106
 1004MOL0     C35426   7.816  11.447   8.423 -0.1348  0.5114  0.4567
 1004MOL0     C35427   7.804  11.505   8.273 -0.3655 -0.2443 -0.0638
 1004MOL0     C35428   7.811  11.396   8.170 -0.3172 -0.1418 -0.2619
 1004MOL0     O35429   7.703  11.307   8.198 -0.0581  0.3790 -0.1887
 1004MOL0     C35430   7.666  11.223   8.094  0.3030 -0.1555 -0.2137
 1004MOL0     C35431   7.540  11.165   8.100  0.5970  0.8840 -0.7849
 1004MOL0     C35432   7.496  11.059   8.014  0.5715  0.9207 -0.3464
 1004MOL0     C35433   7.365  10.985   8.053  0.4322  0.4077 -0.7091
 1004MOL0     C35434   7.586  11.020   7.908  0.6830  0.1812 -0.0745
 1004MOL0     C35435   7.542  10.940   7.799  0.0168  0.7887 -0.7519
 1004MOL0     O35436   7.648  10.889   7.727  0.1713 -0.8464  0.5993
 1004MOL0     C35437   7.617  10.790   7.638  0.3265 -0.5987 -0.4401
 1004MOL0     C35438   7.564  10.667   7.674 -0.3853 -0.1751 -0.3241
 1004MOL0     C35439   7.524  10.578   7.570 -0.2971  0.0736  0.1655
 1004MOL0     C35440   7.555  10.600   7.440  0.2812 -0.3186  0.0833
 1004MOL0     O35441   7.520  10.503   7.349  0.8131  0.5317 -0.3484
 1004MOL0     C35442   7.425  10.554   7.253  0.4333 -0.5675  0.3780
 1004MOL0     C35443   7.403  10.454   7.135  0.1205 -0.4095 -0.3171
 1004MOL0     C35444   7.325  10.324   7.175 -0.7692 -1.6940 -0.0094
 1004MOL0     C35445   7.191  10.352   7.242 -0.4580  0.5387  0.5175
 1004MOL0     C35446   7.090  10.422   7.164  0.7322 -0.5226  0.4772
 1004MOL0     C35447   7.060  10.354   7.022  0.6121 -0.0120  0.8208
 1004MOL0     C35448   6.960  10.235   7.039  0.4051  0.1252 -0.7019
 1004MOL0     C35449   6.917  10.159   6.906  0.1726  0.3981 -0.8133
 1004MOL0    Cl35450   6.802  10.028   6.958  0.0213  0.2451 -0.2702
 1004MOL0     C35451   7.598  10.730   7.400 -0.3102 -0.0571 -0.2614
 1004MOL0     C35452   7.629  10.821   7.497 -0.1887 -0.3306 -0.0270
 1004MOL0     O35453   7.426  10.913   7.776 -0.3677 -0.0515  0.2759
 1004MOL0     C35454   7.712  11.082   7.899  0.7152  0.7801  0.3770
 1004MOL0     C35455   7.756  11.177   7.994 -0.8812  0.3704  1.0692
 1004MOL0     N35456   8.025  11.511   8.720 -0.2489 -0.2067 -0.3548
 1004MOL0     N35457   8.039  11.443   8.828  0.2446  0.2849  0.8778
 1004MOL0     C35458   8.018  10.789   9.813  0.4998 -1.1855 -0.2425
 1004MOL0     C35459   7.992  10.778   9.948 -0.3354 -0.2825 -0.7674
 1004MOL0     C35460   7.869  10.854  10.373 -0.8074 -0.6301 -0.4705
 1004MOL0     C35461   7.944  10.759  10.451  0.6336 -0.4583  0.2135
 1004MOL0     C35462   7.893  10.705  10.572  0.7424 -0.4182  0.5597
 1004MOL0     C35463   7.768  10.749  10.616  0.3887  0.5862 -0.3855
 1004MOL0     O35464   7.709  10.688  10.725  0.3001  0.5027  0.0651
 1004MOL0     C35465   7.759  10.732  10.844  0.1315 -0.0467 -0.7538
 1004MOL0     C35466   7.697  10.651  10.950  0.0834  0.6075  0.0941
 1004MOL0     C35467   7.764  10.645  11.087  0.5688  0.0749 -0.2449
 1004MOL0     C35468   7.791  10.493  11.128 -0.3632 -0.7800  0.2426
 1004MOL0     C35469   7.682  10.419  11.182 -0.1295 -0.2905  0.8803
 1004MOL0     C35470   7.590  10.352  11.227 -0.0242  0.2631 -0.0253
 1004MOL0     C35471   7.688  10.830  10.542  0.4805 -0.0499 -0.0666
 1004MOL0     C35472   7.736  10.878  10.417  1.2400  1.7083 -0.4298
 1004MOL0     H35473   8.125  11.059  10.077  2.0901  0.3273 -2.4325
 1004MOL0     H35474   8.171  11.090   9.819  2.4467 -0.8117  0.1072
 1004MOL0     H35475   8.251  10.783   9.617  0.3634 -0.1034  0.5694
 1004MOL0     H35476   8.106  10.735   9.556  0.8705 -1.0272  0.7499
 1004MOL0     H35477   8.285  10.980   9.472  0.4209  0.5242 -0.0294
 1004MOL0     H35478   8.277  10.824   9.378 -4.2483 -2.6616 -0.2339
 1004MOL0     H35479   8.029  10.865   9.335 -0.2575 -0.0385 -2.4234
 1004MOL0     H35480   8.056  11.024   9.367 -0.2905 -0.3346  0.8064
 1004MOL0     H35481   8.242  11.019   9.173 -0.0948 -0.2517 -1.9397
 1004MOL0     H35482   8.199  10.839   9.174  0.6698  0.2441  0.8357
 1004MOL0     H35483   7.958  10.929   9.129 -0.0507 -0.5146 -1.2482
 1004MOL0     H35484   8.018  11.090   9.144  2.2214  1.4129  0.3698
 1004MOL0     H35485   8.127  10.885   8.945  1.9086  1.9050  0.3810
 1004MOL0     H35486   7.954  10.941   8.920 -1.9295  1.7225 -3.2638
 1004MOL0     H35487   8.209  11.129   8.906 -0.0857 -0.9117  2.2717
 1004MOL0     H35488   8.120  11.083   8.771 -2.0099  5.4794 -0.6927
 1004MOL0     H35489   8.024  11.246   9.002 -0.4990 -2.9511  1.6319
 1004MOL0     H35490   7.911  11.157   8.910  0.1177  0.4043  1.2360
 1004MOL0     H35491   7.915  11.223   8.619  2.8981 -2.3374  1.3608
 1004MOL0     H35492   7.960  11.598   8.484 -0.2119  0.8612 -0.1697
 1004MOL0     H35493   8.050  11.462   8.418  0.2933  2.2527  0.6969
 1004MOL0     H35494   7.740  11.493   8.487 -2.6743  0.2113 -2.1408
 1004MOL0     H35495   7.826  11.338   8.423  1.4880  0.5602 -2.0234
 1004MOL0     H35496   7.871  11.590   8.256 -0.9036  0.3874  0.8887
 1004MOL0     H35497   7.707  11.555   8.269  0.4375  1.7820  2.4818
 1004MOL0     H35498   7.913  11.355   8.175  0.0827  0.7240 -1.0381
 1004MOL0     H35499   7.797  11.439   8.071  0.2894  2.7763  0.8268
 1004MOL0     H35500   7.467  11.191   8.176 -0.7122 -0.5676 -1.5020
 1004MOL0     H35501   7.365  10.881   8.019 -2.3735  0.8163 -2.3353
 1004MOL0     H35502   7.348  10.992   8.160 -3.6128 -0.1419 -1.1451
 1004MOL0     H35503   7.276  11.033   8.010  0.8873  0.7549 -1.2920
 1004MOL0     H35504   7.554  10.642   7.779 -1.6724 -0.1469 -0.4259
 1004MOL0     H35505   7.491  10.479   7.598  0.7764 -1.7029 -4.0744
 1004MOL0     H35506   7.332  10.582   7.303  0.8926  0.8585  0.4786
 1004MOL0     H35507   7.465  10.643   7.203 -0.6601  0.0603  0.5999
 1004MOL0     H35508   7.359  10.495   7.044  3.1385  1.1317 -1.2228
 1004MOL0     H35509   7.502  10.425   7.098  1.6472 -1.0224  3.7249
 1004MOL0     H35510   7.394  10.272   7.242 -0.2324 -1.6886 -0.5542
 1004MOL0     H35511   7.312  10.269   7.082  1.8232 -0.9101 -0.9276
 1004MOL0     H35512   7.140  10.264   7.282 -1.4469  1.3997  1.1987
 1004MOL0     H35513   7.208  10.415   7.330  0.1399  2.6452 -1.0478
 1004MOL0     H35514   7.115  10.527   7.147 -2.8118 -0.0556 -3.6011
 1004MOL0     H35515   7.001  10.429   7.227  0.8789 -0.7053  0.7082
 1004MOL0     H35516   7.017  10.431   6.956  3.5764  0.8342 -0.3036
 1004MOL0     H35517   7.156  10.330   6.977  0.8130  3.0912 -0.6494
 1004MOL0     H35518   6.867  10.266   7.088  1.2183 -1.3294  1.9758
 1004MOL0     H35519   7.007  10.168   7.112  1.0475  0.3522 -0.8978
 1004MOL0     H35520   7.010  10.114   6.872  0.3598 -2.2354  2.6361
 1004MOL0     H35521   6.862  10.218   6.833 -0.2990 -0.5743 -1.2554
 1004MOL0     H35522   7.610  10.765   7.298  2.1560 -0.4730 -0.1735
 1004MOL0     H35523   7.671  10.912   7.456  0.9131 -1.4696 -1.5560
 1004MOL0     H35524   7.786  11.047   7.827 -0.6372 -0.1665 -0.6172
 1004MOL0     H35525   7.862  11.198   7.983 -0.1487 -2.7301  1.4439
 1004MOL0     H35526   7.978  10.712   9.748 -5.3474 -0.2010  1.5813
 1004MOL0     H35527   7.952  10.685   9.987  1.8280 -0.2160  1.8316
 1004MOL0     H35528   8.046  10.729  10.433  0.6371 -0.6093  0.4814
 1004MOL0     H35529   7.924  10.611  10.617 -2.4400 -1.9239 -0.1402
 1004MOL0     H35530   7.864  10.704  10.850 -0.6443 -2.9234  1.4792
 1004MOL0     H35531   7.749  10.841  10.854  2.8919  0.9807 -5.8346
 1004MOL0     H35532   7.713  10.553  10.905  2.1935  0.3151  1.3140
 1004MOL0     H35533   7.591  10.678  10.950  0.0840  0.6126  0.1625
 1004MOL0     H35534   7.705  10.711  11.151  1.0197  1.0915 -0.8502
 1004MOL0     H35535   7.862  10.694  11.081 -0.9693  3.5573  0.5967
 1004MOL0     H35536   7.874  10.483  11.198  0.3358 -1.8006 -0.7001
 1004MOL0     H35537   7.830  10.436  11.043 -1.8190  2.0821 -2.5944
 1004MOL0     H35538   7.516  10.283  11.263  0.3712  0.0057  0.3003
 1004MOL0     H35539   7.585  10.834  10.574  1.1348 -1.5192  2.4908
 1004MOL0     H35540   7.666  10.941  10.362 -1.4225  0.3735  1.2577
 1005MOL0     O35541   7.414   9.736   7.934 -0.2524  0.6346  0.3731
 1005MOL0     C35542   7.391   9.644   8.013  0.1168  0.0760 -0.3242
 1005MOL0     O35543   7.471   9.609   8.109  0.1277 -0.0585 -0.2047
 1005MOL0     C35544   7.602   9.646   8.100 -0.3107 -0.8887 -0.6482
 1005MOL0     C35545   7.697   9.547   8.124  0.2368  1.0005  0.4696
 1005MOL0     C35546   7.832   9.585   8.131  0.1200 -1.4579  1.0919
 1005MOL0     C35547   7.871   9.711   8.115  0.2111 -0.3681  0.5998
 1005MOL0     O35548   7.996   9.758   8.120  0.6924  0.2911 -0.4165
 1005MOL0     C35549   8.049   9.799   8.244  0.9782  0.1497 -0.5704
 1005MOL0     C35550   8.048   9.958   8.263  0.2336  0.3651 -0.0074
 1005MOL0     C35551   8.039   9.987   8.413  0.5093  0.3396 -1.3052
 1005MOL0     C35552   8.027  10.132   8.433  0.6585  0.9554 -0.0983
 1005MOL0     C35553   8.001  10.171   8.584 -0.0338  0.1031  0.5632
 1005MOL0     C35554   8.120  10.210   8.652 -0.5936  0.6989 -0.3686
 1005MOL0     C35555   8.078  10.284   8.784  0.0491 -0.4515 -0.1434
 1005MOL0     C35556   8.193  10.289   8.887 -0.0955  0.2863  0.9181
 1005MOL0     N35557   8.173  10.394   8.986 -0.9431 -0.2618 -0.3455
 1005MOL0     C35558   8.068  10.414   9.068  0.5915  0.2858  0.2540
 1005MOL0     C35559   8.119  10.510   9.157  0.5018 -0.3687 -1.1159
 1005MOL0     C35560   8.044  10.545   9.281  0.0418 -0.0698 -0.6654
 1005MOL0     C35561   7.915  10.611   9.258  0.1494  0.4378  0.3973
 1005MOL0     C35562   7.844  10.632   9.390  1.3540 -0.3907 -0.6648
 1005MOL0     C35563   7.697  10.695   9.377  0.4171  0.2102  0.1220
 1005MOL0     O35564   7.701  10.792   9.264 -0.2389  0.4992  0.3113
 1005MOL0     C35565   7.580  10.812   9.209 -0.7558 -0.0733  0.2651
 1005MOL0     C35566   7.579  10.815   9.069  0.7032 -0.9290 -0.3506
 1005MOL0     C35567   7.458  10.842   9.004 -1.1898  0.7062 -0.5522
 1005MOL0     C35568   7.460  10.875   8.859 -0.5684 -0.0030 -0.8001
 1005MOL0     C35569   7.336  10.848   9.078 -0.7610  0.3037 -1.1934
 1005MOL0     C35570   7.194  10.848   9.016  0.3221  0.0258  1.2417
 1005MOL0     O35571   7.180  10.854   8.881 -0.2652  0.3630  0.6848
 1005MOL0     C35572   7.058  10.877   8.821 -0.3746 -0.7152  0.0147
 1005MOL0     C35573   7.024  11.007   8.772 -0.5046  0.1561 -0.2852
 1005MOL0     C35574   6.915  11.023   8.672 -0.3062 -0.3435 -0.2383
 1005MOL0     C35575   6.832  10.916   8.639  0.3658  0.2578 -0.4605
 1005MOL0     O35576   6.724  10.921   8.548 -0.0317  0.6715 -0.0037
 1005MOL0     C35577   6.725  11.035   8.455  0.7274  0.0979 -0.0377
 1005MOL0     C35578   6.656  11.157   8.525  0.4337  0.4930  0.4464
 1005MOL0     C35579   6.500  11.151   8.532 -0.4683 -0.1839  0.5622
 1005MOL0     C35580   6.442  11.186   8.388  0.8760 -0.0257  0.0091
 1005MOL0     C35581   6.339  11.303   8.393 -0.2726 -0.2633  0.4716
 1005MOL0     C35582   6.304  11.341   8.250 -0.3087  0.0097  1.3366
 1005MOL0     C35583   6.196  11.454   8.245 -0.1103 -0.4452 -0.1860
 1005MOL0     C35584   6.241  11.588   8.306 -0.2008  0.1388  1.3232
 1005MOL0    Cl35585   6.356  11.663   8.196 -0.0303 -0.5425 -0.1415
 1005MOL0     C35586   6.870  10.788   8.696 -0.5747  0.4254 -0.1780
 1005MOL0     C35587   6.970  10.775   8.792 -0.5929  0.8441  0.4026
 1005MOL0     O35588   7.095  10.838   9.092 -0.2665 -0.4584 -0.1505
 1005MOL0     C35589   7.339  10.838   9.215  0.9081 -1.4420 -0.0013
 1005MOL0     C35590   7.464  10.819   9.281  0.4066 -1.3954  0.1417
 1005MOL0     N35591   8.239  10.561   9.105 -0.1132  0.0795 -0.8174
 1005MOL0     N35592   8.275  10.482   9.008  0.6955  0.1757  0.2928
 1005MOL0     C35593   7.776   9.810   8.088  0.2282 -0.3495 -0.4581
 1005MOL0     C35594   7.641   9.781   8.076 -0.6175 -0.4966 -0.6934
 1005MOL0     C35595   7.265   9.568   7.998 -0.5626  0.1290 -0.0054
 1005MOL0     C35596   7.226   9.485   8.103  0.2668  0.3247  1.0681
 1005MOL0     C35597   7.107   9.412   8.104 -0.2647  0.0219  0.3156
 1005MOL0     C35598   7.019   9.422   7.999  0.9166  0.4863  0.6668
 1005MOL0     O35599   6.897   9.347   7.997  0.3910 -0.5180  0.6111
 1005MOL0     C35600   6.838   9.323   8.127  1.1747  0.1738  0.1117
 1005MOL0     C35601   6.684   9.313   8.103  0.5302  0.2283  0.3746
 1005MOL0     C35602   6.592   9.429   8.093  0.2933 -0.0029  0.5034
 1005MOL0     C35603   6.647   9.544   8.009  0.2745 -0.4789 -0.4728
 1005MOL0     C35604   6.582   9.678   8.039  0.0037  0.5052 -0.2100
 1005MOL0     C35605   6.506   9.771   8.067  0.0395  0.0111  0.3093
 1005MOL0     C35606   7.053   9.507   7.890 -0.5805 -0.5669 -0.5116
 1005MOL0     C35607   7.173   9.584   7.897  0.3011 -0.4616 -0.4554
 1005MOL0     H35608   7.672   9.446   8.153 -0.6291  0.4090 -2.0561
 1005MOL0     H35609   7.899   9.505   8.160 -1.4238 -3.0573  0.4286
 1005MOL0     H35610   7.997   9.749   8.326 -1.2464  2.4443 -0.4726
 1005MOL0     H35611   8.154   9.772   8.260  0.6853 -2.0294 -1.9848
 1005MOL0     H35612   8.148   9.994   8.239  0.7010  0.1007  1.4368
 1005MOL0     H35613   7.972  10.015   8.208 -4.8394 -0.1273  5.4358
 1005MOL0     H35614   7.957   9.930   8.456 -0.6258  2.0355 -1.1170
 1005MOL0     H35615   8.127   9.947   8.464 -0.4860 -0.5613 -0.2732
 1005MOL0     H35616   8.119  10.183   8.403 -0.4163  2.2730 -1.2775
 1005MOL0     H35617   7.940  10.167   8.378  0.6135  1.3089  0.1949
 1005MOL0     H35618   7.928  10.252   8.579 -1.3713 -1.0853  0.1606
 1005MOL0     H35619   7.953  10.090   8.639  1.9914 -2.7303 -1.5270
 1005MOL0     H35620   8.190  10.129   8.672  0.5804  2.0736  1.4172
 1005MOL0     H35621   8.165  10.292   8.596 -2.8047  0.7528 -2.2303
 1005MOL0     H35622   8.053  10.389   8.769  1.7907 -0.1869 -1.5096
 1005MOL0     H35623   7.988  10.237   8.827  0.1123 -0.1463  0.3287
 1005MOL0     H35624   8.287  10.303   8.833 -0.3759 -2.6588 -0.5624
 1005MOL0     H35625   8.206  10.191   8.933  0.5605 -0.6151 -1.0670
 1005MOL0     H35626   7.973  10.362   9.072 -1.1182  2.8548 -2.7292
 1005MOL0     H35627   8.034  10.455   9.343  0.7249  1.6727  2.1256
 1005MOL0     H35628   8.096  10.610   9.351 -4.5682  0.6880  2.5566
 1005MOL0     H35629   7.842  10.566   9.190 -1.0109  4.1476 -1.0592
 1005MOL0     H35630   7.943  10.709   9.221 -0.3954  1.2276  1.9781
 1005MOL0     H35631   7.899  10.701   9.455  0.9740 -1.1664  0.5163
 1005MOL0     H35632   7.833  10.540   9.449  2.6598  0.7585  1.5077
 1005MOL0     H35633   7.667  10.737   9.473  2.0156 -1.0979  1.2414
 1005MOL0     H35634   7.627  10.615   9.350  0.5299 -0.0718  0.6492
 1005MOL0     H35635   7.676  10.818   9.019  0.5984  0.9507 -0.5278
 1005MOL0     H35636   7.566  10.863   8.832  0.1143 -0.9366  1.9360
 1005MOL0     H35637   7.407  10.801   8.798 -2.6830  1.3753 -0.7335
 1005MOL0     H35638   7.422  10.977   8.855  1.5911  1.0623  2.0376
 1005MOL0     H35639   7.083  11.088   8.812  0.0765  0.2127 -1.2204
 1005MOL0     H35640   6.901  11.120   8.623 -0.0684 -1.2721 -2.2560
 1005MOL0     H35641   6.825  11.056   8.416 -0.0054  3.4852 -0.4126
 1005MOL0     H35642   6.669  11.005   8.366  1.0187 -0.5499 -0.0028
 1005MOL0     H35643   6.696  11.175   8.625 -1.9126  1.2252  1.3129
 1005MOL0     H35644   6.677  11.248   8.468 -1.5290 -0.0844 -1.3385
 1005MOL0     H35645   6.468  11.228   8.603 -0.4669  1.5734 -1.2342
 1005MOL0     H35646   6.468  11.056   8.575  1.0069 -0.8966  0.1209
 1005MOL0     H35647   6.522  11.217   8.319  1.3059  0.1321  0.5700
 1005MOL0     H35648   6.395  11.094   8.353 -0.6177  0.7833 -0.2043
 1005MOL0     H35649   6.383  11.391   8.440 -3.0618  0.3638  2.1355
 1005MOL0     H35650   6.259  11.266   8.457 -2.9006 -1.5101 -3.1876
 1005MOL0     H35651   6.393  11.372   8.194 -0.8455  2.3817  1.7019
 1005MOL0     H35652   6.255  11.262   8.193  0.7738  1.1126 -1.2526
 1005MOL0     H35653   6.110  11.422   8.303  1.2099  2.0535  3.5500
 1005MOL0     H35654   6.170  11.472   8.140  0.0643  0.9077 -0.0161
 1005MOL0     H35655   6.272  11.576   8.411 -0.9001  1.5231  1.7155
 1005MOL0     H35656   6.152  11.651   8.294 -1.8361 -2.1682  0.7663
 1005MOL0     H35657   6.812  10.699   8.674 -0.0507  0.7242 -3.3500
 1005MOL0     H35658   7.002  10.677   8.825 -0.6301  0.7253  0.0805
 1005MOL0     H35659   7.254  10.837   9.283  0.0560  0.9662 -0.9216
 1005MOL0     H35660   7.456  10.785   9.384 -0.0144 -3.9700 -0.6792
 1005MOL0     H35661   7.814   9.911   8.084  1.7736 -0.7862  1.3607
 1005MOL0     H35662   7.569   9.862   8.074  1.7168  1.6773 -1.0535
 1005MOL0     H35663   7.288   9.475   8.192  2.6040  2.7513 -0.1591
 1005MOL0     H35664   7.088   9.336   8.179  0.0789  0.1324  0.5172
 1005MOL0     H35665   6.875   9.228   8.168  1.2737  0.5879  1.0025
 1005MOL0     H35666   6.856   9.400   8.202 -1.0929 -1.1114  2.0952
 1005MOL0     H35667   6.643   9.266   8.193 -0.3010 -0.6018 -0.4130
 1005MOL0     H35668   6.662   9.264   8.007 -1.7886 -2.5136  2.1279
 1005MOL0     H35669   6.548   9.462   8.187  0.1347 -1.8826  1.1478
 1005MOL0     H35670   6.505   9.400   8.033 -0.0015  2.2564 -0.2669
 1005MOL0     H35671   6.636   9.532   7.901  0.7169  1.0688 -0.7103
 1005MOL0     H35672   6.754   9.552   8.031 -0.1018  1.6581  0.8360
 1005MOL0     H35673   6.449   9.855   8.102  1.0807  1.0560 -0.4247
 1005MOL0     H35674   6.980   9.524   7.811  0.7752 -0.3614 -1.7700
 1005MOL0     H35675   7.178   9.665   7.825 -1.5156  1.8123  1.7672
 1006MOL0     O35676  10.005   4.219   9.176 -0.0787 -0.5765 -0.4087
 1006MOL0     C35677  10.002   4.334   9.231  0.8318 -0.2932  0.3117
 1006MOL0     O35678   9.908   4.426   9.214 -0.5738 -0.3445  0.2266
 1006MOL0     C35679   9.811   4.400   9.126 -0.1433 -0.8464  0.1716
 1006MOL0     C35680   9.678   4.408   9.164 -0.7485 -0.7722 -0.1345
 1006MOL0     C35681   9.584   4.377   9.068  0.3517 -0.9557  1.1951
 1006MOL0     C35682   9.617   4.360   8.928  0.0721  0.0881 -0.2526
 1006MOL0     O35683   9.509   4.352   8.842  0.0200  0.6119 -0.4135
 1006MOL0     C35684   9.527   4.250   8.737  0.4509  0.1880  0.1316
 1006MOL0     C35685   9.425   4.148   8.772 -0.9410 -0.2406 -0.0163
 1006MOL0     C35686   9.396   4.052   8.653  0.1101  0.4527 -0.9293
 1006MOL0     C35687   9.523   3.997   8.583 -0.4922  0.2312 -0.7341
 1006MOL0     C35688   9.485   3.919   8.446 -0.3564 -1.2053 -0.1302
 1006MOL0     C35689   9.468   3.773   8.484  0.1705 -0.1549 -0.8458
 1006MOL0     C35690   9.496   3.684   8.364 -0.2939  0.1074 -0.2279
 1006MOL0     C35691   9.505   3.546   8.423 -1.1151  0.1134  0.1332
 1006MOL0     N35692   9.377   3.483   8.476  0.2640 -0.2136 -0.0713
 1006MOL0     C35693   9.277   3.445   8.396 -0.7074  0.1821  0.0723
 1006MOL0     C35694   9.190   3.388   8.477  0.8910 -0.1068 -0.2329
 1006MOL0     C35695   9.074   3.308   8.422 -0.0087 -0.6550  0.0397
 1006MOL0     C35696   8.966   3.303   8.529  0.1333  0.7054 -1.0529
 1006MOL0     C35697   8.831   3.235   8.490  0.0176  0.1225  0.9089
 1006MOL0     C35698   8.770   3.167   8.619  0.9312  0.2920  1.0903
 1006MOL0     O35699   8.643   3.119   8.572 -0.1277 -0.1488 -0.1930
 1006MOL0     C35700   8.579   3.059   8.673 -0.2174  0.0930  0.3244
 1006MOL0     C35701   8.634   2.977   8.777  0.0667 -0.0722  1.2258
 1006MOL0     C35702   8.558   2.923   8.884  0.1834  0.7517 -0.0632
 1006MOL0     C35703   8.646   2.860   9.006 -0.3891 -0.0034 -0.0590
 1006MOL0     C35704   8.418   2.947   8.886  0.4927  0.5107  0.2082
 1006MOL0     C35705   8.332   2.920   9.001 -0.2707 -1.0095 -0.5668
 1006MOL0     O35706   8.241   3.012   9.029 -0.5837 -0.3387  0.2664
 1006MOL0     C35707   8.128   2.988   9.108  0.1466 -1.3351 -0.8756
 1006MOL0     C35708   8.012   2.934   9.072  0.3145  0.9030 -0.4287
 1006MOL0     C35709   7.900   2.926   9.156 -0.4480 -0.7319  1.1772
 1006MOL0     C35710   7.915   2.947   9.295  0.2155  0.6966 -0.0436
 1006MOL0     O35711   7.815   2.926   9.385 -0.7874  0.1476  0.3553
 1006MOL0     C35712   7.695   2.997   9.370 -0.9405  0.2395  0.3842
 1006MOL0     C35713   7.707   3.128   9.454 -0.5687  0.1531  1.3522
 1006MOL0     C35714   7.579   3.209   9.472  0.3445 -0.6726  0.2230
 1006MOL0     C35715   7.596   3.326   9.567 -0.3503  0.3170 -0.3155
 1006MOL0     C35716   7.584   3.278   9.711  0.2571 -0.0878  0.3203
 1006MOL0     C35717   7.570   3.389   9.816  0.2364 -0.1335 -0.2429
 1006MOL0     C35718   7.652   3.516   9.778  0.6388  0.2371 -0.7955
 1006MOL0     C35719   7.674   3.586   9.920 -0.6895 -0.5077 -0.5101
 1006MOL0    Cl35720   7.529   3.673   9.989 -0.0758  0.3273  0.1952
 1006MOL0     C35721   8.036   2.993   9.340  0.4191 -0.6033  1.1625
 1006MOL0     C35722   8.142   3.018   9.251  0.4252 -0.6859  0.7449
 1006MOL0     O35723   8.360   2.823   9.065  0.5641 -0.0905 -0.5501
 1006MOL0     C35724   8.365   3.001   8.774 -1.1163 -0.1573  0.1162
 1006MOL0     C35725   8.439   3.060   8.673 -0.4034 -0.1541 -0.1850
 1006MOL0     N35726   9.239   3.378   8.605  0.9612 -0.2202 -0.3040
 1006MOL0     N35727   9.347   3.443   8.605  0.0352 -0.2496  0.0251
 1006MOL0     C35728   9.747   4.366   8.888  0.8962 -0.4556 -0.2039
 1006MOL0     C35729   9.842   4.390   8.988 -0.8116  0.0970  0.2711
 1006MOL0     C35730  10.101   4.375   9.331 -0.9964  0.4685  0.3406
 1006MOL0     C35731  10.223   4.312   9.331 -0.5092  0.1680  0.6229
 1006MOL0     C35732  10.314   4.343   9.434 -0.0956  0.4130 -0.1178
 1006MOL0     C35733  10.289   4.427   9.541 -1.2118  0.1118 -0.2616
 1006MOL0     O35734  10.368   4.448   9.651  0.5390 -0.5193 -0.3032
 1006MOL0     C35735  10.424   4.337   9.718  0.9303  0.1313  0.2645
 1006MOL0     C35736  10.334   4.248   9.797 -1.4956 -0.7625  0.3843
 1006MOL0     C35737  10.237   4.333   9.882 -0.0099 -0.3057  0.4925
 1006MOL0     C35738  10.161   4.253   9.975  0.4471  0.1173  0.4419
 1006MOL0     C35739  10.063   4.164   9.910 -0.5343 -0.5551 -0.2263
 1006MOL0     C35740   9.976   4.105   9.862 -0.4459 -0.0707 -1.1700
 1006MOL0     C35741  10.161   4.483   9.547  1.2559 -0.7515 -0.0700
 1006MOL0     C35742  10.077   4.467   9.434 -0.8251 -0.4752  0.2952
 1006MOL0     H35743   9.650   4.421   9.268 -3.2069  1.1872 -0.9434
 1006MOL0     H35744   9.485   4.386   9.113 -0.0151  2.2083  0.0474
 1006MOL0     H35745   9.492   4.296   8.644 -4.0757  1.9108  2.4057
 1006MOL0     H35746   9.630   4.215   8.726 -0.7316 -3.8542  0.1156
 1006MOL0     H35747   9.471   4.092   8.854  0.7250 -0.5208 -1.1056
 1006MOL0     H35748   9.327   4.192   8.795 -0.5912  1.4627 -1.5483
 1006MOL0     H35749   9.332   3.969   8.685 -0.4889  1.0331 -0.6015
 1006MOL0     H35750   9.337   4.115   8.586  0.4635  2.5971  0.6589
 1006MOL0     H35751   9.583   4.084   8.554  2.3264 -1.2129  0.4554
 1006MOL0     H35752   9.588   3.949   8.656  4.0216  4.6249 -1.2967
 1006MOL0     H35753   9.393   3.953   8.398 -1.6135  0.6001  3.2415
 1006MOL0     H35754   9.569   3.927   8.376 -0.4281 -1.5717 -0.2617
 1006MOL0     H35755   9.542   3.752   8.561  0.7155  1.0340 -1.0158
 1006MOL0     H35756   9.365   3.750   8.516 -0.9435 -2.1740 -5.1847
 1006MOL0     H35757   9.416   3.685   8.289 -3.1302  3.1551  2.5004
 1006MOL0     H35758   9.592   3.715   8.322 -1.7643  2.6175 -2.0197
 1006MOL0     H35759   9.577   3.556   8.505  0.9796  0.6635 -1.6975
 1006MOL0     H35760   9.545   3.479   8.347  0.6057  0.9782  0.2229
 1006MOL0     H35761   9.263   3.455   8.289  3.5282  0.5524 -0.6281
 1006MOL0     H35762   9.031   3.349   8.330  1.3693 -1.9226 -1.2323
 1006MOL0     H35763   9.119   3.210   8.403 -0.0266 -0.2685 -2.4291
 1006MOL0     H35764   8.949   3.403   8.568 -0.0735  0.9638 -1.7843
 1006MOL0     H35765   9.001   3.240   8.612  1.4724  1.2284 -1.2001
 1006MOL0     H35766   8.848   3.154   8.419 -2.7019  0.3086 -0.1104
 1006MOL0     H35767   8.753   3.306   8.461  1.3815  0.2797 -2.8625
 1006MOL0     H35768   8.754   3.244   8.695 -2.3665  1.6903 -0.8076
 1006MOL0     H35769   8.834   3.090   8.664 -0.0961 -0.8592  0.6610
 1006MOL0     H35770   8.739   2.951   8.773 -0.7092 -3.4748 -1.8945
 1006MOL0     H35771   8.675   2.757   8.983  0.1358  0.4467 -1.5643
 1006MOL0     H35772   8.739   2.915   9.023  0.6108 -1.4719 -0.5465
 1006MOL0     H35773   8.595   2.867   9.102 -1.5054  1.0080 -0.6910
 1006MOL0     H35774   8.006   2.902   8.969  1.0404 -4.3302  0.8744
 1006MOL0     H35775   7.806   2.897   9.111 -0.2457  3.1636 -2.3160
 1006MOL0     H35776   7.663   3.018   9.268  2.4133  0.4753 -0.7520
 1006MOL0     H35777   7.622   2.927   9.410  2.5319 -2.4139  2.7407
 1006MOL0     H35778   7.748   3.107   9.553  0.6404  1.8253  1.2415
 1006MOL0     H35779   7.772   3.191   9.393 -0.0339 -0.4066  1.3286
 1006MOL0     H35780   7.505   3.135   9.502  0.4033 -0.5850  0.5845
 1006MOL0     H35781   7.552   3.244   9.372 -0.4618 -0.7436  0.4135
 1006MOL0     H35782   7.687   3.384   9.546  2.4811 -3.0549  1.5165
 1006MOL0     H35783   7.507   3.387   9.550 -0.7068 -0.0039  0.3562
 1006MOL0     H35784   7.675   3.220   9.727 -0.5850 -0.7949  3.0881
 1006MOL0     H35785   7.506   3.204   9.725 -0.7366  1.0296  0.8928
 1006MOL0     H35786   7.462   3.404   9.821 -0.1777 -2.5909 -0.8566
 1006MOL0     H35787   7.608   3.342   9.908 -0.7422  2.0694  1.3976
 1006MOL0     H35788   7.602   3.588   9.713 -0.3435  0.2104 -0.0907
 1006MOL0     H35789   7.745   3.478   9.734  0.7272 -2.9314  1.7549
 1006MOL0     H35790   7.751   3.662   9.904 -0.7185 -0.3936 -0.1196
 1006MOL0     H35791   7.707   3.521  10.002 -1.1160 -1.5812 -1.1679
 1006MOL0     H35792   8.048   3.022   9.444 -3.5771  1.5742  1.2183
 1006MOL0     H35793   8.231   3.055   9.301 -0.9727  1.5243  1.7407
 1006MOL0     H35794   8.257   3.013   8.769 -1.3406  0.2478  3.4810
 1006MOL0     H35795   8.390   3.123   8.600  2.5020 -0.0872 -2.2584
 1006MOL0     H35796   9.767   4.363   8.782 -1.2032  0.1077 -0.6691
 1006MOL0     H35797   9.940   4.400   8.942 -0.5761  2.3188  1.1443
 1006MOL0     H35798  10.243   4.235   9.256 -0.8080  1.3163 -0.6692
 1006MOL0     H35799  10.401   4.281   9.451 -0.4138 -0.1057 -0.3519
 1006MOL0     H35800  10.470   4.260   9.655 -1.6082 -2.3905  1.2839
 1006MOL0     H35801  10.507   4.381   9.775  0.1204  0.9037  0.8701
 1006MOL0     H35802  10.393   4.172   9.849 -0.0632 -1.0870 -1.6163
 1006MOL0     H35803  10.271   4.191   9.729 -3.1488 -1.2585  2.2405
 1006MOL0     H35804  10.170   4.399   9.826  0.0430  0.2611  1.0924
 1006MOL0     H35805  10.291   4.397   9.952  0.3290  2.5164 -2.1612
 1006MOL0     H35806  10.107   4.315  10.047  1.1085  0.9957  0.1971
 1006MOL0     H35807  10.227   4.179  10.022  1.2639  1.2504  1.1174
 1006MOL0     H35808   9.893   4.061   9.811 -0.4285 -2.3457  0.5894
 1006MOL0     H35809  10.137   4.538   9.637  1.6736 -2.9271  1.4319
 1006MOL0     H35810   9.978   4.512   9.439 -0.4169  0.8138 -2.0159
 1007MOL0     O35811  11.404  10.110   4.427 -0.1068 -0.0629 -0.2290
 1007MOL0     C35812  11.410  10.175   4.323 -0.2621  1.3395  0.8317
 1007MOL0     O35813  11.417  10.125   4.198  0.3392 -0.1057 -0.8686
 1007MOL0     C35814  11.477  10.007   4.182  0.2067 -0.3922  0.3142
 1007MOL0     C35815  11.614   9.989   4.185 -0.0625 -0.6661  0.1830
 1007MOL0     C35816  11.672   9.860   4.170  1.0016  0.3761  0.8038
 1007MOL0     C35817  11.577   9.751   4.165  0.2290 -1.0780 -0.6198
 1007MOL0     O35818  11.615   9.619   4.158  0.4572  0.7644  0.4310
 1007MOL0     C35819  11.752   9.588   4.136 -0.5214  0.4284 -0.0534
 1007MOL0     C35820  11.824   9.566   4.266 -0.4903 -0.3894 -0.3625
 1007MOL0     C35821  11.978   9.536   4.242  0.6941  0.1909  0.3050
 1007MOL0     C35822  12.043   9.483   4.368 -0.3859 -0.8973  0.9601
 1007MOL0     C35823  12.188   9.469   4.328  0.0820  0.2866 -0.4616
 1007MOL0     C35824  12.272   9.466   4.452 -0.3412 -0.1816 -0.0091
 1007MOL0     C35825  12.430   9.445   4.425 -0.1488 -0.5665  0.4180
 1007MOL0     C35826  12.487   9.550   4.336  1.0537  0.9414 -0.3227
 1007MOL0     N35827  12.472   9.524   4.191 -0.0717  0.0363  0.7211
 1007MOL0     C35828  12.507   9.412   4.122  0.3499  0.3418 -0.5244
 1007MOL0     C35829  12.494   9.448   3.993  0.4117 -0.0422 -0.4744
 1007MOL0     C35830  12.505   9.361   3.883  0.8994  1.5092  0.3061
 1007MOL0     C35831  12.414   9.236   3.893  0.2075  0.0480  0.2441
 1007MOL0     C35832  12.265   9.276   3.892  0.1139  0.2251 -0.3809
 1007MOL0     C35833  12.213   9.353   3.771 -0.3726  0.0745  0.7714
 1007MOL0     O35834  12.071   9.350   3.793 -0.7185  0.1334 -0.5392
 1007MOL0     C35835  12.009   9.411   3.684  0.2948  0.6296 -1.3626
 1007MOL0     C35836  11.988   9.337   3.569 -0.0176 -0.4978  0.5542
 1007MOL0     C35837  11.928   9.397   3.457 -0.9193  0.3331  1.0643
 1007MOL0     C35838  11.905   9.303   3.346 -0.6266 -0.4522  1.0572
 1007MOL0     C35839  11.875   9.526   3.463 -0.3296 -0.4375 -0.0294
 1007MOL0     C35840  11.809   9.606   3.361  0.9740 -0.0154 -1.5278
 1007MOL0     O35841  11.707   9.687   3.399  0.3590 -0.5604 -0.5132
 1007MOL0     C35842  11.617   9.747   3.309  0.1934 -0.5122  0.0485
 1007MOL0     C35843  11.492   9.797   3.368 -0.3885 -0.4232 -0.2114
 1007MOL0     C35844  11.401   9.879   3.293 -1.0455  0.0328 -0.3428
 1007MOL0     C35845  11.448   9.930   3.174  1.0045  0.2243 -0.1913
 1007MOL0     O35846  11.373  10.014   3.096 -0.2199 -0.4459 -0.2795
 1007MOL0     C35847  11.348  10.143   3.157 -0.6586 -0.2338  0.4469
 1007MOL0     C35848  11.200  10.173   3.129 -0.9338 -0.3418 -0.2575
 1007MOL0     C35849  11.139  10.129   2.994 -0.4988 -0.5285  0.7827
 1007MOL0     C35850  11.026  10.030   3.011 -0.5437 -0.7065  0.2257
 1007MOL0     C35851  10.983   9.947   2.886  0.2670  0.4501 -0.3917
 1007MOL0     C35852  11.093   9.914   2.788 -1.3065  0.3416 -0.5985
 1007MOL0     C35853  11.042   9.811   2.696  0.3552  0.1224 -0.6540
 1007MOL0     C35854  11.136   9.737   2.600  0.4081 -0.2995  0.2263
 1007MOL0    Cl35855  11.277   9.670   2.693  0.0733 -0.0075  0.2610
 1007MOL0     C35856  11.566   9.878   3.122 -0.0230 -0.4126  0.2041
 1007MOL0     C35857  11.652   9.786   3.179 -0.8113  0.2098  0.1841
 1007MOL0     O35858  11.836   9.582   3.249 -0.8931  0.4954 -0.2754
 1007MOL0     C35859  11.895   9.598   3.582  0.6420  0.2094 -0.2162
 1007MOL0     C35860  11.953   9.539   3.690 -0.4961 -0.8235  0.5266
 1007MOL0     N35861  12.442   9.573   3.979  0.0571 -0.9939 -0.2906
 1007MOL0     N35862  12.438   9.627   4.100 -0.1722  0.1294  0.1313
 1007MOL0     C35863  11.436   9.773   4.163 -0.2579  0.1295 -0.0021
 1007MOL0     C35864  11.387   9.904   4.170  0.1923 -0.8616  0.1644
 1007MOL0     C35865  11.410  10.322   4.335 -0.1318 -0.0521  0.4457
 1007MOL0     C35866  11.355  10.395   4.231 -0.2671 -0.5010  0.0163
 1007MOL0     C35867  11.351  10.535   4.232 -0.1654  0.2061 -0.1094
 1007MOL0     C35868  11.426  10.603   4.330  0.2556  0.3210  0.5428
 1007MOL0     O35869  11.445  10.742   4.336  0.4948  0.0352  0.1695
 1007MOL0     C35870  11.390  10.820   4.229  0.0460  0.1845 -0.8606
 1007MOL0     C35871  11.413  10.968   4.246 -0.6449  0.4404  0.6224
 1007MOL0     C35872  11.363  11.012   4.384  0.6925  0.0989  0.5910
 1007MOL0     C35873  11.398  11.158   4.428 -0.7599  0.3398 -0.4102
 1007MOL0     C35874  11.385  11.260   4.324 -0.4510  0.5971 -0.1353
 1007MOL0     C35875  11.372  11.347   4.246 -0.1339 -0.1549  1.0846
 1007MOL0     C35876  11.486  10.531   4.441  0.4133  0.0745  0.6839
 1007MOL0     C35877  11.470  10.391   4.442  0.2198 -0.0918  0.1793
 1007MOL0     H35878  11.683  10.071   4.199 -2.4527  2.2504 -3.3962
 1007MOL0     H35879  11.779   9.845   4.178  0.8135 -0.4246  2.1216
 1007MOL0     H35880  11.751   9.491   4.086 -1.3453  0.5433 -0.2699
 1007MOL0     H35881  11.807   9.652   4.067  4.4319 -0.6704  2.3750
 1007MOL0     H35882  11.805   9.662   4.313 -1.2631 -1.8391  2.4976
 1007MOL0     H35883  11.779   9.496   4.336 -0.9467  2.6168  2.5846
 1007MOL0     H35884  11.979   9.458   4.166  0.0861  1.2388 -0.8014
 1007MOL0     H35885  12.033   9.622   4.203 -0.3202  0.3948 -0.7305
 1007MOL0     H35886  12.030   9.557   4.448  0.3319 -0.5746  0.7854
 1007MOL0     H35887  12.007   9.388   4.409  0.2117 -1.3039  0.5580
 1007MOL0     H35888  12.194   9.378   4.268 -0.9434  0.8917 -1.5152
 1007MOL0     H35889  12.228   9.550   4.268 -0.1525  1.4824  0.9253
 1007MOL0     H35890  12.272   9.560   4.507  0.8472  0.6659 -1.3839
 1007MOL0     H35891  12.235   9.397   4.529 -2.2427  1.1285  0.3105
 1007MOL0     H35892  12.479   9.452   4.522  1.2046 -0.2926 -0.2549
 1007MOL0     H35893  12.455   9.350   4.377  3.7229 -0.3852  1.7083
 1007MOL0     H35894  12.591   9.529   4.363  0.8412  2.0595  1.5029
 1007MOL0     H35895  12.445   9.649   4.353 -0.8192 -0.0486  1.2161
 1007MOL0     H35896  12.549   9.322   4.167  0.6416  0.1466 -1.1816
 1007MOL0     H35897  12.495   9.412   3.787  1.2349  0.3151 -0.3863
 1007MOL0     H35898  12.603   9.313   3.884 -1.2634 -3.5683  2.5718
 1007MOL0     H35899  12.434   9.175   3.981 -2.8092 -0.9145  0.3861
 1007MOL0     H35900  12.419   9.175   3.803 -0.3065 -0.6627  0.6895
 1007MOL0     H35901  12.237   9.331   3.983  0.5371  1.6461 -1.0775
 1007MOL0     H35902  12.211   9.181   3.904  0.6562 -0.0559 -0.0963
 1007MOL0     H35903  12.237   9.301   3.678 -1.3930  2.2426 -0.8018
 1007MOL0     H35904  12.260   9.451   3.762  3.9425 -1.9405 -1.3266
 1007MOL0     H35905  12.027   9.237   3.586  4.2793  1.3300  3.0960
 1007MOL0     H35906  11.942   9.347   3.253  2.1107  0.1764  2.3589
 1007MOL0     H35907  11.948   9.205   3.367 -1.5984 -0.8168  1.4193
 1007MOL0     H35908  11.798   9.287   3.329 -1.2662  2.4759  1.7521
 1007MOL0     H35909  11.479   9.756   3.468  4.2597  0.9101  1.2396
 1007MOL0     H35910  11.301   9.906   3.325 -1.2493  0.7604 -1.5135
 1007MOL0     H35911  11.384  10.149   3.261 -0.9565 -1.0493  0.6036
 1007MOL0     H35912  11.400  10.218   3.096  3.0338 -1.7667  1.4145
 1007MOL0     H35913  11.143  10.141   3.217 -0.2220 -2.7247 -0.5980
 1007MOL0     H35914  11.189  10.282   3.127  0.6372 -0.1192  1.3274
 1007MOL0     H35915  11.216  10.076   2.938  0.5861  0.0551  1.6760
 1007MOL0     H35916  11.120  10.218   2.933  5.9483  1.2508  0.6814
 1007MOL0     H35917  11.058   9.950   3.079 -0.9279  0.9096  2.4323
 1007MOL0     H35918  10.946  10.090   3.056 -0.9696 -0.2731 -1.0746
 1007MOL0     H35919  10.894   9.977   2.831 -0.8050 -1.0653  0.4367
 1007MOL0     H35920  10.949   9.850   2.925  0.8138  0.0248 -0.9398
 1007MOL0     H35921  11.145   9.999   2.744  0.6218 -1.2346 -1.5174
 1007MOL0     H35922  11.169   9.864   2.850 -1.0928  1.7287  0.2989
 1007MOL0     H35923  10.958   9.855   2.642  2.0410  3.3536 -0.9044
 1007MOL0     H35924  11.018   9.731   2.767  3.4613  0.8523  1.4243
 1007MOL0     H35925  11.167   9.815   2.530 -0.8343  2.7197  2.7716
 1007MOL0     H35926  11.094   9.656   2.539 -0.7898 -0.8476  1.7128
 1007MOL0     H35927  11.593   9.917   3.024 -1.8220 -2.6433 -1.2872
 1007MOL0     H35928  11.754   9.760   3.151 -1.2241 -3.4896  1.5511
 1007MOL0     H35929  11.844   9.692   3.600  1.7150  0.3598  2.4428
 1007MOL0     H35930  11.955   9.603   3.777  0.2153  1.9538 -1.4182
 1007MOL0     H35931  11.375   9.685   4.153  0.3862 -0.2744 -0.4768
 1007MOL0     H35932  11.282   9.925   4.186  1.0332  4.0948  0.7498
 1007MOL0     H35933  11.305  10.344   4.150  2.7039  0.5907 -2.6890
 1007MOL0     H35934  11.296  10.578   4.149  0.2299 -1.7654 -1.4744
 1007MOL0     H35935  11.431  10.789   4.133 -2.9677 -1.9978 -1.5958
 1007MOL0     H35936  11.281  10.810   4.235  0.1687 -0.2545  1.9254
 1007MOL0     H35937  11.366  11.031   4.171 -0.3318 -1.3611 -1.1749
 1007MOL0     H35938  11.521  10.985   4.241 -0.3495 -0.8009  1.9668
 1007MOL0     H35939  11.397  10.933   4.453  0.4237 -5.1003 -4.4918
 1007MOL0     H35940  11.254  11.009   4.385  0.6339  1.2627 -0.3561
 1007MOL0     H35941  11.501  11.154   4.466 -1.5869  0.7081  2.0768
 1007MOL0     H35942  11.347  11.192   4.519 -1.4157  0.6936 -0.9020
 1007MOL0     H35943  11.363  11.428   4.177  0.1545 -2.8226 -2.3114
 1007MOL0     H35944  11.525  10.589   4.524 -0.4093  2.1800 -0.3546
 1007MOL0     H35945  11.519  10.339   4.524  0.5444 -0.4522 -0.2386
 1008MOL0     O35946   4.834   8.880   2.032 -0.3899 -0.1714 -0.7995
 1008MOL0     C35947   4.919   8.818   2.093 -0.5468 -0.5399 -0.3233
 1008MOL0     O35948   4.962   8.854   2.219  0.0454  0.6270 -0.1274
 1008MOL0     C35949   4.878   8.932   2.291 -0.1974 -0.5679 -0.3178
 1008MOL0     C35950   4.880   9.071   2.266  0.4095 -0.9357 -0.4676
 1008MOL0     C35951   4.799   9.153   2.346 -0.2958 -0.0710  1.2546
 1008MOL0     C35952   4.704   9.107   2.434 -0.6025 -0.0533 -0.0032
 1008MOL0     O35953   4.611   9.203   2.475  0.4457  0.5587  0.5543
 1008MOL0     C35954   4.467   9.159   2.473 -0.2273  0.1325  0.0036
 1008MOL0     C35955   4.420   9.193   2.330  0.3108  0.1438  0.2405
 1008MOL0     C35956   4.318   9.092   2.279 -0.1778  0.6339 -0.2949
 1008MOL0     C35957   4.183   9.106   2.340 -0.7412  0.2918  0.0754
 1008MOL0     C35958   4.085   9.030   2.258 -0.3765 -0.2843  0.2061
 1008MOL0     C35959   3.944   9.064   2.309  0.1610  0.8413 -0.5722
 1008MOL0     C35960   3.923   8.977   2.441 -0.1801  0.0767  0.0209
 1008MOL0     C35961   3.772   8.946   2.475  0.4218  0.4711  0.1167
 1008MOL0     N35962   3.764   8.876   2.605 -0.8063  0.6737 -0.7551
 1008MOL0     C35963   3.752   8.740   2.617  0.6873  0.4020  0.3760
 1008MOL0     C35964   3.721   8.713   2.746  0.1959 -0.5464 -0.8247
 1008MOL0     C35965   3.726   8.573   2.816 -0.1554 -0.1606 -0.6108
 1008MOL0     C35966   3.584   8.513   2.791 -0.1093 -0.6902  0.3952
 1008MOL0     C35967   3.554   8.395   2.885  1.0249 -0.6863  0.6459
 1008MOL0     C35968   3.612   8.268   2.835 -0.4286  0.4932 -0.6442
 1008MOL0     O35969   3.580   8.166   2.938  0.5834  0.2380 -0.4999
 1008MOL0     C35970   3.656   8.160   3.059 -0.7032 -1.1066  0.3456
 1008MOL0     C35971   3.626   8.070   3.158  0.1553 -0.8878 -0.1069
 1008MOL0     C35972   3.709   8.048   3.269 -0.7895 -0.2478  0.7089
 1008MOL0     C35973   3.663   7.957   3.375  0.4519 -0.4977 -0.4357
 1008MOL0     C35974   3.830   8.122   3.274 -0.8767  0.1261  0.7630
 1008MOL0     C35975   3.926   8.121   3.380 -0.5274  0.4812  1.4126
 1008MOL0     O35976   4.059   8.099   3.335 -0.7500 -0.0117 -0.0518
 1008MOL0     C35977   4.152   8.128   3.439 -0.1902 -0.8026  0.6674
 1008MOL0     C35978   4.169   8.258   3.491  0.6142  0.8843 -0.0208
 1008MOL0     C35979   4.254   8.278   3.600 -0.2084  0.6021  0.5717
 1008MOL0     C35980   4.316   8.172   3.661 -0.3552 -0.0409  0.2165
 1008MOL0     O35981   4.397   8.193   3.770 -0.0516 -0.2111  0.1698
 1008MOL0     C35982   4.423   8.088   3.864 -0.5816  1.2009 -0.4988
 1008MOL0     C35983   4.470   8.134   3.997  0.5285  0.3281  0.3491
 1008MOL0     C35984   4.614   8.189   4.005 -0.7068 -0.0722  0.0265
 1008MOL0     C35985   4.721   8.102   4.074 -0.4345  0.6011 -0.1883
 1008MOL0     C35986   4.693   8.102   4.226 -0.2959  0.7967  0.5017
 1008MOL0     C35987   4.809   8.061   4.312 -0.4046 -0.3859 -0.5815
 1008MOL0     C35988   4.832   7.908   4.278 -0.0816  0.2260  0.3200
 1008MOL0     C35989   4.939   7.864   4.370 -1.5510  1.3338 -0.6272
 1008MOL0    Cl35990   4.893   7.863   4.542  0.2942  0.1880 -0.3874
 1008MOL0     C35991   4.304   8.048   3.599  0.1346  0.1767 -0.2560
 1008MOL0     C35992   4.224   8.025   3.489 -0.6569 -0.8873  0.4542
 1008MOL0     O35993   3.881   8.109   3.489 -0.8900 -0.3478 -0.1130
 1008MOL0     C35994   3.871   8.209   3.176  0.6080  0.1855  0.2174
 1008MOL0     C35995   3.780   8.228   3.068  0.8481  0.2978  0.3151
 1008MOL0     N35996   3.729   8.838   2.813 -0.5190  1.1283 -0.2428
 1008MOL0     N35997   3.755   8.932   2.731  0.0037 -0.0909  0.3308
 1008MOL0     C35998   4.699   8.974   2.457 -0.1687 -0.2815 -0.2104
 1008MOL0     C35999   4.786   8.890   2.392 -0.5778  0.6360  0.0484
 1008MOL0     C36000   4.979   8.702   2.026  0.3589 -0.7379 -0.6592
 1008MOL0     C36001   5.024   8.595   2.105  0.0036  0.2573  0.1100
 1008MOL0     C36002   5.090   8.489   2.044  0.1737 -1.4172 -0.6266
 1008MOL0     C36003   5.099   8.477   1.904  0.1392  0.5918 -0.2872
 1008MOL0     O36004   5.163   8.373   1.833  0.5027  0.4419  0.0170
 1008MOL0     C36005   5.253   8.293   1.906 -1.0712 -0.4091 -0.6231
 1008MOL0     C36006   5.367   8.367   1.993  1.0887  0.1855 -1.3686
 1008MOL0     C36007   5.472   8.252   2.026  0.5203 -0.4243  0.8985
 1008MOL0     C36008   5.570   8.311   2.130 -1.3386 -0.4263  0.1571
 1008MOL0     C36009   5.515   8.327   2.262 -0.0404  0.3705  0.2160
 1008MOL0     C36010   5.477   8.341   2.380  0.1522  0.1793 -0.1303
 1008MOL0     C36011   5.034   8.582   1.832 -0.2078  0.3413  0.7037
 1008MOL0     C36012   4.976   8.692   1.886  0.2028  0.5499  0.0052
 1008MOL0     H36013   4.946   9.117   2.192  0.7447 -0.2961  0.2059
 1008MOL0     H36014   4.793   9.260   2.331  0.6172 -0.1072  0.5330
 1008MOL0     H36015   4.454   9.053   2.497 -3.5429 -0.0767 -1.9401
 1008MOL0     H36016   4.420   9.215   2.553 -2.0475 -0.4298 -0.6134
 1008MOL0     H36017   4.355   9.280   2.344 -1.7245 -1.2860  0.1452
 1008MOL0     H36018   4.512   9.199   2.271  0.7992 -1.7547  0.7171
 1008MOL0     H36019   4.314   9.105   2.170  1.5376  0.1513 -0.4511
 1008MOL0     H36020   4.357   8.996   2.314 -0.3222  1.8045  3.5034
 1008MOL0     H36021   4.186   9.049   2.433  0.4296 -1.9699 -1.2813
 1008MOL0     H36022   4.148   9.210   2.339 -5.6489 -1.0944 -2.9444
 1008MOL0     H36023   4.072   9.065   2.155 -2.6558 -0.7610  0.2776
 1008MOL0     H36024   4.102   8.922   2.251 -1.0051 -0.3397 -0.5911
 1008MOL0     H36025   3.928   9.172   2.310 -0.1255  0.7967 -0.0510
 1008MOL0     H36026   3.867   9.021   2.245  0.6298  0.6898 -1.0369
 1008MOL0     H36027   3.974   8.882   2.455  0.7256  0.9863  4.6060
 1008MOL0     H36028   3.963   9.037   2.523  0.8698  3.1409 -2.5184
 1008MOL0     H36029   3.730   8.901   2.385  2.7016  0.7781 -1.1773
 1008MOL0     H36030   3.706   9.030   2.498  1.6916  1.3087  0.8329
 1008MOL0     H36031   3.783   8.664   2.545 -1.0444 -0.8881  0.9461
 1008MOL0     H36032   3.805   8.519   2.762 -1.1560 -1.4659 -0.8149
 1008MOL0     H36033   3.745   8.586   2.923 -0.7473 -0.1921 -0.4993
 1008MOL0     H36034   3.598   8.476   2.689 -1.6243  3.5971 -1.6313
 1008MOL0     H36035   3.504   8.587   2.792 -0.2761 -0.8692  1.8912
 1008MOL0     H36036   3.445   8.393   2.900  0.9839  2.1736  1.2502
 1008MOL0     H36037   3.586   8.430   2.983  0.5842 -0.0695  0.5739
 1008MOL0     H36038   3.719   8.279   2.811  0.1818  1.4186  2.1499
 1008MOL0     H36039   3.568   8.234   2.741 -2.5884 -0.9502  0.8001
 1008MOL0     H36040   3.527   8.026   3.155 -1.0228  1.5582  0.4305
 1008MOL0     H36041   3.564   7.911   3.362  1.1675 -2.3127  0.2208
 1008MOL0     H36042   3.726   7.869   3.386 -0.4006 -1.0976 -0.2539
 1008MOL0     H36043   3.650   8.012   3.468 -2.7448 -0.5329 -0.7449
 1008MOL0     H36044   4.104   8.332   3.445 -1.5532 -2.1442 -2.2070
 1008MOL0     H36045   4.271   8.370   3.656  0.7279  1.4238 -0.9842
 1008MOL0     H36046   4.326   8.044   3.890 -1.0931  4.3215  4.0792
 1008MOL0     H36047   4.496   8.014   3.829  1.9341  3.1997  0.2467
 1008MOL0     H36048   4.391   8.205   4.024  0.7828  0.0350  1.9694
 1008MOL0     H36049   4.459   8.046   4.061  0.8452 -1.0419 -1.3729
 1008MOL0     H36050   4.613   8.282   4.063  2.2574 -0.8642  1.5298
 1008MOL0     H36051   4.649   8.211   3.904  2.1252 -3.0178  0.2081
 1008MOL0     H36052   4.729   8.000   4.035  0.0765 -0.4564  2.4650
 1008MOL0     H36053   4.815   8.157   4.062 -0.7346  1.7101  2.0080
 1008MOL0     H36054   4.596   8.052   4.235  0.5933 -0.9707  0.6963
 1008MOL0     H36055   4.665   8.205   4.252  1.5432  1.2264  0.9412
 1008MOL0     H36056   4.895   8.122   4.284 -0.2252 -0.3008  0.1522
 1008MOL0     H36057   4.767   8.073   4.412 -2.2304 -1.0241 -1.2186
 1008MOL0     H36058   4.875   7.899   4.177 -1.8119  0.2937 -0.4574
 1008MOL0     H36059   4.742   7.846   4.275 -0.6796  0.6426  4.5366
 1008MOL0     H36060   5.024   7.928   4.345 -1.4460  0.3975 -2.9351
 1008MOL0     H36061   4.972   7.764   4.344  0.7338  1.8674 -0.0028
 1008MOL0     H36062   4.369   7.972   3.641 -1.5169 -1.6347 -0.8526
 1008MOL0     H36063   4.206   7.925   3.450 -1.8012 -0.9525  1.1099
 1008MOL0     H36064   3.968   8.259   3.175  3.0691 -3.9041  2.9538
 1008MOL0     H36065   3.797   8.305   2.994 -3.3718  2.5660  1.3517
 1008MOL0     H36066   4.627   8.948   2.533  0.2673  0.1034  0.3514
 1008MOL0     H36067   4.779   8.790   2.432  0.0261  1.0739  1.3082
 1008MOL0     H36068   5.018   8.603   2.213  0.5537  1.2676  0.0781
 1008MOL0     H36069   5.108   8.409   2.115 -1.4726 -1.5871 -0.3744
 1008MOL0     H36070   5.196   8.225   1.970 -1.1003 -0.3125 -0.5469
 1008MOL0     H36071   5.301   8.232   1.829  1.0777  1.9831 -1.3476
 1008MOL0     H36072   5.325   8.394   2.091  1.2351  1.3733 -1.6244
 1008MOL0     H36073   5.412   8.454   1.945  3.0170  2.0569  3.2036
 1008MOL0     H36074   5.515   8.233   1.928 -4.2797 -1.2587 -1.3559
 1008MOL0     H36075   5.408   8.165   2.041 -1.9041  0.6719 -1.9953
 1008MOL0     H36076   5.615   8.405   2.097  3.1509 -2.7821 -1.3628
 1008MOL0     H36077   5.659   8.247   2.136 -0.2003  1.0949  0.0632
 1008MOL0     H36078   5.432   8.359   2.475 -0.6777  1.8841 -0.8017
 1008MOL0     H36079   5.035   8.578   1.723 -0.0278  1.0110  0.6722
 1008MOL0     H36080   4.935   8.767   1.819  0.1181 -1.0349 -1.8118
 1009MOL0     O36081   1.789  10.026   1.565  0.6745 -0.2283 -0.1528
 1009MOL0     C36082   1.687  10.055   1.640  0.4912  0.9373 -0.0183
 1009MOL0     O36083   1.560  10.092   1.597 -0.4300 -0.2370  0.6940
 1009MOL0     C36084   1.531  10.084   1.465  0.5209 -0.5408  0.7620
 1009MOL0     C36085   1.541   9.965   1.391 -0.5713 -0.4155 -1.9713
 1009MOL0     C36086   1.524   9.968   1.256  0.1476  0.8205 -0.3232
 1009MOL0     C36087   1.490  10.080   1.188  1.2136 -0.8855 -0.6246
 1009MOL0     O36088   1.446  10.087   1.059  0.3095 -0.2042 -0.1854
 1009MOL0     C36089   1.458   9.980   0.965 -0.0718 -0.2608 -0.8696
 1009MOL0     C36090   1.430  10.023   0.815 -0.6074 -0.1935 -0.4120
 1009MOL0     C36091   1.491  10.157   0.779 -0.1476  0.0182  0.3998
 1009MOL0     C36092   1.461  10.207   0.628  0.1237  0.1828  0.1314
 1009MOL0     C36093   1.456  10.363   0.617  0.8906 -0.3530  0.3683
 1009MOL0     C36094   1.594  10.434   0.629  0.1478  0.0968  0.1322
 1009MOL0     C36095   1.578  10.580   0.605  0.2473  0.0517  0.1470
 1009MOL0     C36096   1.711  10.644   0.631 -1.1167  0.0489  0.3415
 1009MOL0     N36097   1.741  10.767   0.554  1.5221 -0.0835 -0.4331
 1009MOL0     C36098   1.704  10.899   0.572 -0.2050 -0.1735  0.3824
 1009MOL0     C36099   1.741  10.964   0.453 -0.5015 -0.1754  0.1343
 1009MOL0     C36100   1.728  11.115   0.436  0.5293  0.9829  0.7338
 1009MOL0     C36101   1.824  11.218   0.488  0.3367 -0.8441 -0.2556
 1009MOL0     C36102   1.826  11.353   0.410  0.3320  0.9422  0.6562
 1009MOL0     C36103   1.873  11.354   0.262 -0.1480 -0.2750  0.1012
 1009MOL0     O36104   1.856  11.493   0.210 -0.6701 -0.1530 -0.2479
 1009MOL0     C36105   1.904  11.508   0.081  0.1876 -0.2822 -0.4405
 1009MOL0     C36106   1.938  11.407  -0.003 -0.3105 -0.1123 -0.4019
 1009MOL0     C36107   1.987  11.435  -0.132  0.0296 -0.1785  0.2284
 1009MOL0     C36108   2.033  11.324  -0.219 -0.0345 -0.6083  0.0180
 1009MOL0     C36109   1.972  11.569  -0.176  0.5271  0.4586 -0.6100
 1009MOL0     C36110   2.026  11.625  -0.310 -0.6735  0.6097  0.3481
 1009MOL0     O36111   2.045  11.763  -0.309  0.1780 -0.5387 -0.9816
 1009MOL0     C36112   2.101  11.816  -0.423  0.0475 -0.6111 -0.2906
 1009MOL0     C36113   2.210  11.897  -0.425 -0.1754  0.8752 -0.6488
 1009MOL0     C36114   2.278  11.957  -0.527  0.7970 -0.1459  1.1071
 1009MOL0     C36115   2.224  11.942  -0.657  1.1855 -0.1387  0.6783
 1009MOL0     O36116   2.271  12.002  -0.769  0.4121  0.2410  0.1622
 1009MOL0     C36117   2.319  12.134  -0.743 -0.2377 -0.0827  0.5289
 1009MOL0     C36118   2.322  12.208  -0.877 -0.2133 -0.3456 -0.8029
 1009MOL0     C36119   2.398  12.334  -0.887 -0.4083  0.2910 -0.0631
 1009MOL0     C36120   2.400  12.395  -1.030  0.9184 -0.2442 -0.7754
 1009MOL0     C36121   2.430  12.305  -1.145  0.3730 -0.0703  0.2705
 1009MOL0     C36122   2.579  12.250  -1.149 -0.5088  0.6808  0.2383
 1009MOL0     C36123   2.608  12.165  -1.279  0.2049  0.2499  0.3348
 1009MOL0     C36124   2.757  12.155  -1.305 -0.6552 -0.1412 -0.0516
 1009MOL0    Cl36125   2.836  12.314  -1.339  0.0285 -0.1000 -0.5592
 1009MOL0     C36126   2.099  11.867  -0.671 -0.1066 -0.1558 -0.1744
 1009MOL0     C36127   2.045  11.801  -0.559  1.5411  0.0344 -0.5451
 1009MOL0     O36128   2.057  11.548  -0.408  0.0104 -0.5332 -0.2972
 1009MOL0     C36129   1.924  11.666  -0.091  0.3749  0.0020 -0.7347
 1009MOL0     C36130   1.890  11.639   0.037 -0.3081 -0.6832 -0.5056
 1009MOL0     N36131   1.805  10.874   0.370 -0.2572 -0.6657 -0.6783
 1009MOL0     N36132   1.803  10.756   0.432 -0.2366 -1.0566  0.0845
 1009MOL0     C36133   1.463  10.203   1.265 -0.0622 -0.2264 -0.3723
 1009MOL0     C36134   1.479  10.195   1.400 -0.5308 -0.4652 -1.3070
 1009MOL0     C36135   1.718  10.015   1.781  0.1324 -0.3646  0.2913
 1009MOL0     C36136   1.852  10.015   1.838  0.0858  0.3758 -0.6705
 1009MOL0     C36137   1.875   9.982   1.976  0.9931 -0.6906 -0.1108
 1009MOL0     C36138   1.765   9.951   2.060 -0.8241  0.6425 -0.3474
 1009MOL0     O36139   1.792   9.930   2.187 -0.5738  0.0545  0.3220
 1009MOL0     C36140   1.865   9.809   2.218 -0.5092  0.7839 -0.2028
 1009MOL0     C36141   1.958   9.808   2.342 -0.0959  0.3899 -0.8262
 1009MOL0     C36142   1.874   9.850   2.469  0.2320  0.0766 -0.0259
 1009MOL0     C36143   1.878   9.724   2.576  0.4889 -0.4184  0.3965
 1009MOL0     C36144   1.841   9.596   2.512  1.1194  0.9428 -0.2350
 1009MOL0     C36145   1.810   9.489   2.457  0.9304 -0.2828 -1.6918
 1009MOL0     C36146   1.640   9.952   2.013  0.6289  0.4331 -0.3206
 1009MOL0     C36147   1.618   9.980   1.879 -0.0978 -1.3387  0.9022
 1009MOL0     H36148   1.588   9.880   1.439  1.2982  1.7735  0.3208
 1009MOL0     H36149   1.519   9.880   1.192 -0.7402  0.8337 -0.2958
 1009MOL0     H36150   1.562   9.948   0.968  0.0518  0.1212 -1.1181
 1009MOL0     H36151   1.396   9.892   0.985  2.3005 -1.8672 -0.1201
 1009MOL0     H36152   1.467   9.942   0.751 -0.5088 -1.6097  1.3441
 1009MOL0     H36153   1.323  10.043   0.812 -0.5019  0.6370  0.7426
 1009MOL0     H36154   1.441  10.219   0.855 -2.6342 -3.1189  1.5651
 1009MOL0     H36155   1.600  10.149   0.787 -0.0938 -1.6639 -1.4337
 1009MOL0     H36156   1.531  10.170   0.552 -0.7738 -3.4064  0.8642
 1009MOL0     H36157   1.357  10.179   0.607  1.3521 -3.0650 -2.5955
 1009MOL0     H36158   1.411  10.401   0.524  1.9700  1.7252  0.6209
 1009MOL0     H36159   1.392  10.408   0.693  0.0777  3.2472 -2.1482
 1009MOL0     H36160   1.632  10.416   0.730  1.5872 -2.9466 -0.8312
 1009MOL0     H36161   1.667  10.395   0.558  1.0287 -0.3793  1.2739
 1009MOL0     H36162   1.546  10.608   0.504 -2.5899 -0.3033  0.8482
 1009MOL0     H36163   1.505  10.619   0.678 -0.1337 -0.1432 -0.1258
 1009MOL0     H36164   1.789  10.571   0.606 -1.8598  0.4400 -3.8804
 1009MOL0     H36165   1.731  10.658   0.738  2.0121  2.3032 -0.3882
 1009MOL0     H36166   1.649  10.933   0.659 -0.2756  2.2314 -0.5335
 1009MOL0     H36167   1.714  11.133   0.329  2.7293  0.5656  0.3271
 1009MOL0     H36168   1.629  11.131   0.479  1.1446  0.1455  2.5845
 1009MOL0     H36169   1.923  11.172   0.496  0.4218 -0.6899 -0.4186
 1009MOL0     H36170   1.796  11.247   0.590 -2.3072 -1.6622 -0.6847
 1009MOL0     H36171   1.900  11.413   0.464  2.8800 -1.0934 -0.3233
 1009MOL0     H36172   1.723  11.390   0.415 -0.1909 -0.0643 -1.3371
 1009MOL0     H36173   1.816  11.288   0.197  0.8708 -2.0101  0.8829
 1009MOL0     H36174   1.978  11.322   0.265 -0.0771 -0.0004  0.7166
 1009MOL0     H36175   1.934  11.301   0.020  0.0845  0.1314  0.8534
 1009MOL0     H36176   1.960  11.317  -0.301  0.9166  2.1945 -1.2113
 1009MOL0     H36177   2.128  11.345  -0.269 -0.9318  2.1108 -0.7512
 1009MOL0     H36178   2.036  11.226  -0.172 -0.7370 -1.8715 -2.3586
 1009MOL0     H36179   2.251  11.922  -0.328 -2.8815  1.2337  0.5051
 1009MOL0     H36180   2.368  12.013  -0.503  0.3070  0.7215  0.9443
 1009MOL0     H36181   2.239  12.186  -0.690  1.3061  4.9394 -1.4480
 1009MOL0     H36182   2.417  12.143  -0.695 -0.9692  0.5758  1.9590
 1009MOL0     H36183   2.357  12.139  -0.955 -2.1475 -1.6223 -0.5988
 1009MOL0     H36184   2.219  12.238  -0.896 -0.6095  3.3420  4.7479
 1009MOL0     H36185   2.506  12.328  -0.870 -0.1891  2.1711 -0.5117
 1009MOL0     H36186   2.356  12.407  -0.818 -4.5885 -0.7686 -1.2285
 1009MOL0     H36187   2.295  12.419  -1.051  0.8278  1.0537  0.9305
 1009MOL0     H36188   2.445  12.495  -1.031 -3.8338  2.2047  0.0218
 1009MOL0     H36189   2.426  12.365  -1.237  0.6858  0.7798  0.7943
 1009MOL0     H36190   2.356  12.225  -1.148  0.4091 -0.1072 -2.8971
 1009MOL0     H36191   2.657  12.325  -1.137 -0.6055  0.7764  0.2754
 1009MOL0     H36192   2.599  12.181  -1.066  1.3966  0.5932 -0.2477
 1009MOL0     H36193   2.555  12.206  -1.365 -1.8889 -2.8992 -0.0511
 1009MOL0     H36194   2.566  12.064  -1.268 -0.9599  0.6669 -0.0814
 1009MOL0     H36195   2.775  12.086  -1.388 -0.5374 -1.3167  0.9210
 1009MOL0     H36196   2.803  12.119  -1.212 -0.8319  0.6684  0.3537
 1009MOL0     H36197   2.070  11.857  -0.775  0.6321  1.4502 -0.5729
 1009MOL0     H36198   1.964  11.730  -0.574 -0.0675  1.5512  0.6360
 1009MOL0     H36199   1.909  11.771  -0.116  0.6123  0.0586 -0.6419
 1009MOL0     H36200   1.844  11.708   0.106 -0.1138 -2.6067  1.6941
 1009MOL0     H36201   1.435  10.300   1.228  2.3024  1.5611  2.0786
 1009MOL0     H36202   1.468  10.291   1.450 -0.5419 -0.2631 -1.6930
 1009MOL0     H36203   1.944  10.045   1.787  1.9709  2.7669  3.5958
 1009MOL0     H36204   1.972   9.974   2.023 -0.1513 -0.0550  2.5080
 1009MOL0     H36205   1.785   9.736   2.234  0.1361  0.0048 -0.4411
 1009MOL0     H36206   1.923   9.783   2.129 -0.6420  0.8720 -0.3142
 1009MOL0     H36207   2.028   9.889   2.322 -0.8404  0.5395 -3.1268
 1009MOL0     H36208   2.004   9.711   2.361 -0.5214 -0.2897 -3.0057
 1009MOL0     H36209   1.771   9.878   2.445  0.6112  2.3031  0.7750
 1009MOL0     H36210   1.934   9.929   2.514 -0.6307  0.1100  1.1343
 1009MOL0     H36211   1.793   9.745   2.641  0.1871  2.0870 -0.6716
 1009MOL0     H36212   1.964   9.712   2.642 -0.0720  0.6857  1.3569
 1009MOL0     H36213   1.795   9.399   2.401  0.4828 -2.3620  1.5205
 1009MOL0     H36214   1.561   9.918   2.079  0.1815 -0.7806 -1.4249
 1009MOL0     H36215   1.521   9.965   1.833  0.9854 -1.1147 -1.6493
 1010MOL0     O36216   0.269   4.341  10.873 -0.1371 -1.1867 -0.5414
 1010MOL0     C36217   0.161   4.386  10.842  0.4292  0.2355 -0.6298
 1010MOL0     O36218   0.097   4.499  10.904 -0.0640  0.4349  1.0594
 1010MOL0     C36219   0.155   4.545  11.021 -0.1237  0.7398  0.2863
 1010MOL0     C36220   0.118   4.510  11.153 -0.3409 -0.4170  1.1112
 1010MOL0     C36221   0.181   4.554  11.268 -0.2368  0.2368  0.3753
 1010MOL0     C36222   0.279   4.654  11.255  0.4346 -0.3082 -0.7622
 1010MOL0     O36223   0.321   4.706  11.378  0.0381 -0.5061 -0.1812
 1010MOL0     C36224   0.410   4.820  11.375  0.4047  0.4808  0.1411
 1010MOL0     C36225   0.439   4.873  11.517 -0.3893 -0.0804 -0.0730
 1010MOL0     C36226   0.571   4.977  11.509  0.4362  0.6131  0.1796
 1010MOL0     C36227   0.698   4.932  11.431  0.4845  0.7203 -1.1300
 1010MOL0     C36228   0.760   4.804  11.482 -0.1862  0.2927 -0.5361
 1010MOL0     C36229   0.879   4.752  11.394  0.1060 -0.4836 -1.0108
 1010MOL0     C36230   1.010   4.828  11.430  0.3006 -0.2038 -0.6904
 1010MOL0     C36231   1.036   4.958  11.356  0.0956  0.1530  0.2027
 1010MOL0     N36232   1.169   5.014  11.393  0.3283 -0.7790  0.0390
 1010MOL0     C36233   1.283   4.976  11.324  0.2174 -0.0161  0.1954
 1010MOL0     C36234   1.384   5.063  11.362 -0.0735  0.0288 -0.5950
 1010MOL0     C36235   1.534   5.050  11.346 -0.7142  0.3092 -0.2367
 1010MOL0     C36236   1.591   4.925  11.424 -0.2228 -0.5237  0.2983
 1010MOL0     C36237   1.564   4.922  11.573 -0.6474  0.0579 -0.5098
 1010MOL0     C36238   1.646   5.023  11.648  0.0818 -0.1610 -0.4428
 1010MOL0     O36239   1.779   4.976  11.653 -0.4027 -0.1712 -0.0665
 1010MOL0     C36240   1.869   5.030  11.744 -0.8803 -0.0332 -0.5785
 1010MOL0     C36241   1.849   5.127  11.843  0.5312 -0.2379  0.4742
 1010MOL0     C36242   1.951   5.204  11.906  0.7036  0.2375 -0.0111
 1010MOL0     C36243   1.912   5.326  11.992  0.2203 -0.2256 -0.1793
 1010MOL0     C36244   2.091   5.161  11.874  0.0745 -0.8194 -0.5910
 1010MOL0     C36245   2.191   5.222  11.952  0.4003  0.5421  0.1662
 1010MOL0     O36246   2.260   5.327  11.899 -0.0730 -0.4262 -0.0784
 1010MOL0     C36247   2.322   5.404  11.988 -0.6930  0.3967  0.2550
 1010MOL0     C36248   2.461   5.390  11.998  0.6067  0.6791 -0.3454
 1010MOL0     C36249   2.526   5.481  12.081 -0.2713 -0.4284 -0.3570
 1010MOL0     C36250   2.461   5.586  12.147 -0.5576  0.5360  0.3505
 1010MOL0     O36251   2.544   5.650  12.233  0.1245  0.0244  0.0229
 1010MOL0     C36252   2.549   5.793  12.229  0.5259 -0.5265 -0.4998
 1010MOL0     C36253   2.693   5.851  12.234 -0.0287 -0.7366 -0.4266
 1010MOL0     C36254   2.693   6.012  12.223  0.4949 -0.6662  0.7682
 1010MOL0     C36255   2.838   6.067  12.220 -0.8231 -0.1136 -0.5670
 1010MOL0     C36256   2.868   6.207  12.153  0.7090 -0.2043  0.0829
 1010MOL0     C36257   2.768   6.315  12.203  0.6727 -1.3202  0.3307
 1010MOL0     C36258   2.781   6.357  12.355  0.5521  0.1573 -0.0235
 1010MOL0     C36259   2.713   6.490  12.381  0.3219 -0.4233 -0.3325
 1010MOL0    Cl36260   2.723   6.528  12.556 -0.2412  0.3482  0.9543
 1010MOL0     C36261   2.321   5.599  12.139 -0.2097 -0.1593 -0.1259
 1010MOL0     C36262   2.253   5.509  12.062  0.2114 -0.3582  0.2694
 1010MOL0     O36263   2.219   5.163  12.060  1.0041  0.7502  1.3002
 1010MOL0     C36264   2.097   5.046  11.802 -0.3130 -0.6259 -0.0520
 1010MOL0     C36265   1.988   4.989  11.728 -0.3471 -0.1111  0.2690
 1010MOL0     N36266   1.317   5.157  11.443  0.9915 -0.2683 -0.2393
 1010MOL0     N36267   1.188   5.129  11.459 -0.7402 -0.7172  0.3872
 1010MOL0     C36268   0.326   4.690  11.131 -0.4815 -0.6306  0.2458
 1010MOL0     C36269   0.260   4.642  11.024  0.2434  1.1238  0.1272
 1010MOL0     C36270   0.091   4.334  10.729  0.2152  0.4607  0.4534
 1010MOL0     C36271  -0.033   4.369  10.691 -0.2630  0.3193  1.3977
 1010MOL0     C36272  -0.108   4.303  10.594  0.5823  0.5436 -0.4892
 1010MOL0     C36273  -0.051   4.192  10.516  0.8434  0.2343 -0.2316
 1010MOL0     O36274  -0.127   4.131  10.418 -0.2734 -0.0494  0.4003
 1010MOL0     C36275  -0.186   4.224  10.328 -0.0007  0.9515  0.4341
 1010MOL0     C36276  -0.208   4.139  10.206 -0.1383 -0.4667 -0.0218
 1010MOL0     C36277  -0.343   4.059  10.208 -0.0016 -0.2963 -0.0008
 1010MOL0     C36278  -0.363   4.000  10.073  0.1851  0.2916 -0.1866
 1010MOL0     C36279  -0.397   4.096   9.968 -0.0105 -0.0458  0.4039
 1010MOL0     C36280  -0.428   4.176   9.882 -0.9029  0.2775  0.5258
 1010MOL0     C36281   0.084   4.162  10.538 -0.1584  0.2420 -0.2568
 1010MOL0     C36282   0.150   4.230  10.648 -1.1200  1.0895  0.6874
 1010MOL0     H36283   0.037   4.438  11.153  0.0147 -0.8395  2.3707
 1010MOL0     H36284   0.153   4.527  11.370 -0.8237 -2.9198 -0.5053
 1010MOL0     H36285   0.505   4.781  11.339  2.0058  2.3087  2.1017
 1010MOL0     H36286   0.376   4.897  11.305 -1.1164 -2.8170 -3.0475
 1010MOL0     H36287   0.353   4.917  11.568  0.0265  1.0126 -0.2762
 1010MOL0     H36288   0.473   4.780  11.564  3.2617 -0.0727 -2.2676
 1010MOL0     H36289   0.546   5.077  11.473  1.0876  0.1088 -1.8219
 1010MOL0     H36290   0.606   4.994  11.611  2.1397  0.3816 -0.3356
 1010MOL0     H36291   0.670   4.940  11.326  0.0134  3.8627 -0.8375
 1010MOL0     H36292   0.767   5.014  11.453 -0.9299  1.7101 -0.2446
 1010MOL0     H36293   0.799   4.821  11.582 -0.4545 -1.6898 -0.0473
 1010MOL0     H36294   0.688   4.722  11.496  0.2086  0.2029  1.1104
 1010MOL0     H36295   0.900   4.655  11.439 -1.9779  0.5053  2.4638
 1010MOL0     H36296   0.853   4.746  11.288 -0.4851  0.5887 -0.9411
 1010MOL0     H36297   1.024   4.854  11.535 -1.0415 -2.2556  0.0705
 1010MOL0     H36298   1.089   4.757  11.403 -0.3329 -1.2277  0.0508
 1010MOL0     H36299   0.954   5.027  11.378  0.4020  0.1018  1.6045
 1010MOL0     H36300   1.038   4.940  11.248 -1.6272  0.1310  0.1587
 1010MOL0     H36301   1.284   4.889  11.259 -0.6757 -1.5008  2.0708
 1010MOL0     H36302   1.561   5.039  11.240 -1.3674 -0.9081 -0.2969
 1010MOL0     H36303   1.578   5.142  11.386 -2.1698 -0.5969  3.9468
 1010MOL0     H36304   1.698   4.931  11.399 -0.2021  1.4384  0.6471
 1010MOL0     H36305   1.563   4.828  11.384 -0.6482 -0.2251 -0.1348
 1010MOL0     H36306   1.588   4.821  11.610 -1.4091 -1.1880 -3.1632
 1010MOL0     H36307   1.458   4.945  11.587 -0.1277  1.5306  1.4382
 1010MOL0     H36308   1.603   5.038  11.748 -0.3699  1.1424 -0.8176
 1010MOL0     H36309   1.637   5.122  11.604 -0.5310 -1.2903 -3.0676
 1010MOL0     H36310   1.744   5.147  11.864  0.2295  0.0921 -1.2154
 1010MOL0     H36311   1.803   5.335  11.989  0.1374 -0.4197 -4.2153
 1010MOL0     H36312   1.957   5.310  12.090  2.4743  2.7180 -0.5979
 1010MOL0     H36313   1.962   5.412  11.947  0.9727 -1.3694 -1.6221
 1010MOL0     H36314   2.509   5.323  11.928 -2.2928 -1.0654 -0.8194
 1010MOL0     H36315   2.635   5.479  12.079 -0.1876 -3.6658 -3.6186
 1010MOL0     H36316   2.506   5.816  12.131 -5.0188 -5.6733  0.1621
 1010MOL0     H36317   2.496   5.838  12.313  1.4630  0.0203 -0.1921
 1010MOL0     H36318   2.740   5.808  12.323  0.6888 -5.0708 -2.6566
 1010MOL0     H36319   2.741   5.805  12.148 -2.0148 -1.7439 -1.0536
 1010MOL0     H36320   2.640   6.064  12.304 -1.0717 -2.3900  0.9251
 1010MOL0     H36321   2.634   6.048  12.138  2.0434 -2.3660 -1.1101
 1010MOL0     H36322   2.860   6.081  12.327 -1.8992 -0.1736 -0.3290
 1010MOL0     H36323   2.916   6.010  12.170  1.4533  1.0609  1.3992
 1010MOL0     H36324   2.849   6.193  12.046 -0.2063 -0.6056  0.2826
 1010MOL0     H36325   2.971   6.242  12.162  1.3807 -0.9605 -3.3461
 1010MOL0     H36326   2.802   6.407  12.153  0.6696 -1.9301 -0.8252
 1010MOL0     H36327   2.670   6.286  12.167  1.2150  0.6056 -3.1968
 1010MOL0     H36328   2.889   6.360  12.373  0.7871  2.9088 -1.4085
 1010MOL0     H36329   2.729   6.291  12.425  1.6277 -1.4248 -0.6496
 1010MOL0     H36330   2.611   6.478  12.343 -0.2077 -2.7200  1.5844
 1010MOL0     H36331   2.765   6.574  12.334  1.1949 -1.1118 -0.6250
 1010MOL0     H36332   2.277   5.679  12.199 -1.2396  1.4697 -2.8810
 1010MOL0     H36333   2.145   5.512  12.047  0.0838 -3.2420  0.1025
 1010MOL0     H36334   2.198   5.018  11.774  0.6211  3.8884 -2.1114
 1010MOL0     H36335   2.015   4.906  11.662 -0.4392 -0.2648  0.4234
 1010MOL0     H36336   0.405   4.759  11.100 -1.7405 -0.7151 -3.6750
 1010MOL0     H36337   0.308   4.652  10.927 -0.9335 -1.2090 -0.7882
 1010MOL0     H36338  -0.091   4.437  10.754  1.4564  2.0942  1.1764
 1010MOL0     H36339  -0.206   4.340  10.566 -0.0812 -0.3432  0.5621
 1010MOL0     H36340  -0.287   4.257  10.353 -0.8426 -0.4642 -0.9673
 1010MOL0     H36341  -0.125   4.312  10.302  1.0223  0.1680  0.0926
 1010MOL0     H36342  -0.113   4.087  10.195  0.4700  0.4039  0.9725
 1010MOL0     H36343  -0.218   4.213  10.126  2.5122 -0.9181 -0.8638
 1010MOL0     H36344  -0.428   4.128  10.216  1.1616  1.1519  0.2596
 1010MOL0     H36345  -0.337   3.978  10.281 -0.2189 -1.6630 -1.4666
 1010MOL0     H36346  -0.445   3.930  10.089 -0.6075  1.7023  2.5982
 1010MOL0     H36347  -0.272   3.951  10.038 -0.0201 -0.5481  0.4309
 1010MOL0     H36348  -0.467   4.259   9.826  1.0812 -0.2179 -1.7411
 1010MOL0     H36349   0.135   4.089  10.477  2.5188  2.9266 -1.4531
 1010MOL0     H36350   0.257   4.223  10.665 -0.6559  3.9988 -0.4620
 1011MOL0     O36351   2.012   8.350  10.476 -0.3703 -0.0997 -0.2123
 1011MOL0     C36352   2.008   8.228  10.474 -0.5914  0.1282  0.4559
 1011MOL0     O36353   1.908   8.154  10.415 -0.7083 -0.5368 -0.4572
 1011MOL0     C36354   1.816   8.222  10.339 -0.3126  0.2087  0.9335
 1011MOL0     C36355   1.826   8.225  10.194  0.0700 -0.2207  0.1218
 1011MOL0     C36356   1.723   8.286  10.115 -1.1597 -1.1121  0.2005
 1011MOL0     C36357   1.611   8.349  10.167 -0.8627 -0.8633  0.2134
 1011MOL0     O36358   1.508   8.418  10.107 -0.6846 -0.0408 -0.2810
 1011MOL0     C36359   1.503   8.439   9.963 -0.6260 -0.0307  0.1595
 1011MOL0     C36360   1.364   8.464   9.901 -0.4230 -0.8260  1.0659
 1011MOL0     C36361   1.354   8.518   9.759 -0.6956 -0.2623  0.4585
 1011MOL0     C36362   1.214   8.563   9.723  0.4324  0.0389 -0.4231
 1011MOL0     C36363   1.139   8.493   9.606 -0.3182 -0.5491  0.9592
 1011MOL0     C36364   1.087   8.357   9.646 -0.5680 -0.8160  0.7428
 1011MOL0     C36365   1.119   8.269   9.522  0.2629 -0.3717  0.2725
 1011MOL0     C36366   1.070   8.128   9.537 -0.3253  0.4877 -0.2187
 1011MOL0     N36367   1.145   8.048   9.636  0.0390  0.0237 -1.0084
 1011MOL0     C36368   1.267   7.980   9.614  0.5072 -0.2837 -0.4463
 1011MOL0     C36369   1.300   7.953   9.745 -0.5905  0.8970 -0.1695
 1011MOL0     C36370   1.428   7.903   9.792 -0.5355 -0.0417 -0.4644
 1011MOL0     C36371   1.515   8.029   9.812  0.4743  0.4896 -0.2649
 1011MOL0     C36372   1.665   8.010   9.834 -0.7760  0.4021  0.7366
 1011MOL0     C36373   1.709   7.876   9.896 -0.7377 -0.0813 -0.9409
 1011MOL0     O36374   1.846   7.883   9.927  0.8146 -0.1037  0.0369
 1011MOL0     C36375   1.915   7.782   9.991  0.7061  0.6495  1.3232
 1011MOL0     C36376   2.050   7.809  10.013  0.4513 -0.2301 -0.8819
 1011MOL0     C36377   2.122   7.719  10.093 -0.2097 -0.0565 -0.5539
 1011MOL0     C36378   2.245   7.768  10.170 -0.1641  0.2250 -0.3201
 1011MOL0     C36379   2.067   7.587  10.115 -0.4378  0.4777 -1.1657
 1011MOL0     C36380   2.135   7.482  10.197  0.3214 -0.3025  0.2796
 1011MOL0     O36381   2.094   7.350  10.169 -0.2308 -0.2453  0.4659
 1011MOL0     C36382   2.110   7.239  10.254  0.5334 -0.1082  0.7470
 1011MOL0     C36383   2.136   7.233  10.387 -0.1863 -0.4604 -0.3849
 1011MOL0     C36384   2.175   7.103  10.439  0.4094 -0.4612 -0.7626
 1011MOL0     C36385   2.165   6.983  10.371 -0.0292  0.1635  0.9105
 1011MOL0     O36386   2.176   6.860  10.430  0.2501  0.1723  0.3447
 1011MOL0     C36387   2.222   6.750  10.348 -0.2565 -0.6313 -0.0177
 1011MOL0     C36388   2.288   6.642  10.444 -1.1039 -0.6500 -0.9023
 1011MOL0     C36389   2.191   6.591  10.553 -0.0565 -0.2173  0.7503
 1011MOL0     C36390   2.243   6.477  10.641  0.0733  0.2240 -0.1807
 1011MOL0     C36391   2.134   6.429  10.740 -0.4743  0.3438  0.1696
 1011MOL0     C36392   2.181   6.305  10.826  0.1889  0.2781  0.0529
 1011MOL0     C36393   2.297   6.328  10.916 -0.3357  0.3418  0.3209
 1011MOL0     C36394   2.294   6.245  11.040  0.1364 -0.4065 -0.9251
 1011MOL0    Cl36395   2.435   6.267  11.122 -0.2237 -0.1405  0.0333
 1011MOL0     C36396   2.140   6.995  10.231 -0.2750 -0.4714 -0.2065
 1011MOL0     C36397   2.108   7.119  10.176 -1.0615 -0.2040 -0.4121
 1011MOL0     O36398   2.191   7.518  10.294 -0.8282  0.4899  0.3529
 1011MOL0     C36399   1.935   7.560  10.081  0.7601 -0.1231  0.2101
 1011MOL0     C36400   1.859   7.660  10.019  0.0290 -0.4441 -0.7508
 1011MOL0     N36401   1.198   7.989   9.831 -0.3990 -1.1196 -0.3953
 1011MOL0     N36402   1.112   8.049   9.771 -0.3078  0.8676 -0.1360
 1011MOL0     C36403   1.608   8.356  10.310 -0.4978 -0.2105  0.3711
 1011MOL0     C36404   1.709   8.297  10.390 -0.8765  0.7907 -0.8950
 1011MOL0     C36405   2.121   8.156  10.536  0.1876  0.4287  0.2954
 1011MOL0     C36406   2.229   8.230  10.591  0.2024 -0.3108  0.1772
 1011MOL0     C36407   2.331   8.170  10.652  0.1332  0.0958  0.3564
 1011MOL0     C36408   2.331   8.034  10.674 -0.5716  0.2648 -0.2799
 1011MOL0     O36409   2.432   7.977  10.742  0.1877  0.0289  0.1792
 1011MOL0     C36410   2.559   7.968  10.670  0.4621  0.2874  0.4248
 1011MOL0     C36411   2.594   7.822  10.674  0.7056 -1.4837 -0.3869
 1011MOL0     C36412   2.576   7.753  10.810  0.5433 -0.6575  0.1174
 1011MOL0     C36413   2.676   7.630  10.823  1.0964 -0.3981 -0.5715
 1011MOL0     C36414   2.655   7.533  10.710 -0.0982 -0.1173  0.3455
 1011MOL0     C36415   2.610   7.443  10.636 -0.3747 -0.5404  0.2715
 1011MOL0     C36416   2.244   7.954  10.611 -0.3016 -0.4523 -0.2457
 1011MOL0     C36417   2.138   8.008  10.537  0.0885  0.2840 -0.6174
 1011MOL0     H36418   1.902   8.159  10.153  1.4183 -1.2315  3.9061
 1011MOL0     H36419   1.735   8.263  10.010  2.3814 -1.2452  0.5288
 1011MOL0     H36420   1.556   8.534   9.951 -0.1096 -0.6461 -3.0882
 1011MOL0     H36421   1.555   8.361   9.908 -2.5794 -0.7463 -0.7631
 1011MOL0     H36422   1.317   8.366   9.902  0.0878 -1.1022  2.8984
 1011MOL0     H36423   1.310   8.531   9.970 -1.0755 -2.1209  1.8406
 1011MOL0     H36424   1.409   8.612   9.751 -0.5147 -0.4528 -0.6819
 1011MOL0     H36425   1.393   8.445   9.689  0.1313 -0.2951  0.9463
 1011MOL0     H36426   1.148   8.565   9.810  2.2789  2.5649  1.0357
 1011MOL0     H36427   1.216   8.668   9.694  0.7626  0.5240  1.2579
 1011MOL0     H36428   1.055   8.550   9.564  0.0434  1.0621  2.2875
 1011MOL0     H36429   1.211   8.489   9.524 -3.4085  1.8137 -2.1768
 1011MOL0     H36430   1.155   8.317   9.722  0.8475  1.1775  0.6214
 1011MOL0     H36431   0.988   8.342   9.691 -0.8238 -0.7302  0.2142
 1011MOL0     H36432   1.055   8.301   9.439 -0.0389  1.6085  1.2174
 1011MOL0     H36433   1.226   8.266   9.498  0.4460  1.6072  0.6889
 1011MOL0     H36434   1.072   8.065   9.448 -2.2352  1.8514 -1.2825
 1011MOL0     H36435   0.964   8.141   9.560 -0.0467  3.4677 -0.2862
 1011MOL0     H36436   1.335   7.959   9.532  0.4298 -0.1327 -0.5489
 1011MOL0     H36437   1.416   7.866   9.894  0.2114  0.7994 -0.0557
 1011MOL0     H36438   1.466   7.821   9.731  0.7236 -1.5998  2.2230
 1011MOL0     H36439   1.479   8.077   9.903 -0.4307  0.1087 -0.4149
 1011MOL0     H36440   1.499   8.105   9.735 -1.8534 -1.8187 -2.2662
 1011MOL0     H36441   1.696   8.095   9.894 -1.0275  1.6959 -0.8864
 1011MOL0     H36442   1.718   8.009   9.739  0.8872 -1.2109  1.6283
 1011MOL0     H36443   1.696   7.793   9.825 -0.1756  0.0332 -1.1760
 1011MOL0     H36444   1.650   7.867   9.988 -0.6878  1.4409 -0.7440
 1011MOL0     H36445   2.087   7.902   9.971  3.5977 -1.3965 -0.9472
 1011MOL0     H36446   2.321   7.690  10.178  0.1106  0.6364  1.5257
 1011MOL0     H36447   2.285   7.856  10.118 -4.0668  0.7881 -2.7060
 1011MOL0     H36448   2.219   7.792  10.273  0.8546 -0.8541  0.1997
 1011MOL0     H36449   2.153   7.325  10.441 -3.9676 -1.9123  3.8802
 1011MOL0     H36450   2.204   7.108  10.543 -2.0008 -2.2030  0.0828
 1011MOL0     H36451   2.135   6.714  10.293  0.0097 -0.3061 -0.6668
 1011MOL0     H36452   2.294   6.787  10.274  0.7894  2.1671  2.1719
 1011MOL0     H36453   2.336   6.553  10.402 -0.6585 -2.1113  2.4154
 1011MOL0     H36454   2.372   6.688  10.497  0.1378 -1.7392 -1.8510
 1011MOL0     H36455   2.100   6.546  10.511  0.2448  0.0058 -0.1575
 1011MOL0     H36456   2.154   6.671  10.618  3.1998  0.4163  2.0209
 1011MOL0     H36457   2.288   6.404  10.572  1.6483  2.0256 -1.1714
 1011MOL0     H36458   2.327   6.519  10.697 -0.1655  1.0014 -0.3870
 1011MOL0     H36459   2.050   6.405  10.674  2.0421  0.0389 -3.2044
 1011MOL0     H36460   2.094   6.508  10.805 -0.0177 -2.2682  3.9626
 1011MOL0     H36461   2.101   6.276  10.894  0.7643  0.0049  0.6246
 1011MOL0     H36462   2.191   6.219  10.758  2.6160 -0.1515  0.8473
 1011MOL0     H36463   2.298   6.435  10.939  6.1429  1.2744 -2.2641
 1011MOL0     H36464   2.397   6.302  10.879  1.6225  1.5245  4.1414
 1011MOL0     H36465   2.277   6.139  11.017  1.4920 -0.5541 -1.3443
 1011MOL0     H36466   2.214   6.285  11.103 -1.0935 -0.9477 -2.0908
 1011MOL0     H36467   2.148   6.910  10.163  1.6532 -0.8747  0.4573
 1011MOL0     H36468   2.082   7.118  10.071  0.9423  1.2699 -0.9876
 1011MOL0     H36469   1.886   7.464  10.095 -0.8600  0.4658 -1.0658
 1011MOL0     H36470   1.757   7.636   9.992  0.0356 -1.8014  0.3336
 1011MOL0     H36471   1.529   8.408  10.363 -3.1233 -2.6630 -0.8742
 1011MOL0     H36472   1.708   8.301  10.499  0.0572 -0.9740 -0.7813
 1011MOL0     H36473   2.236   8.338  10.579 -0.5154 -0.4078 -1.3023
 1011MOL0     H36474   2.396   8.237  10.708  0.5133 -0.1386  0.1980
 1011MOL0     H36475   2.561   8.014  10.571 -0.2698  0.2786  0.3977
 1011MOL0     H36476   2.640   8.012  10.729 -1.2917  0.6600  2.6684
 1011MOL0     H36477   2.697   7.811  10.639 -0.1342  0.3058 -3.9429
 1011MOL0     H36478   2.519   7.771  10.612 -4.1577 -0.1868  3.7714
 1011MOL0     H36479   2.469   7.732  10.816  0.8610 -1.9694  1.8974
 1011MOL0     H36480   2.608   7.818  10.892  0.7103  2.5119 -2.2787
 1011MOL0     H36481   2.649   7.576  10.914  0.7238 -0.5483 -0.7690
 1011MOL0     H36482   2.776   7.675  10.826 -0.4510  3.4091 -1.2744
 1011MOL0     H36483   2.565   7.370  10.572 -1.9455  2.0915 -1.8213
 1011MOL0     H36484   2.269   7.848  10.612 -0.0485 -0.3933 -0.2866
 1011MOL0     H36485   2.073   7.929  10.499  0.2543  0.2818 -0.8987
 1012MOL0     O36486  11.342   6.030   6.195  0.4784  0.2587  1.1623
 1012MOL0     C36487  11.300   5.923   6.149 -0.2002 -0.4231  0.1082
 1012MOL0     O36488  11.200   5.842   6.204  0.3192  1.1655  0.4832
 1012MOL0     C36489  11.132   5.858   6.316 -0.1791  0.0487 -0.3367
 1012MOL0     C36490  11.074   5.988   6.340 -1.2863 -0.4217 -0.5431
 1012MOL0     C36491  10.999   6.010   6.452 -0.3918  0.5168  0.0130
 1012MOL0     C36492  10.987   5.906   6.548  0.0339  0.4438  0.9626
 1012MOL0     O36493  10.910   5.924   6.658  0.3252 -0.4355  0.1929
 1012MOL0     C36494  10.972   5.890   6.776 -0.1984  0.3394 -0.3309
 1012MOL0     C36495  10.927   5.989   6.878 -0.4941  1.0233 -0.9833
 1012MOL0     C36496  11.004   6.119   6.858  0.0990  0.4705 -0.2825
 1012MOL0     C36497  10.948   6.246   6.922 -0.0425 -0.0439 -0.3769
 1012MOL0     C36498  10.982   6.377   6.860  0.1791  0.2142 -0.3507
 1012MOL0     C36499  10.874   6.405   6.754 -0.0685 -0.2706  1.0097
 1012MOL0     C36500  10.894   6.551   6.703 -0.3953  0.0644  0.6799
 1012MOL0     C36501  10.796   6.591   6.595 -1.6552 -0.1270  0.2617
 1012MOL0     N36502  10.720   6.713   6.617 -0.0745  0.2453 -0.5241
 1012MOL0     C36503  10.597   6.733   6.677 -0.1808 -0.1406 -0.1784
 1012MOL0     C36504  10.580   6.866   6.691  0.3920 -0.2029 -0.0092
 1012MOL0     C36505  10.476   6.955   6.757 -0.0666 -0.1197  0.1007
 1012MOL0     C36506  10.362   6.997   6.668  0.0091 -0.3154  0.6260
 1012MOL0     C36507  10.271   6.874   6.656 -0.4965  0.2718 -0.8989
 1012MOL0     C36508  10.177   6.895   6.546  0.6366  0.6379 -0.2611
 1012MOL0     O36509  10.079   6.795   6.567 -0.3261  0.2998  0.2047
 1012MOL0     C36510   9.997   6.773   6.461  0.3066 -0.6865  0.6936
 1012MOL0     C36511   9.932   6.877   6.395  0.2637  0.1830 -0.0614
 1012MOL0     C36512   9.841   6.864   6.293 -0.4307  0.5889  0.6489
 1012MOL0     C36513   9.758   6.985   6.238 -0.0433  0.1682 -0.5615
 1012MOL0     C36514   9.834   6.736   6.231 -0.4673  0.8132 -0.6198
 1012MOL0     C36515   9.761   6.696   6.108 -0.2994 -1.4191  0.1634
 1012MOL0     O36516   9.786   6.775   5.993 -0.2249 -0.5505  0.1035
 1012MOL0     C36517   9.692   6.768   5.899  0.4045  0.1303 -0.4303
 1012MOL0     C36518   9.681   6.646   5.835  0.0689  0.5261  0.4459
 1012MOL0     C36519   9.588   6.639   5.729 -0.0581 -0.4689 -0.7564
 1012MOL0     C36520   9.507   6.747   5.685  0.2939 -0.4019 -0.1780
 1012MOL0     O36521   9.401   6.723   5.603 -0.4538 -0.4528  0.1969
 1012MOL0     C36522   9.271   6.771   5.658 -0.8183  0.1323 -0.1108
 1012MOL0     C36523   9.159   6.685   5.596 -0.8997 -0.0677  0.3923
 1012MOL0     C36524   9.132   6.685   5.448 -0.5265 -0.9154 -0.6727
 1012MOL0     C36525   9.045   6.570   5.409 -0.2724  0.2264  0.4159
 1012MOL0     C36526   9.129   6.449   5.380 -0.3939  0.1112 -0.8261
 1012MOL0     C36527   9.039   6.329   5.338  0.3110 -0.0484  0.8547
 1012MOL0     C36528   9.135   6.208   5.346 -0.1521 -0.7034 -0.0959
 1012MOL0     C36529   9.064   6.081   5.291  0.7729  0.5708 -0.0051
 1012MOL0    Cl36530   8.890   6.070   5.354 -0.1809  0.3374  0.6693
 1012MOL0     C36531   9.530   6.869   5.750 -0.7913 -1.0630 -0.4874
 1012MOL0     C36532   9.621   6.876   5.859  0.3572 -1.2017  0.3276
 1012MOL0     O36533   9.688   6.600   6.117 -0.6047 -0.0387  0.1009
 1012MOL0     C36534   9.890   6.624   6.291  0.5422  0.1644  1.0435
 1012MOL0     C36535   9.975   6.648   6.408  0.7694  0.0316  0.4003
 1012MOL0     N36536  10.696   6.925   6.624 -0.5943  0.3016  0.7854
 1012MOL0     N36537  10.770   6.835   6.566  1.0948  0.3087 -0.2423
 1012MOL0     C36538  11.051   5.784   6.529  0.3090 -1.3782  0.4914
 1012MOL0     C36539  11.127   5.763   6.415  0.3106 -0.1736 -0.0119
 1012MOL0     C36540  11.359   5.880   6.017  0.3033 -0.2582  0.3269
 1012MOL0     C36541  11.479   5.940   5.968 -0.3357  0.3683  0.2411
 1012MOL0     C36542  11.545   5.884   5.857  0.5407  0.1104 -0.8696
 1012MOL0     C36543  11.482   5.777   5.783 -0.3174 -0.0985 -0.0665
 1012MOL0     O36544  11.557   5.739   5.678 -0.1581  0.7485  0.7892
 1012MOL0     C36545  11.520   5.611   5.615 -0.3296 -0.5661 -1.0627
 1012MOL0     C36546  11.588   5.591   5.485  0.3211 -0.6117  0.4803
 1012MOL0     C36547  11.547   5.690   5.379 -0.2118  0.0414 -0.5548
 1012MOL0     C36548  11.604   5.656   5.244 -0.4450  0.0230 -0.0945
 1012MOL0     C36549  11.747   5.650   5.247  0.1764  0.6455  0.4798
 1012MOL0     C36550  11.857   5.670   5.273 -1.0244  0.8434  0.3016
 1012MOL0     C36551  11.350   5.722   5.825 -1.1026  0.4755  0.0234
 1012MOL0     C36552  11.297   5.770   5.952 -0.0120  0.6313 -0.1660
 1012MOL0     H36553  11.086   6.054   6.255  1.2148 -1.5932 -1.1954
 1012MOL0     H36554  10.948   6.103   6.470  1.1124  1.0723  1.8566
 1012MOL0     H36555  10.935   5.794   6.811 -0.8570 -0.3064 -2.6376
 1012MOL0     H36556  11.081   5.881   6.779 -0.2483 -1.0937  3.8349
 1012MOL0     H36557  10.819   5.990   6.888 -0.3412 -1.0418  2.7804
 1012MOL0     H36558  10.949   5.947   6.977  0.0124  0.7100 -1.2270
 1012MOL0     H36559  11.101   6.097   6.904 -0.6585  2.3109  2.4931
 1012MOL0     H36560  11.003   6.140   6.751  0.1653  1.8511 -0.0296
 1012MOL0     H36561  10.840   6.229   6.937 -0.0375  0.7402  0.6788
 1012MOL0     H36562  10.998   6.246   7.019  3.0630 -2.1559 -1.8498
 1012MOL0     H36563  10.979   6.461   6.929 -1.8265  1.7954 -2.2236
 1012MOL0     H36564  11.081   6.370   6.813  0.3201 -2.1348  0.1843
 1012MOL0     H36565  10.868   6.334   6.670  2.4184 -0.4868  0.9415
 1012MOL0     H36566  10.775   6.407   6.801 -1.8120  1.8303 -2.3780
 1012MOL0     H36567  10.883   6.626   6.782 -0.8013  0.0921  0.6026
 1012MOL0     H36568  10.994   6.557   6.662 -0.2785 -3.5874  0.0518
 1012MOL0     H36569  10.722   6.511   6.587 -2.2123  0.4777 -0.8428
 1012MOL0     H36570  10.863   6.595   6.508 -0.2740 -2.5117  1.1376
 1012MOL0     H36571  10.532   6.663   6.728  1.5422  0.1212  2.6297
 1012MOL0     H36572  10.428   6.909   6.844 -0.1344 -2.6145 -1.1899
 1012MOL0     H36573  10.526   7.044   6.798 -0.7748 -0.4590  1.8076
 1012MOL0     H36574  10.409   7.006   6.570 -1.6844  2.2629 -0.0446
 1012MOL0     H36575  10.306   7.086   6.700  0.8387 -0.2180  1.8819
 1012MOL0     H36576  10.230   6.862   6.757  2.2795  3.9144  0.9065
 1012MOL0     H36577  10.327   6.786   6.627  0.3312  0.2206  0.7397
 1012MOL0     H36578  10.227   6.875   6.451  1.2135 -0.9467  0.3501
 1012MOL0     H36579  10.137   6.997   6.549 -0.0336  0.3574  0.9350
 1012MOL0     H36580   9.948   6.976   6.435 -1.4637  0.2168  0.6487
 1012MOL0     H36581   9.657   6.950   6.214 -1.1694  3.1263 -0.5465
 1012MOL0     H36582   9.758   7.067   6.311  1.4932  0.0584 -0.4149
 1012MOL0     H36583   9.808   7.024   6.149  1.7524 -0.1683  0.2600
 1012MOL0     H36584   9.743   6.561   5.862 -0.5281 -0.9232 -2.4023
 1012MOL0     H36585   9.584   6.538   5.689 -2.6360 -1.7885  2.3802
 1012MOL0     H36586   9.271   6.771   5.768  0.2748  3.8704  0.0180
 1012MOL0     H36587   9.254   6.876   5.635 -1.1245  0.8298  2.8754
 1012MOL0     H36588   9.162   6.580   5.625 -0.6648  0.1000  1.0061
 1012MOL0     H36589   9.066   6.710   5.649  0.0271 -0.1032  2.1182
 1012MOL0     H36590   9.210   6.713   5.376 -1.7971  0.5138 -1.5329
 1012MOL0     H36591   9.059   6.765   5.438 -0.7845 -0.9619  0.7155
 1012MOL0     H36592   8.970   6.556   5.487  1.6618 -1.3342  2.0983
 1012MOL0     H36593   8.998   6.599   5.314  0.8369 -2.1407 -0.9509
 1012MOL0     H36594   9.170   6.427   5.479 -3.1113 -0.2918  0.2874
 1012MOL0     H36595   9.218   6.473   5.322  1.0377 -0.0106  1.2183
 1012MOL0     H36596   8.952   6.321   5.404  0.6067  1.7079  1.5044
 1012MOL0     H36597   9.002   6.339   5.236  1.2289 -1.1906  0.3919
 1012MOL0     H36598   9.171   6.188   5.447  1.3230  1.3904 -0.1642
 1012MOL0     H36599   9.224   6.222   5.283 -0.9617 -2.5711 -1.8133
 1012MOL0     H36600   9.112   5.988   5.322  3.3478  2.1780  1.1859
 1012MOL0     H36601   9.072   6.071   5.183  1.8149 -1.1815  0.1957
 1012MOL0     H36602   9.476   6.959   5.721  0.1526 -0.0694  0.7143
 1012MOL0     H36603   9.648   6.974   5.899  2.5803 -1.7592  0.3527
 1012MOL0     H36604   9.887   6.525   6.245  1.8400  0.1640  0.9133
 1012MOL0     H36605  10.018   6.558   6.451 -1.3905 -1.3567 -0.2098
 1012MOL0     H36606  11.034   5.705   6.601  1.0430 -1.0243  1.0598
 1012MOL0     H36607  11.178   5.668   6.405  1.0251  0.4025 -2.8259
 1012MOL0     H36608  11.524   6.013   6.035  0.2411 -2.6649  3.4349
 1012MOL0     H36609  11.645   5.923   5.845  1.2174 -0.6380  1.7047
 1012MOL0     H36610  11.550   5.537   5.689  3.3579 -0.1996 -2.0098
 1012MOL0     H36611  11.411   5.606   5.606 -0.7699 -0.1289  2.5623
 1012MOL0     H36612  11.542   5.499   5.449 -2.2384  1.0740 -0.8804
 1012MOL0     H36613  11.698   5.586   5.487  0.5000 -0.7840 -2.9987
 1012MOL0     H36614  11.575   5.795   5.392 -1.5664  0.5712 -1.7365
 1012MOL0     H36615  11.439   5.681   5.372 -0.3404 -1.2009  1.9178
 1012MOL0     H36616  11.574   5.733   5.173 -2.9762 -0.2668  0.5870
 1012MOL0     H36617  11.576   5.558   5.203 -2.2766  1.8071 -3.5444
 1012MOL0     H36618  11.964   5.674   5.280 -0.7927 -2.4993  0.3690
 1012MOL0     H36619  11.303   5.639   5.773 -1.8300  1.6245 -1.2185
 1012MOL0     H36620  11.219   5.721   6.010  3.4173 -3.4016  1.5988
 1013MOL0     O36621   1.845   7.196   3.436  0.0905  1.2516 -0.5904
 1013MOL0     C36622   1.855   7.287   3.522 -0.3975 -0.1891  0.5735
 1013MOL0     O36623   1.858   7.423   3.491  0.3572 -0.1845 -0.8728
 1013MOL0     C36624   1.826   7.456   3.361 -0.1444 -0.3377  0.7461
 1013MOL0     C36625   1.925   7.496   3.265 -0.2295  0.6240 -0.5000
 1013MOL0     C36626   1.879   7.523   3.136  0.1650  0.4970 -1.1638
 1013MOL0     C36627   1.738   7.518   3.103 -0.2668 -0.3718 -1.0878
 1013MOL0     O36628   1.696   7.531   2.973  0.5371 -0.5288 -0.4001
 1013MOL0     C36629   1.754   7.620   2.877  0.5895 -0.8119  0.5603
 1013MOL0     C36630   1.756   7.764   2.916 -0.0655 -0.6460  0.0600
 1013MOL0     C36631   1.615   7.816   2.949 -0.3444  0.1565 -0.2408
 1013MOL0     C36632   1.613   7.960   2.995  0.0258  0.3480  0.0550
 1013MOL0     C36633   1.473   8.005   3.042  0.5493 -0.0093 -0.4593
 1013MOL0     C36634   1.463   8.160   3.067  0.6655  0.6523 -0.9579
 1013MOL0     C36635   1.559   8.215   3.163 -0.7701  0.0967 -0.5517
 1013MOL0     C36636   1.504   8.303   3.264 -0.3603  0.4699 -0.8594
 1013MOL0     N36637   1.414   8.225   3.361 -0.6268  0.6396 -0.0050
 1013MOL0     C36638   1.435   8.210   3.499 -0.3183  0.3913 -0.3019
 1013MOL0     C36639   1.356   8.103   3.539  0.6992  0.0061 -0.6330
 1013MOL0     C36640   1.348   8.036   3.676  0.1474  0.8941 -0.0999
 1013MOL0     C36641   1.275   8.112   3.778 -1.0781 -0.1715 -0.3199
 1013MOL0     C36642   1.241   8.036   3.907  0.5146 -1.2189  0.2323
 1013MOL0     C36643   1.157   8.130   3.999  0.2705 -0.4258  0.6984
 1013MOL0     O36644   1.014   8.112   3.988 -0.5623  0.4867  0.8803
 1013MOL0     C36645   0.946   8.222   3.979  0.2595 -0.3685 -0.6286
 1013MOL0     C36646   0.905   8.288   4.093  0.2212  0.4149 -0.3236
 1013MOL0     C36647   0.815   8.391   4.101  0.4775  0.3807  0.8029
 1013MOL0     C36648   0.804   8.471   4.229 -0.9450  0.1556 -0.1239
 1013MOL0     C36649   0.739   8.415   3.982 -0.4395 -1.0924 -0.0008
 1013MOL0     C36650   0.611   8.489   3.981  0.2691  0.5600 -0.2722
 1013MOL0     O36651   0.543   8.467   4.102  0.9704 -0.1474  0.6367
 1013MOL0     C36652   0.433   8.550   4.130 -1.1202  0.0291  0.4059
 1013MOL0     C36653   0.337   8.489   4.200  0.1848  1.5425  0.6604
 1013MOL0     C36654   0.217   8.551   4.224  0.7648 -1.2211  0.9895
 1013MOL0     C36655   0.187   8.688   4.180  0.6066 -0.5800 -0.0107
 1013MOL0     O36656   0.062   8.757   4.188 -0.1297  0.1932 -0.1017
 1013MOL0     C36657  -0.035   8.685   4.265  0.3229  0.1405  0.8024
 1013MOL0     C36658  -0.154   8.779   4.309 -0.1924 -0.2713 -0.8870
 1013MOL0     C36659  -0.106   8.910   4.380 -1.0456 -0.8184  0.0522
 1013MOL0     C36660  -0.223   8.974   4.459 -0.0810  1.1355  0.1609
 1013MOL0     C36661  -0.336   9.020   4.374 -0.4451 -0.4977 -0.1406
 1013MOL0     C36662  -0.445   9.105   4.438  0.4820  0.6159 -0.6248
 1013MOL0     C36663  -0.566   9.150   4.342 -0.9488  0.1987  0.5392
 1013MOL0     C36664  -0.601   9.300   4.368  0.1892 -0.7415 -0.6642
 1013MOL0    Cl36665  -0.684   9.327   4.525 -0.2125  0.0700 -0.3002
 1013MOL0     C36666   0.305   8.749   4.113  0.5666 -0.5553 -0.8629
 1013MOL0     C36667   0.431   8.689   4.094 -0.4837  0.3585 -0.0055
 1013MOL0     O36668   0.560   8.533   3.874 -0.7781  0.6986  0.2207
 1013MOL0     C36669   0.770   8.346   3.865 -0.0341  0.2230  0.1949
 1013MOL0     C36670   0.878   8.257   3.858  0.0670  0.7144  0.7733
 1013MOL0     N36671   1.280   8.071   3.429  0.5922 -0.6314 -0.8266
 1013MOL0     N36672   1.313   8.140   3.326 -0.8765  0.2902  0.4929
 1013MOL0     C36673   1.648   7.463   3.191  0.2124 -1.5182 -0.0303
 1013MOL0     C36674   1.689   7.447   3.321 -1.2892  0.1198 -0.0685
 1013MOL0     C36675   1.877   7.258   3.664 -0.1675 -0.1501 -0.0571
 1013MOL0     C36676   1.890   7.364   3.756 -0.5818  0.6604 -0.6937
 1013MOL0     C36677   1.906   7.345   3.892  0.0425  1.2192 -0.9661
 1013MOL0     C36678   1.900   7.209   3.939  0.6038  0.9878 -0.0238
 1013MOL0     O36679   1.920   7.177   4.074  0.1232  0.4858  0.0515
 1013MOL0     C36680   1.883   7.277   4.163 -0.8000  0.6081 -1.1565
 1013MOL0     C36681   1.838   7.220   4.297 -0.1787  1.0784 -0.3943
 1013MOL0     C36682   1.967   7.183   4.376 -0.0790  0.3953 -0.3908
 1013MOL0     C36683   1.913   7.119   4.506  0.2040  0.8541 -1.0379
 1013MOL0     C36684   2.021   7.032   4.563  0.7009  0.0041  0.1277
 1013MOL0     C36685   2.095   6.945   4.612 -0.0742 -1.1035  0.1070
 1013MOL0     C36686   1.868   7.106   3.852  0.1956 -0.0536 -0.4930
 1013MOL0     C36687   1.856   7.123   3.717  0.6480  0.3671 -0.0146
 1013MOL0     H36688   2.026   7.503   3.304 -0.6765  2.3894  0.4527
 1013MOL0     H36689   1.954   7.537   3.059  0.5904 -2.9518 -1.5259
 1013MOL0     H36690   1.857   7.592   2.852  0.6742  1.0013 -1.3700
 1013MOL0     H36691   1.700   7.599   2.784 -0.2964  2.2011  0.3045
 1013MOL0     H36692   1.827   7.775   2.999 -0.2892  0.4978  0.1200
 1013MOL0     H36693   1.806   7.824   2.840 -0.8862 -1.4342 -1.1238
 1013MOL0     H36694   1.545   7.804   2.866 -3.0912 -2.3869  2.2538
 1013MOL0     H36695   1.569   7.758   3.029  1.2918 -1.2101 -0.2355
 1013MOL0     H36696   1.687   7.965   3.075  0.5796 -4.3593  0.0833
 1013MOL0     H36697   1.644   8.017   2.907  4.2552 -0.0999  1.0592
 1013MOL0     H36698   1.399   7.981   2.965 -0.3184 -0.6902  0.5771
 1013MOL0     H36699   1.441   7.949   3.130 -1.1329  0.0297 -1.0082
 1013MOL0     H36700   1.483   8.203   2.969  4.5515  1.0221 -0.1550
 1013MOL0     H36701   1.361   8.189   3.095  1.1650 -1.0867  3.6726
 1013MOL0     H36702   1.602   8.127   3.212  0.0152  1.5546  1.5195
 1013MOL0     H36703   1.623   8.284   3.107 -1.1098 -0.1984 -1.3128
 1013MOL0     H36704   1.433   8.382   3.237 -0.4556  0.3409 -0.9918
 1013MOL0     H36705   1.587   8.349   3.317  0.4806 -0.6609 -1.1511
 1013MOL0     H36706   1.506   8.263   3.561 -0.1185 -1.7257  1.4110
 1013MOL0     H36707   1.301   7.938   3.663  0.3264  1.0477 -2.1360
 1013MOL0     H36708   1.448   8.018   3.716 -1.0043  0.3109  2.8230
 1013MOL0     H36709   1.179   8.152   3.747  0.3981  2.3453 -1.9595
 1013MOL0     H36710   1.336   8.199   3.804  0.9927 -1.2609 -1.2287
 1013MOL0     H36711   1.334   8.016   3.961  0.2179  0.4758  1.4306
 1013MOL0     H36712   1.198   7.937   3.886 -0.6191 -0.9480  1.2028
 1013MOL0     H36713   1.178   8.235   3.973 -2.3941 -0.5639 -2.8232
 1013MOL0     H36714   1.191   8.121   4.102  0.2425 -1.3662  0.6341
 1013MOL0     H36715   0.947   8.258   4.188  2.8833 -0.1201 -1.5755
 1013MOL0     H36716   0.750   8.407   4.299 -0.7527  1.7147  1.5252
 1013MOL0     H36717   0.899   8.501   4.274 -1.3814 -0.0311  0.9402
 1013MOL0     H36718   0.742   8.559   4.212 -1.1958  0.3654  1.6877
 1013MOL0     H36719   0.335   8.384   4.229 -4.3882  1.3833  0.4901
 1013MOL0     H36720   0.141   8.488   4.270 -1.2443 -1.0838 -1.8535
 1013MOL0     H36721  -0.074   8.603   4.203 -2.1609  0.9826  1.1220
 1013MOL0     H36722   0.008   8.641   4.355 -1.0390 -2.8269  0.1142
 1013MOL0     H36723  -0.215   8.804   4.222 -3.8125  2.4271  2.1262
 1013MOL0     H36724  -0.218   8.716   4.371  1.7330 -0.9189  0.5808
 1013MOL0     H36725  -0.072   8.986   4.309  1.6583 -2.6997 -0.8457
 1013MOL0     H36726  -0.022   8.891   4.448 -2.5100  0.3157  2.3094
 1013MOL0     H36727  -0.256   8.908   4.540 -2.6628  3.4694  1.1654
 1013MOL0     H36728  -0.186   9.059   4.517  2.0066  0.3674  0.0590
 1013MOL0     H36729  -0.385   8.927   4.341 -0.4407 -1.9678  3.5312
 1013MOL0     H36730  -0.289   9.077   4.294  3.8535 -0.3052  2.2109
 1013MOL0     H36731  -0.478   9.058   4.531  2.2870  4.5327  2.2527
 1013MOL0     H36732  -0.396   9.186   4.492  0.9921 -1.9694  3.2189
 1013MOL0     H36733  -0.661   9.096   4.349  0.5632 -3.0584 -1.5394
 1013MOL0     H36734  -0.532   9.154   4.238 -2.1516  3.9469  0.1416
 1013MOL0     H36735  -0.663   9.333   4.284 -2.4788 -2.3550  0.5101
 1013MOL0     H36736  -0.515   9.367   4.360 -1.2461  1.1671 -0.9015
 1013MOL0     H36737   0.293   8.850   4.078  1.3635  0.1512  0.7840
 1013MOL0     H36738   0.507   8.737   4.033 -0.1151  0.5770  0.6091
 1013MOL0     H36739   0.703   8.360   3.781  0.2437  0.3283 -0.0107
 1013MOL0     H36740   0.897   8.210   3.762  0.2408  0.1612  1.0769
 1013MOL0     H36741   1.551   7.432   3.154  0.2589 -2.0212  0.2612
 1013MOL0     H36742   1.618   7.416   3.396  0.7508 -3.1624  0.7086
 1013MOL0     H36743   1.885   7.467   3.723  2.9942  0.6232 -1.6957
 1013MOL0     H36744   1.923   7.429   3.959  0.3190  1.0432 -0.8129
 1013MOL0     H36745   1.971   7.339   4.185  0.8009 -1.0447 -2.5780
 1013MOL0     H36746   1.809   7.347   4.120  0.7849  3.2838  0.1939
 1013MOL0     H36747   1.784   7.129   4.270  2.2964 -0.5938 -0.1293
 1013MOL0     H36748   1.767   7.288   4.344 -2.5828 -1.0733 -0.7179
 1013MOL0     H36749   2.025   7.274   4.394 -0.1850  0.8096 -1.9829
 1013MOL0     H36750   2.028   7.115   4.317 -1.4638  0.0032 -1.4434
 1013MOL0     H36751   1.829   7.053   4.481 -0.2461  0.9827  0.1011
 1013MOL0     H36752   1.882   7.184   4.588 -3.9905 -1.9876  0.0053
 1013MOL0     H36753   2.156   6.860   4.635  0.2578 -1.0629 -0.5702
 1013MOL0     H36754   1.863   7.003   3.886  2.1689  0.3253  1.1319
 1013MOL0     H36755   1.842   7.040   3.648  1.4745  2.1635 -2.4866
 1014MOL0     O36756   3.658   7.377  10.341 -0.2520 -0.0985  0.2379
 1014MOL0     C36757   3.722   7.281  10.302 -0.6382  0.5957 -0.1465
 1014MOL0     O36758   3.821   7.296  10.207 -0.0324  0.9287  0.4851
 1014MOL0     C36759   3.823   7.411  10.129 -0.3082  0.8501  0.4485
 1014MOL0     C36760   3.927   7.499  10.145 -0.9520 -0.3065 -0.4960
 1014MOL0     C36761   3.922   7.619  10.077 -0.9446 -0.2249 -0.7400
 1014MOL0     C36762   3.821   7.646   9.986 -0.6559  1.3135  0.3747
 1014MOL0     O36763   3.814   7.748   9.899 -0.3709  0.3507  0.5155
 1014MOL0     C36764   3.837   7.879   9.947 -0.3123  0.1290 -0.6130
 1014MOL0     C36765   3.744   7.974   9.879 -0.5808  0.8689  1.0376
 1014MOL0     C36766   3.688   8.076   9.983  0.4409  0.0736 -0.3751
 1014MOL0     C36767   3.796   8.180  10.024  0.1579  0.0786 -0.3416
 1014MOL0     C36768   3.857   8.258   9.899  0.0966  0.1342 -0.0215
 1014MOL0     C36769   3.758   8.346   9.824  0.2351 -0.0971 -0.1778
 1014MOL0     C36770   3.811   8.430   9.711 -0.6656  0.1872  0.2998
 1014MOL0     C36771   3.705   8.509   9.631  0.5406  0.3401 -0.5515
 1014MOL0     N36772   3.647   8.620   9.710  0.2456 -0.1688 -0.5163
 1014MOL0     C36773   3.616   8.740   9.654 -0.1368 -0.3184 -0.6169
 1014MOL0     C36774   3.531   8.799   9.741  0.0876  0.6594 -0.8491
 1014MOL0     C36775   3.487   8.944   9.739 -0.8628 -0.2986 -0.1815
 1014MOL0     C36776   3.424   8.976   9.599  0.1834 -1.6221  0.4870
 1014MOL0     C36777   3.359   9.120   9.584  0.1820  0.0572 -0.3980
 1014MOL0     C36778   3.443   9.246   9.617 -0.1071 -0.2594 -0.6933
 1014MOL0     O36779   3.393   9.363   9.542 -0.0622  0.4957 -0.3968
 1014MOL0     C36780   3.339   9.466   9.605 -0.0463  0.2711 -0.8684
 1014MOL0     C36781   3.401   9.589   9.601  0.3595 -0.1434  0.7027
 1014MOL0     C36782   3.359   9.692   9.684  0.2482 -0.3807 -0.1575
 1014MOL0     C36783   3.435   9.821   9.661  0.7684  0.0574 -0.7250
 1014MOL0     C36784   3.250   9.674   9.778 -0.2976  0.2830  0.9691
 1014MOL0     C36785   3.185   9.777   9.858 -0.5813  0.2768  0.2024
 1014MOL0     O36786   3.125   9.734   9.973  0.2425 -0.8218  0.7943
 1014MOL0     C36787   3.047   9.824  10.050  0.8687  0.6253 -0.3981
 1014MOL0     C36788   3.053   9.816  10.192  0.1180  1.2407  0.3414
 1014MOL0     C36789   2.963   9.891  10.262  0.6410  0.1346 -0.7446
 1014MOL0     C36790   2.867   9.972  10.204 -1.1704  0.0160  1.1149
 1014MOL0     O36791   2.764  10.033  10.266 -0.1203  0.2386  0.9977
 1014MOL0     C36792   2.693   9.968  10.377  0.2643 -0.1055  0.3463
 1014MOL0     C36793   2.555  10.027  10.387  0.1772  0.2635  0.8491
 1014MOL0     C36794   2.442   9.955  10.313  0.9449  0.8883  0.9270
 1014MOL0     C36795   2.488   9.882  10.180 -0.4567  0.2771 -0.3292
 1014MOL0     C36796   2.363   9.817  10.113 -0.1313  0.1357  0.9301
 1014MOL0     C36797   2.297   9.682  10.171 -0.4665  0.4941 -0.3118
 1014MOL0     C36798   2.404   9.564  10.178 -0.2783  0.2157 -0.3512
 1014MOL0     C36799   2.464   9.541  10.317  1.2781  0.5226  0.0425
 1014MOL0    Cl36800   2.350   9.471  10.444  0.8630 -0.0105  0.2364
 1014MOL0     C36801   2.881   9.994  10.058 -0.2415  1.7150  0.7730
 1014MOL0     C36802   2.963   9.911   9.987  0.8202  0.4377  0.0090
 1014MOL0     O36803   3.196   9.891   9.818 -0.4901 -0.3665 -0.9674
 1014MOL0     C36804   3.195   9.541   9.783  0.9035  1.2110  0.3366
 1014MOL0     C36805   3.239   9.443   9.696  0.0037  0.8569  0.5176
 1014MOL0     N36806   3.507   8.713   9.846  0.2543  0.0042  0.9784
 1014MOL0     N36807   3.586   8.611   9.833  1.2367 -0.3066 -0.5810
 1014MOL0     C36808   3.714   7.557   9.970  0.7080 -0.4306 -0.4213
 1014MOL0     C36809   3.711   7.442  10.052 -0.6818 -0.4408  0.7818
 1014MOL0     C36810   3.716   7.151  10.376  1.0293  0.4200  0.4371
 1014MOL0     C36811   3.754   7.033  10.312  0.3675  0.0306 -0.2575
 1014MOL0     C36812   3.728   6.914  10.375 -1.0432  0.1382 -0.4875
 1014MOL0     C36813   3.671   6.903  10.500  0.0847 -0.1387 -0.0336
 1014MOL0     O36814   3.642   6.788  10.566 -0.2104  0.2240 -0.4509
 1014MOL0     C36815   3.718   6.665  10.531 -0.4852 -0.1022  0.8955
 1014MOL0     C36816   3.864   6.688  10.554 -0.6902 -0.3461  0.2541
 1014MOL0     C36817   3.950   6.554  10.579  0.4556  0.5786 -0.6668
 1014MOL0     C36818   4.098   6.560  10.561  0.1165  0.2142 -0.5039
 1014MOL0     C36819   4.168   6.658  10.644 -0.5263 -0.3715  0.6102
 1014MOL0     C36820   4.211   6.734  10.730  0.0086  0.8453 -0.7477
 1014MOL0     C36821   3.621   7.018  10.563  1.2587  0.3843  0.7951
 1014MOL0     C36822   3.646   7.140  10.494  0.6263 -0.7238 -0.1572
 1014MOL0     H36823   4.006   7.475  10.216 -1.2626  0.6246  0.1733
 1014MOL0     H36824   4.006   7.685  10.095  2.0468 -3.9149  0.1770
 1014MOL0     H36825   3.821   7.880  10.055 -1.6632 -1.6682 -0.7583
 1014MOL0     H36826   3.942   7.911   9.938  0.3096 -2.0160 -1.5677
 1014MOL0     H36827   3.793   8.015   9.791  0.7830 -2.6033 -0.0080
 1014MOL0     H36828   3.661   7.917   9.836  1.0050  1.7277 -3.6373
 1014MOL0     H36829   3.607   8.130   9.934  1.5059  1.6274 -0.5121
 1014MOL0     H36830   3.652   8.025  10.073 -0.5363 -2.4136 -2.0648
 1014MOL0     H36831   3.770   8.253  10.101  2.8576 -1.1645  1.9505
 1014MOL0     H36832   3.875   8.129  10.079  0.7448  2.1573  0.8534
 1014MOL0     H36833   3.945   8.309   9.939  0.2223 -0.7252  0.8516
 1014MOL0     H36834   3.914   8.200   9.826  2.7305  1.8521  0.5368
 1014MOL0     H36835   3.684   8.280   9.778 -2.1662  2.7941 -0.8093
 1014MOL0     H36836   3.710   8.407   9.902  0.3351 -1.6832  1.1716
 1014MOL0     H36837   3.878   8.503   9.755  1.0726 -0.9553 -0.3238
 1014MOL0     H36838   3.866   8.361   9.646 -0.4594 -0.5513  1.2250
 1014MOL0     H36839   3.618   8.451   9.599 -0.4244  0.6557  1.3630
 1014MOL0     H36840   3.754   8.548   9.542  2.1797  0.8307  0.5132
 1014MOL0     H36841   3.647   8.787   9.562 -0.2741  2.5584  0.7134
 1014MOL0     H36842   3.406   8.955   9.812  1.3093  1.3379  2.1492
 1014MOL0     H36843   3.567   9.014   9.763  0.6761 -1.0778 -2.7160
 1014MOL0     H36844   3.358   8.894   9.569 -1.2478 -0.9301  1.6292
 1014MOL0     H36845   3.499   8.971   9.519 -3.3596  1.1281 -3.5323
 1014MOL0     H36846   3.260   9.131   9.629 -0.3585  1.5751 -1.8714
 1014MOL0     H36847   3.346   9.141   9.477  0.5459  1.9420 -0.1004
 1014MOL0     H36848   3.543   9.225   9.577  1.7151  5.4696 -0.0894
 1014MOL0     H36849   3.446   9.263   9.725 -1.5071  0.9331 -0.8180
 1014MOL0     H36850   3.496   9.586   9.549  0.4226  0.7366  0.7565
 1014MOL0     H36851   3.370   9.909   9.656  3.9389  2.8477  1.7670
 1014MOL0     H36852   3.506   9.830   9.744  2.5689  1.4542 -2.3280
 1014MOL0     H36853   3.495   9.813   9.570 -1.4211 -4.4231 -2.0512
 1014MOL0     H36854   3.123   9.755  10.248  0.6035 -1.1154 -2.5616
 1014MOL0     H36855   2.963   9.879  10.370 -0.0651  1.6301 -0.5536
 1014MOL0     H36856   2.697   9.859  10.378  1.5830 -0.0872 -0.2510
 1014MOL0     H36857   2.747   9.996  10.467 -0.3267  2.8400 -0.1138
 1014MOL0     H36858   2.519  10.013  10.490 -1.3399 -2.9039  0.0207
 1014MOL0     H36859   2.560  10.134  10.364  3.0959  0.4423  1.8389
 1014MOL0     H36860   2.365  10.028  10.287 -1.5203 -1.4344  1.2319
 1014MOL0     H36861   2.388   9.887  10.380 -0.3314  1.2989  0.3463
 1014MOL0     H36862   2.537   9.945  10.105 -0.8071  0.1022 -0.7096
 1014MOL0     H36863   2.563   9.806  10.202  0.6124  1.8986  2.1580
 1014MOL0     H36864   2.383   9.805  10.006 -1.5452  5.3728 -0.2361
 1014MOL0     H36865   2.291   9.899  10.118  1.4300  1.6931 -0.5210
 1014MOL0     H36866   2.266   9.704  10.273 -1.0396 -2.1424  0.1577
 1014MOL0     H36867   2.210   9.651  10.113 -0.8900 -1.5934  1.3126
 1014MOL0     H36868   2.492   9.595  10.121 -0.8918  4.0749  0.4956
 1014MOL0     H36869   2.358   9.466  10.161  0.4080 -0.7678  2.8259
 1014MOL0     H36870   2.491   9.641  10.354  1.1579  0.4145  0.4230
 1014MOL0     H36871   2.555   9.481  10.314  1.7052  1.1745 -2.2105
 1014MOL0     H36872   2.822  10.050   9.987  0.6396  3.2218  1.1832
 1014MOL0     H36873   2.950   9.920   9.879  1.1716  4.4872  0.1580
 1014MOL0     H36874   3.121   9.507   9.855  0.4104 -0.1433 -0.7713
 1014MOL0     H36875   3.198   9.344   9.684 -0.6632  1.0794  0.9028
 1014MOL0     H36876   3.625   7.581   9.914 -0.6070 -0.6054  1.5010
 1014MOL0     H36877   3.630   7.370  10.044  0.8385 -2.3428  1.4559
 1014MOL0     H36878   3.812   7.037  10.220  0.4242 -0.4392 -0.2410
 1014MOL0     H36879   3.760   6.821  10.329 -0.2012  0.4027 -0.4395
 1014MOL0     H36880   3.688   6.580  10.593 -1.9809 -1.7087 -1.8208
 1014MOL0     H36881   3.700   6.634  10.428  2.4282 -2.0356  0.8534
 1014MOL0     H36882   3.865   6.755  10.640 -0.7040 -1.1541  0.8978
 1014MOL0     H36883   3.913   6.740  10.472 -0.9086  0.6068  0.7171
 1014MOL0     H36884   3.910   6.473  10.517 -1.7370  3.2433 -3.0354
 1014MOL0     H36885   3.935   6.525  10.683 -0.9144  0.4740 -0.8777
 1014MOL0     H36886   4.132   6.561  10.457  1.0790 -1.7461 -0.2656
 1014MOL0     H36887   4.114   6.456  10.593 -3.2986  0.7447  3.8057
 1014MOL0     H36888   4.245   6.815  10.792 -1.0751  1.3799 -0.8256
 1014MOL0     H36889   3.578   7.005  10.661  1.1223  1.6826  0.9267
 1014MOL0     H36890   3.616   7.231  10.545  2.1683  0.9992 -2.1696
 1015MOL0     O36891   9.197   5.794   1.262 -0.0525  0.6799 -0.4694
 1015MOL0     C36892   9.156   5.889   1.188  0.1419  0.1661 -0.0380
 1015MOL0     O36893   9.105   6.009   1.236 -0.6615 -1.2503  0.7612
 1015MOL0     C36894   9.063   6.010   1.364 -0.8228  0.5477 -0.4530
 1015MOL0     C36895   9.136   6.015   1.488  0.5601  0.1398  0.7376
 1015MOL0     C36896   9.066   6.026   1.608  0.6502 -0.8595 -0.2156
 1015MOL0     C36897   8.927   6.004   1.617 -0.5349 -0.8324  0.1089
 1015MOL0     O36898   8.857   6.001   1.728 -0.6150 -0.2401 -0.4534
 1015MOL0     C36899   8.740   5.922   1.729 -0.0836  0.6561 -0.0232
 1015MOL0     C36900   8.636   6.027   1.752 -0.1818  0.2570  0.9637
 1015MOL0     C36901   8.505   5.953   1.771 -1.0351  0.0927  0.1222
 1015MOL0     C36902   8.393   6.045   1.816 -0.9059  0.1383  0.4483
 1015MOL0     C36903   8.265   5.975   1.875  0.2547  0.0197  0.4199
 1015MOL0     C36904   8.166   6.062   1.968 -0.2479  0.6265 -0.3416
 1015MOL0     C36905   8.127   6.207   1.917  0.5986  0.1843  0.1338
 1015MOL0     C36906   8.083   6.214   1.769 -0.1845 -0.2836 -0.2256
 1015MOL0     N36907   7.979   6.127   1.731 -0.3027  0.1841  0.0609
 1015MOL0     C36908   7.843   6.140   1.786  0.5130  1.4032 -0.2761
 1015MOL0     C36909   7.772   6.073   1.704  0.5323  0.0292  1.2266
 1015MOL0     C36910   7.628   6.031   1.726 -0.0400  0.9029 -0.1776
 1015MOL0     C36911   7.612   5.968   1.868  1.7261  0.4449  0.4114
 1015MOL0     C36912   7.472   5.917   1.890 -0.2807  0.9068 -0.0426
 1015MOL0     C36913   7.366   5.993   1.823  0.3400  0.4577 -0.0708
 1015MOL0     O36914   7.236   5.954   1.878  0.2660  0.3749 -0.1098
 1015MOL0     C36915   7.183   6.044   1.964  0.6511  0.0910 -0.2404
 1015MOL0     C36916   7.052   6.077   1.948  0.3625 -0.1935  0.1908
 1015MOL0     C36917   6.977   6.173   2.024 -0.2206 -0.7850 -0.3646
 1015MOL0     C36918   6.844   6.207   1.987  0.7288 -0.6330 -1.0390
 1015MOL0     C36919   7.048   6.245   2.122 -0.3032 -0.1034  0.2313
 1015MOL0     C36920   7.001   6.357   2.204 -0.1039 -0.0931 -0.1089
 1015MOL0     O36921   7.079   6.467   2.193 -0.6061  0.4508  0.8486
 1015MOL0     C36922   7.038   6.565   2.282  0.3965  1.3134  0.3867
 1015MOL0     C36923   7.091   6.580   2.413  0.4236  0.4947  0.2342
 1015MOL0     C36924   7.054   6.688   2.487 -0.0227 -0.9023  0.7517
 1015MOL0     C36925   6.960   6.779   2.433 -0.1933  1.3904 -0.4983
 1015MOL0     O36926   6.930   6.888   2.506  0.5910 -0.2459 -0.3558
 1015MOL0     C36927   6.839   6.986   2.455 -0.1805 -0.0214  0.4936
 1015MOL0     C36928   6.829   7.114   2.547  1.2504 -0.1688  0.4897
 1015MOL0     C36929   6.958   7.197   2.551  0.7395  0.8246  0.2892
 1015MOL0     C36930   6.928   7.328   2.485  0.2765 -0.3202  0.2742
 1015MOL0     C36931   7.047   7.424   2.509 -0.7713 -0.1743  0.1335
 1015MOL0     C36932   7.058   7.503   2.634  0.6207 -0.5907 -0.7633
 1015MOL0     C36933   7.198   7.552   2.666 -0.5538  0.0724  0.1714
 1015MOL0     C36934   7.219   7.625   2.801 -0.0592 -0.2855 -0.0098
 1015MOL0    Cl36935   7.146   7.792   2.801 -0.2894 -0.0309 -0.0547
 1015MOL0     C36936   6.908   6.750   2.306 -0.3335  0.6696 -0.3388
 1015MOL0     C36937   6.949   6.652   2.225  1.0509  0.4009  0.5959
 1015MOL0     O36938   6.900   6.342   2.281 -0.6748 -0.4546 -0.3595
 1015MOL0     C36939   7.182   6.203   2.151 -0.6585  0.2375  0.1487
 1015MOL0     C36940   7.248   6.105   2.066  0.4672  0.2577  0.2253
 1015MOL0     N36941   7.845   6.037   1.590  0.2073 -0.5835  0.2341
 1015MOL0     N36942   7.970   6.066   1.605  0.3328  0.1087  0.1025
 1015MOL0     C36943   8.863   5.994   1.490 -0.5089  0.1451  0.5331
 1015MOL0     C36944   8.931   6.017   1.375  0.7340  0.5237  1.1917
 1015MOL0     C36945   9.196   5.890   1.043 -0.1171 -1.2600  0.9254
 1015MOL0     C36946   9.091   5.942   0.950 -0.8645  0.4096  0.1355
 1015MOL0     C36947   9.114   5.948   0.816 -1.5666  1.0398  0.7114
 1015MOL0     C36948   9.234   5.908   0.759 -0.3628 -0.0560 -0.3363
 1015MOL0     O36949   9.249   5.947   0.631 -0.0977  0.1761  1.0422
 1015MOL0     C36950   9.380   5.920   0.575 -0.6736 -0.1916 -0.2065
 1015MOL0     C36951   9.373   5.970   0.432 -0.2897  0.6845 -0.4632
 1015MOL0     C36952   9.274   5.888   0.337 -0.2564 -0.5883 -0.1534
 1015MOL0     C36953   9.159   5.975   0.302 -0.7939 -0.7377 -0.1947
 1015MOL0     C36954   9.092   5.908   0.195 -0.6344  0.0111 -1.4125
 1015MOL0     C36955   9.008   5.869   0.114 -0.1274  0.0396  0.0153
 1015MOL0     C36956   9.330   5.851   0.851 -0.6707  1.9267  0.2431
 1015MOL0     C36957   9.320   5.849   0.989 -0.6001  0.0498  0.5631
 1015MOL0     H36958   9.241   6.040   1.493  0.2243  1.6417  0.8221
 1015MOL0     H36959   9.108   6.054   1.704 -1.5330  1.2633  0.2429
 1015MOL0     H36960   8.715   5.872   1.635 -0.7342  3.1849 -1.2740
 1015MOL0     H36961   8.746   5.855   1.815  3.4748  0.7108 -0.0791
 1015MOL0     H36962   8.652   6.057   1.856  1.7518 -2.0356  1.4481
 1015MOL0     H36963   8.635   6.110   1.681 -2.7389 -1.8768 -1.7644
 1015MOL0     H36964   8.481   5.920   1.670 -1.3345  1.7749 -0.3906
 1015MOL0     H36965   8.528   5.874   1.843  0.3769 -1.3604 -1.8154
 1015MOL0     H36966   8.432   6.122   1.882  0.1838 -0.6035  0.6939
 1015MOL0     H36967   8.361   6.113   1.736 -0.4470  0.4689  0.5427
 1015MOL0     H36968   8.198   5.929   1.802  2.4250 -4.0503  0.6929
 1015MOL0     H36969   8.311   5.892   1.929  1.3104  0.1795 -0.1891
 1015MOL0     H36970   8.079   6.004   1.999  0.7166 -1.0777 -0.7025
 1015MOL0     H36971   8.216   6.078   2.064 -0.5738  0.8073 -0.1995
 1015MOL0     H36972   8.046   6.248   1.978  0.8370  2.8576 -1.1781
 1015MOL0     H36973   8.213   6.275   1.926  0.1616  1.1122 -2.0679
 1015MOL0     H36974   8.171   6.195   1.707  0.4816 -0.2067  0.6691
 1015MOL0     H36975   8.045   6.310   1.734  1.0636  0.4178  0.2707
 1015MOL0     H36976   7.815   6.168   1.888 -0.8410 -0.7555  0.0047
 1015MOL0     H36977   7.560   6.117   1.715  0.2542  1.2611  0.6886
 1015MOL0     H36978   7.599   5.964   1.645 -0.4710 -2.7103  2.7178
 1015MOL0     H36979   7.627   6.042   1.947 -1.2265 -0.2457  1.7727
 1015MOL0     H36980   7.680   5.887   1.893  1.5803  0.8122  2.1474
 1015MOL0     H36981   7.460   5.905   1.998 -2.1631 -1.1873 -0.4090
 1015MOL0     H36982   7.471   5.811   1.861 -0.7183  0.5822  1.0974
 1015MOL0     H36983   7.369   5.961   1.718 -0.7556  2.6786 -0.8412
 1015MOL0     H36984   7.387   6.100   1.809  0.7098  0.2924 -0.8526
 1015MOL0     H36985   7.012   6.043   1.853  3.1808  0.1307 -1.2220
 1015MOL0     H36986   6.855   6.301   1.931  3.4721  0.4277  1.0556
 1015MOL0     H36987   6.799   6.128   1.926  2.1562 -0.7642 -1.9754
 1015MOL0     H36988   6.782   6.222   2.076  2.1316  2.3983 -0.4569
 1015MOL0     H36989   7.164   6.502   2.430 -0.0222 -0.4649 -1.9784
 1015MOL0     H36990   7.116   6.717   2.571 -0.1167  0.3004  0.4240
 1015MOL0     H36991   6.871   7.030   2.360 -0.5149  2.5386  1.4990
 1015MOL0     H36992   6.744   6.933   2.442 -1.5580  2.4976 -0.3576
 1015MOL0     H36993   6.747   7.171   2.504  4.5264  1.8060 -3.9546
 1015MOL0     H36994   6.821   7.093   2.654  1.2530  0.8897  0.7110
 1015MOL0     H36995   7.032   7.145   2.489 -1.4242 -2.3923  0.1464
 1015MOL0     H36996   6.995   7.221   2.651  2.4416 -1.8543  0.4004
 1015MOL0     H36997   6.895   7.309   2.383 -2.7565 -0.9131  1.2458
 1015MOL0     H36998   6.837   7.366   2.533  0.4409 -0.0253  0.3518
 1015MOL0     H36999   7.062   7.484   2.419 -1.5853 -2.0918 -1.3739
 1015MOL0     H37000   7.132   7.356   2.509 -0.5439  0.0483  2.1132
 1015MOL0     H37001   6.981   7.581   2.624  0.7923 -0.4704 -1.1682
 1015MOL0     H37002   7.018   7.431   2.706  1.2941 -0.1533  0.0662
 1015MOL0     H37003   7.243   7.615   2.589  0.6875 -0.3597  0.5076
 1015MOL0     H37004   7.256   7.459   2.662 -1.6543 -1.0256  4.1855
 1015MOL0     H37005   7.326   7.624   2.823 -0.3748 -0.7071  1.6244
 1015MOL0     H37006   7.164   7.580   2.884  0.5731 -3.6325 -1.2354
 1015MOL0     H37007   6.831   6.816   2.267  1.0777  1.2042 -2.3637
 1015MOL0     H37008   6.921   6.644   2.121  0.8518 -1.5009  0.7638
 1015MOL0     H37009   7.233   6.243   2.238 -2.0038  0.6129  0.7881
 1015MOL0     H37010   7.350   6.081   2.093  1.0463  2.4982  0.2608
 1015MOL0     H37011   8.756   5.984   1.470 -0.7202  0.6234  1.3343
 1015MOL0     H37012   8.879   6.028   1.281  0.1373 -1.4548  1.2478
 1015MOL0     H37013   8.993   5.958   0.992 -1.1179 -2.7091  0.9920
 1015MOL0     H37014   9.042   5.989   0.747 -3.5984 -1.7012  1.0180
 1015MOL0     H37015   9.464   5.960   0.633 -1.9252  0.2000  1.3871
 1015MOL0     H37016   9.406   5.814   0.578 -1.4000 -0.3823  2.6876
 1015MOL0     H37017   9.469   5.963   0.381  0.1289 -0.3053  0.4102
 1015MOL0     H37018   9.345   6.075   0.430  2.2039  1.4753  1.3765
 1015MOL0     H37019   9.247   5.790   0.377 -0.0272 -0.7813 -0.4605
 1015MOL0     H37020   9.325   5.881   0.240 -1.0140  2.5502 -0.9016
 1015MOL0     H37021   9.186   6.074   0.263 -1.1466 -0.4140  0.3625
 1015MOL0     H37022   9.091   5.980   0.388 -2.5497 -2.8251 -1.3584
 1015MOL0     H37023   8.936   5.832   0.044 -1.1182  0.1213  0.9645
 1015MOL0     H37024   9.420   5.815   0.802 -2.8733 -0.9033 -2.1403
 1015MOL0     H37025   9.402   5.802   1.041  0.8702  2.1252  0.2568
 1016MOL0     O37026   9.432   5.984   7.623  0.0611 -0.2680  0.0959
 1016MOL0     C37027   9.352   5.966   7.527 -0.4104  0.3189  0.0666
 1016MOL0     O37028   9.220   5.923   7.539 -0.2548 -0.5777  0.0987
 1016MOL0     C37029   9.181   5.913   7.672  0.6159  0.0221  0.3218
 1016MOL0     C37030   9.195   5.792   7.724 -1.2807 -0.4039 -0.5633
 1016MOL0     C37031   9.163   5.760   7.855 -0.1392  0.1563 -0.6597
 1016MOL0     C37032   9.116   5.861   7.939  0.3086  0.3958 -0.0195
 1016MOL0     O37033   9.082   5.823   8.060  0.0785  0.0398 -0.3808
 1016MOL0     C37034   8.960   5.886   8.097  0.9571 -0.6481  0.1983
 1016MOL0     C37035   8.886   5.803   8.200 -0.6938 -0.3048  0.2095
 1016MOL0     C37036   8.975   5.772   8.328  0.3234  0.1388  0.2782
 1016MOL0     C37037   9.024   5.905   8.397 -0.3307 -0.1241 -0.9742
 1016MOL0     C37038   9.083   5.883   8.544  0.1267  0.8613  1.0439
 1016MOL0     C37039   9.220   5.815   8.535  0.3740 -0.0147  0.5309
 1016MOL0     C37040   9.338   5.923   8.539  1.3367 -0.1699  0.4343
 1016MOL0     C37041   9.344   6.026   8.420 -0.9871  0.3113 -0.0265
 1016MOL0     N37042   9.475   6.100   8.426  0.3774  0.6076  0.2132
 1016MOL0     C37043   9.599   6.053   8.385 -0.8716 -0.5941 -0.0971
 1016MOL0     C37044   9.684   6.152   8.410 -0.1646  0.2506 -0.4311
 1016MOL0     C37045   9.830   6.151   8.363 -0.4556 -0.4232  0.3903
 1016MOL0     C37046   9.837   6.233   8.230  0.3911 -0.5839 -0.1111
 1016MOL0     C37047   9.885   6.379   8.255 -0.4093 -0.0120 -0.4583
 1016MOL0     C37048  10.023   6.399   8.216 -0.5995 -0.2046  0.0666
 1016MOL0     O37049  10.126   6.316   8.281 -0.2872  0.5466  0.3575
 1016MOL0     C37050  10.251   6.381   8.286  0.4334  0.5913 -1.2321
 1016MOL0     C37051  10.309   6.432   8.408  0.1458  0.0232 -0.0825
 1016MOL0     C37052  10.423   6.507   8.397 -0.1968  0.2347  0.4425
 1016MOL0     C37053  10.480   6.556   8.526  0.4617  0.4210 -0.9764
 1016MOL0     C37054  10.478   6.552   8.270  0.2879 -0.3165 -0.8881
 1016MOL0     C37055  10.574   6.664   8.245  0.0775 -0.5911  0.0438
 1016MOL0     O37056  10.618   6.740   8.343  0.1405  0.0329 -0.2175
 1016MOL0     C37057  10.714   6.832   8.316 -0.2953  0.6606 -1.1715
 1016MOL0     C37058  10.829   6.811   8.235  0.4837  0.3232 -0.2513
 1016MOL0     C37059  10.925   6.906   8.214 -0.1115 -0.9336  0.7840
 1016MOL0     C37060  10.920   7.025   8.281  0.2401 -0.3399  0.3891
 1016MOL0     O37061  11.024   7.114   8.255  0.0415  0.4568  0.5377
 1016MOL0     C37062  11.005   7.256   8.305 -0.4260  0.1214 -0.2251
 1016MOL0     C37063  11.144   7.322   8.302 -0.3321  0.4095  0.6292
 1016MOL0     C37064  11.164   7.428   8.406  0.3231  0.3250 -0.4454
 1016MOL0     C37065  11.305   7.496   8.415 -0.2432 -0.0750  0.0349
 1016MOL0     C37066  11.312   7.604   8.305  0.4277 -0.5271  0.1794
 1016MOL0     C37067  11.464   7.625   8.271  0.1334 -0.5193  0.7437
 1016MOL0     C37068  11.468   7.721   8.166 -0.2266 -0.6222 -0.6569
 1016MOL0     C37069  11.614   7.744   8.138 -0.3616 -0.3317  0.9976
 1016MOL0    Cl37070  11.635   7.837   7.980 -0.2112 -0.1032 -0.0545
 1016MOL0     C37071  10.819   7.035   8.378  0.6371 -0.6694  0.2967
 1016MOL0     C37072  10.718   6.941   8.402 -0.0831  0.3698 -0.0786
 1016MOL0     O37073  10.596   6.685   8.121  0.8585 -0.1261  0.2061
 1016MOL0     C37074  10.416   6.499   8.153  0.1990  0.2088  0.3223
 1016MOL0     C37075  10.314   6.411   8.168  0.1067 -0.3563  0.7517
 1016MOL0     N37076   9.615   6.256   8.469  0.0315  0.3017 -0.3908
 1016MOL0     N37077   9.491   6.228   8.470 -0.0390  0.2348 -0.1629
 1016MOL0     C37078   9.097   5.991   7.885  0.5893  0.0313 -0.1737
 1016MOL0     C37079   9.121   6.018   7.749 -0.6429 -0.5154 -0.0432
 1016MOL0     C37080   9.406   5.984   7.385  0.8536  1.2340 -0.6351
 1016MOL0     C37081   9.324   5.964   7.273  0.8391 -0.3952  1.1867
 1016MOL0     C37082   9.390   5.958   7.147  0.4400  0.0061  0.9733
 1016MOL0     C37083   9.520   5.993   7.124  0.2793  0.9828 -0.8583
 1016MOL0     O37084   9.576   5.989   7.001 -0.3321 -1.0061  0.1323
 1016MOL0     C37085   9.578   6.129   6.956  0.3024  1.2161 -0.3551
 1016MOL0     C37086   9.616   6.149   6.817 -0.9202  0.5581  0.1781
 1016MOL0     C37087   9.762   6.092   6.786  0.0681 -0.8969 -0.3282
 1016MOL0     C37088   9.872   6.191   6.824 -0.2118  0.4141 -0.2591
 1016MOL0     C37089   9.892   6.228   6.967 -0.0310  0.4517 -0.7507
 1016MOL0     C37090   9.894   6.244   7.090 -1.0964 -0.0760 -0.3366
 1016MOL0     C37091   9.592   6.008   7.236 -0.8205  0.3090 -0.3221
 1016MOL0     C37092   9.543   6.010   7.363  0.1751  0.6834  0.6952
 1016MOL0     H37093   9.256   5.717   7.673  3.4843  0.6706  2.8460
 1016MOL0     H37094   9.165   5.658   7.890 -2.7491  1.0553  2.5740
 1016MOL0     H37095   8.988   5.980   8.144 -0.7100 -0.2606  0.4888
 1016MOL0     H37096   8.898   5.901   8.007  0.9621 -0.2019  0.2673
 1016MOL0     H37097   8.788   5.845   8.223  0.1110  0.5717  2.2993
 1016MOL0     H37098   8.862   5.701   8.167  1.7913 -0.7866 -0.3054
 1016MOL0     H37099   8.911   5.714   8.395 -0.4436 -0.9128 -1.3314
 1016MOL0     H37100   9.059   5.708   8.301  0.0270  0.9245 -2.9013
 1016MOL0     H37101   9.096   5.952   8.330 -1.0441  2.0475 -0.2994
 1016MOL0     H37102   8.942   5.975   8.418  0.4142  0.4624  0.1385
 1016MOL0     H37103   9.082   5.976   8.601 -0.7435  1.5164 -0.0071
 1016MOL0     H37104   9.018   5.810   8.593  1.3969  0.4889  2.2540
 1016MOL0     H37105   9.225   5.742   8.616  1.9733  0.8276  1.2229
 1016MOL0     H37106   9.228   5.740   8.456  3.5132  0.9731 -0.2393
 1016MOL0     H37107   9.332   5.989   8.625  3.5667  0.9742 -0.2116
 1016MOL0     H37108   9.436   5.877   8.547  1.1996 -0.8083 -1.0907
 1016MOL0     H37109   9.257   6.092   8.425 -2.0201 -1.0758  0.6528
 1016MOL0     H37110   9.346   5.969   8.326 -1.0333  1.0808 -0.5089
 1016MOL0     H37111   9.624   5.965   8.327 -1.4256 -1.7265  1.3436
 1016MOL0     H37112   9.895   6.186   8.443 -2.8555  0.1404  2.2060
 1016MOL0     H37113   9.877   6.053   8.348  0.8825  0.2759 -0.1393
 1016MOL0     H37114   9.742   6.233   8.175  0.0714 -1.4199  0.4117
 1016MOL0     H37115   9.902   6.190   8.153 -1.2691 -0.4817 -1.6416
 1016MOL0     H37116   9.876   6.409   8.360 -2.5616 -0.6422 -0.4031
 1016MOL0     H37117   9.830   6.447   8.189 -1.6527 -1.5718 -1.0809
 1016MOL0     H37118  10.044   6.502   8.249  0.9822 -0.3402 -0.4026
 1016MOL0     H37119  10.036   6.386   8.109  0.8257  1.4789 -0.0223
 1016MOL0     H37120  10.248   6.422   8.497 -0.3623 -0.9171 -0.5199
 1016MOL0     H37121  10.461   6.480   8.603  2.8900 -1.6198 -2.2820
 1016MOL0     H37122  10.588   6.568   8.530  0.4902 -0.1807  1.1374
 1016MOL0     H37123  10.427   6.649   8.552  0.0204  0.5949 -2.3960
 1016MOL0     H37124  10.818   6.725   8.171 -6.4433  0.2649  0.3034
 1016MOL0     H37125  11.004   6.887   8.142 -1.6222  1.8197 -1.8204
 1016MOL0     H37126  10.942   7.310   8.234  1.2179  1.6542 -0.5903
 1016MOL0     H37127  10.976   7.257   8.410 -0.2210 -0.8108 -0.1459
 1016MOL0     H37128  11.216   7.241   8.320  1.4291  2.0333  1.2017
 1016MOL0     H37129  11.164   7.373   8.208 -0.6172 -1.1327 -0.3072
 1016MOL0     H37130  11.143   7.396   8.509  0.3335  3.0625  0.5048
 1016MOL0     H37131  11.091   7.508   8.392 -0.7644 -0.4028  0.8090
 1016MOL0     H37132  11.336   7.545   8.507 -1.0647  0.3272  0.1094
 1016MOL0     H37133  11.378   7.418   8.389  0.1780  0.4056 -0.2628
 1016MOL0     H37134  11.272   7.693   8.354  0.4594 -1.8268  2.6835
 1016MOL0     H37135  11.237   7.580   8.229  2.2549 -1.4411 -1.4267
 1016MOL0     H37136  11.529   7.655   8.354 -0.5616  3.2645  0.0663
 1016MOL0     H37137  11.504   7.530   8.234 -0.5262  0.2801 -2.2773
 1016MOL0     H37138  11.441   7.824   8.192 -1.6474 -1.0856 -0.1763
 1016MOL0     H37139  11.411   7.684   8.080 -1.5845 -0.2048  0.0359
 1016MOL0     H37140  11.661   7.646   8.124  1.1050  0.4763  0.0446
 1016MOL0     H37141  11.666   7.804   8.213 -0.3066  3.9591 -2.1102
 1016MOL0     H37142  10.816   7.122   8.443  2.6010  0.1253 -0.5971
 1016MOL0     H37143  10.637   6.962   8.471 -1.8118  1.1418 -2.2255
 1016MOL0     H37144  10.439   6.531   8.053 -0.9977  1.0354  0.2950
 1016MOL0     H37145  10.268   6.387   8.072 -2.2041 -0.2130  1.7503
 1016MOL0     H37146   9.064   6.064   7.958  1.2999 -0.7298  0.9397
 1016MOL0     H37147   9.108   6.122   7.718  1.5375 -0.3535 -0.5786
 1016MOL0     H37148   9.225   5.920   7.279  0.7165 -0.4715 -0.8955
 1016MOL0     H37149   9.347   5.945   7.048  4.2084  2.6120 -1.2223
 1016MOL0     H37150   9.472   6.157   6.957 -0.7252 -2.1463 -0.1584
 1016MOL0     H37151   9.636   6.184   7.030  0.3543 -1.1045  1.4736
 1016MOL0     H37152   9.619   6.253   6.783 -1.1851  0.0646 -1.4317
 1016MOL0     H37153   9.534   6.113   6.754 -0.1747  0.1662 -0.5938
 1016MOL0     H37154   9.768   6.061   6.682  5.0135 -3.5596  0.4501
 1016MOL0     H37155   9.798   6.000   6.833  0.9974 -2.8994 -4.5100
 1016MOL0     H37156   9.848   6.278   6.761 -0.8164 -1.1490 -2.2937
 1016MOL0     H37157   9.970   6.157   6.788  0.1331  1.8562 -0.7459
 1016MOL0     H37158   9.880   6.267   7.194  0.4215  2.5740 -0.6363
 1016MOL0     H37159   9.694   6.035   7.213 -0.8027  0.9243  0.4483
 1016MOL0     H37160   9.621   6.030   7.436  2.3769  2.6498 -1.9527
 1017MOL0     O37161   4.768   1.883   0.557  0.0656  0.6071  0.2368
 1017MOL0     C37162   4.747   1.956   0.463 -0.9800  1.6023 -0.2364
 1017MOL0     O37163   4.849   1.983   0.382 -1.1128  0.6024 -0.3183
 1017MOL0     C37164   4.983   1.939   0.402  0.0965  0.7297  0.5310
 1017MOL0     C37165   5.036   1.851   0.494 -1.6760  1.2996 -0.1730
 1017MOL0     C37166   5.172   1.848   0.520 -0.6712  0.1488 -0.0470
 1017MOL0     C37167   5.265   1.926   0.444  0.9183  1.2712 -0.2908
 1017MOL0     O37168   5.406   1.930   0.452 -0.1458 -0.4382  0.0616
 1017MOL0     C37169   5.453   1.933   0.594  0.3579 -0.4120  0.8717
 1017MOL0     C37170   5.607   1.905   0.596 -0.0832  0.3139 -0.8497
 1017MOL0     C37171   5.669   1.931   0.739 -0.0699 -0.4850  0.5307
 1017MOL0     C37172   5.809   1.870   0.718 -0.5950 -0.4285  0.1813
 1017MOL0     C37173   5.893   1.910   0.836 -0.6073  0.5381  0.4080
 1017MOL0     C37174   6.018   1.815   0.857 -0.0549 -0.3155 -0.2829
 1017MOL0     C37175   6.110   1.866   0.973  0.0465 -0.2249  0.2385
 1017MOL0     C37176   6.031   1.897   1.099  0.2771  0.3478 -0.1408
 1017MOL0     N37177   5.965   1.774   1.143  0.6668  0.0185 -0.6327
 1017MOL0     C37178   6.020   1.651   1.160 -0.3397  0.4117  0.3892
 1017MOL0     C37179   5.914   1.563   1.163  0.6959 -0.0774 -0.0978
 1017MOL0     C37180   5.913   1.415   1.163 -0.0242  0.6566 -0.3283
 1017MOL0     C37181   6.048   1.343   1.156 -0.5349 -0.1121  0.8042
 1017MOL0     C37182   6.037   1.197   1.133  0.3499 -0.8843 -1.0921
 1017MOL0     C37183   6.173   1.130   1.136  0.7230 -0.3808  0.0089
 1017MOL0     O37184   6.256   1.194   1.034 -0.2832  0.6010 -0.2767
 1017MOL0     C37185   6.395   1.208   1.066  0.5191 -0.3285  0.3452
 1017MOL0     C37186   6.463   1.313   0.995  0.1292  0.0120  0.1884
 1017MOL0     C37187   6.598   1.343   1.022  0.6341 -0.4157  0.2454
 1017MOL0     C37188   6.660   1.452   0.951  0.1305 -0.3821 -0.6577
 1017MOL0     C37189   6.676   1.259   1.101 -0.1772  0.4252  0.7372
 1017MOL0     C37190   6.821   1.258   1.110  0.7168 -0.0379 -0.2445
 1017MOL0     O37191   6.891   1.367   1.168  0.7932  0.4857 -0.3367
 1017MOL0     C37192   7.024   1.337   1.184  0.4266 -0.4105  0.8382
 1017MOL0     C37193   7.078   1.266   1.293  0.4163 -1.5054 -0.3714
 1017MOL0     C37194   7.213   1.247   1.300  0.3290 -0.6060  0.1087
 1017MOL0     C37195   7.290   1.301   1.189 -1.0759 -0.2618 -0.7463
 1017MOL0     O37196   7.432   1.277   1.203  0.3754 -0.2670  0.6507
 1017MOL0     C37197   7.508   1.231   1.085  1.0306  0.3683  0.1445
 1017MOL0     C37198   7.616   1.336   1.039 -0.3401  0.5389  0.2391
 1017MOL0     C37199   7.665   1.308   0.893 -0.1945  0.4127  0.2026
 1017MOL0     C37200   7.763   1.407   0.828 -0.4323  0.3959 -0.5369
 1017MOL0     C37201   7.892   1.405   0.912 -0.7501 -0.2228 -1.2612
 1017MOL0     C37202   8.009   1.481   0.850  0.4484 -0.3980 -0.3355
 1017MOL0     C37203   7.988   1.636   0.853  1.2464 -0.2977 -0.0795
 1017MOL0     C37204   8.089   1.710   0.765  0.5277 -0.4569 -0.5689
 1017MOL0    Cl37205   8.066   1.666   0.596 -0.8111 -0.1015 -0.2808
 1017MOL0     C37206   7.246   1.369   1.080 -0.2862  0.0118  0.1083
 1017MOL0     C37207   7.105   1.389   1.084 -0.5089  0.0699 -0.5333
 1017MOL0     O37208   6.872   1.153   1.076 -0.2693  0.0083  1.2678
 1017MOL0     C37209   6.606   1.159   1.181  0.2555  0.1375 -0.3893
 1017MOL0     C37210   6.475   1.133   1.153  0.8049  0.3857 -0.7572
 1017MOL0     N37211   5.798   1.633   1.169 -0.0770  0.4834  0.6517
 1017MOL0     N37212   5.834   1.751   1.158 -0.8158 -0.3638 -0.4310
 1017MOL0     C37213   5.210   2.001   0.338 -0.0715  0.4926  0.5597
 1017MOL0     C37214   5.078   2.011   0.325  0.4073 -1.3939 -0.5380
 1017MOL0     C37215   4.625   2.037   0.452 -0.2813 -0.5275  0.4874
 1017MOL0     C37216   4.610   2.133   0.346 -0.7341  0.5623  0.3039
 1017MOL0     C37217   4.483   2.199   0.323 -0.3307  0.2466 -0.8513
 1017MOL0     C37218   4.382   2.191   0.424  0.1305 -0.5147  0.1626
 1017MOL0     O37219   4.272   2.261   0.400  0.2103  0.2839  0.7324
 1017MOL0     C37220   4.148   2.186   0.437 -0.3862 -1.1956  0.4444
 1017MOL0     C37221   4.035   2.251   0.358 -0.1420  0.3453 -0.1234
 1017MOL0     C37222   4.056   2.241   0.205 -0.5966  0.5279  0.1155
 1017MOL0     C37223   3.935   2.291   0.114 -0.0921  0.0516 -0.3785
 1017MOL0     C37224   3.936   2.276  -0.027 -0.5554  0.5159 -0.4965
 1017MOL0     C37225   3.952   2.267  -0.149  1.1858  0.0669  1.0076
 1017MOL0     C37226   4.412   2.110   0.527  1.1627 -0.5109 -0.5206
 1017MOL0     C37227   4.535   2.044   0.554 -0.7366  0.5595  0.0582
 1017MOL0     H37228   4.964   1.792   0.551 -1.5297 -0.4097 -1.6555
 1017MOL0     H37229   5.214   1.778   0.591  0.2838  1.3939  0.6840
 1017MOL0     H37230   5.422   2.033   0.627 -4.7752 -0.7293 -1.9747
 1017MOL0     H37231   5.389   1.870   0.657 -2.2016  0.4784 -0.7121
 1017MOL0     H37232   5.621   1.802   0.562 -1.5654  0.1344 -0.9847
 1017MOL0     H37233   5.655   1.964   0.518 -0.5808 -0.3804 -1.6968
 1017MOL0     H37234   5.679   2.036   0.767 -1.3615 -0.0133 -0.6494
 1017MOL0     H37235   5.617   1.869   0.813 -3.3527 -0.1056 -1.2411
 1017MOL0     H37236   5.805   1.761   0.724  2.8479 -0.6144  1.9139
 1017MOL0     H37237   5.852   1.895   0.620 -0.4802 -0.5065  0.2111
 1017MOL0     H37238   5.939   2.009   0.831  0.0602  0.3634  2.2183
 1017MOL0     H37239   5.821   1.910   0.918 -1.0055  1.8640  0.0817
 1017MOL0     H37240   5.981   1.715   0.881 -1.3027 -0.0296 -0.9296
 1017MOL0     H37241   6.079   1.793   0.769 -0.3532  0.7863 -0.7812
 1017MOL0     H37242   6.196   1.801   0.986 -0.2612 -1.0630 -1.6184
 1017MOL0     H37243   6.161   1.959   0.945  1.2241 -0.2814  2.0763
 1017MOL0     H37244   5.960   1.980   1.096  3.6049  3.4701  0.7482
 1017MOL0     H37245   6.102   1.937   1.172  0.5209  0.6644 -0.5438
 1017MOL0     H37246   6.122   1.612   1.159 -1.1305 -2.2959 -4.1993
 1017MOL0     H37247   5.880   1.384   1.262  1.3751 -1.4815 -0.4630
 1017MOL0     H37248   5.842   1.374   1.091 -3.3650  2.8243  1.4961
 1017MOL0     H37249   6.093   1.351   1.255 -2.4270 -2.0250  1.9190
 1017MOL0     H37250   6.094   1.384   1.066  0.7343 -0.2319  1.3720
 1017MOL0     H37251   5.983   1.184   1.039 -1.6769 -0.6200 -0.0247
 1017MOL0     H37252   5.972   1.151   1.208 -1.5370  3.8181  0.5520
 1017MOL0     H37253   6.175   1.021   1.128  3.1014 -0.4226  0.4757
 1017MOL0     H37254   6.216   1.140   1.236  2.2462 -2.0747 -0.4321
 1017MOL0     H37255   6.396   1.355   0.921  1.4433  1.4777 -0.2082
 1017MOL0     H37256   6.725   1.428   0.866  4.0597  0.3520  1.9189
 1017MOL0     H37257   6.586   1.527   0.922  0.2289 -0.2659 -0.6086
 1017MOL0     H37258   6.723   1.514   1.015  0.1913 -1.0473 -0.0641
 1017MOL0     H37259   7.004   1.229   1.364 -3.0825  1.3578 -2.2356
 1017MOL0     H37260   7.263   1.200   1.384  0.4729  2.8765  2.1561
 1017MOL0     H37261   7.561   1.140   1.114  1.0104  0.5107  0.6252
 1017MOL0     H37262   7.442   1.207   1.001  2.3744 -0.3472 -0.7462
 1017MOL0     H37263   7.585   1.441   1.044 -0.1402  0.6964 -1.2065
 1017MOL0     H37264   7.696   1.328   1.113  0.8890  0.3316 -1.0653
 1017MOL0     H37265   7.583   1.294   0.822 -0.1504  0.0325  0.2228
 1017MOL0     H37266   7.706   1.207   0.888 -1.8076 -0.2157 -1.0325
 1017MOL0     H37267   7.784   1.376   0.725  0.4045 -3.3368  0.6032
 1017MOL0     H37268   7.707   1.500   0.838 -0.2119  0.3198  1.7104
 1017MOL0     H37269   7.908   1.299   0.934 -4.2270 -0.0942  3.2994
 1017MOL0     H37270   7.876   1.441   1.014  3.3039  0.8955 -0.8555
 1017MOL0     H37271   8.106   1.460   0.896  0.5745  1.1117  0.1466
 1017MOL0     H37272   8.019   1.443   0.748  0.1795 -1.5678  0.0600
 1017MOL0     H37273   7.978   1.670   0.956  0.2634  1.7366 -0.8024
 1017MOL0     H37274   7.894   1.648   0.798  1.7819 -2.5845 -1.6806
 1017MOL0     H37275   8.194   1.683   0.784  0.6890  0.1763 -0.5384
 1017MOL0     H37276   8.078   1.819   0.759  4.8600  0.1102 -5.4223
 1017MOL0     H37277   7.308   1.399   0.996  1.3959 -3.4121 -0.0462
 1017MOL0     H37278   7.057   1.438   1.000  2.2974  2.7457 -0.7622
 1017MOL0     H37279   6.658   1.095   1.251 -2.2356 -0.1089  1.3466
 1017MOL0     H37280   6.427   1.043   1.190 -3.0421  1.6188 -2.2098
 1017MOL0     H37281   5.264   2.054   0.259  0.9292  1.5768  1.9182
 1017MOL0     H37282   5.043   2.092   0.262  1.7654  0.4386  0.9479
 1017MOL0     H37283   4.675   2.134   0.259  2.6284  0.0315  2.5978
 1017MOL0     H37284   4.476   2.255   0.230  1.3049 -0.1141 -1.2283
 1017MOL0     H37285   4.164   2.088   0.391 -1.8374  0.0271 -3.0436
 1017MOL0     H37286   4.132   2.187   0.545 -1.2807 -0.9236  0.3190
 1017MOL0     H37287   4.013   2.352   0.395 -1.3767  0.0161  0.0712
 1017MOL0     H37288   3.947   2.196   0.392  0.1568  0.3740  0.7230
 1017MOL0     H37289   4.086   2.140   0.179  0.9058 -0.2852  4.2955
 1017MOL0     H37290   4.148   2.298   0.191  0.3835 -1.2428 -0.9191
 1017MOL0     H37291   3.936   2.394   0.150  1.3642 -1.1590  3.6122
 1017MOL0     H37292   3.842   2.245   0.149 -0.2075  0.7593  0.2623
 1017MOL0     H37293   3.961   2.272  -0.256  1.6001 -0.8239  0.9967
 1017MOL0     H37294   4.330   2.083   0.593 -0.2956 -2.0559 -2.7918
 1017MOL0     H37295   4.551   1.995   0.650  1.1182 -2.3015 -1.5330
 1018MOL0     O37296   8.061   6.860   1.945  0.0667  0.2833  0.3682
 1018MOL0     C37297   8.116   6.927   1.861  0.5483  0.4850  0.3617
 1018MOL0     O37298   8.247   6.965   1.850 -0.4930 -0.0354  0.4408
 1018MOL0     C37299   8.339   6.920   1.936 -0.0150 -0.5907 -0.9340
 1018MOL0     C37300   8.333   6.915   2.083 -0.0556 -0.8070  0.8964
 1018MOL0     C37301   8.450   6.879   2.157  0.3491  1.1472  0.5663
 1018MOL0     C37302   8.568   6.842   2.090 -0.6129 -0.1411 -0.5220
 1018MOL0     O37303   8.680   6.779   2.141  0.0332  0.5334  0.6186
 1018MOL0     C37304   8.679   6.716   2.267 -0.7500  0.0728  0.6829
 1018MOL0     C37305   8.734   6.814   2.369  0.9729 -0.0300 -0.1330
 1018MOL0     C37306   8.754   6.746   2.509  0.9244  0.0785  0.1683
 1018MOL0     C37307   8.862   6.629   2.508  0.9098 -0.7390 -0.2322
 1018MOL0     C37308   8.881   6.574   2.648  0.2557  0.5029  0.2101
 1018MOL0     C37309   9.000   6.478   2.652 -0.3802 -0.4575 -0.6737
 1018MOL0     C37310   9.026   6.423   2.795 -1.3591  0.9081 -0.3220
 1018MOL0     C37311   8.945   6.295   2.821  0.4225  1.0688 -0.4453
 1018MOL0     N37312   8.994   6.209   2.932  1.3550 -0.1279 -0.5565
 1018MOL0     C37313   9.054   6.237   3.050  0.2780 -0.6278 -0.4541
 1018MOL0     C37314   9.084   6.121   3.101  0.5294  0.3191  1.3085
 1018MOL0     C37315   9.176   6.098   3.209  0.1054 -0.3747 -0.6987
 1018MOL0     C37316   9.113   6.022   3.325 -0.4938  0.0922  0.3315
 1018MOL0     C37317   9.149   5.869   3.321 -0.4002 -0.9963 -0.5871
 1018MOL0     C37318   9.087   5.772   3.421  0.6784  0.3159 -0.4621
 1018MOL0     O37319   8.945   5.769   3.429 -0.0700 -0.2479 -0.4028
 1018MOL0     C37320   8.900   5.641   3.446  0.5594 -0.5363 -0.0950
 1018MOL0     C37321   8.935   5.558   3.550  0.7322  0.4941  0.7471
 1018MOL0     C37322   8.865   5.435   3.559 -0.2244 -0.9628  0.4919
 1018MOL0     C37323   8.902   5.339   3.666  0.8852  0.0215  0.3132
 1018MOL0     C37324   8.754   5.406   3.470 -0.0261 -0.0784 -0.1211
 1018MOL0     C37325   8.660   5.292   3.482  0.6307  0.1048  0.0726
 1018MOL0     O37326   8.524   5.317   3.455 -0.1616  1.1692 -0.2643
 1018MOL0     C37327   8.439   5.233   3.517  0.6030  0.1264 -1.0246
 1018MOL0     C37328   8.351   5.170   3.431  0.4879 -0.0281 -0.0921
 1018MOL0     C37329   8.246   5.090   3.481  0.2225 -0.9298  0.1848
 1018MOL0     C37330   8.230   5.062   3.615  0.2613  0.0903  0.1472
 1018MOL0     O37331   8.113   4.994   3.650 -0.1119  0.2292 -0.5251
 1018MOL0     C37332   8.136   4.899   3.754 -0.0560  0.3584  0.2202
 1018MOL0     C37333   7.993   4.847   3.806 -0.4646 -0.3031 -0.7614
 1018MOL0     C37334   8.016   4.745   3.920 -0.5500 -0.2905 -0.5612
 1018MOL0     C37335   8.076   4.796   4.053  0.1163  0.0488 -0.1228
 1018MOL0     C37336   8.136   4.681   4.136 -0.0861  0.0558 -0.5509
 1018MOL0     C37337   8.042   4.597   4.226  0.2157  0.3797  0.7849
 1018MOL0     C37338   7.969   4.683   4.327  0.3438 -0.2266  0.3180
 1018MOL0     C37339   7.900   4.603   4.441 -0.9615 -0.2563 -0.9126
 1018MOL0    Cl37340   7.808   4.462   4.389 -0.0029  0.2176 -0.0622
 1018MOL0     C37341   8.315   5.133   3.708 -0.4555 -0.3928 -0.4718
 1018MOL0     C37342   8.430   5.204   3.661 -0.0904 -0.3015  0.6431
 1018MOL0     O37343   8.705   5.188   3.524 -0.9806  0.2827  0.5080
 1018MOL0     C37344   8.719   5.497   3.375  0.4065 -0.2871 -0.4804
 1018MOL0     C37345   8.795   5.608   3.362  0.3397 -0.9231  0.3061
 1018MOL0     N37346   9.032   6.016   3.024  0.9093 -0.2124 -0.4846
 1018MOL0     N37347   8.969   6.073   2.926 -0.0202 -0.4409 -0.1610
 1018MOL0     C37348   8.572   6.858   1.955 -0.0681 -0.4827 -0.4323
 1018MOL0     C37349   8.465   6.903   1.883  0.0397  0.1168 -1.1744
 1018MOL0     C37350   8.018   6.992   1.772  0.5538 -0.3746  0.2187
 1018MOL0     C37351   7.885   6.966   1.773 -0.2839 -0.2698 -0.5935
 1018MOL0     C37352   7.799   7.022   1.684 -0.2675  0.6371  0.3339
 1018MOL0     C37353   7.845   7.117   1.592  0.6523  0.4404  0.8422
 1018MOL0     O37354   7.768   7.160   1.480 -0.6488  0.4421 -0.2458
 1018MOL0     C37355   7.648   7.222   1.488  0.5094 -0.0282 -0.4700
 1018MOL0     C37356   7.569   7.188   1.366 -0.1231  0.4014 -0.3164
 1018MOL0     C37357   7.466   7.077   1.380  0.3491 -0.4154  0.0867
 1018MOL0     C37358   7.403   7.035   1.251 -0.8093  0.5903  1.9112
 1018MOL0     C37359   7.491   6.974   1.155 -0.7168 -0.2496 -0.1540
 1018MOL0     C37360   7.576   6.922   1.078 -0.1620  0.0704 -0.0114
 1018MOL0     C37361   7.979   7.156   1.599  0.8709 -0.9196  0.4408
 1018MOL0     C37362   8.062   7.099   1.696  0.3082 -0.6414 -0.2642
 1018MOL0     H37363   8.242   6.958   2.125 -0.7448 -0.8439 -0.4879
 1018MOL0     H37364   8.446   6.866   2.264 -4.8603  0.4666  0.5775
 1018MOL0     H37365   8.582   6.672   2.294 -1.3780  1.5252  0.9066
 1018MOL0     H37366   8.759   6.644   2.249 -0.6592 -0.3347  2.4885
 1018MOL0     H37367   8.828   6.859   2.336  1.6958 -1.4066 -0.0564
 1018MOL0     H37368   8.669   6.900   2.387 -1.1444 -0.8511 -3.1125
 1018MOL0     H37369   8.768   6.830   2.579  1.1907  1.5449 -1.5667
 1018MOL0     H37370   8.661   6.701   2.545  1.0012  0.7528  1.2783
 1018MOL0     H37371   8.826   6.557   2.433  0.1699 -0.9856  0.3554
 1018MOL0     H37372   8.955   6.671   2.468  0.8309  0.1746  0.5223
 1018MOL0     H37373   8.890   6.664   2.710  0.4698 -0.4834  1.6646
 1018MOL0     H37374   8.791   6.519   2.681  1.7103 -1.8242  0.5339
 1018MOL0     H37375   8.999   6.398   2.577 -4.2787  0.6916 -2.1286
 1018MOL0     H37376   9.079   6.546   2.620  0.0994 -0.8811 -0.3990
 1018MOL0     H37377   9.131   6.403   2.816 -1.7490 -0.7111  0.2134
 1018MOL0     H37378   8.989   6.502   2.860 -1.2300  0.7557 -0.0637
 1018MOL0     H37379   8.957   6.234   2.731 -0.6153 -0.7347  0.5856
 1018MOL0     H37380   8.840   6.318   2.836  0.4127  2.1940 -2.0180
 1018MOL0     H37381   9.073   6.335   3.093  0.0039 -1.3643  1.4635
 1018MOL0     H37382   9.265   6.051   3.165  1.3907  1.7104 -0.4570
 1018MOL0     H37383   9.206   6.196   3.245 -0.7192  0.1135 -1.3105
 1018MOL0     H37384   9.005   6.036   3.332 -0.5860 -0.2950 -0.2665
 1018MOL0     H37385   9.159   6.057   3.418  0.3389 -0.5183  0.1617
 1018MOL0     H37386   9.256   5.845   3.325 -0.3089 -0.4797  2.5996
 1018MOL0     H37387   9.107   5.841   3.224 -1.8007  2.1586 -1.0052
 1018MOL0     H37388   9.134   5.802   3.515  3.3669  2.3907 -2.2993
 1018MOL0     H37389   9.123   5.673   3.393 -1.0409 -0.4078 -0.2583
 1018MOL0     H37390   9.014   5.579   3.622  1.4807 -2.5019  0.9196
 1018MOL0     H37391   8.931   5.245   3.619  1.7741  0.7598 -0.6649
 1018MOL0     H37392   8.969   5.372   3.746 -0.4866 -1.0537  1.9699
 1018MOL0     H37393   8.816   5.315   3.728  2.0864 -2.8589  1.0081
 1018MOL0     H37394   8.371   5.198   3.329 -2.0563  0.7400 -0.4548
 1018MOL0     H37395   8.185   5.036   3.410 -1.3451  1.2622 -0.2396
 1018MOL0     H37396   8.199   4.816   3.721  0.5060  1.5163 -1.8157
 1018MOL0     H37397   8.180   4.955   3.838 -1.6610 -0.8627  1.9641
 1018MOL0     H37398   7.931   4.931   3.840 -1.3321 -2.4799  3.8142
 1018MOL0     H37399   7.938   4.807   3.721 -1.4632 -1.3408  0.3407
 1018MOL0     H37400   8.069   4.666   3.867 -1.6894 -1.7002  0.3304
 1018MOL0     H37401   7.917   4.711   3.952 -0.7878  1.8054  1.2577
 1018MOL0     H37402   8.157   4.862   4.021 -0.7796 -0.3668 -3.6790
 1018MOL0     H37403   8.001   4.844   4.118  0.5977 -0.7783  1.0845
 1018MOL0     H37404   8.217   4.719   4.199  1.0522 -0.6506 -1.5373
 1018MOL0     H37405   8.189   4.603   4.081 -1.0763 -1.3985  0.4865
 1018MOL0     H37406   7.970   4.561   4.152 -1.4499  1.6602  1.7032
 1018MOL0     H37407   8.098   4.510   4.261  1.7868 -0.2575 -2.8815
 1018MOL0     H37408   7.890   4.729   4.268 -1.1201 -1.9415  0.8323
 1018MOL0     H37409   8.036   4.761   4.363 -0.2528  1.8146 -2.6587
 1018MOL0     H37410   7.838   4.666   4.506 -0.5174 -2.8663  2.2672
 1018MOL0     H37411   7.976   4.553   4.500 -2.3249 -1.8320 -0.4263
 1018MOL0     H37412   8.305   5.119   3.815  0.1802 -0.9996 -0.4856
 1018MOL0     H37413   8.493   5.252   3.736 -0.2759 -1.2903  1.4504
 1018MOL0     H37414   8.627   5.498   3.317  0.7578 -1.0424 -1.0624
 1018MOL0     H37415   8.767   5.678   3.284  0.5379 -1.9771 -0.7252
 1018MOL0     H37416   8.670   6.844   1.909 -0.4132  0.8267 -1.6331
 1018MOL0     H37417   8.480   6.924   1.778 -1.3835  2.8004 -0.9366
 1018MOL0     H37418   7.844   6.891   1.840  0.3960  2.4161  3.0888
 1018MOL0     H37419   7.693   7.001   1.695 -0.4653 -0.1275 -2.3784
 1018MOL0     H37420   7.589   7.191   1.574 -3.3157 -1.9616 -3.4740
 1018MOL0     H37421   7.671   7.329   1.492  3.9257 -0.4867 -3.0068
 1018MOL0     H37422   7.628   7.171   1.275  0.3296  0.9127 -0.1243
 1018MOL0     H37423   7.515   7.282   1.349 -0.8206  0.1529  0.4863
 1018MOL0     H37424   7.389   7.094   1.456 -0.2300 -1.8397 -0.1403
 1018MOL0     H37425   7.527   6.995   1.419  1.7850  0.4710 -0.2416
 1018MOL0     H37426   7.347   7.117   1.204 -0.6061  0.1410  0.8593
 1018MOL0     H37427   7.343   6.943   1.255  4.4692 -3.2885  2.4340
 1018MOL0     H37428   7.654   6.875   1.021  1.8376  3.9459 -0.7654
 1018MOL0     H37429   8.021   7.222   1.524 -0.3884 -0.0322  0.4903
 1018MOL0     H37430   8.165   7.130   1.701  0.5217 -0.3783 -3.9823
 1019MOL0     O37431   3.251  11.396   1.835 -0.2733  0.5178  0.7872
 1019MOL0     C37432   3.374  11.385   1.815 -0.2983  0.1763 -0.3739
 1019MOL0     O37433   3.461  11.361   1.913 -0.5067 -0.0323 -0.0652
 1019MOL0     C37434   3.428  11.323   2.041  0.6341  0.2384 -0.1265
 1019MOL0     C37435   3.323  11.235   2.082 -0.1415  0.2265 -0.2372
 1019MOL0     C37436   3.297  11.207   2.222  0.1946 -0.2042  1.1014
 1019MOL0     C37437   3.386  11.251   2.313  0.8190  1.2651  0.0949
 1019MOL0     O37438   3.368  11.202   2.435 -0.7020  0.0032 -1.4817
 1019MOL0     C37439   3.403  11.287   2.539  0.0131 -0.3847  0.0832
 1019MOL0     C37440   3.293  11.373   2.595  0.9893  0.1135 -0.8032
 1019MOL0     C37441   3.214  11.448   2.492 -0.1018  0.4626 -0.4854
 1019MOL0     C37442   3.107  11.530   2.542 -1.3679  0.1860 -0.6027
 1019MOL0     C37443   3.055  11.632   2.438 -0.7687  1.2024  0.5825
 1019MOL0     C37444   2.928  11.692   2.493  0.3162  0.3174 -0.2865
 1019MOL0     C37445   2.849  11.764   2.377  0.5747  0.2533 -1.0052
 1019MOL0     C37446   2.739  11.859   2.420  0.0745 -0.1078 -0.2994
 1019MOL0     N37447   2.669  11.907   2.308  0.9955  0.8301 -0.5700
 1019MOL0     C37448   2.707  12.018   2.240 -0.1246  0.6529  0.5751
 1019MOL0     C37449   2.622  12.020   2.129 -0.5809 -0.4419 -0.7354
 1019MOL0     C37450   2.625  12.121   2.021  0.4703 -0.2379 -0.9708
 1019MOL0     C37451   2.658  12.058   1.885 -0.3047 -0.5135  0.4094
 1019MOL0     C37452   2.724  12.158   1.800  0.6775  1.5568 -0.0177
 1019MOL0     C37453   2.755  12.089   1.667  0.7024 -0.1435  0.1832
 1019MOL0     O37454   2.862  11.985   1.687 -0.3079  0.1232  1.4841
 1019MOL0     C37455   2.945  11.948   1.582  0.2249 -0.7394  0.5351
 1019MOL0     C37456   3.071  11.907   1.623  0.4408  0.7541 -0.2752
 1019MOL0     C37457   3.166  11.846   1.545 -0.5242  0.3874  0.0566
 1019MOL0     C37458   3.289  11.803   1.614 -0.2575  0.0511 -0.8234
 1019MOL0     C37459   3.126  11.823   1.412  0.4071  0.0302  0.1672
 1019MOL0     C37460   3.213  11.748   1.318  1.0979  0.1394  1.0715
 1019MOL0     O37461   3.136  11.688   1.211 -0.7123 -0.1784  0.5531
 1019MOL0     C37462   3.200  11.617   1.106  0.1118  0.4145 -0.6402
 1019MOL0     C37463   3.167  11.484   1.086 -0.0023 -0.0557 -0.0806
 1019MOL0     C37464   3.211  11.425   0.967 -0.1066 -0.6262  0.1196
 1019MOL0     C37465   3.285  11.492   0.867 -0.3598  0.5142 -0.7369
 1019MOL0     O37466   3.314  11.425   0.751  0.1457  0.0233 -0.5938
 1019MOL0     C37467   3.376  11.488   0.639 -0.1245  0.4215 -0.2790
 1019MOL0     C37468   3.407  11.410   0.517 -0.9505  0.2312 -0.5791
 1019MOL0     C37469   3.301  11.316   0.468 -0.1527 -0.2846 -1.0662
 1019MOL0     C37470   3.362  11.226   0.355 -0.0370 -0.3979  0.6333
 1019MOL0     C37471   3.273  11.100   0.320  0.2777  0.9465 -0.5379
 1019MOL0     C37472   3.124  11.142   0.298 -0.5228  0.6998  1.0372
 1019MOL0     C37473   3.043  11.021   0.244 -0.4060 -0.1724 -0.7012
 1019MOL0     C37474   2.892  11.056   0.233  0.8395  0.2290 -0.3200
 1019MOL0    Cl37475   2.781  10.915   0.266 -0.2098  0.0312 -0.1656
 1019MOL0     C37476   3.331  11.621   0.899  0.7397 -0.1806 -1.2642
 1019MOL0     C37477   3.273  11.685   1.008  0.2348  0.4411 -0.8027
 1019MOL0     O37478   3.326  11.735   1.343 -0.3831 -0.3678 -0.0148
 1019MOL0     C37479   3.004  11.882   1.357  0.0510 -0.3130 -0.7093
 1019MOL0     C37480   2.920  11.950   1.447  0.6730 -1.5806 -1.1324
 1019MOL0     N37481   2.539  11.917   2.138  0.6258 -0.5274 -0.7058
 1019MOL0     N37482   2.570  11.844   2.242 -0.4729 -0.1013  0.5057
 1019MOL0     C37483   3.507  11.304   2.268 -0.5946  0.1839 -0.2752
 1019MOL0     C37484   3.526  11.353   2.133 -0.6793  0.5958 -0.9306
 1019MOL0     C37485   3.435  11.389   1.683 -0.9180 -0.1842 -0.3894
 1019MOL0     C37486   3.369  11.450   1.567  0.2796  0.5063 -0.5134
 1019MOL0     C37487   3.424  11.447   1.437  0.5270 -0.2744 -0.3908
 1019MOL0     C37488   3.547  11.381   1.420  0.3589 -0.7302 -0.3141
 1019MOL0     O37489   3.606  11.372   1.298  0.2209  0.3910 -0.1267
 1019MOL0     C37490   3.605  11.484   1.223  0.2556 -0.6223 -0.1880
 1019MOL0     C37491   3.698  11.483   1.095 -0.9618 -0.8235 -0.1027
 1019MOL0     C37492   3.838  11.425   1.115  0.4051 -1.1502  0.2476
 1019MOL0     C37493   3.907  11.472   1.240  0.0139 -0.4564  0.5997
 1019MOL0     C37494   3.933  11.614   1.230  0.5341  0.4149  0.4805
 1019MOL0     C37495   3.965  11.728   1.227 -0.5041 -0.0944  0.6126
 1019MOL0     C37496   3.609  11.320   1.528  0.8992 -0.1082  0.4813
 1019MOL0     C37497   3.555  11.325   1.658 -0.2740 -0.1527  0.4277
 1019MOL0     H37498   3.247  11.198   2.013  0.6075  0.1974 -1.0513
 1019MOL0     H37499   3.211  11.147   2.251  2.0999 -3.6819  0.2195
 1019MOL0     H37500   3.439  11.223   2.620  0.3065  1.1018  1.1707
 1019MOL0     H37501   3.490  11.349   2.517  2.6117 -2.4147  3.5585
 1019MOL0     H37502   3.223  11.308   2.649  2.1677 -1.7655 -1.4553
 1019MOL0     H37503   3.330  11.440   2.672 -2.8460  0.2413  1.1566
 1019MOL0     H37504   3.280  11.501   2.423  0.1261 -1.1130 -1.5395
 1019MOL0     H37505   3.166  11.375   2.426  0.6277 -1.8380  1.4004
 1019MOL0     H37506   3.032  11.465   2.588  1.8864 -3.2966  0.3190
 1019MOL0     H37507   3.154  11.585   2.624  3.3239 -0.2694 -2.7068
 1019MOL0     H37508   3.139  11.702   2.427  0.0604  0.3461  1.2862
 1019MOL0     H37509   3.038  11.582   2.342 -0.7273  0.5620  0.9001
 1019MOL0     H37510   2.862  11.625   2.548  2.5183 -2.3186 -0.6741
 1019MOL0     H37511   2.966  11.765   2.566  0.1627 -0.9591  1.1310
 1019MOL0     H37512   2.916  11.821   2.312  1.2313 -1.1151 -1.5662
 1019MOL0     H37513   2.806  11.683   2.318 -1.7418 -0.6217  1.6192
 1019MOL0     H37514   2.787  11.940   2.476  1.5035 -0.8851 -0.3649
 1019MOL0     H37515   2.670  11.804   2.484 -0.4241 -1.5252 -2.0003
 1019MOL0     H37516   2.786  12.091   2.252 -0.6498  1.7992 -2.2015
 1019MOL0     H37517   2.530  12.175   2.021  0.5798  0.0859  1.6074
 1019MOL0     H37518   2.694  12.203   2.046 -1.2660  1.6650 -2.1150
 1019MOL0     H37519   2.570  12.015   1.835 -0.6118  1.5789 -0.9676
 1019MOL0     H37520   2.737  11.984   1.900 -0.5770 -1.3224 -1.6900
 1019MOL0     H37521   2.817  12.186   1.850  0.1132  1.9307  0.8481
 1019MOL0     H37522   2.655  12.241   1.779 -0.3690  0.1043 -2.8195
 1019MOL0     H37523   2.793  12.164   1.597 -1.6388  1.0331  0.0761
 1019MOL0     H37524   2.662  12.047   1.627 -0.5591  2.0609  0.6721
 1019MOL0     H37525   3.074  11.900   1.731 -1.7339  2.2996 -0.0470
 1019MOL0     H37526   3.374  11.842   1.557  0.1305 -1.3143 -1.2318
 1019MOL0     H37527   3.287  11.839   1.717  0.8541 -0.6428 -0.5390
 1019MOL0     H37528   3.293  11.695   1.634  0.5178  0.8159  4.7917
 1019MOL0     H37529   3.095  11.422   1.138 -2.5699  1.2336 -1.8790
 1019MOL0     H37530   3.196  11.320   0.947 -0.5943 -0.9219  1.8402
 1019MOL0     H37531   3.322  11.576   0.604 -0.5866 -0.7271 -2.6626
 1019MOL0     H37532   3.473  11.526   0.675 -0.7404  3.1671 -1.2174
 1019MOL0     H37533   3.417  11.491   0.444  0.1257  1.0266  0.3988
 1019MOL0     H37534   3.498  11.350   0.529 -1.2750 -0.7552 -2.5875
 1019MOL0     H37535   3.212  11.371   0.437  0.7589  0.6658 -2.0606
 1019MOL0     H37536   3.266  11.252   0.550 -0.3218  0.4394 -0.5653
 1019MOL0     H37537   3.381  11.290   0.268 -2.4660 -3.5053 -2.4737
 1019MOL0     H37538   3.458  11.185   0.388  1.8019  2.0346 -1.2516
 1019MOL0     H37539   3.260  11.035   0.407 -4.8389 -0.0881 -1.7255
 1019MOL0     H37540   3.307  11.037   0.237 -3.6184 -3.6001  0.8196
 1019MOL0     H37541   3.074  11.174   0.390  0.0966 -1.7757  2.3285
 1019MOL0     H37542   3.132  11.216   0.217  5.2778  0.0057  0.5287
 1019MOL0     H37543   3.052  10.940   0.316  3.1091  2.4652  2.2014
 1019MOL0     H37544   3.071  11.000   0.140 -0.3748  1.4001 -1.0368
 1019MOL0     H37545   2.873  11.095   0.132 -0.1187 -3.7355 -1.8702
 1019MOL0     H37546   2.878  11.134   0.309 -0.9179  0.8785 -1.2278
 1019MOL0     H37547   3.400  11.663   0.827  1.4409  1.2081  0.1290
 1019MOL0     H37548   3.295  11.792   1.012 -1.3000  0.9197 -3.1431
 1019MOL0     H37549   2.969  11.864   1.256 -0.6913 -1.5250 -0.2605
 1019MOL0     H37550   2.825  11.999   1.427  0.4140 -0.7448  1.7203
 1019MOL0     H37551   3.597  11.323   2.325  2.4676 -1.0997 -4.2186
 1019MOL0     H37552   3.614  11.402   2.090  0.3250  2.4190  2.7835
 1019MOL0     H37553   3.263  11.472   1.571  0.2185  0.1134  0.3616
 1019MOL0     H37554   3.360  11.475   1.354 -2.1765  0.4197  1.7938
 1019MOL0     H37555   3.503  11.509   1.189  0.3401  4.6129  2.3682
 1019MOL0     H37556   3.640  11.572   1.278 -0.3289 -0.7817  0.4581
 1019MOL0     H37557   3.697  11.586   1.059 -1.7914  0.6073  3.5466
 1019MOL0     H37558   3.653  11.405   1.033 -0.3549 -1.7317  0.5632
 1019MOL0     H37559   3.910  11.435   1.033  2.0650 -0.2572  1.7673
 1019MOL0     H37560   3.826  11.317   1.128 -0.9444 -0.8199  2.2899
 1019MOL0     H37561   4.003  11.425   1.260  0.2197  0.2468  1.2980
 1019MOL0     H37562   3.849  11.446   1.329 -0.4082  0.0745  0.4933
 1019MOL0     H37563   3.990  11.830   1.247  1.0625 -0.6716  1.8209
 1019MOL0     H37564   3.710  11.282   1.521  0.3437 -1.5115 -0.5432
 1019MOL0     H37565   3.617  11.293   1.741  0.0559  1.8839  1.0325
 1020MOL0     O37566  10.718  10.107   1.793 -0.2277 -0.1883 -0.1159
 1020MOL0     C37567  10.732  10.215   1.847  0.3085 -0.0516  0.1816
 1020MOL0     O37568  10.819  10.312   1.817  0.5582  0.4218 -0.5329
 1020MOL0     C37569  10.912  10.279   1.723 -0.4843 -0.2648 -0.2500
 1020MOL0     C37570  11.049  10.293   1.767 -0.0104  0.1391  0.1799
 1020MOL0     C37571  11.156  10.255   1.689 -0.0070  0.3162  0.3603
 1020MOL0     C37572  11.138  10.212   1.555  0.6026  0.2007 -1.3721
 1020MOL0     O37573  11.250  10.202   1.489  0.2972  0.0376 -0.0064
 1020MOL0     C37574  11.253  10.127   1.365 -0.5704  0.4662 -0.0768
 1020MOL0     C37575  11.400  10.100   1.314 -0.2574  0.6455 -0.6422
 1020MOL0     C37576  11.419   9.958   1.256 -0.4720 -0.0920  0.3256
 1020MOL0     C37577  11.571   9.935   1.215 -0.6250 -0.8347 -0.1899
 1020MOL0     C37578  11.598   9.805   1.143 -0.0816 -0.3208 -0.2449
 1020MOL0     C37579  11.529   9.676   1.191 -1.1281 -0.9500 -0.9301
 1020MOL0     C37580  11.412   9.661   1.094 -0.2624  0.0893  0.2153
 1020MOL0     C37581  11.334   9.537   1.125  0.1649 -0.6680 -0.6789
 1020MOL0     N37582  11.274   9.543   1.260 -0.7107 -0.1675 -0.1623
 1020MOL0     C37583  11.181   9.634   1.304  0.2656  0.1044 -0.1840
 1020MOL0     C37584  11.173   9.614   1.432 -0.2747 -0.2127 -0.9647
 1020MOL0     C37585  11.098   9.691   1.542 -0.2812  0.1480  0.2259
 1020MOL0     C37586  11.184   9.750   1.660  0.0159 -0.0185 -0.1937
 1020MOL0     C37587  11.074   9.790   1.774 -0.0959 -0.2087 -0.7122
 1020MOL0     C37588  11.131   9.841   1.910  0.5236  0.3721  0.6644
 1020MOL0     O37589  11.231   9.939   1.890  0.7273 -0.3764  0.0765
 1020MOL0     C37590  11.299   9.972   2.007  0.4696  0.5436 -0.4157
 1020MOL0     C37591  11.437   9.940   2.022  0.4169  0.3531  0.6195
 1020MOL0     C37592  11.507   9.949   2.138  0.7688 -0.1652  0.3903
 1020MOL0     C37593  11.663   9.923   2.124  0.3098 -0.1303 -0.7750
 1020MOL0     C37594  11.442   9.974   2.260  0.3119  0.4581 -0.1009
 1020MOL0     C37595  11.508   9.980   2.401  0.4727 -0.3372  0.2490
 1020MOL0     O37596  11.622   9.923   2.415  0.4646  0.4414  0.2718
 1020MOL0     C37597  11.687   9.909   2.534 -0.6274  0.1589  0.0253
 1020MOL0     C37598  11.620   9.853   2.648 -0.6623  0.4240 -0.0372
 1020MOL0     C37599  11.692   9.837   2.766 -0.0039 -0.4472  0.6249
 1020MOL0     C37600  11.824   9.875   2.782 -1.1244  0.1848 -0.9615
 1020MOL0     O37601  11.878   9.864   2.907  0.1651 -0.0435 -0.5536
 1020MOL0     C37602  12.018   9.846   2.913  0.6354 -0.1998  0.2692
 1020MOL0     C37603  12.055   9.822   3.052  0.6532  0.1434  0.2033
 1020MOL0     C37604  11.998   9.923   3.150 -0.2377 -0.1453 -0.0462
 1020MOL0     C37605  12.020  10.064   3.110 -0.0344 -0.3297 -0.6853
 1020MOL0     C37606  11.949  10.171   3.199  0.6288 -0.7725 -1.2124
 1020MOL0     C37607  11.794  10.147   3.197  0.0245 -0.2933 -0.1685
 1020MOL0     C37608  11.721  10.252   3.272  1.1649  1.0567  0.5543
 1020MOL0     C37609  11.649  10.191   3.401  0.1798 -0.5205  0.1245
 1020MOL0    Cl37610  11.533  10.315   3.460 -0.1755 -0.1780  0.2027
 1020MOL0     C37611  11.882   9.938   2.669  0.1431  0.8742  0.0724
 1020MOL0     C37612  11.819   9.950   2.546 -0.4658  0.6422  1.4958
 1020MOL0     O37613  11.443  10.048   2.484 -0.3479  0.5235 -0.3396
 1020MOL0     C37614  11.307  10.014   2.241  1.0299  1.1394 -0.4215
 1020MOL0     C37615  11.231  10.022   2.115  0.4813 -0.8525 -0.2167
 1020MOL0     N37616  11.260   9.512   1.469 -0.2109  0.5226 -0.0005
 1020MOL0     N37617  11.307   9.466   1.359  0.4804  0.1568  0.0606
 1020MOL0     C37618  11.007  10.200   1.502  0.2710 -0.4304 -0.7684
 1020MOL0     C37619  10.895  10.231   1.591 -0.6426  0.7227 -0.5632
 1020MOL0     C37620  10.605  10.251   1.933  0.2870  0.2308 -0.3063
 1020MOL0     C37621  10.496  10.166   1.956 -0.1057  0.2419  0.1003
 1020MOL0     C37622  10.393  10.202   2.047 -0.2252  0.4812 -0.4947
 1020MOL0     C37623  10.392  10.314   2.109  0.0943 -0.5021 -0.8684
 1020MOL0     O37624  10.286  10.338   2.191  0.1820  0.4185 -0.4384
 1020MOL0     C37625  10.233  10.473   2.202  0.4387  0.4519 -0.3663
 1020MOL0     C37626  10.072  10.484   2.207 -1.3623  0.5402  0.5620
 1020MOL0     C37627  10.039  10.630   2.225  0.3067  0.3721 -0.0083
 1020MOL0     C37628   9.896  10.654   2.164  0.0445  0.0679 -0.4076
 1020MOL0     C37629   9.892  10.789   2.092 -0.9263  1.0174  0.1217
 1020MOL0     C37630   9.880  10.884   2.016  0.4121  0.9602 -0.3887
 1020MOL0     C37631  10.493  10.397   2.086  0.5169 -0.1224 -0.3495
 1020MOL0     C37632  10.606  10.368   2.014  0.3015  0.5494 -0.0229
 1020MOL0     H37633  11.081  10.326   1.866  0.8644 -1.5753  0.5167
 1020MOL0     H37634  11.256  10.260   1.730 -0.2270 -4.2549  1.9647
 1020MOL0     H37635  11.207  10.028   1.371 -0.4520  0.3091 -1.5428
 1020MOL0     H37636  11.202  10.181   1.286  0.2739 -2.0897 -2.5257
 1020MOL0     H37637  11.393  10.172   1.233 -1.8828  3.1285  1.5215
 1020MOL0     H37638  11.474  10.122   1.391 -1.6114 -0.7386  1.1773
 1020MOL0     H37639  11.401   9.880   1.331  3.0289  1.3857  3.0266
 1020MOL0     H37640  11.354   9.938   1.170  2.2545 -2.1969 -1.4020
 1020MOL0     H37641  11.609  10.017   1.154  3.1930 -3.2680 -1.4351
 1020MOL0     H37642  11.636   9.935   1.302 -2.0950 -1.1825  0.9546
 1020MOL0     H37643  11.573   9.831   1.040 -2.4952 -0.1107  0.3210
 1020MOL0     H37644  11.704   9.789   1.166 -0.2693 -0.1964  0.7764
 1020MOL0     H37645  11.596   9.590   1.194 -1.8750 -1.5760  2.9673
 1020MOL0     H37646  11.506   9.678   1.298  1.0184  1.6534 -0.3957
 1020MOL0     H37647  11.351   9.750   1.083  0.5100  0.3425 -2.8687
 1020MOL0     H37648  11.467   9.640   1.002  2.0477 -1.6687  1.8737
 1020MOL0     H37649  11.403   9.456   1.101  2.2224  0.8515 -0.1678
 1020MOL0     H37650  11.254   9.542   1.050 -2.3718  1.3200  1.8901
 1020MOL0     H37651  11.130   9.714   1.251 -1.9055  0.0927  1.7549
 1020MOL0     H37652  11.031   9.761   1.490 -2.1993 -1.6216  0.2039
 1020MOL0     H37653  11.028   9.620   1.586  2.2609 -2.5164  0.2827
 1020MOL0     H37654  11.235   9.844   1.638  0.0850  0.6542  2.5020
 1020MOL0     H37655  11.259   9.684   1.703  0.7431  2.2559  2.3319
 1020MOL0     H37656  11.000   9.714   1.798  1.8853 -2.3527 -1.0506
 1020MOL0     H37657  11.015   9.868   1.725 -0.8529 -1.6345 -2.1455
 1020MOL0     H37658  11.181   9.760   1.963  2.9229  0.7241 -0.8928
 1020MOL0     H37659  11.049   9.880   1.972 -2.5800 -0.6062 -2.4741
 1020MOL0     H37660  11.485   9.901   1.932  0.6274  0.4628  0.6845
 1020MOL0     H37661  11.718   9.996   2.185 -1.4726 -0.5636  1.4808
 1020MOL0     H37662  11.676   9.831   2.181  1.4183  1.7106  2.2381
 1020MOL0     H37663  11.696   9.902   2.022  2.0046  0.0110 -0.2921
 1020MOL0     H37664  11.519   9.816   2.644  0.5564 -3.1187 -2.3047
 1020MOL0     H37665  11.635   9.806   2.853 -1.9542  0.2810 -0.3332
 1020MOL0     H37666  12.045   9.777   2.833  0.3138 -0.1963  0.1559
 1020MOL0     H37667  12.083   9.925   2.875 -0.4048  0.4735 -0.1885
 1020MOL0     H37668  12.004   9.731   3.087  1.8532  0.2994  2.5879
 1020MOL0     H37669  12.164   9.830   3.054  0.6781  0.8234 -1.7353
 1020MOL0     H37670  12.045   9.906   3.248  0.3600  1.5950 -0.0001
 1020MOL0     H37671  11.889   9.914   3.151 -0.4415  1.4813 -1.9422
 1020MOL0     H37672  12.125  10.095   3.106 -0.4237  1.1689 -0.1038
 1020MOL0     H37673  11.983  10.102   3.014  1.3662  1.0163 -0.7362
 1020MOL0     H37674  11.971  10.268   3.155  2.1384  0.7715  2.5501
 1020MOL0     H37675  11.989  10.180   3.300  0.6715 -0.1093 -1.2868
 1020MOL0     H37676  11.773  10.150   3.090 -0.9235  0.7577  0.0294
 1020MOL0     H37677  11.770  10.053   3.247  1.9994 -0.1713  1.1437
 1020MOL0     H37678  11.641  10.297   3.214  0.4568 -1.4870 -0.5865
 1020MOL0     H37679  11.789  10.333   3.300  1.7664  0.3064  1.3542
 1020MOL0     H37680  11.733  10.162   3.465  2.0212 -2.5657 -2.9217
 1020MOL0     H37681  11.588  10.103   3.380  0.0535 -0.2376 -0.7608
 1020MOL0     H37682  11.987   9.967   2.675 -0.0263  2.9074 -3.5806
 1020MOL0     H37683  11.872   9.990   2.461 -0.7164  0.8895  1.4511
 1020MOL0     H37684  11.246  10.010   2.331 -1.1417 -0.1940 -1.8615
 1020MOL0     H37685  11.126  10.045   2.101 -0.0971 -0.6974  3.5615
 1020MOL0     H37686  10.988  10.166   1.401  0.5796  3.1990 -2.2156
 1020MOL0     H37687  10.794  10.209   1.558 -0.4502  1.1533 -1.4731
 1020MOL0     H37688  10.496  10.065   1.915 -0.7559 -0.6110  2.0770
 1020MOL0     H37689  10.315  10.130   2.071  0.9153 -0.7057 -0.2369
 1020MOL0     H37690  10.282  10.520   2.288  0.3535 -2.7791  1.6210
 1020MOL0     H37691  10.244  10.521   2.104 -3.7169  0.4299 -1.0632
 1020MOL0     H37692  10.024  10.437   2.293 -1.2977  0.6314  0.6470
 1020MOL0     H37693  10.033  10.442   2.114  1.1978  1.1968 -0.9088
 1020MOL0     H37694  10.103  10.700   2.171  1.6049 -0.9717 -0.2828
 1020MOL0     H37695  10.044  10.654   2.331 -1.2664  0.4971  0.0598
 1020MOL0     H37696   9.814  10.642   2.236 -2.1535 -0.3460 -2.8473
 1020MOL0     H37697   9.881  10.573   2.092  0.8189  0.4829 -1.0592
 1020MOL0     H37698   9.864  10.961   1.943 -3.4214  0.8248  0.1038
 1020MOL0     H37699  10.494  10.490   2.142 -0.1493 -0.2035 -0.1993
 1020MOL0     H37700  10.693  10.431   2.028 -0.1553  1.2217 -0.1689
 1021MOL0     O37701   6.340   1.888   8.424 -0.2131 -0.3413  0.3528
 1021MOL0     C37702   6.286   1.776   8.431 -0.4353 -1.0600  0.4986
 1021MOL0     O37703   6.153   1.756   8.442 -0.2740  0.2240 -0.1249
 1021MOL0     C37704   6.079   1.866   8.479  0.6931 -0.2494  0.1676
 1021MOL0     C37705   6.094   1.900   8.612 -0.0577 -0.1171  0.9343
 1021MOL0     C37706   6.021   2.005   8.661 -0.1739 -0.3404 -0.4690
 1021MOL0     C37707   5.931   2.077   8.579 -0.5520 -1.2347  0.2845
 1021MOL0     O37708   5.856   2.180   8.633 -0.6806  0.6657  0.7442
 1021MOL0     C37709   5.717   2.181   8.625 -0.6834 -0.1518  0.8332
 1021MOL0     C37710   5.659   2.254   8.745  0.2375 -0.7263 -1.2403
 1021MOL0     C37711   5.649   2.161   8.864  0.5624 -0.1817 -0.2697
 1021MOL0     C37712   5.586   2.211   8.990 -0.8288  0.6098 -0.0274
 1021MOL0     C37713   5.626   2.130   9.109  0.2093 -0.7745  0.7028
 1021MOL0     C37714   5.579   2.215   9.224 -0.1988  0.1145  0.1042
 1021MOL0     C37715   5.563   2.149   9.357 -0.1870 -0.0183 -0.2566
 1021MOL0     C37716   5.686   2.153   9.449 -0.5869  0.8184 -0.6377
 1021MOL0     N37717   5.635   2.060   9.555 -0.5681 -0.5269 -0.6556
 1021MOL0     C37718   5.564   2.105   9.663 -1.2629 -0.3133 -0.5245
 1021MOL0     C37719   5.555   1.992   9.745 -0.1571  0.5172  0.1454
 1021MOL0     C37720   5.478   1.995   9.867  0.2635 -0.5505  0.3352
 1021MOL0     C37721   5.363   1.881   9.876  0.3899 -0.1044 -1.3649
 1021MOL0     C37722   5.273   1.891   9.997  0.5445  0.1231  0.7311
 1021MOL0     C37723   5.316   2.004  10.104  0.8055  0.3530 -0.5746
 1021MOL0     O37724   5.229   1.994  10.214 -1.0705 -0.0377 -0.4707
 1021MOL0     C37725   5.240   1.894  10.316  0.1653  0.1284 -0.1135
 1021MOL0     C37726   5.163   1.921  10.427  0.1308  0.4162  0.8116
 1021MOL0     C37727   5.155   1.837  10.541  0.0008  0.2795 -0.4491
 1021MOL0     C37728   5.055   1.890  10.644  0.0061 -0.1518 -0.6505
 1021MOL0     C37729   5.226   1.711  10.537 -0.1948 -1.0185 -0.1553
 1021MOL0     C37730   5.235   1.611  10.642  0.4648  0.5665 -0.0914
 1021MOL0     O37731   5.314   1.492  10.627  0.1113  0.3569 -0.2120
 1021MOL0     C37732   5.290   1.395  10.723  0.0416  0.1396 -0.0528
 1021MOL0     C37733   5.183   1.317  10.717  0.1263  0.6749 -1.1794
 1021MOL0     C37734   5.158   1.221  10.822 -0.1935 -0.0109  0.0843
 1021MOL0     C37735   5.249   1.206  10.925 -0.4896 -0.0599 -0.1650
 1021MOL0     O37736   5.223   1.101  11.009  0.1606  0.0509  0.1670
 1021MOL0     C37737   5.323   1.073  11.106 -0.0035 -0.1437  0.1223
 1021MOL0     C37738   5.351   0.921  11.107  0.1779  0.2560  0.1060
 1021MOL0     C37739   5.362   0.858  10.963  0.2330  0.5129  0.1207
 1021MOL0     C37740   5.458   0.740  10.945  0.5449 -0.4917  0.4725
 1021MOL0     C37741   5.461   0.673  10.800 -0.1014 -0.1295  0.1463
 1021MOL0     C37742   5.352   0.563  10.788  0.2605 -0.6425 -0.5003
 1021MOL0     C37743   5.379   0.430  10.871  0.3698  0.0962  0.2432
 1021MOL0     C37744   5.305   0.309  10.850 -0.8592 -0.9029 -0.4991
 1021MOL0    Cl37745   5.137   0.321  10.899 -0.4912  0.1915  0.5716
 1021MOL0     C37746   5.355   1.298  10.925  0.0577 -0.1888  0.0784
 1021MOL0     C37747   5.382   1.390  10.828 -0.2160 -0.4072 -0.4231
 1021MOL0     O37748   5.168   1.636  10.737  0.3175 -1.2294  0.7646
 1021MOL0     C37749   5.305   1.687  10.418 -0.5512  0.0209 -1.1408
 1021MOL0     C37750   5.302   1.775  10.308 -0.2057  0.4649  0.8198
 1021MOL0     N37751   5.617   1.882   9.688 -0.0017 -0.3355 -0.7925
 1021MOL0     N37752   5.660   1.927   9.583  0.3518  0.6035 -0.6966
 1021MOL0     C37753   5.913   2.039   8.452 -0.3536 -0.0886  0.2546
 1021MOL0     C37754   5.984   1.933   8.400 -0.3740  0.4348  0.9977
 1021MOL0     C37755   6.379   1.649   8.417 -0.1826  0.5566  0.0807
 1021MOL0     C37756   6.518   1.651   8.420 -0.2634 -0.6645  0.7161
 1021MOL0     C37757   6.589   1.535   8.408 -1.0611  0.1678 -0.3214
 1021MOL0     C37758   6.535   1.407   8.396 -0.5542 -0.8437 -0.3147
 1021MOL0     O37759   6.605   1.284   8.382 -0.0167  0.4771  0.6567
 1021MOL0     C37760   6.746   1.288   8.413 -0.5116 -0.5366 -0.7706
 1021MOL0     C37761   6.795   1.150   8.392  0.6967  0.4111  0.2795
 1021MOL0     C37762   6.828   1.113   8.243 -0.0213 -0.3885  0.3322
 1021MOL0     C37763   6.713   1.037   8.166 -0.5416  0.0596 -0.0972
 1021MOL0     C37764   6.739   1.023   8.023  0.0877  0.6323 -0.0414
 1021MOL0     C37765   6.768   1.019   7.907  0.8885  0.1436  0.0269
 1021MOL0     C37766   6.395   1.405   8.380 -0.6687 -0.5538 -0.3639
 1021MOL0     C37767   6.319   1.521   8.396 -0.4845 -0.3195  0.7214
 1021MOL0     H37768   6.172   1.843   8.661 -1.5028 -4.2902 -1.1238
 1021MOL0     H37769   6.044   2.033   8.763  5.1983  2.2962 -2.0374
 1021MOL0     H37770   5.689   2.249   8.544 -0.0154 -1.1719 -0.2913
 1021MOL0     H37771   5.667   2.086   8.607  1.0847 -0.9627 -0.0083
 1021MOL0     H37772   5.713   2.344   8.775  0.3109 -0.8597 -0.9640
 1021MOL0     H37773   5.557   2.282   8.720  0.4169  2.2891  0.8549
 1021MOL0     H37774   5.602   2.063   8.847 -0.3713 -0.5001  3.2585
 1021MOL0     H37775   5.754   2.138   8.884  0.7521 -0.4287 -1.5071
 1021MOL0     H37776   5.626   2.312   8.997 -0.5509  0.5624 -0.8286
 1021MOL0     H37777   5.478   2.220   8.975 -0.8905 -2.5769 -2.8171
 1021MOL0     H37778   5.571   2.036   9.118  0.6367 -0.8557  3.0254
 1021MOL0     H37779   5.734   2.120   9.104  0.0348 -3.1156  0.8216
 1021MOL0     H37780   5.640   2.304   9.241 -0.7771  0.4200  0.5773
 1021MOL0     H37781   5.474   2.244   9.215 -0.4715 -0.9492 -0.2941
 1021MOL0     H37782   5.479   2.200   9.406 -0.0859 -0.0736 -0.0254
 1021MOL0     H37783   5.542   2.041   9.351  1.8031 -0.6533  2.4086
 1021MOL0     H37784   5.721   2.249   9.488 -0.6317  0.2987  0.7456
 1021MOL0     H37785   5.768   2.102   9.397 -1.7235 -0.9281 -0.8038
 1021MOL0     H37786   5.536   2.208   9.679  1.1344  0.2408  0.5751
 1021MOL0     H37787   5.551   1.994   9.948  1.8048  3.1285 -0.7991
 1021MOL0     H37788   5.438   2.096   9.869 -0.9348 -1.0171  0.8100
 1021MOL0     H37789   5.404   1.780   9.881  0.0828 -0.2641 -1.9600
 1021MOL0     H37790   5.298   1.884   9.788 -1.8384 -0.3042  0.2006
 1021MOL0     H37791   5.243   1.793  10.034  1.6085 -0.4141  0.1913
 1021MOL0     H37792   5.178   1.931   9.961  1.3407  0.7077 -0.7947
 1021MOL0     H37793   5.305   2.109  10.079 -4.1455  0.4483  0.8236
 1021MOL0     H37794   5.415   1.985  10.146 -0.7267  0.3443  3.5016
 1021MOL0     H37795   5.116   2.019  10.424  0.9303  0.8111 -2.8487
 1021MOL0     H37796   5.016   1.989  10.619 -1.0488 -0.5787 -0.7514
 1021MOL0     H37797   4.976   1.817  10.661  0.0154  0.2006  1.1248
 1021MOL0     H37798   5.104   1.900  10.742 -3.1192 -0.5331  1.0786
 1021MOL0     H37799   5.115   1.332  10.633  2.1143  2.2807 -2.6111
 1021MOL0     H37800   5.079   1.146  10.816  0.7063 -0.9113 -3.6303
 1021MOL0     H37801   5.418   1.128  11.096 -1.2464  2.9801  3.1756
 1021MOL0     H37802   5.294   1.098  11.209  1.3458  0.6895  0.3364
 1021MOL0     H37803   5.449   0.902  11.152  1.5604  0.2735 -2.6713
 1021MOL0     H37804   5.275   0.883  11.176  0.2069  2.7845  1.6618
 1021MOL0     H37805   5.390   0.936  10.892 -3.1676 -0.2056 -2.2520
 1021MOL0     H37806   5.265   0.823  10.926  0.8254 -2.1110  0.8189
 1021MOL0     H37807   5.559   0.773  10.971  1.0918 -0.3995 -1.6218
 1021MOL0     H37808   5.430   0.675  11.028 -1.5801  0.1001  0.2686
 1021MOL0     H37809   5.558   0.635  10.767  1.3377  3.4788 -0.2635
 1021MOL0     H37810   5.451   0.749  10.721  0.1472  1.7476  1.8408
 1021MOL0     H37811   5.250   0.595  10.810 -0.3794 -2.8809  0.0301
 1021MOL0     H37812   5.355   0.522  10.686 -2.2892 -1.0510 -0.4773
 1021MOL0     H37813   5.387   0.454  10.978  2.1038 -0.9088  0.3777
 1021MOL0     H37814   5.483   0.397  10.870 -0.1278 -1.9508  2.9927
 1021MOL0     H37815   5.364   0.231  10.900  0.4621 -0.4712 -1.3120
 1021MOL0     H37816   5.316   0.298  10.741 -0.5456  0.9792 -0.6859
 1021MOL0     H37817   5.421   1.300  11.012  0.3299  0.6298 -0.1317
 1021MOL0     H37818   5.462   1.462  10.843  2.4020 -3.3426  0.9756
 1021MOL0     H37819   5.376   1.605  10.417 -0.9275 -0.3372 -0.2012
 1021MOL0     H37820   5.367   1.744  10.227  0.9265 -0.9866  2.2269
 1021MOL0     H37821   5.834   2.083   8.393 -0.1365 -0.2504 -0.1585
 1021MOL0     H37822   5.958   1.891   8.304 -0.6072 -0.7491  1.5610
 1021MOL0     H37823   6.573   1.745   8.423 -1.0887 -0.1746  1.1085
 1021MOL0     H37824   6.696   1.542   8.398 -0.9956 -1.2091 -0.8345
 1021MOL0     H37825   6.804   1.368   8.365  1.3878  0.1874  2.4290
 1021MOL0     H37826   6.761   1.308   8.520  4.0089 -0.7841 -1.1680
 1021MOL0     H37827   6.726   1.079   8.438 -0.9679  2.1888  0.6206
 1021MOL0     H37828   6.891   1.140   8.444  0.8465  0.0348 -0.0662
 1021MOL0     H37829   6.922   1.058   8.255 -0.1546 -0.0924  4.2014
 1021MOL0     H37830   6.849   1.211   8.199 -1.0200 -1.3278 -2.3979
 1021MOL0     H37831   6.621   1.094   8.182  0.0671  0.5455  2.0864
 1021MOL0     H37832   6.713   0.942   8.220  2.1705  0.7818  1.3403
 1021MOL0     H37833   6.796   1.032   7.804  0.7480  2.6863  0.2593
 1021MOL0     H37834   6.353   1.306   8.385  1.6790 -1.5725  2.6829
 1021MOL0     H37835   6.213   1.519   8.376 -0.5171  2.1346  0.3656
 1022MOL0     O37836   1.692   5.107   7.810 -0.1613  0.3253 -0.1472
 1022MOL0     C37837   1.689   5.208   7.875  0.0895 -0.6889 -0.7824
 1022MOL0     O37838   1.757   5.231   7.999  0.5726  0.0131 -0.3394
 1022MOL0     C37839   1.816   5.128   8.052 -0.5105  0.8128  0.0247
 1022MOL0     C37840   1.788   5.117   8.192 -0.0105 -0.2182  1.1133
 1022MOL0     C37841   1.851   5.016   8.258  0.2721 -0.7430 -0.3450
 1022MOL0     C37842   1.949   4.936   8.205  0.4308  1.0194  0.5702
 1022MOL0     O37843   2.025   4.851   8.276  0.1329 -0.1395 -0.2129
 1022MOL0     C37844   1.953   4.735   8.329  1.0313 -0.4813 -0.3301
 1022MOL0     C37845   2.032   4.608   8.342 -1.1065 -0.3192 -0.5277
 1022MOL0     C37846   2.059   4.563   8.190  0.1222  0.2157 -0.4005
 1022MOL0     C37847   2.198   4.504   8.173  0.2485  0.1872  1.1376
 1022MOL0     C37848   2.229   4.386   8.261  0.6150  0.8160 -0.3957
 1022MOL0     C37849   2.371   4.387   8.305 -0.5614 -0.5015  0.4846
 1022MOL0     C37850   2.406   4.298   8.424 -0.5459 -0.3590  0.3138
 1022MOL0     C37851   2.549   4.264   8.452 -0.0897 -0.3805  0.2340
 1022MOL0     N37852   2.570   4.161   8.553  0.0721  0.2273  0.2396
 1022MOL0     C37853   2.482   4.127   8.649  0.4833  1.1424 -0.3980
 1022MOL0     C37854   2.538   4.017   8.712 -1.0642 -0.2231  0.0990
 1022MOL0     C37855   2.483   3.928   8.819  1.2408 -0.1304 -0.3506
 1022MOL0     C37856   2.557   3.789   8.820  0.3283 -1.3335 -0.0385
 1022MOL0     C37857   2.658   3.770   8.935 -0.3121  0.2400  0.4689
 1022MOL0     C37858   2.728   3.639   8.911 -0.3041  0.1309  0.3374
 1022MOL0     O37859   2.822   3.647   8.803 -0.6963 -0.6398 -0.2379
 1022MOL0     C37860   2.921   3.553   8.793  0.1836 -0.1709  0.3762
 1022MOL0     C37861   2.928   3.425   8.852 -0.2198 -0.3711 -0.1355
 1022MOL0     C37862   3.030   3.338   8.835 -0.7462 -0.1842  0.3663
 1022MOL0     C37863   3.019   3.202   8.904  0.0342 -0.2384 -0.0418
 1022MOL0     C37864   3.135   3.376   8.747  0.3535  0.0335 -1.2246
 1022MOL0     C37865   3.256   3.285   8.721 -1.2116 -0.6392  1.3236
 1022MOL0     O37866   3.289   3.266   8.590  0.1739  0.7071 -0.0503
 1022MOL0     C37867   3.398   3.189   8.541  0.1833 -0.0197  0.1601
 1022MOL0     C37868   3.391   3.141   8.415 -0.6925  0.3141  0.3967
 1022MOL0     C37869   3.492   3.050   8.369 -0.0393  0.7763  0.6549
 1022MOL0     C37870   3.608   3.033   8.437  0.2417  1.2996 -0.1389
 1022MOL0     O37871   3.708   2.950   8.392 -0.1765  0.0921  0.1322
 1022MOL0     C37872   3.697   2.879   8.265 -0.6167 -0.0688 -0.3565
 1022MOL0     C37873   3.810   2.781   8.228  0.3705  0.4552 -0.2042
 1022MOL0     C37874   3.940   2.855   8.215  0.4074  0.0253  1.2046
 1022MOL0     C37875   4.056   2.761   8.188  0.2943  0.6349  0.2875
 1022MOL0     C37876   4.189   2.832   8.232  0.0330  0.3573  0.4451
 1022MOL0     C37877   4.214   2.955   8.136 -0.3736 -1.0772  0.2565
 1022MOL0     C37878   4.350   3.026   8.168  0.9602 -0.8789 -0.0835
 1022MOL0     C37879   4.476   2.958   8.128  0.4387 -0.3349 -0.3787
 1022MOL0    Cl37880   4.537   2.978   7.959  0.0558 -0.4395  0.6329
 1022MOL0     C37881   3.627   3.090   8.557  0.6340  0.0102 -0.1685
 1022MOL0     C37882   3.519   3.174   8.612 -0.5334  0.6929  0.2860
 1022MOL0     O37883   3.313   3.231   8.814  0.1892  0.1419  0.0429
 1022MOL0     C37884   3.125   3.502   8.674  0.2308 -0.4559 -0.4083
 1022MOL0     C37885   3.024   3.589   8.701 -0.4471  0.0352 -0.7180
 1022MOL0     N37886   2.669   3.996   8.655 -0.2639  0.0083  0.1099
 1022MOL0     N37887   2.680   4.083   8.559 -0.8764  0.1615  0.5667
 1022MOL0     C37888   1.983   4.957   8.076  0.0550  0.2395  0.3964
 1022MOL0     C37889   1.920   5.049   7.999 -0.7358  1.0481 -0.1242
 1022MOL0     C37890   1.575   5.304   7.837  0.3811 -0.3151 -0.2885
 1022MOL0     C37891   1.563   5.439   7.889  0.3416  0.5555  0.0500
 1022MOL0     C37892   1.449   5.516   7.863  1.2683 -0.4316  1.0254
 1022MOL0     C37893   1.361   5.481   7.758 -0.6566  0.1957  0.3415
 1022MOL0     O37894   1.278   5.570   7.705  0.2810  0.0789  0.0344
 1022MOL0     C37895   1.139   5.539   7.731 -0.1140 -0.2188  0.0726
 1022MOL0     C37896   1.039   5.647   7.668 -0.6460 -0.3107 -0.1387
 1022MOL0     C37897   1.068   5.669   7.520  0.1123  0.5093 -0.8580
 1022MOL0     C37898   0.961   5.768   7.454 -0.1986  0.6010 -0.0750
 1022MOL0     C37899   0.959   5.906   7.489  0.4345 -0.4330  0.1182
 1022MOL0     C37900   0.945   6.021   7.520  0.0388 -1.1430 -0.0202
 1022MOL0     C37901   1.376   5.356   7.701 -0.5120  0.3151  0.6028
 1022MOL0     C37902   1.483   5.271   7.740 -0.2026 -0.6477 -0.2562
 1022MOL0     H37903   1.715   5.187   8.232 -0.6972  2.4810 -4.0371
 1022MOL0     H37904   1.810   5.000   8.357 -3.1959 -1.9714 -1.8230
 1022MOL0     H37905   1.907   4.760   8.425 -0.7304  3.0705 -1.9158
 1022MOL0     H37906   1.862   4.712   8.274  1.3862 -1.4845 -0.5232
 1022MOL0     H37907   2.129   4.621   8.390 -1.3038  1.3386 -0.5106
 1022MOL0     H37908   1.967   4.538   8.396  1.5811 -0.3773  2.9469
 1022MOL0     H37909   1.988   4.483   8.168  0.2654  0.4705 -1.8670
 1022MOL0     H37910   2.050   4.647   8.120 -0.8747 -0.8289 -1.5893
 1022MOL0     H37911   2.211   4.476   8.068  1.6782  1.6036  0.9009
 1022MOL0     H37912   2.265   4.585   8.205 -1.1504  2.5701 -1.5377
 1022MOL0     H37913   2.160   4.369   8.344  0.0105 -2.2111 -1.3820
 1022MOL0     H37914   2.220   4.297   8.198 -2.1689  0.4812  0.3648
 1022MOL0     H37915   2.430   4.350   8.221 -1.2767  0.9339 -0.6902
 1022MOL0     H37916   2.413   4.486   8.321  1.4079 -0.5464 -3.3168
 1022MOL0     H37917   2.365   4.346   8.514  0.8535  0.1914  0.6871
 1022MOL0     H37918   2.349   4.206   8.416  0.1208 -0.6929 -0.9451
 1022MOL0     H37919   2.611   4.344   8.493  0.3865 -2.4594  4.0465
 1022MOL0     H37920   2.602   4.240   8.359  1.1347 -0.5245  0.9414
 1022MOL0     H37921   2.389   4.173   8.683 -0.9787 -0.4804 -1.9823
 1022MOL0     H37922   2.498   3.970   8.919  3.4704 -1.9922  0.2027
 1022MOL0     H37923   2.376   3.921   8.795  1.1066 -0.8527  0.3901
 1022MOL0     H37924   2.599   3.781   8.719 -1.1706  1.0194 -0.9643
 1022MOL0     H37925   2.476   3.717   8.830 -0.2263 -0.6888  0.1670
 1022MOL0     H37926   2.599   3.772   9.027 -3.4270  0.9970 -1.4089
 1022MOL0     H37927   2.732   3.849   8.956  0.8248 -0.5680 -0.3747
 1022MOL0     H37928   2.651   3.567   8.881 -2.8863  3.1626 -0.9386
 1022MOL0     H37929   2.782   3.616   9.003  4.3526 -0.0496 -2.1709
 1022MOL0     H37930   2.843   3.398   8.914 -1.8227  1.0139 -1.6316
 1022MOL0     H37931   2.991   3.132   8.825  3.2320 -3.6906  1.5694
 1022MOL0     H37932   3.113   3.166   8.947  0.6691 -0.9499 -1.9255
 1022MOL0     H37933   2.940   3.204   8.979  0.8649  0.5320  0.8323
 1022MOL0     H37934   3.312   3.173   8.347 -0.2847  0.6273  0.0590
 1022MOL0     H37935   3.475   3.000   8.274 -1.3114  0.1015  1.2110
 1022MOL0     H37936   3.607   2.817   8.254 -1.0493  0.1596  1.6067
 1022MOL0     H37937   3.710   2.960   8.192  2.2965 -0.0438  0.0791
 1022MOL0     H37938   3.808   2.698   8.300 -1.5082  3.6495  3.9176
 1022MOL0     H37939   3.788   2.745   8.128  0.6847 -0.1855 -0.0449
 1022MOL0     H37940   3.961   2.912   8.306 -1.1851  0.4218  1.3649
 1022MOL0     H37941   3.930   2.929   8.134  1.3634  1.1410  2.0697
 1022MOL0     H37942   4.045   2.675   8.255  0.1561 -0.3283 -0.9162
 1022MOL0     H37943   4.060   2.728   8.083 -0.9789  0.4983  0.2534
 1022MOL0     H37944   4.277   2.767   8.236 -1.5855 -1.9128  1.2991
 1022MOL0     H37945   4.170   2.869   8.333  1.7586  2.9218 -0.0925
 1022MOL0     H37946   4.228   2.906   8.039 -0.5619 -0.9533  0.1654
 1022MOL0     H37947   4.139   3.033   8.119  1.3830 -0.0079 -4.1719
 1022MOL0     H37948   4.356   3.041   8.276 -1.8933 -3.1566  0.5207
 1022MOL0     H37949   4.340   3.131   8.142 -2.4359 -0.7607  1.1589
 1022MOL0     H37950   4.458   2.851   8.134 -1.0244 -0.1248 -0.5937
 1022MOL0     H37951   4.552   2.983   8.202 -0.3641  0.4407  0.2104
 1022MOL0     H37952   3.719   3.081   8.615 -0.1981 -1.1983  1.0218
 1022MOL0     H37953   3.542   3.222   8.707 -0.6992  1.5041 -0.0778
 1022MOL0     H37954   3.191   3.547   8.600 -3.3614  1.6469 -2.6675
 1022MOL0     H37955   3.036   3.686   8.653  2.8748  0.4897  0.7596
 1022MOL0     H37956   2.076   4.919   8.037  0.9455 -0.7382  3.2108
 1022MOL0     H37957   1.950   5.063   7.896 -0.8898  0.5275 -0.2445
 1022MOL0     H37958   1.630   5.477   7.965 -0.1455 -0.4357  1.0108
 1022MOL0     H37959   1.447   5.611   7.915  0.4741 -0.2287  0.6495
 1022MOL0     H37960   1.122   5.437   7.694 -1.1748  1.0862 -3.4603
 1022MOL0     H37961   1.113   5.544   7.837 -0.1768 -2.5593  0.2154
 1022MOL0     H37962   1.045   5.744   7.719  0.0549 -1.9178  3.1101
 1022MOL0     H37963   0.938   5.604   7.674 -0.5592 -0.4413  0.4407
 1022MOL0     H37964   1.060   5.570   7.474 -1.5472 -1.4640  3.1351
 1022MOL0     H37965   1.167   5.708   7.498 -0.1909  0.9401 -1.4749
 1022MOL0     H37966   0.860   5.737   7.483 -0.0364  1.6546  1.7866
 1022MOL0     H37967   0.969   5.764   7.345  1.0351  1.8685 -0.0660
 1022MOL0     H37968   0.936   6.122   7.553  0.4963 -0.7691 -1.0254
 1022MOL0     H37969   1.319   5.318   7.616 -0.3586  2.1568 -0.3681
 1022MOL0     H37970   1.493   5.172   7.697 -4.2658 -1.5123  0.3478
 1023MOL0     O37971   5.426   2.677   5.350  0.5621  0.1094  0.3969
 1023MOL0     C37972   5.337   2.728   5.277  0.0029 -0.3049 -0.0110
 1023MOL0     O37973   5.204   2.749   5.300  0.5218  0.5119 -0.8941
 1023MOL0     C37974   5.169   2.755   5.437 -0.8141 -0.7156  0.0965
 1023MOL0     C37975   5.197   2.871   5.514 -0.0733 -0.1719 -0.6184
 1023MOL0     C37976   5.141   2.876   5.639  0.6216 -0.7436 -1.3631
 1023MOL0     C37977   5.076   2.769   5.700 -0.0940  0.1959  0.2927
 1023MOL0     O37978   5.029   2.766   5.832  0.1510  0.7506  0.9288
 1023MOL0     C37979   5.133   2.827   5.919  0.1368  0.3312 -0.2497
 1023MOL0     C37980   5.137   2.768   6.062  0.2657 -0.8278  0.4231
 1023MOL0     C37981   5.251   2.851   6.127  0.0038 -0.3548 -0.1374
 1023MOL0     C37982   5.285   2.785   6.268 -0.4069  0.0081  0.5004
 1023MOL0     C37983   5.173   2.779   6.368 -0.1902  0.7362 -0.3266
 1023MOL0     C37984   5.112   2.913   6.401 -0.3309  0.2377 -0.1657
 1023MOL0     C37985   4.984   2.892   6.473 -0.1115 -0.0523  0.4527
 1023MOL0     C37986   5.004   2.862   6.620 -1.4071 -1.2194  0.5596
 1023MOL0     N37987   4.884   2.873   6.699 -0.1303 -0.3655  0.0700
 1023MOL0     C37988   4.784   2.782   6.690  0.5884 -0.1898  0.4740
 1023MOL0     C37989   4.689   2.824   6.766  0.0169 -1.2687 -0.1109
 1023MOL0     C37990   4.553   2.757   6.784 -1.2334  0.8698 -0.4614
 1023MOL0     C37991   4.563   2.643   6.886 -0.6839  0.5142  0.4658
 1023MOL0     C37992   4.579   2.686   7.032 -0.1533 -1.0276 -0.2063
 1023MOL0     C37993   4.446   2.729   7.091 -0.7133 -0.0765  0.4165
 1023MOL0     O37994   4.376   2.826   7.016  0.3729  0.2990 -0.3047
 1023MOL0     C37995   4.248   2.849   7.047  0.6626 -0.2771  0.2546
 1023MOL0     C37996   4.191   2.825   7.172 -0.6811  0.1002  0.8698
 1023MOL0     C37997   4.057   2.857   7.197 -0.4219 -0.8176 -0.1506
 1023MOL0     C37998   4.016   2.856   7.346 -0.0533  0.4837  0.5319
 1023MOL0     C37999   3.965   2.903   7.100  0.2355  0.0637  0.9159
 1023MOL0     C38000   3.824   2.939   7.125  0.2200  0.0384 -0.4388
 1023MOL0     O38001   3.777   3.053   7.069 -0.4938 -0.2498  0.0655
 1023MOL0     C38002   3.656   3.114   7.105  0.5045  0.5857  0.3542
 1023MOL0     C38003   3.637   3.236   7.044  0.9567 -0.3652  0.7474
 1023MOL0     C38004   3.514   3.312   7.059 -1.3145 -0.0188  1.3925
 1023MOL0     C38005   3.427   3.274   7.164  0.1924  0.1488 -0.5776
 1023MOL0     O38006   3.318   3.361   7.217 -0.4514  0.9074  0.1630
 1023MOL0     C38007   3.272   3.464   7.137  0.2764  0.4689  0.3406
 1023MOL0     C38008   3.150   3.535   7.211 -1.1850  0.1284 -0.0109
 1023MOL0     C38009   3.113   3.656   7.133  0.0232  0.0090  1.1640
 1023MOL0     C38010   2.981   3.710   7.184 -0.5635  0.0487 -0.0577
 1023MOL0     C38011   2.932   3.824   7.102 -0.3409 -0.7166 -0.4673
 1023MOL0     C38012   2.927   3.800   6.952  0.7833 -0.4290 -0.8731
 1023MOL0     C38013   2.889   3.936   6.881  0.0214  0.2620  0.6416
 1023MOL0     C38014   2.744   3.991   6.889 -0.5359  0.0168 -0.4102
 1023MOL0    Cl38015   2.618   3.873   6.879 -0.6994  0.3614  0.1000
 1023MOL0     C38016   3.450   3.153   7.227  0.3824 -0.2301 -0.1125
 1023MOL0     C38017   3.558   3.070   7.197  0.2315  0.4897  0.2240
 1023MOL0     O38018   3.746   2.852   7.172 -0.2928 -1.1032  0.5606
 1023MOL0     C38019   4.030   2.932   6.980  0.2572 -0.0344 -0.4190
 1023MOL0     C38020   4.165   2.909   6.953 -0.0717  0.1133  0.4799
 1023MOL0     N38021   4.733   2.946   6.829  0.9047  0.5642 -0.3156
 1023MOL0     N38022   4.849   2.979   6.777 -0.0248  0.0789 -0.1358
 1023MOL0     C38023   5.076   2.654   5.629  0.5268 -0.2480  0.0567
 1023MOL0     C38024   5.119   2.638   5.498  0.0996 -0.1912 -0.9526
 1023MOL0     C38025   5.384   2.774   5.141  0.4668 -0.6326 -0.5017
 1023MOL0     C38026   5.521   2.761   5.107  0.4793  0.5453  0.2869
 1023MOL0     C38027   5.573   2.781   4.977  1.1233  0.0561  0.3762
 1023MOL0     C38028   5.490   2.852   4.882  0.6503 -0.8072  0.5411
 1023MOL0     O38029   5.536   2.869   4.748 -0.0846  0.2725 -0.7919
 1023MOL0     C38030   5.444   2.919   4.642  0.5208  0.5728 -0.4919
 1023MOL0     C38031   5.389   3.063   4.639 -0.3499  0.2417  0.6337
 1023MOL0     C38032   5.507   3.161   4.605  0.3185 -0.0159  0.2168
 1023MOL0     C38033   5.449   3.306   4.578 -0.6266 -0.3340  0.4505
 1023MOL0     C38034   5.385   3.328   4.446  0.8807 -0.0243  0.2166
 1023MOL0     C38035   5.329   3.356   4.348 -0.7107  0.3855  1.3073
 1023MOL0     C38036   5.361   2.878   4.927  0.6718  0.8312 -0.4718
 1023MOL0     C38037   5.304   2.837   5.054 -1.7952 -0.1479 -0.9962
 1023MOL0     H38038   5.236   2.958   5.463 -1.4367  0.7976 -0.0620
 1023MOL0     H38039   5.149   2.974   5.683  0.9449 -2.2906  2.3340
 1023MOL0     H38040   5.234   2.806   5.883  0.2309  0.8006 -0.2598
 1023MOL0     H38041   5.113   2.934   5.919 -2.6686 -0.0357 -2.8280
 1023MOL0     H38042   5.041   2.783   6.112  0.2148  2.7206 -0.5088
 1023MOL0     H38043   5.161   2.661   6.061 -0.8464 -1.1700  3.0933
 1023MOL0     H38044   5.343   2.854   6.068 -0.1289 -0.7118 -0.3669
 1023MOL0     H38045   5.222   2.956   6.144  0.1891 -0.4468  0.8421
 1023MOL0     H38046   5.311   2.680   6.248 -0.6730 -0.2570  1.4651
 1023MOL0     H38047   5.374   2.830   6.312  0.8618 -0.6049 -1.3260
 1023MOL0     H38048   5.103   2.701   6.337  0.6270 -1.0896  2.0714
 1023MOL0     H38049   5.222   2.740   6.458  1.5533 -0.0688 -1.5766
 1023MOL0     H38050   5.174   2.991   6.446  0.0364 -0.0660 -0.1368
 1023MOL0     H38051   5.079   2.959   6.308  1.3980  2.6845  0.3261
 1023MOL0     H38052   4.924   2.982   6.458  0.9108  1.2627  3.4832
 1023MOL0     H38053   4.934   2.805   6.428  1.1383  0.3311 -1.8283
 1023MOL0     H38054   5.081   2.930   6.658  0.4426 -2.6657 -0.4216
 1023MOL0     H38055   5.047   2.762   6.633  0.9850 -0.1983  1.1704
 1023MOL0     H38056   4.781   2.702   6.617  0.8185  2.6753 -2.9604
 1023MOL0     H38057   4.482   2.832   6.820 -2.2637 -0.3900  0.1911
 1023MOL0     H38058   4.531   2.722   6.683 -0.5815  2.1064 -1.0481
 1023MOL0     H38059   4.646   2.575   6.863 -1.3264 -1.3413  3.2180
 1023MOL0     H38060   4.475   2.579   6.877 -0.2960 -0.1465  1.3053
 1023MOL0     H38061   4.642   2.775   7.029 -0.9182 -0.4839 -2.6705
 1023MOL0     H38062   4.618   2.599   7.086 -0.2059 -2.0886 -1.7794
 1023MOL0     H38063   4.466   2.767   7.192 -1.5515 -1.2319  1.0527
 1023MOL0     H38064   4.391   2.635   7.103 -1.4492  0.1986 -0.6808
 1023MOL0     H38065   4.243   2.779   7.256  3.5140 -0.9437 -2.0028
 1023MOL0     H38066   4.105   2.832   7.406  0.2306  2.8321  1.1563
 1023MOL0     H38067   4.003   2.960   7.379  2.0747  0.1313  2.7317
 1023MOL0     H38068   3.931   2.796   7.378 -0.5193  1.2465  0.7511
 1023MOL0     H38069   3.715   3.278   6.981  1.3477 -0.5491  1.0953
 1023MOL0     H38070   3.489   3.399   6.999  0.5518 -0.4459 -0.0893
 1023MOL0     H38071   3.357   3.526   7.108  1.5676 -1.8706 -1.2955
 1023MOL0     H38072   3.241   3.434   7.036 -3.3623  2.3991  0.7481
 1023MOL0     H38073   3.059   3.476   7.222 -2.0506  1.1308 -1.4038
 1023MOL0     H38074   3.178   3.572   7.310 -1.4450  0.9110 -0.2236
 1023MOL0     H38075   3.094   3.617   7.033  0.4748 -2.8568  2.0978
 1023MOL0     H38076   3.190   3.733   7.133 -1.4104  1.4846  1.7398
 1023MOL0     H38077   2.915   3.623   7.173 -1.6041  1.0639 -2.9558
 1023MOL0     H38078   2.986   3.742   7.288  2.2368  1.4407 -0.5256
 1023MOL0     H38079   2.989   3.916   7.117 -1.5640  0.2713 -1.6241
 1023MOL0     H38080   2.830   3.851   7.130 -0.5577 -0.3905 -1.5232
 1023MOL0     H38081   3.031   3.781   6.926  0.4097  0.2978 -3.1022
 1023MOL0     H38082   2.862   3.715   6.926  1.7374 -0.6486 -2.7022
 1023MOL0     H38083   2.920   3.919   6.777  1.8345 -2.0832  1.4813
 1023MOL0     H38084   2.958   4.010   6.922  0.9769  1.5816 -2.9575
 1023MOL0     H38085   2.722   4.060   6.807 -2.6928 -1.4746 -1.1537
 1023MOL0     H38086   2.748   4.052   6.980 -2.6403 -0.1870 -0.1481
 1023MOL0     H38087   3.393   3.125   7.315  0.5644  0.9284  0.3921
 1023MOL0     H38088   3.553   2.977   7.252  1.8536  0.3374  0.1556
 1023MOL0     H38089   3.973   2.989   6.908 -3.4517 -0.3347  2.0143
 1023MOL0     H38090   4.201   2.929   6.853  0.0988  1.2693  0.7566
 1023MOL0     H38091   5.049   2.558   5.674 -1.5685  1.4390  2.7322
 1023MOL0     H38092   5.097   2.548   5.441 -1.1670 -0.5088 -0.0094
 1023MOL0     H38093   5.593   2.727   5.182  0.3569 -1.6459 -0.5034
 1023MOL0     H38094   5.677   2.753   4.960  1.3575  0.2195  1.4442
 1023MOL0     H38095   5.489   2.887   4.547  2.2661 -2.6368  1.2257
 1023MOL0     H38096   5.353   2.858   4.647 -2.1349  4.1907 -1.2207
 1023MOL0     H38097   5.339   3.090   4.732  0.5589  1.5336  0.7756
 1023MOL0     H38098   5.305   3.069   4.570 -0.0375 -0.0805  0.2170
 1023MOL0     H38099   5.560   3.122   4.518 -1.4204 -0.4649 -0.6959
 1023MOL0     H38100   5.566   3.161   4.697 -2.2205 -3.8692  2.1028
 1023MOL0     H38101   5.534   3.373   4.591 -1.7824  1.1387  0.6707
 1023MOL0     H38102   5.374   3.315   4.656 -1.7105 -0.4977 -0.5375
 1023MOL0     H38103   5.274   3.366   4.257 -0.1587  1.5823  1.0947
 1023MOL0     H38104   5.282   2.916   4.863 -2.1510  0.2232  2.3764
 1023MOL0     H38105   5.202   2.865   5.080 -1.4825  0.3717 -0.2872
 1024MOL0     O38106   2.453   2.374   9.649  0.2093 -0.0772  0.3772
 1024MOL0     C38107   2.495   2.317   9.545  0.0969  0.0092  1.1104
 1024MOL0     O38108   2.589   2.366   9.460  0.1999  0.0314  0.0057
 1024MOL0     C38109   2.624   2.496   9.487  0.5271 -0.8087 -0.6802
 1024MOL0     C38110   2.564   2.605   9.426  0.4259 -1.2659  0.0516
 1024MOL0     C38111   2.593   2.743   9.458  0.0017  0.5843 -0.7165
 1024MOL0     C38112   2.678   2.776   9.574  0.8150  0.3443  0.0294
 1024MOL0     O38113   2.702   2.901   9.616 -0.1945  0.2578  0.6186
 1024MOL0     C38114   2.711   3.008   9.519  0.2644 -0.1928  0.2964
 1024MOL0     C38115   2.836   3.102   9.538  0.9053 -0.2344 -0.8279
 1024MOL0     C38116   2.866   3.189   9.425  0.1572 -0.6372  0.4320
 1024MOL0     C38117   3.012   3.219   9.407  0.2961  0.0167  0.6566
 1024MOL0     C38118   3.034   3.292   9.280  0.7780 -0.1134  0.5213
 1024MOL0     C38119   3.179   3.344   9.272  0.3298  0.5437 -0.6907
 1024MOL0     C38120   3.295   3.247   9.230  1.1983  0.0229 -0.6368
 1024MOL0     C38121   3.429   3.319   9.211  0.1234  0.2762  0.3849
 1024MOL0     N38122   3.537   3.225   9.195 -0.0933 -0.8437  0.7240
 1024MOL0     C38123   3.597   3.183   9.080 -0.2320  0.0417 -0.1994
 1024MOL0     C38124   3.707   3.115   9.113  0.4739 -0.3712 -0.6387
 1024MOL0     C38125   3.761   3.003   9.031 -1.0237  0.2434  0.3724
 1024MOL0     C38126   3.836   3.043   8.907  0.0637  0.3916 -0.0074
 1024MOL0     C38127   3.958   3.130   8.921  0.4210 -0.2004 -0.8017
 1024MOL0     C38128   4.030   3.151   8.796 -0.2223  1.0436  0.4909
 1024MOL0     O38129   4.146   3.055   8.799  0.0503  0.9016 -0.3686
 1024MOL0     C38130   4.261   3.097   8.735 -0.2030 -0.5721  0.2916
 1024MOL0     C38131   4.253   3.168   8.612 -0.0625 -1.3198  0.5821
 1024MOL0     C38132   4.372   3.191   8.541  0.5410  0.5352 -0.8905
 1024MOL0     C38133   4.367   3.288   8.429 -0.2107  0.0649  0.5963
 1024MOL0     C38134   4.501   3.143   8.595 -0.7451  0.3019  0.1593
 1024MOL0     C38135   4.629   3.167   8.524  0.6096  0.2544  0.0397
 1024MOL0     O38136   4.742   3.137   8.597  0.0009  0.9233  0.0241
 1024MOL0     C38137   4.862   3.166   8.539 -0.1932 -0.2954 -0.9621
 1024MOL0     C38138   4.950   3.053   8.523 -0.3700 -0.0569  0.6874
 1024MOL0     C38139   5.081   3.075   8.478  0.0739  0.2079 -0.5473
 1024MOL0     C38140   5.136   3.205   8.441 -0.3908  0.8314  0.2543
 1024MOL0     O38141   5.274   3.226   8.407 -0.2186  0.0832 -0.8600
 1024MOL0     C38142   5.322   3.345   8.333 -0.3790  0.4579  0.0682
 1024MOL0     C38143   5.463   3.367   8.369 -0.2326 -0.2244  0.3689
 1024MOL0     C38144   5.558   3.263   8.309  0.2259 -0.0501 -0.1811
 1024MOL0     C38145   5.699   3.295   8.322 -0.4191  0.7164 -0.4135
 1024MOL0     C38146   5.790   3.191   8.238 -0.3141  0.0362  0.2807
 1024MOL0     C38147   5.924   3.250   8.185 -0.0999  0.1967 -0.8275
 1024MOL0     C38148   6.015   3.298   8.311  0.0236 -0.8121 -0.2392
 1024MOL0     C38149   6.076   3.195   8.403  1.0502 -0.5634  0.5535
 1024MOL0    Cl38150   6.185   3.079   8.314 -0.1759 -0.3733 -0.1792
 1024MOL0     C38151   5.041   3.312   8.459  0.3649  0.5859  0.7353
 1024MOL0     C38152   4.904   3.294   8.504 -0.3923  0.5711  0.5495
 1024MOL0     O38153   4.630   3.218   8.406  0.4811  0.3034  0.6342
 1024MOL0     C38154   4.509   3.070   8.715 -0.4307 -0.2816 -0.2840
 1024MOL0     C38155   4.392   3.050   8.777  0.0642 -0.3393  0.3116
 1024MOL0     N38156   3.706   3.106   9.250 -0.6731  0.3738  0.0163
 1024MOL0     N38157   3.611   3.174   9.294  0.0116  0.6516 -0.9639
 1024MOL0     C38158   2.733   2.663   9.643 -0.3002 -0.9134  0.1519
 1024MOL0     C38159   2.704   2.525   9.605  0.4226 -0.0818 -0.3110
 1024MOL0     C38160   2.443   2.182   9.504  0.7615  0.4603 -0.5139
 1024MOL0     C38161   2.368   2.114   9.600 -0.1194  0.5998  0.6749
 1024MOL0     C38162   2.316   1.993   9.567  0.2222  0.1140  0.6867
 1024MOL0     C38163   2.347   1.929   9.452 -0.3513  0.6469 -0.2265
 1024MOL0     O38164   2.292   1.807   9.429  1.0882 -0.5535  0.8455
 1024MOL0     C38165   2.255   1.778   9.291  0.5843  0.6527  0.6042
 1024MOL0     C38166   2.119   1.852   9.253  0.1165 -0.2391 -0.1642
 1024MOL0     C38167   2.070   1.811   9.119 -0.3599 -0.6702  0.0183
 1024MOL0     C38168   1.982   1.914   9.043  0.7557 -0.6229 -0.1745
 1024MOL0     C38169   1.854   1.924   9.109  0.4020  0.3617  0.6442
 1024MOL0     C38170   1.757   1.950   9.176 -0.0557  0.1627 -0.0267
 1024MOL0     C38171   2.432   1.990   9.355  0.0702 -0.5609  0.4766
 1024MOL0     C38172   2.473   2.115   9.385  0.1082  0.8289  0.2001
 1024MOL0     H38173   2.490   2.597   9.347  0.8971  0.5610 -0.6447
 1024MOL0     H38174   2.544   2.821   9.400  2.0641  2.3193 -0.2556
 1024MOL0     H38175   2.718   2.965   9.418 -0.9995  2.3109 -0.9587
 1024MOL0     H38176   2.616   3.062   9.516 -1.2243 -2.6538 -1.2056
 1024MOL0     H38177   2.833   3.168   9.625  2.4639 -1.1505 -0.0271
 1024MOL0     H38178   2.920   3.032   9.545 -0.7415 -2.1763  0.7147
 1024MOL0     H38179   2.830   3.154   9.327  0.5381 -0.8467  0.3665
 1024MOL0     H38180   2.811   3.283   9.435  1.3234 -0.1952  4.4819
 1024MOL0     H38181   3.053   3.278   9.489  0.5086 -0.2571  0.7488
 1024MOL0     H38182   3.070   3.127   9.396 -0.7153 -0.4237 -1.3815
 1024MOL0     H38183   3.022   3.224   9.195  2.0708 -2.8847  2.3665
 1024MOL0     H38184   2.967   3.377   9.265  0.2474 -0.5414  0.4376
 1024MOL0     H38185   3.180   3.419   9.192 -0.7217  2.5858  1.1188
 1024MOL0     H38186   3.200   3.389   9.369 -2.3405 -1.9025  1.1872
 1024MOL0     H38187   3.303   3.182   9.318 -2.4161 -1.8016 -1.4769
 1024MOL0     H38188   3.275   3.200   9.134 -2.1838 -0.8561  0.3613
 1024MOL0     H38189   3.442   3.379   9.302  1.8344  0.2787  0.1661
 1024MOL0     H38190   3.414   3.390   9.129  0.6496  3.7437  3.0536
 1024MOL0     H38191   3.564   3.195   8.977  0.7183 -1.7152 -0.7483
 1024MOL0     H38192   3.837   2.944   9.082  0.8307 -0.1749 -2.6022
 1024MOL0     H38193   3.681   2.940   8.990  0.1647 -0.4938 -0.8789
 1024MOL0     H38194   3.766   3.099   8.844  2.7882  3.3512 -0.6502
 1024MOL0     H38195   3.864   2.955   8.849  1.0383  1.3672 -1.0711
 1024MOL0     H38196   4.029   3.084   8.991  1.2998  0.4055 -1.2852
 1024MOL0     H38197   3.929   3.233   8.943  0.0605 -0.8771  2.3680
 1024MOL0     H38198   4.062   3.255   8.788 -1.5869  1.3244 -4.0057
 1024MOL0     H38199   3.963   3.132   8.711  0.7850  0.8166 -0.2734
 1024MOL0     H38200   4.154   3.190   8.575  1.5714  2.5327 -2.1615
 1024MOL0     H38201   4.385   3.255   8.326 -0.3611 -0.8708  0.8597
 1024MOL0     H38202   4.273   3.342   8.412  1.3683  2.2738 -1.9806
 1024MOL0     H38203   4.438   3.369   8.446 -0.8389  0.3558  1.9499
 1024MOL0     H38204   4.915   2.950   8.533 -0.0744 -0.4961 -1.8573
 1024MOL0     H38205   5.149   2.994   8.453 -1.4253 -0.1084 -4.2069
 1024MOL0     H38206   5.322   3.329   8.225  2.4376 -0.5453  0.1411
 1024MOL0     H38207   5.266   3.437   8.352 -0.7404  0.7734 -2.2034
 1024MOL0     H38208   5.497   3.466   8.335 -2.7093 -0.1109 -2.1980
 1024MOL0     H38209   5.466   3.357   8.477 -0.5837 -0.7964  0.3287
 1024MOL0     H38210   5.531   3.263   8.203 -1.6241  0.6789  0.2526
 1024MOL0     H38211   5.540   3.160   8.343 -1.5377 -0.5776 -2.4201
 1024MOL0     H38212   5.709   3.392   8.272  1.8265 -1.0232 -3.6879
 1024MOL0     H38213   5.731   3.304   8.426  0.3211  2.3012 -0.7549
 1024MOL0     H38214   5.728   3.165   8.152  1.9510 -0.0329 -1.4169
 1024MOL0     H38215   5.804   3.092   8.281  2.5340 -0.2135 -1.0502
 1024MOL0     H38216   5.985   3.179   8.129  1.1270 -0.3354  1.0795
 1024MOL0     H38217   5.905   3.339   8.125 -0.8561  0.1255 -0.7099
 1024MOL0     H38218   5.961   3.361   8.382  3.2634  1.0048  0.8431
 1024MOL0     H38219   6.096   3.365   8.278 -1.4496  0.8571 -0.6304
 1024MOL0     H38220   5.994   3.132   8.439 -0.3271 -0.8205 -2.7271
 1024MOL0     H38221   6.123   3.257   8.480 -0.9696  3.2283 -1.0054
 1024MOL0     H38222   5.074   3.415   8.446  1.9400  0.1038  0.8012
 1024MOL0     H38223   4.847   3.384   8.526  0.5064  0.9919  1.2009
 1024MOL0     H38224   4.604   3.034   8.753 -0.9717 -1.0537  0.3633
 1024MOL0     H38225   4.392   2.991   8.869 -1.3149  2.5687  2.3451
 1024MOL0     H38226   2.811   2.682   9.715  2.8653 -1.6930 -2.7719
 1024MOL0     H38227   2.756   2.439   9.644 -1.6774 -1.6296 -0.7547
 1024MOL0     H38228   2.334   2.156   9.695  2.0245  0.8984  1.3466
 1024MOL0     H38229   2.258   1.940   9.643  0.3998 -2.5354 -0.9107
 1024MOL0     H38230   2.329   1.810   9.217  1.6907  1.1673  1.8908
 1024MOL0     H38231   2.254   1.671   9.270  2.7946  0.6314  0.3100
 1024MOL0     H38232   2.155   1.956   9.248  0.2897 -0.0491  3.1377
 1024MOL0     H38233   2.035   1.830   9.319  0.2568  2.5043  1.0747
 1024MOL0     H38234   2.018   1.716   9.134 -0.9308 -0.2404  0.8071
 1024MOL0     H38235   2.162   1.789   9.064  0.1995 -0.6775  0.9242
 1024MOL0     H38236   1.981   1.867   8.944 -1.7924 -0.2332 -0.3944
 1024MOL0     H38237   2.034   2.010   9.046 -0.0320 -0.1898  2.9146
 1024MOL0     H38238   1.667   1.971   9.230  0.6437  1.8567  0.5222
 1024MOL0     H38239   2.474   1.954   9.261  2.9030  0.4176  1.2669
 1024MOL0     H38240   2.540   2.157   9.310  0.7939 -0.1833  0.2339
  11.56483  11.56483  11.56483
